Protein in INSANE! Membrane UpperLeaflet>POPC=1.0 LowerLeaflet>POPC=1.0
241666
    1AU     AUC    1  42.063  14.168   7.515
    1AU     AUC    2  42.341  14.166   7.342
    1AU     AUC    3  42.340  14.150   7.690
    1AU     AUC    4  41.774  14.170   7.343
    1AU     AUC    5  41.804  14.214   7.700
    1AU     AUC    6  41.897  14.455   7.509
    1AU     AUC    7  42.264  14.435   7.505
    1AU     AUC    8  41.861  13.909   7.521
    1AU     AUC    9  42.210  13.871   7.519
    1AU     AUC   10  42.056  14.002   7.800
    1AU     AUC   11  42.067  14.345   7.783
    1AU     AUC   12  42.054  13.998   7.237
    1AU     AUC   13  42.087  14.320   7.236
    1AU     AUC   14  42.657  14.156   7.172
    1AU     AUC   15  42.669  14.103   7.531
    1AU     AUC   16  42.618  14.112   7.865
    1AU     AUC   17  41.469  14.172   7.172
    1AU     AUC   18  41.454  14.217   7.533
    1AU     AUC   19  41.507  14.251   7.892
    1AU     AUC   20  41.734  14.765   7.478
    1AU     AUC   21  42.092  14.765   7.460
    1AU     AUC   22  42.463  14.708   7.492
    1AU     AUC   23  41.642  13.639   7.525
    1AU     AUC   24  41.995  13.573   7.514
    1AU     AUC   25  42.353  13.560   7.511
    1AU     AUC   26  42.028  13.835   8.094
    1AU     AUC   27  42.090  14.205   8.127
    1AU     AUC   28  42.096  14.540   8.064
    1AU     AUC   29  42.075  13.820   6.963
    1AU     AUC   30  42.084  14.154   6.903
    1AU     AUC   31  42.076  14.471   6.941
    1AU     AUC   32  42.332  13.967   8.014
    1AU     AUC   33  42.389  14.334   7.998
    1AU     AUC   34  42.391  14.005   7.012
    1AU     AUC   35  42.405  14.338   7.050
    1AU     AUC   36  41.748  14.051   8.028
    1AU     AUC   37  41.796  14.413   8.003
    1AU     AUC   38  41.758  13.986   7.048
    1AU     AUC   39  41.744  14.298   7.006
    1AU     AUC   40  42.608  14.425   7.364
    1AU     AUC   41  42.577  14.428   7.702
    1AU     AUC   42  41.573  14.477   7.338
    1AU     AUC   43  41.598  14.533   7.692
    1AU     AUC   44  42.513  13.836   7.337
    1AU     AUC   45  42.485  13.794   7.705
    1AU     AUC   46  41.527  13.877   7.354
    1AU     AUC   47  41.589  13.933   7.717
    1AU     AUC   48  41.915  14.712   7.771
    1AU     AUC   49  42.274  14.644   7.758
    1AU     AUC   50  41.826  13.716   7.819
    1AU     AUC   51  42.166  13.654   7.804
    1AU     AUC   52  41.894  14.602   7.195
    1AU     AUC   53  42.283  14.633   7.204
    1AU     AUC   54  41.845  13.700   7.224
    1AU     AUC   55  42.237  13.695   7.219
    1AU    AUSL   56  42.623  14.087   8.210
    1AU    AUSL   57  42.312  13.658   8.195
    1AU     AUL   58  42.646  13.674   8.351
    1AU       S   59  42.600  13.239   8.193
    1AU     LIG   60  42.556  13.205   8.587
    1AU     LIG   61  42.761  12.862   8.803
    1AU     LIG   62  42.988  12.503   8.988
    1AU     LIG   63  43.214  12.312   9.361
    1AU     LIG   64  43.160  12.200   9.833
    1AU       S   65  42.890  14.052   8.279
    1AU     LIG   66  42.852  13.961   8.742
    1AU     LIG   67  42.896  13.819   9.207
    1AU     LIG   68  43.132  13.761   9.627
    1AU     LIG   69  43.517  13.814   9.918
    1AU     LIG   70  43.889  13.980  10.181
    1AU    AUSL   71  42.228  14.022   8.398
    1AU    AUSL   72  41.954  14.377   8.410
    1AU     AUL   73  42.159  14.322   8.741
    1AU       S   74  42.378  13.957   8.580
    1AU     LIG   75  42.201  13.769   8.920
    1AU     LIG   76  42.440  13.564   9.291
    1AU     LIG   77  42.698  13.448   9.689
    1AU     LIG   78  42.776  13.298  10.146
    1AU     LIG   79  42.872  13.260  10.610
    1AU       S   80  41.757  14.122   8.675
    1AU     LIG   81  41.727  14.001   9.137
    1AU     LIG   82  41.405  13.989   9.497
    1AU     LIG   83  41.212  13.942   9.935
    1AU     LIG   84  41.138  14.220  10.328
    1AU     LIG   85  41.059  14.556  10.676
    1AU    AUSL   86  42.364  14.435   8.348
    1AU    AUSL   87  42.719  14.485   8.081
    1AU     AUL   88  42.644  14.366   8.491
    1AU       S   89  42.256  14.737   8.484
    1AU     LIG   90  42.511  14.684   8.865
    1AU     LIG   91  42.779  14.725   9.272
    1AU     LIG   92  42.887  14.768   9.758
    1AU     LIG   93  42.873  14.801  10.250
    1AU     LIG   94  42.902  14.989  10.699
    1AU       S   95  42.795  14.742   8.272
    1AU     LIG   96  43.154  14.504   8.354
    1AU     LIG   97  43.485  14.671   8.665
    1AU     LIG   98  43.758  14.929   8.978
    1AU     LIG   99  43.998  15.212   9.289
    1AU     LIG  100  44.206  15.335   9.699
    1AU    AUSL  101  42.627  14.280   6.792
    1AU    AUSL  102  42.424  14.628   6.979
    1AU     AUL  103  42.561  14.653   6.647
    1AU       S  104  42.592  14.312   6.343
    1AU     LIG  105  42.986  14.166   6.165
    1AU     LIG  106  43.107  13.871   5.848
    1AU     LIG  107  43.161  13.744   5.412
    1AU     LIG  108  43.408  13.542   5.062
    1AU     LIG  109  43.785  13.564   4.773
    1AU       S  110  42.879  14.869   6.895
    1AU     LIG  111  42.982  15.017   6.495
    1AU     LIG  112  43.191  15.180   6.100
    1AU     LIG  113  43.438  15.353   5.745
    1AU     LIG  114  43.429  15.662   5.400
    1AU     LIG  115  43.552  15.957   5.051
    1AU    AUSL  116  42.385  13.964   6.629
    1AU    AUSL  117  42.722  13.888   6.939
    1AU     AUL  118  42.828  14.046   6.664
    1AU       S  119  42.797  13.584   6.694
    1AU     LIG  120  42.942  13.289   6.345
    1AU     LIG  121  43.215  12.916   6.225
    1AU     LIG  122  43.491  12.678   5.913
    1AU     LIG  123  43.811  12.656   5.552
    1AU     LIG  124  44.271  12.647   5.407
    1AU       S  125  42.516  14.124   6.328
    1AU     LIG  126  42.660  13.755   6.125
    1AU     LIG  127  42.742  13.537   5.698
    1AU     LIG  128  42.775  13.470   5.220
    1AU     LIG  129  42.830  13.321   4.769
    1AU     LIG  130  42.700  13.232   4.313
    1AU    AUSL  131  42.207  14.345   6.738
    1AU    AUSL  132  41.967  13.961   6.736
    1AU     AUL  133  42.110  13.973   6.458
    1AU       S  134  41.665  13.996   6.308
    1AU     LIG  135  41.639  13.710   5.995
    1AU     LIG  136  41.306  13.610   5.686
    1AU     LIG  137  41.205  13.529   5.226
    1AU     LIG  138  41.171  13.258   4.822
    1AU     LIG  139  41.107  13.023   4.405
    1AU       S  140  42.281  14.397   6.372
    1AU     LIG  141  42.313  14.207   5.901
    1AU     LIG  142  42.668  14.045   5.609
    1AU     LIG  143  42.842  14.073   5.154
    1AU     LIG  144  42.898  14.327   4.735
    1AU     LIG  145  42.966  14.454   4.269
    1AU    AUSL  146  41.551  14.327   8.274
    1AU    AUSL  147  41.847  14.668   8.124
    1AU     AUL  148  41.730  14.630   8.472
    1AU       S  149  41.586  14.263   8.729
    1AU     LIG  150  41.287  13.931   8.862
    1AU     LIG  151  40.982  13.854   9.235
    1AU     LIG  152  40.819  13.679   9.668
    1AU     LIG  153  40.581  13.567  10.079
    1AU     LIG  154  40.308  13.572  10.479
    1AU       S  155  41.443  14.909   8.210
    1AU     LIG  156  41.517  15.179   8.523
    1AU     LIG  157  41.317  15.246   8.938
    1AU     LIG  158  41.028  15.322   9.301
    1AU     LIG  159  40.846  15.579   9.663
    1AU     LIG  160  40.748  15.786  10.089
    1AU    AUSL  161  41.846  14.014   8.205
    1AU    AUSL  162  41.394  13.959   8.116
    1AU     AUL  163  41.400  14.046   8.371
    1AU       S  164  41.206  13.611   8.300
    1AU     LIG  165  40.772  13.539   8.178
    1AU     LIG  166  40.539  13.173   8.374
    1AU     LIG  167  40.261  12.858   8.590
    1AU     LIG  168  39.824  12.840   8.777
    1AU     LIG  169  39.617  12.760   9.220
    1AU       S  170  41.806  13.952   8.588
    1AU     LIG  171  41.694  13.604   8.816
    1AU     LIG  172  41.431  13.558   9.202
    1AU     LIG  173  41.298  13.501   9.654
    1AU     LIG  174  41.081  13.416  10.070
    1AU     LIG  175  41.073  13.321  10.542
    1AU    AUSL  176  41.558  14.072   6.774
    1AU    AUSL  177  41.728  13.694   6.960
    1AU     AUL  178  41.771  13.679   6.630
    1AU       S  179  41.465  13.984   6.454
    1AU     LIG  180  41.176  13.794   6.186
    1AU     LIG  181  40.946  13.968   5.835
    1AU     LIG  182  40.841  13.863   5.390
    1AU     LIG  183  40.528  13.889   5.039
    1AU     LIG  184  40.102  13.842   4.812
    1AU       S  185  41.342  13.583   6.766
    1AU     LIG  186  41.073  13.352   6.482
    1AU     LIG  187  40.792  12.975   6.402
    1AU     LIG  188  40.546  12.645   6.170
    1AU     LIG  189  40.427  12.390   5.777
    1AU     LIG  190  40.462  12.256   5.323
    1AU    AUSL  191  41.825  14.361   6.578
    1AU    AUSL  192  41.359  14.418   6.930
    1AU     AUL  193  41.478  14.419   6.601
    1AU       S  194  41.078  14.625   6.729
    1AU     LIG  195  40.914  14.774   6.311
    1AU     LIG  196  40.722  14.971   5.928
    1AU     LIG  197  40.557  15.198   5.556
    1AU     LIG  198  40.225  15.468   5.359
    1AU     LIG  199  39.763  15.523   5.241
    1AU       S  200  41.748  14.228   6.270
    1AU     LIG  201  41.427  14.181   5.904
    1AU     LIG  202  41.307  14.072   5.471
    1AU     LIG  203  41.211  14.033   5.017
    1AU     LIG  204  41.310  14.182   4.563
    1AU     LIG  205  41.260  14.330   4.102
    1AU    AUSL  206  42.830  14.568   7.547
    1AU    AUSL  207  42.797  14.462   7.130
    1AU     AUL  208  43.096  14.732   7.377
    1AU       S  209  42.925  14.611   6.967
    1AU     LIG  210  43.052  14.506   6.560
    1AU     LIG  211  43.368  14.724   6.287
    1AU     LIG  212  43.682  15.007   6.066
    1AU     LIG  213  43.956  15.301   5.807
    1AU     LIG  214  44.329  15.385   5.526
    1AU       S  215  43.304  14.400   7.671
    1AU     LIG  216  43.620  14.689   7.532
    1AU     LIG  217  44.069  14.838   7.506
    1AU     LIG  218  44.513  15.001   7.545
    1AU     LIG  219  44.927  15.219   7.508
    1AU     LIG  220   0.165  15.620   7.416
    1AU    AUSL  221  43.015  14.191   7.370
    1AU    AUSL  222  42.962  13.837   7.687
    1AU     AUL  223  43.281  13.866   7.518
    1AU       S  224  43.200  14.295   7.438
    1AU     LIG  225  43.657  14.196   7.382
    1AU     LIG  226  44.097  14.347   7.360
    1AU     LIG  227  44.513  14.558   7.288
    1AU     LIG  228  44.936  14.774   7.241
    1AU     LIG  229   0.413  14.856   7.181
    1AU       S  230  43.147  13.421   7.671
    1AU     LIG  231  43.524  13.223   7.777
    1AU     LIG  232  43.979  13.150   7.757
    1AU     LIG  233  44.439  13.055   7.755
    1AU     LIG  234  44.894  12.958   7.732
    1AU     LIG  235   0.316  13.132   7.615
    1AU    AUSL  236  42.816  14.218   7.778
    1AU    AUSL  237  42.664  14.842   7.821
    1AU     AUL  238  42.957  14.637   7.852
    1AU       S  239  42.857  15.018   8.111
    1AU     LIG  240  43.237  15.012   8.333
    1AU     LIG  241  43.401  15.193   8.714
    1AU     LIG  242  43.719  15.453   8.922
    1AU     LIG  243  44.015  15.802   8.998
    1AU     LIG  244  44.155  16.255   8.977
    1AU       S  245  43.147  14.222   7.854
    1AU     LIG  246  43.543  14.250   8.072
    1AU     LIG  247  43.920  14.399   7.845
    1AU     LIG  248  44.369  14.527   7.786
    1AU     LIG  249  44.822  14.633   7.726
    1AU     LIG  250   0.244  14.832   7.670
    1AU    AUSL  251  41.394  14.763   7.530
    1AU    AUSL  252  41.490  14.541   7.914
    1AU     AUL  253  41.168  14.858   7.780
    1AU       S  254  41.349  14.721   8.177
    1AU     LIG  255  41.215  14.767   8.626
    1AU     LIG  256  40.899  14.934   8.922
    1AU     LIG  257  40.589  15.042   9.261
    1AU     LIG  258  40.205  15.210   9.481
    1AU     LIG  259  39.949  15.521   9.728
    1AU       S  260  41.386  15.120   7.442
    1AU     LIG  261  40.895  15.069   7.382
    1AU     LIG  262  40.446  15.317   7.391
    1AU     LIG  263  40.107  15.727   7.405
    1AU     LIG  264  39.682  16.027   7.430
    1AU     LIG  265  39.216  16.148   7.653
    1AU    AUSL  266  41.351  14.379   7.343
    1AU    AUSL  267  41.494  14.790   7.119
    1AU     AUL  268  41.185  14.684   7.196
    1AU       S  269  40.934  14.260   7.017
    1AU     LIG  270  40.697  14.686   7.084
    1AU     LIG  271  40.362  15.022   6.909
    1AU     LIG  272  39.857  15.049   6.778
    1AU     LIG  273  39.415  15.054   6.587
    1AU     LIG  274  38.924  15.022   6.643
    1AU       S  275  41.326  15.059   6.942
    1AU     LIG  276  40.876  15.104   6.762
    1AU     LIG  277  40.855  15.278   6.321
    1AU     LIG  278  40.713  15.586   6.000
    1AU     LIG  279  40.504  16.024   6.024
    1AU     LIG  280  40.209  16.407   6.032
    1AU    AUSL  281  41.137  14.411   7.734
    1AU    AUSL  282  41.095  14.055   7.396
    1AU     AUL  283  40.956  14.399   7.465
    1AU       S  284  40.827  13.965   7.604
    1AU     LIG  285  40.591  13.904   7.194
    1AU     LIG  286  40.186  13.619   7.127
    1AU     LIG  287  39.702  13.600   7.178
    1AU     LIG  288  39.214  13.628   7.114
    1AU     LIG  289  38.866  13.496   6.817
    1AU       S  290  41.034  14.394   7.959
    1AU     LIG  291  40.876  14.832   8.221
    1AU     LIG  292  40.381  14.936   8.222
    1AU     LIG  293  39.877  15.021   8.240
    1AU     LIG  294  39.445  14.907   8.463
    1AU     LIG  295  39.001  14.688   8.479
    1AU    AUSL  296  42.685  13.540   7.553
    1AU    AUSL  297  42.586  13.815   7.895
    1AU     AUL  298  42.895  13.704   7.933
    1AU       S  299  42.856  13.344   7.542
    1AU     LIG  300  43.199  12.972   7.359
    1AU     LIG  301  43.680  12.907   7.386
    1AU     LIG  302  44.142  12.768   7.436
    1AU     LIG  303  44.600  12.607   7.483
    1AU     LIG  304  44.941  12.244   7.527
    1AU       S  305  42.771  13.287   8.045
    1AU     LIG  306  43.035  13.083   8.378
    1AU     LIG  307  43.271  12.842   8.699
    1AU     LIG  308  43.502  12.579   9.006
    1AU     LIG  309  43.856  12.382   9.222
    1AU     LIG  310  44.256  12.447   9.463
    1AU    AUSL  311  42.702  13.918   7.353
    1AU    AUSL  312  42.634  13.508   7.136
    1AU     AUL  313  42.928  13.720   7.191
    1AU       S  314  43.126  13.425   7.463
    1AU     LIG  315  43.582  13.416   7.308
    1AU     LIG  316  44.060  13.256   7.261
    1AU     LIG  317  44.528  13.082   7.252
    1AU     LIG  318  44.996  12.961   7.226
    1AU     LIG  319   0.436  13.113   7.105
    1AU       S  320  42.828  13.385   6.860
    1AU     LIG  321  42.925  12.939   6.734
    1AU     LIG  322  43.051  12.527   6.519
    1AU     LIG  323  43.337  12.290   6.231
    1AU     LIG  324  43.688  11.966   6.165
    1AU     LIG  325  44.028  11.618   6.221
    1AU    AUSL  326  41.266  13.689   7.559
    1AU    AUSL  327  41.402  13.923   7.137
    1AU     AUL  328  41.059  13.776   7.244
    1AU       S  329  41.248  13.723   6.834
    1AU     LIG  330  40.767  13.591   6.821
    1AU     LIG  331  40.433  13.240   6.657
    1AU     LIG  332  40.154  12.922   6.373
    1AU     LIG  333  39.692  12.792   6.183
    1AU     LIG  334  39.457  12.553   5.871
    1AU       S  335  40.836  13.691   7.655
    1AU     LIG  336  40.725  13.410   7.315
    1AU     LIG  337  40.383  13.152   7.160
    1AU     LIG  338  39.921  13.070   7.265
    1AU     LIG  339  39.649  12.705   7.107
    1AU     LIG  340  39.197  12.629   7.234
    1AU    AUSL  341  41.386  14.081   7.716
    1AU    AUSL  342  41.575  13.689   7.843
    1AU     AUL  343  41.198  13.846   7.898
    1AU       S  344  41.247  13.429   8.072
    1AU     LIG  345  40.930  13.044   8.064
    1AU     LIG  346  40.558  12.682   8.195
    1AU     LIG  347  40.132  12.409   8.339
    1AU     LIG  348  39.803  12.142   8.602
    1AU     LIG  349  39.648  11.668   8.873
    1AU       S  350  40.797  14.004   7.762
    1AU     LIG  351  40.345  13.820   7.609
    1AU     LIG  352  39.899  13.867   7.580
    1AU     LIG  353  39.528  13.697   7.833
    1AU     LIG  354  39.090  13.565   7.811
    1AU     LIG  355  38.737  13.384   8.035
    1AU    AUSL  356  42.090  14.984   7.971
    1AU    AUSL  357  41.681  14.911   7.807
    1AU     AUL  358  41.894  15.015   8.203
    1AU       S  359  41.552  15.110   7.904
    1AU     LIG  360  41.157  15.279   8.095
    1AU     LIG  361  40.994  15.269   8.529
    1AU     LIG  362  40.873  15.582   8.878
    1AU     LIG  363  40.660  16.022   8.997
    1AU     LIG  364  40.381  16.441   8.972
    1AU       S  365  42.170  15.342   7.918
    1AU     LIG  366  42.189  15.402   8.360
    1AU     LIG  367  42.139  15.839   8.585
    1AU     LIG  368  42.498  16.166   8.762
    1AU     LIG  369  42.392  16.433   9.149
    1AU     LIG  370  42.113  16.744   9.369
    1AU    AUSL  371  41.944  15.122   7.557
    1AU    AUSL  372  42.254  15.021   7.211
    1AU     AUL  373  42.181  15.378   7.331
    1AU       S  374  41.967  15.375   7.745
    1AU     LIG  375  41.846  15.692   8.085
    1AU     LIG  376  41.782  16.102   8.327
    1AU     LIG  377  41.878  16.561   8.289
    1AU     LIG  378  41.922  16.978   8.566
    1AU     LIG  379  41.952  17.424   8.637
    1AU       S  380  41.977  15.252   6.943
    1AU     LIG  381  42.379  15.518   6.903
    1AU     LIG  382  42.591  15.937   6.818
    1AU     LIG  383  42.789  16.375   6.738
    1AU     LIG  384  42.877  16.844   6.862
    1AU     LIG  385  42.565  17.215   6.884
    1AU    AUSL  386  42.306  14.890   7.614
    1AU    AUSL  387  42.321  14.637   7.994
    1AU     AUL  388  42.397  14.962   8.053
    1AU       S  389  42.701  14.864   8.379
    1AU     LIG  390  42.987  14.813   8.742
    1AU     LIG  391  43.249  14.893   9.103
    1AU     LIG  392  43.481  15.218   9.324
    1AU     LIG  393  43.690  15.388   9.704
    1AU     LIG  394  43.681  15.646  10.097
    1AU       S  395  42.409  15.244   7.697
    1AU     LIG  396  42.699  15.499   7.998
    1AU     LIG  397  42.809  16.001   8.155
    1AU     LIG  398  42.730  16.516   8.225
    1AU     LIG  399  42.744  17.041   8.258
    1AU     LIG  400  42.706  17.555   8.339
    1AU    AUSL  401  41.975  13.527   7.961
    1AU    AUSL  402  42.386  13.439   7.830
    1AU     AUL  403  42.158  13.369   8.208
    1AU       S  404  41.990  12.977   8.023
    1AU     LIG  405  41.746  12.763   8.323
    1AU     LIG  406  41.704  12.317   8.375
    1AU     LIG  407  41.746  11.865   8.350
    1AU     LIG  408  41.962  11.550   8.603
    1AU     LIG  409  41.773  11.146   8.743
    1AU       S  410  42.517  13.236   7.901
    1AU     LIG  411  42.703  12.788   8.027
    1AU     LIG  412  42.936  12.572   8.395
    1AU     LIG  413  43.286  12.325   8.604
    1AU     LIG  414  43.638  12.098   8.832
    1AU     LIG  415  44.014  11.793   8.841
    1AU    AUSL  416  41.647  13.315   7.690
    1AU    AUSL  417  41.695  13.633   8.258
    1AU     AUL  418  41.693  13.342   8.046
    1AU       S  419  41.747  12.923   7.845
    1AU     LIG  420  41.591  12.500   7.885
    1AU     LIG  421  41.425  12.090   8.015
    1AU     LIG  422  41.286  11.662   8.074
    1AU     LIG  423  41.180  11.271   8.256
    1AU     LIG  424  41.418  10.920   8.398
    1AU       S  425  41.440  13.548   8.386
    1AU     LIG  426  41.335  13.091   8.421
    1AU     LIG  427  40.944  12.832   8.529
    1AU     LIG  428  40.705  12.507   8.771
    1AU     LIG  429  40.754  12.221   9.169
    1AU     LIG  430  40.621  12.213   9.627
    1AU    AUSL  431  42.068  13.242   7.646
    1AU    AUSL  432  41.850  13.472   7.344
    1AU     AUL  433  41.713  13.138   7.433
    1AU       S  434  42.102  12.999   7.241
    1AU     LIG  435  41.764  12.631   7.285
    1AU     LIG  436  41.470  12.242   7.125
    1AU     LIG  437  41.106  11.914   6.972
    1AU     LIG  438  41.217  11.498   6.744
    1AU     LIG  439  41.187  11.053   6.674
    1AU       S  440  42.068  13.040   7.769
    1AU     LIG  441  42.072  12.560   7.711
    1AU     LIG  442  41.959  12.121   7.923
    1AU     LIG  443  42.192  11.748   8.143
    1AU     LIG  444  42.209  11.284   8.228
    1AU     LIG  445  42.385  10.872   8.382
    1AU    AUSL  446  42.066  14.806   6.857
    1AU    AUSL  447  42.625  14.841   7.295
    1AU     AUL  448  42.410  14.994   6.934
    1AU       S  449  42.007  15.154   6.743
    1AU     LIG  450  42.207  15.435   6.440
    1AU     LIG  451  42.372  15.870   6.338
    1AU     LIG  452  42.318  16.274   6.071
    1AU     LIG  453  42.079  16.642   5.826
    1AU     LIG  454  42.028  17.098   5.626
    1AU       S  455  42.825  14.997   7.126
    1AU     LIG  456  43.270  15.144   6.943
    1AU     LIG  457  43.485  15.208   6.522
    1AU     LIG  458  43.666  15.509   6.193
    1AU     LIG  459  43.983  15.812   5.984
    1AU     LIG  460  44.236  16.237   5.964
    1AU    AUSL  461  41.878  14.834   7.259
    1AU    AUSL  462  41.785  14.506   6.966
    1AU     AUL  463  41.719  14.802   6.829
    1AU       S  464  41.796  15.180   7.102
    1AU     LIG  465  41.854  15.698   7.092
    1AU     LIG  466  41.926  16.177   7.031
    1AU     LIG  467  41.934  16.638   6.838
    1AU     LIG  468  42.077  17.086   6.656
    1AU     LIG  469  41.810  17.413   6.400
    1AU       S  470  41.279  14.834   6.708
    1AU     LIG  471  41.425  14.887   6.336
    1AU     LIG  472  41.219  15.067   5.974
    1AU     LIG  473  41.035  15.344   5.649
    1AU     LIG  474  40.922  15.612   5.274
    1AU     LIG  475  40.684  15.916   5.002
    1AU    AUSL  476  42.038  13.402   6.960
    1AU    AUSL  477  41.449  13.492   7.229
    1AU     AUL  478  41.696  13.320   6.994
    1AU       S  479  41.239  13.432   6.983
    1AU     LIG  480  40.896  13.108   6.918
    1AU     LIG  481  40.587  12.765   6.831
    1AU     LIG  482  40.336  12.440   6.620
    1AU     LIG  483  40.139  12.070   6.408
    1AU     LIG  484  39.851  11.744   6.227
    1AU       S  485  42.060  13.028   7.085
    1AU     LIG  486  41.983  12.691   6.814
    1AU     LIG  487  41.821  12.287   6.673
    1AU     LIG  488  41.908  11.921   6.386
    1AU     LIG  489  41.890  11.565   6.105
    1AU     LIG  490  42.022  11.138   6.191
    1AU    AUSL  491  42.278  13.427   7.336
    1AU    AUSL  492  42.305  13.725   6.960
    1AU     AUL  493  42.372  13.343   6.960
    1AU       S  494  42.362  13.054   7.329
    1AU     LIG  495  42.274  12.544   7.228
    1AU     LIG  496  41.989  12.146   7.142
    1AU     LIG  497  42.006  11.693   6.964
    1AU     LIG  498  42.170  11.250   6.897
    1AU     LIG  499  42.287  10.918   6.586
    1AU       S  500  42.580  13.547   6.610
    1AU     LIG  501  42.487  13.114   6.523
    1AU     LIG  502  42.706  12.800   6.253
    1AU     LIG  503  42.976  12.549   5.943
    1AU     LIG  504  43.219  12.426   5.545
    1AU     LIG  505  43.387  12.158   5.187
    2AU     AUC  506  18.263  15.289   7.493
    2AU     AUC  507  18.548  15.299   7.318
    2AU     AUC  508  18.527  15.273   7.667
    2AU     AUC  509  17.978  15.280   7.328
    2AU     AUC  510  17.995  15.318   7.678
    2AU     AUC  511  18.092  15.569   7.489
    2AU     AUC  512  18.449  15.567   7.480
    2AU     AUC  513  18.076  15.018   7.501
    2AU     AUC  514  18.428  14.999   7.492
    2AU     AUC  515  18.262  15.109   7.770
    2AU     AUC  516  18.259  15.476   7.755
    2AU     AUC  517  18.263  15.126   7.217
    2AU     AUC  518  18.282  15.446   7.214
    2AU     AUC  519  18.864  15.310   7.156
    2AU     AUC  520  18.871  15.260   7.515
    2AU     AUC  521  18.814  15.242   7.864
    2AU     AUC  522  17.676  15.269   7.161
    2AU     AUC  523  17.657  15.304   7.526
    2AU     AUC  524  17.710  15.346   7.865
    2AU     AUC  525  17.926  15.869   7.464
    2AU     AUC  526  18.295  15.897   7.445
    2AU     AUC  527  18.636  15.845   7.471
    2AU     AUC  528  17.882  14.742   7.501
    2AU     AUC  529  18.230  14.688   7.483
    2AU     AUC  530  18.593  14.698   7.474
    2AU     AUC  531  18.244  14.928   8.060
    2AU     AUC  532  18.260  15.294   8.090
    2AU     AUC  533  18.287  15.654   8.044
    2AU     AUC  534  18.296  14.957   6.936
    2AU     AUC  535  18.285  15.283   6.879
    2AU     AUC  536  18.263  15.600   6.921
    2AU     AUC  537  18.528  15.057   7.987
    2AU     AUC  538  18.569  15.440   7.981
    2AU     AUC  539  18.609  15.152   6.993
    2AU     AUC  540  18.597  15.476   7.027
    2AU     AUC  541  17.961  15.157   8.009
    2AU     AUC  542  17.985  15.534   7.983
    2AU     AUC  543  17.969  15.102   7.030
    2AU     AUC  544  17.941  15.413   6.988
    2AU     AUC  545  18.800  15.581   7.343
    2AU     AUC  546  18.737  15.543   7.689
    2AU     AUC  547  17.764  15.576   7.323
    2AU     AUC  548  17.793  15.632   7.675
    2AU     AUC  549  18.744  14.989   7.322
    2AU     AUC  550  18.706  14.934   7.675
    2AU     AUC  551  17.745  14.981   7.349
    2AU     AUC  552  17.797  15.027   7.712
    2AU     AUC  553  18.115  15.815   7.749
    2AU     AUC  554  18.457  15.771   7.765
    2AU     AUC  555  18.068  14.808   7.797
    2AU     AUC  556  18.387  14.756   7.766
    2AU     AUC  557  18.077  15.721   7.178
    2AU     AUC  558  18.464  15.764   7.185
    2AU     AUC  559  18.072  14.820   7.197
    2AU     AUC  560  18.466  14.839   7.196
    2AU    AUSL  561  18.789  15.174   8.228
    2AU    AUSL  562  18.517  14.766   8.145
    2AU     AUL  563  18.806  14.770   8.366
    2AU       S  564  18.894  14.407   8.104
    2AU     LIG  565  18.772  14.250   8.485
    2AU     LIG  566  18.887  13.910   8.759
    2AU     LIG  567  19.119  13.618   9.026
    2AU     LIG  568  19.359  13.318   9.281
    2AU     LIG  569  19.542  13.190   9.678
    2AU       S  570  19.011  15.172   8.350
    2AU     LIG  571  18.877  15.175   8.786
    2AU     LIG  572  19.011  15.066   9.223
    2AU     LIG  573  19.294  14.919   9.578
    2AU     LIG  574  19.611  14.944   9.933
    2AU     LIG  575  19.919  15.180  10.213
    2AU    AUSL  576  18.388  15.096   8.393
    2AU    AUSL  577  18.135  15.482   8.415
    2AU     AUL  578  18.330  15.404   8.734
    2AU       S  579  18.465  15.017   8.541
    2AU     LIG  580  18.434  14.966   8.975
    2AU     LIG  581  18.620  14.747   9.337
    2AU     LIG  582  18.849  14.705   9.745
    2AU     LIG  583  18.906  14.687  10.217
    2AU     LIG  584  19.025  14.499  10.635
    2AU       S  585  17.926  15.220   8.632
    2AU     LIG  586  17.933  15.225   9.112
    2AU     LIG  587  17.635  15.213   9.493
    2AU     LIG  588  17.434  15.214   9.932
    2AU     LIG  589  17.277  15.312  10.368
    2AU     LIG  590  17.149  15.570  10.757
    2AU    AUSL  591  18.457  15.465   8.152
    2AU    AUSL  592  18.895  15.570   8.098
    2AU     AUL  593  18.681  15.480   8.439
    2AU       S  594  18.355  15.857   8.578
    2AU     LIG  595  18.709  15.740   8.871
    2AU     LIG  596  18.993  15.890   9.231
    2AU     LIG  597  19.020  15.986   9.712
    2AU     LIG  598  19.029  15.987  10.204
    2AU     LIG  599  19.168  16.040  10.665
    2AU       S  600  19.059  15.703   8.285
    2AU     LIG  601  19.480  15.725   8.287
    2AU     LIG  602  19.734  15.904   8.640
    2AU     LIG  603  19.972  16.122   8.981
    2AU     LIG  604  20.135  16.264   9.401
    2AU     LIG  605  20.471  16.199   9.736
    2AU    AUSL  606  18.825  15.436   6.757
    2AU    AUSL  607  18.606  15.768   6.949
    2AU     AUL  608  18.702  15.814   6.610
    2AU       S  609  18.797  15.481   6.310
    2AU     LIG  610  19.156  15.302   6.120
    2AU     LIG  611  19.224  15.017   5.773
    2AU     LIG  612  19.373  14.975   5.335
    2AU     LIG  613  19.771  14.939   5.067
    2AU     LIG  614  20.162  14.940   4.783
    2AU       S  615  19.041  16.003   6.853
    2AU     LIG  616  19.156  16.191   6.459
    2AU     LIG  617  19.357  16.377   6.062
    2AU     LIG  618  19.590  16.521   5.669
    2AU     LIG  619  19.634  16.744   5.251
    2AU     LIG  620  19.746  17.085   4.945
    2AU    AUSL  621  18.599  15.102   6.600
    2AU    AUSL  622  18.950  15.062   6.924
    2AU     AUL  623  19.010  15.185   6.609
    2AU       S  624  19.127  14.739   6.706
    2AU     LIG  625  19.174  14.305   6.457
    2AU     LIG  626  19.314  13.878   6.319
    2AU     LIG  627  19.579  13.646   6.005
    2AU     LIG  628  19.846  13.603   5.604
    2AU     LIG  629  20.238  13.714   5.330
    2AU       S  630  18.681  15.346   6.305
    2AU     LIG  631  18.773  14.951   6.130
    2AU     LIG  632  18.791  14.744   5.707
    2AU     LIG  633  18.896  14.781   5.239
    2AU     LIG  634  18.931  14.750   4.751
    2AU     LIG  635  19.038  14.543   4.320
    2AU    AUSL  636  18.399  15.468   6.722
    2AU    AUSL  637  18.178  15.082   6.702
    2AU     AUL  638  18.338  15.078   6.436
    2AU       S  639  17.891  15.121   6.288
    2AU     LIG  640  18.009  14.954   5.922
    2AU     LIG  641  17.739  14.767   5.602
    2AU     LIG  642  17.502  14.798   5.207
    2AU     LIG  643  17.310  14.849   4.787
    2AU     LIG  644  17.177  14.723   4.358
    2AU       S  645  18.455  15.523   6.343
    2AU     LIG  646  18.457  15.295   5.882
    2AU     LIG  647  18.808  15.228   5.533
    2AU     LIG  648  18.997  15.266   5.078
    2AU     LIG  649  19.009  15.491   4.639
    2AU     LIG  650  19.080  15.809   4.274
    2AU    AUSL  651  17.736  15.424   8.245
    2AU    AUSL  652  18.025  15.780   8.131
    2AU     AUL  653  17.889  15.713   8.468
    2AU       S  654  17.734  15.305   8.661
    2AU     LIG  655  17.503  14.998   8.878
    2AU     LIG  656  17.254  14.933   9.271
    2AU     LIG  657  17.033  15.008   9.683
    2AU     LIG  658  16.856  15.123  10.108
    2AU     LIG  659  16.630  15.166  10.521
    2AU       S  660  17.636  16.022   8.204
    2AU     LIG  661  17.659  16.155   8.618
    2AU     LIG  662  17.489  16.359   8.996
    2AU     LIG  663  17.247  16.567   9.330
    2AU     LIG  664  17.233  16.866   9.694
    2AU     LIG  665  17.129  17.170  10.038
    2AU    AUSL  666  18.037  15.140   8.160
    2AU    AUSL  667  17.624  15.007   8.133
    2AU     AUL  668  17.516  15.240   8.262
    2AU       S  669  17.546  14.790   8.393
    2AU     LIG  670  17.106  14.731   8.241
    2AU     LIG  671  16.857  14.347   8.357
    2AU     LIG  672  16.709  13.975   8.610
    2AU     LIG  673  16.499  13.626   8.860
    2AU     LIG  674  16.253  13.567   9.259
    2AU       S  675  17.922  15.083   8.540
    2AU     LIG  676  17.968  14.776   8.881
    2AU     LIG  677  17.747  14.747   9.290
    2AU     LIG  678  17.493  14.749   9.697
    2AU     LIG  679  17.234  14.752  10.098
    2AU     LIG  680  17.050  14.483  10.448
    2AU    AUSL  681  17.768  15.189   6.762
    2AU    AUSL  682  17.950  14.819   6.940
    2AU     AUL  683  17.979  14.804   6.611
    2AU       S  684  17.670  15.100   6.426
    2AU     LIG  685  17.485  14.937   6.031
    2AU     LIG  686  17.237  14.955   5.631
    2AU     LIG  687  17.035  15.026   5.203
    2AU     LIG  688  16.794  14.928   4.795
    2AU     LIG  689  16.469  15.012   4.452
    2AU       S  690  17.553  14.692   6.747
    2AU     LIG  691  17.251  14.331   6.632
    2AU     LIG  692  16.965  14.048   6.450
    2AU     LIG  693  16.788  13.772   6.140
    2AU     LIG  694  16.646  13.521   5.776
    2AU     LIG  695  16.812  13.299   5.390
    2AU    AUSL  696  18.018  15.488   6.559
    2AU    AUSL  697  17.545  15.519   6.917
    2AU     AUL  698  17.661  15.531   6.586
    2AU       S  699  17.252  15.714   6.736
    2AU     LIG  700  17.167  15.987   6.302
    2AU     LIG  701  17.113  16.112   5.843
    2AU     LIG  702  16.861  16.265   5.471
    2AU     LIG  703  16.395  16.289   5.353
    2AU     LIG  704  15.949  16.381   5.197
    2AU       S  705  17.975  15.355   6.286
    2AU     LIG  706  17.711  15.385   5.897
    2AU     LIG  707  17.618  15.252   5.457
    2AU     LIG  708  17.442  15.298   5.020
    2AU     LIG  709  17.404  15.501   4.586
    2AU     LIG  710  17.536  15.833   4.257
    2AU    AUSL  711  19.058  15.766   7.528
    2AU    AUSL  712  18.968  15.591   7.122
    2AU     AUL  713  19.314  15.836   7.288
    2AU       S  714  19.094  15.787   6.897
    2AU     LIG  715  19.232  15.674   6.501
    2AU     LIG  716  19.548  15.919   6.248
    2AU     LIG  717  19.847  16.212   6.019
    2AU     LIG  718  20.075  16.337   5.626
    2AU     LIG  719  20.129  16.571   5.219
    2AU       S  720  19.470  15.687   7.724
    2AU     LIG  721  19.914  15.831   7.656
    2AU     LIG  722  20.389  15.880   7.526
    2AU     LIG  723  20.855  16.033   7.489
    2AU     LIG  724  21.100  16.421   7.637
    2AU     LIG  725  21.237  16.877   7.712
    2AU    AUSL  726  19.235  15.382   7.374
    2AU    AUSL  727  19.176  15.030   7.704
    2AU     AUL  728  19.476  15.092   7.474
    2AU       S  729  19.471  15.524   7.607
    2AU     LIG  730  19.922  15.371   7.442
    2AU     LIG  731  20.424  15.394   7.359
    2AU     LIG  732  20.886  15.548   7.267
    2AU     LIG  733  21.292  15.783   7.159
    2AU     LIG  734  21.685  16.024   7.035
    2AU       S  735  19.404  14.662   7.675
    2AU     LIG  736  19.787  14.525   7.848
    2AU     LIG  737  20.220  14.361   7.782
    2AU     LIG  738  20.690  14.306   7.728
    2AU     LIG  739  21.168  14.394   7.688
    2AU     LIG  740  21.580  14.504   7.926
    2AU    AUSL  741  18.970  15.398   7.727
    2AU    AUSL  742  18.716  15.803   7.776
    2AU     AUL  743  19.048  15.828   7.836
    2AU       S  744  19.033  16.015   8.253
    2AU     LIG  745  19.404  16.231   8.417
    2AU     LIG  746  19.715  16.469   8.680
    2AU     LIG  747  19.892  16.892   8.854
    2AU     LIG  748  20.145  17.326   8.815
    2AU     LIG  749  20.580  17.463   8.954
    2AU       S  750  19.317  15.442   7.871
    2AU     LIG  751  19.800  15.380   7.953
    2AU     LIG  752  20.262  15.483   7.844
    2AU     LIG  753  20.742  15.563   7.759
    2AU     LIG  754  21.202  15.687   7.659
    2AU     LIG  755  21.582  15.783   7.934
    2AU    AUSL  756  17.597  15.852   7.513
    2AU    AUSL  757  17.680  15.651   7.899
    2AU     AUL  758  17.364  15.950   7.752
    2AU       S  759  17.521  15.821   8.164
    2AU     LIG  760  17.394  15.692   8.570
    2AU     LIG  761  17.236  15.907   8.968
    2AU     LIG  762  16.956  16.120   9.306
    2AU     LIG  763  16.555  16.198   9.574
    2AU     LIG  764  16.101  16.254   9.731
    2AU       S  765  17.591  16.226   7.436
    2AU     LIG  766  17.123  16.188   7.361
    2AU     LIG  767  16.716  16.471   7.398
    2AU     LIG  768  16.383  16.847   7.458
    2AU     LIG  769  15.960  17.045   7.593
    2AU     LIG  770  15.540  17.163   7.785
    2AU    AUSL  771  17.552  15.460   7.327
    2AU    AUSL  772  17.662  15.894   7.100
    2AU     AUL  773  17.361  15.764   7.202
    2AU       S  774  17.163  15.277   6.991
    2AU     LIG  775  16.853  15.658   7.086
    2AU     LIG  776  16.399  15.895   7.002
    2AU     LIG  777  15.911  16.053   6.880
    2AU     LIG  778  15.423  16.210   6.750
    2AU     LIG  779  14.978  16.238   6.493
    2AU       S  780  17.494  16.151   6.945
    2AU     LIG  781  17.529  16.445   6.573
    2AU     LIG  782  17.400  16.811   6.291
    2AU     LIG  783  17.249  17.266   6.336
    2AU     LIG  784  17.016  17.654   6.155
    2AU     LIG  785  16.643  17.931   6.019
    2AU    AUSL  786  17.346  15.496   7.709
    2AU    AUSL  787  17.317  15.123   7.404
    2AU     AUL  788  17.151  15.433   7.440
    2AU       S  789  17.119  15.024   7.685
    2AU     LIG  790  16.803  15.055   7.327
    2AU     LIG  791  16.369  14.852   7.221
    2AU     LIG  792  15.881  14.806   7.244
    2AU     LIG  793  15.425  14.702   7.125
    2AU     LIG  794  14.964  14.703   7.132
    2AU       S  795  17.207  15.522   7.934
    2AU     LIG  796  16.878  15.762   7.718
    2AU     LIG  797  16.426  15.863   7.832
    2AU     LIG  798  16.009  16.054   8.000
    2AU     LIG  799  15.558  16.233   7.992
    2AU     LIG  800  15.110  16.209   8.131
    2AU    AUSL  801  18.939  14.707   7.533
    2AU    AUSL  802  18.790  14.957   7.871
    2AU     AUL  803  19.086  14.848   7.954
    2AU       S  804  19.127  14.546   7.519
    2AU     LIG  805  19.470  14.163   7.594
    2AU     LIG  806  19.937  14.021   7.519
    2AU     LIG  807  20.417  13.897   7.508
    2AU     LIG  808  20.821  13.661   7.333
    2AU     LIG  809  21.158  13.303   7.246
    2AU       S  810  19.012  14.399   7.963
    2AU     LIG  811  19.205  14.054   8.251
    2AU     LIG  812  19.381  13.817   8.616
    2AU     LIG  813  19.638  13.599   8.952
    2AU     LIG  814  19.859  13.597   9.389
    2AU     LIG  815  20.199  13.650   9.743
    2AU    AUSL  816  18.940  15.089   7.340
    2AU    AUSL  817  18.879  14.676   7.115
    2AU     AUL  818  19.164  14.903   7.172
    2AU       S  819  19.389  14.621   7.442
    2AU     LIG  820  19.838  14.499   7.343
    2AU     LIG  821  20.302  14.343   7.276
    2AU     LIG  822  20.769  14.186   7.242
    2AU     LIG  823  21.220  14.284   7.162
    2AU     LIG  824  21.641  14.156   6.968
    2AU       S  825  19.079  14.532   6.891
    2AU     LIG  826  18.907  14.090   6.860
    2AU     LIG  827  19.017  13.665   6.701
    2AU     LIG  828  19.233  13.358   6.401
    2AU     LIG  829  19.488  13.145   6.051
    2AU     LIG  830  19.649  12.720   5.930
    2AU    AUSL  831  17.524  14.764   7.550
    2AU    AUSL  832  17.610  15.022   7.120
    2AU     AUL  833  17.272  14.831   7.274
    2AU       S  834  17.446  14.863   6.848
    2AU     LIG  835  16.990  14.691   6.885
    2AU     LIG  836  16.660  14.419   6.654
    2AU     LIG  837  16.462  14.156   6.302
    2AU     LIG  838  16.313  13.879   5.965
    2AU     LIG  839  15.912  13.765   5.779
    2AU       S  840  17.083  14.797   7.707
    2AU     LIG  841  16.809  14.552   7.382
    2AU     LIG  842  16.370  14.343   7.301
    2AU     LIG  843  15.939  14.349   7.523
    2AU     LIG  844  15.537  14.075   7.696
    2AU     LIG  845  15.138  13.783   7.781
    2AU    AUSL  846  17.581  15.150   7.744
    2AU    AUSL  847  17.834  14.779   7.840
    2AU     AUL  848  17.502  14.741   7.901
    2AU       S  849  17.563  14.579   8.334
    2AU     LIG  850  17.316  14.254   8.123
    2AU     LIG  851  17.004  13.867   8.188
    2AU     LIG  852  16.846  13.489   8.480
    2AU     LIG  853  16.583  13.098   8.631
    2AU     LIG  854  16.235  12.773   8.743
    2AU       S  855  17.172  15.059   7.855
    2AU     LIG  856  16.712  15.265   7.790
    2AU     LIG  857  16.264  15.102   7.666
    2AU     LIG  858  15.874  14.824   7.751
    2AU     LIG  859  15.489  14.573   7.606
    2AU     LIG  860  15.039  14.480   7.598
    2AU    AUSL  861  18.304  15.999   7.895
    2AU    AUSL  862  17.872  16.018   7.797
    2AU     AUL  863  18.103  16.094   8.181
    2AU       S  864  17.741  16.199   7.906
    2AU     LIG  865  17.659  16.523   8.234
    2AU     LIG  866  17.420  16.713   8.610
    2AU     LIG  867  17.185  17.077   8.825
    2AU     LIG  868  17.024  17.538   8.808
    2AU     LIG  869  16.799  17.885   9.033
    2AU       S  870  18.310  16.426   7.941
    2AU     LIG  871  18.490  16.438   8.330
    2AU     LIG  872  18.526  16.874   8.539
    2AU     LIG  873  18.491  17.328   8.690
    2AU     LIG  874  18.502  17.594   9.108
    2AU     LIG  875  18.621  17.862   9.503
    2AU    AUSL  876  18.145  16.219   7.547
    2AU    AUSL  877  18.422  16.119   7.206
    2AU     AUL  878  18.390  16.474   7.313
    2AU       S  879  18.141  16.436   7.722
    2AU     LIG  880  18.142  16.897   7.859
    2AU     LIG  881  18.278  17.225   8.186
    2AU     LIG  882  18.159  17.666   8.342
    2AU     LIG  883  17.978  18.129   8.341
    2AU     LIG  884  17.898  18.570   8.518
    2AU       S  885  18.120  16.367   6.962
    2AU     LIG  886  18.444  16.744   6.892
    2AU     LIG  887  18.687  17.171   6.817
    2AU     LIG  888  19.017  17.555   6.884
    2AU     LIG  889  19.118  18.030   6.851
    2AU     LIG  890  19.060  18.408   6.583
    2AU    AUSL  891  18.582  16.161   7.606
    2AU    AUSL  892  18.576  15.864   8.183
    2AU     AUL  893  18.680  16.125   7.959
    2AU       S  894  18.813  15.948   8.398
    2AU     LIG  895  19.177  15.896   8.730
    2AU     LIG  896  19.447  16.149   9.008
    2AU     LIG  897  19.700  16.506   9.198
    2AU     LIG  898  19.753  16.879   9.475
    2AU     LIG  899  19.569  17.151   9.822
    2AU       S  900  18.490  16.505   7.768
    2AU     LIG  901  18.631  16.849   8.034
    2AU     LIG  902  18.815  17.224   8.255
    2AU     LIG  903  19.172  17.554   8.257
    2AU     LIG  904  19.223  18.003   8.366
    2AU     LIG  905  19.173  18.445   8.513
    2AU    AUSL  906  18.207  14.558   7.927
    2AU    AUSL  907  18.618  14.572   7.770
    2AU     AUL  908  18.432  14.445   8.155
    2AU       S  909  18.190  14.100   7.955
    2AU     LIG  910  18.165  13.981   8.333
    2AU     LIG  911  18.064  13.552   8.459
    2AU     LIG  912  18.161  13.111   8.454
    2AU     LIG  913  18.265  12.702   8.601
    2AU     LIG  914  18.147  12.495   9.010
    2AU       S  915  18.766  14.359   7.822
    2AU     LIG  916  18.687  13.951   8.066
    2AU     LIG  917  18.933  13.613   8.340
    2AU     LIG  918  19.210  13.322   8.620
    2AU     LIG  919  19.542  13.072   8.861
    2AU     LIG  920  19.813  12.667   8.885
    2AU    AUSL  921  17.891  14.420   7.637
    2AU    AUSL  922  18.006  14.737   8.246
    2AU     AUL  923  17.869  14.446   8.007
    2AU       S  924  17.998  14.043   7.799
    2AU     LIG  925  17.823  13.703   8.034
    2AU     LIG  926  17.741  13.236   8.142
    2AU     LIG  927  17.442  12.831   8.177
    2AU     LIG  928  17.266  12.363   8.123
    2AU     LIG  929  17.423  11.889   8.052
    2AU       S  930  17.821  14.621   8.441
    2AU     LIG  931  17.681  14.131   8.474
    2AU     LIG  932  17.251  13.952   8.621
    2AU     LIG  933  17.003  13.709   8.957
    2AU     LIG  934  16.960  13.639   9.435
    2AU     LIG  935  16.925  13.409   9.865
    2AU    AUSL  936  18.322  14.341   7.579
    2AU    AUSL  937  18.095  14.587   7.300
    2AU     AUL  938  17.980  14.237   7.375
    2AU       S  939  18.371  14.146   7.153
    2AU     LIG  940  18.066  13.775   7.146
    2AU     LIG  941  17.881  13.329   6.992
    2AU     LIG  942  17.783  12.868   6.840
    2AU     LIG  943  17.588  12.401   6.838
    2AU     LIG  944  17.532  11.918   6.747
    2AU       S  945  18.331  14.132   7.703
    2AU     LIG  946  18.363  13.677   7.729
    2AU     LIG  947  18.282  13.309   7.993
    2AU     LIG  948  18.291  12.842   8.041
    2AU     LIG  949  18.547  12.481   8.196
    2AU     LIG  950  18.667  12.017   8.105
    2AU    AUSL  951  18.237  15.934   6.842
    2AU    AUSL  952  18.810  15.978   7.262
    2AU     AUL  953  18.578  16.142   6.927
    2AU       S  954  18.160  16.288   6.757
    2AU     LIG  955  18.345  16.546   6.442
    2AU     LIG  956  18.426  17.006   6.356
    2AU     LIG  957  18.484  17.292   5.959
    2AU     LIG  958  18.551  17.610   5.588
    2AU     LIG  959  18.489  18.026   5.359
    2AU       S  960  19.009  16.128   7.100
    2AU     LIG  961  19.456  16.251   6.890
    2AU     LIG  962  19.663  16.403   6.478
    2AU     LIG  963  19.842  16.765   6.190
    2AU     LIG  964  20.035  17.246   6.181
    2AU     LIG  965  20.241  17.697   6.073
    2AU    AUSL  966  18.040  15.950   7.246
    2AU    AUSL  967  17.969  15.622   6.950
    2AU     AUL  968  17.891  15.918   6.815
    2AU       S  969  17.964  16.289   7.109
    2AU     LIG  970  17.964  16.808   7.077
    2AU     LIG  971  18.147  17.179   6.812
    2AU     LIG  972  18.122  17.635   6.674
    2AU     LIG  973  17.842  18.002   6.514
    2AU     LIG  974  17.625  18.397   6.320
    2AU       S  975  17.446  15.937   6.698
    2AU     LIG  976  17.690  16.013   6.342
    2AU     LIG  977  17.551  16.341   6.019
    2AU     LIG  978  17.387  16.465   5.572
    2AU     LIG  979  17.346  16.692   5.155
    2AU     LIG  980  17.152  16.909   4.784
    2AU    AUSL  981  18.284  14.556   6.911
    2AU    AUSL  982  17.689  14.592   7.200
    2AU     AUL  983  17.953  14.439   6.951
    2AU       S  984  17.508  14.569   6.972
    2AU     LIG  985  17.225  14.324   7.172
    2AU     LIG  986  16.821  14.136   7.041
    2AU     LIG  987  16.572  13.884   6.724
    2AU     LIG  988  16.385  13.600   6.397
    2AU     LIG  989  16.192  13.386   6.024
    2AU       S  990  18.349  14.164   6.987
    2AU     LIG  991  18.475  13.774   6.772
    2AU     LIG  992  18.219  13.412   6.611
    2AU     LIG  993  18.105  13.003   6.412
    2AU     LIG  994  18.038  12.770   5.990
    2AU     LIG  995  18.027  12.387   5.703
    2AU    AUSL  996  18.522  14.571   7.294
    2AU    AUSL  997  18.540  14.886   6.949
    2AU     AUL  998  18.614  14.527   6.904
    2AU       S  999  18.639  14.225   7.260
    2AU     LIG 1000  18.617  13.738   7.273
    2AU     LIG 1001  18.372  13.379   7.126
    2AU     LIG 1002  18.307  12.974   6.910
    2AU     LIG 1003  18.513  12.550   6.863
    2AU     LIG 1004  18.528  12.054   6.814
    2AU       S 1005  18.880  14.713   6.592
    2AU     LIG 1006  18.662  14.292   6.463
    2AU     LIG 1007  18.792  13.850   6.285
    2AU     LIG 1008  19.061  13.574   5.971
    2AU     LIG 1009  19.321  13.389   5.617
    2AU     LIG 1010  19.570  13.355   5.212
    3AU     AUC 1011  43.039   8.354   7.499
    3AU     AUC 1012  43.313   8.373   7.320
    3AU     AUC 1013  43.305   8.343   7.671
    3AU     AUC 1014  42.754   8.345   7.332
    3AU     AUC 1015  42.775   8.379   7.684
    3AU     AUC 1016  42.869   8.631   7.499
    3AU     AUC 1017  43.221   8.639   7.488
    3AU     AUC 1018  42.857   8.081   7.506
    3AU     AUC 1019  43.207   8.065   7.496
    3AU     AUC 1020  43.044   8.174   7.775
    3AU     AUC 1021  43.037   8.540   7.765
    3AU     AUC 1022  43.035   8.191   7.222
    3AU     AUC 1023  43.048   8.513   7.219
    3AU     AUC 1024  43.624   8.385   7.152
    3AU     AUC 1025  43.641   8.333   7.511
    3AU     AUC 1026  43.596   8.316   7.862
    3AU     AUC 1027  42.456   8.327   7.163
    3AU     AUC 1028  42.435   8.369   7.527
    3AU     AUC 1029  42.492   8.403   7.871
    3AU     AUC 1030  42.704   8.932   7.483
    3AU     AUC 1031  43.068   8.975   7.462
    3AU     AUC 1032  43.400   8.925   7.483
    3AU     AUC 1033  42.667   7.801   7.511
    3AU     AUC 1034  43.017   7.751   7.488
    3AU     AUC 1035  43.377   7.765   7.476
    3AU     AUC 1036  43.029   7.992   8.066
    3AU     AUC 1037  43.044   8.359   8.097
    3AU     AUC 1038  43.065   8.716   8.060
    3AU     AUC 1039  43.065   8.019   6.942
    3AU     AUC 1040  43.044   8.354   6.884
    3AU     AUC 1041  43.025   8.681   6.918
    3AU     AUC 1042  43.312   8.130   7.990
    3AU     AUC 1043  43.353   8.510   7.986
    3AU     AUC 1044  43.371   8.228   6.990
    3AU     AUC 1045  43.351   8.548   7.024
    3AU     AUC 1046  42.743   8.217   8.017
    3AU     AUC 1047  42.763   8.593   7.995
    3AU     AUC 1048  42.738   8.159   7.040
    3AU     AUC 1049  42.715   8.484   6.992
    3AU     AUC 1050  43.563   8.652   7.340
    3AU     AUC 1051  43.515   8.618   7.689
    3AU     AUC 1052  42.556   8.640   7.311
    3AU     AUC 1053  42.568   8.687   7.677
    3AU     AUC 1054  43.518   8.060   7.324
    3AU     AUC 1055  43.486   8.003   7.681
    3AU     AUC 1056  42.525   8.039   7.363
    3AU     AUC 1057  42.579   8.090   7.718
    3AU     AUC 1058  42.886   8.873   7.770
    3AU     AUC 1059  43.236   8.837   7.776
    3AU     AUC 1060  42.854   7.871   7.803
    3AU     AUC 1061  43.173   7.823   7.771
    3AU     AUC 1062  42.858   8.794   7.184
    3AU     AUC 1063  43.229   8.844   7.198
    3AU     AUC 1064  42.852   7.879   7.206
    3AU     AUC 1065  43.246   7.907   7.198
    3AU    AUSL 1066  43.576   8.246   8.228
    3AU    AUSL 1067  43.305   7.840   8.147
    3AU     AUL 1068  43.598   7.843   8.360
    3AU       S 1069  43.698   7.485   8.098
    3AU     LIG 1070  43.598   7.313   8.470
    3AU     LIG 1071  43.685   6.906   8.650
    3AU     LIG 1072  43.895   6.551   8.875
    3AU     LIG 1073  44.140   6.335   9.213
    3AU     LIG 1074  44.322   6.356   9.648
    3AU       S 1075  43.804   8.245   8.354
    3AU     LIG 1076  43.669   8.250   8.794
    3AU     LIG 1077  43.809   8.194   9.242
    3AU     LIG 1078  44.112   8.150   9.607
    3AU     LIG 1079  44.411   8.210   9.970
    3AU     LIG 1080  44.754   8.113  10.278
    3AU    AUSL 1081  43.177   8.165   8.398
    3AU    AUSL 1082  42.920   8.541   8.423
    3AU     AUL 1083  43.122   8.475   8.736
    3AU       S 1084  43.261   8.087   8.547
    3AU     LIG 1085  43.224   8.036   8.973
    3AU     LIG 1086  43.412   7.883   9.361
    3AU     LIG 1087  43.691   7.866   9.742
    3AU     LIG 1088  43.780   7.737  10.198
    3AU     LIG 1089  43.757   7.504  10.628
    3AU       S 1090  42.727   8.268   8.641
    3AU     LIG 1091  42.754   8.257   9.105
    3AU     LIG 1092  42.493   8.201   9.489
    3AU     LIG 1093  42.252   8.277   9.885
    3AU     LIG 1094  42.147   8.629  10.204
    3AU     LIG 1095  42.099   8.930  10.573
    3AU    AUSL 1096  43.243   8.538   8.161
    3AU    AUSL 1097  43.685   8.639   8.095
    3AU     AUL 1098  43.474   8.550   8.442
    3AU       S 1099  43.130   8.926   8.573
    3AU     LIG 1100  43.483   8.820   8.873
    3AU     LIG 1101  43.759   8.957   9.245
    3AU     LIG 1102  43.764   9.038   9.732
    3AU     LIG 1103  43.705   9.024  10.224
    3AU     LIG 1104  43.712   9.011  10.710
    3AU       S 1105  43.846   8.777   8.275
    3AU     LIG 1106  44.259   8.773   8.343
    3AU     LIG 1107  44.506   8.974   8.684
    3AU     LIG 1108  44.739   9.210   9.011
    3AU     LIG 1109  44.904   9.382   9.415
    3AU     LIG 1110   0.210   9.397   9.774
    3AU    AUSL 1111  43.569   8.507   6.758
    3AU    AUSL 1112  43.338   8.821   6.958
    3AU     AUL 1113  43.481   8.877   6.614
    3AU       S 1114  43.532   8.552   6.296
    3AU     LIG 1115  43.899   8.362   6.095
    3AU     LIG 1116  44.009   8.104   5.714
    3AU     LIG 1117  44.179   8.016   5.280
    3AU     LIG 1118  44.531   7.896   4.987
    3AU     LIG 1119  44.838   7.777   4.643
    3AU       S 1120  43.810   9.082   6.880
    3AU     LIG 1121  43.869   9.290   6.487
    3AU     LIG 1122  44.089   9.473   6.094
    3AU     LIG 1123  44.356   9.592   5.718
    3AU     LIG 1124  44.577   9.730   5.319
    3AU     LIG 1125  44.539  10.029   4.965
    3AU    AUSL 1126  43.351   8.173   6.599
    3AU    AUSL 1127  43.725   8.145   6.923
    3AU     AUL 1128  43.760   8.274   6.604
    3AU       S 1129  43.903   7.838   6.703
    3AU     LIG 1130  44.006   7.470   6.395
    3AU     LIG 1131  44.229   7.066   6.271
    3AU     LIG 1132  44.489   6.789   5.982
    3AU     LIG 1133  44.794   6.686   5.617
    3AU     LIG 1134   0.178   6.743   5.317
    3AU       S 1135  43.433   8.417   6.296
    3AU     LIG 1136  43.515   8.017   6.135
    3AU     LIG 1137  43.600   7.789   5.744
    3AU     LIG 1138  43.707   7.813   5.286
    3AU     LIG 1139  43.838   7.853   4.818
    3AU     LIG 1140  43.847   7.700   4.351
    3AU    AUSL 1141  43.145   8.549   6.685
    3AU    AUSL 1142  42.938   8.148   6.727
    3AU     AUL 1143  43.087   8.158   6.438
    3AU       S 1144  42.659   8.188   6.282
    3AU     LIG 1145  42.745   8.077   5.871
    3AU     LIG 1146  42.490   7.830   5.569
    3AU     LIG 1147  42.213   7.705   5.214
    3AU     LIG 1148  42.046   7.807   4.789
    3AU     LIG 1149  41.990   7.895   4.332
    3AU       S 1150  43.188   8.611   6.354
    3AU     LIG 1151  43.190   8.374   5.887
    3AU     LIG 1152  43.541   8.266   5.546
    3AU     LIG 1153  43.751   8.292   5.096
    3AU     LIG 1154  43.751   8.392   4.614
    3AU     LIG 1155  43.933   8.631   4.233
    3AU    AUSL 1156  42.518   8.477   8.261
    3AU    AUSL 1157  42.786   8.845   8.158
    3AU     AUL 1158  42.661   8.758   8.498
    3AU       S 1159  42.522   8.331   8.662
    3AU     LIG 1160  42.311   8.027   8.899
    3AU     LIG 1161  42.074   7.960   9.303
    3AU     LIG 1162  41.870   7.947   9.730
    3AU     LIG 1163  41.503   7.919  10.025
    3AU     LIG 1164  41.185   8.151  10.283
    3AU       S 1165  42.417   9.059   8.227
    3AU     LIG 1166  42.525   9.274   8.579
    3AU     LIG 1167  42.399   9.451   8.995
    3AU     LIG 1168  42.079   9.581   9.310
    3AU     LIG 1169  41.837   9.710   9.700
    3AU     LIG 1170  41.706   9.957  10.090
    3AU    AUSL 1171  42.823   8.198   8.168
    3AU    AUSL 1172  42.410   8.064   8.139
    3AU     AUL 1173  42.296   8.300   8.265
    3AU       S 1174  42.323   7.851   8.399
    3AU     LIG 1175  41.885   7.753   8.236
    3AU     LIG 1176  41.698   7.328   8.334
    3AU     LIG 1177  41.485   7.014   8.618
    3AU     LIG 1178  41.238   6.721   8.903
    3AU     LIG 1179  41.028   6.725   9.330
    3AU       S 1180  42.712   8.135   8.546
    3AU     LIG 1181  42.778   7.812   8.870
    3AU     LIG 1182  42.555   7.738   9.269
    3AU     LIG 1183  42.343   7.743   9.697
    3AU     LIG 1184  42.110   7.568  10.073
    3AU     LIG 1185  42.075   7.262  10.445
    3AU    AUSL 1186  42.512   8.206   6.774
    3AU    AUSL 1187  42.721   7.860   6.949
    3AU     AUL 1188  42.747   7.864   6.618
    3AU       S 1189  42.488   8.126   6.335
    3AU     LIG 1190  42.232   8.088   5.962
    3AU     LIG 1191  42.006   8.041   5.560
    3AU     LIG 1192  41.761   7.989   5.172
    3AU     LIG 1193  41.483   7.978   4.791
    3AU     LIG 1194  41.273   8.207   4.430
    3AU       S 1195  42.340   7.710   6.774
    3AU     LIG 1196  42.192   7.255   6.694
    3AU     LIG 1197  41.890   6.943   6.529
    3AU     LIG 1198  41.704   6.685   6.182
    3AU     LIG 1199  41.428   6.545   5.816
    3AU     LIG 1200  41.307   6.358   5.388
    3AU    AUSL 1201  42.735   8.525   6.598
    3AU    AUSL 1202  42.381   8.600   6.904
    3AU     AUL 1203  42.299   8.422   6.622
    3AU       S 1204  42.391   8.865   6.648
    3AU     LIG 1205  42.078   8.843   6.343
    3AU     LIG 1206  41.868   9.133   6.025
    3AU     LIG 1207  41.651   9.302   5.626
    3AU     LIG 1208  41.299   9.467   5.334
    3AU     LIG 1209  40.946   9.780   5.207
    3AU       S 1210  42.704   8.465   6.368
    3AU     LIG 1211  42.490   8.538   5.964
    3AU     LIG 1212  42.424   8.344   5.536
    3AU     LIG 1213  42.244   8.210   5.108
    3AU     LIG 1214  42.237   8.267   4.628
    3AU     LIG 1215  42.399   8.458   4.215
    3AU    AUSL 1216  43.831   8.847   7.514
    3AU    AUSL 1217  43.730   8.675   7.111
    3AU     AUL 1218  44.096   8.952   7.284
    3AU       S 1219  43.831   8.849   6.935
    3AU     LIG 1220  43.975   8.760   6.515
    3AU     LIG 1221  44.294   9.036   6.289
    3AU     LIG 1222  44.607   9.347   6.095
    3AU     LIG 1223  44.866   9.539   5.731
    3AU     LIG 1224   0.115   9.740   5.380
    3AU       S 1225  44.232   8.699   7.667
    3AU     LIG 1226  44.705   8.691   7.587
    3AU     LIG 1227   0.133   8.919   7.545
    3AU     LIG 1228   0.594   9.105   7.502
    3AU     LIG 1229   0.848   9.540   7.541
    3AU     LIG 1230   1.031   9.970   7.709
    3AU    AUSL 1231  43.996   8.447   7.349
    3AU    AUSL 1232  43.954   8.108   7.692
    3AU     AUL 1233  44.305   8.171   7.576
    3AU       S 1234  44.112   8.509   7.373
    3AU     LIG 1235  44.486   8.522   7.157
    3AU     LIG 1236  44.952   8.630   7.140
    3AU     LIG 1237   0.427   8.703   7.167
    3AU     LIG 1238   0.883   8.830   7.139
    3AU     LIG 1239   1.362   8.918   7.006
    3AU       S 1240  44.182   7.724   7.670
    3AU     LIG 1241  44.587   7.761   7.831
    3AU     LIG 1242  44.999   7.534   7.822
    3AU     LIG 1243   0.472   7.540   7.763
    3AU     LIG 1244   0.927   7.676   7.840
    3AU     LIG 1245   1.327   7.444   7.960
    3AU    AUSL 1246  43.749   8.477   7.717
    3AU    AUSL 1247  43.499   8.872   7.779
    3AU     AUL 1248  43.836   8.907   7.824
    3AU       S 1249  43.827   9.087   8.246
    3AU     LIG 1250  44.198   9.299   8.426
    3AU     LIG 1251  44.502   9.556   8.686
    3AU     LIG 1252  44.677   9.991   8.841
    3AU     LIG 1253   0.019  10.331   8.847
    3AU     LIG 1254   0.261  10.750   8.883
    3AU       S 1255  44.094   8.526   7.826
    3AU     LIG 1256  44.540   8.427   7.987
    3AU     LIG 1257   0.021   8.566   7.979
    3AU     LIG 1258   0.486   8.726   7.865
    3AU     LIG 1259   0.961   8.828   7.762
    3AU     LIG 1260   1.355   9.080   7.888
    3AU    AUSL 1261  42.379   8.900   7.516
    3AU    AUSL 1262  42.457   8.693   7.909
    3AU     AUL 1263  42.151   9.010   7.765
    3AU       S 1264  42.284   8.867   8.185
    3AU     LIG 1265  42.177   8.886   8.641
    3AU     LIG 1266  41.970   9.158   8.980
    3AU     LIG 1267  41.654   9.294   9.319
    3AU     LIG 1268  41.343   9.390   9.666
    3AU     LIG 1269  40.900   9.346   9.843
    3AU       S 1270  42.369   9.293   7.447
    3AU     LIG 1271  41.885   9.337   7.435
    3AU     LIG 1272  41.483   9.676   7.413
    3AU     LIG 1273  41.106  10.050   7.377
    3AU     LIG 1274  40.656  10.273   7.451
    3AU     LIG 1275  40.360  10.357   7.812
    3AU    AUSL 1276  42.321   8.522   7.308
    3AU    AUSL 1277  42.457   8.977   7.111
    3AU     AUL 1278  42.158   8.828   7.167
    3AU       S 1279  41.989   8.349   6.986
    3AU     LIG 1280  41.697   8.725   6.983
    3AU     LIG 1281  41.264   8.961   6.941
    3AU     LIG 1282  40.778   9.073   6.897
    3AU     LIG 1283  40.276   9.097   6.921
    3AU     LIG 1284  39.778   9.087   6.954
    3AU       S 1285  42.259   9.231   6.904
    3AU     LIG 1286  42.215   9.337   6.428
    3AU     LIG 1287  41.995   9.639   6.104
    3AU     LIG 1288  41.731  10.050   6.010
    3AU     LIG 1289  41.438  10.460   5.997
    3AU     LIG 1290  41.214  10.865   6.125
    3AU    AUSL 1291  42.125   8.559   7.699
    3AU    AUSL 1292  42.091   8.189   7.414
    3AU     AUL 1293  41.924   8.515   7.426
    3AU       S 1294  41.896   8.104   7.689
    3AU     LIG 1295  41.511   8.038   7.400
    3AU     LIG 1296  41.039   7.837   7.311
    3AU     LIG 1297  40.561   7.726   7.189
    3AU     LIG 1298  40.079   7.698   7.148
    3AU     LIG 1299  39.678   7.664   6.971
    3AU       S 1300  41.979   8.587   7.923
    3AU     LIG 1301  41.657   8.853   7.739
    3AU     LIG 1302  41.184   8.856   7.843
    3AU     LIG 1303  40.717   8.914   7.995
    3AU     LIG 1304  40.228   8.878   8.056
    3AU     LIG 1305  39.784   8.988   8.209
    3AU    AUSL 1306  43.722   7.779   7.531
    3AU    AUSL 1307  43.576   8.030   7.870
    3AU     AUL 1308  43.880   7.933   7.948
    3AU       S 1309  43.913   7.624   7.511
    3AU     LIG 1310  44.256   7.251   7.574
    3AU     LIG 1311  44.728   7.180   7.529
    3AU     LIG 1312   0.052   6.813   7.518
    3AU     LIG 1313   0.451   6.595   7.660
    3AU     LIG 1314   0.901   6.675   7.774
    3AU       S 1315  43.810   7.483   7.959
    3AU     LIG 1316  44.034   7.141   8.222
    3AU     LIG 1317  44.200   6.872   8.569
    3AU     LIG 1318  44.424   6.658   8.917
    3AU     LIG 1319  44.730   6.690   9.286
    3AU     LIG 1320   0.122   6.815   9.538
    3AU    AUSL 1321  43.697   8.160   7.339
    3AU    AUSL 1322  43.662   7.756   7.113
    3AU     AUL 1323  43.945   7.992   7.178
    3AU       S 1324  44.178   7.723   7.447
    3AU     LIG 1325  44.612   7.677   7.336
    3AU     LIG 1326   0.066   7.753   7.367
    3AU     LIG 1327   0.465   7.600   7.238
    3AU     LIG 1328   0.908   7.593   7.319
    3AU     LIG 1329   1.270   7.355   7.134
    3AU       S 1330  43.868   7.629   6.870
    3AU     LIG 1331  43.888   7.153   6.791
    3AU     LIG 1332  44.071   6.722   6.624
    3AU     LIG 1333  44.401   6.458   6.394
    3AU     LIG 1334  44.601   6.010   6.347
    3AU     LIG 1335   0.010   5.745   6.337
    3AU    AUSL 1336  42.297   7.829   7.564
    3AU    AUSL 1337  42.394   8.065   7.152
    3AU     AUL 1338  42.040   7.891   7.288
    3AU       S 1339  42.215   7.863   6.865
    3AU     LIG 1340  41.822   7.612   6.766
    3AU     LIG 1341  41.545   7.334   6.489
    3AU     LIG 1342  41.343   7.050   6.178
    3AU     LIG 1343  41.003   6.864   5.928
    3AU     LIG 1344  40.626   6.798   5.646
    3AU       S 1345  41.870   7.881   7.734
    3AU     LIG 1346  41.622   7.552   7.531
    3AU     LIG 1347  41.166   7.389   7.522
    3AU     LIG 1348  40.710   7.496   7.639
    3AU     LIG 1349  40.330   7.310   7.889
    3AU     LIG 1350  40.016   6.981   7.717
    3AU    AUSL 1351  42.360   8.214   7.753
    3AU    AUSL 1352  42.621   7.841   7.840
    3AU     AUL 1353  42.290   7.801   7.908
    3AU       S 1354  42.345   7.635   8.338
    3AU     LIG 1355  42.152   7.332   8.053
    3AU     LIG 1356  41.899   6.925   8.077
    3AU     LIG 1357  41.661   6.612   8.359
    3AU     LIG 1358  41.372   6.297   8.596
    3AU     LIG 1359  41.063   5.946   8.685
    3AU       S 1360  41.962   8.123   7.873
    3AU     LIG 1361  41.513   8.366   7.810
    3AU     LIG 1362  41.084   8.267   7.633
    3AU     LIG 1363  40.655   8.052   7.592
    3AU     LIG 1364  40.273   7.802   7.621
    3AU     LIG 1365  39.890   7.639   7.771
    3AU    AUSL 1366  43.078   9.035   7.912
    3AU    AUSL 1367  42.634   9.067   7.818
    3AU     AUL 1368  42.880   9.157   8.187
    3AU       S 1369  42.511   9.270   7.927
    3AU     LIG 1370  42.185   9.484   8.186
    3AU     LIG 1371  42.049   9.540   8.627
    3AU     LIG 1372  41.891   9.874   8.921
    3AU     LIG 1373  41.653  10.295   8.941
    3AU     LIG 1374  41.312  10.607   8.808
    3AU       S 1375  43.114   9.494   7.974
    3AU     LIG 1376  43.279   9.473   8.358
    3AU     LIG 1377  43.357   9.904   8.529
    3AU     LIG 1378  43.315  10.306   8.788
    3AU     LIG 1379  43.260  10.586   9.175
    3AU     LIG 1380  43.200  10.993   9.414
    3AU    AUSL 1381  42.909   9.288   7.601
    3AU    AUSL 1382  43.183   9.256   7.237
    3AU     AUL 1383  42.842   9.504   7.366
    3AU       S 1384  42.975   9.518   7.819
    3AU     LIG 1385  43.136   9.972   8.031
    3AU     LIG 1386  43.169  10.362   8.289
    3AU     LIG 1387  42.942  10.775   8.410
    3AU     LIG 1388  42.758  11.224   8.391
    3AU     LIG 1389  42.491  11.582   8.545
    3AU       S 1390  43.160   9.579   7.038
    3AU     LIG 1391  43.578   9.672   6.993
    3AU     LIG 1392  43.739  10.077   6.829
    3AU     LIG 1393  44.034  10.453   6.842
    3AU     LIG 1394  44.314  10.829   6.760
    3AU     LIG 1395  44.257  11.248   6.568
    3AU    AUSL 1396  43.348   9.232   7.630
    3AU    AUSL 1397  43.372   8.935   8.191
    3AU     AUL 1398  43.461   9.192   7.965
    3AU       S 1399  43.600   9.018   8.399
    3AU     LIG 1400  43.948   8.981   8.737
    3AU     LIG 1401  44.211   9.254   9.012
    3AU     LIG 1402  44.473   9.611   9.200
    3AU     LIG 1403  44.684   9.846   9.543
    3AU     LIG 1404  44.643  10.080   9.951
    3AU       S 1405  43.305   9.536   7.666
    3AU     LIG 1406  43.577   9.714   8.006
    3AU     LIG 1407  43.664  10.155   8.190
    3AU     LIG 1408  43.964  10.535   8.284
    3AU     LIG 1409  44.099  10.958   8.485
    3AU     LIG 1410  44.178  11.420   8.480
    3AU    AUSL 1411  42.998   7.623   7.934
    3AU    AUSL 1412  43.407   7.643   7.775
    3AU     AUL 1413  43.236   7.523   8.165
    3AU       S 1414  42.992   7.176   7.979
    3AU     LIG 1415  42.869   6.963   8.313
    3AU     LIG 1416  42.750   6.533   8.306
    3AU     LIG 1417  42.962   6.146   8.446
    3AU     LIG 1418  43.058   5.805   8.740
    3AU     LIG 1419  43.026   5.713   9.203
    3AU       S 1420  43.561   7.428   7.824
    3AU     LIG 1421  43.549   7.001   8.053
    3AU     LIG 1422  43.857   6.653   8.240
    3AU     LIG 1423  44.155   6.361   8.484
    3AU     LIG 1424  44.460   6.026   8.649
    3AU     LIG 1425  44.844   5.712   8.711
    3AU    AUSL 1426  42.685   7.478   7.648
    3AU    AUSL 1427  42.786   7.795   8.248
    3AU     AUL 1428  42.656   7.507   8.012
    3AU       S 1429  42.797   7.098   7.821
    3AU     LIG 1430  42.433   6.892   8.041
    3AU     LIG 1431  42.188   6.513   8.220
    3AU     LIG 1432  42.194   6.039   8.233
    3AU     LIG 1433  41.895   5.660   8.174
    3AU     LIG 1434  41.949   5.195   8.218
    3AU       S 1435  42.584   7.674   8.446
    3AU     LIG 1436  42.417   7.179   8.478
    3AU     LIG 1437  42.023   6.913   8.573
    3AU     LIG 1438  41.750   6.643   8.872
    3AU     LIG 1439  41.567   6.688   9.311
    3AU     LIG 1440  41.543   6.567   9.776
    3AU    AUSL 1441  43.117   7.403   7.587
    3AU    AUSL 1442  42.884   7.645   7.308
    3AU     AUL 1443  42.771   7.293   7.398
    3AU       S 1444  43.140   7.215   7.145
    3AU     LIG 1445  42.779   6.874   7.115
    3AU     LIG 1446  42.536   6.452   7.057
    3AU     LIG 1447  42.303   6.021   7.014
    3AU     LIG 1448  42.225   5.527   7.007
    3AU     LIG 1449  42.350   5.035   7.001
    3AU       S 1450  43.128   7.185   7.724
    3AU     LIG 1451  43.158   6.720   7.859
    3AU     LIG 1452  43.070   6.288   7.959
    3AU     LIG 1453  43.325   5.942   8.142
    3AU     LIG 1454  43.532   5.641   8.444
    3AU     LIG 1455  43.670   5.167   8.472
    3AU    AUSL 1456  43.019   9.080   6.871
    3AU    AUSL 1457  43.537   9.031   7.274
    3AU     AUL 1458  43.360   9.187   6.930
    3AU       S 1459  42.994   9.364   6.695
    3AU     LIG 1460  43.391   9.535   6.544
    3AU     LIG 1461  43.526   9.959   6.363
    3AU     LIG 1462  43.403  10.361   6.123
    3AU     LIG 1463  43.361  10.661   5.739
    3AU     LIG 1464  43.391  11.019   5.419
    3AU       S 1465  43.736   9.215   7.183
    3AU     LIG 1466  44.092   9.472   6.937
    3AU     LIG 1467  44.355   9.537   6.532
    3AU     LIG 1468  44.601   9.871   6.268
    3AU     LIG 1469  44.884  10.283   6.253
    3AU     LIG 1470   0.262  10.505   6.034
    3AU    AUSL 1471  42.832   9.025   7.289
    3AU    AUSL 1472  42.785   8.748   6.947
    3AU     AUL 1473  42.705   9.185   7.029
    3AU       S 1474  42.959   9.552   6.912
    3AU     LIG 1475  43.177   9.972   6.741
    3AU     LIG 1476  43.200  10.434   6.620
    3AU     LIG 1477  42.938  10.861   6.635
    3AU     LIG 1478  42.653  11.268   6.644
    3AU     LIG 1479  42.269  11.526   6.483
    3AU       S 1480  42.584   8.976   6.639
    3AU     LIG 1481  42.545   9.006   6.185
    3AU     LIG 1482  42.331   9.297   5.881
    3AU     LIG 1483  42.093   9.577   5.571
    3AU     LIG 1484  42.047   9.915   5.229
    3AU     LIG 1485  41.941  10.295   4.967
    3AU    AUSL 1486  43.071   7.623   6.914
    3AU    AUSL 1487  42.474   7.638   7.230
    3AU     AUL 1488  42.740   7.488   6.969
    3AU       S 1489  42.292   7.599   7.031
    3AU     LIG 1490  41.973   7.361   7.183
    3AU     LIG 1491  41.620   7.133   6.956
    3AU     LIG 1492  41.404   6.830   6.642
    3AU     LIG 1493  41.223   6.549   6.303
    3AU     LIG 1494  41.125   6.121   6.151
    3AU       S 1495  43.138   7.220   6.962
    3AU     LIG 1496  43.168   6.800   6.793
    3AU     LIG 1497  42.893   6.438   6.646
    3AU     LIG 1498  42.883   6.044   6.384
    3AU     LIG 1499  42.881   5.857   5.934
    3AU     LIG 1500  42.961   5.587   5.544
    3AU    AUSL 1501  43.311   7.632   7.296
    3AU    AUSL 1502  43.317   7.959   6.952
    3AU     AUL 1503  43.405   7.592   6.916
    3AU       S 1504  43.402   7.261   7.246
    3AU     LIG 1505  43.241   6.793   7.350
    3AU     LIG 1506  43.065   6.410   7.125
    3AU     LIG 1507  43.207   6.046   6.837
    3AU     LIG 1508  43.337   5.592   6.740
    3AU     LIG 1509  43.259   5.109   6.754
    3AU       S 1510  43.646   7.798   6.593
    3AU     LIG 1511  43.515   7.356   6.494
    3AU     LIG 1512  43.720   6.965   6.325
    3AU     LIG 1513  43.990   6.624   6.113
    3AU     LIG 1514  44.231   6.393   5.777
    3AU     LIG 1515  44.343   6.387   5.314
    4AU     AUC 1516  10.922   8.152   7.497
    4AU     AUC 1517  11.195   8.173   7.316
    4AU     AUC 1518  11.187   8.145   7.668
    4AU     AUC 1519  10.642   8.143   7.328
    4AU     AUC 1520  10.656   8.176   7.684
    4AU     AUC 1521  10.752   8.429   7.499
    4AU     AUC 1522  11.102   8.440   7.484
    4AU     AUC 1523  10.739   7.878   7.502
    4AU     AUC 1524  11.089   7.864   7.494
    4AU     AUC 1525  10.924   7.973   7.776
    4AU     AUC 1526  10.920   8.339   7.764
    4AU     AUC 1527  10.921   7.987   7.218
    4AU     AUC 1528  10.932   8.311   7.216
    4AU     AUC 1529  11.505   8.187   7.149
    4AU     AUC 1530  11.523   8.136   7.507
    4AU     AUC 1531  11.480   8.120   7.858
    4AU     AUC 1532  10.341   8.126   7.155
    4AU     AUC 1533  10.319   8.169   7.522
    4AU     AUC 1534  10.370   8.198   7.876
    4AU     AUC 1535  10.583   8.728   7.485
    4AU     AUC 1536  10.945   8.774   7.459
    4AU     AUC 1537  11.277   8.729   7.478
    4AU     AUC 1538  10.545   7.598   7.504
    4AU     AUC 1539  10.899   7.550   7.485
    4AU     AUC 1540  11.258   7.567   7.476
    4AU     AUC 1541  10.907   7.790   8.067
    4AU     AUC 1542  10.929   8.156   8.097
    4AU     AUC 1543  10.952   8.514   8.058
    4AU     AUC 1544  10.954   7.813   6.939
    4AU     AUC 1545  10.928   8.150   6.880
    4AU     AUC 1546  10.905   8.478   6.914
    4AU     AUC 1547  11.197   7.929   7.990
    4AU     AUC 1548  11.239   8.312   7.983
    4AU     AUC 1549  11.254   8.025   6.987
    4AU     AUC 1550  11.231   8.349   7.020
    4AU     AUC 1551  10.620   8.009   8.012
    4AU     AUC 1552  10.650   8.384   7.997
    4AU     AUC 1553  10.628   7.953   7.032
    4AU     AUC 1554  10.599   8.277   6.989
    4AU     AUC 1555  11.442   8.456   7.333
    4AU     AUC 1556  11.396   8.421   7.683
    4AU     AUC 1557  10.441   8.436   7.312
    4AU     AUC 1558  10.451   8.486   7.682
    4AU     AUC 1559  11.399   7.861   7.320
    4AU     AUC 1560  11.367   7.806   7.680
    4AU     AUC 1561  10.413   7.836   7.351
    4AU     AUC 1562  10.460   7.890   7.707
    4AU     AUC 1563  10.767   8.671   7.770
    4AU     AUC 1564  11.117   8.639   7.773
    4AU     AUC 1565  10.725   7.673   7.798
    4AU     AUC 1566  11.054   7.626   7.771
    4AU     AUC 1567  10.738   8.589   7.182
    4AU     AUC 1568  11.108   8.645   7.193
    4AU     AUC 1569  10.741   7.672   7.200
    4AU     AUC 1570  11.132   7.702   7.196
    4AU    AUSL 1571  11.470   8.052   8.226
    4AU    AUSL 1572  11.193   7.634   8.152
    4AU     AUL 1573  11.496   7.647   8.357
    4AU       S 1574  11.568   7.277   8.101
    4AU     LIG 1575  11.473   7.113   8.470
    4AU     LIG 1576  11.582   6.828   8.801
    4AU     LIG 1577  11.831   6.498   8.997
    4AU     LIG 1578  12.073   6.228   9.287
    4AU     LIG 1579  12.012   5.950   9.672
    4AU       S 1580  11.697   8.053   8.351
    4AU     LIG 1581  11.572   8.023   8.800
    4AU     LIG 1582  11.780   7.869   9.224
    4AU     LIG 1583  12.103   7.718   9.569
    4AU     LIG 1584  12.460   7.757   9.903
    4AU     LIG 1585  12.851   7.751  10.183
    4AU    AUSL 1586  11.072   7.965   8.397
    4AU    AUSL 1587  10.813   8.335   8.425
    4AU     AUL 1588  11.015   8.270   8.741
    4AU       S 1589  11.160   7.892   8.543
    4AU     LIG 1590  11.098   7.794   8.940
    4AU     LIG 1591  11.328   7.631   9.306
    4AU     LIG 1592  11.611   7.526   9.674
    4AU     LIG 1593  11.615   7.356  10.129
    4AU     LIG 1594  11.523   7.381  10.600
    4AU       S 1595  10.619   8.063   8.647
    4AU     LIG 1596  10.667   8.029   9.124
    4AU     LIG 1597  10.370   8.040   9.491
    4AU     LIG 1598  10.166   8.112   9.918
    4AU     LIG 1599  10.164   8.394  10.322
    4AU     LIG 1600  10.198   8.653  10.736
    4AU    AUSL 1601  11.131   8.338   8.157
    4AU    AUSL 1602  11.570   8.444   8.087
    4AU     AUL 1603  11.363   8.353   8.441
    4AU       S 1604  11.027   8.720   8.577
    4AU     LIG 1605  11.372   8.613   8.890
    4AU     LIG 1606  11.510   8.664   9.362
    4AU     LIG 1607  11.501   8.776   9.849
    4AU     LIG 1608  11.391   8.808  10.329
    4AU     LIG 1609  11.505   8.835  10.798
    4AU       S 1610  11.732   8.580   8.263
    4AU     LIG 1611  12.147   8.555   8.317
    4AU     LIG 1612  12.427   8.757   8.646
    4AU     LIG 1613  12.661   9.011   8.980
    4AU     LIG 1614  12.862   9.278   9.313
    4AU     LIG 1615  13.200   9.352   9.636
    4AU    AUSL 1616  11.449   8.307   6.758
    4AU    AUSL 1617  11.215   8.623   6.951
    4AU     AUL 1618  11.359   8.679   6.612
    4AU       S 1619  11.407   8.352   6.299
    4AU     LIG 1620  11.796   8.203   6.108
    4AU     LIG 1621  11.919   7.901   5.776
    4AU     LIG 1622  12.071   7.731   5.360
    4AU     LIG 1623  12.408   7.627   5.034
    4AU     LIG 1624  12.789   7.777   4.786
    4AU       S 1625  11.682   8.889   6.873
    4AU     LIG 1626  11.755   9.035   6.462
    4AU     LIG 1627  11.944   9.172   6.046
    4AU     LIG 1628  12.239   9.385   5.758
    4AU     LIG 1629  12.416   9.494   5.345
    4AU     LIG 1630  12.533   9.876   5.083
    4AU    AUSL 1631  11.235   7.972   6.596
    4AU    AUSL 1632  11.607   7.945   6.923
    4AU     AUL 1633  11.642   8.072   6.604
    4AU       S 1634  11.785   7.639   6.705
    4AU     LIG 1635  11.878   7.300   6.373
    4AU     LIG 1636  12.116   6.920   6.229
    4AU     LIG 1637  12.372   6.662   5.926
    4AU     LIG 1638  12.715   6.635   5.591
    4AU     LIG 1639  13.183   6.636   5.480
    4AU       S 1640  11.324   8.212   6.289
    4AU     LIG 1641  11.442   7.818   6.117
    4AU     LIG 1642  11.539   7.562   5.714
    4AU     LIG 1643  11.617   7.506   5.242
    4AU     LIG 1644  11.777   7.581   4.795
    4AU     LIG 1645  12.065   7.430   4.433
    4AU    AUSL 1646  11.026   8.348   6.678
    4AU    AUSL 1647  10.825   7.945   6.724
    4AU     AUL 1648  10.969   7.967   6.429
    4AU       S 1649  10.536   7.965   6.284
    4AU     LIG 1650  10.504   7.735   5.898
    4AU     LIG 1651  10.227   7.466   5.633
    4AU     LIG 1652  10.088   7.364   5.198
    4AU     LIG 1653   9.948   7.161   4.788
    4AU     LIG 1654   9.776   7.124   4.333
    4AU       S 1655  11.061   8.419   6.355
    4AU     LIG 1656  11.052   8.186   5.900
    4AU     LIG 1657  11.441   8.064   5.623
    4AU     LIG 1658  11.671   8.017   5.190
    4AU     LIG 1659  11.823   8.127   4.743
    4AU     LIG 1660  11.860   8.453   4.382
    4AU    AUSL 1661  10.414   8.277   8.266
    4AU    AUSL 1662  10.677   8.635   8.155
    4AU     AUL 1663  10.564   8.562   8.492
    4AU       S 1664  10.433   8.161   8.707
    4AU     LIG 1665  10.194   7.870   8.936
    4AU     LIG 1666   9.952   7.768   9.336
    4AU     LIG 1667   9.716   7.717   9.753
    4AU     LIG 1668   9.295   7.838   9.966
    4AU     LIG 1669   9.014   8.027  10.314
    4AU       S 1670  10.294   8.857   8.239
    4AU     LIG 1671  10.354   9.005   8.650
    4AU     LIG 1672  10.214   9.269   9.005
    4AU     LIG 1673   9.926   9.455   9.321
    4AU     LIG 1674   9.718   9.482   9.748
    4AU     LIG 1675   9.660   9.705  10.163
    4AU    AUSL 1676  10.712   7.987   8.176
    4AU    AUSL 1677  10.284   7.880   8.123
    4AU     AUL 1678  10.219   8.090   8.307
    4AU       S 1679  10.160   7.634   8.381
    4AU     LIG 1680   9.717   7.619   8.194
    4AU     LIG 1681   9.416   7.290   8.271
    4AU     LIG 1682   9.235   6.991   8.554
    4AU     LIG 1683   8.971   6.720   8.820
    4AU     LIG 1684   8.757   6.530   9.192
    4AU       S 1685  10.613   7.921   8.551
    4AU     LIG 1686  10.623   7.593   8.865
    4AU     LIG 1687  10.437   7.564   9.298
    4AU     LIG 1688  10.229   7.592   9.736
    4AU     LIG 1689  10.067   7.444  10.160
    4AU     LIG 1690  10.030   7.235  10.591
    4AU    AUSL 1691  10.397   7.992   6.762
    4AU    AUSL 1692  10.613   7.648   6.937
    4AU     AUL 1693  10.664   7.643   6.607
    4AU       S 1694  10.366   7.899   6.371
    4AU     LIG 1695  10.057   7.689   6.161
    4AU     LIG 1696   9.806   7.726   5.784
    4AU     LIG 1697   9.719   7.693   5.338
    4AU     LIG 1698   9.405   7.603   5.003
    4AU     LIG 1699   9.071   7.665   4.687
    4AU       S 1700  10.252   7.517   6.766
    4AU     LIG 1701  10.219   7.123   6.591
    4AU     LIG 1702   9.844   6.865   6.480
    4AU     LIG 1703   9.511   6.815   6.129
    4AU     LIG 1704   9.405   6.687   5.679
    4AU     LIG 1705   9.370   6.409   5.285
    4AU    AUSL 1706  10.616   8.318   6.594
    4AU    AUSL 1707  10.266   8.382   6.906
    4AU     AUL 1708  10.173   8.218   6.627
    4AU       S 1709  10.280   8.658   6.652
    4AU     LIG 1710   9.900   8.737   6.504
    4AU     LIG 1711   9.757   8.991   6.139
    4AU     LIG 1712   9.544   9.123   5.727
    4AU     LIG 1713   9.175   9.199   5.413
    4AU     LIG 1714   8.854   9.339   5.072
    4AU       S 1715  10.567   8.248   6.349
    4AU     LIG 1716  10.252   8.204   5.963
    4AU     LIG 1717  10.194   7.976   5.541
    4AU     LIG 1718  10.105   7.982   5.073
    4AU     LIG 1719  10.086   8.274   4.675
    4AU     LIG 1720  10.015   8.531   4.264
    4AU    AUSL 1721  11.707   8.656   7.506
    4AU    AUSL 1722  11.609   8.484   7.106
    4AU     AUL 1723  11.970   8.769   7.277
    4AU       S 1724  11.708   8.655   6.931
    4AU     LIG 1725  11.854   8.531   6.535
    4AU     LIG 1726  12.135   8.728   6.239
    4AU     LIG 1727  12.450   8.998   6.026
    4AU     LIG 1728  12.769   9.235   5.766
    4AU     LIG 1729  13.188   9.169   5.539
    4AU       S 1730  12.108   8.517   7.654
    4AU     LIG 1731  12.548   8.700   7.602
    4AU     LIG 1732  13.017   8.841   7.550
    4AU     LIG 1733  13.477   8.992   7.506
    4AU     LIG 1734  13.872   9.265   7.436
    4AU     LIG 1735  13.954   9.731   7.290
    4AU    AUSL 1736  11.875   8.253   7.339
    4AU    AUSL 1737  11.833   7.913   7.694
    4AU     AUL 1738  12.169   7.963   7.551
    4AU       S 1739  12.004   8.328   7.371
    4AU     LIG 1740  12.446   8.309   7.294
    4AU     LIG 1741  12.917   8.391   7.325
    4AU     LIG 1742  13.367   8.560   7.240
    4AU     LIG 1743  13.827   8.717   7.203
    4AU     LIG 1744  14.271   8.741   6.974
    4AU       S 1745  12.060   7.521   7.669
    4AU     LIG 1746  12.438   7.480   7.844
    4AU     LIG 1747  12.803   7.211   7.793
    4AU     LIG 1748  13.231   7.051   7.712
    4AU     LIG 1749  13.684   6.973   7.766
    4AU     LIG 1750  14.087   6.899   8.040
    4AU    AUSL 1751  11.632   8.284   7.708
    4AU    AUSL 1752  11.378   8.678   7.774
    4AU     AUL 1753  11.713   8.715   7.816
    4AU       S 1754  11.708   8.892   8.238
    4AU     LIG 1755  12.096   9.071   8.398
    4AU     LIG 1756  12.412   9.311   8.647
    4AU     LIG 1757  12.736   9.556   8.890
    4AU     LIG 1758  13.014   9.939   8.999
    4AU     LIG 1759  13.175  10.397   9.019
    4AU       S 1760  11.979   8.336   7.810
    4AU     LIG 1761  12.448   8.276   7.915
    4AU     LIG 1762  12.908   8.410   7.844
    4AU     LIG 1763  13.373   8.515   7.749
    4AU     LIG 1764  13.823   8.697   7.735
    4AU     LIG 1765  14.068   9.065   7.900
    4AU    AUSL 1766  10.258   8.707   7.523
    4AU    AUSL 1767  10.343   8.486   7.911
    4AU     AUL 1768  10.028   8.800   7.781
    4AU       S 1769  10.173   8.657   8.191
    4AU     LIG 1770  10.075   8.557   8.616
    4AU     LIG 1771   9.911   8.849   8.963
    4AU     LIG 1772   9.627   9.035   9.314
    4AU     LIG 1773   9.333   9.139   9.683
    4AU     LIG 1774   8.938   9.156   9.945
    4AU       S 1775  10.243   9.078   7.453
    4AU     LIG 1776   9.782   8.987   7.377
    4AU     LIG 1777   9.346   9.185   7.383
    4AU     LIG 1778   9.041   9.564   7.420
    4AU     LIG 1779   8.666   9.853   7.525
    4AU     LIG 1780   8.250  10.048   7.539
    4AU    AUSL 1781  10.214   8.330   7.317
    4AU    AUSL 1782  10.334   8.763   7.114
    4AU     AUL 1783  10.044   8.620   7.163
    4AU       S 1784   9.839   8.207   6.986
    4AU     LIG 1785   9.527   8.576   7.126
    4AU     LIG 1786   9.091   8.801   7.136
    4AU     LIG 1787   8.643   8.974   7.010
    4AU     LIG 1788   8.206   9.237   6.962
    4AU     LIG 1789   7.734   9.415   6.984
    4AU       S 1790  10.128   9.021   6.907
    4AU     LIG 1791  10.159   9.187   6.473
    4AU     LIG 1792   9.959   9.474   6.145
    4AU     LIG 1793   9.736   9.869   5.997
    4AU     LIG 1794   9.507  10.296   5.956
    4AU     LIG 1795   9.201  10.663   5.888
    4AU    AUSL 1796  10.005   8.356   7.705
    4AU    AUSL 1797   9.975   7.996   7.383
    4AU     AUL 1798   9.822   8.323   7.443
    4AU       S 1799   9.743   7.878   7.624
    4AU     LIG 1800   9.321   7.731   7.400
    4AU     LIG 1801   8.860   7.662   7.472
    4AU     LIG 1802   8.393   7.649   7.318
    4AU     LIG 1803   7.944   7.552   7.124
    4AU     LIG 1804   7.491   7.377   7.090
    4AU       S 1805   9.886   8.334   7.952
    4AU     LIG 1806   9.548   8.611   7.802
    4AU     LIG 1807   9.066   8.588   7.878
    4AU     LIG 1808   8.686   8.718   8.160
    4AU     LIG 1809   8.201   8.630   8.178
    4AU     LIG 1810   7.754   8.517   8.065
    4AU    AUSL 1811  11.604   7.582   7.533
    4AU    AUSL 1812  11.454   7.835   7.870
    4AU     AUL 1813  11.762   7.736   7.946
    4AU       S 1814  11.790   7.426   7.517
    4AU     LIG 1815  12.100   7.035   7.636
    4AU     LIG 1816  12.544   6.835   7.548
    4AU     LIG 1817  13.001   6.652   7.488
    4AU     LIG 1818  13.493   6.557   7.499
    4AU     LIG 1819  13.888   6.260   7.474
    4AU       S 1820  11.686   7.289   7.968
    4AU     LIG 1821  11.972   7.035   8.248
    4AU     LIG 1822  12.081   6.827   8.653
    4AU     LIG 1823  12.338   6.563   8.944
    4AU     LIG 1824  12.686   6.492   9.246
    4AU     LIG 1825  12.996   6.693   9.553
    4AU    AUSL 1826  11.580   7.961   7.339
    4AU    AUSL 1827  11.546   7.557   7.115
    4AU     AUL 1828  11.829   7.793   7.183
    4AU       S 1829  12.054   7.504   7.440
    4AU     LIG 1830  12.465   7.316   7.359
    4AU     LIG 1831  12.896   7.134   7.292
    4AU     LIG 1832  13.321   6.963   7.212
    4AU     LIG 1833  13.774   6.914   7.206
    4AU     LIG 1834  14.221   7.061   7.126
    4AU       S 1835  11.755   7.437   6.867
    4AU     LIG 1836  11.767   6.971   6.760
    4AU     LIG 1837  11.958   6.558   6.556
    4AU     LIG 1838  12.258   6.283   6.277
    4AU     LIG 1839  12.548   5.932   6.087
    4AU     LIG 1840  12.861   5.540   6.031
    4AU    AUSL 1841  10.166   7.629   7.538
    4AU    AUSL 1842  10.300   7.866   7.148
    4AU     AUL 1843   9.943   7.738   7.218
    4AU       S 1844  10.124   7.621   6.817
    4AU     LIG 1845   9.766   7.373   6.689
    4AU     LIG 1846   9.427   7.138   6.545
    4AU     LIG 1847   9.075   7.021   6.336
    4AU     LIG 1848   8.996   6.748   6.000
    4AU     LIG 1849   8.722   6.601   5.662
    4AU       S 1850   9.751   7.617   7.632
    4AU     LIG 1851   9.428   7.384   7.772
    4AU     LIG 1852   9.002   7.251   7.826
    4AU     LIG 1853   8.593   7.244   7.587
    4AU     LIG 1854   8.131   7.244   7.515
    4AU     LIG 1855   7.826   7.032   7.265
    4AU    AUSL 1856  10.236   8.012   7.729
    4AU    AUSL 1857  10.478   7.639   7.828
    4AU     AUL 1858  10.128   7.655   7.891
    4AU       S 1859  10.171   7.429   8.282
    4AU     LIG 1860   9.882   7.180   7.987
    4AU     LIG 1861   9.492   6.880   7.982
    4AU     LIG 1862   9.242   6.563   8.272
    4AU     LIG 1863   9.026   6.251   8.599
    4AU     LIG 1864   8.716   5.864   8.699
    4AU       S 1865   9.751   7.909   7.784
    4AU     LIG 1866   9.355   8.184   7.621
    4AU     LIG 1867   8.895   8.145   7.628
    4AU     LIG 1868   8.499   7.896   7.770
    4AU     LIG 1869   8.109   7.663   7.806
    4AU     LIG 1870   7.770   7.512   8.070
    4AU    AUSL 1871  10.958   8.839   7.910
    4AU    AUSL 1872  10.512   8.867   7.829
    4AU     AUL 1873  10.761   8.954   8.190
    4AU       S 1874  10.382   9.073   7.943
    4AU     LIG 1875  10.162   9.337   8.294
    4AU     LIG 1876   9.959   9.583   8.670
    4AU     LIG 1877   9.785  10.016   8.845
    4AU     LIG 1878   9.642  10.501   8.877
    4AU     LIG 1879   9.313  10.861   8.967
    4AU       S 1880  10.982   9.296   7.966
    4AU     LIG 1881  11.100   9.377   8.338
    4AU     LIG 1882  11.056   9.823   8.476
    4AU     LIG 1883  10.972  10.271   8.619
    4AU     LIG 1884  11.047  10.627   8.911
    4AU     LIG 1885  11.010  10.925   9.275
    4AU    AUSL 1886  10.779   9.082   7.598
    4AU    AUSL 1887  11.054   9.059   7.232
    4AU     AUL 1888  10.701   9.296   7.364
    4AU       S 1889  10.842   9.310   7.811
    4AU     LIG 1890  10.939   9.783   7.917
    4AU     LIG 1891  10.886  10.207   8.112
    4AU     LIG 1892  10.842  10.658   8.224
    4AU     LIG 1893  10.526  11.025   8.165
    4AU     LIG 1894  10.244  11.418   8.239
    4AU       S 1895  10.993   9.366   7.015
    4AU     LIG 1896  11.345   9.551   7.050
    4AU     LIG 1897  11.444   9.971   6.866
    4AU     LIG 1898  11.485  10.434   6.699
    4AU     LIG 1899  11.534  10.923   6.772
    4AU     LIG 1900  11.634  11.393   6.927
    4AU    AUSL 1901  11.222   9.035   7.624
    4AU    AUSL 1902  11.254   8.736   8.187
    4AU     AUL 1903  11.336   9.000   7.963
    4AU       S 1904  11.486   8.820   8.393
    4AU     LIG 1905  11.838   8.766   8.722
    4AU     LIG 1906  12.129   9.028   8.973
    4AU     LIG 1907  12.355   9.373   9.204
    4AU     LIG 1908  12.391   9.645   9.597
    4AU     LIG 1909  12.182   9.908   9.955
    4AU       S 1910  11.172   9.335   7.653
    4AU     LIG 1911  11.409   9.564   7.961
    4AU     LIG 1912  11.382  10.004   8.126
    4AU     LIG 1913  11.324  10.445   8.286
    4AU     LIG 1914  11.271  10.906   8.381
    4AU     LIG 1915  11.279  11.380   8.286
    4AU    AUSL 1916  10.873   7.447   7.930
    4AU    AUSL 1917  11.287   7.446   7.775
    4AU     AUL 1918  11.105   7.323   8.160
    4AU       S 1919  10.859   6.975   7.983
    4AU     LIG 1920  10.708   6.806   8.342
    4AU     LIG 1921  10.577   6.359   8.406
    4AU     LIG 1922  10.487   5.876   8.412
    4AU     LIG 1923  10.512   5.393   8.531
    4AU     LIG 1924  10.579   4.953   8.730
    4AU       S 1925  11.438   7.236   7.826
    4AU     LIG 1926  11.392   6.821   8.039
    4AU     LIG 1927  11.698   6.603   8.349
    4AU     LIG 1928  12.037   6.321   8.562
    4AU     LIG 1929  12.314   6.055   8.851
    4AU     LIG 1930  12.683   5.766   8.953
    4AU    AUSL 1931  10.566   7.277   7.645
    4AU    AUSL 1932  10.628   7.586   8.238
    4AU     AUL 1933  10.520   7.311   7.999
    4AU       S 1934  10.677   6.904   7.824
    4AU     LIG 1935  10.353   6.661   8.005
    4AU     LIG 1936  10.258   6.207   8.035
    4AU     LIG 1937  10.309   5.762   7.932
    4AU     LIG 1938  10.274   5.338   8.076
    4AU     LIG 1939  10.392   4.941   8.257
    4AU       S 1940  10.412   7.479   8.430
    4AU     LIG 1941  10.212   6.979   8.422
    4AU     LIG 1942   9.742   6.835   8.442
    4AU     LIG 1943   9.465   6.562   8.735
    4AU     LIG 1944   9.235   6.351   9.085
    4AU     LIG 1945   9.194   6.160   9.515
    4AU    AUSL 1946  10.996   7.205   7.595
    4AU    AUSL 1947  10.770   7.443   7.307
    4AU     AUL 1948  10.652   7.092   7.399
    4AU       S 1949  11.026   7.004   7.160
    4AU     LIG 1950  10.654   6.656   7.140
    4AU     LIG 1951  10.413   6.218   7.031
    4AU     LIG 1952  10.240   5.748   6.955
    4AU     LIG 1953  10.172   5.267   6.875
    4AU     LIG 1954  10.206   4.915   6.557
    4AU       S 1955  11.002   6.987   7.733
    4AU     LIG 1956  10.959   6.491   7.849
    4AU     LIG 1957  10.767   6.052   8.004
    4AU     LIG 1958  10.763   5.553   8.103
    4AU     LIG 1959  10.899   5.074   8.190
    4AU     LIG 1960  11.291   4.757   8.177
    4AU    AUSL 1961  10.892   8.878   6.866
    4AU    AUSL 1962  11.411   8.838   7.267
    4AU     AUL 1963  11.232   8.993   6.925
    4AU       S 1964  10.860   9.157   6.686
    4AU     LIG 1965  11.174   9.495   6.556
    4AU     LIG 1966  11.171   9.964   6.423
    4AU     LIG 1967  11.167  10.304   6.092
    4AU     LIG 1968  11.134  10.590   5.707
    4AU     LIG 1969  11.093  11.043   5.593
    4AU       S 1970  11.616   9.031   7.164
    4AU     LIG 1971  12.052   9.186   6.912
    4AU     LIG 1972  12.257   9.223   6.467
    4AU     LIG 1973  12.548   9.486   6.175
    4AU     LIG 1974  12.870   9.810   5.996
    4AU     LIG 1975  13.166  10.208   5.929
    4AU    AUSL 1976  10.710   8.819   7.285
    4AU    AUSL 1977  10.666   8.541   6.944
    4AU     AUL 1978  10.575   8.973   7.024
    4AU       S 1979  10.803   9.352   6.908
    4AU     LIG 1980  10.908   9.826   6.849
    4AU     LIG 1981  11.024  10.272   6.835
    4AU     LIG 1982  10.880  10.693   6.714
    4AU     LIG 1983  10.672  11.127   6.691
    4AU     LIG 1984  10.489  11.544   6.843
    4AU       S 1985  10.455   8.768   6.631
    4AU     LIG 1986  10.305   8.797   6.168
    4AU     LIG 1987  10.151   9.108   5.830
    4AU     LIG 1988   9.929   9.396   5.510
    4AU     LIG 1989   9.817   9.620   5.089
    4AU     LIG 1990   9.831  10.029   4.837
    4AU    AUSL 1991  10.964   7.408   6.919
    4AU    AUSL 1992  10.362   7.433   7.220
    4AU     AUL 1993  10.629   7.278   6.967
    4AU       S 1994  10.177   7.384   7.029
    4AU     LIG 1995   9.963   7.019   7.029
    4AU     LIG 1996   9.544   6.872   6.954
    4AU     LIG 1997   9.325   6.637   6.591
    4AU     LIG 1998   9.061   6.320   6.350
    4AU     LIG 1999   8.879   5.863   6.364
    4AU       S 2000  11.023   7.005   6.974
    4AU     LIG 2001  11.005   6.582   6.782
    4AU     LIG 2002  10.738   6.208   6.630
    4AU     LIG 2003  10.493   5.812   6.503
    4AU     LIG 2004  10.371   5.517   6.146
    4AU     LIG 2005  10.504   5.346   5.725
    4AU    AUSL 2006  11.199   7.425   7.302
    4AU    AUSL 2007  11.202   7.751   6.946
    4AU     AUL 2008  11.298   7.375   6.928
    4AU       S 2009  11.283   7.049   7.262
    4AU     LIG 2010  11.127   6.568   7.341
    4AU     LIG 2011  10.924   6.186   7.120
    4AU     LIG 2012  10.887   5.761   6.873
    4AU     LIG 2013  11.135   5.330   6.771
    4AU     LIG 2014  11.447   4.928   6.736
    4AU       S 2015  11.522   7.596   6.600
    4AU     LIG 2016  11.385   7.181   6.477
    4AU     LIG 2017  11.603   6.819   6.278
    4AU     LIG 2018  11.867   6.508   6.029
    4AU     LIG 2019  12.141   6.233   5.743
    4AU     LIG 2020  12.235   6.114   5.280
    5AU     AUC 2021  34.686   7.170   7.496
    5AU     AUC 2022  34.981   7.172   7.324
    5AU     AUC 2023  34.955   7.153   7.670
    5AU     AUC 2024  34.395   7.165   7.333
    5AU     AUC 2025  34.422   7.201   7.681
    5AU     AUC 2026  34.519   7.455   7.490
    5AU     AUC 2027  34.877   7.446   7.482
    5AU     AUC 2028  34.492   6.892   7.497
    5AU     AUC 2029  34.848   6.883   7.497
    5AU     AUC 2030  34.684   6.991   7.772
    5AU     AUC 2031  34.688   7.359   7.756
    5AU     AUC 2032  34.680   7.009   7.225
    5AU     AUC 2033  34.708   7.324   7.216
    5AU     AUC 2034  35.300   7.172   7.160
    5AU     AUC 2035  35.302   7.136   7.518
    5AU     AUC 2036  35.243   7.124   7.866
    5AU     AUC 2037  34.093   7.161   7.172
    5AU     AUC 2038  34.078   7.199   7.533
    5AU     AUC 2039  34.138   7.232   7.876
    5AU     AUC 2040  34.359   7.757   7.465
    5AU     AUC 2041  34.723   7.778   7.439
    5AU     AUC 2042  35.063   7.722   7.472
    5AU     AUC 2043  34.295   6.617   7.492
    5AU     AUC 2044  34.634   6.561   7.470
    5AU     AUC 2045  35.010   6.573   7.476
    5AU     AUC 2046  34.664   6.813   8.061
    5AU     AUC 2047  34.690   7.176   8.092
    5AU     AUC 2048  34.718   7.538   8.044
    5AU     AUC 2049  34.714   6.837   6.938
    5AU     AUC 2050  34.709   7.161   6.881
    5AU     AUC 2051  34.692   7.469   6.922
    5AU     AUC 2052  34.958   6.940   7.986
    5AU     AUC 2053  34.996   7.328   7.981
    5AU     AUC 2054  35.032   7.020   7.000
    5AU     AUC 2055  35.028   7.343   7.033
    5AU     AUC 2056  34.384   7.036   8.006
    5AU     AUC 2057  34.420   7.413   7.986
    5AU     AUC 2058  34.388   6.987   7.034
    5AU     AUC 2059  34.364   7.291   6.994
    5AU     AUC 2060  35.232   7.451   7.347
    5AU     AUC 2061  35.167   7.427   7.693
    5AU     AUC 2062  34.190   7.465   7.332
    5AU     AUC 2063  34.228   7.527   7.686
    5AU     AUC 2064  35.173   6.859   7.332
    5AU     AUC 2065  35.138   6.819   7.672
    5AU     AUC 2066  34.159   6.869   7.348
    5AU     AUC 2067  34.217   6.914   7.706
    5AU     AUC 2068  34.547   7.703   7.749
    5AU     AUC 2069  34.885   7.655   7.764
    5AU     AUC 2070  34.478   6.698   7.791
    5AU     AUC 2071  34.809   6.645   7.764
    5AU     AUC 2072  34.504   7.599   7.177
    5AU     AUC 2073  34.892   7.634   7.185
    5AU     AUC 2074  34.487   6.688   7.200
    5AU     AUC 2075  34.867   6.716   7.203
    5AU    AUSL 2076  35.230   7.065   8.217
    5AU    AUSL 2077  34.945   6.646   8.145
    5AU     AUL 2078  35.267   6.652   8.320
    5AU       S 2079  35.292   6.252   8.096
    5AU     LIG 2080  35.143   5.980   8.386
    5AU     LIG 2081  35.278   5.618   8.620
    5AU     LIG 2082  35.522   5.450   8.975
    5AU     LIG 2083  35.815   5.249   9.253
    5AU     LIG 2084  35.903   5.014   9.628
    5AU       S 2085  35.458   7.065   8.352
    5AU     LIG 2086  35.349   7.092   8.801
    5AU     LIG 2087  35.493   6.912   9.213
    5AU     LIG 2088  35.837   6.749   9.510
    5AU     LIG 2089  36.221   6.719   9.800
    5AU     LIG 2090  36.532   6.682  10.158
    5AU    AUSL 2091  34.831   6.978   8.392
    5AU    AUSL 2092  34.571   7.366   8.419
    5AU     AUL 2093  34.768   7.265   8.727
    5AU       S 2094  34.963   6.887   8.563
    5AU     LIG 2095  34.875   6.814   8.982
    5AU     LIG 2096  35.094   6.599   9.352
    5AU     LIG 2097  35.269   6.412   9.763
    5AU     LIG 2098  35.274   6.275  10.232
    5AU     LIG 2099  35.326   6.386  10.700
    5AU       S 2100  34.345   7.109   8.650
    5AU     LIG 2101  34.271   7.056   9.157
    5AU     LIG 2102  33.987   6.987   9.536
    5AU     LIG 2103  33.809   7.042   9.969
    5AU     LIG 2104  33.799   7.301  10.375
    5AU     LIG 2105  34.004   7.553  10.737
    5AU    AUSL 2106  34.890   7.348   8.153
    5AU    AUSL 2107  35.321   7.468   8.102
    5AU     AUL 2108  35.120   7.366   8.438
    5AU       S 2109  34.801   7.725   8.595
    5AU     LIG 2110  35.142   7.590   8.906
    5AU     LIG 2111  35.295   7.652   9.379
    5AU     LIG 2112  35.331   7.796   9.865
    5AU     LIG 2113  35.322   7.864  10.363
    5AU     LIG 2114  35.372   7.945  10.853
    5AU       S 2115  35.478   7.617   8.277
    5AU     LIG 2116  35.832   7.478   8.418
    5AU     LIG 2117  36.144   7.716   8.682
    5AU     LIG 2118  36.395   8.006   8.974
    5AU     LIG 2119  36.626   8.306   9.256
    5AU     LIG 2120  36.980   8.386   9.546
    5AU    AUSL 2121  35.257   7.283   6.778
    5AU    AUSL 2122  35.043   7.629   6.950
    5AU     AUL 2123  35.175   7.659   6.621
    5AU       S 2124  35.225   7.324   6.316
    5AU     LIG 2125  35.600   7.176   6.129
    5AU     LIG 2126  35.692   6.881   5.799
    5AU     LIG 2127  35.766   6.732   5.365
    5AU     LIG 2128  36.078   6.642   5.019
    5AU     LIG 2129  36.505   6.624   4.784
    5AU       S 2130  35.486   7.867   6.884
    5AU     LIG 2131  35.576   8.010   6.483
    5AU     LIG 2132  35.790   8.205   6.108
    5AU     LIG 2133  36.047   8.393   5.765
    5AU     LIG 2134  36.214   8.731   5.500
    5AU     LIG 2135  36.228   8.891   5.067
    5AU    AUSL 2136  35.020   6.963   6.604
    5AU    AUSL 2137  35.372   6.895   6.915
    5AU     AUL 2138  35.443   7.030   6.620
    5AU       S 2139  35.464   6.561   6.670
    5AU     LIG 2140  35.555   6.172   6.376
    5AU     LIG 2141  35.771   5.772   6.346
    5AU     LIG 2142  36.060   5.560   6.062
    5AU     LIG 2143  36.316   5.608   5.675
    5AU     LIG 2144  36.683   5.786   5.437
    5AU       S 2145  35.124   7.182   6.311
    5AU     LIG 2146  35.225   6.810   6.070
    5AU     LIG 2147  35.311   6.582   5.627
    5AU     LIG 2148  35.394   6.434   5.162
    5AU     LIG 2149  35.401   6.282   4.692
    5AU     LIG 2150  35.645   6.295   4.279
    5AU    AUSL 2151  34.834   7.338   6.715
    5AU    AUSL 2152  34.598   6.959   6.706
    5AU     AUL 2153  34.756   6.948   6.439
    5AU       S 2154  34.319   7.008   6.281
    5AU     LIG 2155  34.336   6.865   5.897
    5AU     LIG 2156  34.110   6.587   5.625
    5AU     LIG 2157  33.889   6.527   5.230
    5AU     LIG 2158  33.821   6.278   4.836
    5AU     LIG 2159  33.821   6.111   4.396
    5AU       S 2160  34.893   7.393   6.363
    5AU     LIG 2161  34.855   7.180   5.914
    5AU     LIG 2162  35.236   7.092   5.610
    5AU     LIG 2163  35.425   7.082   5.154
    5AU     LIG 2164  35.480   7.284   4.698
    5AU     LIG 2165  35.620   7.527   4.298
    5AU    AUSL 2166  34.175   7.318   8.243
    5AU    AUSL 2167  34.464   7.663   8.132
    5AU     AUL 2168  34.327   7.604   8.468
    5AU       S 2169  34.185   7.226   8.704
    5AU     LIG 2170  33.886   6.925   8.821
    5AU     LIG 2171  33.604   6.882   9.190
    5AU     LIG 2172  33.491   6.780   9.636
    5AU     LIG 2173  33.326   6.856  10.056
    5AU     LIG 2174  32.928   6.891  10.294
    5AU       S 2175  34.062   7.896   8.217
    5AU     LIG 2176  33.866   7.994   8.613
    5AU     LIG 2177  33.695   8.166   9.015
    5AU     LIG 2178  33.637   8.489   9.367
    5AU     LIG 2179  33.597   8.695   9.811
    5AU     LIG 2180  33.409   8.878  10.220
    5AU    AUSL 2181  34.470   7.018   8.175
    5AU    AUSL 2182  34.044   6.915   8.125
    5AU     AUL 2183  33.986   7.114   8.307
    5AU       S 2184  33.932   6.660   8.391
    5AU     LIG 2185  33.492   6.685   8.231
    5AU     LIG 2186  33.172   6.354   8.268
    5AU     LIG 2187  33.023   5.994   8.557
    5AU     LIG 2188  32.771   5.683   8.833
    5AU     LIG 2189  32.556   5.598   9.254
    5AU       S 2190  34.375   6.957   8.549
    5AU     LIG 2191  34.344   6.646   8.876
    5AU     LIG 2192  34.037   6.576   9.224
    5AU     LIG 2193  33.911   6.492   9.682
    5AU     LIG 2194  33.762   6.544  10.126
    5AU     LIG 2195  33.540   6.418  10.538
    5AU    AUSL 2196  34.188   7.069   6.760
    5AU    AUSL 2197  34.377   6.706   6.962
    5AU     AUL 2198  34.380   6.697   6.619
    5AU       S 2199  34.101   6.985   6.384
    5AU     LIG 2200  33.809   6.903   6.048
    5AU     LIG 2201  33.618   6.735   5.649
    5AU     LIG 2202  33.416   6.751   5.235
    5AU     LIG 2203  33.002   6.782   5.011
    5AU     LIG 2204  32.740   6.981   4.673
    5AU       S 2205  33.971   6.546   6.768
    5AU     LIG 2206  33.897   6.076   6.728
    5AU     LIG 2207  33.570   5.838   6.492
    5AU     LIG 2208  33.366   5.602   6.117
    5AU     LIG 2209  33.392   5.410   5.655
    5AU     LIG 2210  33.306   5.198   5.220
    5AU    AUSL 2211  34.448   7.366   6.563
    5AU    AUSL 2212  33.963   7.385   6.944
    5AU     AUL 2213  34.084   7.391   6.597
    5AU       S 2214  33.700   7.599   6.761
    5AU     LIG 2215  33.362   7.764   6.560
    5AU     LIG 2216  33.273   7.879   6.126
    5AU     LIG 2217  33.055   8.003   5.728
    5AU     LIG 2218  32.701   8.135   5.434
    5AU     LIG 2219  32.276   8.334   5.349
    5AU       S 2220  34.411   7.249   6.291
    5AU     LIG 2221  34.083   7.330   5.975
    5AU     LIG 2222  33.984   7.091   5.580
    5AU     LIG 2223  33.860   7.044   5.129
    5AU     LIG 2224  33.921   7.260   4.695
    5AU     LIG 2225  33.974   7.541   4.298
    5AU    AUSL 2226  35.493   7.643   7.534
    5AU    AUSL 2227  35.409   7.458   7.132
    5AU     AUL 2228  35.761   7.738   7.313
    5AU       S 2229  35.531   7.624   6.942
    5AU     LIG 2230  35.666   7.499   6.548
    5AU     LIG 2231  35.928   7.710   6.235
    5AU     LIG 2232  36.253   7.980   6.036
    5AU     LIG 2233  36.554   8.266   5.820
    5AU     LIG 2234  36.725   8.578   5.504
    5AU       S 2235  35.873   7.518   7.720
    5AU     LIG 2236  36.329   7.495   7.595
    5AU     LIG 2237  36.763   7.691   7.527
    5AU     LIG 2238  37.216   7.916   7.551
    5AU     LIG 2239  37.507   8.349   7.539
    5AU     LIG 2240  37.894   8.643   7.638
    5AU    AUSL 2241  35.671   7.247   7.393
    5AU    AUSL 2242  35.604   6.919   7.706
    5AU     AUL 2243  35.992   7.032   7.716
    5AU       S 2244  35.794   7.292   7.413
    5AU     LIG 2245  36.214   7.167   7.232
    5AU     LIG 2246  36.686   7.328   7.144
    5AU     LIG 2247  37.156   7.461   7.287
    5AU     LIG 2248  37.630   7.517   7.185
    5AU     LIG 2249  38.004   7.798   7.080
    5AU       S 2250  35.834   6.623   7.558
    5AU     LIG 2251  36.133   6.542   7.852
    5AU     LIG 2252  36.562   6.382   7.852
    5AU     LIG 2253  36.995   6.195   7.857
    5AU     LIG 2254  37.405   6.271   8.115
    5AU     LIG 2255  37.874   6.218   8.236
    5AU    AUSL 2256  35.393   7.282   7.737
    5AU    AUSL 2257  35.143   7.692   7.774
    5AU     AUL 2258  35.471   7.734   7.826
    5AU       S 2259  35.451   7.913   8.249
    5AU     LIG 2260  35.871   7.987   8.329
    5AU     LIG 2261  36.156   8.240   8.580
    5AU     LIG 2262  36.388   8.527   8.853
    5AU     LIG 2263  36.643   8.882   9.013
    5AU     LIG 2264  36.835   9.319   9.006
    5AU       S 2265  35.713   7.348   7.877
    5AU     LIG 2266  36.187   7.333   8.068
    5AU     LIG 2267  36.652   7.428   7.999
    5AU     LIG 2268  37.090   7.445   7.822
    5AU     LIG 2269  37.511   7.467   7.686
    5AU     LIG 2270  37.861   7.597   7.938
    5AU    AUSL 2271  34.045   7.768   7.516
    5AU    AUSL 2272  34.128   7.537   7.887
    5AU     AUL 2273  33.797   7.833   7.741
    5AU       S 2274  33.952   7.706   8.153
    5AU     LIG 2275  33.738   7.513   8.483
    5AU     LIG 2276  33.512   7.664   8.853
    5AU     LIG 2277  33.226   7.948   9.084
    5AU     LIG 2278  32.856   7.958   9.361
    5AU     LIG 2279  32.564   8.271   9.577
    5AU       S 2280  34.034   8.119   7.432
    5AU     LIG 2281  33.553   8.090   7.358
    5AU     LIG 2282  33.097   8.283   7.422
    5AU     LIG 2283  32.751   8.644   7.523
    5AU     LIG 2284  32.398   8.979   7.655
    5AU     LIG 2285  31.994   9.077   7.904
    5AU    AUSL 2286  33.962   7.375   7.361
    5AU    AUSL 2287  34.088   7.773   7.097
    5AU     AUL 2288  33.789   7.667   7.223
    5AU       S 2289  33.518   7.275   7.059
    5AU     LIG 2290  33.282   7.672   7.093
    5AU     LIG 2291  32.896   7.828   6.837
    5AU     LIG 2292  32.423   7.769   6.698
    5AU     LIG 2293  31.951   7.923   6.612
    5AU     LIG 2294  31.515   8.162   6.613
    5AU       S 2295  33.923   8.032   6.936
    5AU     LIG 2296  33.656   8.235   6.587
    5AU     LIG 2297  33.657   8.560   6.238
    5AU     LIG 2298  33.581   9.009   6.084
    5AU     LIG 2299  33.303   9.403   6.077
    5AU     LIG 2300  32.872   9.616   6.135
    5AU    AUSL 2301  33.766   7.383   7.761
    5AU    AUSL 2302  33.729   7.033   7.394
    5AU     AUL 2303  33.581   7.366   7.507
    5AU       S 2304  33.466   6.908   7.612
    5AU     LIG 2305  33.251   6.540   7.244
    5AU     LIG 2306  32.803   6.492   7.124
    5AU     LIG 2307  32.318   6.514   7.172
    5AU     LIG 2308  31.853   6.433   7.296
    5AU     LIG 2309  31.412   6.352   7.132
    5AU       S 2310  33.666   7.334   7.996
    5AU     LIG 2311  33.403   7.693   8.079
    5AU     LIG 2312  33.029   7.903   8.313
    5AU     LIG 2313  32.569   7.720   8.399
    5AU     LIG 2314  32.101   7.870   8.300
    5AU     LIG 2315  31.736   8.106   8.047
    5AU    AUSL 2316  35.373   6.583   7.533
    5AU    AUSL 2317  35.222   6.833   7.870
    5AU     AUL 2318  35.547   6.724   7.932
    5AU       S 2319  35.611   6.455   7.522
    5AU     LIG 2320  35.872   6.127   7.692
    5AU     LIG 2321  36.323   5.981   7.628
    5AU     LIG 2322  36.778   5.837   7.547
    5AU     LIG 2323  37.179   5.543   7.524
    5AU     LIG 2324  37.539   5.190   7.542
    5AU       S 2325  35.427   6.288   7.951
    5AU     LIG 2326  35.677   5.958   8.183
    5AU     LIG 2327  35.774   5.745   8.582
    5AU     LIG 2328  36.042   5.497   8.868
    5AU     LIG 2329  36.339   5.442   9.226
    5AU     LIG 2330  36.681   5.701   9.451
    5AU    AUSL 2331  35.379   6.959   7.327
    5AU    AUSL 2332  35.276   6.520   7.125
    5AU     AUL 2333  35.542   6.701   7.127
    5AU       S 2334  35.901   6.729   7.379
    5AU     LIG 2335  36.165   6.359   7.303
    5AU     LIG 2336  36.613   6.301   7.334
    5AU     LIG 2337  37.057   6.221   7.323
    5AU     LIG 2338  37.438   6.128   7.083
    5AU     LIG 2339  37.862   6.089   6.855
    5AU       S 2340  35.473   6.334   6.835
    5AU     LIG 2341  35.373   5.859   6.819
    5AU     LIG 2342  35.534   5.431   6.640
    5AU     LIG 2343  35.783   5.192   6.311
    5AU     LIG 2344  36.206   5.054   6.157
    5AU     LIG 2345  36.441   4.627   6.101
    5AU    AUSL 2346  33.909   6.663   7.546
    5AU    AUSL 2347  34.031   6.917   7.121
    5AU     AUL 2348  33.681   6.779   7.220
    5AU       S 2349  33.898   6.702   6.825
    5AU     LIG 2350  33.496   6.398   6.789
    5AU     LIG 2351  33.159   6.156   6.561
    5AU     LIG 2352  32.937   5.876   6.244
    5AU     LIG 2353  32.639   5.614   5.970
    5AU     LIG 2354  32.311   5.634   5.614
    5AU       S 2355  33.506   6.654   7.646
    5AU     LIG 2356  33.305   6.263   7.675
    5AU     LIG 2357  32.996   6.085   7.381
    5AU     LIG 2358  32.524   6.058   7.295
    5AU     LIG 2359  32.050   5.947   7.344
    5AU     LIG 2360  31.786   5.574   7.469
    5AU    AUSL 2361  34.003   7.044   7.729
    5AU    AUSL 2362  34.225   6.665   7.831
    5AU     AUL 2363  33.878   6.702   7.904
    5AU       S 2364  33.937   6.469   8.293
    5AU     LIG 2365  33.647   6.202   8.074
    5AU     LIG 2366  33.288   5.872   8.106
    5AU     LIG 2367  33.079   5.515   8.382
    5AU     LIG 2368  32.850   5.172   8.656
    5AU     LIG 2369  32.516   4.812   8.757
    5AU       S 2370  33.488   6.932   7.786
    5AU     LIG 2371  33.013   6.714   7.649
    5AU     LIG 2372  32.608   6.838   7.458
    5AU     LIG 2373  32.125   6.864   7.496
    5AU     LIG 2374  31.682   6.747   7.684
    5AU     LIG 2375  31.291   6.510   7.861
    5AU    AUSL 2376  34.732   7.887   7.889
    5AU    AUSL 2377  34.301   7.922   7.818
    5AU     AUL 2378  34.531   7.979   8.189
    5AU       S 2379  34.157   8.101   7.924
    5AU     LIG 2380  33.803   8.310   8.190
    5AU     LIG 2381  33.685   8.521   8.613
    5AU     LIG 2382  33.577   8.957   8.824
    5AU     LIG 2383  33.376   9.412   8.847
    5AU     LIG 2384  32.956   9.654   8.908
    5AU       S 2385  34.730   8.298   7.929
    5AU     LIG 2386  34.905   8.337   8.312
    5AU     LIG 2387  34.963   8.774   8.489
    5AU     LIG 2388  35.034   9.205   8.680
    5AU     LIG 2389  35.134   9.494   9.060
    5AU     LIG 2390  35.161   9.816   9.412
    5AU    AUSL 2391  34.566   8.096   7.538
    5AU    AUSL 2392  34.853   8.000   7.193
    5AU     AUL 2393  34.794   8.357   7.314
    5AU       S 2394  34.568   8.341   7.740
    5AU     LIG 2395  34.675   8.769   8.026
    5AU     LIG 2396  34.700   9.182   8.245
    5AU     LIG 2397  34.370   9.539   8.273
    5AU     LIG 2398  34.128   9.946   8.320
    5AU     LIG 2399  34.036  10.422   8.430
    5AU       S 2400  34.582   8.234   6.929
    5AU     LIG 2401  34.990   8.534   6.882
    5AU     LIG 2402  35.176   9.014   6.818
    5AU     LIG 2403  35.471   9.457   6.820
    5AU     LIG 2404  35.683   9.933   6.842
    5AU     LIG 2405  35.812  10.391   6.721
    5AU    AUSL 2406  35.006   8.047   7.597
    5AU    AUSL 2407  34.994   7.751   8.183
    5AU     AUL 2408  35.102   8.014   7.955
    5AU       S 2409  35.231   7.846   8.396
    5AU     LIG 2410  35.579   7.814   8.733
    5AU     LIG 2411  35.878   8.057   8.979
    5AU     LIG 2412  36.106   8.356   9.254
    5AU     LIG 2413  36.160   8.647   9.621
    5AU     LIG 2414  36.024   8.865  10.029
    5AU       S 2415  34.919   8.393   7.761
    5AU     LIG 2416  35.182   8.668   8.026
    5AU     LIG 2417  35.282   9.104   8.213
    5AU     LIG 2418  35.603   9.482   8.226
    5AU     LIG 2419  35.703   9.944   8.276
    5AU     LIG 2420  35.630  10.352   8.474
    5AU    AUSL 2421  34.621   6.475   7.917
    5AU    AUSL 2422  35.037   6.461   7.762
    5AU     AUL 2423  34.843   6.345   8.146
    5AU       S 2424  34.594   5.992   7.993
    5AU     LIG 2425  34.652   5.617   8.308
    5AU     LIG 2426  34.629   5.155   8.485
    5AU     LIG 2427  34.679   4.692   8.529
    5AU     LIG 2428  34.704   4.255   8.702
    5AU     LIG 2429  34.933   3.985   9.019
    5AU       S 2430  35.187   6.237   7.816
    5AU     LIG 2431  35.238   5.765   7.934
    5AU     LIG 2432  35.530   5.461   8.182
    5AU     LIG 2433  35.711   5.236   8.552
    5AU     LIG 2434  36.058   4.992   8.746
    5AU     LIG 2435  36.489   4.826   8.631
    5AU    AUSL 2436  34.313   6.313   7.633
    5AU    AUSL 2437  34.393   6.616   8.235
    5AU     AUL 2438  34.266   6.341   7.990
    5AU       S 2439  34.425   5.931   7.832
    5AU     LIG 2440  34.167   5.737   8.121
    5AU     LIG 2441  34.234   5.289   8.185
    5AU     LIG 2442  34.310   4.825   8.199
    5AU     LIG 2443  34.359   4.349   8.312
    5AU     LIG 2444  34.167   3.937   8.523
    5AU       S 2445  34.190   6.519   8.425
    5AU     LIG 2446  33.988   6.050   8.510
    5AU     LIG 2447  33.545   5.877   8.551
    5AU     LIG 2448  33.279   5.620   8.847
    5AU     LIG 2449  33.066   5.512   9.253
    5AU     LIG 2450  32.980   5.495   9.726
    5AU    AUSL 2451  34.739   6.217   7.593
    5AU    AUSL 2452  34.503   6.372   7.254
    5AU     AUL 2453  34.367   6.084   7.399
    5AU       S 2454  34.736   6.051   7.129
    5AU     LIG 2455  34.340   5.803   6.985
    5AU     LIG 2456  34.345   5.366   6.915
    5AU     LIG 2457  34.401   4.919   6.819
    5AU     LIG 2458  34.397   4.490   6.664
    5AU     LIG 2459  34.469   4.032   6.567
    5AU       S 2460  34.738   6.018   7.730
    5AU     LIG 2461  34.771   5.551   7.823
    5AU     LIG 2462  34.708   5.120   7.970
    5AU     LIG 2463  34.759   4.667   8.005
    5AU     LIG 2464  34.924   4.306   8.236
    5AU     LIG 2465  35.069   3.950   8.503
    5AU    AUSL 2466  34.673   7.790   6.836
    5AU    AUSL 2467  35.227   7.835   7.273
    5AU     AUL 2468  35.016   7.995   6.912
    5AU       S 2469  34.607   8.140   6.722
    5AU     LIG 2470  34.649   8.547   6.508
    5AU     LIG 2471  34.916   8.904   6.357
    5AU     LIG 2472  35.044   9.099   5.925
    5AU     LIG 2473  35.053   9.453   5.605
    5AU     LIG 2474  34.903   9.904   5.619
    5AU       S 2475  35.411   7.983   7.148
    5AU     LIG 2476  35.863   8.146   6.964
    5AU     LIG 2477  36.081   8.156   6.537
    5AU     LIG 2478  36.264   8.460   6.224
    5AU     LIG 2479  36.496   8.761   5.945
    5AU     LIG 2480  36.869   9.047   5.890
    5AU    AUSL 2481  34.471   7.831   7.231
    5AU    AUSL 2482  34.389   7.494   6.953
    5AU     AUL 2483  34.319   7.790   6.811
    5AU       S 2484  34.402   8.172   7.080
    5AU     LIG 2485  34.508   8.703   6.997
    5AU     LIG 2486  34.614   9.139   6.778
    5AU     LIG 2487  34.430   9.622   6.715
    5AU     LIG 2488  34.381  10.105   6.596
    5AU     LIG 2489  34.160  10.558   6.635
    5AU       S 2490  33.875   7.798   6.686
    5AU     LIG 2491  34.129   8.080   6.427
    5AU     LIG 2492  34.062   8.324   6.011
    5AU     LIG 2493  33.900   8.583   5.625
    5AU     LIG 2494  33.802   8.798   5.190
    5AU     LIG 2495  33.668   9.162   4.901
    5AU    AUSL 2496  34.707   6.450   6.880
    5AU    AUSL 2497  34.106   6.491   7.218
    5AU     AUL 2498  34.364   6.317   6.931
    5AU       S 2499  33.939   6.438   7.054
    5AU     LIG 2500  33.642   6.211   7.245
    5AU     LIG 2501  33.343   5.937   6.995
    5AU     LIG 2502  33.132   5.639   6.665
    5AU     LIG 2503  32.941   5.359   6.325
    5AU     LIG 2504  32.660   5.011   6.152
    5AU       S 2505  34.762   6.034   6.915
    5AU     LIG 2506  34.890   5.624   6.756
    5AU     LIG 2507  34.719   5.235   6.565
    5AU     LIG 2508  34.824   4.770   6.496
    5AU     LIG 2509  34.713   4.364   6.256
    5AU     LIG 2510  34.668   4.115   5.853
    5AU    AUSL 2511  34.908   6.467   7.302
    5AU    AUSL 2512  34.956   6.773   6.967
    5AU     AUL 2513  35.027   6.407   6.927
    5AU       S 2514  34.971   6.053   7.222
    5AU     LIG 2515  34.745   5.591   7.259
    5AU     LIG 2516  34.786   5.160   7.096
    5AU     LIG 2517  34.836   4.716   7.011
    5AU     LIG 2518  34.854   4.312   6.780
    5AU     LIG 2519  34.991   3.941   6.555
    5AU       S 2520  35.252   6.561   6.568
    5AU     LIG 2521  35.066   6.129   6.511
    5AU     LIG 2522  35.236   5.719   6.333
    5AU     LIG 2523  35.509   5.488   6.006
    5AU     LIG 2524  35.828   5.203   5.778
    5AU     LIG 2525  36.085   5.244   5.382
    6AU     AUC 2526  14.352  37.231   7.502
    6AU     AUC 2527  14.628  37.244   7.322
    6AU     AUC 2528  14.618  37.218   7.673
    6AU     AUC 2529  14.066  37.224   7.335
    6AU     AUC 2530  14.086  37.264   7.685
    6AU     AUC 2531  14.185  37.512   7.497
    6AU     AUC 2532  14.538  37.513   7.487
    6AU     AUC 2533  14.166  36.961   7.512
    6AU     AUC 2534  14.517  36.940   7.501
    6AU     AUC 2535  14.354  37.055   7.779
    6AU     AUC 2536  14.352  37.422   7.763
    6AU     AUC 2537  14.347  37.064   7.227
    6AU     AUC 2538  14.366  37.385   7.224
    6AU     AUC 2539  14.939  37.254   7.154
    6AU     AUC 2540  14.956  37.203   7.513
    6AU     AUC 2541  14.907  37.188   7.865
    6AU     AUC 2542  13.767  37.209   7.165
    6AU     AUC 2543  13.746  37.255   7.529
    6AU     AUC 2544  13.802  37.294   7.872
    6AU     AUC 2545  14.022  37.815   7.479
    6AU     AUC 2546  14.389  37.852   7.458
    6AU     AUC 2547  14.723  37.796   7.478
    6AU     AUC 2548  13.972  36.684   7.520
    6AU     AUC 2549  14.322  36.629   7.497
    6AU     AUC 2550  14.683  36.639   7.484
    6AU     AUC 2551  14.336  36.877   8.072
    6AU     AUC 2552  14.354  37.242   8.098
    6AU     AUC 2553  14.383  37.599   8.054
    6AU     AUC 2554  14.375  36.889   6.950
    6AU     AUC 2555  14.358  37.224   6.890
    6AU     AUC 2556  14.341  37.552   6.921
    6AU     AUC 2557  14.621  37.006   7.995
    6AU     AUC 2558  14.666  37.387   7.985
    6AU     AUC 2559  14.682  37.096   6.994
    6AU     AUC 2560  14.668  37.419   7.026
    6AU     AUC 2561  14.052  37.106   8.019
    6AU     AUC 2562  14.077  37.481   7.991
    6AU     AUC 2563  14.049  37.034   7.045
    6AU     AUC 2564  14.029  37.357   6.996
    6AU     AUC 2565  14.883  37.522   7.338
    6AU     AUC 2566  14.831  37.489   7.688
    6AU     AUC 2567  13.868  37.522   7.315
    6AU     AUC 2568  13.883  37.574   7.675
    6AU     AUC 2569  14.827  36.930   7.327
    6AU     AUC 2570  14.796  36.876   7.687
    6AU     AUC 2571  13.835  36.923   7.368
    6AU     AUC 2572  13.887  36.977   7.723
    6AU     AUC 2573  14.207  37.760   7.763
    6AU     AUC 2574  14.554  37.716   7.772
    6AU     AUC 2575  14.160  36.756   7.811
    6AU     AUC 2576  14.479  36.703   7.779
    6AU     AUC 2577  14.176  37.667   7.187
    6AU     AUC 2578  14.545  37.716   7.196
    6AU     AUC 2579  14.160  36.755   7.214
    6AU     AUC 2580  14.554  36.776   7.205
    6AU    AUSL 2581  14.881  37.120   8.237
    6AU    AUSL 2582  14.615  36.718   8.157
    6AU     AUL 2583  14.896  36.717   8.392
    6AU       S 2584  15.000  36.375   8.111
    6AU     LIG 2585  14.894  36.190   8.482
    6AU     LIG 2586  15.066  35.853   8.738
    6AU     LIG 2587  15.279  35.460   8.883
    6AU     LIG 2588  15.541  35.183   9.165
    6AU     LIG 2589  15.748  35.102   9.567
    6AU       S 2590  15.103  37.114   8.350
    6AU     LIG 2591  14.981  37.131   8.787
    6AU     LIG 2592  15.111  37.070   9.233
    6AU     LIG 2593  15.343  36.856   9.603
    6AU     LIG 2594  15.721  36.734   9.901
    6AU     LIG 2595  16.091  36.738  10.214
    6AU    AUSL 2596  14.480  37.046   8.404
    6AU    AUSL 2597  14.231  37.431   8.423
    6AU     AUL 2598  14.429  37.360   8.741
    6AU       S 2599  14.552  36.968   8.552
    6AU     LIG 2600  14.562  36.929   9.001
    6AU     LIG 2601  14.760  36.718   9.374
    6AU     LIG 2602  14.934  36.553   9.786
    6AU     LIG 2603  14.943  36.403  10.247
    6AU     LIG 2604  15.142  36.508  10.667
    6AU       S 2605  14.027  37.169   8.640
    6AU     LIG 2606  14.080  37.157   9.106
    6AU     LIG 2607  13.865  37.097   9.524
    6AU     LIG 2608  13.757  37.183   9.981
    6AU     LIG 2609  13.626  37.456  10.359
    6AU     LIG 2610  13.607  37.667  10.799
    6AU    AUSL 2611  14.553  37.415   8.160
    6AU    AUSL 2612  14.995  37.507   8.092
    6AU     AUL 2613  14.779  37.427   8.442
    6AU       S 2614  14.454  37.809   8.572
    6AU     LIG 2615  14.800  37.686   8.878
    6AU     LIG 2616  15.030  37.752   9.295
    6AU     LIG 2617  15.000  37.846   9.779
    6AU     LIG 2618  14.963  37.936  10.256
    6AU     LIG 2619  15.112  37.909  10.707
    6AU       S 2620  15.161  37.632   8.271
    6AU     LIG 2621  15.585  37.673   8.278
    6AU     LIG 2622  15.846  37.864   8.622
    6AU     LIG 2623  16.065  38.091   8.975
    6AU     LIG 2624  16.266  38.197   9.382
    6AU     LIG 2625  16.629  38.379   9.623
    6AU    AUSL 2626  14.883  37.377   6.759
    6AU    AUSL 2627  14.658  37.696   6.960
    6AU     AUL 2628  14.787  37.753   6.616
    6AU       S 2629  14.830  37.413   6.313
    6AU     LIG 2630  15.221  37.276   6.100
    6AU     LIG 2631  15.345  36.982   5.764
    6AU     LIG 2632  15.442  36.803   5.336
    6AU     LIG 2633  15.818  36.702   5.042
    6AU     LIG 2634  16.132  36.812   4.696
    6AU       S 2635  15.122  37.953   6.869
    6AU     LIG 2636  15.196  38.171   6.467
    6AU     LIG 2637  15.416  38.358   6.052
    6AU     LIG 2638  15.658  38.412   5.613
    6AU     LIG 2639  15.741  38.678   5.203
    6AU     LIG 2640  15.721  39.064   4.930
    6AU    AUSL 2641  14.663  37.041   6.606
    6AU    AUSL 2642  15.030  37.012   6.929
    6AU     AUL 2643  15.084  37.148   6.619
    6AU       S 2644  15.201  36.704   6.708
    6AU     LIG 2645  15.295  36.335   6.398
    6AU     LIG 2646  15.508  35.923   6.298
    6AU     LIG 2647  15.757  35.570   6.087
    6AU     LIG 2648  16.033  35.429   5.726
    6AU     LIG 2649  16.350  35.456   5.373
    6AU       S 2650  14.763  37.238   6.291
    6AU     LIG 2651  14.873  36.889   6.028
    6AU     LIG 2652  14.965  36.685   5.587
    6AU     LIG 2653  15.031  36.487   5.145
    6AU     LIG 2654  14.970  36.364   4.670
    6AU     LIG 2655  15.010  36.530   4.215
    6AU    AUSL 2656  14.460  37.420   6.691
    6AU    AUSL 2657  14.250  37.019   6.734
    6AU     AUL 2658  14.391  37.032   6.446
    6AU       S 2659  13.960  37.050   6.294
    6AU     LIG 2660  14.003  36.848   5.904
    6AU     LIG 2661  13.777  36.577   5.611
    6AU     LIG 2662  13.567  36.601   5.202
    6AU     LIG 2663  13.603  36.665   4.731
    6AU     LIG 2664  13.618  36.679   4.260
    6AU       S 2665  14.504  37.478   6.361
    6AU     LIG 2666  14.514  37.309   5.887
    6AU     LIG 2667  14.896  37.206   5.605
    6AU     LIG 2668  15.123  37.244   5.179
    6AU     LIG 2669  15.178  37.516   4.770
    6AU     LIG 2670  15.248  37.804   4.394
    6AU    AUSL 2671  13.830  37.372   8.256
    6AU    AUSL 2672  14.111  37.728   8.143
    6AU     AUL 2673  13.980  37.659   8.484
    6AU       S 2674  13.825  37.245   8.671
    6AU     LIG 2675  13.643  36.918   8.922
    6AU     LIG 2676  13.437  36.842   9.350
    6AU     LIG 2677  13.220  36.719   9.765
    6AU     LIG 2678  12.913  36.706  10.127
    6AU     LIG 2679  12.592  36.814  10.472
    6AU       S 2680  13.732  37.961   8.214
    6AU     LIG 2681  13.726  38.108   8.637
    6AU     LIG 2682  13.592  38.302   9.058
    6AU     LIG 2683  13.393  38.389   9.479
    6AU     LIG 2684  13.271  38.629   9.869
    6AU     LIG 2685  13.092  38.945  10.174
    6AU    AUSL 2686  14.131  37.088   8.169
    6AU    AUSL 2687  13.715  36.958   8.143
    6AU     AUL 2688  13.608  37.195   8.269
    6AU       S 2689  13.628  36.748   8.409
    6AU     LIG 2690  13.190  36.675   8.245
    6AU     LIG 2691  12.966  36.276   8.324
    6AU     LIG 2692  12.742  35.985   8.617
    6AU     LIG 2693  12.500  35.672   8.878
    6AU     LIG 2694  12.298  35.501   9.264
    6AU       S 2695  14.014  37.033   8.550
    6AU     LIG 2696  14.120  36.717   8.862
    6AU     LIG 2697  13.923  36.643   9.280
    6AU     LIG 2698  13.732  36.619   9.721
    6AU     LIG 2699  13.523  36.457  10.114
    6AU     LIG 2700  13.389  36.401  10.557
    6AU    AUSL 2701  13.825  37.080   6.776
    6AU    AUSL 2702  14.030  36.735   6.957
    6AU     AUL 2703  14.064  36.728   6.626
    6AU       S 2704  13.792  36.988   6.361
    6AU     LIG 2705  13.504  36.875   6.048
    6AU     LIG 2706  13.304  36.786   5.648
    6AU     LIG 2707  13.171  36.947   5.244
    6AU     LIG 2708  12.824  37.103   4.967
    6AU     LIG 2709  12.435  37.045   4.682
    6AU       S 2710  13.646  36.604   6.783
    6AU     LIG 2711  13.374  36.293   6.573
    6AU     LIG 2712  13.149  35.900   6.424
    6AU     LIG 2713  12.953  35.621   6.088
    6AU     LIG 2714  12.778  35.474   5.660
    6AU     LIG 2715  12.713  35.383   5.186
    6AU    AUSL 2716  14.051  37.398   6.601
    6AU    AUSL 2717  13.695  37.474   6.904
    6AU     AUL 2718  13.609  37.306   6.626
    6AU       S 2719  13.724  37.745   6.650
    6AU     LIG 2720  13.322  37.793   6.568
    6AU     LIG 2721  13.151  38.040   6.198
    6AU     LIG 2722  12.808  38.074   5.856
    6AU     LIG 2723  12.485  38.186   5.513
    6AU     LIG 2724  12.064  38.231   5.281
    6AU       S 2725  14.008  37.332   6.358
    6AU     LIG 2726  13.766  37.326   5.935
    6AU     LIG 2727  13.701  37.086   5.517
    6AU     LIG 2728  13.634  37.089   5.039
    6AU     LIG 2729  13.561  37.177   4.571
    6AU     LIG 2730  13.669  37.477   4.201
    6AU    AUSL 2731  15.153  37.711   7.514
    6AU    AUSL 2732  15.051  37.543   7.109
    6AU     AUL 2733  15.409  37.825   7.280
    6AU       S 2734  15.153  37.720   6.923
    6AU     LIG 2735  15.279  37.639   6.496
    6AU     LIG 2736  15.590  37.899   6.242
    6AU     LIG 2737  15.906  38.203   6.035
    6AU     LIG 2738  16.166  38.311   5.651
    6AU     LIG 2739  16.586  38.416   5.476
    6AU       S 2740  15.546  37.570   7.663
    6AU     LIG 2741  15.958  37.713   7.538
    6AU     LIG 2742  16.386  37.882   7.493
    6AU     LIG 2743  16.768  38.109   7.415
    6AU     LIG 2744  17.102  38.379   7.581
    6AU     LIG 2745  17.329  38.701   7.851
    6AU    AUSL 2746  15.312  37.311   7.347
    6AU    AUSL 2747  15.265  36.974   7.699
    6AU     AUL 2748  15.597  37.016   7.565
    6AU       S 2749  15.460  37.388   7.375
    6AU     LIG 2750  15.921  37.276   7.290
    6AU     LIG 2751  16.373  37.432   7.256
    6AU     LIG 2752  16.799  37.620   7.221
    6AU     LIG 2753  17.200  37.691   6.954
    6AU     LIG 2754  17.602  37.965   6.900
    6AU       S 2755  15.488  36.572   7.688
    6AU     LIG 2756  15.899  36.689   7.842
    6AU     LIG 2757  16.355  36.586   7.796
    6AU     LIG 2758  16.724  36.337   7.692
    6AU     LIG 2759  17.183  36.289   7.681
    6AU     LIG 2760  17.549  36.296   8.011
    6AU    AUSL 2761  15.066  37.345   7.716
    6AU    AUSL 2762  14.817  37.747   7.774
    6AU     AUL 2763  15.155  37.771   7.825
    6AU       S 2764  15.145  37.946   8.249
    6AU     LIG 2765  15.478  38.174   8.436
    6AU     LIG 2766  15.796  38.410   8.672
    6AU     LIG 2767  16.138  38.725   8.659
    6AU     LIG 2768  16.388  39.109   8.721
    6AU     LIG 2769  16.249  39.523   8.832
    6AU       S 2770  15.421  37.392   7.821
    6AU     LIG 2771  15.916  37.296   7.854
    6AU     LIG 2772  16.375  37.445   7.777
    6AU     LIG 2773  16.810  37.698   7.742
    6AU     LIG 2774  17.227  37.813   7.964
    6AU     LIG 2775  17.644  37.885   8.187
    6AU    AUSL 2776  13.690  37.791   7.514
    6AU    AUSL 2777  13.770  37.591   7.906
    6AU     AUL 2778  13.460  37.902   7.753
    6AU       S 2779  13.614  37.764   8.163
    6AU     LIG 2780  13.474  37.648   8.554
    6AU     LIG 2781  13.271  37.954   8.849
    6AU     LIG 2782  13.053  38.294   9.091
    6AU     LIG 2783  12.690  38.360   9.393
    6AU     LIG 2784  12.287  38.426   9.645
    6AU       S 2785  13.694  38.178   7.436
    6AU     LIG 2786  13.223  38.110   7.347
    6AU     LIG 2787  12.818  38.392   7.391
    6AU     LIG 2788  12.504  38.776   7.450
    6AU     LIG 2789  12.099  39.052   7.491
    6AU     LIG 2790  11.637  39.205   7.579
    6AU    AUSL 2791  13.635  37.410   7.311
    6AU    AUSL 2792  13.773  37.851   7.108
    6AU     AUL 2793  13.473  37.706   7.157
    6AU       S 2794  13.290  37.250   6.991
    6AU     LIG 2795  12.975  37.648   7.014
    6AU     LIG 2796  12.599  37.916   6.782
    6AU     LIG 2797  12.084  38.036   6.766
    6AU     LIG 2798  11.589  38.092   6.860
    6AU     LIG 2799  11.155  38.341   6.849
    6AU       S 2800  13.572  38.107   6.906
    6AU     LIG 2801  13.550  38.258   6.472
    6AU     LIG 2802  13.327  38.568   6.182
    6AU     LIG 2803  13.195  39.021   6.070
    6AU     LIG 2804  12.948  39.444   6.115
    6AU     LIG 2805  12.517  39.685   6.134
    6AU    AUSL 2806  13.438  37.449   7.701
    6AU    AUSL 2807  13.401  37.079   7.414
    6AU     AUL 2808  13.236  37.412   7.431
    6AU       S 2809  13.202  37.003   7.686
    6AU     LIG 2810  12.865  36.921   7.362
    6AU     LIG 2811  12.453  36.661   7.333
    6AU     LIG 2812  11.965  36.605   7.416
    6AU     LIG 2813  11.492  36.482   7.346
    6AU     LIG 2814  11.048  36.432   7.146
    6AU       S 2815  13.294  37.476   7.930
    6AU     LIG 2816  12.895  37.634   7.788
    6AU     LIG 2817  12.543  37.941   7.942
    6AU     LIG 2818  12.118  37.923   8.194
    6AU     LIG 2819  11.627  37.939   8.267
    6AU     LIG 2820  11.118  37.864   8.313
    6AU    AUSL 2821  15.032  36.647   7.540
    6AU    AUSL 2822  14.886  36.906   7.877
    6AU     AUL 2823  15.190  36.805   7.954
    6AU       S 2824  15.237  36.475   7.515
    6AU     LIG 2825  15.698  36.152   7.539
    6AU     LIG 2826  16.197  36.144   7.540
    6AU     LIG 2827  16.596  35.852   7.488
    6AU     LIG 2828  16.797  35.377   7.462
    6AU     LIG 2829  17.068  34.951   7.445
    6AU       S 2830  15.107  36.358   7.969
    6AU     LIG 2831  15.344  36.049   8.248
    6AU     LIG 2832  15.548  35.776   8.559
    6AU     LIG 2833  15.795  35.503   8.837
    6AU     LIG 2834  16.043  35.406   9.219
    6AU     LIG 2835  16.424  35.578   9.453
    6AU    AUSL 2836  15.010  37.027   7.345
    6AU    AUSL 2837  14.968  36.623   7.122
    6AU     AUL 2838  15.253  36.855   7.185
    6AU       S 2839  15.486  36.574   7.441
    6AU     LIG 2840  15.976  36.595   7.353
    6AU     LIG 2841  16.471  36.523   7.281
    6AU     LIG 2842  16.909  36.318   7.212
    6AU     LIG 2843  17.385  36.283   7.172
    6AU     LIG 2844  17.737  36.171   6.877
    6AU       S 2845  15.175  36.494   6.875
    6AU     LIG 2846  15.124  36.017   6.775
    6AU     LIG 2847  15.253  35.571   6.573
    6AU     LIG 2848  15.433  35.205   6.297
    6AU     LIG 2849  15.784  35.030   6.039
    6AU     LIG 2850  16.216  34.921   6.146
    6AU    AUSL 2851  13.603  36.718   7.571
    6AU    AUSL 2852  13.706  36.947   7.157
    6AU     AUL 2853  13.361  36.786   7.291
    6AU       S 2854  13.524  36.744   6.866
    6AU     LIG 2855  13.089  36.616   6.891
    6AU     LIG 2856  12.846  36.281   6.662
    6AU     LIG 2857  12.636  35.949   6.370
    6AU     LIG 2858  12.440  35.615   6.058
    6AU     LIG 2859  12.264  35.498   5.608
    6AU       S 2860  13.176  36.770   7.733
    6AU     LIG 2861  13.053  36.430   7.446
    6AU     LIG 2862  12.706  36.218   7.212
    6AU     LIG 2863  12.229  36.161   7.307
    6AU     LIG 2864  11.763  36.012   7.380
    6AU     LIG 2865  11.424  35.642   7.376
    6AU    AUSL 2866  13.670  37.104   7.755
    6AU    AUSL 2867  13.924  36.728   7.849
    6AU     AUL 2868  13.593  36.698   7.917
    6AU       S 2869  13.646  36.533   8.348
    6AU     LIG 2870  13.437  36.240   8.057
    6AU     LIG 2871  13.142  35.871   8.053
    6AU     LIG 2872  12.870  35.583   8.323
    6AU     LIG 2873  12.661  35.253   8.610
    6AU     LIG 2874  12.398  35.027   8.939
    6AU       S 2875  13.259  37.013   7.868
    6AU     LIG 2876  12.750  37.115   7.838
    6AU     LIG 2877  12.289  37.019   7.663
    6AU     LIG 2878  11.801  37.051   7.678
    6AU     LIG 2879  11.345  36.894   7.644
    6AU     LIG 2880  11.075  36.496   7.687
    6AU    AUSL 2881  14.400  37.932   7.907
    6AU    AUSL 2882  13.962  37.955   7.802
    6AU     AUL 2883  14.195  38.040   8.182
    6AU       S 2884  13.823  38.158   7.922
    6AU     LIG 2885  13.536  38.407   8.237
    6AU     LIG 2886  13.309  38.472   8.657
    6AU     LIG 2887  13.072  38.816   8.912
    6AU     LIG 2888  12.846  39.266   8.934
    6AU     LIG 2889  12.565  39.676   8.948
    6AU       S 2890  14.441  38.370   7.975
    6AU     LIG 2891  14.611  38.388   8.345
    6AU     LIG 2892  14.657  38.830   8.524
    6AU     LIG 2893  14.685  39.250   8.730
    6AU     LIG 2894  14.658  39.485   9.149
    6AU     LIG 2895  14.613  39.784   9.519
    6AU    AUSL 2896  14.236  38.185   7.586
    6AU    AUSL 2897  14.511  38.110   7.223
    6AU     AUL 2898  14.405  38.438   7.374
    6AU       S 2899  14.253  38.405   7.825
    6AU     LIG 2900  14.357  38.847   8.082
    6AU     LIG 2901  14.423  39.310   8.270
    6AU     LIG 2902  14.272  39.807   8.328
    6AU     LIG 2903  14.297  40.312   8.349
    6AU     LIG 2904  13.982  40.635   8.535
    6AU       S 2905  14.370  38.413   6.911
    6AU     LIG 2906  14.782  38.554   7.031
    6AU     LIG 2907  14.982  38.949   6.876
    6AU     LIG 2908  15.130  39.349   6.666
    6AU     LIG 2909  15.030  39.787   6.520
    6AU     LIG 2910  14.777  40.184   6.432
    6AU    AUSL 2911  14.674  38.110   7.622
    6AU    AUSL 2912  14.687  37.810   8.185
    6AU     AUL 2913  14.790  38.061   7.962
    6AU       S 2914  14.923  37.886   8.399
    6AU     LIG 2915  15.273  37.807   8.728
    6AU     LIG 2916  15.540  38.075   8.989
    6AU     LIG 2917  15.752  38.330   9.324
    6AU     LIG 2918  15.732  38.592   9.724
    6AU     LIG 2919  15.643  38.999   9.960
    6AU       S 2920  14.619  38.457   7.789
    6AU     LIG 2921  14.864  38.748   8.058
    6AU     LIG 2922  14.991  39.175   8.264
    6AU     LIG 2923  15.352  39.532   8.268
    6AU     LIG 2924  15.450  40.007   8.259
    6AU     LIG 2925  15.466  40.485   8.305
    6AU    AUSL 2926  14.301  36.512   7.945
    6AU    AUSL 2927  14.710  36.522   7.782
    6AU     AUL 2928  14.536  36.401   8.171
    6AU       S 2929  14.284  36.055   7.992
    6AU     LIG 2930  14.204  35.851   8.350
    6AU     LIG 2931  14.088  35.410   8.431
    6AU     LIG 2932  14.154  34.942   8.412
    6AU     LIG 2933  14.419  34.576   8.585
    6AU     LIG 2934  14.634  34.290   8.905
    6AU       S 2935  14.864  36.311   7.835
    6AU     LIG 2936  14.826  35.901   8.055
    6AU     LIG 2937  15.123  35.583   8.299
    6AU     LIG 2938  15.468  35.264   8.444
    6AU     LIG 2939  15.737  34.998   8.728
    6AU     LIG 2940  15.963  34.721   9.025
    6AU    AUSL 2941  13.986  36.363   7.662
    6AU    AUSL 2942  14.090  36.686   8.258
    6AU     AUL 2943  13.957  36.399   8.026
    6AU       S 2944  14.093  35.991   7.838
    6AU     LIG 2945  13.868  35.644   8.017
    6AU     LIG 2946  13.798  35.170   8.066
    6AU     LIG 2947  13.520  34.764   8.066
    6AU     LIG 2948  13.462  34.283   8.057
    6AU     LIG 2949  13.759  33.916   8.042
    6AU       S 2950  13.889  36.569   8.459
    6AU     LIG 2951  13.729  36.069   8.446
    6AU     LIG 2952  13.280  35.886   8.547
    6AU     LIG 2953  13.013  35.590   8.820
    6AU     LIG 2954  12.789  35.302   9.118
    6AU     LIG 2955  12.715  35.080   9.518
    6AU    AUSL 2956  14.417  36.282   7.602
    6AU    AUSL 2957  14.188  36.524   7.320
    6AU     AUL 2958  14.071  36.172   7.409
    6AU       S 2959  14.450  36.079   7.173
    6AU     LIG 2960  14.116  35.725   7.130
    6AU     LIG 2961  13.943  35.276   7.059
    6AU     LIG 2962  13.684  34.893   6.916
    6AU     LIG 2963  13.463  34.471   6.820
    6AU     LIG 2964  13.590  34.085   6.596
    6AU       S 2965  14.426  36.078   7.737
    6AU     LIG 2966  14.432  35.617   7.767
    6AU     LIG 2967  14.354  35.214   8.010
    6AU     LIG 2968  14.544  34.767   8.101
    6AU     LIG 2969  14.646  34.309   8.209
    6AU     LIG 2970  14.752  33.978   8.513
    6AU    AUSL 2971  14.331  37.942   6.861
    6AU    AUSL 2972  14.869  37.904   7.271
    6AU     AUL 2973  14.673  38.068   6.933
    6AU       S 2974  14.295  38.203   6.670
    6AU     LIG 2975  14.708  38.413   6.540
    6AU     LIG 2976  14.836  38.849   6.392
    6AU     LIG 2977  14.805  39.252   6.140
    6AU     LIG 2978  14.782  39.705   6.020
    6AU     LIG 2979  14.623  40.141   5.923
    6AU       S 2980  15.062  38.092   7.164
    6AU     LIG 2981  15.484  38.260   6.937
    6AU     LIG 2982  15.688  38.353   6.513
    6AU     LIG 2983  15.919  38.705   6.297
    6AU     LIG 2984  16.255  39.048   6.290
    6AU     LIG 2985  16.523  39.294   5.976
    6AU    AUSL 2986  14.144  37.909   7.289
    6AU    AUSL 2987  14.101  37.614   6.956
    6AU     AUL 2988  14.016  38.044   7.023
    6AU       S 2989  14.194  38.448   6.951
    6AU     LIG 2990  14.458  38.863   6.757
    6AU     LIG 2991  14.617  39.291   6.622
    6AU     LIG 2992  14.510  39.749   6.512
    6AU     LIG 2993  14.245  40.167   6.514
    6AU     LIG 2994  14.031  40.603   6.505
    6AU       S 2995  13.892  37.850   6.627
    6AU     LIG 2996  13.732  37.883   6.172
    6AU     LIG 2997  13.561  38.221   5.879
    6AU     LIG 2998  13.544  38.597   5.558
    6AU     LIG 2999  13.510  38.948   5.218
    6AU     LIG 3000  13.279  39.095   4.829
    6AU    AUSL 3001  14.374  36.487   6.929
    6AU    AUSL 3002  13.778  36.520   7.239
    6AU     AUL 3003  14.032  36.367   6.982
    6AU       S 3004  13.569  36.458   7.028
    6AU     LIG 3005  13.202  36.137   7.032
    6AU     LIG 3006  12.877  35.810   6.854
    6AU     LIG 3007  12.710  35.467   6.533
    6AU     LIG 3008  12.432  35.096   6.354
    6AU     LIG 3009  12.263  34.630   6.249
    6AU       S 3010  14.428  36.107   7.005
    6AU     LIG 3011  14.477  35.755   6.744
    6AU     LIG 3012  14.216  35.388   6.640
    6AU     LIG 3013  14.146  34.922   6.646
    6AU     LIG 3014  14.291  34.500   6.436
    6AU     LIG 3015  14.288  34.236   6.015
    6AU    AUSL 3016  14.616  36.503   7.307
    6AU    AUSL 3017  14.624  36.822   6.956
    6AU     AUL 3018  14.714  36.457   6.925
    6AU       S 3019  14.706  36.132   7.264
    6AU     LIG 3020  14.609  35.617   7.237
    6AU     LIG 3021  14.465  35.169   7.042
    6AU     LIG 3022  14.515  34.683   6.911
    6AU     LIG 3023  14.534  34.195   6.863
    6AU     LIG 3024  14.866  33.865   6.981
    6AU       S 3025  14.952  36.668   6.600
    6AU     LIG 3026  14.786  36.259   6.472
    6AU     LIG 3027  14.984  35.887   6.269
    6AU     LIG 3028  15.243  35.583   5.996
    6AU     LIG 3029  15.526  35.351   5.671
    6AU     LIG 3030  15.800  35.339   5.259
    7AU     AUC 3031  33.063  20.897   7.505
    7AU     AUC 3032  33.337  20.912   7.324
    7AU     AUC 3033  33.329  20.886   7.675
    7AU     AUC 3034  32.779  20.890   7.339
    7AU     AUC 3035  32.796  20.925   7.691
    7AU     AUC 3036  32.894  21.176   7.503
    7AU     AUC 3037  33.246  21.181   7.490
    7AU     AUC 3038  32.878  20.625   7.514
    7AU     AUC 3039  33.229  20.606   7.502
    7AU     AUC 3040  33.066  20.719   7.782
    7AU     AUC 3041  33.062  21.085   7.769
    7AU     AUC 3042  33.057  20.731   7.229
    7AU     AUC 3043  33.073  21.054   7.224
    7AU     AUC 3044  33.647  20.922   7.155
    7AU     AUC 3045  33.666  20.873   7.514
    7AU     AUC 3046  33.620  20.859   7.865
    7AU     AUC 3047  32.479  20.874   7.170
    7AU     AUC 3048  32.458  20.918   7.535
    7AU     AUC 3049  32.514  20.953   7.880
    7AU     AUC 3050  32.731  21.477   7.487
    7AU     AUC 3051  33.095  21.518   7.461
    7AU     AUC 3052  33.427  21.467   7.482
    7AU     AUC 3053  32.685  20.347   7.521
    7AU     AUC 3054  33.037  20.294   7.496
    7AU     AUC 3055  33.397  20.306   7.484
    7AU     AUC 3056  33.052  20.539   8.074
    7AU     AUC 3057  33.070  20.906   8.102
    7AU     AUC 3058  33.093  21.261   8.061
    7AU     AUC 3059  33.085  20.557   6.951
    7AU     AUC 3060  33.066  20.893   6.891
    7AU     AUC 3061  33.049  21.219   6.921
    7AU     AUC 3062  33.337  20.674   7.996
    7AU     AUC 3063  33.380  21.057   7.988
    7AU     AUC 3064  33.391  20.764   6.995
    7AU     AUC 3065  33.375  21.085   7.026
    7AU     AUC 3066  32.766  20.765   8.024
    7AU     AUC 3067  32.789  21.140   8.000
    7AU     AUC 3068  32.759  20.700   7.048
    7AU     AUC 3069  32.737  21.026   6.999
    7AU     AUC 3070  33.589  21.190   7.340
    7AU     AUC 3071  33.541  21.160   7.689
    7AU     AUC 3072  32.582  21.187   7.318
    7AU     AUC 3073  32.593  21.235   7.684
    7AU     AUC 3074  33.540  20.598   7.329
    7AU     AUC 3075  33.509  20.545   7.687
    7AU     AUC 3076  32.547  20.586   7.373
    7AU     AUC 3077  32.599  20.640   7.726
    7AU     AUC 3078  32.911  21.419   7.771
    7AU     AUC 3079  33.262  21.381   7.775
    7AU     AUC 3080  32.873  20.420   7.811
    7AU     AUC 3081  33.194  20.368   7.778
    7AU     AUC 3082  32.883  21.335   7.187
    7AU     AUC 3083  33.255  21.382   7.199
    7AU     AUC 3084  32.872  20.420   7.214
    7AU     AUC 3085  33.266  20.445   7.206
    7AU    AUSL 3086  33.604  20.794   8.232
    7AU    AUSL 3087  33.331  20.381   8.157
    7AU     AUL 3088  33.626  20.392   8.371
    7AU       S 3089  33.713  20.029   8.110
    7AU     LIG 3090  33.594  19.877   8.493
    7AU     LIG 3091  33.693  19.494   8.712
    7AU     LIG 3092  33.908  19.177   8.982
    7AU     LIG 3093  34.091  19.098   9.404
    7AU     LIG 3094  34.145  19.084   9.875
    7AU       S 3095  33.831  20.793   8.347
    7AU     LIG 3096  33.700  20.777   8.784
    7AU     LIG 3097  33.853  20.636   9.205
    7AU     LIG 3098  34.241  20.612   9.495
    7AU     LIG 3099  34.545  20.691   9.856
    7AU     LIG 3100  34.780  20.880  10.220
    7AU    AUSL 3101  33.205  20.712   8.403
    7AU    AUSL 3102  32.950  21.088   8.430
    7AU     AUL 3103  33.154  21.022   8.743
    7AU       S 3104  33.284  20.636   8.548
    7AU     LIG 3105  33.255  20.573   8.982
    7AU     LIG 3106  33.432  20.322   9.346
    7AU     LIG 3107  33.487  20.032   9.738
    7AU     LIG 3108  33.527  19.914  10.210
    7AU     LIG 3109  33.587  20.013  10.678
    7AU       S 3110  32.755  20.819   8.652
    7AU     LIG 3111  32.751  20.790   9.131
    7AU     LIG 3112  32.448  20.745   9.504
    7AU     LIG 3113  32.292  20.770   9.956
    7AU     LIG 3114  32.280  21.086  10.316
    7AU     LIG 3115  32.206  21.499  10.557
    7AU    AUSL 3116  33.270  21.084   8.163
    7AU    AUSL 3117  33.710  21.186   8.094
    7AU     AUL 3118  33.502  21.098   8.445
    7AU       S 3119  33.164  21.473   8.575
    7AU     LIG 3120  33.502  21.381   8.881
    7AU     LIG 3121  33.712  21.540   9.291
    7AU     LIG 3122  33.661  21.656   9.778
    7AU     LIG 3123  33.749  21.735  10.256
    7AU     LIG 3124  33.843  21.655  10.728
    7AU       S 3125  33.871  21.321   8.265
    7AU     LIG 3126  34.281  21.316   8.321
    7AU     LIG 3127  34.522  21.511   8.672
    7AU     LIG 3128  34.744  21.796   8.966
    7AU     LIG 3129  34.961  21.948   9.352
    7AU     LIG 3130  35.330  22.057   9.622
    7AU    AUSL 3131  33.589  21.043   6.759
    7AU    AUSL 3132  33.363  21.358   6.960
    7AU     AUL 3133  33.499  21.419   6.615
    7AU       S 3134  33.538  21.078   6.315
    7AU     LIG 3135  33.931  20.961   6.121
    7AU     LIG 3136  34.094  20.637   5.864
    7AU     LIG 3137  34.160  20.563   5.426
    7AU     LIG 3138  34.371  20.706   5.042
    7AU     LIG 3139  34.784  20.795   4.829
    7AU       S 3140  33.834  21.618   6.877
    7AU     LIG 3141  33.883  21.815   6.466
    7AU     LIG 3142  34.075  21.971   6.044
    7AU     LIG 3143  34.326  22.072   5.648
    7AU     LIG 3144  34.580  22.176   5.263
    7AU     LIG 3145  34.781  22.457   4.950
    7AU    AUSL 3146  33.366  20.708   6.605
    7AU    AUSL 3147  33.741  20.679   6.927
    7AU     AUL 3148  33.790  20.812   6.619
    7AU       S 3149  33.898  20.365   6.699
    7AU     LIG 3150  33.972  20.002   6.371
    7AU     LIG 3151  34.149  19.571   6.244
    7AU     LIG 3152  34.351  19.246   5.955
    7AU     LIG 3153  34.638  19.164   5.599
    7AU     LIG 3154  34.937  19.208   5.232
    7AU       S 3155  33.467  20.897   6.292
    7AU     LIG 3156  33.612  20.547   6.064
    7AU     LIG 3157  33.731  20.338   5.637
    7AU     LIG 3158  33.872  20.193   5.191
    7AU     LIG 3159  33.874  20.002   4.742
    7AU     LIG 3160  33.937  20.031   4.273
    7AU    AUSL 3161  33.167  21.089   6.686
    7AU    AUSL 3162  32.956  20.688   6.740
    7AU     AUL 3163  33.087  20.706   6.443
    7AU       S 3164  32.646  20.715   6.307
    7AU     LIG 3165  32.787  20.479   5.977
    7AU     LIG 3166  32.561  20.218   5.664
    7AU     LIG 3167  32.385  20.204   5.242
    7AU     LIG 3168  32.235  20.197   4.801
    7AU     LIG 3169  32.146  20.178   4.347
    7AU       S 3170  33.217  21.145   6.349
    7AU     LIG 3171  33.315  21.013   5.853
    7AU     LIG 3172  33.697  20.858   5.591
    7AU     LIG 3173  33.871  20.876   5.133
    7AU     LIG 3174  33.935  21.085   4.694
    7AU     LIG 3175  33.956  21.364   4.289
    7AU    AUSL 3176  32.549  21.029   8.270
    7AU    AUSL 3177  32.818  21.388   8.159
    7AU     AUL 3178  32.697  21.312   8.500
    7AU       S 3179  32.553  20.893   8.679
    7AU     LIG 3180  32.334  20.572   8.885
    7AU     LIG 3181  32.081  20.477   9.253
    7AU     LIG 3182  31.906  20.611   9.657
    7AU     LIG 3183  31.760  20.538  10.084
    7AU     LIG 3184  31.418  20.518  10.398
    7AU       S 3185  32.443  21.611   8.238
    7AU     LIG 3186  32.451  21.764   8.652
    7AU     LIG 3187  32.323  21.971   9.063
    7AU     LIG 3188  32.117  22.277   9.350
    7AU     LIG 3189  32.136  22.613   9.680
    7AU     LIG 3190  32.096  22.877  10.066
    7AU    AUSL 3191  32.849  20.745   8.176
    7AU    AUSL 3192  32.432  20.619   8.148
    7AU     AUL 3193  32.327  20.854   8.281
    7AU       S 3194  32.341  20.403   8.407
    7AU     LIG 3195  31.898  20.342   8.253
    7AU     LIG 3196  31.651  19.958   8.368
    7AU     LIG 3197  31.394  19.673   8.653
    7AU     LIG 3198  31.141  19.358   8.915
    7AU     LIG 3199  30.918  19.212   9.297
    7AU       S 3200  32.739  20.684   8.555
    7AU     LIG 3201  32.802  20.357   8.880
    7AU     LIG 3202  32.568  20.289   9.284
    7AU     LIG 3203  32.308  20.279   9.697
    7AU     LIG 3204  32.114  20.142  10.119
    7AU     LIG 3205  32.111  19.924  10.562
    7AU    AUSL 3206  32.529  20.748   6.783
    7AU    AUSL 3207  32.738  20.397   6.955
    7AU     AUL 3208  32.775  20.396   6.627
    7AU       S 3209  32.467  20.633   6.377
    7AU     LIG 3210  32.269  20.521   5.982
    7AU     LIG 3211  32.071  20.447   5.574
    7AU     LIG 3212  31.923  20.456   5.131
    7AU     LIG 3213  31.605  20.496   4.782
    7AU     LIG 3214  31.342  20.548   4.387
    7AU       S 3215  32.365  20.264   6.791
    7AU     LIG 3216  32.309  19.835   6.662
    7AU     LIG 3217  31.959  19.550   6.543
    7AU     LIG 3218  31.698  19.347   6.193
    7AU     LIG 3219  31.570  19.158   5.771
    7AU     LIG 3220  31.599  19.049   5.298
    7AU    AUSL 3221  32.756  21.064   6.603
    7AU    AUSL 3222  32.404  21.146   6.910
    7AU     AUL 3223  32.320  20.984   6.626
    7AU       S 3224  32.439  21.421   6.652
    7AU     LIG 3225  32.051  21.460   6.529
    7AU     LIG 3226  31.864  21.703   6.174
    7AU     LIG 3227  31.724  21.932   5.777
    7AU     LIG 3228  31.411  21.993   5.408
    7AU     LIG 3229  31.004  22.050   5.151
    7AU       S 3230  32.706  20.989   6.347
    7AU     LIG 3231  32.555  20.949   5.884
    7AU     LIG 3232  32.507  20.700   5.480
    7AU     LIG 3233  32.385  20.671   5.013
    7AU     LIG 3234  32.326  20.800   4.552
    7AU     LIG 3235  32.289  21.070   4.144
    7AU    AUSL 3236  33.860  21.384   7.511
    7AU    AUSL 3237  33.756  21.210   7.111
    7AU     AUL 3238  34.121  21.489   7.278
    7AU       S 3239  33.853  21.386   6.931
    7AU     LIG 3240  33.993  21.296   6.517
    7AU     LIG 3241  34.302  21.559   6.274
    7AU     LIG 3242  34.592  21.855   6.040
    7AU     LIG 3243  34.854  21.992   5.667
    7AU     LIG 3244  35.083  22.280   5.364
    7AU       S 3245  34.248  21.246   7.666
    7AU     LIG 3246  34.682  21.375   7.553
    7AU     LIG 3247  35.152  21.473   7.474
    7AU     LIG 3248  35.607  21.637   7.474
    7AU     LIG 3249  35.846  22.031   7.350
    7AU     LIG 3250  35.965  22.485   7.440
    7AU    AUSL 3251  34.021  20.983   7.351
    7AU    AUSL 3252  33.975  20.650   7.700
    7AU     AUL 3253  34.321  20.714   7.602
    7AU       S 3254  34.158  21.047   7.364
    7AU     LIG 3255  34.640  20.944   7.292
    7AU     LIG 3256  35.142  20.991   7.286
    7AU     LIG 3257  35.554  21.226   7.162
    7AU     LIG 3258  35.994  21.318   6.962
    7AU     LIG 3259  36.420  21.347   6.771
    7AU       S 3260  34.215  20.252   7.683
    7AU     LIG 3261  34.678  20.150   7.709
    7AU     LIG 3262  35.134  19.987   7.690
    7AU     LIG 3263  35.516  19.755   7.793
    7AU     LIG 3264  35.936  19.867   7.961
    7AU     LIG 3265  36.240  20.062   8.230
    7AU    AUSL 3266  33.773  21.020   7.718
    7AU    AUSL 3267  33.526  21.418   7.775
    7AU     AUL 3268  33.856  21.457   7.818
    7AU       S 3269  33.853  21.632   8.241
    7AU     LIG 3270  34.213  21.839   8.420
    7AU     LIG 3271  34.435  22.132   8.713
    7AU     LIG 3272  34.603  22.576   8.800
    7AU     LIG 3273  34.987  22.835   8.737
    7AU     LIG 3274  35.208  23.246   8.826
    7AU       S 3275  34.114  21.076   7.828
    7AU     LIG 3276  34.586  21.023   7.944
    7AU     LIG 3277  35.042  21.071   7.791
    7AU     LIG 3278  35.511  21.156   7.674
    7AU     LIG 3279  35.918  21.330   7.814
    7AU     LIG 3280  36.344  21.418   8.056
    7AU    AUSL 3281  32.409  21.450   7.523
    7AU    AUSL 3282  32.480  21.244   7.917
    7AU     AUL 3283  32.174  21.561   7.764
    7AU       S 3284  32.320  21.414   8.175
    7AU     LIG 3285  32.197  21.298   8.578
    7AU     LIG 3286  32.009  21.598   8.882
    7AU     LIG 3287  31.791  21.919   9.143
    7AU     LIG 3288  31.444  21.970   9.467
    7AU     LIG 3289  31.036  21.990   9.721
    7AU       S 3290  32.411  21.844   7.452
    7AU     LIG 3291  31.937  21.807   7.374
    7AU     LIG 3292  31.506  22.087   7.446
    7AU     LIG 3293  31.133  22.443   7.535
    7AU     LIG 3294  30.723  22.699   7.689
    7AU     LIG 3295  30.417  23.018   7.896
    7AU    AUSL 3296  32.350  21.072   7.316
    7AU    AUSL 3297  32.484  21.522   7.117
    7AU     AUL 3298  32.188  21.378   7.171
    7AU       S 3299  32.014  20.896   6.988
    7AU     LIG 3300  31.754  21.285   6.943
    7AU     LIG 3301  31.325  21.511   6.916
    7AU     LIG 3302  30.838  21.562   6.849
    7AU     LIG 3303  30.351  21.564   6.774
    7AU     LIG 3304  29.904  21.733   6.723
    7AU       S 3305  32.285  21.777   6.911
    7AU     LIG 3306  32.211  21.956   6.477
    7AU     LIG 3307  31.937  22.226   6.175
    7AU     LIG 3308  31.618  22.591   6.092
    7AU     LIG 3309  31.302  22.970   6.139
    7AU     LIG 3310  30.944  23.304   6.067
    7AU    AUSL 3311  32.149  21.111   7.704
    7AU    AUSL 3312  32.113  20.744   7.418
    7AU     AUL 3313  31.952  21.070   7.426
    7AU       S 3314  31.904  20.660   7.683
    7AU     LIG 3315  31.526  20.533   7.389
    7AU     LIG 3316  31.044  20.388   7.394
    7AU     LIG 3317  30.553  20.281   7.414
    7AU     LIG 3318  30.104  20.112   7.365
    7AU     LIG 3319  29.649  20.038   7.238
    7AU       S 3320  32.005  21.131   7.929
    7AU     LIG 3321  31.615  21.301   7.756
    7AU     LIG 3322  31.116  21.291   7.812
    7AU     LIG 3323  30.600  21.253   7.842
    7AU     LIG 3324  30.166  21.494   7.933
    7AU     LIG 3325  29.761  21.795   7.907
    7AU    AUSL 3326  33.747  20.319   7.539
    7AU    AUSL 3327  33.598  20.573   7.876
    7AU     AUL 3328  33.904  20.472   7.950
    7AU       S 3329  33.943  20.163   7.518
    7AU     LIG 3330  34.313  19.810   7.437
    7AU     LIG 3331  34.746  19.660   7.545
    7AU     LIG 3332  35.172  19.460   7.541
    7AU     LIG 3333  35.634  19.305   7.558
    7AU     LIG 3334  35.849  18.972   7.833
    7AU       S 3335  33.828  20.024   7.970
    7AU     LIG 3336  34.047  19.713   8.293
    7AU     LIG 3337  34.212  19.481   8.671
    7AU     LIG 3338  34.424  19.246   9.022
    7AU     LIG 3339  34.772  19.055   9.270
    7AU     LIG 3340  35.191  19.067   9.493
    7AU    AUSL 3341  33.721  20.698   7.344
    7AU    AUSL 3342  33.681  20.292   7.122
    7AU     AUL 3343  33.963  20.524   7.176
    7AU       S 3344  34.204  20.279   7.460
    7AU     LIG 3345  34.583  20.247   7.222
    7AU     LIG 3346  34.975  19.976   7.204
    7AU     LIG 3347  35.418  19.798   7.258
    7AU     LIG 3348  35.858  19.702   7.129
    7AU     LIG 3349  36.303  19.646   7.039
    7AU       S 3350  33.888  20.159   6.865
    7AU     LIG 3351  33.837  19.677   6.750
    7AU     LIG 3352  33.922  19.216   6.544
    7AU     LIG 3353  34.155  18.877   6.273
    7AU     LIG 3354  34.607  18.801   6.147
    7AU     LIG 3355  34.900  18.425   6.069
    7AU    AUSL 3356  32.311  20.380   7.571
    7AU    AUSL 3357  32.423  20.612   7.166
    7AU     AUL 3358  32.066  20.464   7.281
    7AU       S 3359  32.239  20.393   6.863
    7AU     LIG 3360  31.858  20.087   6.828
    7AU     LIG 3361  31.529  19.834   6.576
    7AU     LIG 3362  31.245  19.560   6.309
    7AU     LIG 3363  31.105  19.317   5.938
    7AU     LIG 3364  30.843  19.335   5.541
    7AU       S 3365  31.888  20.410   7.719
    7AU     LIG 3366  31.776  20.077   7.394
    7AU     LIG 3367  31.349  19.970   7.233
    7AU     LIG 3368  30.888  19.882   7.392
    7AU     LIG 3369  30.427  19.758   7.531
    7AU     LIG 3370  29.928  19.638   7.510
    7AU    AUSL 3371  32.378  20.765   7.761
    7AU    AUSL 3372  32.635  20.391   7.848
    7AU     AUL 3373  32.301  20.365   7.919
    7AU       S 3374  32.357  20.193   8.346
    7AU     LIG 3375  32.141  19.907   8.080
    7AU     LIG 3376  31.841  19.548   8.120
    7AU     LIG 3377  31.584  19.266   8.402
    7AU     LIG 3378  31.368  18.954   8.679
    7AU     LIG 3379  30.950  18.810   8.808
    7AU       S 3380  31.956  20.669   7.863
    7AU     LIG 3381  31.453  20.815   7.813
    7AU     LIG 3382  30.969  20.818   7.681
    7AU     LIG 3383  30.495  20.733   7.670
    7AU     LIG 3384  30.087  20.487   7.771
    7AU     LIG 3385  29.644  20.301   7.812
    7AU    AUSL 3386  33.104  21.580   7.910
    7AU    AUSL 3387  32.660  21.617   7.826
    7AU     AUL 3388  32.908  21.702   8.190
    7AU       S 3389  32.530  21.822   7.942
    7AU     LIG 3390  32.230  22.050   8.247
    7AU     LIG 3391  32.017  22.092   8.669
    7AU     LIG 3392  31.808  22.409   8.948
    7AU     LIG 3393  31.550  22.812   8.970
    7AU     LIG 3394  31.193  23.124   8.900
    7AU       S 3395  33.137  22.042   7.976
    7AU     LIG 3396  33.318  22.005   8.363
    7AU     LIG 3397  33.461  22.424   8.532
    7AU     LIG 3398  33.478  22.880   8.674
    7AU     LIG 3399  33.293  23.212   8.962
    7AU     LIG 3400  33.184  23.418   9.378
    7AU    AUSL 3401  32.931  21.833   7.599
    7AU    AUSL 3402  33.213  21.797   7.231
    7AU     AUL 3403  32.908  22.057   7.355
    7AU       S 3404  32.983  22.049   7.818
    7AU     LIG 3405  33.107  22.524   7.898
    7AU     LIG 3406  33.243  22.838   8.219
    7AU     LIG 3407  33.111  23.239   8.468
    7AU     LIG 3408  32.822  23.631   8.586
    7AU     LIG 3409  32.672  24.055   8.786
    7AU       S 3410  33.147  22.110   6.964
    7AU     LIG 3411  33.557  22.230   7.002
    7AU     LIG 3412  33.706  22.658   6.858
    7AU     LIG 3413  33.881  23.108   6.871
    7AU     LIG 3414  34.019  23.542   6.739
    7AU     LIG 3415  33.966  24.021   6.765
    7AU    AUSL 3416  33.371  21.777   7.627
    7AU    AUSL 3417  33.398  21.482   8.188
    7AU     AUL 3418  33.485  21.739   7.962
    7AU       S 3419  33.628  21.565   8.395
    7AU     LIG 3420  33.970  21.509   8.728
    7AU     LIG 3421  34.216  21.763   9.016
    7AU     LIG 3422  34.446  22.041   9.316
    7AU     LIG 3423  34.504  22.251   9.731
    7AU     LIG 3424  34.483  22.641   9.997
    7AU       S 3425  33.324  22.088   7.675
    7AU     LIG 3426  33.568  22.316   8.025
    7AU     LIG 3427  33.761  22.728   8.219
    7AU     LIG 3428  33.969  23.167   8.180
    7AU     LIG 3429  33.951  23.636   8.113
    7AU     LIG 3430  34.242  23.998   8.223
    7AU    AUSL 3431  33.017  20.180   7.941
    7AU    AUSL 3432  33.428  20.187   7.781
    7AU     AUL 3433  33.251  20.067   8.168
    7AU       S 3434  32.999  19.720   7.993
    7AU     LIG 3435  32.831  19.556   8.352
    7AU     LIG 3436  32.837  19.092   8.421
    7AU     LIG 3437  32.930  18.626   8.417
    7AU     LIG 3438  33.101  18.237   8.635
    7AU     LIG 3439  33.233  18.043   9.056
    7AU       S 3440  33.583  19.971   7.834
    7AU     LIG 3441  33.586  19.544   8.085
    7AU     LIG 3442  33.898  19.212   8.334
    7AU     LIG 3443  34.218  18.960   8.624
    7AU     LIG 3444  34.570  18.762   8.884
    7AU     LIG 3445  34.911  18.412   8.808
    7AU    AUSL 3446  32.703  20.027   7.661
    7AU    AUSL 3447  32.801  20.343   8.257
    7AU     AUL 3448  32.669  20.062   8.022
    7AU       S 3449  32.814  19.654   7.840
    7AU     LIG 3450  32.643  19.264   7.964
    7AU     LIG 3451  32.571  18.819   8.068
    7AU     LIG 3452  32.585  18.357   8.114
    7AU     LIG 3453  32.363  17.936   8.144
    7AU     LIG 3454  32.090  17.548   8.207
    7AU       S 3455  32.593  20.226   8.460
    7AU     LIG 3456  32.370  19.758   8.544
    7AU     LIG 3457  31.929  19.582   8.635
    7AU     LIG 3458  31.655  19.326   8.938
    7AU     LIG 3459  31.434  19.327   9.368
    7AU     LIG 3460  31.393  19.177   9.833
    7AU    AUSL 3461  33.134  19.946   7.601
    7AU    AUSL 3462  32.903  20.187   7.318
    7AU     AUL 3463  32.785  19.840   7.416
    7AU       S 3464  33.146  19.751   7.156
    7AU     LIG 3465  32.759  19.476   7.081
    7AU     LIG 3466  32.732  19.023   7.015
    7AU     LIG 3467  32.738  18.560   6.906
    7AU     LIG 3468  32.737  18.084   6.821
    7AU     LIG 3469  32.482  17.677   6.763
    7AU       S 3470  33.143  19.736   7.742
    7AU     LIG 3471  33.143  19.259   7.799
    7AU     LIG 3472  33.073  18.797   7.939
    7AU     LIG 3473  33.097  18.320   8.031
    7AU     LIG 3474  33.192  17.907   8.246
    7AU     LIG 3475  33.382  17.478   8.296
    7AU    AUSL 3476  33.044  21.615   6.869
    7AU    AUSL 3477  33.564  21.569   7.274
    7AU     AUL 3478  33.387  21.728   6.936
    7AU       S 3479  33.017  21.858   6.671
    7AU     LIG 3480  33.417  22.066   6.536
    7AU     LIG 3481  33.560  22.488   6.360
    7AU     LIG 3482  33.512  22.787   5.966
    7AU     LIG 3483  33.343  23.069   5.602
    7AU     LIG 3484  33.374  23.486   5.370
    7AU       S 3485  33.773  21.763   7.171
    7AU     LIG 3486  34.147  21.986   6.894
    7AU     LIG 3487  34.360  22.087   6.461
    7AU     LIG 3488  34.545  22.422   6.137
    7AU     LIG 3489  34.830  22.812   6.010
    7AU     LIG 3490  35.174  23.133   5.899
    7AU    AUSL 3491  32.862  21.568   7.288
    7AU    AUSL 3492  32.810  21.286   6.952
    7AU     AUL 3493  32.732  21.727   7.035
    7AU       S 3494  32.964  22.088   6.882
    7AU     LIG 3495  33.196  22.537   6.731
    7AU     LIG 3496  33.305  23.021   6.717
    7AU     LIG 3497  33.112  23.499   6.736
    7AU     LIG 3498  32.839  23.937   6.787
    7AU     LIG 3499  32.484  24.305   6.804
    7AU       S 3500  32.610  21.521   6.641
    7AU     LIG 3501  32.466  21.611   6.192
    7AU     LIG 3502  32.250  21.911   5.894
    7AU     LIG 3503  32.117  22.110   5.474
    7AU     LIG 3504  32.094  22.428   5.113
    7AU     LIG 3505  32.069  22.839   4.892
    7AU    AUSL 3506  33.089  20.158   6.924
    7AU    AUSL 3507  32.493  20.183   7.244
    7AU     AUL 3508  32.755  20.026   6.983
    7AU       S 3509  32.310  20.138   7.059
    7AU     LIG 3510  32.114  19.767   7.141
    7AU     LIG 3511  31.703  19.601   7.002
    7AU     LIG 3512  31.502  19.308   6.676
    7AU     LIG 3513  31.322  18.999   6.335
    7AU     LIG 3514  31.166  18.536   6.221
    7AU       S 3515  33.151  19.753   6.941
    7AU     LIG 3516  33.136  19.323   6.757
    7AU     LIG 3517  33.064  18.868   6.637
    7AU     LIG 3518  33.083  18.406   6.529
    7AU     LIG 3519  33.120  18.010   6.288
    7AU     LIG 3520  32.975  17.768   5.892
    7AU    AUSL 3521  33.331  20.166   7.305
    7AU    AUSL 3522  33.336  20.493   6.959
    7AU     AUL 3523  33.430  20.120   6.938
    7AU       S 3524  33.384  19.770   7.244
    7AU     LIG 3525  33.215  19.273   7.267
    7AU     LIG 3526  33.179  18.786   7.141
    7AU     LIG 3527  33.176  18.316   7.018
    7AU     LIG 3528  33.214  17.902   6.795
    7AU     LIG 3529  33.231  17.467   6.611
    7AU       S 3530  33.649  20.333   6.601
    7AU     LIG 3531  33.469  19.927   6.483
    7AU     LIG 3532  33.630  19.544   6.275
    7AU     LIG 3533  33.835  19.201   6.012
    7AU     LIG 3534  34.013  18.989   5.624
    7AU     LIG 3535  34.130  18.971   5.160
    8AU     AUC 3536  26.225  40.735   7.506
    8AU     AUC 3537  26.500  40.748   7.327
    8AU     AUC 3538  26.490  40.720   7.678
    8AU     AUC 3539  25.941  40.728   7.338
    8AU     AUC 3540  25.959  40.768   7.689
    8AU     AUC 3541  26.060  41.016   7.501
    8AU     AUC 3542  26.413  41.016   7.492
    8AU     AUC 3543  26.039  40.465   7.515
    8AU     AUC 3544  26.388  40.442   7.506
    8AU     AUC 3545  26.226  40.558   7.783
    8AU     AUC 3546  26.226  40.925   7.768
    8AU     AUC 3547  26.221  40.567   7.230
    8AU     AUC 3548  26.241  40.888   7.227
    8AU     AUC 3549  26.812  40.753   7.160
    8AU     AUC 3550  26.827  40.703   7.519
    8AU     AUC 3551  26.779  40.689   7.871
    8AU     AUC 3552  25.644  40.714   7.167
    8AU     AUC 3553  25.621  40.761   7.532
    8AU     AUC 3554  25.676  40.800   7.875
    8AU     AUC 3555  25.900  41.319   7.482
    8AU     AUC 3556  26.266  41.355   7.461
    8AU     AUC 3557  26.599  41.297   7.484
    8AU     AUC 3558  25.844  40.189   7.522
    8AU     AUC 3559  26.195  40.132   7.501
    8AU     AUC 3560  26.553  40.139   7.490
    8AU     AUC 3561  26.206  40.379   8.076
    8AU     AUC 3562  26.227  40.745   8.103
    8AU     AUC 3563  26.257  41.103   8.058
    8AU     AUC 3564  26.249  40.393   6.952
    8AU     AUC 3565  26.233  40.727   6.892
    8AU     AUC 3566  26.218  41.055   6.925
    8AU     AUC 3567  26.492  40.508   7.999
    8AU     AUC 3568  26.539  40.890   7.990
    8AU     AUC 3569  26.557  40.598   6.998
    8AU     AUC 3570  26.543  40.920   7.031
    8AU     AUC 3571  25.925  40.609   8.022
    8AU     AUC 3572  25.950  40.984   7.995
    8AU     AUC 3573  25.924  40.538   7.047
    8AU     AUC 3574  25.904  40.862   6.998
    8AU     AUC 3575  26.757  41.022   7.345
    8AU     AUC 3576  26.705  40.991   7.694
    8AU     AUC 3577  25.744  41.027   7.317
    8AU     AUC 3578  25.759  41.080   7.679
    8AU     AUC 3579  26.700  40.431   7.333
    8AU     AUC 3580  26.665  40.376   7.692
    8AU     AUC 3581  25.708  40.428   7.372
    8AU     AUC 3582  25.759  40.482   7.726
    8AU     AUC 3583  26.082  41.263   7.766
    8AU     AUC 3584  26.428  41.219   7.777
    8AU     AUC 3585  26.031  40.258   7.814
    8AU     AUC 3586  26.349  40.203   7.783
    8AU     AUC 3587  26.053  41.170   7.190
    8AU     AUC 3588  26.423  41.218   7.199
    8AU     AUC 3589  26.033  40.259   7.216
    8AU     AUC 3590  26.427  40.281   7.209
    8AU    AUSL 3591  26.756  40.623   8.238
    8AU    AUSL 3592  26.476  40.224   8.160
    8AU     AUL 3593  26.783  40.218   8.344
    8AU       S 3594  26.853  39.827   8.121
    8AU     LIG 3595  26.776  39.594   8.462
    8AU     LIG 3596  26.781  39.161   8.636
    8AU     LIG 3597  27.092  38.859   8.850
    8AU     LIG 3598  27.367  38.823   9.247
    8AU     LIG 3599  27.494  38.773   9.694
    8AU       S 3600  26.989  40.621   8.395
    8AU     LIG 3601  26.867  40.681   8.840
    8AU     LIG 3602  27.015  40.670   9.297
    8AU     LIG 3603  27.295  40.448   9.631
    8AU     LIG 3604  27.673  40.387   9.941
    8AU     LIG 3605  27.997  40.455  10.296
    8AU    AUSL 3606  26.356  40.549   8.411
    8AU    AUSL 3607  26.103  40.935   8.427
    8AU     AUL 3608  26.298  40.849   8.738
    8AU       S 3609  26.482  40.458   8.588
    8AU     LIG 3610  26.436  40.442   9.023
    8AU     LIG 3611  26.692  40.270   9.370
    8AU     LIG 3612  26.931  40.077   9.732
    8AU     LIG 3613  27.056  39.826  10.128
    8AU     LIG 3614  27.220  39.764  10.575
    8AU       S 3615  25.888  40.672   8.646
    8AU     LIG 3616  25.939  40.662   9.115
    8AU     LIG 3617  25.715  40.629   9.541
    8AU     LIG 3618  25.669  40.851   9.977
    8AU     LIG 3619  25.799  41.088  10.391
    8AU     LIG 3620  25.734  41.405  10.750
    8AU    AUSL 3621  26.427  40.917   8.165
    8AU    AUSL 3622  26.870  41.011   8.100
    8AU     AUL 3623  26.654  40.928   8.448
    8AU       S 3624  26.334  41.304   8.585
    8AU     LIG 3625  26.674  41.165   8.906
    8AU     LIG 3626  26.927  41.196   9.333
    8AU     LIG 3627  26.919  41.339   9.819
    8AU     LIG 3628  26.880  41.387  10.313
    8AU     LIG 3629  27.044  41.391  10.773
    8AU       S 3630  27.033  41.141   8.277
    8AU     LIG 3631  27.434  41.074   8.354
    8AU     LIG 3632  27.685  41.267   8.708
    8AU     LIG 3633  27.922  41.493   9.049
    8AU     LIG 3634  28.141  41.811   9.313
    8AU     LIG 3635  28.528  41.995   9.492
    8AU    AUSL 3636  26.759  40.875   6.765
    8AU    AUSL 3637  26.537  41.197   6.964
    8AU     AUL 3638  26.669  41.253   6.625
    8AU       S 3639  26.707  40.922   6.313
    8AU     LIG 3640  27.075  40.747   6.088
    8AU     LIG 3641  27.168  40.500   5.697
    8AU     LIG 3642  27.358  40.321   5.299
    8AU     LIG 3643  27.727  40.251   4.997
    8AU     LIG 3644  28.088  40.397   4.714
    8AU       S 3645  27.006  41.445   6.880
    8AU     LIG 3646  27.037  41.637   6.479
    8AU     LIG 3647  27.253  41.839   6.093
    8AU     LIG 3648  27.507  42.050   5.752
    8AU     LIG 3649  27.766  42.238   5.437
    8AU     LIG 3650  27.738  42.503   5.044
    8AU    AUSL 3651  26.536  40.543   6.607
    8AU    AUSL 3652  26.910  40.512   6.934
    8AU     AUL 3653  26.945  40.635   6.609
    8AU       S 3654  27.086  40.200   6.719
    8AU     LIG 3655  27.134  39.786   6.445
    8AU     LIG 3656  27.320  39.393   6.276
    8AU     LIG 3657  27.532  39.137   5.954
    8AU     LIG 3658  27.852  39.193   5.604
    8AU     LIG 3659  28.309  39.272   5.472
    8AU       S 3660  26.623  40.783   6.298
    8AU     LIG 3661  26.695  40.383   6.120
    8AU     LIG 3662  26.793  40.148   5.701
    8AU     LIG 3663  26.903  40.071   5.236
    8AU     LIG 3664  26.963  40.012   4.762
    8AU     LIG 3665  27.208  39.851   4.384
    8AU    AUSL 3666  26.336  40.922   6.698
    8AU    AUSL 3667  26.124  40.522   6.736
    8AU     AUL 3668  26.274  40.533   6.445
    8AU       S 3669  25.841  40.558   6.297
    8AU     LIG 3670  25.976  40.354   5.941
    8AU     LIG 3671  25.745  40.108   5.626
    8AU     LIG 3672  25.562  40.093   5.197
    8AU     LIG 3673  25.330  40.033   4.785
    8AU     LIG 3674  25.306  39.825   4.349
    8AU       S 3675  26.370  40.989   6.382
    8AU     LIG 3676  26.291  40.761   5.955
    8AU     LIG 3677  26.659  40.647   5.662
    8AU     LIG 3678  26.900  40.594   5.240
    8AU     LIG 3679  26.955  40.718   4.771
    8AU     LIG 3680  26.969  40.806   4.296
    8AU    AUSL 3681  25.704  40.877   8.258
    8AU    AUSL 3682  25.986  41.231   8.145
    8AU     AUL 3683  25.854  41.165   8.484
    8AU       S 3684  25.697  40.753   8.674
    8AU     LIG 3685  25.512  40.419   8.916
    8AU     LIG 3686  25.310  40.352   9.341
    8AU     LIG 3687  25.096  40.277   9.764
    8AU     LIG 3688  24.743  40.208  10.079
    8AU     LIG 3689  24.438  40.373  10.408
    8AU       S 3690  25.606  41.472   8.218
    8AU     LIG 3691  25.583  41.611   8.647
    8AU     LIG 3692  25.437  41.830   9.048
    8AU     LIG 3693  25.209  42.126   9.340
    8AU     LIG 3694  25.069  42.261   9.776
    8AU     LIG 3695  24.965  42.568  10.126
    8AU    AUSL 3696  26.006  40.591   8.175
    8AU    AUSL 3697  25.590  40.463   8.146
    8AU     AUL 3698  25.482  40.698   8.272
    8AU       S 3699  25.504  40.252   8.415
    8AU     LIG 3700  25.067  40.217   8.261
    8AU     LIG 3701  24.815  39.841   8.336
    8AU     LIG 3702  24.582  39.535   8.596
    8AU     LIG 3703  24.346  39.326   8.948
    8AU     LIG 3704  24.126  39.352   9.372
    8AU       S 3705  25.891  40.535   8.552
    8AU     LIG 3706  25.995  40.225   8.868
    8AU     LIG 3707  25.800  40.170   9.293
    8AU     LIG 3708  25.556  40.041   9.685
    8AU     LIG 3709  25.325  39.896  10.082
    8AU     LIG 3710  25.326  39.783  10.549
    8AU    AUSL 3711  25.699  40.585   6.779
    8AU    AUSL 3712  25.900  40.237   6.957
    8AU     AUL 3713  25.941  40.234   6.625
    8AU       S 3714  25.667  40.488   6.353
    8AU     LIG 3715  25.465  40.438   5.952
    8AU     LIG 3716  25.277  40.344   5.550
    8AU     LIG 3717  25.041  40.156   5.204
    8AU     LIG 3718  24.811  40.253   4.825
    8AU     LIG 3719  24.465  40.337   4.530
    8AU       S 3720  25.529  40.114   6.791
    8AU     LIG 3721  25.511  39.701   6.636
    8AU     LIG 3722  25.164  39.435   6.526
    8AU     LIG 3723  24.841  39.229   6.263
    8AU     LIG 3724  24.669  39.142   5.825
    8AU     LIG 3725  24.632  39.004   5.365
    8AU    AUSL 3726  25.927  40.903   6.604
    8AU    AUSL 3727  25.571  40.982   6.905
    8AU     AUL 3728  25.488  40.804   6.624
    8AU       S 3729  25.589  41.245   6.656
    8AU     LIG 3730  25.182  41.356   6.572
    8AU     LIG 3731  24.974  41.671   6.291
    8AU     LIG 3732  24.843  41.833   5.872
    8AU     LIG 3733  24.494  41.879   5.556
    8AU     LIG 3734  24.103  41.869   5.296
    8AU       S 3735  25.891  40.831   6.366
    8AU     LIG 3736  25.778  40.862   5.913
    8AU     LIG 3737  25.725  40.611   5.523
    8AU     LIG 3738  25.613  40.597   5.064
    8AU     LIG 3739  25.658  40.854   4.657
    8AU     LIG 3740  25.627  41.157   4.286
    8AU    AUSL 3741  27.028  41.211   7.522
    8AU    AUSL 3742  26.925  41.040   7.117
    8AU     AUL 3743  27.294  41.311   7.285
    8AU       S 3744  27.031  41.214   6.933
    8AU     LIG 3745  27.152  41.113   6.511
    8AU     LIG 3746  27.410  41.353   6.212
    8AU     LIG 3747  27.705  41.607   5.947
    8AU     LIG 3748  28.011  41.795   5.644
    8AU     LIG 3749  28.427  41.758   5.411
    8AU       S 3750  27.417  41.065   7.673
    8AU     LIG 3751  27.848  41.239   7.626
    8AU     LIG 3752  28.311  41.366   7.586
    8AU     LIG 3753  28.763  41.468   7.536
    8AU     LIG 3754  29.139  41.698   7.494
    8AU     LIG 3755  29.294  42.152   7.527
    8AU    AUSL 3756  27.184  40.808   7.357
    8AU    AUSL 3757  27.134  40.472   7.702
    8AU     AUL 3758  27.479  40.516   7.579
    8AU       S 3759  27.307  40.870   7.384
    8AU     LIG 3760  27.734  40.864   7.298
    8AU     LIG 3761  28.194  40.931   7.339
    8AU     LIG 3762  28.618  41.106   7.214
    8AU     LIG 3763  29.052  41.322   7.122
    8AU     LIG 3764  29.450  41.564   7.061
    8AU       S 3765  27.359  40.070   7.688
    8AU     LIG 3766  27.814  39.969   7.673
    8AU     LIG 3767  28.241  39.751   7.674
    8AU     LIG 3768  28.638  39.665   7.921
    8AU     LIG 3769  29.020  39.698   8.214
    8AU     LIG 3770  29.419  39.442   8.209
    8AU    AUSL 3771  26.936  40.845   7.725
    8AU    AUSL 3772  26.692  41.250   7.781
    8AU     AUL 3773  27.029  41.275   7.830
    8AU       S 3774  27.021  41.447   8.256
    8AU     LIG 3775  27.409  41.594   8.414
    8AU     LIG 3776  27.657  41.810   8.743
    8AU     LIG 3777  27.975  42.117   8.927
    8AU     LIG 3778  28.290  42.500   8.915
    8AU     LIG 3779  28.596  42.896   8.882
    8AU       S 3780  27.283  40.889   7.832
    8AU     LIG 3781  27.747  40.826   7.949
    8AU     LIG 3782  28.209  40.934   7.862
    8AU     LIG 3783  28.678  41.057   7.828
    8AU     LIG 3784  29.118  41.291   7.867
    8AU     LIG 3785  29.549  41.483   7.955
    8AU    AUSL 3786  25.570  41.296   7.515
    8AU    AUSL 3787  25.640  41.100   7.911
    8AU     AUL 3788  25.338  41.412   7.750
    8AU       S 3789  25.486  41.269   8.163
    8AU     LIG 3790  25.353  41.141   8.564
    8AU     LIG 3791  25.183  41.393   8.931
    8AU     LIG 3792  24.948  41.685   9.238
    8AU     LIG 3793  24.605  41.855   9.541
    8AU     LIG 3794  24.182  41.944   9.772
    8AU       S 3795  25.581  41.689   7.438
    8AU     LIG 3796  25.115  41.785   7.453
    8AU     LIG 3797  24.749  42.101   7.580
    8AU     LIG 3798  24.303  42.290   7.606
    8AU     LIG 3799  24.020  42.634   7.414
    8AU     LIG 3800  23.565  42.772   7.309
    8AU    AUSL 3801  25.514  40.916   7.311
    8AU    AUSL 3802  25.652  41.358   7.110
    8AU     AUL 3803  25.351  41.219   7.159
    8AU       S 3804  25.175  40.743   6.987
    8AU     LIG 3805  24.868  41.113   6.980
    8AU     LIG 3806  24.383  41.259   6.914
    8AU     LIG 3807  23.893  41.306   6.780
    8AU     LIG 3808  23.383  41.251   6.793
    8AU     LIG 3809  22.927  41.460   6.871
    8AU       S 3810  25.459  41.623   6.903
    8AU     LIG 3811  25.422  41.830   6.482
    8AU     LIG 3812  25.192  42.153   6.198
    8AU     LIG 3813  24.947  42.540   6.332
    8AU     LIG 3814  24.742  42.969   6.276
    8AU     LIG 3815  24.485  43.251   6.006
    8AU    AUSL 3816  25.313  40.958   7.699
    8AU    AUSL 3817  25.277  40.588   7.416
    8AU     AUL 3818  25.116  40.918   7.425
    8AU       S 3819  25.070  40.511   7.685
    8AU     LIG 3820  24.685  40.376   7.402
    8AU     LIG 3821  24.202  40.244   7.321
    8AU     LIG 3822  23.741  40.088   7.212
    8AU     LIG 3823  23.295  40.135   7.079
    8AU     LIG 3824  22.880  40.018   6.896
    8AU       S 3825  25.161  40.991   7.923
    8AU     LIG 3826  24.761  41.152   7.759
    8AU     LIG 3827  24.281  41.261   7.874
    8AU     LIG 3828  23.962  41.568   8.101
    8AU     LIG 3829  23.475  41.680   8.072
    8AU     LIG 3830  23.018  41.890   8.062
    8AU    AUSL 3831  26.896  40.147   7.545
    8AU    AUSL 3832  26.754  40.405   7.881
    8AU     AUL 3833  27.063  40.305   7.954
    8AU       S 3834  27.075  39.991   7.530
    8AU     LIG 3835  27.339  39.584   7.590
    8AU     LIG 3836  27.803  39.476   7.514
    8AU     LIG 3837  28.232  39.303   7.405
    8AU     LIG 3838  28.529  38.961   7.478
    8AU     LIG 3839  28.963  38.945   7.564
    8AU       S 3840  26.980  39.860   7.985
    8AU     LIG 3841  27.225  39.510   8.195
    8AU     LIG 3842  27.288  39.303   8.609
    8AU     LIG 3843  27.604  39.047   8.856
    8AU     LIG 3844  27.892  38.990   9.232
    8AU     LIG 3845  28.304  39.094   9.464
    8AU    AUSL 3846  26.879  40.527   7.350
    8AU    AUSL 3847  26.841  40.124   7.126
    8AU     AUL 3848  27.128  40.356   7.195
    8AU       S 3849  27.343  40.067   7.460
    8AU     LIG 3850  27.638  39.862   7.202
    8AU     LIG 3851  28.102  39.744   7.166
    8AU     LIG 3852  28.530  39.554   7.020
    8AU     LIG 3853  29.016  39.586   6.990
    8AU     LIG 3854  29.478  39.674   7.036
    8AU       S 3855  27.046  39.994   6.895
    8AU     LIG 3856  26.913  39.530   6.851
    8AU     LIG 3857  27.136  39.124   6.668
    8AU     LIG 3858  27.224  38.846   6.285
    8AU     LIG 3859  27.445  38.512   6.021
    8AU     LIG 3860  27.759  38.130   5.997
    8AU    AUSL 3861  25.472  40.225   7.573
    8AU    AUSL 3862  25.582  40.453   7.161
    8AU     AUL 3863  25.227  40.298   7.290
    8AU       S 3864  25.397  40.244   6.867
    8AU     LIG 3865  25.056  39.987   6.665
    8AU     LIG 3866  24.716  39.698   6.517
    8AU     LIG 3867  24.382  39.448   6.297
    8AU     LIG 3868  24.190  39.106   6.036
    8AU     LIG 3869  23.875  38.936   5.718
    8AU       S 3870  25.051  40.285   7.738
    8AU     LIG 3871  24.954  39.925   7.485
    8AU     LIG 3872  24.522  39.822   7.333
    8AU     LIG 3873  24.055  39.771   7.467
    8AU     LIG 3874  23.603  39.613   7.403
    8AU     LIG 3875  23.372  39.191   7.338
    8AU    AUSL 3876  25.541  40.610   7.760
    8AU    AUSL 3877  25.796  40.233   7.849
    8AU     AUL 3878  25.464  40.204   7.921
    8AU       S 3879  25.515  40.040   8.353
    8AU     LIG 3880  25.269  39.761   8.075
    8AU     LIG 3881  24.926  39.417   8.066
    8AU     LIG 3882  24.649  39.107   8.315
    8AU     LIG 3883  24.383  38.804   8.600
    8AU     LIG 3884  24.125  38.380   8.694
    8AU       S 3885  25.136  40.526   7.870
    8AU     LIG 3886  24.633  40.652   7.843
    8AU     LIG 3887  24.164  40.556   7.722
    8AU     LIG 3888  23.813  40.200   7.724
    8AU     LIG 3889  23.367  40.039   7.603
    8AU     LIG 3890  22.922  40.091   7.807
    8AU    AUSL 3891  26.276  41.436   7.910
    8AU    AUSL 3892  25.838  41.461   7.807
    8AU     AUL 3893  26.072  41.543   8.188
    8AU       S 3894  25.703  41.661   7.924
    8AU     LIG 3895  25.490  41.954   8.248
    8AU     LIG 3896  25.306  42.141   8.659
    8AU     LIG 3897  25.140  42.499   8.952
    8AU     LIG 3898  24.867  42.883   9.046
    8AU     LIG 3899  24.880  43.348   8.937
    8AU       S 3900  26.316  41.873   7.978
    8AU     LIG 3901  26.472  41.917   8.355
    8AU     LIG 3902  26.536  42.365   8.531
    8AU     LIG 3903  26.648  42.804   8.710
    8AU     LIG 3904  26.746  43.067   9.107
    8AU     LIG 3905  26.707  43.362   9.486
    8AU    AUSL 3906  26.113  41.687   7.588
    8AU    AUSL 3907  26.390  41.614   7.226
    8AU     AUL 3908  26.273  41.939   7.373
    8AU       S 3909  26.132  41.909   7.828
    8AU     LIG 3910  26.239  42.349   8.084
    8AU     LIG 3911  26.287  42.797   8.296
    8AU     LIG 3912  26.071  43.251   8.346
    8AU     LIG 3913  25.834  43.689   8.378
    8AU     LIG 3914  25.583  44.032   8.643
    8AU       S 3915  26.251  41.914   6.909
    8AU     LIG 3916  26.644  42.083   7.018
    8AU     LIG 3917  26.797  42.506   6.844
    8AU     LIG 3918  26.908  42.942   6.650
    8AU     LIG 3919  27.033  43.394   6.482
    8AU     LIG 3920  27.082  43.893   6.511
    8AU    AUSL 3921  26.551  41.613   7.626
    8AU    AUSL 3922  26.559  41.312   8.191
    8AU     AUL 3923  26.664  41.564   7.970
    8AU       S 3924  26.797  41.389   8.408
    8AU     LIG 3925  27.138  41.302   8.746
    8AU     LIG 3926  27.395  41.494   9.083
    8AU     LIG 3927  27.626  41.864   9.267
    8AU     LIG 3928  27.726  42.163   9.620
    8AU     LIG 3929  27.664  42.335  10.068
    8AU       S 3930  26.498  41.956   7.783
    8AU     LIG 3931  26.741  42.244   8.056
    8AU     LIG 3932  26.800  42.694   8.220
    8AU     LIG 3933  26.855  43.164   8.342
    8AU     LIG 3934  26.920  43.655   8.353
    8AU     LIG 3935  26.960  44.148   8.328
    8AU    AUSL 3936  26.169  40.008   7.948
    8AU    AUSL 3937  26.582  40.018   7.794
    8AU     AUL 3938  26.400  39.907   8.186
    8AU       S 3939  26.151  39.567   7.994
    8AU     LIG 3940  26.342  39.378   8.304
    8AU     LIG 3941  26.346  38.948   8.383
    8AU     LIG 3942  26.214  38.541   8.527
    8AU     LIG 3943  26.223  38.114   8.705
    8AU     LIG 3944  26.143  37.836   9.094
    8AU       S 3945  26.729  39.808   7.848
    8AU     LIG 3946  26.749  39.356   7.988
    8AU     LIG 3947  27.022  39.036   8.211
    8AU     LIG 3948  27.390  38.841   8.425
    8AU     LIG 3949  27.654  38.542   8.672
    8AU     LIG 3950  27.980  38.192   8.615
    8AU    AUSL 3951  25.857  39.868   7.662
    8AU    AUSL 3952  25.960  40.189   8.259
    8AU     AUL 3953  25.820  39.903   8.025
    8AU       S 3954  25.968  39.491   7.845
    8AU     LIG 3955  25.879  39.178   8.170
    8AU     LIG 3956  25.860  38.726   8.207
    8AU     LIG 3957  25.926  38.254   8.182
    8AU     LIG 3958  25.787  37.778   8.204
    8AU     LIG 3959  25.728  37.295   8.296
    8AU       S 3960  25.765  40.071   8.462
    8AU     LIG 3961  25.579  39.575   8.454
    8AU     LIG 3962  25.113  39.410   8.543
    8AU     LIG 3963  24.813  39.124   8.803
    8AU     LIG 3964  24.625  38.973   9.209
    8AU     LIG 3965  24.704  38.837   9.655
    8AU    AUSL 3966  26.289  39.784   7.603
    8AU    AUSL 3967  26.061  40.027   7.321
    8AU     AUL 3968  25.942  39.680   7.419
    8AU       S 3969  26.306  39.591   7.163
    8AU     LIG 3970  25.957  39.265   7.149
    8AU     LIG 3971  25.902  38.829   6.996
    8AU     LIG 3972  25.836  38.392   6.810
    8AU     LIG 3973  25.834  37.919   6.664
    8AU     LIG 3974  25.650  37.441   6.652
    8AU       S 3975  26.298  39.564   7.746
    8AU     LIG 3976  26.317  39.089   7.861
    8AU     LIG 3977  26.310  38.619   7.981
    8AU     LIG 3978  26.442  38.218   8.213
    8AU     LIG 3979  26.868  38.052   8.301
    8AU     LIG 3980  27.074  37.603   8.335
    8AU    AUSL 3981  26.211  41.444   6.863
    8AU    AUSL 3982  26.746  41.403   7.278
    8AU     AUL 3983  26.559  41.574   6.938
    8AU       S 3984  26.180  41.700   6.671
    8AU     LIG 3985  26.573  41.945   6.526
    8AU     LIG 3986  26.663  42.389   6.345
    8AU     LIG 3987  26.684  42.660   5.934
    8AU     LIG 3988  26.546  42.903   5.526
    8AU     LIG 3989  26.321  43.298   5.352
    8AU       S 3990  26.943  41.581   7.179
    8AU     LIG 3991  27.345  41.776   6.949
    8AU     LIG 3992  27.549  41.778   6.515
    8AU     LIG 3993  27.753  42.061   6.194
    8AU     LIG 3994  27.827  42.452   5.923
    8AU     LIG 3995  27.963  42.918   5.923
    8AU    AUSL 3996  26.024  41.412   7.291
    8AU    AUSL 3997  25.977  41.118   6.958
    8AU     AUL 3998  25.899  41.548   7.026
    8AU       S 3999  26.074  41.949   6.942
    8AU     LIG 4000  26.300  42.363   6.732
    8AU     LIG 4001  26.362  42.822   6.695
    8AU     LIG 4002  26.056  43.202   6.738
    8AU     LIG 4003  25.824  43.600   6.608
    8AU     LIG 4004  25.668  44.056   6.668
    8AU       S 4005  25.769  41.356   6.630
    8AU     LIG 4006  25.577  41.425   6.196
    8AU     LIG 4007  25.357  41.740   5.936
    8AU     LIG 4008  25.232  42.028   5.580
    8AU     LIG 4009  25.169  42.291   5.181
    8AU     LIG 4010  24.978  42.446   4.771
    8AU    AUSL 4011  26.249  39.996   6.928
    8AU    AUSL 4012  25.651  40.026   7.245
    8AU     AUL 4013  25.910  39.867   6.986
    8AU       S 4014  25.451  39.970   7.046
    8AU     LIG 4015  25.113  39.631   7.022
    8AU     LIG 4016  24.776  39.308   6.843
    8AU     LIG 4017  24.471  39.019   6.581
    8AU     LIG 4018  24.135  38.671   6.468
    8AU     LIG 4019  23.923  38.261   6.314
    8AU       S 4020  26.306  39.590   6.958
    8AU     LIG 4021  26.215  39.206   6.718
    8AU     LIG 4022  26.235  38.742   6.614
    8AU     LIG 4023  26.211  38.302   6.468
    8AU     LIG 4024  25.992  38.050   6.132
    8AU     LIG 4025  25.993  37.917   5.664
    8AU    AUSL 4026  26.489  40.005   7.310
    8AU    AUSL 4027  26.501  40.329   6.960
    8AU     AUL 4028  26.584  39.958   6.936
    8AU       S 4029  26.561  39.621   7.256
    8AU     LIG 4030  26.450  39.133   7.225
    8AU     LIG 4031  26.386  38.688   7.108
    8AU     LIG 4032  26.299  38.251   6.986
    8AU     LIG 4033  26.501  37.820   6.943
    8AU     LIG 4034  26.538  37.337   6.839
    8AU       S 4035  26.823  40.163   6.610
    8AU     LIG 4036  26.618  39.762   6.488
    8AU     LIG 4037  26.797  39.363   6.356
    8AU     LIG 4038  26.981  39.158   5.972
    8AU     LIG 4039  27.195  38.861   5.684
    8AU     LIG 4040  27.282  38.781   5.237
    9AU     AUC 4041  22.677   3.138   7.504
    9AU     AUC 4042  22.943   3.155   7.317
    9AU     AUC 4043  22.947   3.137   7.668
    9AU     AUC 4044  22.388   3.125   7.342
    9AU     AUC 4045  22.426   3.169   7.698
    9AU     AUC 4046  22.503   3.414   7.506
    9AU     AUC 4047  22.854   3.426   7.482
    9AU     AUC 4048  22.495   2.862   7.518
    9AU     AUC 4049  22.845   2.850   7.501
    9AU     AUC 4050  22.688   2.968   7.787
    9AU     AUC 4051  22.683   3.330   7.770
    9AU     AUC 4052  22.665   2.967   7.230
    9AU     AUC 4053  22.677   3.291   7.222
    9AU     AUC 4054  23.248   3.169   7.139
    9AU     AUC 4055  23.278   3.127   7.497
    9AU     AUC 4056  23.247   3.120   7.849
    9AU     AUC 4057  22.081   3.104   7.178
    9AU     AUC 4058  22.073   3.158   7.539
    9AU     AUC 4059  22.136   3.191   7.900
    9AU     AUC 4060  22.329   3.711   7.493
    9AU     AUC 4061  22.693   3.760   7.454
    9AU     AUC 4062  23.027   3.716   7.465
    9AU     AUC 4063  22.296   2.580   7.533
    9AU     AUC 4064  22.657   2.534   7.503
    9AU     AUC 4065  23.017   2.553   7.487
    9AU     AUC 4066  22.683   2.792   8.085
    9AU     AUC 4067  22.704   3.152   8.105
    9AU     AUC 4068  22.719   3.509   8.055
    9AU     AUC 4069  22.689   2.785   6.955
    9AU     AUC 4070  22.664   3.124   6.892
    9AU     AUC 4071  22.641   3.452   6.918
    9AU     AUC 4072  22.973   2.930   7.993
    9AU     AUC 4073  23.007   3.316   7.977
    9AU     AUC 4074  22.990   3.001   6.989
    9AU     AUC 4075  22.971   3.325   7.015
    9AU     AUC 4076  22.389   2.998   8.026
    9AU     AUC 4077  22.415   3.367   8.009
    9AU     AUC 4078  22.365   2.928   7.053
    9AU     AUC 4079  22.336   3.252   7.005
    9AU     AUC 4080  23.191   3.439   7.323
    9AU     AUC 4081  23.155   3.417   7.673
    9AU     AUC 4082  22.185   3.418   7.330
    9AU     AUC 4083  22.204   3.473   7.699
    9AU     AUC 4084  23.147   2.844   7.319
    9AU     AUC 4085  23.131   2.800   7.680
    9AU     AUC 4086  22.161   2.812   7.369
    9AU     AUC 4087  22.225   2.874   7.722
    9AU     AUC 4088  22.522   3.659   7.770
    9AU     AUC 4089  22.873   3.633   7.765
    9AU     AUC 4090  22.482   2.670   7.815
    9AU     AUC 4091  22.825   2.626   7.784
    9AU     AUC 4092  22.481   3.566   7.188
    9AU     AUC 4093  22.851   3.623   7.186
    9AU     AUC 4094  22.485   2.650   7.225
    9AU     AUC 4095  22.877   2.678   7.206
    9AU    AUSL 4096  23.258   3.065   8.208
    9AU    AUSL 4097  22.987   2.636   8.169
    9AU     AUL 4098  23.300   2.658   8.320
    9AU       S 4099  23.337   2.253   8.111
    9AU     LIG 4100  23.239   2.129   8.480
    9AU     LIG 4101  23.372   1.787   8.732
    9AU     LIG 4102  23.551   1.402   8.910
    9AU     LIG 4103  23.777   1.036   9.098
    9AU     LIG 4104  23.990   0.931   9.505
    9AU       S 4105  23.503   3.069   8.315
    9AU     LIG 4106  23.590   3.168   8.720
    9AU     LIG 4107  23.812   2.896   9.053
    9AU     LIG 4108  23.957   2.693   9.470
    9AU     LIG 4109  24.149   2.560   9.895
    9AU     LIG 4110  24.433   2.657  10.265
    9AU    AUSL 4111  22.875   2.973   8.403
    9AU    AUSL 4112  22.592   3.333   8.432
    9AU     AUL 4113  22.815   3.258   8.717
    9AU       S 4114  23.128   2.927   8.643
    9AU     LIG 4115  22.832   2.731   8.922
    9AU     LIG 4116  22.909   2.478   9.337
    9AU     LIG 4117  23.126   2.268   9.735
    9AU     LIG 4118  23.363   2.274  10.157
    9AU     LIG 4119  23.397   2.389  10.614
    9AU       S 4120  22.406   3.063   8.686
    9AU     LIG 4121  22.415   2.946   9.149
    9AU     LIG 4122  22.145   2.943   9.542
    9AU     LIG 4123  21.966   3.126   9.950
    9AU     LIG 4124  21.985   3.457  10.317
    9AU     LIG 4125  21.928   3.752  10.698
    9AU    AUSL 4126  22.907   3.341   8.157
    9AU    AUSL 4127  23.339   3.460   8.069
    9AU     AUL 4128  23.164   3.367   8.426
    9AU       S 4129  22.806   3.720   8.570
    9AU     LIG 4130  23.138   3.631   8.880
    9AU     LIG 4131  23.391   3.730   9.285
    9AU     LIG 4132  23.395   3.857   9.769
    9AU     LIG 4133  23.443   3.965  10.246
    9AU     LIG 4134  23.692   4.057  10.650
    9AU       S 4135  23.501   3.610   8.222
    9AU     LIG 4136  23.845   3.437   8.314
    9AU     LIG 4137  24.109   3.567   8.678
    9AU     LIG 4138  24.375   3.815   8.993
    9AU     LIG 4139  24.616   4.129   9.247
    9AU     LIG 4140  24.957   4.210   9.559
    9AU    AUSL 4141  23.182   3.285   6.743
    9AU    AUSL 4142  22.952   3.599   6.945
    9AU     AUL 4143  23.069   3.662   6.598
    9AU       S 4144  23.141   3.311   6.312
    9AU     LIG 4145  23.537   3.189   6.118
    9AU     LIG 4146  23.736   2.854   5.884
    9AU     LIG 4147  23.806   2.711   5.455
    9AU     LIG 4148  23.938   2.611   5.018
    9AU     LIG 4149  24.304   2.459   4.745
    9AU       S 4150  23.408   3.867   6.850
    9AU     LIG 4151  23.525   4.049   6.459
    9AU     LIG 4152  23.760   4.205   6.068
    9AU     LIG 4153  24.001   4.270   5.657
    9AU     LIG 4154  24.036   4.504   5.245
    9AU     LIG 4155  24.172   4.819   4.928
    9AU    AUSL 4156  22.963   2.940   6.606
    9AU    AUSL 4157  23.333   2.922   6.915
    9AU     AUL 4158  23.390   3.051   6.616
    9AU       S 4159  23.506   2.607   6.695
    9AU     LIG 4160  23.922   2.416   6.615
    9AU     LIG 4161  24.063   2.015   6.458
    9AU     LIG 4162  24.111   1.687   6.145
    9AU     LIG 4163  24.315   1.607   5.730
    9AU     LIG 4164  24.632   1.752   5.401
    9AU       S 4165  23.067   3.107   6.284
    9AU     LIG 4166  23.260   2.752   6.121
    9AU     LIG 4167  23.365   2.528   5.714
    9AU     LIG 4168  23.379   2.519   5.239
    9AU     LIG 4169  23.475   2.539   4.772
    9AU     LIG 4170  23.551   2.307   4.359
    9AU    AUSL 4171  22.757   3.320   6.679
    9AU    AUSL 4172  22.555   2.915   6.745
    9AU     AUL 4173  22.681   2.939   6.447
    9AU       S 4174  22.242   2.934   6.311
    9AU     LIG 4175  22.378   2.714   5.954
    9AU     LIG 4176  22.175   2.432   5.636
    9AU     LIG 4177  21.965   2.360   5.219
    9AU     LIG 4178  21.756   2.394   4.794
    9AU     LIG 4179  21.690   2.365   4.319
    9AU       S 4180  22.833   3.361   6.315
    9AU     LIG 4181  23.026   3.228   5.822
    9AU     LIG 4182  23.364   3.014   5.539
    9AU     LIG 4183  23.540   2.980   5.085
    9AU     LIG 4184  23.528   3.149   4.639
    9AU     LIG 4185  23.543   3.536   4.343
    9AU    AUSL 4186  22.189   3.262   8.290
    9AU    AUSL 4187  22.447   3.619   8.152
    9AU     AUL 4188  22.337   3.567   8.490
    9AU       S 4189  22.237   3.186   8.746
    9AU     LIG 4190  21.960   2.862   8.909
    9AU     LIG 4191  21.730   2.740   9.316
    9AU     LIG 4192  21.596   2.778   9.778
    9AU     LIG 4193  21.247   2.796  10.108
    9AU     LIG 4194  21.026   2.780  10.530
    9AU       S 4195  22.053   3.861   8.241
    9AU     LIG 4196  22.104   4.024   8.637
    9AU     LIG 4197  21.929   4.280   8.994
    9AU     LIG 4198  21.854   4.680   9.230
    9AU     LIG 4199  21.687   4.918   9.605
    9AU     LIG 4200  21.372   4.997   9.961
    9AU    AUSL 4201  22.497   2.973   8.204
    9AU    AUSL 4202  22.050   2.891   8.122
    9AU     AUL 4203  22.048   2.981   8.380
    9AU       S 4204  21.893   2.540   8.281
    9AU     LIG 4205  21.474   2.527   8.192
    9AU     LIG 4206  21.233   2.162   8.335
    9AU     LIG 4207  20.990   1.890   8.635
    9AU     LIG 4208  20.741   1.584   8.890
    9AU     LIG 4209  20.538   1.450   9.297
    9AU       S 4210  22.455   2.896   8.593
    9AU     LIG 4211  22.352   2.544   8.820
    9AU     LIG 4212  22.182   2.491   9.254
    9AU     LIG 4213  21.999   2.464   9.694
    9AU     LIG 4214  21.891   2.470  10.162
    9AU     LIG 4215  21.997   2.309  10.613
    9AU    AUSL 4216  22.127   2.961   6.788
    9AU    AUSL 4217  22.349   2.619   6.969
    9AU     AUL 4218  22.380   2.617   6.635
    9AU       S 4219  22.071   2.858   6.386
    9AU     LIG 4220  21.868   2.748   5.987
    9AU     LIG 4221  21.682   2.600   5.599
    9AU     LIG 4222  21.557   2.691   5.175
    9AU     LIG 4223  21.275   2.631   4.813
    9AU     LIG 4224  20.885   2.785   4.593
    9AU       S 4225  21.984   2.464   6.816
    9AU     LIG 4226  21.954   2.024   6.708
    9AU     LIG 4227  21.582   1.770   6.546
    9AU     LIG 4228  21.260   1.636   6.201
    9AU     LIG 4229  20.905   1.498   5.891
    9AU     LIG 4230  20.746   1.297   5.477
    9AU    AUSL 4231  22.344   3.286   6.612
    9AU    AUSL 4232  22.001   3.357   6.928
    9AU     AUL 4233  21.909   3.191   6.652
    9AU       S 4234  22.007   3.636   6.663
    9AU     LIG 4235  21.594   3.728   6.599
    9AU     LIG 4236  21.331   3.944   6.271
    9AU     LIG 4237  21.130   4.028   5.838
    9AU     LIG 4238  20.819   4.144   5.477
    9AU     LIG 4239  20.497   4.255   5.136
    9AU       S 4240  22.293   3.218   6.364
    9AU     LIG 4241  22.146   3.186   5.899
    9AU     LIG 4242  22.076   2.921   5.507
    9AU     LIG 4243  22.030   2.851   5.030
    9AU     LIG 4244  22.069   3.027   4.579
    9AU     LIG 4245  22.144   3.246   4.146
    9AU    AUSL 4246  23.464   3.640   7.482
    9AU    AUSL 4247  23.351   3.459   7.089
    9AU     AUL 4248  23.719   3.740   7.238
    9AU       S 4249  23.435   3.642   6.904
    9AU     LIG 4250  23.588   3.528   6.513
    9AU     LIG 4251  23.921   3.749   6.269
    9AU     LIG 4252  24.248   4.025   6.057
    9AU     LIG 4253  24.519   4.111   5.677
    9AU     LIG 4254  24.924   4.094   5.426
    9AU       S 4255  23.864   3.511   7.629
    9AU     LIG 4256  24.334   3.658   7.605
    9AU     LIG 4257  24.826   3.677   7.637
    9AU     LIG 4258  25.277   3.860   7.636
    9AU     LIG 4259  25.596   4.217   7.583
    9AU     LIG 4260  25.734   4.573   7.290
    9AU    AUSL 4261  23.628   3.240   7.326
    9AU    AUSL 4262  23.598   2.912   7.675
    9AU     AUL 4263  23.941   2.979   7.581
    9AU       S 4264  23.759   3.301   7.340
    9AU     LIG 4265  24.243   3.256   7.309
    9AU     LIG 4266  24.714   3.329   7.268
    9AU     LIG 4267  25.164   3.285   7.100
    9AU     LIG 4268  25.655   3.291   7.028
    9AU     LIG 4269  25.993   3.613   7.120
    9AU       S 4270  23.836   2.521   7.630
    9AU     LIG 4271  24.108   2.328   7.863
    9AU     LIG 4272  24.570   2.322   7.865
    9AU     LIG 4273  25.034   2.260   7.916
    9AU     LIG 4274  25.511   2.166   7.942
    9AU     LIG 4275  26.003   2.182   7.827
    9AU    AUSL 4276  23.390   3.279   7.698
    9AU    AUSL 4277  23.136   3.679   7.754
    9AU     AUL 4278  23.469   3.726   7.777
    9AU       S 4279  23.473   3.908   8.201
    9AU     LIG 4280  23.896   3.941   8.337
    9AU     LIG 4281  24.142   4.123   8.664
    9AU     LIG 4282  24.428   4.428   8.864
    9AU     LIG 4283  24.527   4.862   9.016
    9AU     LIG 4284  24.607   5.334   9.053
    9AU       S 4285  23.727   3.342   7.799
    9AU     LIG 4286  24.181   3.297   7.940
    9AU     LIG 4287  24.586   3.221   7.755
    9AU     LIG 4288  25.047   3.249   7.843
    9AU     LIG 4289  25.449   3.517   7.980
    9AU     LIG 4290  25.815   3.732   7.717
    9AU    AUSL 4291  21.998   3.689   7.543
    9AU    AUSL 4292  22.093   3.475   7.937
    9AU     AUL 4293  21.769   3.784   7.795
    9AU       S 4294  21.942   3.633   8.190
    9AU     LIG 4295  21.850   3.535   8.609
    9AU     LIG 4296  21.667   3.813   8.940
    9AU     LIG 4297  21.270   3.929   9.187
    9AU     LIG 4298  20.852   4.015   9.402
    9AU     LIG 4299  20.499   4.247   9.617
    9AU       S 4300  21.984   4.062   7.463
    9AU     LIG 4301  21.507   3.971   7.384
    9AU     LIG 4302  21.055   4.185   7.415
    9AU     LIG 4303  20.649   4.486   7.461
    9AU     LIG 4304  20.382   4.862   7.620
    9AU     LIG 4305  19.938   4.910   7.751
    9AU    AUSL 4306  21.956   3.314   7.339
    9AU    AUSL 4307  22.076   3.739   7.133
    9AU     AUL 4308  21.787   3.601   7.182
    9AU       S 4309  21.577   3.182   7.013
    9AU     LIG 4310  21.315   3.585   7.014
    9AU     LIG 4311  20.991   3.931   6.948
    9AU     LIG 4312  20.505   3.880   6.876
    9AU     LIG 4313  20.009   3.834   6.876
    9AU     LIG 4314  19.558   4.031   6.783
    9AU       S 4315  21.873   4.001   6.931
    9AU     LIG 4316  21.843   4.228   6.539
    9AU     LIG 4317  21.916   4.647   6.303
    9AU     LIG 4318  21.760   5.074   6.137
    9AU     LIG 4319  21.403   5.371   6.148
    9AU     LIG 4320  21.021   5.649   6.145
    9AU    AUSL 4321  21.753   3.338   7.737
    9AU    AUSL 4322  21.716   2.983   7.412
    9AU     AUL 4323  21.560   3.319   7.469
    9AU       S 4324  21.441   2.870   7.619
    9AU     LIG 4325  21.008   2.704   7.493
    9AU     LIG 4326  20.530   2.653   7.420
    9AU     LIG 4327  20.100   2.824   7.338
    9AU     LIG 4328  19.751   2.761   7.051
    9AU     LIG 4329  19.511   2.360   6.996
    9AU       S 4330  21.648   3.285   7.979
    9AU     LIG 4331  21.304   3.585   7.894
    9AU     LIG 4332  20.927   3.901   7.888
    9AU     LIG 4333  20.546   3.962   8.179
    9AU     LIG 4334  20.069   4.094   8.196
    9AU     LIG 4335  19.562   4.169   8.202
    9AU    AUSL 4336  23.368   2.574   7.528
    9AU    AUSL 4337  23.226   2.834   7.863
    9AU     AUL 4338  23.543   2.736   7.915
    9AU       S 4339  23.556   2.423   7.505
    9AU     LIG 4340  23.863   2.045   7.472
    9AU     LIG 4341  24.325   1.974   7.561
    9AU     LIG 4342  24.797   1.894   7.579
    9AU     LIG 4343  25.178   1.612   7.476
    9AU     LIG 4344  25.480   1.256   7.605
    9AU       S 4345  23.474   2.292   7.971
    9AU     LIG 4346  23.688   1.938   8.245
    9AU     LIG 4347  23.866   1.679   8.594
    9AU     LIG 4348  24.081   1.409   8.906
    9AU     LIG 4349  24.378   1.372   9.266
    9AU     LIG 4350  24.758   1.562   9.488
    9AU    AUSL 4351  23.331   2.950   7.330
    9AU    AUSL 4352  23.287   2.537   7.116
    9AU     AUL 4353  23.570   2.783   7.161
    9AU       S 4354  23.828   2.538   7.427
    9AU     LIG 4355  24.109   2.358   7.116
    9AU     LIG 4356  24.517   2.125   7.119
    9AU     LIG 4357  24.972   1.983   7.099
    9AU     LIG 4358  25.432   1.854   7.070
    9AU     LIG 4359  25.815   2.114   7.030
    9AU       S 4360  23.488   2.411   6.877
    9AU     LIG 4361  23.678   1.982   6.799
    9AU     LIG 4362  23.848   1.561   6.593
    9AU     LIG 4363  23.994   1.186   6.318
    9AU     LIG 4364  24.163   0.713   6.294
    9AU     LIG 4365  24.409   0.277   6.291
    9AU    AUSL 4366  21.899   2.623   7.579
    9AU    AUSL 4367  22.039   2.842   7.180
    9AU     AUL 4368  21.685   2.717   7.252
    9AU       S 4369  21.866   2.577   6.858
    9AU     LIG 4370  21.492   2.278   6.792
    9AU     LIG 4371  21.151   2.054   6.529
    9AU     LIG 4372  20.797   1.853   6.282
    9AU     LIG 4373  20.424   1.698   6.054
    9AU     LIG 4374  20.220   1.592   5.667
    9AU       S 4375  21.497   2.592   7.672
    9AU     LIG 4376  21.359   2.333   7.332
    9AU     LIG 4377  20.912   2.224   7.250
    9AU     LIG 4378  20.464   2.139   7.406
    9AU     LIG 4379  20.087   1.878   7.495
    9AU     LIG 4380  19.711   1.612   7.635
    9AU    AUSL 4381  22.016   3.019   7.724
    9AU    AUSL 4382  22.226   2.628   7.842
    9AU     AUL 4383  21.830   2.806   7.910
    9AU       S 4384  21.944   2.384   8.041
    9AU     LIG 4385  21.611   2.124   7.904
    9AU     LIG 4386  21.393   1.742   8.088
    9AU     LIG 4387  21.117   1.466   8.372
    9AU     LIG 4388  20.898   1.137   8.652
    9AU     LIG 4389  20.625   0.730   8.630
    9AU       S 4390  21.417   2.916   7.766
    9AU     LIG 4391  21.050   3.194   7.664
    9AU     LIG 4392  20.626   3.040   7.743
    9AU     LIG 4393  20.241   2.830   7.846
    9AU     LIG 4394  19.793   2.844   7.748
    9AU     LIG 4395  19.565   2.561   7.478
    9AU    AUSL 4396  22.714   3.835   7.901
    9AU    AUSL 4397  22.271   3.847   7.831
    9AU     AUL 4398  22.521   3.937   8.190
    9AU       S 4399  22.146   4.038   7.931
    9AU     LIG 4400  22.252   4.372   8.214
    9AU     LIG 4401  22.009   4.564   8.566
    9AU     LIG 4402  21.632   4.776   8.762
    9AU     LIG 4403  21.498   5.236   8.833
    9AU     LIG 4404  21.201   5.606   8.788
    9AU       S 4405  22.724   4.286   7.960
    9AU     LIG 4406  22.847   4.295   8.349
    9AU     LIG 4407  22.720   4.696   8.557
    9AU     LIG 4408  22.738   5.162   8.645
    9AU     LIG 4409  22.662   5.562   8.865
    9AU     LIG 4410  22.531   5.921   9.128
    9AU    AUSL 4411  22.520   4.076   7.590
    9AU    AUSL 4412  22.802   4.038   7.213
    9AU     AUL 4413  22.542   4.308   7.342
    9AU       S 4414  22.573   4.293   7.811
    9AU     LIG 4415  22.603   4.769   7.935
    9AU     LIG 4416  22.505   5.186   8.189
    9AU     LIG 4417  22.594   5.640   8.346
    9AU     LIG 4418  22.625   6.096   8.435
    9AU     LIG 4419  22.374   6.470   8.543
    9AU       S 4420  22.688   4.342   6.905
    9AU     LIG 4421  23.067   4.509   6.983
    9AU     LIG 4422  23.206   4.961   6.911
    9AU     LIG 4423  23.152   5.365   6.660
    9AU     LIG 4424  23.152   5.843   6.579
    9AU     LIG 4425  23.186   6.309   6.486
    9AU    AUSL 4426  22.965   4.031   7.607
    9AU    AUSL 4427  23.018   3.743   8.171
    9AU     AUL 4428  23.089   4.000   7.943
    9AU       S 4429  23.255   3.838   8.373
    9AU     LIG 4430  23.597   3.709   8.694
    9AU     LIG 4431  23.854   3.875   9.026
    9AU     LIG 4432  24.103   4.222   9.208
    9AU     LIG 4433  24.201   4.607   9.465
    9AU     LIG 4434  24.122   4.909   9.832
    9AU       S 4435  22.911   4.341   7.666
    9AU     LIG 4436  23.108   4.590   8.001
    9AU     LIG 4437  23.002   4.981   8.224
    9AU     LIG 4438  23.057   5.433   8.331
    9AU     LIG 4439  23.072   5.912   8.286
    9AU     LIG 4440  23.027   6.405   8.306
    9AU    AUSL 4441  22.650   2.486   7.949
    9AU    AUSL 4442  23.065   2.443   7.789
    9AU     AUL 4443  22.879   2.333   8.171
    9AU       S 4444  22.691   1.941   8.019
    9AU     LIG 4445  22.552   1.661   8.324
    9AU     LIG 4446  22.353   1.257   8.384
    9AU     LIG 4447  22.378   0.797   8.369
    9AU     LIG 4448  22.374   0.467   8.706
    9AU     LIG 4449  22.383   0.336   9.171
    9AU       S 4450  23.221   2.232   7.842
    9AU     LIG 4451  23.193   1.788   8.067
    9AU     LIG 4452  23.464   1.467   8.335
    9AU     LIG 4453  23.791   1.154   8.537
    9AU     LIG 4454  24.133   0.902   8.744
    9AU     LIG 4455  24.272   0.458   8.824
    9AU    AUSL 4456  22.339   2.259   7.699
    9AU    AUSL 4457  22.372   2.582   8.252
    9AU     AUL 4458  22.388   2.294   8.057
    9AU       S 4459  22.469   1.875   7.868
    9AU     LIG 4460  22.304   1.467   7.902
    9AU     LIG 4461  22.158   1.030   7.954
    9AU     LIG 4462  21.951   0.620   8.047
    9AU     LIG 4463  21.827   0.248   8.291
    9AU     LIG 4464  21.647  44.834   8.196
    9AU       S 4465  22.095   2.471   8.383
    9AU     LIG 4466  21.767   2.081   8.407
    9AU     LIG 4467  21.491   1.767   8.597
    9AU     LIG 4468  21.248   1.482   8.872
    9AU     LIG 4469  21.031   1.304   9.238
    9AU     LIG 4470  20.969   1.241   9.705
    9AU    AUSL 4471  22.762   2.203   7.635
    9AU    AUSL 4472  22.520   2.416   7.339
    9AU     AUL 4473  22.402   2.080   7.457
    9AU       S 4474  22.749   1.981   7.188
    9AU     LIG 4475  22.306   1.749   7.105
    9AU     LIG 4476  22.132   1.320   7.013
    9AU     LIG 4477  22.084   0.839   6.943
    9AU     LIG 4478  22.002   0.380   6.840
    9AU     LIG 4479  21.721   0.091   6.584
    9AU       S 4480  22.780   2.000   7.765
    9AU     LIG 4481  22.818   1.514   7.794
    9AU     LIG 4482  22.684   1.113   8.008
    9AU     LIG 4483  22.856   0.689   8.127
    9AU     LIG 4484  23.227   0.376   8.162
    9AU     LIG 4485  23.411  44.964   8.091
    9AU    AUSL 4486  22.624   3.848   6.861
    9AU    AUSL 4487  23.154   3.813   7.257
    9AU     AUL 4488  22.965   3.978   6.922
    9AU       S 4489  22.579   4.066   6.660
    9AU     LIG 4490  22.956   4.302   6.502
    9AU     LIG 4491  22.922   4.777   6.529
    9AU     LIG 4492  22.734   5.196   6.414
    9AU     LIG 4493  22.837   5.616   6.246
    9AU     LIG 4494  22.796   5.983   5.975
    9AU       S 4495  23.356   4.004   7.151
    9AU     LIG 4496  23.787   4.158   6.919
    9AU     LIG 4497  24.037   4.224   6.507
    9AU     LIG 4498  24.295   4.539   6.230
    9AU     LIG 4499  24.544   4.986   6.194
    9AU     LIG 4500  24.766   5.446   6.176
    9AU    AUSL 4501  22.458   3.801   7.288
    9AU    AUSL 4502  22.401   3.515   6.956
    9AU     AUL 4503  22.316   3.955   7.053
    9AU       S 4504  22.496   4.317   6.861
    9AU     LIG 4505  22.485   4.791   6.808
    9AU     LIG 4506  22.709   5.171   6.924
    9AU     LIG 4507  22.729   5.625   6.795
    9AU     LIG 4508  22.651   6.013   6.546
    9AU     LIG 4509  22.446   6.394   6.380
    9AU       S 4510  22.186   3.736   6.666
    9AU     LIG 4511  22.212   3.969   6.298
    9AU     LIG 4512  21.926   4.204   6.009
    9AU     LIG 4513  21.829   4.372   5.575
    9AU     LIG 4514  21.820   4.619   5.167
    9AU     LIG 4515  21.667   4.962   4.877
    9AU    AUSL 4516  22.696   2.378   6.941
    9AU    AUSL 4517  22.108   2.416   7.273
    9AU     AUL 4518  22.367   2.250   7.013
    9AU       S 4519  21.918   2.346   7.098
    9AU     LIG 4520  21.693   1.970   7.150
    9AU     LIG 4521  21.282   1.815   6.971
    9AU     LIG 4522  21.018   1.554   6.647
    9AU     LIG 4523  20.685   1.340   6.335
    9AU     LIG 4524  20.274   1.197   6.072
    9AU       S 4525  22.750   1.962   6.962
    9AU     LIG 4526  22.604   1.516   6.771
    9AU     LIG 4527  22.372   1.110   6.603
    9AU     LIG 4528  22.164   0.700   6.433
    9AU     LIG 4529  22.189   0.460   6.007
    9AU     LIG 4530  22.410   0.337   5.592
    9AU    AUSL 4531  22.949   2.398   7.314
    9AU    AUSL 4532  22.934   2.720   6.956
    9AU     AUL 4533  23.033   2.337   6.945
    9AU       S 4534  22.972   1.997   7.266
    9AU     LIG 4535  22.754   1.505   7.273
    9AU     LIG 4536  22.588   1.076   7.072
    9AU     LIG 4537  22.572   0.655   6.800
    9AU     LIG 4538  22.841   0.247   6.646
    9AU     LIG 4539  23.117  44.838   6.520
    9AU       S 4540  23.245   2.564   6.610
    9AU     LIG 4541  23.285   2.134   6.498
    9AU     LIG 4542  23.584   1.847   6.266
    9AU     LIG 4543  23.678   1.479   5.966
    9AU     LIG 4544  23.708   1.319   5.507
    9AU     LIG 4545  23.851   1.154   5.081
   10AU     AUC 4546  24.560  25.654   7.502
   10AU     AUC 4547  24.836  25.670   7.322
   10AU     AUC 4548  24.826  25.640   7.674
   10AU     AUC 4549  24.276  25.650   7.334
   10AU     AUC 4550  24.295  25.682   7.687
   10AU     AUC 4551  24.393  25.934   7.503
   10AU     AUC 4552  24.745  25.937   7.491
   10AU     AUC 4553  24.374  25.383   7.507
   10AU     AUC 4554  24.724  25.363   7.498
   10AU     AUC 4555  24.561  25.474   7.778
   10AU     AUC 4556  24.560  25.840   7.769
   10AU     AUC 4557  24.555  25.491   7.224
   10AU     AUC 4558  24.572  25.813   7.223
   10AU     AUC 4559  25.147  25.682   7.155
   10AU     AUC 4560  25.164  25.627   7.514
   10AU     AUC 4561  25.116  25.608   7.866
   10AU     AUC 4562  23.977  25.637   7.165
   10AU     AUC 4563  23.956  25.678   7.529
   10AU     AUC 4564  24.012  25.708   7.875
   10AU     AUC 4565  24.231  26.237   7.489
   10AU     AUC 4566  24.596  26.275   7.467
   10AU     AUC 4567  24.927  26.221   7.487
   10AU     AUC 4568  24.180  25.106   7.511
   10AU     AUC 4569  24.531  25.052   7.489
   10AU     AUC 4570  24.889  25.062   7.478
   10AU     AUC 4571  24.541  25.291   8.069
   10AU     AUC 4572  24.564  25.657   8.101
   10AU     AUC 4573  24.591  26.014   8.064
   10AU     AUC 4574  24.585  25.320   6.943
   10AU     AUC 4575  24.566  25.655   6.887
   10AU     AUC 4576  24.550  25.983   6.922
   10AU     AUC 4577  24.828  25.424   7.994
   10AU     AUC 4578  24.876  25.803   7.989
   10AU     AUC 4579  24.892  25.526   6.993
   10AU     AUC 4580  24.875  25.846   7.026
   10AU     AUC 4581  24.260  25.519   8.018
   10AU     AUC 4582  24.288  25.895   7.999
   10AU     AUC 4583  24.258  25.463   7.041
   10AU     AUC 4584  24.238  25.788   6.996
   10AU     AUC 4585  25.088  25.948   7.341
   10AU     AUC 4586  25.038  25.910   7.691
   10AU     AUC 4587  24.080  25.948   7.316
   10AU     AUC 4588  24.093  25.994   7.682
   10AU     AUC 4589  25.036  25.357   7.328
   10AU     AUC 4590  25.001  25.298   7.684
   10AU     AUC 4591  24.044  25.347   7.363
   10AU     AUC 4592  24.095  25.396   7.718
   10AU     AUC 4593  24.413  26.175   7.774
   10AU     AUC 4594  24.763  26.133   7.780
   10AU     AUC 4595  24.366  25.174   7.804
   10AU     AUC 4596  24.685  25.121   7.773
   10AU     AUC 4597  24.384  26.098   7.190
   10AU     AUC 4598  24.755  26.143   7.203
   10AU     AUC 4599  24.370  25.182   7.206
   10AU     AUC 4600  24.764  25.205   7.200
   10AU    AUSL 4601  25.094  25.536   8.235
   10AU    AUSL 4602  24.814  25.135   8.151
   10AU     AUL 4603  25.109  25.131   8.361
   10AU       S 4604  25.201  24.770   8.101
   10AU     LIG 4605  25.112  24.596   8.468
   10AU     LIG 4606  25.213  24.248   8.738
   10AU     LIG 4607  25.476  23.958   8.980
   10AU     LIG 4608  25.739  23.803   9.323
   10AU     LIG 4609  25.771  23.669   9.767
   10AU       S 4610  25.322  25.530   8.358
   10AU     LIG 4611  25.201  25.539   8.791
   10AU     LIG 4612  25.310  25.379   9.216
   10AU     LIG 4613  25.591  25.228   9.571
   10AU     LIG 4614  25.913  25.248   9.918
   10AU     LIG 4615  26.300  25.216  10.190
   10AU    AUSL 4616  24.694  25.461   8.404
   10AU    AUSL 4617  24.443  25.840   8.427
   10AU     AUL 4618  24.644  25.770   8.740
   10AU       S 4619  24.782  25.377   8.560
   10AU     LIG 4620  24.770  25.344   9.005
   10AU     LIG 4621  24.890  25.148   9.413
   10AU     LIG 4622  25.134  25.097   9.819
   10AU     LIG 4623  25.274  24.972  10.255
   10AU     LIG 4624  25.324  24.799  10.690
   10AU       S 4625  24.244  25.572   8.645
   10AU     LIG 4626  24.282  25.540   9.112
   10AU     LIG 4627  24.012  25.468   9.496
   10AU     LIG 4628  23.801  25.451   9.920
   10AU     LIG 4629  23.752  25.719  10.311
   10AU     LIG 4630  23.747  26.109  10.592
   10AU    AUSL 4631  24.766  25.833   8.165
   10AU    AUSL 4632  25.209  25.924   8.096
   10AU     AUL 4633  24.996  25.841   8.446
   10AU       S 4634  24.661  26.222   8.576
   10AU     LIG 4635  25.011  26.116   8.871
   10AU     LIG 4636  25.285  26.284   9.223
   10AU     LIG 4637  25.270  26.490   9.655
   10AU     LIG 4638  25.165  26.541  10.119
   10AU     LIG 4639  25.190  26.450  10.585
   10AU       S 4640  25.375  26.054   8.276
   10AU     LIG 4641  25.796  26.084   8.314
   10AU     LIG 4642  26.045  26.282   8.660
   10AU     LIG 4643  26.266  26.510   9.007
   10AU     LIG 4644  26.642  26.664   9.216
   10AU     LIG 4645  26.926  26.711   9.597
   10AU    AUSL 4646  25.091  25.803   6.761
   10AU    AUSL 4647  24.863  26.119   6.960
   10AU     AUL 4648  25.008  26.178   6.618
   10AU       S 4649  25.041  25.849   6.303
   10AU     LIG 4650  25.404  25.642   6.096
   10AU     LIG 4651  25.450  25.367   5.724
   10AU     LIG 4652  25.637  25.268   5.305
   10AU     LIG 4653  26.042  25.182   5.049
   10AU     LIG 4654  26.406  25.173   4.730
   10AU       S 4655  25.335  26.390   6.881
   10AU     LIG 4656  25.394  26.593   6.468
   10AU     LIG 4657  25.578  26.817   6.058
   10AU     LIG 4658  25.692  26.813   5.570
   10AU     LIG 4659  25.905  27.065   5.189
   10AU     LIG 4660  26.113  27.333   4.852
   10AU    AUSL 4661  24.869  25.471   6.599
   10AU    AUSL 4662  25.248  25.442   6.929
   10AU     AUL 4663  25.280  25.570   6.606
   10AU       S 4664  25.434  25.138   6.713
   10AU     LIG 4665  25.551  24.718   6.458
   10AU     LIG 4666  25.764  24.295   6.345
   10AU     LIG 4667  26.004  23.979   6.080
   10AU     LIG 4668  26.213  23.918   5.657
   10AU     LIG 4669  26.499  24.102   5.309
   10AU       S 4670  24.954  25.709   6.293
   10AU     LIG 4671  24.997  25.308   6.107
   10AU     LIG 4672  25.037  25.059   5.697
   10AU     LIG 4673  25.162  25.039   5.235
   10AU     LIG 4674  25.118  24.993   4.751
   10AU     LIG 4675  25.268  24.946   4.295
   10AU    AUSL 4676  24.669  25.850   6.687
   10AU    AUSL 4677  24.458  25.451   6.730
   10AU     AUL 4678  24.603  25.461   6.439
   10AU       S 4679  24.172  25.491   6.289
   10AU     LIG 4680  24.287  25.308   5.911
   10AU     LIG 4681  24.081  25.056   5.588
   10AU     LIG 4682  23.864  24.993   5.180
   10AU     LIG 4683  23.788  24.711   4.801
   10AU     LIG 4684  23.814  24.613   4.332
   10AU       S 4685  24.702  25.917   6.378
   10AU     LIG 4686  24.619  25.695   5.949
   10AU     LIG 4687  24.972  25.567   5.629
   10AU     LIG 4688  25.187  25.553   5.184
   10AU     LIG 4689  25.173  25.670   4.702
   10AU     LIG 4690  25.250  25.923   4.292
   10AU    AUSL 4691  24.042  25.784   8.265
   10AU    AUSL 4692  24.314  26.147   8.162
   10AU     AUL 4693  24.193  26.062   8.500
   10AU       S 4694  24.040  25.646   8.679
   10AU     LIG 4695  23.860  25.299   8.903
   10AU     LIG 4696  23.622  25.192   9.295
   10AU     LIG 4697  23.396  25.178   9.715
   10AU     LIG 4698  23.123  25.062  10.097
   10AU     LIG 4699  22.722  25.148  10.354
   10AU       S 4700  23.945  26.364   8.233
   10AU     LIG 4701  24.019  26.534   8.621
   10AU     LIG 4702  23.943  26.747   9.017
   10AU     LIG 4703  23.627  26.964   9.260
   10AU     LIG 4704  23.333  27.110   9.588
   10AU     LIG 4705  23.256  27.353   9.989
   10AU    AUSL 4706  24.341  25.498   8.172
   10AU    AUSL 4707  23.923  25.376   8.139
   10AU     AUL 4708  23.823  25.609   8.276
   10AU       S 4709  23.828  25.157   8.400
   10AU     LIG 4710  23.383  25.073   8.224
   10AU     LIG 4711  23.142  24.676   8.302
   10AU     LIG 4712  22.891  24.397   8.589
   10AU     LIG 4713  22.650  24.086   8.857
   10AU     LIG 4714  22.481  23.910   9.259
   10AU       S 4715  24.227  25.437   8.547
   10AU     LIG 4716  24.342  25.112   8.847
   10AU     LIG 4717  24.134  25.025   9.266
   10AU     LIG 4718  23.890  24.985   9.688
   10AU     LIG 4719  23.647  24.951  10.100
   10AU     LIG 4720  23.438  24.921  10.523
   10AU    AUSL 4721  24.030  25.511   6.773
   10AU    AUSL 4722  24.237  25.162   6.947
   10AU     AUL 4723  24.268  25.165   6.618
   10AU       S 4724  23.999  25.429   6.348
   10AU     LIG 4725  23.777  25.346   5.970
   10AU     LIG 4726  23.587  25.203   5.586
   10AU     LIG 4727  23.366  25.233   5.205
   10AU     LIG 4728  22.955  25.326   5.025
   10AU     LIG 4729  22.729  25.310   4.625
   10AU       S 4730  23.861  25.016   6.777
   10AU     LIG 4731  23.766  24.563   6.693
   10AU     LIG 4732  23.433  24.274   6.537
   10AU     LIG 4733  23.143  24.069   6.214
   10AU     LIG 4734  22.991  23.882   5.802
   10AU     LIG 4735  22.999  23.900   5.321
   10AU    AUSL 4736  24.258  25.830   6.603
   10AU    AUSL 4737  23.908  25.907   6.910
   10AU     AUL 4738  23.818  25.738   6.627
   10AU       S 4739  23.932  26.176   6.663
   10AU     LIG 4740  23.527  26.194   6.625
   10AU     LIG 4741  23.347  26.416   6.252
   10AU     LIG 4742  23.187  26.649   5.876
   10AU     LIG 4743  22.838  26.808   5.619
   10AU     LIG 4744  22.421  26.796   5.396
   10AU       S 4745  24.220  25.766   6.364
   10AU     LIG 4746  24.061  25.797   5.921
   10AU     LIG 4747  23.962  25.558   5.525
   10AU     LIG 4748  23.805  25.504   5.078
   10AU     LIG 4749  23.828  25.627   4.603
   10AU     LIG 4750  23.864  25.702   4.118
   10AU    AUSL 4751  25.354  26.139   7.515
   10AU    AUSL 4752  25.258  25.974   7.109
   10AU     AUL 4753  25.609  26.254   7.286
   10AU       S 4754  25.357  26.149   6.930
   10AU     LIG 4755  25.489  26.068   6.495
   10AU     LIG 4756  25.754  26.340   6.187
   10AU     LIG 4757  26.051  26.576   5.883
   10AU     LIG 4758  26.503  26.657   5.699
   10AU     LIG 4759  26.875  26.706   5.388
   10AU       S 4760  25.759  26.003   7.672
   10AU     LIG 4761  26.184  26.094   7.561
   10AU     LIG 4762  26.620  26.249   7.557
   10AU     LIG 4763  27.053  26.443   7.539
   10AU     LIG 4764  27.440  26.715   7.463
   10AU     LIG 4765  27.718  27.089   7.572
   10AU    AUSL 4766  25.520  25.742   7.347
   10AU    AUSL 4767  25.470  25.394   7.701
   10AU     AUL 4768  25.783  25.416   7.519
   10AU       S 4769  25.704  25.843   7.447
   10AU     LIG 4770  26.089  25.698   7.251
   10AU     LIG 4771  26.529  25.765   7.335
   10AU     LIG 4772  26.971  25.968   7.314
   10AU     LIG 4773  27.412  26.158   7.316
   10AU     LIG 4774  27.700  26.461   7.077
   10AU       S 4775  25.686  24.987   7.680
   10AU     LIG 4776  26.113  25.037   7.755
   10AU     LIG 4777  26.477  24.749   7.738
   10AU     LIG 4778  26.895  24.539   7.654
   10AU     LIG 4779  27.334  24.659   7.636
   10AU     LIG 4780  27.692  24.476   7.884
   10AU    AUSL 4781  25.274  25.768   7.716
   10AU    AUSL 4782  25.025  26.164   7.782
   10AU     AUL 4783  25.364  26.189   7.829
   10AU       S 4784  25.358  26.370   8.249
   10AU     LIG 4785  25.704  26.597   8.426
   10AU     LIG 4786  25.982  26.827   8.724
   10AU     LIG 4787  26.402  27.008   8.830
   10AU     LIG 4788  26.662  27.414   8.848
   10AU     LIG 4789  26.558  27.873   8.802
   10AU       S 4790  25.634  25.808   7.825
   10AU     LIG 4791  26.108  25.668   7.840
   10AU     LIG 4792  26.574  25.822   7.850
   10AU     LIG 4793  27.004  26.019   7.843
   10AU     LIG 4794  27.445  26.042   8.033
   10AU     LIG 4795  27.894  26.264   8.098
   10AU    AUSL 4796  23.901  26.213   7.524
   10AU    AUSL 4797  23.986  25.998   7.910
   10AU     AUL 4798  23.674  26.316   7.776
   10AU       S 4799  23.817  26.175   8.189
   10AU     LIG 4800  23.701  26.105   8.610
   10AU     LIG 4801  23.542  26.439   8.905
   10AU     LIG 4802  23.215  26.692   9.140
   10AU     LIG 4803  22.911  26.814   9.482
   10AU     LIG 4804  22.505  26.863   9.716
   10AU       S 4805  23.897  26.597   7.456
   10AU     LIG 4806  23.420  26.541   7.401
   10AU     LIG 4807  23.000  26.785   7.561
   10AU     LIG 4808  22.658  27.138   7.710
   10AU     LIG 4809  22.299  27.484   7.805
   10AU     LIG 4810  21.832  27.611   7.826
   10AU    AUSL 4811  23.846  25.837   7.315
   10AU    AUSL 4812  23.986  26.283   7.119
   10AU     AUL 4813  23.685  26.138   7.167
   10AU       S 4814  23.500  25.687   6.992
   10AU     LIG 4815  23.184  26.062   7.060
   10AU     LIG 4816  22.749  26.309   7.067
   10AU     LIG 4817  22.267  26.414   6.975
   10AU     LIG 4818  21.813  26.551   7.007
   10AU     LIG 4819  21.376  26.635   7.190
   10AU       S 4820  23.790  26.541   6.921
   10AU     LIG 4821  23.755  26.651   6.473
   10AU     LIG 4822  23.505  26.931   6.182
   10AU     LIG 4823  23.268  27.289   5.966
   10AU     LIG 4824  22.987  27.695   5.960
   10AU     LIG 4825  22.570  27.961   5.940
   10AU    AUSL 4826  23.647  25.869   7.707
   10AU    AUSL 4827  23.610  25.505   7.410
   10AU     AUL 4828  23.450  25.838   7.438
   10AU       S 4829  23.405  25.422   7.677
   10AU     LIG 4830  23.104  25.411   7.327
   10AU     LIG 4831  22.713  25.160   7.330
   10AU     LIG 4832  22.244  25.110   7.357
   10AU     LIG 4833  21.793  25.030   7.329
   10AU     LIG 4834  21.414  24.761   7.344
   10AU       S 4835  23.518  25.877   7.941
   10AU     LIG 4836  23.146  26.077   7.815
   10AU     LIG 4837  22.740  26.288   7.993
   10AU     LIG 4838  22.290  26.308   8.193
   10AU     LIG 4839  21.792  26.311   8.226
   10AU     LIG 4840  21.331  26.378   8.322
   10AU    AUSL 4841  25.232  25.072   7.536
   10AU    AUSL 4842  25.088  25.325   7.875
   10AU     AUL 4843  25.392  25.219   7.952
   10AU       S 4844  25.407  24.916   7.521
   10AU     LIG 4845  25.654  24.501   7.649
   10AU     LIG 4846  26.123  24.394   7.574
   10AU     LIG 4847  26.552  24.225   7.447
   10AU     LIG 4848  26.989  24.024   7.523
   10AU     LIG 4849  27.289  23.756   7.788
   10AU       S 4850  25.310  24.773   7.970
   10AU     LIG 4851  25.580  24.473   8.214
   10AU     LIG 4852  25.719  24.280   8.621
   10AU     LIG 4853  25.990  24.022   8.920
   10AU     LIG 4854  26.239  23.975   9.331
   10AU     LIG 4855  26.583  24.002   9.669
   10AU    AUSL 4856  25.219  25.454   7.345
   10AU    AUSL 4857  25.179  25.053   7.116
   10AU     AUL 4858  25.462  25.283   7.189
   10AU       S 4859  25.667  24.957   7.423
   10AU     LIG 4860  26.093  24.828   7.293
   10AU     LIG 4861  26.545  24.707   7.228
   10AU     LIG 4862  26.985  24.826   7.060
   10AU     LIG 4863  27.444  24.697   7.102
   10AU     LIG 4864  27.902  24.659   6.953
   10AU       S 4865  25.385  24.933   6.879
   10AU     LIG 4866  25.297  24.479   6.859
   10AU     LIG 4867  25.485  24.049   6.705
   10AU     LIG 4868  25.724  23.714   6.442
   10AU     LIG 4869  26.009  23.445   6.176
   10AU     LIG 4870  26.432  23.255   6.137
   10AU    AUSL 4871  23.806  25.139   7.560
   10AU    AUSL 4872  23.920  25.376   7.155
   10AU     AUL 4873  23.567  25.222   7.272
   10AU       S 4874  23.738  25.158   6.853
   10AU     LIG 4875  23.349  24.864   6.856
   10AU     LIG 4876  23.030  24.591   6.627
   10AU     LIG 4877  22.730  24.326   6.382
   10AU     LIG 4878  22.571  24.065   6.038
   10AU     LIG 4879  22.236  23.866   5.785
   10AU       S 4880  23.374  25.172   7.703
   10AU     LIG 4881  23.208  24.881   7.370
   10AU     LIG 4882  22.822  24.654   7.220
   10AU     LIG 4883  22.344  24.604   7.340
   10AU     LIG 4884  21.864  24.503   7.416
   10AU     LIG 4885  21.429  24.248   7.435
   10AU    AUSL 4886  23.877  25.522   7.751
   10AU    AUSL 4887  24.127  25.147   7.839
   10AU     AUL 4888  23.787  25.130   7.909
   10AU       S 4889  23.842  24.946   8.334
   10AU     LIG 4890  23.643  24.660   8.023
   10AU     LIG 4891  23.343  24.298   8.011
   10AU     LIG 4892  23.041  24.022   8.267
   10AU     LIG 4893  22.795  23.698   8.543
   10AU     LIG 4894  22.596  23.479   8.911
   10AU       S 4895  23.435  25.425   7.848
   10AU     LIG 4896  22.925  25.555   7.777
   10AU     LIG 4897  22.435  25.530   7.579
   10AU     LIG 4898  21.926  25.429   7.648
   10AU     LIG 4899  21.437  25.278   7.619
   10AU     LIG 4900  21.089  24.934   7.722
   10AU    AUSL 4901  24.608  26.334   7.918
   10AU    AUSL 4902  24.163  26.373   7.823
   10AU     AUL 4903  24.409  26.461   8.189
   10AU       S 4904  24.032  26.582   7.942
   10AU     LIG 4905  23.734  26.805   8.268
   10AU     LIG 4906  23.567  26.930   8.707
   10AU     LIG 4907  23.397  27.312   8.952
   10AU     LIG 4908  23.281  27.787   9.010
   10AU     LIG 4909  22.980  28.162   9.051
   10AU       S 4910  24.656  26.795   7.983
   10AU     LIG 4911  24.872  26.808   8.341
   10AU     LIG 4912  24.982  27.251   8.459
   10AU     LIG 4913  24.865  27.651   8.706
   10AU     LIG 4914  24.744  27.929   9.079
   10AU     LIG 4915  24.617  28.142   9.496
   10AU    AUSL 4916  24.441  26.591   7.609
   10AU    AUSL 4917  24.714  26.557   7.244
   10AU     AUL 4918  24.372  26.806   7.368
   10AU       S 4919  24.507  26.810   7.820
   10AU     LIG 4920  24.662  27.281   7.931
   10AU     LIG 4921  24.763  27.658   8.198
   10AU     LIG 4922  24.552  28.030   8.441
   10AU     LIG 4923  24.217  28.408   8.454
   10AU     LIG 4924  24.025  28.850   8.536
   10AU       S 4925  24.712  26.888   7.059
   10AU     LIG 4926  25.116  27.029   6.961
   10AU     LIG 4927  25.230  27.467   6.831
   10AU     LIG 4928  25.497  27.825   6.676
   10AU     LIG 4929  25.434  28.297   6.708
   10AU     LIG 4930  25.696  28.644   6.504
   10AU    AUSL 4931  24.881  26.527   7.635
   10AU    AUSL 4932  24.902  26.228   8.194
   10AU     AUL 4933  24.995  26.484   7.967
   10AU       S 4934  25.133  26.305   8.399
   10AU     LIG 4935  25.487  26.245   8.730
   10AU     LIG 4936  25.741  26.477   9.032
   10AU     LIG 4937  25.937  26.796   9.302
   10AU     LIG 4938  25.898  26.992   9.732
   10AU     LIG 4939  26.010  27.367  10.005
   10AU       S 4940  24.842  26.834   7.672
   10AU     LIG 4941  25.131  27.066   7.966
   10AU     LIG 4942  25.319  27.499   8.102
   10AU     LIG 4943  25.470  27.943   8.228
   10AU     LIG 4944  25.568  28.380   8.391
   10AU     LIG 4945  25.579  28.847   8.433
   10AU    AUSL 4946  24.504  24.926   7.935
   10AU    AUSL 4947  24.915  24.939   7.779
   10AU     AUL 4948  24.740  24.819   8.169
   10AU       S 4949  24.480  24.486   7.981
   10AU     LIG 4950  24.417  24.274   8.339
   10AU     LIG 4951  24.340  23.820   8.411
   10AU     LIG 4952  24.376  23.336   8.435
   10AU     LIG 4953  24.488  22.859   8.510
   10AU     LIG 4954  24.593  22.544   8.874
   10AU       S 4955  25.065  24.725   7.830
   10AU     LIG 4956  25.047  24.302   8.041
   10AU     LIG 4957  25.354  24.018   8.300
   10AU     LIG 4958  25.685  23.773   8.549
   10AU     LIG 4959  25.887  23.394   8.742
   10AU     LIG 4960  26.247  23.166   8.936
   10AU    AUSL 4961  24.194  24.786   7.645
   10AU    AUSL 4962  24.289  25.096   8.248
   10AU     AUL 4963  24.148  24.820   8.006
   10AU       S 4964  24.298  24.412   7.827
   10AU     LIG 4965  24.072  24.073   8.019
   10AU     LIG 4966  24.018  23.605   8.071
   10AU     LIG 4967  24.106  23.139   8.047
   10AU     LIG 4968  23.915  22.724   8.167
   10AU     LIG 4969  23.869  22.245   8.159
   10AU       S 4970  24.089  24.977   8.448
   10AU     LIG 4971  23.919  24.478   8.420
   10AU     LIG 4972  23.459  24.294   8.513
   10AU     LIG 4973  23.168  24.000   8.768
   10AU     LIG 4974  22.970  23.782   9.131
   10AU     LIG 4975  22.878  23.822   9.597
   10AU    AUSL 4976  24.625  24.702   7.589
   10AU    AUSL 4977  24.400  24.947   7.306
   10AU     AUL 4978  24.282  24.599   7.401
   10AU       S 4979  24.643  24.517   7.138
   10AU     LIG 4980  24.229  24.264   7.045
   10AU     LIG 4981  24.096  23.825   7.067
   10AU     LIG 4982  24.155  23.359   6.993
   10AU     LIG 4983  24.219  22.895   6.876
   10AU     LIG 4984  24.034  22.471   6.863
   10AU       S 4985  24.629  24.483   7.733
   10AU     LIG 4986  24.615  24.016   7.884
   10AU     LIG 4987  24.526  23.563   7.986
   10AU     LIG 4988  24.634  23.100   8.039
   10AU     LIG 4989  24.811  22.688   8.115
   10AU     LIG 4990  24.776  22.354   8.427
   10AU    AUSL 4991  24.546  26.383   6.876
   10AU    AUSL 4992  25.064  26.328   7.275
   10AU     AUL 4993  24.882  26.485   6.934
   10AU       S 4994  24.526  26.690   6.707
   10AU     LIG 4995  24.936  26.790   6.542
   10AU     LIG 4996  25.250  27.140   6.440
   10AU     LIG 4997  25.210  27.595   6.251
   10AU     LIG 4998  25.157  27.854   5.838
   10AU     LIG 4999  24.909  28.182   5.594
   10AU       S 5000  25.255  26.526   7.188
   10AU     LIG 5001  25.573  26.817   6.937
   10AU     LIG 5002  25.792  26.904   6.532
   10AU     LIG 5003  26.122  27.204   6.453
   10AU     LIG 5004  26.409  27.532   6.297
   10AU     LIG 5005  26.488  27.847   5.958
   10AU    AUSL 5006  24.361  26.329   7.296
   10AU    AUSL 5007  24.313  26.052   6.953
   10AU     AUL 5008  24.238  26.489   7.029
   10AU       S 5009  24.501  26.857   6.922
   10AU     LIG 5010  24.734  27.237   6.688
   10AU     LIG 5011  24.812  27.697   6.606
   10AU     LIG 5012  24.540  28.101   6.637
   10AU     LIG 5013  24.155  28.409   6.660
   10AU     LIG 5014  24.047  28.860   6.667
   10AU       S 5015  24.109  26.284   6.639
   10AU     LIG 5016  23.927  26.255   6.181
   10AU     LIG 5017  23.702  26.555   5.886
   10AU     LIG 5018  23.551  26.954   5.652
   10AU     LIG 5019  23.533  27.202   5.229
   10AU     LIG 5020  23.576  27.571   4.916
   10AU    AUSL 5021  24.589  24.927   6.913
   10AU    AUSL 5022  23.990  24.946   7.231
   10AU     AUL 5023  24.257  24.791   6.969
   10AU       S 5024  23.814  24.904   7.047
   10AU     LIG 5025  23.606  24.570   7.197
   10AU     LIG 5026  23.235  24.352   7.029
   10AU     LIG 5027  23.001  24.056   6.727
   10AU     LIG 5028  22.766  23.768   6.417
   10AU     LIG 5029  22.529  23.531   6.081
   10AU       S 5030  24.653  24.516   6.937
   10AU     LIG 5031  24.642  24.069   6.819
   10AU     LIG 5032  24.394  23.700   6.661
   10AU     LIG 5033  24.359  23.257   6.526
   10AU     LIG 5034  24.489  22.828   6.404
   10AU     LIG 5035  24.573  22.481   6.089
   10AU    AUSL 5036  24.827  24.926   7.297
   10AU    AUSL 5037  24.838  25.260   6.954
   10AU     AUL 5038  24.924  24.888   6.920
   10AU       S 5039  24.890  24.545   7.237
   10AU     LIG 5040  24.658  24.086   7.350
   10AU     LIG 5041  24.581  23.643   7.143
   10AU     LIG 5042  24.646  23.183   6.967
   10AU     LIG 5043  24.710  22.716   6.850
   10AU     LIG 5044  24.905  22.471   6.494
   10AU       S 5045  25.170  25.098   6.601
   10AU     LIG 5046  25.033  24.686   6.471
   10AU     LIG 5047  25.243  24.291   6.322
   10AU     LIG 5048  25.481  23.958   6.057
   10AU     LIG 5049  25.739  23.668   5.758
   10AU     LIG 5050  25.953  23.595   5.328
   11POPC   NC3 5051  27.321  43.828   9.676
   11POPC   PO4 5052  27.896  44.218   9.568
   11POPC   GL1 5053  27.637  43.973   9.239
   11POPC   GL2 5054  27.313  44.112   9.172
   11POPC   C1A 5055  27.739  43.992   8.769
   11POPC   D2A 5056  27.798  44.186   8.339
   11POPC   C3A 5057  27.744  43.913   7.939
   11POPC   C4A 5058  27.577  44.051   7.502
   11POPC   C1B 5059  27.241  43.898   8.740
   11POPC   C2B 5060  27.381  43.884   8.291
   11POPC   C3B 5061  27.230  43.857   7.841
   11POPC   C4B 5062  27.086  44.003   7.402
   12POPC   NC3 5063  21.994  37.273   9.221
   12POPC   PO4 5064  22.038  37.922   9.514
   12POPC   GL1 5065  21.972  37.811   9.146
   12POPC   GL2 5066  22.297  37.665   9.127
   12POPC   C1A 5067  21.920  37.706   8.749
   12POPC   D2A 5068  22.154  37.705   8.410
   12POPC   C3A 5069  21.982  37.735   8.057
   12POPC   C4A 5070  22.115  37.500   7.703
   12POPC   C1B 5071  22.521  37.676   8.772
   12POPC   C2B 5072  22.634  37.876   8.386
   12POPC   C3B 5073  22.474  37.797   7.986
   12POPC   C4B 5074  22.610  37.851   7.597
   13POPC   NC3 5075   9.086  12.139   9.473
   13POPC   PO4 5076   8.426  11.956   9.534
   13POPC   GL1 5077   8.607  12.113   9.176
   13POPC   GL2 5078   8.848  11.862   9.126
   13POPC   C1A 5079   8.741  12.194   8.759
   13POPC   D2A 5080   8.726  11.905   8.431
   13POPC   C3A 5081   8.603  12.095   8.097
   13POPC   C4A 5082   8.923  12.200   7.872
   13POPC   C1B 5083   9.109  11.814   8.773
   13POPC   C2B 5084   9.229  11.895   8.350
   13POPC   C3B 5085   9.098  11.712   7.975
   13POPC   C4B 5086   9.353  11.477   7.694
   14POPC   NC3 5087  34.888  31.698   9.458
   14POPC   PO4 5088  34.455  31.153   9.524
   14POPC   GL1 5089  34.737  31.238   9.178
   14POPC   GL2 5090  34.499  31.484   9.115
   14POPC   C1A 5091  34.732  31.299   8.712
   14POPC   D2A 5092  34.440  31.378   8.393
   14POPC   C3A 5093  34.581  31.209   8.010
   14POPC   C4A 5094  35.030  31.274   7.951
   14POPC   C1B 5095  34.238  31.715   8.850
   14POPC   C2B 5096  34.145  31.794   8.427
   14POPC   C3B 5097  34.486  31.868   8.150
   14POPC   C4B 5098  34.697  31.675   7.802
   15POPC   NC3 5099  24.444  21.372   9.527
   15POPC   PO4 5100  24.128  22.052   9.606
   15POPC   GL1 5101  24.204  21.710   9.225
   15POPC   GL2 5102  24.117  21.335   9.108
   15POPC   C1A 5103  24.494  21.549   8.872
   15POPC   D2A 5104  24.482  21.540   8.419
   15POPC   C3A 5105  24.708  21.334   8.073
   15POPC   C4A 5106  24.673  21.523   7.644
   15POPC   C1B 5107  24.032  21.388   8.674
   15POPC   C2B 5108  24.107  21.227   8.262
   15POPC   C3B 5109  24.247  21.292   7.850
   15POPC   C4B 5110  24.282  21.209   7.407
   16POPC   NC3 5111  32.607   1.321   9.439
   16POPC   PO4 5112  33.216   1.007   9.473
   16POPC   GL1 5113  33.070   1.291   9.164
   16POPC   GL2 5114  32.779   1.073   9.034
   16POPC   C1A 5115  33.083   1.385   8.725
   16POPC   D2A 5116  33.335   1.193   8.405
   16POPC   C3A 5117  33.288   1.315   7.986
   16POPC   C4A 5118  32.907   1.287   7.759
   16POPC   C1B 5119  32.846   0.933   8.610
   16POPC   C2B 5120  32.899   0.966   8.161
   16POPC   C3B 5121  32.992   0.783   7.745
   16POPC   C4B 5122  32.960   0.765   7.309
   17POPC   NC3 5123  41.198   3.073   9.330
   17POPC   PO4 5124  40.790   3.555   9.537
   17POPC   GL1 5125  40.700   3.186   9.231
   17POPC   GL2 5126  40.871   3.403   9.057
   17POPC   C1A 5127  40.831   3.011   8.770
   17POPC   D2A 5128  40.808   3.300   8.427
   17POPC   C3A 5129  40.663   3.180   8.033
   17POPC   C4A 5130  40.795   3.305   7.642
   17POPC   C1B 5131  40.738   3.673   8.770
   17POPC   C2B 5132  40.694   3.812   8.349
   17POPC   C3B 5133  40.513   3.666   7.973
   17POPC   C4B 5134  40.368   3.610   7.573
   18POPC   NC3 5135   7.714   0.057   9.457
   18POPC   PO4 5136   7.114   0.336   9.654
   18POPC   GL1 5137   7.182   0.495   9.223
   18POPC   GL2 5138   7.539   0.430   9.147
   18POPC   C1A 5139   7.181   0.476   8.776
   18POPC   D2A 5140   7.204   0.565   8.345
   18POPC   C3A 5141   7.220   0.226   8.032
   18POPC   C4A 5142   7.256   0.376   7.607
   18POPC   C1B 5143   7.692   0.366   8.730
   18POPC   C2B 5144   7.638   0.219   8.309
   18POPC   C3B 5145   7.806   0.194   7.887
   18POPC   C4B 5146   7.775   0.449   7.538
   19POPC   NC3 5147  17.216   6.592   9.661
   19POPC   PO4 5148  17.866   6.291   9.445
   19POPC   GL1 5149  17.800   6.577   9.071
   19POPC   GL2 5150  17.458   6.686   8.949
   19POPC   C1A 5151  17.909   6.854   8.734
   19POPC   D2A 5152  17.646   6.879   8.384
   19POPC   C3A 5153  17.609   6.531   8.172
   19POPC   C4A 5154  17.813   6.594   7.798
   19POPC   C1B 5155  17.200   6.913   8.642
   19POPC   C2B 5156  17.146   6.790   8.242
   19POPC   C3B 5157  17.338   6.819   7.856
   19POPC   C4B 5158  17.319   7.111   7.526
   20POPC   NC3 5159  31.540  18.200   9.493
   20POPC   PO4 5160  31.308  18.678   9.343
   20POPC   GL1 5161  31.481  18.401   9.013
   20POPC   GL2 5162  31.274  18.105   9.034
   20POPC   C1A 5163  31.630  18.145   8.630
   20POPC   D2A 5164  31.813  18.007   8.202
   20POPC   C3A 5165  31.603  18.148   7.810
   20POPC   C4A 5166  31.312  18.392   7.536
   20POPC   C1B 5167  31.149  18.323   8.638
   20POPC   C2B 5168  31.276  18.319   8.195
   20POPC   C3B 5169  31.110  18.015   7.882
   20POPC   C4B 5170  30.864  18.112   7.517
   21POPC   NC3 5171  44.546  30.161   9.433
   21POPC   PO4 5172  44.855  29.589   9.578
   21POPC   GL1 5173  44.779  29.790   9.208
   21POPC   GL2 5174   0.039  30.058   9.239
   21POPC   C1A 5175  44.714  30.054   8.814
   21POPC   D2A 5176  44.500  30.085   8.435
   21POPC   C3A 5177  44.777  30.097   8.107
   21POPC   C4A 5178  44.586  30.012   7.742
   21POPC   C1B 5179   0.118  29.754   8.867
   21POPC   C2B 5180  44.994  29.774   8.450
   21POPC   C3B 5181   0.023  29.637   8.008
   21POPC   C4B 5182   0.077  29.911   7.646
   22POPC   NC3 5183   5.920   0.145   9.651
   22POPC   PO4 5184   5.522   0.702   9.574
   22POPC   GL1 5185   5.728   0.444   9.210
   22POPC   GL2 5186   5.464   0.513   8.977
   22POPC   C1A 5187   5.865   0.299   8.757
   22POPC   D2A 5188   5.815   0.516   8.339
   22POPC   C3A 5189   5.913   0.373   7.921
   22POPC   C4A 5190   5.985  44.991   7.697
   22POPC   C1B 5191   5.788   0.828   8.816
   22POPC   C2B 5192   5.928   1.011   8.404
   22POPC   C3B 5193   5.800   0.925   7.973
   22POPC   C4B 5194   5.793   0.713   7.563
   23POPC   NC3 5195  39.655   0.465   9.780
   23POPC   PO4 5196  39.047   0.416   9.520
   23POPC   GL1 5197  39.082   0.250   9.133
   23POPC   GL2 5198  39.422   0.153   9.198
   23POPC   C1A 5199  39.261   0.414   8.758
   23POPC   D2A 5200  39.482   0.504   8.381
   23POPC   C3A 5201  39.227   0.702   8.082
   23POPC   C4A 5202  39.065   0.518   7.717
   23POPC   C1B 5203  39.420  44.918   8.767
   23POPC   C2B 5204  39.257   0.040   8.352
   23POPC   C3B 5205  39.410   0.226   7.943
   23POPC   C4B 5206  39.456   0.192   7.463
   24POPC   NC3 5207  29.507   1.872   9.469
   24POPC   PO4 5208  28.859   2.170   9.343
   24POPC   GL1 5209  28.984   1.953   8.989
   24POPC   GL2 5210  29.326   1.950   8.998
   24POPC   C1A 5211  28.892   1.686   8.631
   24POPC   D2A 5212  29.237   1.511   8.349
   24POPC   C3A 5213  29.311   1.825   8.001
   24POPC   C4A 5214  28.963   1.905   7.701
   24POPC   C1B 5215  29.306   1.996   8.543
   24POPC   C2B 5216  29.495   2.271   8.253
   24POPC   C3B 5217  29.553   2.323   7.810
   24POPC   C4B 5218  29.440   1.991   7.502
   25POPC   NC3 5219  11.462  20.479   9.431
   25POPC   PO4 5220  11.121  21.087   9.350
   25POPC   GL1 5221  11.103  20.727   9.081
   25POPC   GL2 5222  11.441  20.830   9.056
   25POPC   C1A 5223  11.312  20.474   8.726
   25POPC   D2A 5224  11.460  20.331   8.322
   25POPC   C3A 5225  11.231  20.363   7.949
   25POPC   C4A 5226  11.144  20.622   7.599
   25POPC   C1B 5227  11.595  20.935   8.683
   25POPC   C2B 5228  11.466  20.838   8.290
   25POPC   C3B 5229  11.573  20.741   7.862
   25POPC   C4B 5230  11.530  20.991   7.491
   26POPC   NC3 5231   8.031  15.229   9.551
   26POPC   PO4 5232   8.619  15.451   9.441
   26POPC   GL1 5233   8.342  15.201   9.136
   26POPC   GL2 5234   8.010  14.982   9.122
   26POPC   C1A 5235   8.130  15.326   8.760
   26POPC   D2A 5236   8.367  15.498   8.421
   26POPC   C3A 5237   8.227  15.369   8.047
   26POPC   C4A 5238   8.137  15.253   7.658
   26POPC   C1B 5239   8.189  14.818   8.751
   26POPC   C2B 5240   8.120  14.962   8.351
   26POPC   C3B 5241   8.284  14.840   7.947
   26POPC   C4B 5242   8.311  14.804   7.489
   27POPC   NC3 5243   4.544   8.715   9.483
   27POPC   PO4 5244   4.086   9.103   9.316
   27POPC   GL1 5245   4.353   8.888   9.037
   27POPC   GL2 5246   4.395   8.510   9.047
   27POPC   C1A 5247   4.389   8.954   8.615
   27POPC   D2A 5248   4.291   9.322   8.388
   27POPC   C3A 5249   4.317   9.216   7.980
   27POPC   C4A 5250   4.597   8.950   7.791
   27POPC   C1B 5251   4.093   8.543   8.751
   27POPC   C2B 5252   4.009   8.531   8.331
   27POPC   C3B 5253   4.277   8.662   8.055
   27POPC   C4B 5254   4.111   8.791   7.692
   28POPC   NC3 5255   2.367  36.002   9.441
   28POPC   PO4 5256   1.674  36.183   9.425
   28POPC   GL1 5257   2.037  36.341   9.177
   28POPC   GL2 5258   2.177  36.646   9.343
   28POPC   C1A 5259   2.218  36.170   8.761
   28POPC   D2A 5260   2.179  35.953   8.326
   28POPC   C3A 5261   1.964  36.079   7.920
   28POPC   C4A 5262   1.725  36.459   7.802
   28POPC   C1B 5263   2.248  36.712   8.884
   28POPC   C2B 5264   2.078  36.581   8.500
   28POPC   C3B 5265   2.197  36.487   8.108
   28POPC   C4B 5266   2.216  36.659   7.745
   29POPC   NC3 5267  20.262  26.080   9.356
   29POPC   PO4 5268  19.726  25.749   9.589
   29POPC   GL1 5269  19.797  25.893   9.213
   29POPC   GL2 5270  20.038  25.694   9.109
   29POPC   C1A 5271  19.633  26.072   8.858
   29POPC   D2A 5272  19.712  26.261   8.488
   29POPC   C3A 5273  19.730  26.151   8.081
   29POPC   C4A 5274  20.074  26.293   7.877
   29POPC   C1B 5275  19.784  25.592   8.751
   29POPC   C2B 5276  19.867  25.704   8.314
   29POPC   C3B 5277  20.044  25.763   7.892
   29POPC   C4B 5278  19.974  25.580   7.515
   30POPC   NC3 5279   3.620   1.489   9.389
   30POPC   PO4 5280   3.184   1.032   9.451
   30POPC   GL1 5281   3.460   1.075   9.119
   30POPC   GL2 5282   3.832   1.118   9.117
   30POPC   C1A 5283   3.560   0.984   8.727
   30POPC   D2A 5284   3.677   1.083   8.335
   30POPC   C3A 5285   3.437   1.292   8.024
   30POPC   C4A 5286   3.458   1.176   7.581
   30POPC   C1B 5287   3.980   1.300   8.699
   30POPC   C2B 5288   4.114   1.358   8.253
   30POPC   C3B 5289   3.933   1.302   7.800
   30POPC   C4B 5290   3.826   1.447   7.325
   31POPC   NC3 5291   8.511  30.554   9.475
   31POPC   PO4 5292   7.960  31.031   9.406
   31POPC   GL1 5293   8.129  30.950   9.035
   31POPC   GL2 5294   8.188  30.600   9.082
   31POPC   C1A 5295   8.520  30.985   8.838
   31POPC   D2A 5296   8.655  30.916   8.425
   31POPC   C3A 5297   8.421  30.716   8.084
   31POPC   C4A 5298   8.003  30.637   7.948
   31POPC   C1B 5299   8.281  30.567   8.648
   31POPC   C2B 5300   8.058  30.864   8.440
   31POPC   C3B 5301   7.849  31.101   8.133
   31POPC   C4B 5302   7.759  31.027   7.708
   32POPC   NC3 5303   6.419  24.044   9.906
   32POPC   PO4 5304   6.742  23.624   9.471
   32POPC   GL1 5305   6.529  23.725   9.103
   32POPC   GL2 5306   6.823  23.962   9.034
   32POPC   C1A 5307   6.404  23.973   8.742
   32POPC   D2A 5308   6.462  23.821   8.343
   32POPC   C3A 5309   6.449  24.096   7.997
   32POPC   C4A 5310   6.483  23.929   7.617
   32POPC   C1B 5311   6.894  23.869   8.619
   32POPC   C2B 5312   6.948  23.932   8.185
   32POPC   C3B 5313   6.786  23.678   7.921
   32POPC   C4B 5314   6.915  23.261   7.829
   33POPC   NC3 5315  18.395  39.920   9.583
   33POPC   PO4 5316  18.601  40.499   9.208
   33POPC   GL1 5317  18.481  40.083   9.114
   33POPC   GL2 5318  18.671  39.740   9.182
   33POPC   C1A 5319  18.287  39.834   8.815
   33POPC   D2A 5320  18.188  39.972   8.427
   33POPC   C3A 5321  18.283  39.722   8.112
   33POPC   C4A 5322  18.004  39.744   7.768
   33POPC   C1B 5323  18.805  39.861   8.781
   33POPC   C2B 5324  18.696  40.087   8.447
   33POPC   C3B 5325  18.652  40.088   8.023
   33POPC   C4B 5326  18.511  39.853   7.678
   34POPC   NC3 5327  36.364   4.678   9.251
   34POPC   PO4 5328  35.841   4.364   9.413
   34POPC   GL1 5329  35.936   4.203   9.058
   34POPC   GL2 5330  36.287   4.130   9.119
   34POPC   C1A 5331  35.917   4.324   8.658
   34POPC   D2A 5332  36.080   4.611   8.387
   34POPC   C3A 5333  36.149   4.482   7.980
   34POPC   C4A 5334  35.934   4.340   7.640
   34POPC   C1B 5335  36.449   4.304   8.717
   34POPC   C2B 5336  36.578   4.434   8.308
   34POPC   C3B 5337  36.620   4.624   7.900
   34POPC   C4B 5338  36.353   4.652   7.514
   35POPC   NC3 5339  22.088  43.710   9.539
   35POPC   PO4 5340  22.707  43.882   9.575
   35POPC   GL1 5341  22.426  43.867   9.191
   35POPC   GL2 5342  22.031  43.978   9.116
   35POPC   C1A 5343  22.455  43.910   8.771
   35POPC   D2A 5344  22.251  43.823   8.371
   35POPC   C3A 5345  22.016  44.085   8.099
   35POPC   C4A 5346  22.111  44.098   7.653
   35POPC   C1B 5347  22.022  43.651   8.801
   35POPC   C2B 5348  21.880  43.463   8.386
   35POPC   C3B 5349  22.047  43.571   7.935
   35POPC   C4B 5350  22.058  43.626   7.454
   36POPC   NC3 5351   7.982  11.794   9.564
   36POPC   PO4 5352   7.826  12.436   9.441
   36POPC   GL1 5353   8.085  12.165   9.191
   36POPC   GL2 5354   8.050  11.862   9.077
   36POPC   C1A 5355   8.218  12.324   8.814
   36POPC   D2A 5356   7.986  12.420   8.441
   36POPC   C3A 5357   8.110  12.266   8.035
   36POPC   C4A 5358   8.363  12.340   7.680
   36POPC   C1B 5359   8.340  11.850   8.776
   36POPC   C2B 5360   8.203  11.899   8.370
   36POPC   C3B 5361   8.253  11.768   7.927
   36POPC   C4B 5362   8.613  11.877   7.625
   37POPC   NC3 5363  15.138  18.615   9.724
   37POPC   PO4 5364  15.093  19.259   9.539
   37POPC   GL1 5365  15.150  19.063   9.135
   37POPC   GL2 5366  15.463  19.000   9.086
   37POPC   C1A 5367  15.174  19.008   8.671
   37POPC   D2A 5368  15.291  18.785   8.377
   37POPC   C3A 5369  15.175  18.985   8.049
   37POPC   C4A 5370  15.094  18.802   7.697
   37POPC   C1B 5371  15.580  19.252   8.767
   37POPC   C2B 5372  15.520  19.247   8.351
   37POPC   C3B 5373  15.685  19.297   7.984
   37POPC   C4B 5374  15.508  19.122   7.649
   38POPC   NC3 5375  43.544  27.774   9.535
   38POPC   PO4 5376  42.888  27.494   9.529
   38POPC   GL1 5377  42.952  27.479   9.123
   38POPC   GL2 5378  43.161  27.728   9.070
   38POPC   C1A 5379  42.729  27.397   8.774
   38POPC   D2A 5380  42.711  27.217   8.403
   38POPC   C3A 5381  42.984  27.461   8.151
   38POPC   C4A 5382  42.796  27.476   7.752
   38POPC   C1B 5383  43.197  27.611   8.620
   38POPC   C2B 5384  43.442  27.291   8.379
   38POPC   C3B 5385  43.479  27.133   7.972
   38POPC   C4B 5386  43.293  27.445   7.723
   39POPC   NC3 5387  14.246  42.841  10.058
   39POPC   PO4 5388  14.654  42.911   9.506
   39POPC   GL1 5389  14.651  43.050   9.094
   39POPC   GL2 5390  14.943  43.278   9.041
   39POPC   C1A 5391  14.357  42.965   8.738
   39POPC   D2A 5392  14.320  42.692   8.406
   39POPC   C3A 5393  14.241  42.860   8.019
   39POPC   C4A 5394  14.328  43.191   7.770
   39POPC   C1B 5395  14.826  43.118   8.614
   39POPC   C2B 5396  14.587  43.240   8.264
   39POPC   C3B 5397  14.778  43.377   7.888
   39POPC   C4B 5398  14.891  43.426   7.439
   40POPC   NC3 5399  35.624  26.769   9.555
   40POPC   PO4 5400  34.979  27.071   9.540
   40POPC   GL1 5401  35.251  27.069   9.149
   40POPC   GL2 5402  35.370  26.713   9.105
   40POPC   C1A 5403  35.216  26.965   8.696
   40POPC   D2A 5404  35.236  26.782   8.277
   40POPC   C3A 5405  35.056  27.000   7.879
   40POPC   C4A 5406  35.179  27.049   7.437
   40POPC   C1B 5407  35.627  26.562   8.745
   40POPC   C2B 5408  35.702  26.347   8.330
   40POPC   C3B 5409  35.335  26.321   8.094
   40POPC   C4B 5410  35.375  26.640   7.792
   41POPC   NC3 5411  27.163  22.379   9.542
   41POPC   PO4 5412  26.618  22.096   9.512
   41POPC   GL1 5413  26.785  22.032   9.106
   41POPC   GL2 5414  27.076  22.248   9.045
   41POPC   C1A 5415  26.746  22.112   8.678
   41POPC   D2A 5416  27.011  22.288   8.402
   41POPC   C3A 5417  26.938  22.194   7.963
   41POPC   C4A 5418  26.610  22.382   7.682
   41POPC   C1B 5419  27.225  21.942   8.755
   41POPC   C2B 5420  27.107  21.787   8.369
   41POPC   C3B 5421  27.225  21.750   7.949
   41POPC   C4B 5422  27.205  21.990   7.558
   42POPC   NC3 5423  28.651  10.838   9.203
   42POPC   PO4 5424  28.081  10.790   9.562
   42POPC   GL1 5425  28.258  10.554   9.113
   42POPC   GL2 5426  28.476  10.285   9.123
   42POPC   C1A 5427  28.441  10.514   8.651
   42POPC   D2A 5428  28.533  10.277   8.260
   42POPC   C3A 5429  28.432  10.548   7.871
   42POPC   C4A 5430  28.182  10.975   7.817
   42POPC   C1B 5431  28.122  10.167   8.812
   42POPC   C2B 5432  28.016  10.202   8.361
   42POPC   C3B 5433  28.159  10.109   7.923
   42POPC   C4B 5434  28.170  10.218   7.479
   43POPC   NC3 5435  25.860   1.200   9.794
   43POPC   PO4 5436  26.352   0.866   9.531
   43POPC   GL1 5437  26.378   1.022   9.082
   43POPC   GL2 5438  26.543   1.369   9.008
   43POPC   C1A 5439  26.219   1.029   8.657
   43POPC   D2A 5440  26.096   1.233   8.256
   43POPC   C3A 5441  25.951   1.080   7.832
   43POPC   C4A 5442  25.933   1.239   7.369
   43POPC   C1B 5443  26.483   1.455   8.584
   43POPC   C2B 5444  26.604   1.220   8.233
   43POPC   C3B 5445  26.412   1.307   7.843
   43POPC   C4B 5446  26.411   1.427   7.408
   44POPC   NC3 5447   1.412  33.448   9.445
   44POPC   PO4 5448   1.236  34.096   9.449
   44POPC   GL1 5449   1.098  33.835   9.162
   44POPC   GL2 5450   1.436  33.810   9.061
   44POPC   C1A 5451   0.951  33.900   8.765
   44POPC   D2A 5452   1.045  33.750   8.392
   44POPC   C3A 5453   1.015  33.902   8.006
   44POPC   C4A 5454   1.272  34.091   7.763
   44POPC   C1B 5455   1.377  33.541   8.728
   44POPC   C2B 5456   1.409  33.419   8.296
   44POPC   C3B 5457   1.404  33.566   7.836
   44POPC   C4B 5458   1.450  33.273   7.475
   45POPC   NC3 5459  43.070  17.289   9.583
   45POPC   PO4 5460  43.670  17.355   9.446
   45POPC   GL1 5461  43.256  17.506   9.137
   45POPC   GL2 5462  42.870  17.408   9.080
   45POPC   C1A 5463  43.092  17.715   8.710
   45POPC   D2A 5464  43.034  17.981   8.335
   45POPC   C3A 5465  42.921  17.863   7.900
   45POPC   C4A 5466  43.030  17.636   7.485
   45POPC   C1B 5467  42.997  17.228   8.663
   45POPC   C2B 5468  43.138  17.359   8.210
   45POPC   C3B 5469  42.807  17.352   7.851
   45POPC   C4B 5470  42.670  17.230   7.407
   46POPC   NC3 5471   6.085  28.828   9.439
   46POPC   PO4 5472   5.845  28.164   9.447
   46POPC   GL1 5473   5.707  28.279   9.054
   46POPC   GL2 5474   5.724  28.645   9.060
   46POPC   C1A 5475   5.676  28.334   8.648
   46POPC   D2A 5476   5.881  28.161   8.343
   46POPC   C3A 5477   5.709  28.183   7.968
   46POPC   C4A 5478   5.668  28.587   7.827
   46POPC   C1B 5479   6.056  28.686   8.786
   46POPC   C2B 5480   6.202  28.600   8.396
   46POPC   C3B 5481   6.152  28.700   7.986
   46POPC   C4B 5482   6.377  28.572   7.655
   47POPC   NC3 5483  36.512  37.756   9.704
   47POPC   PO4 5484  35.899  37.680   9.453
   47POPC   GL1 5485  36.155  37.786   9.143
   47POPC   GL2 5486  36.482  37.641   9.189
   47POPC   C1A 5487  36.078  37.752   8.723
   47POPC   D2A 5488  36.308  37.893   8.380
   47POPC   C3A 5489  36.021  37.937   8.050
   47POPC   C4A 5490  36.104  37.920   7.643
   47POPC   C1B 5491  36.437  37.388   8.796
   47POPC   C2B 5492  36.320  37.375   8.371
   47POPC   C3B 5493  36.398  37.555   7.985
   47POPC   C4B 5494  36.323  37.445   7.556
   48POPC   NC3 5495  20.436  35.325   9.448
   48POPC   PO4 5496  20.699  35.878   9.311
   48POPC   GL1 5497  20.719  35.480   9.080
   48POPC   GL2 5498  20.760  35.069   9.143
   48POPC   C1A 5499  20.495  35.595   8.704
   48POPC   D2A 5500  20.303  35.599   8.305
   48POPC   C3A 5501  20.580  35.619   7.939
   48POPC   C4A 5502  20.637  35.365   7.544
   48POPC   C1B 5503  20.656  35.106   8.714
   48POPC   C2B 5504  20.748  35.318   8.343
   48POPC   C3B 5505  20.732  35.111   7.963
   48POPC   C4B 5506  20.633  34.854   7.604
   49POPC   NC3 5507  23.086  29.960   9.577
   49POPC   PO4 5508  23.694  30.129   9.676
   49POPC   GL1 5509  23.645  30.230   9.212
   49POPC   GL2 5510  23.281  30.269   9.165
   49POPC   C1A 5511  23.847  30.376   8.811
   49POPC   D2A 5512  24.108  30.294   8.425
   49POPC   C3A 5513  23.918  30.152   8.051
   49POPC   C4A 5514  23.797  29.726   7.935
   49POPC   C1B 5515  23.350  30.074   8.796
   49POPC   C2B 5516  23.566  30.146   8.434
   49POPC   C3B 5517  23.394  30.060   8.044
   49POPC   C4B 5518  23.358  29.806   7.660
   50POPC   NC3 5519  20.399  22.765   9.549
   50POPC   PO4 5520  20.877  23.177   9.738
   50POPC   GL1 5521  20.694  23.035   9.260
   50POPC   GL2 5522  20.729  22.661   9.164
   50POPC   C1A 5523  20.728  23.025   8.771
   50POPC   D2A 5524  20.434  23.142   8.411
   50POPC   C3A 5525  20.501  22.949   7.989
   50POPC   C4A 5526  20.216  23.013   7.658
   50POPC   C1B 5527  20.697  22.515   8.724
   50POPC   C2B 5528  20.750  22.431   8.300
   50POPC   C3B 5529  20.627  22.449   7.862
   50POPC   C4B 5530  20.937  22.619   7.618
   51POPC   NC3 5531  38.916  12.184   9.435
   51POPC   PO4 5532  39.445  11.787   9.518
   51POPC   GL1 5533  39.216  11.859   9.136
   51POPC   GL2 5534  38.901  11.836   8.994
   51POPC   C1A 5535  39.293  11.990   8.713
   51POPC   D2A 5536  39.467  11.775   8.409
   51POPC   C3A 5537  39.218  11.881   8.128
   51POPC   C4A 5538  39.436  12.004   7.797
   51POPC   C1B 5539  38.781  12.071   8.627
   51POPC   C2B 5540  38.988  12.386   8.410
   51POPC   C3B 5541  39.105  12.363   7.978
   51POPC   C4B 5542  38.821  12.000   7.819
   52POPC   NC3 5543   8.738   3.841   9.877
   52POPC   PO4 5544   8.752   3.334   9.478
   52POPC   GL1 5545   8.892   3.500   9.039
   52POPC   GL2 5546   9.227   3.453   8.979
   52POPC   C1A 5547   8.882   3.348   8.634
   52POPC   D2A 5548   8.954   3.098   8.280
   52POPC   C3A 5549   8.888   3.434   7.987
   52POPC   C4A 5550   8.925   3.663   7.607
   52POPC   C1B 5551   9.361   3.642   8.669
   52POPC   C2B 5552   9.312   3.480   8.291
   52POPC   C3B 5553   9.402   3.572   7.888
   52POPC   C4B 5554   9.315   3.345   7.540
   53POPC   NC3 5555  30.403   5.151   9.631
   53POPC   PO4 5556  31.018   4.887   9.579
   53POPC   GL1 5557  30.754   4.968   9.191
   53POPC   GL2 5558  30.438   5.130   9.145
   53POPC   C1A 5559  30.787   5.131   8.753
   53POPC   D2A 5560  30.930   5.071   8.315
   53POPC   C3A 5561  30.752   5.266   7.946
   53POPC   C4A 5562  30.863   5.212   7.539
   53POPC   C1B 5563  30.313   4.915   8.806
   53POPC   C2B 5564  30.390   5.099   8.426
   53POPC   C3B 5565  30.265   5.099   8.025
   53POPC   C4B 5566  30.401   4.995   7.624
   54POPC   NC3 5567  36.506  28.118   9.583
   54POPC   PO4 5568  35.950  28.424   9.311
   54POPC   GL1 5569  36.320  28.376   9.113
   54POPC   GL2 5570  36.377  28.039   9.082
   54POPC   C1A 5571  36.285  28.350   8.677
   54POPC   D2A 5572  36.501  28.318   8.324
   54POPC   C3A 5573  36.230  28.427   8.017
   54POPC   C4A 5574  36.214  28.242   7.629
   54POPC   C1B 5575  35.973  27.973   8.852
   54POPC   C2B 5576  35.871  28.100   8.424
   54POPC   C3B 5577  36.034  27.966   8.023
   54POPC   C4B 5578  35.736  27.826   7.715
   55POPC   NC3 5579  35.775   1.042   9.465
   55POPC   PO4 5580  36.174   1.489   9.745
   55POPC   GL1 5581  36.106   1.337   9.195
   55POPC   GL2 5582  35.894   1.158   9.003
   55POPC   C1A 5583  36.310   1.223   8.744
   55POPC   D2A 5584  36.660   1.192   8.399
   55POPC   C3A 5585  36.444   1.146   8.006
   55POPC   C4A 5586  36.006   1.236   7.835
   55POPC   C1B 5587  35.788   1.478   8.728
   55POPC   C2B 5588  35.823   1.364   8.314
   55POPC   C3B 5589  35.821   0.931   8.204
   55POPC   C4B 5590  35.726   0.805   7.777
   56POPC   NC3 5591  17.645   7.487   9.540
   56POPC   PO4 5592  17.527   6.837   9.428
   56POPC   GL1 5593  17.530   7.203   9.115
   56POPC   GL2 5594  17.442   7.607   9.041
   56POPC   C1A 5595  17.599   7.280   8.694
   56POPC   D2A 5596  17.403   7.320   8.302
   56POPC   C3A 5597  17.630   7.219   7.957
   56POPC   C4A 5598  17.929   7.494   7.845
   56POPC   C1B 5599  17.090   7.442   8.715
   56POPC   C2B 5600  16.907   7.278   8.286
   56POPC   C3B 5601  17.117   7.473   7.881
   56POPC   C4B 5602  17.140   7.773   7.503
   57POPC   NC3 5603  36.350  26.605   9.857
   57POPC   PO4 5604  35.904  27.042   9.819
   57POPC   GL1 5605  36.081  27.085   9.366
   57POPC   GL2 5606  35.873  26.892   9.141
   57POPC   C1A 5607  36.259  27.113   8.904
   57POPC   D2A 5608  36.374  26.890   8.493
   57POPC   C3A 5609  36.237  27.085   8.087
   57POPC   C4A 5610  36.267  26.956   7.636
   57POPC   C1B 5611  35.763  27.048   8.748
   57POPC   C2B 5612  35.852  26.845   8.358
   57POPC   C3B 5613  35.849  26.777   7.915
   57POPC   C4B 5614  35.665  27.021   7.584
   58POPC   NC3 5615  15.992   2.200   9.556
   58POPC   PO4 5616  16.241   1.577   9.411
   58POPC   GL1 5617  15.931   1.873   9.169
   58POPC   GL2 5618  15.813   2.262   9.102
   58POPC   C1A 5619  15.796   1.905   8.748
   58POPC   D2A 5620  16.121   1.843   8.437
   58POPC   C3A 5621  15.980   1.714   8.050
   58POPC   C4A 5622  15.613   1.635   7.827
   58POPC   C1B 5623  16.046   2.355   8.718
   58POPC   C2B 5624  15.927   2.279   8.273
   58POPC   C3B 5625  16.083   2.183   7.845
   58POPC   C4B 5626  16.237   2.154   7.408
   59POPC   NC3 5627  13.913  21.553   9.624
   59POPC   PO4 5628  13.505  21.145   9.413
   59POPC   GL1 5629  13.681  21.424   9.136
   59POPC   GL2 5630  13.897  21.704   9.112
   59POPC   C1A 5631  13.797  21.337   8.722
   59POPC   D2A 5632  13.655  21.148   8.345
   59POPC   C3A 5633  13.705  21.273   7.926
   59POPC   C4A 5634  13.264  21.274   7.764
   59POPC   C1B 5635  13.588  21.795   8.809
   59POPC   C2B 5636  13.436  21.610   8.488
   59POPC   C3B 5637  13.453  21.671   8.088
   59POPC   C4B 5638  13.743  21.841   7.867
   60POPC   NC3 5639  32.453  33.882   9.554
   60POPC   PO4 5640  31.886  34.042   9.273
   60POPC   GL1 5641  32.144  33.718   9.137
   60POPC   GL2 5642  32.464  33.509   9.214
   60POPC   C1A 5643  32.037  33.579   8.765
   60POPC   D2A 5644  32.269  33.651   8.390
   60POPC   C3A 5645  32.100  33.699   8.028
   60POPC   C4A 5646  31.827  33.772   7.750
   60POPC   C1B 5647  32.577  33.647   8.799
   60POPC   C2B 5648  32.565  34.023   8.507
   60POPC   C3B 5649  32.526  34.013   8.070
   60POPC   C4B 5650  32.540  33.657   7.771
   61POPC   NC3 5651   5.633  25.345   9.440
   61POPC   PO4 5652   6.059  24.787   9.399
   61POPC   GL1 5653   5.930  25.084   9.110
   61POPC   GL2 5654   5.608  25.051   9.031
   61POPC   C1A 5655   5.914  25.420   8.802
   61POPC   D2A 5656   6.090  25.415   8.407
   61POPC   C3A 5657   5.843  25.353   8.061
   61POPC   C4A 5658   5.686  25.241   7.678
   61POPC   C1B 5659   5.815  24.949   8.615
   61POPC   C2B 5660   5.577  24.928   8.227
   61POPC   C3B 5661   5.412  24.855   7.830
   61POPC   C4B 5662   5.190  25.189   7.612
   62POPC   NC3 5663  20.006  32.449   9.490
   62POPC   PO4 5664  19.995  31.847   9.507
   62POPC   GL1 5665  19.731  32.116   9.197
   62POPC   GL2 5666  19.512  32.416   9.291
   62POPC   C1A 5667  19.857  32.087   8.744
   62POPC   D2A 5668  20.143  31.932   8.399
   62POPC   C3A 5669  20.126  31.950   7.924
   62POPC   C4A 5670  19.778  32.036   7.616
   62POPC   C1B 5671  19.679  32.581   8.883
   62POPC   C2B 5672  19.886  32.518   8.470
   62POPC   C3B 5673  19.806  32.330   8.072
   62POPC   C4B 5674  19.729  32.517   7.673
   63POPC   NC3 5675   1.420  16.441   9.511
   63POPC   PO4 5676   1.070  17.014   9.555
   63POPC   GL1 5677   1.150  16.790   9.211
   63POPC   GL2 5678   1.452  16.907   9.096
   63POPC   C1A 5679   1.057  16.884   8.782
   63POPC   D2A 5680   0.954  16.714   8.413
   63POPC   C3A 5681   1.228  16.817   8.099
   63POPC   C4A 5682   1.204  16.665   7.687
   63POPC   C1B 5683   1.616  16.863   8.673
   63POPC   C2B 5684   1.796  16.534   8.403
   63POPC   C3B 5685   1.648  16.431   7.978
   63POPC   C4B 5686   1.651  16.531   7.500
   64POPC   NC3 5687  39.516  22.755   9.349
   64POPC   PO4 5688  39.089  23.301   9.535
   64POPC   GL1 5689  39.063  22.940   9.236
   64POPC   GL2 5690  39.146  23.127   8.967
   64POPC   C1A 5691  39.146  22.648   8.834
   64POPC   D2A 5692  39.100  22.583   8.354
   64POPC   C3A 5693  39.159  22.976   8.068
   64POPC   C4A 5694  39.339  23.158   7.675
   64POPC   C1B 5695  39.325  23.024   8.547
   64POPC   C2B 5696  39.581  22.745   8.235
   64POPC   C3B 5697  39.453  22.631   7.802
   64POPC   C4B 5698  39.511  22.781   7.370
   65POPC   NC3 5699  24.347   6.657   9.549
   65POPC   PO4 5700  24.927   6.322   9.761
   65POPC   GL1 5701  24.760   6.583   9.235
   65POPC   GL2 5702  24.417   6.786   9.082
   65POPC   C1A 5703  24.618   6.472   8.783
   65POPC   D2A 5704  24.579   6.661   8.424
   65POPC   C3A 5705  24.520   6.439   8.069
   65POPC   C4A 5706  24.572   6.593   7.677
   65POPC   C1B 5707  24.208   6.989   8.695
   65POPC   C2B 5708  24.154   6.929   8.205
   65POPC   C3B 5709  24.093   6.993   7.721
   65POPC   C4B 5710  23.898   6.826   7.294
   66POPC   NC3 5711  21.836  16.433   9.825
   66POPC   PO4 5712  22.363  16.872   9.651
   66POPC   GL1 5713  22.288  16.641   9.299
   66POPC   GL2 5714  22.584  16.511   9.155
   66POPC   C1A 5715  22.225  16.740   8.874
   66POPC   D2A 5716  22.247  16.869   8.463
   66POPC   C3A 5717  22.171  16.484   8.193
   66POPC   C4A 5718  21.944  16.462   7.786
   66POPC   C1B 5719  22.609  16.410   8.737
   66POPC   C2B 5720  22.671  16.612   8.365
   66POPC   C3B 5721  22.498  16.811   8.007
   66POPC   C4B 5722  22.441  16.594   7.643
   67POPC   NC3 5723  40.544  38.108   9.340
   67POPC   PO4 5724  40.561  38.667   9.665
   67POPC   GL1 5725  40.873  38.637   9.275
   67POPC   GL2 5726  41.009  38.285   9.258
   67POPC   C1A 5727  40.920  38.820   8.835
   67POPC   D2A 5728  40.749  38.779   8.415
   67POPC   C3A 5729  40.970  38.623   8.070
   67POPC   C4A 5730  41.008  38.712   7.619
   67POPC   C1B 5731  41.039  38.129   8.821
   67POPC   C2B 5732  40.824  38.242   8.438
   67POPC   C3B 5733  40.639  38.256   8.041
   67POPC   C4B 5734  40.894  38.199   7.721
   68POPC   NC3 5735   6.270   3.350   9.678
   68POPC   PO4 5736   6.742   3.766   9.668
   68POPC   GL1 5737   6.712   3.655   9.222
   68POPC   GL2 5738   6.340   3.543   9.210
   68POPC   C1A 5739   6.901   3.660   8.782
   68POPC   D2A 5740   6.817   3.407   8.421
   68POPC   C3A 5741   6.724   3.668   8.066
   68POPC   C4A 5742   6.973   3.775   7.730
   68POPC   C1B 5743   6.415   3.506   8.787
   68POPC   C2B 5744   6.314   3.425   8.372
   68POPC   C3B 5745   6.498   3.209   8.022
   68POPC   C4B 5746   6.390   3.481   7.708
   69POPC   NC3 5747  38.703  23.499   9.732
   69POPC   PO4 5748  38.350  22.949   9.519
   69POPC   GL1 5749  38.358  23.102   9.111
   69POPC   GL2 5750  38.615  22.861   9.020
   69POPC   C1A 5751  38.367  23.163   8.646
   69POPC   D2A 5752  38.455  23.284   8.229
   69POPC   C3A 5753  38.332  23.066   7.860
   69POPC   C4A 5754  38.329  22.657   7.639
   69POPC   C1B 5755  38.812  22.956   8.620
   69POPC   C2B 5756  38.615  22.780   8.295
   69POPC   C3B 5757  38.734  22.749   7.925
   69POPC   C4B 5758  38.815  23.166   7.727
   70POPC   NC3 5759  10.863  38.453   9.730
   70POPC   PO4 5760  10.219  38.186   9.607
   70POPC   GL1 5761  10.403  38.240   9.214
   70POPC   GL2 5762  10.446  38.607   9.132
   70POPC   C1A 5763  10.224  38.247   8.805
   70POPC   D2A 5764  10.361  38.119   8.413
   70POPC   C3A 5765  10.292  38.371   8.075
   70POPC   C4A 5766  10.322  38.560   7.690
   70POPC   C1B 5767  10.548  38.612   8.672
   70POPC   C2B 5768  10.702  38.608   8.240
   70POPC   C3B 5769  10.805  38.465   7.811
   70POPC   C4B 5770  10.732  38.375   7.363
   71POPC   NC3 5771  28.945   0.934   9.394
   71POPC   PO4 5772  29.290   1.455   9.537
   71POPC   GL1 5773  29.296   1.266   9.148
   71POPC   GL2 5774  28.967   1.381   9.044
   71POPC   C1A 5775  29.344   0.994   8.784
   71POPC   D2A 5776  29.184   0.855   8.393
   71POPC   C3A 5777  29.284   1.108   8.014
   71POPC   C4A 5778  29.024   1.417   7.862
   71POPC   C1B 5779  28.773   1.087   8.730
   71POPC   C2B 5780  28.680   0.924   8.295
   71POPC   C3B 5781  28.891   0.796   7.947
   71POPC   C4B 5782  29.061   0.966   7.582
   72POPC   NC3 5783   9.838  25.254   9.548
   72POPC   PO4 5784   9.379  25.711   9.755
   72POPC   GL1 5785   9.608  25.646   9.270
   72POPC   GL2 5786   9.641  25.246   9.084
   72POPC   C1A 5787   9.635  25.654   8.779
   72POPC   D2A 5788   9.643  25.438   8.374
   72POPC   C3A 5789   9.930  25.443   8.076
   72POPC   C4A 5790   9.828  25.353   7.672
   72POPC   C1B 5791   9.567  24.982   8.723
   72POPC   C2B 5792   9.729  24.934   8.298
   72POPC   C3B 5793   9.571  24.971   7.886
   72POPC   C4B 5794   9.487  24.795   7.447
   73POPC   NC3 5795  39.251  26.312   9.501
   73POPC   PO4 5796  39.052  25.665   9.378
   73POPC   GL1 5797  39.153  25.962   9.113
   73POPC   GL2 5798  39.495  25.958   9.135
   73POPC   C1A 5799  39.246  26.011   8.690
   73POPC   D2A 5800  39.270  26.155   8.301
   73POPC   C3A 5801  38.905  26.019   8.096
   73POPC   C4A 5802  38.818  25.785   7.713
   73POPC   C1B 5803  39.655  26.284   8.835
   73POPC   C2B 5804  39.690  26.449   8.402
   73POPC   C3B 5805  39.641  26.268   7.974
   73POPC   C4B 5806  39.276  26.101   7.762
   74POPC   NC3 5807  10.931  27.564   9.397
   74POPC   PO4 5808  11.573  27.715   9.541
   74POPC   GL1 5809  11.460  27.839   9.142
   74POPC   GL2 5810  11.138  28.023   9.186
   74POPC   C1A 5811  11.493  27.681   8.705
   74POPC   D2A 5812  11.629  27.480   8.308
   74POPC   C3A 5813  11.330  27.488   7.967
   74POPC   C4A 5814  11.329  27.713   7.528
   74POPC   C1B 5815  11.015  27.839   8.791
   74POPC   C2B 5816  11.126  27.808   8.342
   74POPC   C3B 5817  10.972  27.832   7.884
   74POPC   C4B 5818  10.835  27.707   7.451
   75POPC   NC3 5819  14.825  23.773   9.573
   75POPC   PO4 5820  15.407  24.099   9.510
   75POPC   GL1 5821  15.154  23.922   9.178
   75POPC   GL2 5822  15.127  23.557   9.191
   75POPC   C1A 5823  15.177  23.823   8.742
   75POPC   D2A 5824  15.222  23.986   8.332
   75POPC   C3A 5825  15.253  23.699   8.018
   75POPC   C4A 5826  15.129  23.816   7.623
   75POPC   C1B 5827  14.942  23.349   8.836
   75POPC   C2B 5828  15.031  23.426   8.407
   75POPC   C3B 5829  14.934  23.296   7.988
   75POPC   C4B 5830  15.083  23.308   7.556
   76POPC   NC3 5831  15.436  24.564   9.548
   76POPC   PO4 5832  14.844  24.956   9.473
   76POPC   GL1 5833  14.919  24.592   9.163
   76POPC   GL2 5834  15.254  24.429   9.107
   76POPC   C1A 5835  14.884  24.293   8.784
   76POPC   D2A 5836  14.831  24.321   8.316
   76POPC   C3A 5837  15.071  24.290   7.895
   76POPC   C4A 5838  15.490  24.183   7.684
   76POPC   C1B 5839  15.232  24.691   8.755
   76POPC   C2B 5840  15.331  24.799   8.321
   76POPC   C3B 5841  15.437  24.664   7.911
   76POPC   C4B 5842  15.298  24.673   7.485
   77POPC   NC3 5843  24.080  33.878   9.545
   77POPC   PO4 5844  24.670  34.046   9.283
   77POPC   GL1 5845  24.295  33.981   9.078
   77POPC   GL2 5846  24.383  33.626   9.075
   77POPC   C1A 5847  24.223  33.923   8.637
   77POPC   D2A 5848  24.495  33.790   8.269
   77POPC   C3A 5849  24.389  33.981   7.886
   77POPC   C4A 5850  24.075  33.739   7.732
   77POPC   C1B 5851  24.708  33.733   8.735
   77POPC   C2B 5852  24.996  33.744   8.375
   77POPC   C3B 5853  24.880  33.581   7.984
   77POPC   C4B 5854  24.507  33.478   7.832
   78POPC   NC3 5855  14.902  13.099   9.439
   78POPC   PO4 5856  14.605  13.643   9.503
   78POPC   GL1 5857  14.181  13.723   9.252
   78POPC   GL2 5858  14.006  13.453   9.165
   78POPC   C1A 5859  14.081  13.789   8.804
   78POPC   D2A 5860  14.351  13.594   8.500
   78POPC   C3A 5861  14.337  13.641   8.039
   78POPC   C4A 5862  14.583  13.823   7.656
   78POPC   C1B 5863  13.946  13.255   8.744
   78POPC   C2B 5864  14.124  13.166   8.322
   78POPC   C3B 5865  13.982  13.288   7.904
   78POPC   C4B 5866  14.170  13.523   7.549
   79POPC   NC3 5867   0.008  26.679   9.347
   79POPC   PO4 5868  44.434  26.985   9.574
   79POPC   GL1 5869  44.560  26.900   9.149
   79POPC   GL2 5870  44.590  26.545   9.108
   79POPC   C1A 5871  44.591  26.942   8.685
   79POPC   D2A 5872  44.353  26.866   8.269
   79POPC   C3A 5873  44.576  27.027   7.883
   79POPC   C4A 5874  44.775  26.815   7.509
   79POPC   C1B 5875  44.901  26.516   8.736
   79POPC   C2B 5876  44.802  26.622   8.345
   79POPC   C3B 5877  44.635  26.535   7.965
   79POPC   C4B 5878  44.588  26.324   7.578
   80POPC   NC3 5879   6.355  23.321   9.430
   80POPC   PO4 5880   6.786  22.787   9.415
   80POPC   GL1 5881   6.652  22.972   9.075
   80POPC   GL2 5882   6.794  23.281   9.099
   80POPC   C1A 5883   6.772  22.952   8.664
   80POPC   D2A 5884   6.646  22.679   8.383
   80POPC   C3A 5885   6.768  22.861   8.087
   80POPC   C4A 5886   6.711  22.821   7.685
   80POPC   C1B 5887   6.583  23.435   8.700
   80POPC   C2B 5888   6.628  23.347   8.269
   80POPC   C3B 5889   6.404  23.264   7.865
   80POPC   C4B 5890   6.513  23.220   7.403
   81POPC   NC3 5891   1.075  21.288   9.543
   81POPC   PO4 5892   1.233  21.819   9.885
   81POPC   GL1 5893   1.384  21.644   9.341
   81POPC   GL2 5894   1.446  21.275   9.195
   81POPC   C1A 5895   1.361  21.613   8.817
   81POPC   D2A 5896   1.161  21.736   8.372
   81POPC   C3A 5897   1.282  21.546   7.950
   81POPC   C4A 5898   1.560  21.199   7.801
   81POPC   C1B 5899   1.116  21.100   8.894
   81POPC   C2B 5900   0.873  21.110   8.508
   81POPC   C3B 5901   0.871  21.095   8.067
   81POPC   C4B 5902   1.067  21.131   7.654
   82POPC   NC3 5903  31.248  32.767   9.429
   82POPC   PO4 5904  31.492  32.115   9.610
   82POPC   GL1 5905  31.464  32.345   9.278
   82POPC   GL2 5906  31.784  32.481   9.342
   82POPC   C1A 5907  31.278  32.344   8.863
   82POPC   D2A 5908  31.344  32.070   8.507
   82POPC   C3A 5909  31.365  32.228   8.095
   82POPC   C4A 5910  31.410  32.033   7.712
   82POPC   C1B 5911  31.803  32.280   8.909
   82POPC   C2B 5912  31.689  32.478   8.526
   82POPC   C3B 5913  31.812  32.469   8.109
   82POPC   C4B 5914  31.681  32.480   7.686
   83POPC   NC3 5915  14.750   5.932   9.552
   83POPC   PO4 5916  15.360   5.604   9.352
   83POPC   GL1 5917  15.080   5.866   9.173
   83POPC   GL2 5918  14.836   5.604   9.162
   83POPC   C1A 5919  15.104   6.134   8.820
   83POPC   D2A 5920  15.036   5.988   8.420
   83POPC   C3A 5921  15.292   5.978   8.073
   83POPC   C4A 5922  15.069   6.088   7.718
   83POPC   C1B 5923  15.016   5.584   8.753
   83POPC   C2B 5924  15.152   5.505   8.350
   83POPC   C3B 5925  15.012   5.587   7.935
   83POPC   C4B 5926  15.361   5.667   7.672
   84POPC   NC3 5927  30.801  25.640   9.479
   84POPC   PO4 5928  30.624  24.950   9.426
   84POPC   GL1 5929  30.728  25.263   9.120
   84POPC   GL2 5930  30.441  25.502   9.125
   84POPC   C1A 5931  30.754  25.363   8.661
   84POPC   D2A 5932  30.963  25.481   8.255
   84POPC   C3A 5933  30.785  25.350   7.868
   84POPC   C4A 5934  30.668  25.051   7.562
   84POPC   C1B 5935  30.213  25.434   8.728
   84POPC   C2B 5936  30.359  25.515   8.324
   84POPC   C3B 5937  30.420  25.716   7.939
   84POPC   C4B 5938  30.416  25.508   7.550
   85POPC   NC3 5939  40.838  28.900   9.432
   85POPC   PO4 5940  40.568  29.491   9.406
   85POPC   GL1 5941  40.640  29.210   9.093
   85POPC   GL2 5942  40.993  29.224   9.038
   85POPC   C1A 5943  40.713  28.917   8.737
   85POPC   D2A 5944  40.936  28.930   8.320
   85POPC   C3A 5945  40.685  28.762   7.951
   85POPC   C4A 5946  40.685  28.819   7.515
   85POPC   C1B 5947  40.893  29.388   8.674
   85POPC   C2B 5948  40.676  29.638   8.420
   85POPC   C3B 5949  40.689  29.444   8.020
   85POPC   C4B 5950  41.003  29.160   7.846
   86POPC   NC3 5951  29.547  32.670   9.388
   86POPC   PO4 5952  29.207  33.246   9.607
   86POPC   GL1 5953  29.235  33.046   9.197
   86POPC   GL2 5954  29.058  32.701   9.212
   86POPC   C1A 5955  29.327  33.198   8.774
   86POPC   D2A 5956  29.330  33.035   8.350
   86POPC   C3A 5957  29.160  33.325   8.027
   86POPC   C4A 5958  29.248  33.394   7.607
   86POPC   C1B 5959  29.158  32.680   8.773
   86POPC   C2B 5960  28.988  32.647   8.344
   86POPC   C3B 5961  29.146  32.736   7.944
   86POPC   C4B 5962  29.361  32.597   7.583
   87POPC   NC3 5963  20.399  31.652   9.421
   87POPC   PO4 5964  20.665  31.030   9.528
   87POPC   GL1 5965  20.564  31.104   9.070
   87POPC   GL2 5966  20.618  31.455   9.004
   87POPC   C1A 5967  20.423  31.151   8.637
   87POPC   D2A 5968  20.481  31.529   8.371
   87POPC   C3A 5969  20.462  31.429   7.953
   87POPC   C4A 5970  20.820  31.337   7.723
   87POPC   C1B 5971  20.511  31.853   8.778
   87POPC   C2B 5972  20.684  32.030   8.396
   87POPC   C3B 5973  20.809  31.821   8.026
   87POPC   C4B 5974  20.577  31.791   7.630
   88POPC   NC3 5975   6.175   8.512   9.562
   88POPC   PO4 5976   5.566   8.671   9.617
   88POPC   GL1 5977   5.832   8.783   9.243
   88POPC   GL2 5978   5.829   9.166   9.166
   88POPC   C1A 5979   5.952   8.771   8.788
   88POPC   D2A 5980   5.767   8.782   8.368
   88POPC   C3A 5981   5.917   8.654   7.960
   88POPC   C4A 5982   5.647   8.617   7.586
   88POPC   C1B 5983   6.009   9.272   8.761
   88POPC   C2B 5984   6.162   9.102   8.335
   88POPC   C3B 5985   5.958   9.164   7.913
   88POPC   C4B 5986   5.775   9.244   7.443
   89POPC   NC3 5987  24.102  12.302   9.326
   89POPC   PO4 5988  23.464  12.004   9.614
   89POPC   GL1 5989  23.691  12.000   9.221
   89POPC   GL2 5990  23.562  12.281   9.020
   89POPC   C1A 5991  23.880  11.954   8.798
   89POPC   D2A 5992  23.991  12.087   8.374
   89POPC   C3A 5993  23.628  12.172   8.110
   89POPC   C4A 5994  23.554  12.065   7.685
   89POPC   C1B 5995  23.888  12.468   8.751
   89POPC   C2B 5996  23.866  12.703   8.419
   89POPC   C3B 5997  24.012  12.520   8.073
   89POPC   C4B 5998  23.793  12.516   7.713
   90POPC   NC3 5999  23.616  36.363   9.571
   90POPC   PO4 6000  23.802  37.022   9.613
   90POPC   GL1 6001  23.681  36.763   9.266
   90POPC   GL2 6002  23.936  36.778   9.076
   90POPC   C1A 6003  23.539  36.792   8.798
   90POPC   D2A 6004  23.844  36.969   8.493
   90POPC   C3A 6005  23.710  37.072   8.058
   90POPC   C4A 6006  23.493  36.857   7.734
   90POPC   C1B 6007  24.075  36.564   8.703
   90POPC   C2B 6008  24.138  36.577   8.270
   90POPC   C3B 6009  23.892  36.582   7.929
   90POPC   C4B 6010  24.101  36.447   7.609
   91POPC   NC3 6011   1.593  39.711   9.423
   91POPC   PO4 6012   1.056  40.168   9.517
   91POPC   GL1 6013   1.067  40.047   9.116
   91POPC   GL2 6014   1.431  40.094   9.123
   91POPC   C1A 6015   0.949  39.974   8.679
   91POPC   D2A 6016   1.167  39.739   8.351
   91POPC   C3A 6017   1.247  39.970   7.976
   91POPC   C4A 6018   1.127  40.061   7.582
   91POPC   C1B 6019   1.373  40.281   8.770
   91POPC   C2B 6020   1.450  40.187   8.387
   91POPC   C3B 6021   1.655  40.339   8.057
   91POPC   C4B 6022   1.645  40.185   7.643
   92POPC   NC3 6023   1.542   4.589   9.748
   92POPC   PO4 6024   1.250   5.173   9.461
   92POPC   GL1 6025   1.104   4.966   9.066
   92POPC   GL2 6026   0.778   4.790   9.080
   92POPC   C1A 6027   1.235   4.946   8.613
   92POPC   D2A 6028   1.587   4.821   8.365
   92POPC   C3A 6029   1.462   4.729   7.951
   92POPC   C4A 6030   1.249   4.985   7.639
   92POPC   C1B 6031   0.752   5.071   8.694
   92POPC   C2B 6032   0.868   5.024   8.231
   92POPC   C3B 6033   0.979   5.336   7.952
   92POPC   C4B 6034   0.931   5.433   7.566
   93POPC   NC3 6035   9.688   3.137   9.470
   93POPC   PO4 6036   9.873   2.501   9.606
   93POPC   GL1 6037   9.812   2.699   9.201
   93POPC   GL2 6038   9.449   2.790   9.154
   93POPC   C1A 6039   9.759   2.604   8.765
   93POPC   D2A 6040   9.967   2.665   8.383
   93POPC   C3A 6041   9.718   2.613   8.007
   93POPC   C4A 6042   9.544   2.380   7.665
   93POPC   C1B 6043   9.555   3.078   8.816
   93POPC   C2B 6044   9.643   3.076   8.380
   93POPC   C3B 6045   9.457   3.069   7.985
   93POPC   C4B 6046   9.470   2.868   7.580
   94POPC   NC3 6047   9.701  34.042   9.496
   94POPC   PO4 6048   9.671  33.349   9.434
   94POPC   GL1 6049   9.867  33.584   9.107
   94POPC   GL2 6050   9.705  33.921   9.006
   94POPC   C1A 6051   9.999  33.644   8.703
   94POPC   D2A 6052   9.689  33.889   8.447
   94POPC   C3A 6053   9.503  33.708   8.068
   94POPC   C4A 6054   9.636  33.625   7.643
   94POPC   C1B 6055  10.029  34.159   8.779
   94POPC   C2B 6056  10.058  34.238   8.322
   94POPC   C3B 6057   9.954  33.932   7.962
   94POPC   C4B 6058  10.254  33.709   7.682
   95POPC   NC3 6059  23.384  11.607   9.361
   95POPC   PO4 6060  22.787  11.472   9.754
   95POPC   GL1 6061  22.711  11.486   9.235
   95POPC   GL2 6062  22.986  11.529   9.066
   95POPC   C1A 6063  22.659  11.352   8.725
   95POPC   D2A 6064  22.881  11.465   8.297
   95POPC   C3A 6065  22.843  11.181   7.904
   95POPC   C4A 6066  22.799  11.195   7.413
   95POPC   C1B 6067  23.170  11.374   8.717
   95POPC   C2B 6068  23.430  11.212   8.420
   95POPC   C3B 6069  23.335  11.298   8.001
   95POPC   C4B 6070  23.238  11.063   7.614
   96POPC   NC3 6071  37.078  44.128   9.463
   96POPC   PO4 6072  36.962  43.417   9.564
   96POPC   GL1 6073  36.954  43.683   9.170
   96POPC   GL2 6074  36.742  43.996   9.094
   96POPC   C1A 6075  36.957  43.645   8.714
   96POPC   D2A 6076  36.739  43.577   8.305
   96POPC   C3A 6077  37.028  43.522   7.960
   96POPC   C4A 6078  37.119  43.795   7.624
   96POPC   C1B 6079  37.058  44.163   8.788
   96POPC   C2B 6080  36.974  44.050   8.376
   96POPC   C3B 6081  36.877  44.119   7.949
   96POPC   C4B 6082  36.624  44.216   7.598
   97POPC   NC3 6083  11.426  41.120   9.472
   97POPC   PO4 6084  11.108  40.536   9.504
   97POPC   GL1 6085  10.945  40.568   9.101
   97POPC   GL2 6086  11.161  40.870   9.081
   97POPC   C1A 6087  11.042  40.574   8.662
   97POPC   D2A 6088  11.357  40.900   8.545
   97POPC   C3A 6089  11.378  40.995   8.124
   97POPC   C4A 6090  11.156  40.736   7.928
   97POPC   C1B 6091  11.473  40.582   8.937
   97POPC   C2B 6092  11.499  40.405   8.500
   97POPC   C3B 6093  11.709  40.475   8.116
   97POPC   C4B 6094  11.627  40.695   7.741
   98POPC   NC3 6095   6.255  30.544   9.841
   98POPC   PO4 6096   5.624  30.672   9.487
   98POPC   GL1 6097   5.980  30.708   9.203
   98POPC   GL2 6098   6.201  31.006   9.278
   98POPC   C1A 6099   6.036  30.567   8.766
   98POPC   D2A 6100   5.829  30.385   8.402
   98POPC   C3A 6101   5.922  30.520   7.970
   98POPC   C4A 6102   6.272  30.411   7.728
   98POPC   C1B 6103   6.133  31.056   8.822
   98POPC   C2B 6104   5.941  30.957   8.420
   98POPC   C3B 6105   6.096  30.989   8.011
   98POPC   C4B 6106   6.277  30.894   7.622
   99POPC   NC3 6107  25.461  15.494   9.475
   99POPC   PO4 6108  25.342  14.849   9.503
   99POPC   GL1 6109  25.228  15.104   9.150
   99POPC   GL2 6110  25.272  15.439   9.007
   99POPC   C1A 6111  25.355  15.021   8.726
   99POPC   D2A 6112  25.504  15.037   8.303
   99POPC   C3A 6113  25.212  14.908   7.995
   99POPC   C4A 6114  25.069  15.085   7.626
   99POPC   C1B 6115  25.145  15.530   8.565
   99POPC   C2B 6116  25.337  15.526   8.185
   99POPC   C3B 6117  25.468  15.371   7.805
   99POPC   C4B 6118  25.313  15.494   7.403
  100POPC   NC3 6119  39.500   5.999   9.531
  100POPC   PO4 6120  39.142   5.373   9.551
  100POPC   GL1 6121  39.193   5.685   9.222
  100POPC   GL2 6122  39.069   6.034   9.260
  100POPC   C1A 6123  39.063   5.729   8.810
  100POPC   D2A 6124  39.202   5.533   8.463
  100POPC   C3A 6125  39.107   5.788   8.099
  100POPC   C4A 6126  39.208   5.947   7.681
  100POPC   C1B 6127  39.364   6.115   8.914
  100POPC   C2B 6128  39.327   6.057   8.478
  100POPC   C3B 6129  39.574   5.987   8.105
  100POPC   C4B 6130  39.648   6.247   7.743
  101POPC   NC3 6131  16.333   6.670   9.594
  101POPC   PO4 6132  15.801   6.286   9.468
  101POPC   GL1 6133  16.025   6.563   9.176
  101POPC   GL2 6134  15.779   6.799   9.042
  101POPC   C1A 6135  16.123   6.470   8.741
  101POPC   D2A 6136  15.830   6.684   8.451
  101POPC   C3A 6137  15.850   6.731   7.992
  101POPC   C4A 6138  16.162   6.697   7.652
  101POPC   C1B 6139  15.543   6.458   8.804
  101POPC   C2B 6140  15.435   6.364   8.349
  101POPC   C3B 6141  15.396   6.493   7.867
  101POPC   C4B 6142  15.683   6.609   7.470
  102POPC   NC3 6143  37.955  23.166   9.518
  102POPC   PO4 6144  37.361  23.202   9.628
  102POPC   GL1 6145  37.569  23.114   9.186
  102POPC   GL2 6146  37.826  22.844   9.141
  102POPC   C1A 6147  37.545  22.978   8.736
  102POPC   D2A 6148  37.658  23.053   8.314
  102POPC   C3A 6149  37.417  23.145   7.965
  102POPC   C4A 6150  37.285  23.445   7.652
  102POPC   C1B 6151  38.019  22.816   8.724
  102POPC   C2B 6152  38.111  22.853   8.278
  102POPC   C3B 6153  37.884  22.813   7.872
  102POPC   C4B 6154  37.888  22.637   7.424
  103POPC   NC3 6155  38.620  17.323   9.537
  103POPC   PO4 6156  38.044  17.619   9.547
  103POPC   GL1 6157  38.333  17.719   9.227
  103POPC   GL2 6158  38.444  17.429   9.074
  103POPC   C1A 6159  38.342  17.828   8.773
  103POPC   D2A 6160  38.439  17.547   8.422
  103POPC   C3A 6161  38.446  17.712   8.007
  103POPC   C4A 6162  38.512  17.537   7.582
  103POPC   C1B 6163  38.738  17.170   8.872
  103POPC   C2B 6164  38.779  17.127   8.459
  103POPC   C3B 6165  38.704  17.276   8.053
  103POPC   C4B 6166  38.760  17.074   7.669
  104POPC   NC3 6167  38.307  12.928   9.710
  104POPC   PO4 6168  38.821  13.300   9.799
  104POPC   GL1 6169  38.618  13.062   9.336
  104POPC   GL2 6170  38.285  12.802   9.220
  104POPC   C1A 6171  38.501  13.034   8.862
  104POPC   D2A 6172  38.276  13.102   8.503
  104POPC   C3A 6173  38.387  13.020   8.106
  104POPC   C4A 6174  38.345  12.753   7.779
  104POPC   C1B 6175  38.119  12.656   8.744
  104POPC   C2B 6176  38.061  12.649   8.276
  104POPC   C3B 6177  37.892  12.527   7.898
  104POPC   C4B 6178  38.010  12.560   7.457
  105POPC   NC3 6179  34.085  15.741   9.478
  105POPC   PO4 6180  33.647  16.189   9.774
  105POPC   GL1 6181  33.722  16.148   9.288
  105POPC   GL2 6182  33.703  15.830   9.152
  105POPC   C1A 6183  33.909  16.155   8.826
  105POPC   D2A 6184  33.701  16.201   8.402
  105POPC   C3A 6185  33.746  15.909   8.055
  105POPC   C4A 6186  34.092  15.832   7.773
  105POPC   C1B 6187  33.543  15.819   8.712
  105POPC   C2B 6188  33.564  15.552   8.389
  105POPC   C3B 6189  33.423  15.490   7.969
  105POPC   C4B 6190  33.646  15.620   7.631
  106POPC   NC3 6191  30.702   8.299   9.595
  106POPC   PO4 6192  30.321   7.826   9.190
  106POPC   GL1 6193  30.488   8.096   8.928
  106POPC   GL2 6194  30.678   8.350   9.092
  106POPC   C1A 6195  30.329   8.234   8.535
  106POPC   D2A 6196  30.437   8.476   8.191
  106POPC   C3A 6197  30.672   8.300   7.860
  106POPC   C4A 6198  30.908   7.958   7.685
  106POPC   C1B 6199  30.757   8.489   8.669
  106POPC   C2B 6200  30.940   8.553   8.237
  106POPC   C3B 6201  31.199   8.336   7.921
  106POPC   C4B 6202  31.418   8.158   7.569
  107POPC   NC3 6203   3.681  21.869   9.613
  107POPC   PO4 6204   3.378  21.336   9.407
  107POPC   GL1 6205   3.479  21.560   9.044
  107POPC   GL2 6206   3.150  21.646   9.053
  107POPC   C1A 6207   3.479  21.410   8.584
  107POPC   D2A 6208   3.803  21.134   8.402
  107POPC   C3A 6209   3.796  21.276   7.994
  107POPC   C4A 6210   3.608  21.653   7.932
  107POPC   C1B 6211   3.086  21.226   8.868
  107POPC   C2B 6212   3.106  21.010   8.519
  107POPC   C3B 6213   3.340  21.075   8.151
  107POPC   C4B 6214   3.286  21.292   7.767
  108POPC   NC3 6215  14.178   1.715   9.478
  108POPC   PO4 6216  14.545   2.327   9.444
  108POPC   GL1 6217  14.520   1.985   9.170
  108POPC   GL2 6218  14.176   1.992   9.029
  108POPC   C1A 6219  14.707   1.813   8.797
  108POPC   D2A 6220  14.475   1.860   8.425
  108POPC   C3A 6221  14.689   1.879   8.041
  108POPC   C4A 6222  14.436   1.969   7.667
  108POPC   C1B 6223  14.187   2.313   8.688
  108POPC   C2B 6224  13.954   2.409   8.309
  108POPC   C3B 6225  14.028   2.180   7.936
  108POPC   C4B 6226  14.016   2.267   7.490
  109POPC   NC3 6227  28.231  12.234   9.599
  109POPC   PO4 6228  28.600  11.629   9.569
  109POPC   GL1 6229  28.460  11.891   9.219
  109POPC   GL2 6230  28.520  12.231   9.168
  109POPC   C1A 6231  28.250  11.962   8.837
  109POPC   D2A 6232  28.199  12.143   8.437
  109POPC   C3A 6233  28.473  12.013   8.102
  109POPC   C4A 6234  28.274  11.844   7.746
  109POPC   C1B 6235  28.437  12.466   8.773
  109POPC   C2B 6236  28.522  12.520   8.312
  109POPC   C3B 6237  28.504  12.469   7.870
  109POPC   C4B 6238  28.181  12.324   7.593
  110POPC   NC3 6239  27.149  35.241   9.394
  110POPC   PO4 6240  26.514  35.505   9.485
  110POPC   GL1 6241  26.761  35.409   9.098
  110POPC   GL2 6242  27.053  35.614   9.038
  110POPC   C1A 6243  26.917  35.337   8.644
  110POPC   D2A 6244  26.852  35.071   8.285
  110POPC   C3A 6245  26.665  35.135   7.892
  110POPC   C4A 6246  26.829  35.184   7.437
  110POPC   C1B 6247  27.335  35.671   8.700
  110POPC   C2B 6248  27.274  35.518   8.310
  110POPC   C3B 6249  26.882  35.554   8.150
  110POPC   C4B 6250  26.866  35.582   7.766
  111POPC   NC3 6251   6.722  38.143   9.376
  111POPC   PO4 6252   6.470  37.546   9.493
  111POPC   GL1 6253   6.763  37.619   9.130
  111POPC   GL2 6254   6.876  37.906   8.943
  111POPC   C1A 6255   6.751  37.424   8.714
  111POPC   D2A 6256   6.913  37.364   8.276
  111POPC   C3A 6257   6.737  37.654   7.940
  111POPC   C4A 6258   6.309  37.565   7.774
  111POPC   C1B 6259   6.441  37.847   8.762
  111POPC   C2B 6260   6.361  37.785   8.302
  111POPC   C3B 6261   6.376  38.041   7.909
  111POPC   C4B 6262   6.487  37.948   7.446
  112POPC   NC3 6263  13.936   2.831   9.843
  112POPC   PO4 6264  13.421   2.541   9.632
  112POPC   GL1 6265  13.623   2.914   9.360
  112POPC   GL2 6266  13.910   2.883   9.165
  112POPC   C1A 6267  13.443   2.983   8.922
  112POPC   D2A 6268  13.306   2.999   8.470
  112POPC   C3A 6269  13.430   2.700   8.143
  112POPC   C4A 6270  13.495   2.809   7.710
  112POPC   C1B 6271  13.818   2.694   8.745
  112POPC   C2B 6272  13.826   2.927   8.358
  112POPC   C3B 6273  13.940   2.758   7.943
  112POPC   C4B 6274  13.962   2.777   7.505
  113POPC   NC3 6275  15.641  21.715   9.422
  113POPC   PO4 6276  15.084  21.328   9.533
  113POPC   GL1 6277  15.182  21.362   9.107
  113POPC   GL2 6278  14.832  21.408   9.059
  113POPC   C1A 6279  15.201  21.387   8.645
  113POPC   D2A 6280  15.421  21.276   8.265
  113POPC   C3A 6281  15.194  21.311   7.864
  113POPC   C4A 6282  15.266  21.352   7.414
  113POPC   C1B 6283  14.713  21.512   8.639
  113POPC   C2B 6284  14.869  21.512   8.227
  113POPC   C3B 6285  14.662  21.352   7.871
  113POPC   C4B 6286  14.779  21.234   7.502
  114POPC   NC3 6287   4.427  42.215   9.516
  114POPC   PO4 6288   4.136  42.724   9.573
  114POPC   GL1 6289   4.086  42.427   9.204
  114POPC   GL2 6290   4.050  42.026   9.224
  114POPC   C1A 6291   4.380  42.288   8.879
  114POPC   D2A 6292   4.560  42.510   8.556
  114POPC   C3A 6293   4.423  42.306   8.201
  114POPC   C4A 6294   4.404  42.508   7.842
  114POPC   C1B 6295   3.916  42.051   8.802
  114POPC   C2B 6296   4.033  41.984   8.330
  114POPC   C3B 6297   4.081  42.087   7.848
  114POPC   C4B 6298   4.178  41.930   7.425
  115POPC   NC3 6299   7.611  37.390   9.456
  115POPC   PO4 6300   7.191  37.941   9.360
  115POPC   GL1 6301   7.292  37.569   9.081
  115POPC   GL2 6302   7.653  37.442   8.950
  115POPC   C1A 6303   7.238  37.535   8.653
  115POPC   D2A 6304   7.481  37.484   8.305
  115POPC   C3A 6305   7.261  37.482   7.922
  115POPC   C4A 6306   7.544  37.513   7.608
  115POPC   C1B 6307   7.647  37.835   8.707
  115POPC   C2B 6308   7.435  38.020   8.330
  115POPC   C3B 6309   7.378  37.981   7.879
  115POPC   C4B 6310   7.463  37.973   7.413
  116POPC   NC3 6311  36.025   0.310   9.441
  116POPC   PO4 6312  36.434   0.901   9.372
  116POPC   GL1 6313  36.104   0.698   9.118
  116POPC   GL2 6314  36.180   0.345   8.972
  116POPC   C1A 6315  35.991   0.753   8.697
  116POPC   D2A 6316  36.307   0.830   8.404
  116POPC   C3A 6317  36.221   0.683   8.039
  116POPC   C4A 6318  36.045   0.354   7.846
  116POPC   C1B 6319  36.355   0.348   8.569
  116POPC   C2B 6320  36.528   0.314   8.147
  116POPC   C3B 6321  36.440   0.046   7.765
  116POPC   C4B 6322  36.598   0.106   7.345
  117POPC   NC3 6323  23.674  15.209   9.569
  117POPC   PO4 6324  24.087  15.209   9.063
  117POPC   GL1 6325  23.682  15.224   9.030
  117POPC   GL2 6326  23.370  15.040   9.111
  117POPC   C1A 6327  23.594  14.986   8.659
  117POPC   D2A 6328  23.841  14.942   8.303
  117POPC   C3A 6329  23.615  15.146   8.018
  117POPC   C4A 6330  23.404  14.927   7.737
  117POPC   C1B 6331  23.261  15.403   8.856
  117POPC   C2B 6332  23.479  15.449   8.455
  117POPC   C3B 6333  23.345  15.607   8.048
  117POPC   C4B 6334  23.113  15.337   7.788
  118POPC   NC3 6335  10.167  37.661   9.615
  118POPC   PO4 6336  10.761  37.283   9.603
  118POPC   GL1 6337  10.522  37.550   9.251
  118POPC   GL2 6338  10.224  37.457   9.103
  118POPC   C1A 6339  10.432  37.787   8.814
  118POPC   D2A 6340  10.576  37.646   8.385
  118POPC   C3A 6341  10.335  37.778   8.022
  118POPC   C4A 6342  10.447  38.062   7.694
  118POPC   C1B 6343  10.537  37.284   8.797
  118POPC   C2B 6344  10.553  37.133   8.371
  118POPC   C3B 6345  10.482  37.289   7.974
  118POPC   C4B 6346  10.733  37.301   7.623
  119POPC   NC3 6347  44.024  28.108   9.234
  119POPC   PO4 6348  43.886  27.442   9.488
  119POPC   GL1 6349  43.997  27.633   9.124
  119POPC   GL2 6350  43.652  27.859   9.033
  119POPC   C1A 6351  44.286  27.735   8.769
  119POPC   D2A 6352  44.412  27.734   8.337
  119POPC   C3A 6353  44.134  27.763   8.009
  119POPC   C4A 6354  44.026  28.018   7.709
  119POPC   C1B 6355  43.692  27.531   8.759
  119POPC   C2B 6356  43.857  27.618   8.405
  119POPC   C3B 6357  43.625  27.653   8.055
  119POPC   C4B 6358  43.785  27.559   7.683
  120POPC   NC3 6359   1.598  17.197   9.484
  120POPC   PO4 6360   1.147  17.721   9.525
  120POPC   GL1 6361   1.214  17.399   9.208
  120POPC   GL2 6362   0.938  17.260   9.098
  120POPC   C1A 6363   1.396  17.317   8.795
  120POPC   D2A 6364   1.361  17.592   8.405
  120POPC   C3A 6365   1.317  17.401   7.997
  120POPC   C4A 6366   1.465  17.094   7.729
  120POPC   C1B 6367   0.947  17.494   8.732
  120POPC   C2B 6368   0.991  17.228   8.388
  120POPC   C3B 6369   0.850  17.180   8.000
  120POPC   C4B 6370   0.835  17.553   7.727
  121POPC   NC3 6371  32.306   0.358   9.580
  121POPC   PO4 6372  32.300   1.017   9.602
  121POPC   GL1 6373  32.263   0.759   9.211
  121POPC   GL2 6374  32.220   0.387   9.098
  121POPC   C1A 6375  32.188   0.759   8.762
  121POPC   D2A 6376  32.344   0.598   8.370
  121POPC   C3A 6377  32.147   0.605   7.991
  121POPC   C4A 6378  32.146   0.608   7.558
  121POPC   C1B 6379  32.141   0.240   8.697
  121POPC   C2B 6380  31.992   0.140   8.265
  121POPC   C3B 6381  31.953   0.183   7.807
  121POPC   C4B 6382  32.231   0.074   7.443
  122POPC   NC3 6383   4.154  12.623   9.376
  122POPC   PO4 6384   4.632  13.023   9.667
  122POPC   GL1 6385   4.512  12.934   9.182
  122POPC   GL2 6386   4.186  12.928   8.993
  122POPC   C1A 6387   4.567  12.908   8.695
  122POPC   D2A 6388   4.570  13.127   8.292
  122POPC   C3A 6389   4.596  12.862   7.949
  122POPC   C4A 6390   4.298  12.720   7.699
  122POPC   C1B 6391   4.002  12.887   8.641
  122POPC   C2B 6392   4.080  12.998   8.255
  122POPC   C3B 6393   3.880  12.878   7.955
  122POPC   C4B 6394   3.886  12.976   7.565
  123POPC   NC3 6395   1.093   1.685   9.422
  123POPC   PO4 6396   1.103   0.955   9.480
  123POPC   GL1 6397   1.196   1.220   9.156
  123POPC   GL2 6398   0.858   1.381   9.081
  123POPC   C1A 6399   1.463   1.110   8.784
  123POPC   D2A 6400   1.710   1.231   8.394
  123POPC   C3A 6401   1.476   1.169   7.986
  123POPC   C4A 6402   1.189   0.855   7.742
  123POPC   C1B 6403   1.138   1.540   8.765
  123POPC   C2B 6404   1.178   1.291   8.407
  123POPC   C3B 6405   0.962   1.080   8.118
  123POPC   C4B 6406   0.990   1.336   7.760
  124POPC   NC3 6407  16.127   4.887   9.381
  124POPC   PO4 6408  15.628   5.094   9.800
  124POPC   GL1 6409  15.662   5.123   9.320
  124POPC   GL2 6410  15.932   5.374   9.218
  124POPC   C1A 6411  15.750   5.041   8.840
  124POPC   D2A 6412  15.850   4.740   8.463
  124POPC   C3A 6413  15.685   4.806   8.023
  124POPC   C4A 6414  15.872   4.821   7.595
  124POPC   C1B 6415  16.058   5.485   8.786
  124POPC   C2B 6416  15.998   5.249   8.399
  124POPC   C3B 6417  16.051   5.159   7.957
  124POPC   C4B 6418  16.152   5.380   7.542
  125POPC   NC3 6419   9.566  28.171   9.660
  125POPC   PO4 6420   9.686  28.810   9.601
  125POPC   GL1 6421   9.729  28.478   9.239
  125POPC   GL2 6422   9.403  28.266   9.194
  125POPC   C1A 6423   9.842  28.370   8.779
  125POPC   D2A 6424   9.784  28.604   8.373
  125POPC   C3A 6425   9.847  28.411   7.961
  125POPC   C4A 6426  10.134  28.090   7.783
  125POPC   C1B 6427   9.338  28.429   8.798
  125POPC   C2B 6428   9.454  28.223   8.444
  125POPC   C3B 6429   9.382  28.234   8.063
  125POPC   C4B 6430   9.486  28.059   7.692
  126POPC   NC3 6431  21.493  35.012   9.500
  126POPC   PO4 6432  20.946  35.294   9.586
  126POPC   GL1 6433  21.202  35.315   9.201
  126POPC   GL2 6434  21.511  35.501   9.299
  126POPC   C1A 6435  21.166  35.143   8.756
  126POPC   D2A 6436  21.461  35.093   8.383
  126POPC   C3A 6437  21.279  35.179   7.984
  126POPC   C4A 6438  21.092  35.073   7.592
  126POPC   C1B 6439  21.513  35.484   8.826
  126POPC   C2B 6440  21.697  35.574   8.394
  126POPC   C3B 6441  21.685  35.512   7.944
  126POPC   C4B 6442  21.519  35.791   7.571
  127POPC   NC3 6443  25.930  30.175   9.441
  127POPC   PO4 6444  26.262  29.627   9.196
  127POPC   GL1 6445  26.175  30.002   8.985
  127POPC   GL2 6446  26.278  30.301   9.086
  127POPC   C1A 6447  26.236  30.011   8.560
  127POPC   D2A 6448  26.197  29.639   8.375
  127POPC   C3A 6449  26.145  29.736   7.980
  127POPC   C4A 6450  25.980  29.532   7.629
  127POPC   C1B 6451  26.063  30.445   8.725
  127POPC   C2B 6452  25.913  30.374   8.291
  127POPC   C3B 6453  25.926  30.193   7.881
  127POPC   C4B 6454  26.141  30.378   7.550
  128POPC   NC3 6455   6.567   4.194   9.619
  128POPC   PO4 6456   6.402   4.547   9.144
  128POPC   GL1 6457   6.793   4.421   9.013
  128POPC   GL2 6458   7.026   4.655   9.155
  128POPC   C1A 6459   6.818   4.162   8.638
  128POPC   D2A 6460   6.497   3.905   8.456
  128POPC   C3A 6461   6.303   4.064   8.078
  128POPC   C4A 6462   6.490   3.984   7.690
  128POPC   C1B 6463   7.148   4.566   8.687
  128POPC   C2B 6464   7.184   4.342   8.302
  128POPC   C3B 6465   6.840   4.182   8.068
  128POPC   C4B 6466   6.672   4.449   7.744
  129POPC   NC3 6467  35.295  11.139   9.371
  129POPC   PO4 6468  34.900  11.540   9.782
  129POPC   GL1 6469  35.113  11.639   9.257
  129POPC   GL2 6470  35.462  11.532   9.100
  129POPC   C1A 6471  35.098  11.429   8.776
  129POPC   D2A 6472  35.143  11.190   8.385
  129POPC   C3A 6473  35.144  11.384   7.976
  129POPC   C4A 6474  35.288  11.482   7.564
  129POPC   C1B 6475  35.616  11.341   8.673
  129POPC   C2B 6476  35.622  11.333   8.201
  129POPC   C3B 6477  35.564  11.123   7.798
  129POPC   C4B 6478  35.631  11.157   7.319
  130POPC   NC3 6479  41.310  22.291   9.614
  130POPC   PO4 6480  41.944  22.090   9.623
  130POPC   GL1 6481  41.642  22.046   9.284
  130POPC   GL2 6482  41.554  22.378   9.118
  130POPC   C1A 6483  41.477  21.893   8.898
  130POPC   D2A 6484  41.542  22.146   8.544
  130POPC   C3A 6485  41.503  22.073   8.110
  130POPC   C4A 6486  41.601  22.230   7.672
  130POPC   C1B 6487  41.840  22.515   8.774
  130POPC   C2B 6488  41.965  22.372   8.363
  130POPC   C3B 6489  41.874  22.517   7.967
  130POPC   C4B 6490  41.884  22.648   7.506
  131POPC   NC3 6491   0.050  31.878   9.244
  131POPC   PO4 6492   0.675  32.202   9.431
  131POPC   GL1 6493   0.445  32.174   9.117
  131POPC   GL2 6494   0.166  32.390   9.237
  131POPC   C1A 6495   0.441  31.963   8.729
  131POPC   D2A 6496   0.524  32.257   8.445
  131POPC   C3A 6497   0.508  32.207   8.015
  131POPC   C4A 6498   0.565  31.836   7.788
  131POPC   C1B 6499   0.119  32.403   8.786
  131POPC   C2B 6500   0.024  32.189   8.400
  131POPC   C3B 6501   0.068  32.461   8.038
  131POPC   C4B 6502   0.338  32.671   7.771
  132POPC   NC3 6503  37.495  38.237   9.611
  132POPC   PO4 6504  37.810  38.862   9.694
  132POPC   GL1 6505  37.762  38.579   9.303
  132POPC   GL2 6506  37.987  38.296   9.399
  132POPC   C1A 6507  37.541  38.569   8.861
  132POPC   D2A 6508  37.617  38.650   8.395
  132POPC   C3A 6509  37.524  38.439   7.997
  132POPC   C4A 6510  37.611  38.583   7.548
  132POPC   C1B 6511  38.062  38.349   8.948
  132POPC   C2B 6512  38.048  38.680   8.650
  132POPC   C3B 6513  38.105  38.657   8.194
  132POPC   C4B 6514  38.021  38.466   7.818
  133POPC   NC3 6515  11.821  31.442   9.471
  133POPC   PO4 6516  12.375  31.746   9.679
  133POPC   GL1 6517  12.316  31.630   9.206
  133POPC   GL2 6518  12.147  31.311   9.081
  133POPC   C1A 6519  12.090  31.727   8.801
  133POPC   D2A 6520  12.186  31.700   8.406
  133POPC   C3A 6521  12.315  31.323   8.214
  133POPC   C4A 6522  12.181  31.457   7.820
  133POPC   C1B 6523  11.781  31.323   8.751
  133POPC   C2B 6524  11.781  31.342   8.271
  133POPC   C3B 6525  11.693  31.621   7.886
  133POPC   C4B 6526  11.738  31.539   7.403
  134POPC   NC3 6527  15.310   9.800   9.574
  134POPC   PO4 6528  14.923  10.300   9.570
  134POPC   GL1 6529  15.195  10.106   9.164
  134POPC   GL2 6530  15.231   9.703   9.072
  134POPC   C1A 6531  15.326  10.033   8.676
  134POPC   D2A 6532  15.377   9.905   8.200
  134POPC   C3A 6533  14.986   9.798   7.952
  134POPC   C4A 6534  14.885   9.677   7.520
  134POPC   C1B 6535  15.462   9.347   8.770
  134POPC   C2B 6536  15.535   9.388   8.289
  134POPC   C3B 6537  15.365   9.448   7.879
  134POPC   C4B 6538  15.352   9.486   7.412
  135POPC   NC3 6539  39.897  40.492   9.596
  135POPC   PO4 6540  40.252  41.033   9.398
  135POPC   GL1 6541  40.035  40.707   9.157
  135POPC   GL2 6542  39.679  40.688   9.155
  135POPC   C1A 6543  40.084  40.576   8.759
  135POPC   D2A 6544  40.261  40.944   8.565
  135POPC   C3A 6545  40.335  40.968   8.141
  135POPC   C4A 6546  40.314  40.908   7.693
  135POPC   C1B 6547  39.742  40.981   8.782
  135POPC   C2B 6548  39.615  41.152   8.363
  135POPC   C3B 6549  39.844  41.112   7.976
  135POPC   C4B 6550  39.932  40.683   7.959
  136POPC   NC3 6551  11.471  24.833   9.621
  136POPC   PO4 6552  10.878  25.006   9.393
  136POPC   GL1 6553  11.228  25.174   9.153
  136POPC   GL2 6554  11.583  25.199   9.237
  136POPC   C1A 6555  11.219  25.282   8.727
  136POPC   D2A 6556  11.137  25.192   8.316
  136POPC   C3A 6557  11.076  25.568   8.087
  136POPC   C4A 6558  11.044  25.468   7.682
  136POPC   C1B 6559  11.705  25.383   8.840
  136POPC   C2B 6560  11.571  25.530   8.409
  136POPC   C3B 6561  11.541  25.354   7.986
  136POPC   C4B 6562  11.531  25.545   7.586
  137POPC   NC3 6563  10.671  20.885   9.582
  137POPC   PO4 6564  10.934  20.248   9.480
  137POPC   GL1 6565  10.683  20.317   9.133
  137POPC   GL2 6566  10.577  20.657   9.139
  137POPC   C1A 6567  10.812  20.417   8.740
  137POPC   D2A 6568  10.968  20.586   8.351
  137POPC   C3A 6569  10.727  20.461   7.990
  137POPC   C4A 6570  10.624  20.639   7.614
  137POPC   C1B 6571  10.621  20.888   8.757
  137POPC   C2B 6572  10.445  20.708   8.390
  137POPC   C3B 6573  10.415  20.887   8.007
  137POPC   C4B 6574  10.166  20.929   7.657
  138POPC   NC3 6575  11.602  42.840   9.438
  138POPC   PO4 6576  11.095  42.463   9.680
  138POPC   GL1 6577  11.214  42.417   9.216
  138POPC   GL2 6578  11.577  42.341   9.194
  138POPC   C1A 6579  11.262  42.228   8.774
  138POPC   D2A 6580  11.034  42.244   8.388
  138POPC   C3A 6581  11.227  42.180   8.003
  138POPC   C4A 6582  11.043  42.243   7.612
  138POPC   C1B 6583  11.600  42.600   8.805
  138POPC   C2B 6584  11.398  42.613   8.369
  138POPC   C3B 6585  11.558  42.594   7.944
  138POPC   C4B 6586  11.525  42.365   7.592
  139POPC   NC3 6587  38.149  11.503   9.790
  139POPC   PO4 6588  38.657  11.798   9.426
  139POPC   GL1 6589  38.413  11.999   9.153
  139POPC   GL2 6590  38.406  12.310   9.312
  139POPC   C1A 6591  38.134  12.112   8.820
  139POPC   D2A 6592  38.297  12.189   8.424
  139POPC   C3A 6593  38.254  12.043   8.007
  139POPC   C4A 6594  38.354  12.242   7.641
  139POPC   C1B 6595  38.534  12.431   8.894
  139POPC   C2B 6596  38.535  12.625   8.452
  139POPC   C3B 6597  38.601  12.425   8.059
  139POPC   C4B 6598  38.790  12.488   7.624
  140POPC   NC3 6599  25.121  17.870   9.588
  140POPC   PO4 6600  24.708  17.264   9.515
  140POPC   GL1 6601  24.560  17.494   9.146
  140POPC   GL2 6602  24.671  17.829   9.236
  140POPC   C1A 6603  24.365  17.394   8.764
  140POPC   D2A 6604  24.616  17.355   8.399
  140POPC   C3A 6605  24.403  17.427   8.022
  140POPC   C4A 6606  24.565  17.173   7.707
  140POPC   C1B 6607  24.439  17.918   8.845
  140POPC   C2B 6608  24.366  17.797   8.398
  140POPC   C3B 6609  24.560  17.931   8.000
  140POPC   C4B 6610  24.292  17.919   7.651
  141POPC   NC3 6611  39.484  23.534   9.466
  141POPC   PO4 6612  38.819  23.829   9.417
  141POPC   GL1 6613  39.184  23.750   9.113
  141POPC   GL2 6614  39.503  23.927   9.154
  141POPC   C1A 6615  39.255  23.538   8.708
  141POPC   D2A 6616  39.003  23.385   8.372
  141POPC   C3A 6617  39.208  23.514   8.013
  141POPC   C4A 6618  39.053  23.616   7.626
  141POPC   C1B 6619  39.536  23.949   8.743
  141POPC   C2B 6620  39.592  23.714   8.336
  141POPC   C3B 6621  39.612  23.890   7.926
  141POPC   C4B 6622  39.409  23.965   7.513
  142POPC   NC3 6623   7.126  31.158   9.466
  142POPC   PO4 6624   7.674  31.523   9.604
  142POPC   GL1 6625   7.718  31.365   9.133
  142POPC   GL2 6626   7.383  31.381   9.030
  142POPC   C1A 6627   7.701  31.144   8.714
  142POPC   D2A 6628   7.381  31.275   8.388
  142POPC   C3A 6629   7.425  31.375   7.941
  142POPC   C4A 6630   7.432  31.672   7.591
  142POPC   C1B 6631   7.225  31.666   8.705
  142POPC   C2B 6632   7.324  31.799   8.289
  142POPC   C3B 6633   7.075  31.803   7.927
  142POPC   C4B 6634   6.964  31.827   7.446
  143POPC   NC3 6635   8.827  41.607   9.639
  143POPC   PO4 6636   9.326  41.571   9.242
  143POPC   GL1 6637   9.033  41.545   8.994
  143POPC   GL2 6638   8.771  41.361   9.170
  143POPC   C1A 6639   9.092  41.665   8.586
  143POPC   D2A 6640   9.084  41.922   8.211
  143POPC   C3A 6641   8.924  41.790   7.808
  143POPC   C4A 6642   8.812  41.739   7.357
  143POPC   C1B 6643   8.645  41.377   8.733
  143POPC   C2B 6644   8.663  41.595   8.338
  143POPC   C3B 6645   8.754  41.361   7.976
  143POPC   C4B 6646   9.038  41.330   7.601
  144POPC   NC3 6647  25.944  36.167   9.527
  144POPC   PO4 6648  25.765  35.599   9.191
  144POPC   GL1 6649  26.082  35.884   9.066
  144POPC   GL2 6650  26.120  36.252   9.061
  144POPC   C1A 6651  26.082  35.959   8.619
  144POPC   D2A 6652  25.871  36.016   8.222
  144POPC   C3A 6653  26.086  35.832   7.888
  144POPC   C4A 6654  26.495  35.948   7.714
  144POPC   C1B 6655  25.860  36.404   8.736
  144POPC   C2B 6656  26.041  36.473   8.350
  144POPC   C3B 6657  26.146  36.356   7.927
  144POPC   C4B 6658  25.949  36.607   7.622
  145POPC   NC3 6659   8.800  15.019   9.427
  145POPC   PO4 6660   9.500  15.415   9.329
  145POPC   GL1 6661   9.175  15.174   9.051
  145POPC   GL2 6662   8.856  15.302   9.019
  145POPC   C1A 6663   9.082  15.077   8.629
  145POPC   D2A 6664   8.951  15.428   8.397
  145POPC   C3A 6665   9.128  15.323   7.996
  145POPC   C4A 6666   9.189  14.854   7.951
  145POPC   C1B 6667   8.596  15.130   8.704
  145POPC   C2B 6668   8.632  15.041   8.265
  145POPC   C3B 6669   8.656  15.182   7.832
  145POPC   C4B 6670   8.597  15.240   7.396
  146POPC   NC3 6671  41.921   3.820   9.296
  146POPC   PO4 6672  41.498   4.238   9.653
  146POPC   GL1 6673  41.425   4.195   9.234
  146POPC   GL2 6674  41.727   4.289   9.067
  146POPC   C1A 6675  41.287   4.361   8.839
  146POPC   D2A 6676  41.484   4.359   8.467
  146POPC   C3A 6677  41.436   4.251   8.068
  146POPC   C4A 6678  41.731   4.390   7.683
  146POPC   C1B 6679  41.601   3.954   8.772
  146POPC   C2B 6680  41.777   3.876   8.380
  146POPC   C3B 6681  41.865   3.981   7.972
  146POPC   C4B 6682  41.503   3.898   7.724
  147POPC   NC3 6683  40.618  23.449   9.754
  147POPC   PO4 6684  41.085  23.967   9.667
  147POPC   GL1 6685  40.805  23.785   9.335
  147POPC   GL2 6686  40.507  23.983   9.217
  147POPC   C1A 6687  40.878  23.626   8.912
  147POPC   D2A 6688  40.738  23.431   8.521
  147POPC   C3A 6689  40.944  23.432   8.133
  147POPC   C4A 6690  40.700  23.158   7.840
  147POPC   C1B 6691  40.741  24.099   8.830
  147POPC   C2B 6692  40.978  23.913   8.478
  147POPC   C3B 6693  40.925  23.933   8.018
  147POPC   C4B 6694  41.137  24.283   7.816
  148POPC   NC3 6695  36.132  42.627   9.478
  148POPC   PO4 6696  36.262  42.025   9.568
  148POPC   GL1 6697  36.345  42.187   9.190
  148POPC   GL2 6698  36.026  42.298   9.119
  148POPC   C1A 6699  36.292  42.057   8.759
  148POPC   D2A 6700  36.206  42.343   8.410
  148POPC   C3A 6701  36.396  42.212   8.039
  148POPC   C4A 6702  36.656  42.193   7.683
  148POPC   C1B 6703  35.812  42.254   8.738
  148POPC   C2B 6704  35.691  42.330   8.337
  148POPC   C3B 6705  35.794  42.507   7.952
  148POPC   C4B 6706  36.103  42.377   7.634
  149POPC   NC3 6707   8.231  37.830   9.478
  149POPC   PO4 6708   7.931  38.414   9.475
  149POPC   GL1 6709   8.224  38.405   9.095
  149POPC   GL2 6710   8.594  38.460   9.149
  149POPC   C1A 6711   8.344  38.623   8.704
  149POPC   D2A 6712   8.545  38.552   8.309
  149POPC   C3A 6713   8.253  38.647   8.002
  149POPC   C4A 6714   8.249  38.451   7.612
  149POPC   C1B 6715   8.693  38.276   8.743
  149POPC   C2B 6716   8.482  38.017   8.424
  149POPC   C3B 6717   8.344  38.121   8.023
  149POPC   C4B 6718   8.678  38.232   7.785
  150POPC   NC3 6719  35.115   5.432   9.889
  150POPC   PO4 6720  35.198   4.945   9.611
  150POPC   GL1 6721  35.393   4.935   9.138
  150POPC   GL2 6722  35.749   4.772   9.119
  150POPC   C1A 6723  35.238   5.104   8.709
  150POPC   D2A 6724  35.075   5.282   8.293
  150POPC   C3A 6725  35.248   5.092   7.919
  150POPC   C4A 6726  35.546   5.128   7.561
  150POPC   C1B 6727  35.614   4.742   8.692
  150POPC   C2B 6728  35.632   4.831   8.254
  150POPC   C3B 6729  35.731   4.760   7.845
  150POPC   C4B 6730  35.502   4.579   7.502
  151POPC   NC3 6731   6.575  11.695   9.401
  151POPC   PO4 6732   6.201  11.148   9.582
  151POPC   GL1 6733   6.453  11.226   9.228
  151POPC   GL2 6734   6.697  10.991   9.201
  151POPC   C1A 6735   6.557  11.376   8.802
  151POPC   D2A 6736   6.683  11.608   8.425
  151POPC   C3A 6737   6.600  11.374   8.070
  151POPC   C4A 6738   6.255  11.105   7.868
  151POPC   C1B 6739   6.378  10.886   8.852
  151POPC   C2B 6740   6.528  11.029   8.435
  151POPC   C3B 6741   6.672  10.879   8.047
  151POPC   C4B 6742   6.554  10.725   7.624
  152POPC   NC3 6743  36.656  21.758   9.644
  152POPC   PO4 6744  36.978  22.245   9.707
  152POPC   GL1 6745  36.934  22.199   9.211
  152POPC   GL2 6746  36.861  21.879   9.173
  152POPC   C1A 6747  37.208  22.079   8.795
  152POPC   D2A 6748  37.230  22.236   8.349
  152POPC   C3A 6749  37.187  22.026   7.942
  152POPC   C4A 6750  37.294  22.266   7.567
  152POPC   C1B 6751  36.705  22.031   8.743
  152POPC   C2B 6752  36.806  21.935   8.287
  152POPC   C3B 6753  36.678  21.801   7.847
  152POPC   C4B 6754  36.799  21.746   7.408
  153POPC   NC3 6755   0.124   1.841   9.449
  153POPC   PO4 6756  44.644   2.262   9.754
  153POPC   GL1 6757  44.690   2.075   9.249
  153POPC   GL2 6758  44.779   1.754   9.114
  153POPC   C1A 6759  44.768   2.172   8.797
  153POPC   D2A 6760  44.478   2.257   8.472
  153POPC   C3A 6761  44.576   2.322   8.040
  153POPC   C4A 6762  44.380   2.187   7.636
  153POPC   C1B 6763  44.863   1.581   8.729
  153POPC   C2B 6764   0.192   1.565   8.398
  153POPC   C3B 6765   0.111   1.636   7.960
  153POPC   C4B 6766  44.823   1.949   7.780
  154POPC   NC3 6767  26.113  31.053   9.572
  154POPC   PO4 6768  25.733  30.583   9.532
  154POPC   GL1 6769  25.895  30.641   9.165
  154POPC   GL2 6770  26.219  30.799   9.160
  154POPC   C1A 6771  25.684  30.765   8.820
  154POPC   D2A 6772  25.550  30.691   8.447
  154POPC   C3A 6773  25.809  30.929   8.192
  154POPC   C4A 6774  25.840  30.695   7.850
  154POPC   C1B 6775  26.169  30.941   8.756
  154POPC   C2B 6776  26.286  30.725   8.375
  154POPC   C3B 6777  26.348  30.615   7.974
  154POPC   C4B 6778  26.257  30.978   7.731
  155POPC   NC3 6779  42.708  39.239   9.530
  155POPC   PO4 6780  42.020  39.148   9.599
  155POPC   GL1 6781  42.229  39.318   9.238
  155POPC   GL2 6782  42.288  39.003   9.124
  155POPC   C1A 6783  42.260  39.532   8.827
  155POPC   D2A 6784  42.526  39.626   8.473
  155POPC   C3A 6785  42.465  39.306   8.166
  155POPC   C4A 6786  42.185  39.203   7.823
  155POPC   C1B 6787  42.377  39.061   8.683
  155POPC   C2B 6788  42.529  38.817   8.344
  155POPC   C3B 6789  42.668  38.850   7.946
  155POPC   C4B 6790  42.584  38.951   7.527
  156POPC   NC3 6791  10.136  33.327   9.481
  156POPC   PO4 6792   9.831  32.672   9.591
  156POPC   GL1 6793   9.917  32.915   9.221
  156POPC   GL2 6794  10.200  32.737   9.145
  156POPC   C1A 6795   9.828  33.142   8.802
  156POPC   D2A 6796   9.756  33.350   8.380
  156POPC   C3A 6797   9.674  33.218   7.965
  156POPC   C4A 6798  10.019  33.238   7.687
  156POPC   C1B 6799   9.985  32.641   8.791
  156POPC   C2B 6800   9.721  32.753   8.484
  156POPC   C3B 6801   9.766  32.740   8.084
  156POPC   C4B 6802   9.768  32.804   7.643
  157POPC   NC3 6803  28.562  31.292   9.407
  157POPC   PO4 6804  27.888  31.107   9.518
  157POPC   GL1 6805  28.078  31.228   9.146
  157POPC   GL2 6806  28.219  31.549   9.111
  157POPC   C1A 6807  28.060  31.268   8.722
  157POPC   D2A 6808  28.303  31.250   8.392
  157POPC   C3A 6809  28.112  31.401   8.060
  157POPC   C4A 6810  28.293  31.517   7.701
  157POPC   C1B 6811  28.559  31.412   8.790
  157POPC   C2B 6812  28.764  31.642   8.469
  157POPC   C3B 6813  28.608  31.670   8.075
  157POPC   C4B 6814  28.803  31.594   7.673
  158POPC   NC3 6815  43.309  40.060   9.544
  158POPC   PO4 6816  42.779  39.631   9.306
  158POPC   GL1 6817  43.009  39.937   9.108
  158POPC   GL2 6818  43.258  40.198   9.075
  158POPC   C1A 6819  43.002  39.970   8.690
  158POPC   D2A 6820  43.306  39.890   8.404
  158POPC   C3A 6821  43.170  39.656   8.067
  158POPC   C4A 6822  43.002  39.823   7.729
  158POPC   C1B 6823  43.598  40.169   8.762
  158POPC   C2B 6824  43.644  40.279   8.318
  158POPC   C3B 6825  43.467  40.078   7.946
  158POPC   C4B 6826  43.576  39.688   7.745
  159POPC   NC3 6827  18.892   5.919   9.427
  159POPC   PO4 6828  19.439   5.650   9.579
  159POPC   GL1 6829  19.300   5.821   9.140
  159POPC   GL2 6830  19.030   5.604   9.035
  159POPC   C1A 6831  19.147   6.126   8.775
  159POPC   D2A 6832  18.890   6.160   8.370
  159POPC   C3A 6833  19.042   6.169   7.913
  159POPC   C4A 6834  19.076   5.867   7.554
  159POPC   C1B 6835  19.253   5.644   8.646
  159POPC   C2B 6836  19.205   5.770   8.227
  159POPC   C3B 6837  19.278   5.542   7.872
  159POPC   C4B 6838  19.057   5.353   7.535
  160POPC   NC3 6839  25.941   0.230   9.565
  160POPC   PO4 6840  26.479   0.093   9.419
  160POPC   GL1 6841  26.206   0.207   9.095
  160POPC   GL2 6842  26.147   0.531   9.184
  160POPC   C1A 6843  26.287   0.181   8.643
  160POPC   D2A 6844  25.979   0.270   8.331
  160POPC   C3A 6845  26.051   0.113   7.933
  160POPC   C4A 6846  26.330   0.357   7.719
  160POPC   C1B 6847  25.985   0.581   8.762
  160POPC   C2B 6848  25.880   0.760   8.327
  160POPC   C3B 6849  25.829   0.576   7.893
  160POPC   C4B 6850  25.873   0.723   7.457
  161POPC   NC3 6851  32.740   2.713   9.502
  161POPC   PO4 6852  33.395   2.504   9.523
  161POPC   GL1 6853  33.121   2.488   9.194
  161POPC   GL2 6854  33.035   2.842   9.098
  161POPC   C1A 6855  33.047   2.433   8.774
  161POPC   D2A 6856  33.088   2.773   8.502
  161POPC   C3A 6857  33.033   2.634   8.103
  161POPC   C4A 6858  33.275   2.577   7.791
  161POPC   C1B 6859  32.642   2.754   8.822
  161POPC   C2B 6860  32.594   2.923   8.383
  161POPC   C3B 6861  32.897   3.109   8.064
  161POPC   C4B 6862  32.982   2.989   7.650
  162POPC   NC3 6863   4.546  15.703   9.512
  162POPC   PO4 6864   3.876  15.996   9.484
  162POPC   GL1 6865   4.127  16.186   9.143
  162POPC   GL2 6866   4.470  16.294   9.205
  162POPC   C1A 6867   4.075  16.117   8.676
  162POPC   D2A 6868   3.980  16.342   8.309
  162POPC   C3A 6869   4.022  16.173   7.897
  162POPC   C4A 6870   4.395  16.147   7.650
  162POPC   C1B 6871   4.537  15.962   8.882
  162POPC   C2B 6872   4.384  15.747   8.514
  162POPC   C3B 6873   4.421  15.894   8.110
  162POPC   C4B 6874   4.182  15.696   7.830
  163POPC   NC3 6875  11.788  27.267   9.368
  163POPC   PO4 6876  11.520  26.668   9.678
  163POPC   GL1 6877  11.965  26.680   9.306
  163POPC   GL2 6878  12.191  26.996   9.251
  163POPC   C1A 6879  12.070  26.696   8.840
  163POPC   D2A 6880  12.034  26.956   8.457
  163POPC   C3A 6881  11.941  26.715   8.081
  163POPC   C4A 6882  11.751  26.827   7.710
  163POPC   C1B 6883  12.458  27.020   8.877
  163POPC   C2B 6884  12.558  26.853   8.484
  163POPC   C3B 6885  12.407  26.950   8.091
  163POPC   C4B 6886  12.306  26.778   7.722
  164POPC   NC3 6887  11.959  26.563   9.777
  164POPC   PO4 6888  11.858  25.990   9.464
  164POPC   GL1 6889  12.044  26.189   9.150
  164POPC   GL2 6890  12.297  25.949   9.136
  164POPC   C1A 6891  12.050  26.204   8.719
  164POPC   D2A 6892  12.230  26.322   8.328
  164POPC   C3A 6893  11.950  26.196   8.005
  164POPC   C4A 6894  11.822  26.337   7.605
  164POPC   C1B 6895  12.104  25.697   8.813
  164POPC   C2B 6896  12.078  25.811   8.392
  164POPC   C3B 6897  11.947  25.661   8.042
  164POPC   C4B 6898  11.923  25.846   7.622
  165POPC   NC3 6899  34.644  28.298   9.457
  165POPC   PO4 6900  34.111  28.003   9.203
  165POPC   GL1 6901  34.423  28.241   8.995
  165POPC   GL2 6902  34.422  28.562   9.092
  165POPC   C1A 6903  34.816  28.283   8.774
  165POPC   D2A 6904  34.859  28.085   8.406
  165POPC   C3A 6905  34.949  28.298   8.035
  165POPC   C4A 6906  34.681  28.177   7.744
  165POPC   C1B 6907  34.521  28.674   8.647
  165POPC   C2B 6908  34.487  28.415   8.265
  165POPC   C3B 6909  34.224  28.304   7.894
  165POPC   C4B 6910  34.396  28.498   7.488
  166POPC   NC3 6911  24.940   6.143   9.340
  166POPC   PO4 6912  25.249   5.651   9.704
  166POPC   GL1 6913  25.291   5.757   9.235
  166POPC   GL2 6914  24.992   5.659   9.150
  166POPC   C1A 6915  25.367   5.843   8.759
  166POPC   D2A 6916  25.430   6.063   8.325
  166POPC   C3A 6917  25.331   5.926   7.882
  166POPC   C4A 6918  25.392   5.503   7.674
  166POPC   C1B 6919  24.909   5.616   8.707
  166POPC   C2B 6920  25.049   5.711   8.293
  166POPC   C3B 6921  24.898   5.646   7.870
  166POPC   C4B 6922  24.992   5.776   7.436
  167POPC   NC3 6923  29.708  15.598   9.749
  167POPC   PO4 6924  30.149  15.101   9.584
  167POPC   GL1 6925  29.901  15.080   9.164
  167POPC   GL2 6926  29.579  14.932   9.076
  167POPC   C1A 6927  30.017  15.107   8.745
  167POPC   D2A 6928  30.048  15.344   8.370
  167POPC   C3A 6929  30.103  15.092   7.995
  167POPC   C4A 6930  29.823  15.311   7.747
  167POPC   C1B 6931  29.521  15.126   8.656
  167POPC   C2B 6932  29.613  15.112   8.193
  167POPC   C3B 6933  29.417  15.029   7.776
  167POPC   C4B 6934  29.599  15.060   7.354
  168POPC   NC3 6935  27.442   8.864   9.426
  168POPC   PO4 6936  27.547   9.484   9.756
  168POPC   GL1 6937  27.685   9.265   9.284
  168POPC   GL2 6938  27.726   8.959   9.041
  168POPC   C1A 6939  27.400   9.206   8.786
  168POPC   D2A 6940  27.564   8.955   8.483
  168POPC   C3A 6941  27.541   9.046   8.077
  168POPC   C4A 6942  27.342   8.863   7.741
  168POPC   C1B 6943  27.930   8.719   8.749
  168POPC   C2B 6944  27.885   8.607   8.278
  168POPC   C3B 6945  27.910   8.738   7.832
  168POPC   C4B 6946  27.973   8.611   7.400
  169POPC   NC3 6947   6.715  37.178   9.388
  169POPC   PO4 6948   6.314  36.586   9.415
  169POPC   GL1 6949   6.536  36.790   9.062
  169POPC   GL2 6950   6.894  36.892   8.993
  169POPC   C1A 6951   6.517  36.954   8.651
  169POPC   D2A 6952   6.475  36.763   8.253
  169POPC   C3A 6953   6.384  37.074   7.956
  169POPC   C4A 6954   6.787  37.182   7.783
  169POPC   C1B 6955   7.127  36.596   8.769
  169POPC   C2B 6956   7.019  36.556   8.359
  169POPC   C3B 6957   7.078  36.782   7.977
  169POPC   C4B 6958   7.087  36.585   7.586
  170POPC   NC3 6959  33.030  24.926   9.417
  170POPC   PO4 6960  32.870  25.567   9.598
  170POPC   GL1 6961  32.970  25.417   9.211
  170POPC   GL2 6962  33.269  25.518   9.062
  170POPC   C1A 6963  32.855  25.385   8.800
  170POPC   D2A 6964  33.066  25.557   8.463
  170POPC   C3A 6965  32.842  25.444   8.130
  170POPC   C4A 6966  32.656  25.307   7.794
  170POPC   C1B 6967  33.373  25.229   8.717
  170POPC   C2B 6968  33.322  25.108   8.249
  170POPC   C3B 6969  33.296  25.074   7.767
  170POPC   C4B 6970  33.329  25.073   7.294
  171POPC   NC3 6971   0.880   0.562   9.318
  171POPC   PO4 6972   1.054  44.975   9.674
  171POPC   GL1 6973   1.269   0.228   9.220
  171POPC   GL2 6974   1.420   0.565   9.305
  171POPC   C1A 6975   1.074   0.324   8.729
  171POPC   D2A 6976   1.103   0.617   8.365
  171POPC   C3A 6977   0.852   0.540   7.994
  171POPC   C4A 6978   0.640   0.871   7.763
  171POPC   C1B 6979   1.509   0.561   8.852
  171POPC   C2B 6980   1.556   0.376   8.430
  171POPC   C3B 6981   1.544   0.577   8.025
  171POPC   C4B 6982   1.434   0.417   7.614
  172POPC   NC3 6983  22.683  18.607   9.453
  172POPC   PO4 6984  23.251  18.283   9.452
  172POPC   GL1 6985  23.247  18.287   9.067
  172POPC   GL2 6986  23.396  18.586   8.987
  172POPC   C1A 6987  23.129  18.127   8.715
  172POPC   D2A 6988  23.009  18.392   8.423
  172POPC   C3A 6989  23.014  18.278   7.988
  172POPC   C4A 6990  23.140  18.166   7.579
  172POPC   C1B 6991  22.993  18.711   8.858
  172POPC   C2B 6992  22.755  18.846   8.521
  172POPC   C3B 6993  22.869  18.765   8.121
  172POPC   C4B 6994  22.811  18.857   7.734
  173POPC   NC3 6995  42.060  30.557   9.599
  173POPC   PO4 6996  42.641  30.717   9.270
  173POPC   GL1 6997  42.266  30.543   9.138
  173POPC   GL2 6998  42.042  30.818   9.112
  173POPC   C1A 6999  42.156  30.416   8.750
  173POPC   D2A 7000  42.477  30.502   8.407
  173POPC   C3A 7001  42.329  30.565   7.971
  173POPC   C4A 7002  42.547  30.739   7.620
  173POPC   C1B 7003  42.283  30.893   8.738
  173POPC   C2B 7004  42.199  30.936   8.339
  173POPC   C3B 7005  42.243  31.066   7.958
  173POPC   C4B 7006  42.079  30.932   7.557
  174POPC   NC3 7007  24.052  31.328   9.487
  174POPC   PO4 7008  23.637  31.791   9.750
  174POPC   GL1 7009  23.628  31.594   9.286
  174POPC   GL2 7010  23.615  31.217   9.227
  174POPC   C1A 7011  23.771  31.523   8.828
  174POPC   D2A 7012  23.850  31.310   8.407
  174POPC   C3A 7013  23.775  31.512   7.975
  174POPC   C4A 7014  23.856  31.538   7.490
  174POPC   C1B 7015  23.427  31.143   8.812
  174POPC   C2B 7016  23.413  31.051   8.402
  174POPC   C3B 7017  23.608  31.024   7.993
  174POPC   C4B 7018  23.777  30.990   7.556
  175POPC   NC3 7019  27.931   4.208   9.782
  175POPC   PO4 7020  27.491   4.665   9.772
  175POPC   GL1 7021  27.410   4.376   9.324
  175POPC   GL2 7022  27.429   3.998   9.193
  175POPC   C1A 7023  27.382   4.360   8.845
  175POPC   D2A 7024  27.238   4.130   8.492
  175POPC   C3A 7025  27.499   4.126   8.141
  175POPC   C4A 7026  27.650   4.490   7.929
  175POPC   C1B 7027  27.678   3.919   8.775
  175POPC   C2B 7028  27.939   3.883   8.383
  175POPC   C3B 7029  27.946   4.003   7.913
  175POPC   C4B 7030  27.674   3.858   7.548
  176POPC   NC3 7031   0.242  22.532   9.363
  176POPC   PO4 7032   0.711  23.000   9.411
  176POPC   GL1 7033   0.375  22.947   9.113
  176POPC   GL2 7034   0.307  23.264   9.097
  176POPC   C1A 7035   0.228  22.797   8.701
  176POPC   D2A 7036   0.249  22.969   8.283
  176POPC   C3A 7037  44.976  22.796   7.976
  176POPC   C4A 7038   0.167  22.523   7.677
  176POPC   C1B 7039   0.598  23.163   8.710
  176POPC   C2B 7040   0.755  23.171   8.291
  176POPC   C3B 7041   0.624  22.949   7.927
  176POPC   C4B 7042   0.278  23.074   7.673
  177POPC   NC3 7043  38.755  31.595   9.742
  177POPC   PO4 7044  38.196  31.686   9.339
  177POPC   GL1 7045  38.309  31.482   8.998
  177POPC   GL2 7046  38.608  31.299   9.087
  177POPC   C1A 7047  38.466  31.556   8.594
  177POPC   D2A 7048  38.380  31.326   8.235
  177POPC   C3A 7049  38.144  31.457   7.886
  177POPC   C4A 7050  38.084  31.604   7.426
  177POPC   C1B 7051  38.934  31.373   8.794
  177POPC   C2B 7052  39.002  31.578   8.390
  177POPC   C3B 7053  38.812  31.481   7.982
  177POPC   C4B 7054  38.562  31.547   7.630
  178POPC   NC3 7055   4.506  35.668   9.639
  178POPC   PO4 7056   4.462  36.360   9.623
  178POPC   GL1 7057   4.501  36.263   9.192
  178POPC   GL2 7058   4.431  35.925   9.187
  178POPC   C1A 7059   4.242  36.255   8.806
  178POPC   D2A 7060   3.927  36.368   8.511
  178POPC   C3A 7061   4.115  36.397   8.121
  178POPC   C4A 7062   4.378  36.218   7.803
  178POPC   C1B 7063   4.223  35.741   8.817
  178POPC   C2B 7064   4.130  35.890   8.379
  178POPC   C3B 7065   4.102  35.801   7.948
  178POPC   C4B 7066   4.072  35.874   7.518
  179POPC   NC3 7067  37.826  37.348  10.197
  179POPC   PO4 7068  37.617  37.796   9.665
  179POPC   GL1 7069  37.756  37.793   9.212
  179POPC   GL2 7070  37.615  38.083   9.149
  179POPC   C1A 7071  37.778  37.609   8.732
  179POPC   D2A 7072  37.604  37.626   8.270
  179POPC   C3A 7073  37.836  37.386   7.908
  179POPC   C4A 7074  37.738  37.302   7.464
  179POPC   C1B 7075  37.659  38.089   8.765
  179POPC   C2B 7076  37.642  38.145   8.412
  179POPC   C3B 7077  37.898  38.115   8.149
  179POPC   C4B 7078  37.741  38.029   7.749
  180POPC   NC3 7079  42.392  36.076   9.579
  180POPC   PO4 7080  42.219  36.756   9.514
  180POPC   GL1 7081  42.182  36.425   9.178
  180POPC   GL2 7082  42.405  36.097   9.083
  180POPC   C1A 7083  42.180  36.370   8.733
  180POPC   D2A 7084  42.233  36.031   8.463
  180POPC   C3A 7085  42.051  36.161   8.084
  180POPC   C4A 7086  42.126  36.064   7.664
  180POPC   C1B 7087  42.526  35.751   8.816
  180POPC   C2B 7088  42.691  35.786   8.404
  180POPC   C3B 7089  42.454  35.790   8.006
  180POPC   C4B 7090  42.581  35.796   7.573
  181POPC   NC3 7091   8.812  26.570   9.396
  181POPC   PO4 7092   9.191  27.137   9.392
  181POPC   GL1 7093   8.988  26.940   9.065
  181POPC   GL2 7094   9.205  26.663   9.078
  181POPC   C1A 7095   8.793  26.975   8.651
  181POPC   D2A 7096   8.630  27.116   8.218
  181POPC   C3A 7097   8.940  27.021   7.862
  181POPC   C4A 7098   8.836  26.885   7.418
  181POPC   C1B 7099   9.069  26.478   8.714
  181POPC   C2B 7100   9.003  26.645   8.316
  181POPC   C3B 7101   8.897  26.524   7.928
  181POPC   C4B 7102   9.213  26.627   7.623
  182POPC   NC3 7103  14.665   8.417   9.628
  182POPC   PO4 7104  14.831   7.830   9.526
  182POPC   GL1 7105  14.932   8.060   9.120
  182POPC   GL2 7106  14.702   8.353   9.075
  182POPC   C1A 7107  14.914   8.098   8.635
  182POPC   D2A 7108  14.616   8.080   8.250
  182POPC   C3A 7109  14.671   8.200   7.774
  182POPC   C4A 7110  14.502   7.991   7.347
  182POPC   C1B 7111  14.714   8.562   8.630
  182POPC   C2B 7112  14.742   8.588   8.160
  182POPC   C3B 7113  14.454   8.694   7.812
  182POPC   C4B 7114  14.235   8.891   7.457
  183POPC   NC3 7115  39.685  22.027   9.560
  183POPC   PO4 7116  39.189  22.448   9.503
  183POPC   GL1 7117  39.356  22.276   9.120
  183POPC   GL2 7118  39.431  21.903   9.123
  183POPC   C1A 7119  39.136  22.155   8.710
  183POPC   D2A 7120  39.156  22.039   8.271
  183POPC   C3A 7121  39.067  22.282   7.904
  183POPC   C4A 7122  38.886  21.984   7.613
  183POPC   C1B 7123  39.628  22.037   8.752
  183POPC   C2B 7124  39.565  22.288   8.427
  183POPC   C3B 7125  39.590  22.162   7.994
  183POPC   C4B 7126  39.473  21.930   7.631
  184POPC   NC3 7127   7.726  41.904   9.573
  184POPC   PO4 7128   8.379  41.698   9.537
  184POPC   GL1 7129   8.289  41.543   9.094
  184POPC   GL2 7130   7.981  41.335   9.151
  184POPC   C1A 7131   8.224  41.650   8.658
  184POPC   D2A 7132   8.184  41.873   8.285
  184POPC   C3A 7133   8.421  41.782   7.931
  184POPC   C4A 7134   8.275  41.400   7.778
  184POPC   C1B 7135   7.774  41.513   8.839
  184POPC   C2B 7136   7.811  41.431   8.442
  184POPC   C3B 7137   7.871  41.543   8.052
  184POPC   C4B 7138   7.737  41.444   7.658
  185POPC   NC3 7139   6.826   2.542   9.485
  185POPC   PO4 7140   6.255   2.887   9.609
  185POPC   GL1 7141   6.520   3.001   9.232
  185POPC   GL2 7142   6.627   2.666   9.036
  185POPC   C1A 7143   6.714   3.095   8.819
  185POPC   D2A 7144   6.621   2.782   8.505
  185POPC   C3A 7145   6.845   2.838   8.158
  185POPC   C4A 7146   6.656   2.753   7.771
  185POPC   C1B 7147   6.640   2.309   8.754
  185POPC   C2B 7148   6.876   2.238   8.380
  185POPC   C3B 7149   6.970   2.390   7.951
  185POPC   C4B 7150   6.813   2.275   7.553
  186POPC   NC3 7151  20.419  26.719   9.573
  186POPC   PO4 7152  20.808  27.133   9.301
  186POPC   GL1 7153  20.503  26.917   9.044
  186POPC   GL2 7154  20.431  26.550   9.095
  186POPC   C1A 7155  20.476  26.801   8.596
  186POPC   D2A 7156  20.750  26.952   8.239
  186POPC   C3A 7157  20.835  26.708   7.852
  186POPC   C4A 7158  20.891  26.687   7.398
  186POPC   C1B 7159  20.095  26.478   8.792
  186POPC   C2B 7160  20.171  26.447   8.356
  186POPC   C3B 7161  20.341  26.708   8.037
  186POPC   C4B 7162  20.401  26.601   7.602
  187POPC   NC3 7163  34.544  11.565   9.480
  187POPC   PO4 7164  34.728  12.251   9.504
  187POPC   GL1 7165  34.453  12.068   9.217
  187POPC   GL2 7166  34.669  11.831   9.072
  187POPC   C1A 7167  34.447  12.167   8.766
  187POPC   D2A 7168  34.800  12.122   8.520
  187POPC   C3A 7169  34.831  12.161   8.115
  187POPC   C4A 7170  34.624  12.088   7.748
  187POPC   C1B 7171  34.644  11.668   8.675
  187POPC   C2B 7172  34.793  11.641   8.284
  187POPC   C3B 7173  34.499  11.641   7.998
  187POPC   C4B 7174  34.367  11.666   7.620
  188POPC   NC3 7175   3.691  31.845   9.351
  188POPC   PO4 7176   3.741  31.139   9.453
  188POPC   GL1 7177   3.691  31.386   9.122
  188POPC   GL2 7178   3.373  31.341   9.058
  188POPC   C1A 7179   3.693  31.582   8.722
  188POPC   D2A 7180   3.663  31.874   8.374
  188POPC   C3A 7181   3.630  31.550   8.071
  188POPC   C4A 7182   3.734  31.323   7.710
  188POPC   C1B 7183   3.183  31.593   8.717
  188POPC   C2B 7184   3.155  31.814   8.334
  188POPC   C3B 7185   3.347  31.950   7.947
  188POPC   C4B 7186   3.299  31.614   7.673
  189POPC   NC3 7187  29.790  44.610   9.628
  189POPC   PO4 7188  30.175   0.093   9.426
  189POPC   GL1 7189  29.938  44.793   9.162
  189POPC   GL2 7190  30.011  44.413   9.201
  189POPC   C1A 7191  29.732  44.828   8.767
  189POPC   D2A 7192  29.630  44.882   8.343
  189POPC   C3A 7193  30.010  44.880   8.124
  189POPC   C4A 7194  29.989  44.877   7.662
  189POPC   C1B 7195  29.624  44.384   8.940
  189POPC   C2B 7196  29.663  44.381   8.452
  189POPC   C3B 7197  29.823  44.437   7.988
  189POPC   C4B 7198  29.713  44.499   7.534
  190POPC   NC3 7199   4.870  24.700   9.482
  190POPC   PO4 7200   5.282  24.163   9.468
  190POPC   GL1 7201   5.358  24.290   9.073
  190POPC   GL2 7202   5.301  24.646   9.036
  190POPC   C1A 7203   5.005  24.321   8.798
  190POPC   D2A 7204   5.008  24.568   8.454
  190POPC   C3A 7205   5.320  24.471   8.165
  190POPC   C4A 7206   5.212  24.342   7.759
  190POPC   C1B 7207   5.291  24.939   8.665
  190POPC   C2B 7208   5.074  25.028   8.266
  190POPC   C3B 7209   4.927  24.763   7.946
  190POPC   C4B 7210   5.026  24.738   7.491
  191POPC   NC3 7211   6.387  18.695   9.424
  191POPC   PO4 7212   7.075  19.065   9.453
  191POPC   GL1 7213   6.668  19.053   9.163
  191POPC   GL2 7214   6.703  18.753   9.015
  191POPC   C1A 7215   6.392  19.190   8.785
  191POPC   D2A 7216   6.545  19.168   8.334
  191POPC   C3A 7217   6.428  19.145   7.902
  191POPC   C4A 7218   6.585  19.004   7.505
  191POPC   C1B 7219   6.848  19.001   8.697
  191POPC   C2B 7220   7.039  18.971   8.327
  191POPC   C3B 7221   6.888  18.877   7.922
  191POPC   C4B 7222   7.131  18.917   7.529
  192POPC   NC3 7223  19.382  42.972   9.433
  192POPC   PO4 7224  18.790  42.988   9.822
  192POPC   GL1 7225  18.846  43.134   9.315
  192POPC   GL2 7226  19.122  43.364   9.267
  192POPC   C1A 7227  18.686  43.080   8.864
  192POPC   D2A 7228  18.920  42.874   8.571
  192POPC   C3A 7229  18.874  42.990   8.161
  192POPC   C4A 7230  19.044  42.836   7.763
  192POPC   C1B 7231  19.120  43.405   8.841
  192POPC   C2B 7232  19.293  43.265   8.463
  192POPC   C3B 7233  19.312  43.227   8.019
  192POPC   C4B 7234  19.003  43.363   7.705
  193POPC   NC3 7235   8.551  11.523   9.677
  193POPC   PO4 7236   9.184  11.634   9.606
  193POPC   GL1 7237   9.165  11.463   9.171
  193POPC   GL2 7238   8.900  11.223   9.150
  193POPC   C1A 7239   9.232  11.325   8.755
  193POPC   D2A 7240   9.005  11.416   8.380
  193POPC   C3A 7241   9.077  11.177   8.000
  193POPC   C4A 7242   9.093  10.992   7.589
  193POPC   C1B 7243   8.821  11.022   8.716
  193POPC   C2B 7244   8.673  11.002   8.271
  193POPC   C3B 7245   8.806  10.708   7.933
  193POPC   C4B 7246   8.699  10.669   7.477
  194POPC   NC3 7247  10.963   2.798   9.343
  194POPC   PO4 7248  11.513   3.177   9.401
  194POPC   GL1 7249  11.459   2.839   9.117
  194POPC   GL2 7250  11.457   2.475   9.251
  194POPC   C1A 7251  11.196   2.788   8.737
  194POPC   D2A 7252  11.014   3.026   8.397
  194POPC   C3A 7253  11.092   2.781   8.018
  194POPC   C4A 7254  11.351   2.881   7.662
  194POPC   C1B 7255  11.595   2.458   8.803
  194POPC   C2B 7256  11.472   2.563   8.343
  194POPC   C3B 7257  11.539   2.458   7.886
  194POPC   C4B 7258  11.674   2.296   7.471
  195POPC   NC3 7259  43.025  23.278   9.507
  195POPC   PO4 7260  43.378  22.804   9.780
  195POPC   GL1 7261  43.150  22.813   9.314
  195POPC   GL2 7262  42.829  22.914   9.195
  195POPC   C1A 7263  43.200  22.854   8.817
  195POPC   D2A 7264  43.288  22.631   8.382
  195POPC   C3A 7265  43.190  22.895   8.005
  195POPC   C4A 7266  43.006  23.225   7.727
  195POPC   C1B 7267  42.707  23.001   8.760
  195POPC   C2B 7268  42.802  22.891   8.337
  195POPC   C3B 7269  42.621  22.993   7.927
  195POPC   C4B 7270  42.697  22.893   7.461
  196POPC   NC3 7271  41.688  19.130   9.452
  196POPC   PO4 7272  41.119  18.774   9.359
  196POPC   GL1 7273  41.494  18.896   9.052
  196POPC   GL2 7274  41.904  18.963   9.028
  196POPC   C1A 7275  41.530  19.129   8.696
  196POPC   D2A 7276  41.245  19.246   8.358
  196POPC   C3A 7277  41.347  19.092   8.001
  196POPC   C4A 7278  41.747  19.211   7.863
  196POPC   C1B 7279  41.882  18.749   8.638
  196POPC   C2B 7280  41.582  18.777   8.332
  196POPC   C3B 7281  41.705  18.693   7.939
  196POPC   C4B 7282  41.859  18.619   7.542
  197POPC   NC3 7283  19.173  10.786   9.493
  197POPC   PO4 7284  18.911  10.175   9.556
  197POPC   GL1 7285  19.014  10.396   9.187
  197POPC   GL2 7286  18.750  10.497   9.074
  197POPC   C1A 7287  19.069  10.285   8.738
  197POPC   D2A 7288  18.883  10.280   8.317
  197POPC   C3A 7289  18.955  10.449   7.883
  197POPC   C4A 7290  18.697  10.331   7.510
  197POPC   C1B 7291  18.717  10.673   8.657
  197POPC   C2B 7292  19.000  10.784   8.293
  197POPC   C3B 7293  19.363  10.763   7.998
  197POPC   C4B 7294  19.214  10.849   7.587
  198POPC   NC3 7295   6.805   0.062   9.426
  198POPC   PO4 7296   6.409  44.558   9.591
  198POPC   GL1 7297   6.494  44.754   9.147
  198POPC   GL2 7298   6.857  44.728   9.067
  198POPC   C1A 7299   6.564  44.727   8.674
  198POPC   D2A 7300   6.906  44.808   8.383
  198POPC   C3A 7301   6.630  44.841   8.078
  198POPC   C4A 7302   6.377  44.678   7.772
  198POPC   C1B 7303   7.010  44.503   8.777
  198POPC   C2B 7304   6.786  44.294   8.491
  198POPC   C3B 7305   6.740  44.344   8.063
  198POPC   C4B 7306   7.019  44.532   7.772
  199POPC   NC3 7307  22.743  35.883   9.376
  199POPC   PO4 7308  23.157  36.327   9.528
  199POPC   GL1 7309  22.886  36.316   9.127
  199POPC   GL2 7310  22.613  36.572   9.128
  199POPC   C1A 7311  22.877  36.044   8.709
  199POPC   D2A 7312  22.998  35.808   8.323
  199POPC   C3A 7313  23.058  36.060   7.941
  199POPC   C4A 7314  22.854  36.120   7.501
  199POPC   C1B 7315  22.555  36.418   8.724
  199POPC   C2B 7316  22.770  36.436   8.340
  199POPC   C3B 7317  22.695  36.402   7.911
  199POPC   C4B 7318  22.511  36.603   7.589
  200POPC   NC3 7319  24.511  22.355   9.614
  200POPC   PO4 7320  24.774  21.737   9.447
  200POPC   GL1 7321  24.585  22.060   9.156
  200POPC   GL2 7322  24.236  22.219   9.098
  200POPC   C1A 7323  24.501  22.026   8.707
  200POPC   D2A 7324  24.280  21.990   8.318
  200POPC   C3A 7325  24.446  22.017   7.895
  200POPC   C4A 7326  24.589  22.105   7.465
  200POPC   C1B 7327  24.167  22.398   8.622
  200POPC   C2B 7328  24.347  22.473   8.180
  200POPC   C3B 7329  24.461  22.555   7.734
  200POPC   C4B 7330  24.391  22.546   7.253
  201POPC   NC3 7331  20.979  35.751   9.652
  201POPC   PO4 7332  21.473  36.137   9.480
  201POPC   GL1 7333  21.478  35.967   9.078
  201POPC   GL2 7334  21.157  35.805   9.079
  201POPC   C1A 7335  21.396  35.943   8.632
  201POPC   D2A 7336  21.173  36.254   8.424
  201POPC   C3A 7337  21.377  36.356   8.100
  201POPC   C4A 7338  21.390  36.227   7.742
  201POPC   C1B 7339  21.017  35.617   8.728
  201POPC   C2B 7340  21.205  35.529   8.387
  201POPC   C3B 7341  21.318  35.819   8.108
  201POPC   C4B 7342  21.073  35.635   7.813
  202POPC   NC3 7343  33.111  28.028   9.464
  202POPC   PO4 7344  32.632  27.564   9.524
  202POPC   GL1 7345  32.872  27.660   9.163
  202POPC   GL2 7346  33.236  27.600   9.171
  202POPC   C1A 7347  32.862  27.465   8.774
  202POPC   D2A 7348  33.051  27.404   8.370
  202POPC   C3A 7349  32.776  27.358   8.032
  202POPC   C4A 7350  32.835  27.718   7.828
  202POPC   C1B 7351  33.249  27.767   8.738
  202POPC   C2B 7352  33.266  27.982   8.336
  202POPC   C3B 7353  33.242  28.035   7.898
  202POPC   C4B 7354  33.295  27.763   7.531
  203POPC   NC3 7355  37.413  37.360   9.533
  203POPC   PO4 7356  36.672  37.333   9.581
  203POPC   GL1 7357  36.972  37.534   9.312
  203POPC   GL2 7358  37.213  37.813   9.333
  203POPC   C1A 7359  36.921  37.578   8.902
  203POPC   D2A 7360  36.771  37.623   8.496
  203POPC   C3A 7361  37.067  37.522   8.198
  203POPC   C4A 7362  36.890  37.445   7.828
  203POPC   C1B 7363  37.175  38.019   8.924
  203POPC   C2B 7364  37.205  37.907   8.500
  203POPC   C3B 7365  37.282  37.980   8.047
  203POPC   C4B 7366  37.407  37.630   7.784
  204POPC   NC3 7367  17.815   3.070   9.546
  204POPC   PO4 7368  18.503   2.895   9.508
  204POPC   GL1 7369  18.189   2.794   9.170
  204POPC   GL2 7370  18.014   2.409   9.142
  204POPC   C1A 7371  18.350   2.917   8.757
  204POPC   D2A 7372  18.532   3.166   8.376
  204POPC   C3A 7373  18.331   2.970   8.036
  204POPC   C4A 7374  18.319   2.786   7.661
  204POPC   C1B 7375  17.935   2.602   8.769
  204POPC   C2B 7376  18.013   2.806   8.400
  204POPC   C3B 7377  17.981   2.595   8.009
  204POPC   C4B 7378  17.785   2.409   7.661
  205POPC   NC3 7379  34.819  25.076   9.287
  205POPC   PO4 7380  34.314  25.470   9.479
  205POPC   GL1 7381  34.417  25.358   9.119
  205POPC   GL2 7382  34.639  25.654   9.098
  205POPC   C1A 7383  34.406  25.345   8.686
  205POPC   D2A 7384  34.486  25.577   8.314
  205POPC   C3A 7385  34.176  25.400   8.022
  205POPC   C4A 7386  34.252  24.979   7.761
  205POPC   C1B 7387  34.878  25.442   8.762
  205POPC   C2B 7388  34.819  25.097   8.466
  205POPC   C3B 7389  34.626  25.135   8.067
  205POPC   C4B 7390  34.600  25.531   7.798
  206POPC   NC3 7391  29.118  30.817   9.502
  206POPC   PO4 7392  29.194  30.151   9.397
  206POPC   GL1 7393  29.087  30.479   9.121
  206POPC   GL2 7394  29.372  30.606   8.930
  206POPC   C1A 7395  28.921  30.803   8.828
  206POPC   D2A 7396  29.045  30.640   8.428
  206POPC   C3A 7397  28.896  30.768   8.034
  206POPC   C4A 7398  28.892  30.987   7.652
  206POPC   C1B 7399  29.485  30.911   8.640
  206POPC   C2B 7400  29.353  30.996   8.226
  206POPC   C3B 7401  29.369  30.894   7.792
  206POPC   C4B 7402  29.336  30.819   7.346
  207POPC   NC3 7403  28.718  18.777   9.533
  207POPC   PO4 7404  28.720  19.387   9.355
  207POPC   GL1 7405  28.773  19.023   9.061
  207POPC   GL2 7406  28.992  18.742   9.098
  207POPC   C1A 7407  28.945  19.033   8.635
  207POPC   D2A 7408  29.203  19.279   8.328
  207POPC   C3A 7409  29.027  19.270   7.930
  207POPC   C4A 7410  29.102  19.246   7.507
  207POPC   C1B 7411  29.244  18.596   8.752
  207POPC   C2B 7412  29.349  18.770   8.344
  207POPC   C3B 7413  29.288  18.841   7.914
  207POPC   C4B 7414  28.887  18.784   7.703
  208POPC   NC3 7415  38.853  42.496   9.586
  208POPC   PO4 7416  38.374  42.048   9.540
  208POPC   GL1 7417  38.428  42.370   9.190
  208POPC   GL2 7418  38.682  42.610   9.103
  208POPC   C1A 7419  38.435  42.350   8.723
  208POPC   D2A 7420  38.576  42.446   8.280
  208POPC   C3A 7421  38.317  42.287   7.949
  208POPC   C4A 7422  38.047  42.305   7.593
  208POPC   C1B 7423  38.849  42.657   8.676
  208POPC   C2B 7424  39.032  42.872   8.305
  208POPC   C3B 7425  38.994  42.710   7.905
  208POPC   C4B 7426  38.579  42.695   7.797
  209POPC   NC3 7427  27.945   4.283   9.265
  209POPC   PO4 7428  28.475   4.681   9.509
  209POPC   GL1 7429  28.332   4.586   9.111
  209POPC   GL2 7430  28.468   4.251   9.063
  209POPC   C1A 7431  28.432   4.530   8.660
  209POPC   D2A 7432  28.772   4.334   8.456
  209POPC   C3A 7433  28.742   4.408   8.021
  209POPC   C4A 7434  28.391   4.364   7.773
  209POPC   C1B 7435  28.405   4.023   8.680
  209POPC   C2B 7436  28.413   4.042   8.209
  209POPC   C3B 7437  28.419   3.859   7.791
  209POPC   C4B 7438  28.169   4.039   7.429
  210POPC   NC3 7439  11.843  43.810   9.396
  210POPC   PO4 7440  12.402  44.182   9.408
  210POPC   GL1 7441  12.128  44.088   9.080
  210POPC   GL2 7442  12.256  43.747   9.097
  210POPC   C1A 7443  11.861  43.888   8.728
  210POPC   D2A 7444  11.552  43.595   8.500
  210POPC   C3A 7445  11.649  43.693   8.075
  210POPC   C4A 7446  11.731  44.123   7.891
  210POPC   C1B 7447  12.349  43.671   8.685
  210POPC   C2B 7448  12.143  43.775   8.269
  210POPC   C3B 7449  12.131  43.833   7.779
  210POPC   C4B 7450  12.244  43.621   7.347
  211POPC   NC3 7451   0.434  20.514   9.538
  211POPC   PO4 7452   0.294  21.111   9.487
  211POPC   GL1 7453   0.265  20.804   9.163
  211POPC   GL2 7454   0.649  20.753   9.125
  211POPC   C1A 7455   0.266  20.642   8.729
  211POPC   D2A 7456   0.535  20.739   8.370
  211POPC   C3A 7457   0.371  20.859   7.955
  211POPC   C4A 7458   0.415  20.805   7.497
  211POPC   C1B 7459   0.843  20.549   8.760
  211POPC   C2B 7460   1.026  20.617   8.354
  211POPC   C3B 7461   0.828  20.599   7.958
  211POPC   C4B 7462   0.765  20.328   7.666
  212POPC   NC3 7463  28.204  32.427   9.582
  212POPC   PO4 7464  28.478  31.750   9.499
  212POPC   GL1 7465  28.260  32.070   9.219
  212POPC   GL2 7466  28.582  32.219   9.130
  212POPC   C1A 7467  28.245  32.366   8.788
  212POPC   D2A 7468  28.304  32.287   8.305
  212POPC   C3A 7469  28.557  32.521   7.957
  212POPC   C4A 7470  28.293  32.570   7.628
  212POPC   C1B 7471  28.416  31.894   8.782
  212POPC   C2B 7472  28.184  31.773   8.414
  212POPC   C3B 7473  28.159  31.920   7.974
  212POPC   C4B 7474  28.508  32.053   7.725
  213POPC   NC3 7475  30.236  10.715   9.523
  213POPC   PO4 7476  29.724  10.305   9.750
  213POPC   GL1 7477  29.816  10.442   9.268
  213POPC   GL2 7478  29.816  10.812   9.176
  213POPC   C1A 7479  29.892  10.492   8.773
  213POPC   D2A 7480  29.906  10.763   8.379
  213POPC   C3A 7481  29.948  10.637   7.975
  213POPC   C4A 7482  29.872  10.535   7.564
  213POPC   C1B 7483  29.661  10.987   8.746
  213POPC   C2B 7484  29.545  11.101   8.279
  213POPC   C3B 7485  29.736  11.075   7.836
  213POPC   C4B 7486  29.877  11.050   7.387
  214POPC   NC3 7487  42.549  20.837   9.734
  214POPC   PO4 7488  41.935  20.544   9.700
  214POPC   GL1 7489  42.128  20.692   9.299
  214POPC   GL2 7490  42.490  20.702   9.213
  214POPC   C1A 7491  42.118  20.622   8.844
  214POPC   D2A 7492  42.232  20.351   8.499
  214POPC   C3A 7493  42.295  20.556   8.110
  214POPC   C4A 7494  42.260  20.382   7.714
  214POPC   C1B 7495  42.607  20.447   8.817
  214POPC   C2B 7496  42.742  20.283   8.393
  214POPC   C3B 7497  42.740  20.399   7.955
  214POPC   C4B 7498  42.592  20.766   7.699
  215POPC   NC3 7499   2.020  26.856   9.328
  215POPC   PO4 7500   1.499  26.763   9.726
  215POPC   GL1 7501   1.568  26.625   9.213
  215POPC   GL2 7502   1.860  26.544   8.962
  215POPC   C1A 7503   1.538  26.800   8.717
  215POPC   D2A 7504   1.873  26.811   8.427
  215POPC   C3A 7505   1.828  26.885   8.012
  215POPC   C4A 7506   1.999  26.690   7.694
  215POPC   C1B 7507   2.266  26.766   8.768
  215POPC   C2B 7508   2.336  27.053   8.479
  215POPC   C3B 7509   2.345  26.944   8.063
  215POPC   C4B 7510   2.180  27.173   7.724
  216POPC   NC3 7511  23.300  22.777   9.329
  216POPC   PO4 7512  22.705  22.701   9.501
  216POPC   GL1 7513  22.696  22.704   9.067
  216POPC   GL2 7514  22.868  23.009   9.090
  216POPC   C1A 7515  23.008  22.613   8.735
  216POPC   D2A 7516  23.057  22.779   8.319
  216POPC   C3A 7517  22.682  22.783   8.091
  216POPC   C4A 7518  22.708  22.516   7.775
  216POPC   C1B 7519  22.800  23.065   8.665
  216POPC   C2B 7520  22.877  23.258   8.270
  216POPC   C3B 7521  22.917  23.172   7.842
  216POPC   C4B 7522  22.914  23.297   7.409
  217POPC   NC3 7523  18.495  38.978   9.702
  217POPC   PO4 7524  18.216  39.506   9.733
  217POPC   GL1 7525  18.419  39.326   9.311
  217POPC   GL2 7526  18.431  38.968   9.183
  217POPC   C1A 7527  18.544  39.363   8.838
  217POPC   D2A 7528  18.405  39.039   8.512
  217POPC   C3A 7529  18.490  39.013   8.091
  217POPC   C4A 7530  18.559  39.353   7.829
  217POPC   C1B 7531  18.087  39.149   8.890
  217POPC   C2B 7532  18.049  39.406   8.462
  217POPC   C3B 7533  18.049  39.282   7.989
  217POPC   C4B 7534  18.190  38.971   7.682
  218POPC   NC3 7535  42.879  41.698   9.636
  218POPC   PO4 7536  43.444  41.842   9.201
  218POPC   GL1 7537  43.111  41.601   8.972
  218POPC   GL2 7538  42.837  41.518   9.163
  218POPC   C1A 7539  42.730  41.721   8.720
  218POPC   D2A 7540  42.630  41.713   8.287
  218POPC   C3A 7541  43.040  41.659   8.086
  218POPC   C4A 7542  43.383  41.535   7.841
  218POPC   C1B 7543  42.626  41.258   8.874
  218POPC   C2B 7544  42.835  41.264   8.473
  218POPC   C3B 7545  42.766  41.234   8.056
  218POPC   C4B 7546  42.969  41.302   7.652
  219POPC   NC3 7547  14.034   3.924   9.487
  219POPC   PO4 7548  14.044   3.183   9.570
  219POPC   GL1 7549  13.794   3.427   9.268
  219POPC   GL2 7550  13.441   3.475   9.242
  219POPC   C1A 7551  13.846   3.392   8.819
  219POPC   D2A 7552  14.063   3.389   8.397
  219POPC   C3A 7553  13.876   3.653   8.044
  219POPC   C4A 7554  13.511   3.701   7.772
  219POPC   C1B 7555  13.319   3.477   8.805
  219POPC   C2B 7556  13.537   3.458   8.398
  219POPC   C3B 7557  13.539   3.220   8.020
  219POPC   C4B 7558  13.264   3.267   7.654
  220POPC   NC3 7559  34.283  39.060   9.277
  220POPC   PO4 7560  34.558  38.495   9.602
  220POPC   GL1 7561  34.658  38.333   9.171
  220POPC   GL2 7562  34.331  38.458   9.014
  220POPC   C1A 7563  34.692  38.186   8.743
  220POPC   D2A 7564  34.560  38.411   8.386
  220POPC   C3A 7565  34.689  38.225   8.025
  220POPC   C4A 7566  34.746  38.412   7.586
  220POPC   C1B 7567  34.111  38.269   8.626
  220POPC   C2B 7568  34.187  38.102   8.190
  220POPC   C3B 7569  34.281  38.279   7.758
  220POPC   C4B 7570  34.304  38.468   7.331
  221POPC   NC3 7571  40.975   0.613   9.516
  221POPC   PO4 7572  40.447   0.077   9.538
  221POPC   GL1 7573  40.670   0.312   9.195
  221POPC   GL2 7574  41.053   0.293   9.122
  221POPC   C1A 7575  40.692   0.304   8.744
  221POPC   D2A 7576  40.536   0.519   8.357
  221POPC   C3A 7577  40.677   0.309   7.971
  221POPC   C4A 7578  40.712   0.475   7.517
  221POPC   C1B 7579  41.198   0.472   8.719
  221POPC   C2B 7580  41.046   0.544   8.310
  221POPC   C3B 7581  41.006   0.688   7.902
  221POPC   C4B 7582  41.214   0.582   7.512
  222POPC   NC3 7583   6.630   9.124   9.576
  222POPC   PO4 7584   6.631   8.467   9.552
  222POPC   GL1 7585   6.512   8.691   9.195
  222POPC   GL2 7586   6.306   8.990   9.202
  222POPC   C1A 7587   6.465   8.789   8.768
  222POPC   D2A 7588   6.642   8.897   8.384
  222POPC   C3A 7589   6.456   8.771   8.005
  222POPC   C4A 7590   6.638   8.826   7.564
  222POPC   C1B 7591   6.502   9.300   8.893
  222POPC   C2B 7592   6.718   9.416   8.500
  222POPC   C3B 7593   6.780   9.323   8.065
  222POPC   C4B 7594   6.439   9.230   7.818
  223POPC   NC3 7595   7.078   5.600   9.441
  223POPC   PO4 7596   7.576   6.049   9.497
  223POPC   GL1 7597   7.496   5.754   9.174
  223POPC   GL2 7598   7.743   5.893   9.013
  223POPC   C1A 7599   7.391   5.658   8.736
  223POPC   D2A 7600   7.298   5.840   8.300
  223POPC   C3A 7601   7.516   5.680   7.882
  223POPC   C4A 7602   7.321   5.374   7.589
  223POPC   C1B 7603   7.533   6.139   8.679
  223POPC   C2B 7604   7.707   6.139   8.256
  223POPC   C3B 7605   7.738   6.153   7.817
  223POPC   C4B 7606   7.824   6.481   7.470
  224POPC   NC3 7607   6.037  32.157   9.609
  224POPC   PO4 7608   5.419  32.084   9.455
  224POPC   GL1 7609   5.758  31.988   9.160
  224POPC   GL2 7610   5.678  32.333   9.045
  224POPC   C1A 7611   5.970  32.043   8.732
  224POPC   D2A 7612   5.788  32.247   8.362
  224POPC   C3A 7613   5.919  32.342   7.924
  224POPC   C4A 7614   5.909  32.280   7.474
  224POPC   C1B 7615   5.417  32.105   8.731
  224POPC   C2B 7616   5.420  31.861   8.335
  224POPC   C3B 7617   5.649  31.893   7.931
  224POPC   C4B 7618   5.572  31.897   7.473
  225POPC   NC3 7619  13.133  11.578   9.876
  225POPC   PO4 7620  12.689  11.262   9.442
  225POPC   GL1 7621  12.712  11.539   9.023
  225POPC   GL2 7622  13.003  11.347   8.905
  225POPC   C1A 7623  12.773  11.579   8.515
  225POPC   D2A 7624  12.946  11.290   8.169
  225POPC   C3A 7625  12.665  11.190   7.815
  225POPC   C4A 7626  12.633  11.289   7.376
  225POPC   C1B 7627  13.117  11.794   8.817
  225POPC   C2B 7628  13.177  11.948   8.427
  225POPC   C3B 7629  13.177  11.720   8.056
  225POPC   C4B 7630  13.010  11.535   7.687
  226POPC   NC3 7631   2.751   0.883   9.419
  226POPC   PO4 7632   2.181   1.204   9.397
  226POPC   GL1 7633   2.476   1.182   9.078
  226POPC   GL2 7634   2.810   1.327   9.159
  226POPC   C1A 7635   2.584   1.327   8.677
  226POPC   D2A 7636   2.828   1.356   8.322
  226POPC   C3A 7637   2.568   1.399   8.004
  226POPC   C4A 7638   2.356   1.259   7.667
  226POPC   C1B 7639   3.074   1.243   8.794
  226POPC   C2B 7640   3.141   0.970   8.471
  226POPC   C3B 7641   3.083   0.928   8.073
  226POPC   C4B 7642   2.946   1.203   7.727
  227POPC   NC3 7643  41.504  44.795   9.588
  227POPC   PO4 7644  41.937  44.431   9.219
  227POPC   GL1 7645  41.678  44.714   9.064
  227POPC   GL2 7646  41.323  44.701   9.133
  227POPC   C1A 7647  41.799  44.965   8.709
  227POPC   D2A 7648  41.807  44.781   8.333
  227POPC   C3A 7649  41.818   0.049   8.013
  227POPC   C4A 7650  41.766  44.805   7.668
  227POPC   C1B 7651  41.309  44.469   8.751
  227POPC   C2B 7652  41.273  44.625   8.367
  227POPC   C3B 7653  41.380  44.720   7.981
  227POPC   C4B 7654  41.182  44.625   7.617
  228POPC   NC3 7655   4.522   7.945   9.716
  228POPC   PO4 7656   4.121   8.422   9.485
  228POPC   GL1 7657   4.249   8.043   9.219
  228POPC   GL2 7658   4.600   7.891   9.209
  228POPC   C1A 7659   4.287   8.040   8.788
  228POPC   D2A 7660   4.466   8.170   8.406
  228POPC   C3A 7661   4.237   8.160   8.009
  228POPC   C4A 7662   4.324   8.354   7.593
  228POPC   C1B 7663   4.783   7.867   8.792
  228POPC   C2B 7664   4.678   7.693   8.409
  228POPC   C3B 7665   4.635   7.863   8.004
  228POPC   C4B 7666   4.427   7.875   7.599
  229POPC   NC3 7667  39.725  30.240   9.348
  229POPC   PO4 7668  39.316  29.901   9.833
  229POPC   GL1 7669  39.340  29.891   9.342
  229POPC   GL2 7670  39.160  30.222   9.257
  229POPC   C1A 7671  39.370  29.692   8.894
  229POPC   D2A 7672  39.224  29.861   8.485
  229POPC   C3A 7673  39.261  29.750   8.051
  229POPC   C4A 7674  39.479  30.012   7.720
  229POPC   C1B 7675  38.941  29.992   8.907
  229POPC   C2B 7676  38.718  29.795   8.520
  229POPC   C3B 7677  38.728  29.902   8.071
  229POPC   C4B 7678  38.965  29.997   7.673
  230POPC   NC3 7679  15.775  43.248   9.969
  230POPC   PO4 7680  16.036  43.114   9.323
  230POPC   GL1 7681  15.939  42.904   9.015
  230POPC   GL2 7682  16.212  42.683   9.076
  230POPC   C1A 7683  15.829  43.175   8.692
  230POPC   D2A 7684  15.703  43.399   8.356
  230POPC   C3A 7685  15.636  43.123   8.046
  230POPC   C4A 7686  15.840  43.328   7.743
  230POPC   C1B 7687  16.341  42.991   8.725
  230POPC   C2B 7688  16.172  43.088   8.312
  230POPC   C3B 7689  16.314  43.258   7.948
  230POPC   C4B 7690  16.275  43.137   7.535
  231POPC   NC3 7691  24.294  37.669   9.688
  231POPC   PO4 7692  24.707  37.291   9.673
  231POPC   GL1 7693  24.426  37.359   9.271
  231POPC   GL2 7694  24.303  37.704   9.179
  231POPC   C1A 7695  24.552  37.398   8.815
  231POPC   D2A 7696  24.356  37.497   8.415
  231POPC   C3A 7697  24.557  37.458   8.013
  231POPC   C4A 7698  24.809  37.666   7.680
  231POPC   C1B 7699  24.316  37.876   8.778
  231POPC   C2B 7700  24.243  38.002   8.347
  231POPC   C3B 7701  24.467  37.960   7.972
  231POPC   C4B 7702  24.329  37.819   7.587
  232POPC   NC3 7703  20.822  30.180   9.539
  232POPC   PO4 7704  20.359  29.706   9.407
  232POPC   GL1 7705  20.559  29.993   9.140
  232POPC   GL2 7706  20.865  29.844   9.133
  232POPC   C1A 7707  20.626  30.093   8.714
  232POPC   D2A 7708  20.522  29.799   8.363
  232POPC   C3A 7709  20.590  30.043   7.989
  232POPC   C4A 7710  20.334  30.269   7.714
  232POPC   C1B 7711  20.910  29.681   8.715
  232POPC   C2B 7712  21.035  29.846   8.311
  232POPC   C3B 7713  20.945  29.695   7.869
  232POPC   C4B 7714  20.553  29.491   7.751
  233POPC   NC3 7715   1.608   8.804   9.581
  233POPC   PO4 7716   1.926   9.332   9.397
  233POPC   GL1 7717   2.095   9.035   9.097
  233POPC   GL2 7718   1.857   8.750   9.133
  233POPC   C1A 7719   2.083   9.047   8.635
  233POPC   D2A 7720   1.909   9.199   8.228
  233POPC   C3A 7721   2.211   9.167   7.893
  233POPC   C4A 7722   2.097   9.021   7.454
  233POPC   C1B 7723   1.763   8.626   8.704
  233POPC   C2B 7724   1.654   8.732   8.263
  233POPC   C3B 7725   1.809   8.827   7.855
  233POPC   C4B 7726   1.591   8.873   7.467
  234POPC   NC3 7727   3.353  23.189   9.333
  234POPC   PO4 7728   3.536  23.905   9.491
  234POPC   GL1 7729   3.562  23.674   9.114
  234POPC   GL2 7730   3.780  23.351   9.082
  234POPC   C1A 7731   3.647  23.881   8.706
  234POPC   D2A 7732   3.574  24.188   8.372
  234POPC   C3A 7733   3.540  23.963   7.993
  234POPC   C4A 7734   3.355  24.005   7.587
  234POPC   C1B 7735   3.508  23.388   8.699
  234POPC   C2B 7736   3.715  23.395   8.312
  234POPC   C3B 7737   3.779  23.520   7.886
  234POPC   C4B 7738   3.344  23.526   7.719
  235POPC   NC3 7739   3.079   6.633   9.584
  235POPC   PO4 7740   2.691   6.150   9.479
  235POPC   GL1 7741   2.613   6.493   9.172
  235POPC   GL2 7742   2.622   6.833   9.335
  235POPC   C1A 7743   2.865   6.565   8.786
  235POPC   D2A 7744   3.001   6.762   8.394
  235POPC   C3A 7745   2.956   6.438   8.070
  235POPC   C4A 7746   2.600   6.242   7.825
  235POPC   C1B 7747   2.669   7.017   8.935
  235POPC   C2B 7748   2.622   7.106   8.495
  235POPC   C3B 7749   2.589   7.008   8.056
  235POPC   C4B 7750   2.747   6.763   7.740
  236POPC   NC3 7751   3.676  29.021   9.530
  236POPC   PO4 7752   3.014  28.789   9.571
  236POPC   GL1 7753   3.286  28.931   9.209
  236POPC   GL2 7754   3.605  28.837   9.051
  236POPC   C1A 7755   3.332  29.160   8.785
  236POPC   D2A 7756   3.175  29.267   8.384
  236POPC   C3A 7757   3.395  29.093   8.050
  236POPC   C4A 7758   3.229  28.887   7.760
  236POPC   C1B 7759   3.823  29.053   8.789
  236POPC   C2B 7760   3.734  29.221   8.418
  236POPC   C3B 7761   3.894  28.964   8.115
  236POPC   C4B 7762   3.739  28.848   7.703
  237POPC   NC3 7763  31.329  17.384   9.676
  237POPC   PO4 7764  31.763  17.842   9.648
  237POPC   GL1 7765  31.484  17.684   9.249
  237POPC   GL2 7766  31.209  17.420   9.180
  237POPC   C1A 7767  31.389  17.671   8.762
  237POPC   D2A 7768  31.343  17.842   8.323
  237POPC   C3A 7769  31.500  17.645   7.937
  237POPC   C4A 7770  31.821  17.327   7.825
  237POPC   C1B 7771  31.205  17.181   8.811
  237POPC   C2B 7772  31.465  17.146   8.447
  237POPC   C3B 7773  31.380  17.142   8.028
  237POPC   C4B 7774  31.085  17.129   7.726
  238POPC   NC3 7775  34.260  18.424   9.470
  238POPC   PO4 7776  34.368  17.781   9.593
  238POPC   GL1 7777  34.534  17.870   9.135
  238POPC   GL2 7778  34.493  18.240   9.034
  238POPC   C1A 7779  34.665  17.931   8.662
  238POPC   D2A 7780  34.428  18.032   8.244
  238POPC   C3A 7781  34.626  18.282   7.933
  238POPC   C4A 7782  35.018  18.164   7.720
  238POPC   C1B 7783  34.437  18.390   8.586
  238POPC   C2B 7784  34.420  18.660   8.219
  238POPC   C3B 7785  34.310  18.657   7.763
  238POPC   C4B 7786  34.277  18.511   7.325
  239POPC   NC3 7787  17.601  20.435   9.437
  239POPC   PO4 7788  17.042  20.839   9.650
  239POPC   GL1 7789  17.195  20.638   9.210
  239POPC   GL2 7790  17.533  20.773   9.075
  239POPC   C1A 7791  17.261  20.497   8.763
  239POPC   D2A 7792  17.515  20.719   8.419
  239POPC   C3A 7793  17.325  20.597   8.028
  239POPC   C4A 7794  17.280  20.537   7.548
  239POPC   C1B 7795  17.761  20.463   8.801
  239POPC   C2B 7796  17.695  20.249   8.415
  239POPC   C3B 7797  17.894  20.276   8.046
  239POPC   C4B 7798  17.755  20.630   7.767
  240POPC   NC3 7799  29.738  32.050   9.658
  240POPC   PO4 7800  29.875  32.648   9.726
  240POPC   GL1 7801  29.941  32.372   9.288
  240POPC   GL2 7802  30.071  32.027   9.189
  240POPC   C1A 7803  29.947  32.355   8.809
  240POPC   D2A 7804  30.227  32.178   8.446
  240POPC   C3A 7805  30.036  32.197   8.011
  240POPC   C4A 7806  30.043  32.440   7.626
  240POPC   C1B 7807  29.806  31.880   8.813
  240POPC   C2B 7808  29.732  32.049   8.408
  240POPC   C3B 7809  29.650  31.817   8.052
  240POPC   C4B 7810  29.745  31.691   7.642
  241POPC   NC3 7811  36.644  43.251   9.255
  241POPC   PO4 7812  36.001  43.143   9.553
  241POPC   GL1 7813  36.095  43.079   9.136
  241POPC   GL2 7814  36.378  42.837   9.100
  241POPC   C1A 7815  35.988  43.199   8.711
  241POPC   D2A 7816  36.076  43.362   8.282
  241POPC   C3A 7817  35.990  43.111   7.888
  241POPC   C4A 7818  35.760  43.211   7.478
  241POPC   C1B 7819  36.069  42.698   8.786
  241POPC   C2B 7820  35.989  42.808   8.360
  241POPC   C3B 7821  36.248  42.705   8.042
  241POPC   C4B 7822  36.367  42.825   7.665
  242POPC   NC3 7823  39.173  35.606   9.533
  242POPC   PO4 7824  39.602  35.098   9.664
  242POPC   GL1 7825  39.556  35.488   9.244
  242POPC   GL2 7826  39.197  35.446   9.053
  242POPC   C1A 7827  39.630  35.499   8.773
  242POPC   D2A 7828  39.710  35.458   8.335
  242POPC   C3A 7829  39.325  35.281   8.123
  242POPC   C4A 7830  39.051  35.560   7.856
  242POPC   C1B 7831  38.906  35.100   8.862
  242POPC   C2B 7832  38.791  34.926   8.438
  242POPC   C3B 7833  38.798  35.148   8.021
  242POPC   C4B 7834  39.154  35.061   7.675
  243POPC   NC3 7835  43.700  19.778   9.467
  243POPC   PO4 7836  43.383  20.324   9.260
  243POPC   GL1 7837  43.708  20.061   9.044
  243POPC   GL2 7838  44.095  20.046   9.036
  243POPC   C1A 7839  43.768  19.910   8.645
  243POPC   D2A 7840  43.669  20.003   8.247
  243POPC   C3A 7841  43.730  19.700   7.925
  243POPC   C4A 7842  43.916  19.657   7.510
  243POPC   C1B 7843  44.302  19.942   8.648
  243POPC   C2B 7844  44.170  19.860   8.243
  243POPC   C3B 7845  44.034  20.149   7.918
  243POPC   C4B 7846  43.615  20.165   7.764
  244POPC   NC3 7847   4.444  41.193   9.471
  244POPC   PO4 7848   4.499  41.782   9.444
  244POPC   GL1 7849   4.371  41.629   9.103
  244POPC   GL2 7850   4.090  41.474   9.195
  244POPC   C1A 7851   4.330  41.778   8.714
  244POPC   D2A 7852   4.428  41.596   8.358
  244POPC   C3A 7853   4.482  41.791   7.985
  244POPC   C4A 7854   4.375  41.523   7.650
  244POPC   C1B 7855   3.947  41.437   8.797
  244POPC   C2B 7856   3.873  41.485   8.370
  244POPC   C3B 7857   4.007  41.593   7.999
  244POPC   C4B 7858   3.918  41.289   7.696
  245POPC   NC3 7859  42.657  36.908   9.500
  245POPC   PO4 7860  42.291  37.483   9.607
  245POPC   GL1 7861  42.538  37.318   9.212
  245POPC   GL2 7862  42.378  36.996   9.067
  245POPC   C1A 7863  42.552  37.334   8.733
  245POPC   D2A 7864  42.703  37.142   8.331
  245POPC   C3A 7865  42.401  37.002   8.012
  245POPC   C4A 7866  42.346  37.163   7.566
  245POPC   C1B 7867  42.350  36.852   8.605
  245POPC   C2B 7868  42.432  36.525   8.272
  245POPC   C3B 7869  42.416  36.513   7.813
  245POPC   C4B 7870  42.111  36.592   7.484
  246POPC   NC3 7871  22.368  31.852   9.311
  246POPC   PO4 7872  21.746  31.841   9.655
  246POPC   GL1 7873  21.897  31.658   9.199
  246POPC   GL2 7874  21.986  31.294   9.189
  246POPC   C1A 7875  22.065  31.770   8.735
  246POPC   D2A 7876  22.128  31.972   8.299
  246POPC   C3A 7877  22.381  31.750   8.007
  246POPC   C4A 7878  22.255  31.592   7.617
  246POPC   C1B 7879  22.116  31.201   8.762
  246POPC   C2B 7880  22.197  31.422   8.365
  246POPC   C3B 7881  22.296  31.240   7.971
  246POPC   C4B 7882  22.656  31.072   7.704
  247POPC   NC3 7883  10.433  17.681   9.508
  247POPC   PO4 7884  10.683  17.058   9.573
  247POPC   GL1 7885  10.712  17.168   9.174
  247POPC   GL2 7886  10.432  17.354   9.091
  247POPC   C1A 7887  10.870  17.229   8.738
  247POPC   D2A 7888  10.616  17.242   8.350
  247POPC   C3A 7889  10.797  17.246   7.941
  247POPC   C4A 7890  10.705  17.321   7.499
  247POPC   C1B 7891  10.583  17.632   8.734
  247POPC   C2B 7892  10.814  17.701   8.324
  247POPC   C3B 7893  10.501  17.645   7.999
  247POPC   C4B 7894  10.229  17.915   7.816
  248POPC   NC3 7895   1.898   5.437   9.356
  248POPC   PO4 7896   1.987   4.749   9.416
  248POPC   GL1 7897   1.899   4.780   9.025
  248POPC   GL2 7898   1.569   4.732   8.939
  248POPC   C1A 7899   2.034   4.803   8.625
  248POPC   D2A 7900   2.016   5.139   8.313
  248POPC   C3A 7901   1.979   4.954   7.919
  248POPC   C4A 7902   2.170   5.034   7.497
  248POPC   C1B 7903   1.676   5.163   8.785
  248POPC   C2B 7904   1.595   5.395   8.433
  248POPC   C3B 7905   1.515   5.239   8.027
  248POPC   C4B 7906   1.738   5.294   7.621
  249POPC   NC3 7907  28.880   4.881   9.384
  249POPC   PO4 7908  29.259   5.356   9.709
  249POPC   GL1 7909  29.179   5.326   9.242
  249POPC   GL2 7910  29.417   5.100   9.163
  249POPC   C1A 7911  29.034   5.204   8.790
  249POPC   D2A 7912  28.893   5.347   8.354
  249POPC   C3A 7913  28.874   5.093   7.954
  249POPC   C4A 7914  29.078   4.705   7.772
  249POPC   C1B 7915  29.497   5.436   8.854
  249POPC   C2B 7916  29.541   5.506   8.426
  249POPC   C3B 7917  29.307   5.437   8.063
  249POPC   C4B 7918  29.352   5.127   7.779
  250POPC   NC3 7919   5.930  41.862   9.511
  250POPC   PO4 7920   5.843  42.534   9.588
  250POPC   GL1 7921   5.695  42.317   9.247
  250POPC   GL2 7922   5.982  42.166   9.104
  250POPC   C1A 7923   5.560  42.323   8.815
  250POPC   D2A 7924   5.745  42.510   8.443
  250POPC   C3A 7925   5.706  42.271   8.103
  250POPC   C4A 7926   5.761  42.460   7.711
  250POPC   C1B 7927   6.059  42.541   8.851
  250POPC   C2B 7928   6.301  42.536   8.452
  250POPC   C3B 7929   6.187  42.448   8.021
  250POPC   C4B 7930   6.264  42.486   7.569
  251POPC   NC3 7931  16.662  30.515   9.262
  251POPC   PO4 7932  17.238  30.271   9.553
  251POPC   GL1 7933  17.072  30.351   9.042
  251POPC   GL2 7934  17.039  30.727   8.904
  251POPC   C1A 7935  16.777  30.423   8.617
  251POPC   D2A 7936  16.401  30.509   8.306
  251POPC   C3A 7937  16.570  30.545   7.892
  251POPC   C4A 7938  16.997  30.498   7.851
  251POPC   C1B 7939  16.856  31.011   8.634
  251POPC   C2B 7940  16.813  30.848   8.246
  251POPC   C3B 7941  16.882  31.015   7.878
  251POPC   C4B 7942  16.873  30.836   7.483
  252POPC   NC3 7943   6.429  10.743   9.612
  252POPC   PO4 7944   6.279  10.167   9.407
  252POPC   GL1 7945   6.486  10.469   9.169
  252POPC   GL2 7946   6.867  10.511   9.182
  252POPC   C1A 7947   6.528  10.380   8.762
  252POPC   D2A 7948   6.347  10.572   8.400
  252POPC   C3A 7949   6.488  10.382   8.005
  252POPC   C4A 7950   6.518  10.186   7.593
  252POPC   C1B 7951   6.863  10.743   8.763
  252POPC   C2B 7952   6.861  10.472   8.365
  252POPC   C3B 7953   6.984  10.530   7.916
  252POPC   C4B 7954   7.043  10.859   7.571
  253POPC   NC3 7955   5.942  11.607   9.742
  253POPC   PO4 7956   5.570  12.198   9.539
  253POPC   GL1 7957   5.723  12.223   9.138
  253POPC   GL2 7958   6.068  12.144   9.213
  253POPC   C1A 7959   5.759  12.290   8.681
  253POPC   D2A 7960   5.821  12.366   8.224
  253POPC   C3A 7961   5.704  12.057   7.916
  253POPC   C4A 7962   5.368  11.829   7.759
  253POPC   C1B 7963   6.037  11.884   8.845
  253POPC   C2B 7964   6.030  11.933   8.392
  253POPC   C3B 7965   6.204  11.995   7.981
  253POPC   C4B 7966   6.268  11.608   7.777
  254POPC   NC3 7967  39.437  15.073   9.606
  254POPC   PO4 7968  39.028  15.521   9.774
  254POPC   GL1 7969  38.997  15.258   9.378
  254POPC   GL2 7970  39.283  15.367   9.208
  254POPC   C1A 7971  38.986  15.046   8.934
  254POPC   D2A 7972  38.983  15.197   8.506
  254POPC   C3A 7973  39.077  15.028   8.118
  254POPC   C4A 7974  38.978  15.130   7.715
  254POPC   C1B 7975  39.401  15.333   8.768
  254POPC   C2B 7976  39.397  15.421   8.313
  254POPC   C3B 7977  39.480  15.259   7.912
  254POPC   C4B 7978  39.786  15.400   7.633
  255POPC   NC3 7979  23.605   0.613  10.131
  255POPC   PO4 7980  23.860   0.156   9.890
  255POPC   GL1 7981  23.885   0.202   9.353
  255POPC   GL2 7982  23.918   0.525   9.201
  255POPC   C1A 7983  23.923   0.080   8.884
  255POPC   D2A 7984  23.703   0.151   8.472
  255POPC   C3A 7985  23.894   0.143   8.049
  255POPC   C4A 7986  24.007   0.316   7.635
  255POPC   C1B 7987  23.744   0.576   8.789
  255POPC   C2B 7988  23.837   0.640   8.349
  255POPC   C3B 7989  23.637   0.599   7.938
  255POPC   C4B 7990  23.215   0.650   7.722
  256POPC   NC3 7991  24.862  31.327   9.396
  256POPC   PO4 7992  24.418  31.836   9.556
  256POPC   GL1 7993  24.476  31.638   9.103
  256POPC   GL2 7994  24.841  31.649   8.967
  256POPC   C1A 7995  24.499  31.394   8.694
  256POPC   D2A 7996  24.312  31.085   8.452
  256POPC   C3A 7997  24.247  31.272   8.076
  256POPC   C4A 7998  24.257  31.601   7.819
  256POPC   C1B 7999  24.591  31.903   8.659
  256POPC   C2B 8000  24.424  31.770   8.288
  256POPC   C3B 8001  24.713  31.778   7.967
  256POPC   C4B 8002  24.720  31.428   7.685
  257POPC   NC3 8003   5.792   4.164   9.442
  257POPC   PO4 8004   6.225   4.622   9.645
  257POPC   GL1 8005   5.911   4.555   9.172
  257POPC   GL2 8006   5.589   4.368   9.037
  257POPC   C1A 8007   5.955   4.505   8.695
  257POPC   D2A 8008   6.151   4.675   8.310
  257POPC   C3A 8009   5.905   4.582   7.947
  257POPC   C4A 8010   5.449   4.587   7.902
  257POPC   C1B 8011   5.609   4.109   8.702
  257POPC   C2B 8012   5.716   4.260   8.304
  257POPC   C3B 8013   5.686   4.118   7.921
  257POPC   C4B 8014   5.938   3.783   7.812
  258POPC   NC3 8015  32.542  30.490   9.432
  258POPC   PO4 8016  31.921  30.777   9.561
  258POPC   GL1 8017  32.094  30.672   9.190
  258POPC   GL2 8018  32.114  30.343   9.175
  258POPC   C1A 8019  32.144  30.827   8.776
  258POPC   D2A 8020  31.964  30.942   8.381
  258POPC   C3A 8021  32.136  30.685   8.069
  258POPC   C4A 8022  32.442  30.872   7.803
  258POPC   C1B 8023  32.363  30.280   8.833
  258POPC   C2B 8024  32.244  30.357   8.452
  258POPC   C3B 8025  32.378  30.225   8.077
  258POPC   C4B 8026  32.400  30.373   7.709
  259POPC   NC3 8027   1.128  29.930   9.473
  259POPC   PO4 8028   1.262  30.580   9.440
  259POPC   GL1 8029   1.267  30.229   9.081
  259POPC   GL2 8030   1.370  29.841   9.024
  259POPC   C1A 8031   1.056  30.029   8.698
  259POPC   D2A 8032   1.251  29.845   8.333
  259POPC   C3A 8033   1.149  29.960   7.920
  259POPC   C4A 8034   1.405  29.953   7.542
  259POPC   C1B 8035   1.413  29.514   8.685
  259POPC   C2B 8036   1.510  29.403   8.258
  259POPC   C3B 8037   1.366  29.488   7.807
  259POPC   C4B 8038   1.501  29.492   7.358
  260POPC   NC3 8039  35.616  25.108   9.423
  260POPC   PO4 8040  35.009  25.487   9.427
  260POPC   GL1 8041  35.252  25.289   9.086
  260POPC   GL2 8042  35.599  25.350   8.993
  260POPC   C1A 8043  35.303  25.097   8.671
  260POPC   D2A 8044  35.440  25.321   8.296
  260POPC   C3A 8045  35.141  25.184   8.049
  260POPC   C4A 8046  34.970  25.206   7.665
  260POPC   C1B 8047  35.815  25.100   8.715
  260POPC   C2B 8048  35.701  24.896   8.331
  260POPC   C3B 8049  35.751  25.056   7.915
  260POPC   C4B 8050  35.498  24.966   7.536
  261POPC   NC3 8051  18.843  23.338   9.506
  261POPC   PO4 8052  19.193  22.776   9.607
  261POPC   GL1 8053  19.018  22.951   9.208
  261POPC   GL2 8054  18.661  23.108   9.106
  261POPC   C1A 8055  18.922  22.815   8.791
  261POPC   D2A 8056  19.053  23.015   8.418
  261POPC   C3A 8057  18.991  22.736   8.086
  261POPC   C4A 8058  19.208  22.805   7.743
  261POPC   C1B 8059  18.647  23.360   8.711
  261POPC   C2B 8060  18.710  23.382   8.269
  261POPC   C3B 8061  18.973  23.241   7.944
  261POPC   C4B 8062  18.846  23.112   7.542
  262POPC   NC3 8063  17.604  27.218   9.330
  262POPC   PO4 8064  17.860  26.631   9.667
  262POPC   GL1 8065  17.708  26.706   9.261
  262POPC   GL2 8066  17.921  26.944   9.072
  262POPC   C1A 8067  17.541  26.725   8.836
  262POPC   D2A 8068  17.622  26.865   8.445
  262POPC   C3A 8069  17.690  26.632   8.093
  262POPC   C4A 8070  17.576  26.830   7.722
  262POPC   C1B 8071  18.089  27.145   8.731
  262POPC   C2B 8072  17.884  27.312   8.421
  262POPC   C3B 8073  17.762  27.188   8.047
  262POPC   C4B 8074  17.837  27.424   7.721
  263POPC   NC3 8075  39.492  25.487   9.396
  263POPC   PO4 8076  39.211  24.838   9.354
  263POPC   GL1 8077  39.451  25.086   9.043
  263POPC   GL2 8078  39.216  25.358   8.991
  263POPC   C1A 8079  39.519  25.105   8.589
  263POPC   D2A 8080  39.215  25.175   8.261
  263POPC   C3A 8081  39.313  25.124   7.825
  263POPC   C4A 8082  38.906  25.284   7.749
  263POPC   C1B 8083  39.519  25.587   8.760
  263POPC   C2B 8084  39.394  25.646   8.356
  263POPC   C3B 8085  39.257  25.626   7.964
  263POPC   C4B 8086  39.499  25.594   7.621
  264POPC   NC3 8087  37.950  18.781   9.309
  264POPC   PO4 8088  37.342  19.022   9.613
  264POPC   GL1 8089  37.434  18.867   9.191
  264POPC   GL2 8090  37.652  19.120   9.086
  264POPC   C1A 8091  37.385  18.914   8.719
  264POPC   D2A 8092  37.378  19.295   8.441
  264POPC   C3A 8093  37.653  19.266   8.088
  264POPC   C4A 8094  37.550  18.949   7.764
  264POPC   C1B 8095  37.840  19.230   8.674
  264POPC   C2B 8096  38.089  19.091   8.314
  264POPC   C3B 8097  38.044  18.917   7.880
  264POPC   C4B 8098  37.931  18.688   7.489
  265POPC   NC3 8099  43.332   1.918   9.449
  265POPC   PO4 8100  42.709   1.921   9.662
  265POPC   GL1 8101  42.895   1.963   9.163
  265POPC   GL2 8102  43.223   2.186   9.047
  265POPC   C1A 8103  43.027   1.942   8.679
  265POPC   D2A 8104  42.979   1.715   8.321
  265POPC   C3A 8105  42.844   1.872   7.905
  265POPC   C4A 8106  43.056   2.200   7.709
  265POPC   C1B 8107  43.495   1.817   8.857
  265POPC   C2B 8108  43.506   1.770   8.433
  265POPC   C3B 8109  43.316   2.038   8.138
  265POPC   C4B 8110  43.373   1.829   7.752
  266POPC   NC3 8111  29.505  43.726   9.553
  266POPC   PO4 8112  28.843  43.934   9.421
  266POPC   GL1 8113  29.188  43.927   9.144
  266POPC   GL2 8114  29.344  43.603   9.076
  266POPC   C1A 8115  29.104  43.916   8.712
  266POPC   D2A 8116  29.197  43.748   8.307
  266POPC   C3A 8117  29.133  43.941   7.881
  266POPC   C4A 8118  29.257  43.814   7.437
  266POPC   C1B 8119  29.507  43.436   8.676
  266POPC   C2B 8120  29.398  43.305   8.240
  266POPC   C3B 8121  29.232  43.449   7.848
  266POPC   C4B 8122  28.850  43.558   7.584
  267POPC   NC3 8123  20.750  41.068   9.406
  267POPC   PO4 8124  20.472  40.395   9.583
  267POPC   GL1 8125  20.475  40.665   9.194
  267POPC   GL2 8126  20.297  40.912   9.190
  267POPC   C1A 8127  20.664  40.675   8.771
  267POPC   D2A 8128  20.899  40.576   8.393
  267POPC   C3A 8129  20.761  40.796   8.042
  267POPC   C4A 8130  20.642  40.798   7.634
  267POPC   C1B 8131  20.154  40.815   8.752
  267POPC   C2B 8132  20.304  40.747   8.330
  267POPC   C3B 8133  20.302  40.997   7.941
  267POPC   C4B 8134  20.337  41.205   7.528
  268POPC   NC3 8135   8.417  24.382   9.441
  268POPC   PO4 8136   8.064  24.771   9.873
  268POPC   GL1 8137   8.215  24.809   9.314
  268POPC   GL2 8138   8.025  24.494   9.134
  268POPC   C1A 8139   8.207  24.826   8.809
  268POPC   D2A 8140   8.191  24.988   8.337
  268POPC   C3A 8141   8.415  24.718   7.988
  268POPC   C4A 8142   8.508  24.598   7.538
  268POPC   C1B 8143   8.352  24.316   8.801
  268POPC   C2B 8144   8.528  24.363   8.379
  268POPC   C3B 8145   8.425  24.169   8.019
  268POPC   C4B 8146   8.149  24.140   7.719
  269POPC   NC3 8147  43.499  20.755   9.393
  269POPC   PO4 8148  42.932  20.605   9.662
  269POPC   GL1 8149  43.004  20.695   9.196
  269POPC   GL2 8150  43.115  21.020   9.177
  269POPC   C1A 8151  43.087  20.550   8.744
  269POPC   D2A 8152  43.387  20.368   8.461
  269POPC   C3A 8153  43.252  20.437   8.035
  269POPC   C4A 8154  43.072  20.614   7.627
  269POPC   C1B 8155  43.276  21.021   8.749
  269POPC   C2B 8156  43.180  20.852   8.335
  269POPC   C3B 8157  42.987  20.992   7.968
  269POPC   C4B 8158  43.072  21.112   7.541
  270POPC   NC3 8159  38.857  30.645   9.517
  270POPC   PO4 8160  39.525  30.672   9.547
  270POPC   GL1 8161  39.398  30.668   9.130
  270POPC   GL2 8162  39.089  30.894   9.126
  270POPC   C1A 8163  39.368  30.553   8.688
  270POPC   D2A 8164  39.144  30.782   8.352
  270POPC   C3A 8165  39.346  30.862   7.955
  270POPC   C4A 8166  39.571  30.520   7.799
  270POPC   C1B 8167  38.907  30.516   8.882
  270POPC   C2B 8168  38.939  30.279   8.479
  270POPC   C3B 8169  39.153  30.280   8.081
  270POPC   C4B 8170  39.065  30.499   7.695
  271POPC   NC3 8171  34.474   0.871   9.604
  271POPC   PO4 8172  34.641   0.245   9.503
  271POPC   GL1 8173  34.785   0.478   9.167
  271POPC   GL2 8174  34.905   0.222   8.952
  271POPC   C1A 8175  34.611   0.624   8.778
  271POPC   D2A 8176  34.779   0.728   8.360
  271POPC   C3A 8177  34.523   0.492   8.063
  271POPC   C4A 8178  34.421   0.581   7.644
  271POPC   C1B 8179  34.792   0.204   8.490
  271POPC   C2B 8180  34.718   0.036   8.050
  271POPC   C3B 8181  34.538   0.085   7.655
  271POPC   C4B 8182  34.292   0.205   7.248
  272POPC   NC3 8183  23.894  12.142   9.749
  272POPC   PO4 8184  23.772  11.494   9.585
  272POPC   GL1 8185  23.794  11.216   9.201
  272POPC   GL2 8186  23.471  11.168   9.063
  272POPC   C1A 8187  23.971  11.049   8.816
  272POPC   D2A 8188  24.116  11.040   8.384
  272POPC   C3A 8189  23.828  11.164   8.090
  272POPC   C4A 8190  23.884  11.263   7.686
  272POPC   C1B 8191  23.681  11.483   8.785
  272POPC   C2B 8192  23.860  11.580   8.388
  272POPC   C3B 8193  23.717  11.673   7.978
  272POPC   C4B 8194  23.503  11.560   7.600
  273POPC   NC3 8195   6.488   9.768   9.400
  273POPC   PO4 8196   6.985   9.399   9.480
  273POPC   GL1 8197   6.864   9.621   9.090
  273POPC   GL2 8198   6.917   9.983   9.099
  273POPC   C1A 8199   6.575   9.840   8.746
  273POPC   D2A 8200   6.346  10.071   8.408
  273POPC   C3A 8201   6.325   9.897   7.998
  273POPC   C4A 8202   6.606   9.689   7.733
  273POPC   C1B 8203   7.080   9.796   8.680
  273POPC   C2B 8204   6.997   9.791   8.230
  273POPC   C3B 8205   6.937  10.036   7.862
  273POPC   C4B 8206   6.936   9.930   7.398
  274POPC   NC3 8207   1.805  22.556   9.550
  274POPC   PO4 8208   2.354  22.208   9.712
  274POPC   GL1 8209   2.111  22.359   9.225
  274POPC   GL2 8210   1.866  22.151   9.205
  274POPC   C1A 8211   2.206  22.344   8.739
  274POPC   D2A 8212   2.186  22.039   8.406
  274POPC   C3A 8213   2.032  22.069   8.011
  274POPC   C4A 8214   2.254  22.342   7.778
  274POPC   C1B 8215   1.732  22.457   8.860
  274POPC   C2B 8216   1.796  22.374   8.458
  274POPC   C3B 8217   1.980  22.561   8.151
  274POPC   C4B 8218   1.784  22.512   7.763
  275POPC   NC3 8219  15.080   9.035   9.978
  275POPC   PO4 8220  15.218   9.354   9.441
  275POPC   GL1 8221  15.144   8.997   9.203
  275POPC   GL2 8222  15.442   8.862   9.124
  275POPC   C1A 8223  15.045   8.949   8.759
  275POPC   D2A 8224  15.229   8.997   8.360
  275POPC   C3A 8225  15.169   8.827   7.977
  275POPC   C4A 8226  14.991   9.165   7.694
  275POPC   C1B 8227  15.523   8.764   8.703
  275POPC   C2B 8228  15.729   8.910   8.355
  275POPC   C3B 8229  15.654   8.993   7.920
  275POPC   C4B 8230  15.536   8.717   7.606
  276POPC   NC3 8231  27.102  33.044   9.348
  276POPC   PO4 8232  26.497  32.956   9.505
  276POPC   GL1 8233  26.581  33.065   9.071
  276POPC   GL2 8234  26.868  33.294   8.970
  276POPC   C1A 8235  26.496  33.162   8.622
  276POPC   D2A 8236  26.721  33.212   8.224
  276POPC   C3A 8237  26.527  33.141   7.814
  276POPC   C4A 8238  26.602  33.253   7.371
  276POPC   C1B 8239  26.930  32.905   8.717
  276POPC   C2B 8240  26.831  32.689   8.338
  276POPC   C3B 8241  26.936  32.807   7.930
  276POPC   C4B 8242  27.033  33.239   7.787
  277POPC   NC3 8243  29.183  36.032   9.558
  277POPC   PO4 8244  29.309  36.674   9.318
  277POPC   GL1 8245  29.303  36.334   9.072
  277POPC   GL2 8246  29.078  36.073   9.069
  277POPC   C1A 8247  29.311  36.261   8.650
  277POPC   D2A 8248  29.495  36.263   8.272
  277POPC   C3A 8249  29.295  36.194   7.951
  277POPC   C4A 8250  29.213  36.373   7.635
  277POPC   C1B 8251  28.956  35.847   8.713
  277POPC   C2B 8252  29.168  35.845   8.331
  277POPC   C3B 8253  29.269  35.696   7.908
  277POPC   C4B 8254  28.980  35.891   7.647
  278POPC   NC3 8255  13.306  17.285   9.500
  278POPC   PO4 8256  13.944  17.418   9.562
  278POPC   GL1 8257  13.731  17.307   9.193
  278POPC   GL2 8258  13.484  17.591   9.121
  278POPC   C1A 8259  13.786  17.369   8.756
  278POPC   D2A 8260  13.822  17.749   8.491
  278POPC   C3A 8261  13.649  17.684   8.072
  278POPC   C4A 8262  13.803  17.371   7.765
  278POPC   C1B 8263  13.308  17.237   8.860
  278POPC   C2B 8264  13.236  17.182   8.413
  278POPC   C3B 8265  13.329  17.282   7.962
  278POPC   C4B 8266  13.278  17.068   7.573
  279POPC   NC3 8267  30.515  14.761   9.411
  279POPC   PO4 8268  30.928  14.203   9.439
  279POPC   GL1 8269  30.553  14.235   9.144
  279POPC   GL2 8270  30.380  14.561   8.972
  279POPC   C1A 8271  30.373  14.103   8.769
  279POPC   D2A 8272  30.265  14.358   8.453
  279POPC   C3A 8273  30.556  14.249   8.133
  279POPC   C4A 8274  30.604  14.241   7.699
  279POPC   C1B 8275  30.819  14.536   8.838
  279POPC   C2B 8276  30.957  14.547   8.430
  279POPC   C3B 8277  30.684  14.744   8.146
  279POPC   C4B 8278  30.836  14.679   7.750
  280POPC   NC3 8279  42.577  42.682   9.410
  280POPC   PO4 8280  42.233  43.179   9.760
  280POPC   GL1 8281  42.279  43.131   9.295
  280POPC   GL2 8282  42.640  43.228   9.242
  280POPC   C1A 8283  42.327  43.226   8.818
  280POPC   D2A 8284  42.146  43.186   8.380
  280POPC   C3A 8285  42.257  42.879   8.019
  280POPC   C4A 8286  42.148  43.091   7.605
  280POPC   C1B 8287  42.809  43.075   8.837
  280POPC   C2B 8288  42.659  42.929   8.459
  280POPC   C3B 8289  42.672  43.167   8.094
  280POPC   C4B 8290  42.634  43.024   7.666
  281POPC   NC3 8291   9.682  21.542   9.662
  281POPC   PO4 8292  10.320  21.586   9.558
  281POPC   GL1 8293   9.954  21.415   9.231
  281POPC   GL2 8294   9.601  21.530   9.170
  281POPC   C1A 8295   9.770  21.195   8.814
  281POPC   D2A 8296   9.539  21.160   8.410
  281POPC   C3A 8297   9.824  21.095   8.046
  281POPC   C4A 8298   9.767  21.232   7.618
  281POPC   C1B 8299   9.377  21.522   8.785
  281POPC   C2B 8300   9.561  21.705   8.414
  281POPC   C3B 8301   9.581  21.542   8.014
  281POPC   C4B 8302   9.346  21.513   7.638
  282POPC   NC3 8303  33.639  11.643   9.898
  282POPC   PO4 8304  33.894  12.080   9.414
  282POPC   GL1 8305  33.770  12.009   9.014
  282POPC   GL2 8306  34.075  11.859   8.939
  282POPC   C1A 8307  33.820  12.199   8.608
  282POPC   D2A 8308  33.555  12.350   8.238
  282POPC   C3A 8309  33.665  12.247   7.800
  282POPC   C4A 8310  33.582  12.394   7.365
  282POPC   C1B 8311  34.171  11.812   8.508
  282POPC   C2B 8312  34.335  12.103   8.238
  282POPC   C3B 8313  34.190  12.300   7.878
  282POPC   C4B 8314  34.065  12.128   7.484
  283POPC   NC3 8315   2.409   9.434   9.370
  283POPC   PO4 8316   2.784   9.999   9.657
  283POPC   GL1 8317   2.934   9.918   9.213
  283POPC   GL2 8318   2.859   9.580   9.120
  283POPC   C1A 8319   2.903   9.989   8.763
  283POPC   D2A 8320   3.029   9.828   8.374
  283POPC   C3A 8321   2.839  10.001   8.017
  283POPC   C4A 8322   2.421   9.929   7.926
  283POPC   C1B 8323   2.805   9.453   8.686
  283POPC   C2B 8324   2.542   9.360   8.307
  283POPC   C3B 8325   2.680   9.482   7.913
  283POPC   C4B 8326   3.107   9.606   7.784
  284POPC   NC3 8327  24.883   5.875   9.867
  284POPC   PO4 8328  24.478   6.207   9.430
  284POPC   GL1 8329  24.504   5.849   9.164
  284POPC   GL2 8330  24.699   6.013   8.926
  284POPC   C1A 8331  24.392   5.685   8.729
  284POPC   D2A 8332  24.587   5.928   8.385
  284POPC   C3A 8333  24.441   5.915   7.950
  284POPC   C4A 8334  24.489   5.705   7.540
  284POPC   C1B 8335  24.998   6.167   8.626
  284POPC   C2B 8336  24.971   6.210   8.194
  284POPC   C3B 8337  24.858   6.144   7.787
  284POPC   C4B 8338  24.659   6.172   7.415
  285POPC   NC3 8339  31.881  11.994   9.553
  285POPC   PO4 8340  31.202  12.367   9.542
  285POPC   GL1 8341  31.456  12.105   9.287
  285POPC   GL2 8342  31.514  12.396   9.113
  285POPC   C1A 8343  31.623  11.873   8.922
  285POPC   D2A 8344  31.486  11.917   8.483
  285POPC   C3A 8345  31.619  11.990   8.045
  285POPC   C4A 8346  31.393  11.802   7.688
  285POPC   C1B 8347  31.714  12.349   8.739
  285POPC   C2B 8348  31.500  12.421   8.386
  285POPC   C3B 8349  31.148  12.278   8.209
  285POPC   C4B 8350  31.169  12.248   7.792
  286POPC   NC3 8351  40.251   0.517   9.461
  286POPC   PO4 8352  39.783   0.041   9.647
  286POPC   GL1 8353  40.027   0.094   9.255
  286POPC   GL2 8354  39.847  44.938   9.046
  286POPC   C1A 8355  40.185   0.339   8.852
  286POPC   D2A 8356  39.999   0.470   8.452
  286POPC   C3A 8357  40.133   0.757   8.128
  286POPC   C4A 8358  40.321   0.631   7.779
  286POPC   C1B 8359  39.898  44.981   8.628
  286POPC   C2B 8360  39.786   0.041   8.252
  286POPC   C3B 8361  39.916   0.313   7.948
  286POPC   C4B 8362  39.842  44.971   7.700
  287POPC   NC3 8363  33.939  16.515   9.586
  287POPC   PO4 8364  33.312  16.637   9.462
  287POPC   GL1 8365  33.609  16.862   9.209
  287POPC   GL2 8366  33.821  16.620   9.091
  287POPC   C1A 8367  33.542  17.020   8.766
  287POPC   D2A 8368  33.673  17.034   8.327
  287POPC   C3A 8369  33.894  16.670   8.146
  287POPC   C4A 8370  33.673  16.373   7.891
  287POPC   C1B 8371  33.918  16.649   8.658
  287POPC   C2B 8372  34.192  16.366   8.431
  287POPC   C3B 8373  34.190  16.267   8.000
  287POPC   C4B 8374  34.256  16.540   7.641
  288POPC   NC3 8375  39.099  37.217   9.429
  288POPC   PO4 8376  38.988  36.514   9.435
  288POPC   GL1 8377  39.201  36.734   9.099
  288POPC   GL2 8378  39.259  37.088   8.985
  288POPC   C1A 8379  39.062  36.704   8.672
  288POPC   D2A 8380  38.778  36.553   8.321
  288POPC   C3A 8381  39.039  36.595   7.981
  288POPC   C4A 8382  39.367  36.813   7.828
  288POPC   C1B 8383  38.894  37.189   8.749
  288POPC   C2B 8384  38.943  37.051   8.304
  288POPC   C3B 8385  39.331  37.227   8.084
  288POPC   C4B 8386  39.310  37.267   7.585
  289POPC   NC3 8387  34.915   3.820   9.873
  289POPC   PO4 8388  34.504   3.513   9.461
  289POPC   GL1 8389  34.578   3.476   9.078
  289POPC   GL2 8390  34.666   3.138   9.130
  289POPC   C1A 8391  34.627   3.719   8.693
  289POPC   D2A 8392  34.604   3.890   8.270
  289POPC   C3A 8393  34.702   3.633   7.918
  289POPC   C4A 8394  35.026   3.340   7.796
  289POPC   C1B 8395  34.781   3.183   8.727
  289POPC   C2B 8396  34.686   3.330   8.355
  289POPC   C3B 8397  34.586   3.141   8.017
  289POPC   C4B 8398  34.535   3.244   7.595
  290POPC   NC3 8399  26.761  16.588   9.656
  290POPC   PO4 8400  27.388  16.766   9.363
  290POPC   GL1 8401  27.051  16.510   9.168
  290POPC   GL2 8402  26.656  16.504   9.182
  290POPC   C1A 8403  26.918  16.733   8.794
  290POPC   D2A 8404  26.796  16.893   8.382
  290POPC   C3A 8405  27.001  16.807   7.985
  290POPC   C4A 8406  26.821  16.790   7.564
  290POPC   C1B 8407  26.611  16.339   8.796
  290POPC   C2B 8408  26.798  16.366   8.407
  290POPC   C3B 8409  26.669  16.410   7.991
  290POPC   C4B 8410  26.567  16.353   7.543
  291POPC   NC3 8411   6.600  27.244   9.560
  291POPC   PO4 8412   6.809  27.897   9.436
  291POPC   GL1 8413   6.596  27.604   9.124
  291POPC   GL2 8414   6.504  27.245   9.071
  291POPC   C1A 8415   6.503  27.685   8.695
  291POPC   D2A 8416   6.769  27.834   8.348
  291POPC   C3A 8417   6.496  27.729   8.021
  291POPC   C4A 8418   6.642  27.563   7.656
  291POPC   C1B 8419   6.755  27.203   8.722
  291POPC   C2B 8420   6.668  27.324   8.305
  291POPC   C3B 8421   6.597  27.096   7.922
  291POPC   C4B 8422   6.655  27.073   7.473
  292POPC   NC3 8423  26.762   8.131   9.451
  292POPC   PO4 8424  27.166   8.575   9.647
  292POPC   GL1 8425  26.949   8.523   9.177
  292POPC   GL2 8426  27.135   8.757   8.945
  292POPC   C1A 8427  26.563   8.310   8.867
  292POPC   D2A 8428  26.395   8.247   8.436
  292POPC   C3A 8429  26.681   8.257   8.109
  292POPC   C4A 8430  26.629   8.144   7.667
  292POPC   C1B 8431  26.976   8.450   8.599
  292POPC   C2B 8432  27.161   8.073   8.350
  292POPC   C3B 8433  27.134   8.081   7.917
  292POPC   C4B 8434  27.007   8.501   7.773
  293POPC   NC3 8435  44.266  24.723   9.343
  293POPC   PO4 8436  44.880  24.439   9.436
  293POPC   GL1 8437  44.620  24.453   9.099
  293POPC   GL2 8438  44.706  24.821   9.117
  293POPC   C1A 8439  44.598  24.223   8.705
  293POPC   D2A 8440  44.839  24.266   8.333
  293POPC   C3A 8441  44.586  24.266   7.953
  293POPC   C4A 8442  44.545  24.201   7.512
  293POPC   C1B 8443  44.481  24.887   8.740
  293POPC   C2B 8444  44.520  24.676   8.355
  293POPC   C3B 8445  44.729  24.768   7.963
  293POPC   C4B 8446  44.597  24.695   7.575
  294POPC   NC3 8447  41.134  17.196   9.400
  294POPC   PO4 8448  41.243  17.868   9.444
  294POPC   GL1 8449  41.291  17.632   9.066
  294POPC   GL2 8450  41.558  17.369   9.110
  294POPC   C1A 8451  41.552  17.722   8.695
  294POPC   D2A 8452  41.801  17.837   8.305
  294POPC   C3A 8453  41.603  17.701   7.928
  294POPC   C4A 8454  41.346  17.588   7.577
  294POPC   C1B 8455  41.453  17.220   8.693
  294POPC   C2B 8456  41.180  17.291   8.325
  294POPC   C3B 8457  41.388  17.240   7.927
  294POPC   C4B 8458  41.759  17.284   7.640
  295POPC   NC3 8459   4.364  19.761   9.460
  295POPC   PO4 8460   4.028  20.320   9.548
  295POPC   GL1 8461   4.296  20.268   9.135
  295POPC   GL2 8462   4.521  19.979   9.029
  295POPC   C1A 8463   4.272  20.227   8.681
  295POPC   D2A 8464   4.160  19.957   8.418
  295POPC   C3A 8465   4.399  19.993   8.086
  295POPC   C4A 8466   4.247  20.039   7.700
  295POPC   C1B 8467   4.370  19.624   8.758
  295POPC   C2B 8468   4.144  19.458   8.369
  295POPC   C3B 8469   4.036  19.656   8.018
  295POPC   C4B 8470   4.365  19.545   7.769
  296POPC   NC3 8471  38.521  34.221   9.724
  296POPC   PO4 8472  38.718  34.861   9.574
  296POPC   GL1 8473  38.427  34.660   9.296
  296POPC   GL2 8474  38.467  34.315   9.187
  296POPC   C1A 8475  38.531  34.711   8.855
  296POPC   D2A 8476  38.450  34.457   8.483
  296POPC   C3A 8477  38.471  34.689   8.098
  296POPC   C4A 8478  38.629  34.800   7.698
  296POPC   C1B 8479  38.234  34.085   8.870
  296POPC   C2B 8480  38.089  34.071   8.464
  296POPC   C3B 8481  38.153  34.253   8.053
  296POPC   C4B 8482  38.368  34.068   7.676
  297POPC   NC3 8483  39.346  31.139   9.570
  297POPC   PO4 8484  39.081  31.792   9.454
  297POPC   GL1 8485  39.298  31.473   9.164
  297POPC   GL2 8486  39.558  31.158   9.129
  297POPC   C1A 8487  39.391  31.630   8.745
  297POPC   D2A 8488  39.554  31.699   8.318
  297POPC   C3A 8489  39.276  31.696   7.959
  297POPC   C4A 8490  39.056  31.732   7.579
  297POPC   C1B 8491  39.367  31.099   8.727
  297POPC   C2B 8492  39.537  31.189   8.323
  297POPC   C3B 8493  39.636  31.347   7.908
  297POPC   C4B 8494  39.303  31.293   7.623
  298POPC   NC3 8495   2.173  15.878   9.850
  298POPC   PO4 8496   1.592  15.755   9.623
  298POPC   GL1 8497   1.842  15.678   9.231
  298POPC   GL2 8498   2.140  15.861   9.341
  298POPC   C1A 8499   1.797  15.747   8.768
  298POPC   D2A 8500   1.701  16.001   8.366
  298POPC   C3A 8501   1.754  15.877   7.890
  298POPC   C4A 8502   1.566  15.701   7.521
  298POPC   C1B 8503   2.277  15.796   8.955
  298POPC   C2B 8504   2.216  15.808   8.506
  298POPC   C3B 8505   2.189  15.957   8.111
  298POPC   C4B 8506   2.384  15.781   7.753
  299POPC   NC3 8507  25.979  11.233   9.544
  299POPC   PO4 8508  25.474  10.855   9.327
  299POPC   GL1 8509  25.806  11.071   9.059
  299POPC   GL2 8510  26.173  11.181   9.074
  299POPC   C1A 8511  25.946  11.091   8.620
  299POPC   D2A 8512  26.163  11.137   8.259
  299POPC   C3A 8513  25.806  11.177   8.025
  299POPC   C4A 8514  25.733  11.148   7.612
  299POPC   C1B 8515  26.029  11.542   8.805
  299POPC   C2B 8516  25.909  11.590   8.355
  299POPC   C3B 8517  25.925  11.660   7.880
  299POPC   C4B 8518  26.077  11.509   7.457
  300POPC   NC3 8519  33.454  39.027   9.306
  300POPC   PO4 8520  34.045  39.227   9.665
  300POPC   GL1 8521  33.880  39.346   9.198
  300POPC   GL2 8522  33.562  39.433   9.036
  300POPC   C1A 8523  33.885  39.193   8.728
  300POPC   D2A 8524  33.776  39.456   8.368
  300POPC   C3A 8525  34.048  39.440   8.016
  300POPC   C4A 8526  34.230  39.095   7.810
  300POPC   C1B 8527  33.396  39.137   8.691
  300POPC   C2B 8528  33.433  39.063   8.296
  300POPC   C3B 8529  33.735  39.029   7.977
  300POPC   C4B 8530  33.803  39.239   7.576
  301POPC   NC3 8531  12.421   1.575   9.569
  301POPC   PO4 8532  12.320   0.869   9.452
  301POPC   GL1 8533  12.075   1.241   9.224
  301POPC   GL2 8534  12.334   1.217   9.059
  301POPC   C1A 8535  12.045   1.460   8.756
  301POPC   D2A 8536  12.296   1.453   8.362
  301POPC   C3A 8537  12.025   1.583   8.013
  301POPC   C4A 8538  11.703   1.470   7.734
  301POPC   C1B 8539  12.181   0.946   8.737
  301POPC   C2B 8540  12.102   0.982   8.281
  301POPC   C3B 8541  12.146   1.123   7.849
  301POPC   C4B 8542  12.449   1.443   7.779
  302POPC   NC3 8543  17.746  17.444   9.892
  302POPC   PO4 8544  17.345  17.751   9.659
  302POPC   GL1 8545  17.446  17.535   9.259
  302POPC   GL2 8546  17.333  17.804   9.099
  302POPC   C1A 8547  17.539  17.446   8.785
  302POPC   D2A 8548  17.289  17.372   8.397
  302POPC   C3A 8549  17.420  17.471   7.965
  302POPC   C4A 8550  17.396  17.657   7.548
  302POPC   C1B 8551  17.607  17.946   8.749
  302POPC   C2B 8552  17.649  17.748   8.338
  302POPC   C3B 8553  17.839  17.770   7.908
  302POPC   C4B 8554  17.772  18.000   7.497
  303POPC   NC3 8555  39.252  43.035   9.770
  303POPC   PO4 8556  39.389  43.509   9.293
  303POPC   GL1 8557  39.095  43.374   8.991
  303POPC   GL2 8558  39.020  43.023   8.975
  303POPC   C1A 8559  39.241  43.247   8.587
  303POPC   D2A 8560  39.476  43.373   8.260
  303POPC   C3A 8561  39.308  43.338   7.876
  303POPC   C4A 8562  38.908  43.196   7.805
  303POPC   C1B 8563  39.355  42.782   8.735
  303POPC   C2B 8564  39.504  42.660   8.362
  303POPC   C3B 8565  39.482  42.874   7.990
  303POPC   C4B 8566  39.709  42.843   7.636
  304POPC   NC3 8567   8.075   1.385   9.548
  304POPC   PO4 8568   8.429   0.791   9.506
  304POPC   GL1 8569   8.326   1.109   9.188
  304POPC   GL2 8570   7.955   1.134   9.146
  304POPC   C1A 8571   8.295   1.314   8.783
  304POPC   D2A 8572   8.552   1.239   8.435
  304POPC   C3A 8573   8.473   1.338   8.018
  304POPC   C4A 8574   8.466   0.977   7.803
  304POPC   C1B 8575   7.760   1.282   8.821
  304POPC   C2B 8576   7.819   1.215   8.427
  304POPC   C3B 8577   7.693   1.196   8.028
  304POPC   C4B 8578   8.020   1.331   7.791
  305POPC   NC3 8579  18.604   3.343   9.366
  305POPC   PO4 8580  17.974   3.521   9.558
  305POPC   GL1 8581  18.127   3.349   9.193
  305POPC   GL2 8582  18.297   3.677   9.146
  305POPC   C1A 8583  18.269   3.402   8.755
  305POPC   D2A 8584  18.059   3.363   8.431
  305POPC   C3A 8585  18.241   3.451   8.051
  305POPC   C4A 8586  18.108   3.321   7.660
  305POPC   C1B 8587  18.506   3.849   8.765
  305POPC   C2B 8588  18.336   3.819   8.388
  305POPC   C3B 8589  18.550   3.870   8.012
  305POPC   C4B 8590  18.334   3.808   7.713
  306POPC   NC3 8591   2.696  31.834   9.453
  306POPC   PO4 8592   2.710  32.555   9.515
  306POPC   GL1 8593   2.829  32.282   9.213
  306POPC   GL2 8594   2.468  32.199   9.179
  306POPC   C1A 8595   2.901  32.032   8.844
  306POPC   D2A 8596   2.700  32.034   8.454
  306POPC   C3A 8597   2.894  32.182   8.078
  306POPC   C4A 8598   2.921  31.974   7.658
  306POPC   C1B 8599   2.528  32.427   8.809
  306POPC   C2B 8600   2.702  32.544   8.416
  306POPC   C3B 8601   2.460  32.474   8.053
  306POPC   C4B 8602   2.662  32.428   7.686
  307POPC   NC3 8603  38.679  13.690   9.547
  307POPC   PO4 8604  38.117  13.288   9.479
  307POPC   GL1 8605  38.371  13.503   9.165
  307POPC   GL2 8606  38.328  13.886   9.147
  307POPC   C1A 8607  38.517  13.521   8.742
  307POPC   D2A 8608  38.230  13.604   8.450
  307POPC   C3A 8609  38.248  13.542   8.014
  307POPC   C4A 8610  38.208  13.509   7.578
  307POPC   C1B 8611  38.603  14.016   8.790
  307POPC   C2B 8612  38.691  13.838   8.342
  307POPC   C3B 8613  38.667  13.883   7.867
  307POPC   C4B 8614  38.918  13.904   7.467
  308POPC   NC3 8615  25.603  42.762   9.901
  308POPC   PO4 8616  25.188  43.092   9.671
  308POPC   GL1 8617  25.300  43.086   9.228
  308POPC   GL2 8618  25.363  43.415   9.140
  308POPC   C1A 8619  25.257  43.035   8.757
  308POPC   D2A 8620  25.046  43.294   8.430
  308POPC   C3A 8621  25.145  43.236   7.962
  308POPC   C4A 8622  24.965  43.069   7.552
  308POPC   C1B 8623  25.558  43.436   8.729
  308POPC   C2B 8624  25.548  43.257   8.309
  308POPC   C3B 8625  25.611  43.479   7.919
  308POPC   C4B 8626  25.842  43.449   7.512
  309POPC   NC3 8627  23.943  19.841   9.520
  309POPC   PO4 8628  23.365  19.834   9.768
  309POPC   GL1 8629  23.498  19.743   9.286
  309POPC   GL2 8630  23.812  19.573   9.119
  309POPC   C1A 8631  23.350  19.589   8.868
  309POPC   D2A 8632  23.524  19.532   8.447
  309POPC   C3A 8633  23.453  19.836   8.132
  309POPC   C4A 8634  23.554  19.978   7.769
  309POPC   C1B 8635  23.767  19.901   8.835
  309POPC   C2B 8636  23.843  19.982   8.412
  309POPC   C3B 8637  23.981  19.799   8.019
  309POPC   C4B 8638  24.128  19.995   7.636
  310POPC   NC3 8639  41.366  39.540   9.411
  310POPC   PO4 8640  41.873  40.045   9.397
  310POPC   GL1 8641  41.618  39.944   9.073
  310POPC   GL2 8642  41.811  39.656   9.032
  310POPC   C1A 8643  41.456  40.160   8.708
  310POPC   D2A 8644  41.253  39.974   8.346
  310POPC   C3A 8645  41.291  40.161   7.916
  310POPC   C4A 8646  41.277  40.029   7.502
  310POPC   C1B 8647  41.880  39.861   8.604
  310POPC   C2B 8648  41.727  39.991   8.154
  310POPC   C3B 8649  41.609  39.766   7.788
  310POPC   C4B 8650  41.877  39.502   7.541
  311POPC   NC3 8651  16.817  33.628   9.643
  311POPC   PO4 8652  16.667  34.290   9.493
  311POPC   GL1 8653  16.738  33.917   9.230
  311POPC   GL2 8654  16.525  33.587   9.234
  311POPC   C1A 8655  16.848  33.942   8.815
  311POPC   D2A 8656  16.749  33.892   8.391
  311POPC   C3A 8657  17.038  33.903   8.045
  311POPC   C4A 8658  16.671  33.999   7.794
  311POPC   C1B 8659  16.821  33.435   8.902
  311POPC   C2B 8660  16.760  33.399   8.442
  311POPC   C3B 8661  16.797  33.475   7.992
  311POPC   C4B 8662  16.827  33.584   7.553
  312POPC   NC3 8663  44.555  41.215   9.463
  312POPC   PO4 8664  44.959  41.774   9.436
  312POPC   GL1 8665  44.816  41.545   9.124
  312POPC   GL2 8666  44.964  41.207   9.156
  312POPC   C1A 8667  44.691  41.706   8.734
  312POPC   D2A 8668  44.556  41.872   8.322
  312POPC   C3A 8669  44.579  41.655   7.933
  312POPC   C4A 8670  44.344  41.678   7.536
  312POPC   C1B 8671  44.662  41.195   8.799
  312POPC   C2B 8672  44.666  41.344   8.378
  312POPC   C3B 8673  44.628  41.145   8.000
  312POPC   C4B 8674  44.671  41.299   7.588
  313POPC   NC3 8675   4.683  14.201   9.372
  313POPC   PO4 8676   4.289  14.658   9.405
  313POPC   GL1 8677   4.342  14.420   9.060
  313POPC   GL2 8678   4.672  14.559   8.976
  313POPC   C1A 8679   4.197  14.491   8.667
  313POPC   D2A 8680   4.282  14.747   8.305
  313POPC   C3A 8681   4.186  14.544   7.909
  313POPC   C4A 8682   4.263  14.123   7.768
  313POPC   C1B 8683   4.649  14.227   8.671
  313POPC   C2B 8684   4.435  14.222   8.271
  313POPC   C3B 8685   4.703  14.015   8.001
  313POPC   C4B 8686   4.868  14.005   7.631
  314POPC   NC3 8687  22.699  33.537   9.528
  314POPC   PO4 8688  23.258  33.889   9.314
  314POPC   GL1 8689  23.009  33.991   9.012
  314POPC   GL2 8690  22.711  33.837   9.109
  314POPC   C1A 8691  22.906  33.867   8.599
  314POPC   D2A 8692  23.157  33.582   8.374
  314POPC   C3A 8693  23.225  33.774   8.003
  314POPC   C4A 8694  22.935  34.059   7.842
  314POPC   C1B 8695  22.640  33.486   8.812
  314POPC   C2B 8696  22.469  33.515   8.420
  314POPC   C3B 8697  22.716  33.624   8.083
  314POPC   C4B 8698  22.958  33.383   7.820
  315POPC   NC3 8699   2.604  34.657   9.528
  315POPC   PO4 8700   1.898  34.585   9.566
  315POPC   GL1 8701   2.023  34.484   9.199
  315POPC   GL2 8702   1.751  34.217   9.177
  315POPC   C1A 8703   2.233  34.644   8.840
  315POPC   D2A 8704   2.074  34.778   8.439
  315POPC   C3A 8705   2.259  34.730   8.038
  315POPC   C4A 8706   2.064  34.780   7.657
  315POPC   C1B 8707   2.050  34.163   8.826
  315POPC   C2B 8708   1.908  34.214   8.436
  315POPC   C3B 8709   2.010  34.298   8.043
  315POPC   C4B 8710   2.143  34.301   7.613
  316POPC   NC3 8711  42.005  42.778   9.711
  316POPC   PO4 8712  42.477  42.269   9.595
  316POPC   GL1 8713  42.447  42.043   9.149
  316POPC   GL2 8714  42.183  42.186   8.989
  316POPC   C1A 8715  42.561  42.189   8.680
  316POPC   D2A 8716  42.403  42.461   8.347
  316POPC   C3A 8717  42.488  42.350   7.925
  316POPC   C4A 8718  42.357  42.605   7.576
  316POPC   C1B 8719  41.930  42.246   8.638
  316POPC   C2B 8720  41.707  42.212   8.281
  316POPC   C3B 8721  41.987  42.327   7.972
  316POPC   C4B 8722  42.033  42.213   7.539
  317POPC   NC3 8723  38.739  22.546   9.554
  317POPC   PO4 8724  38.320  22.070   9.524
  317POPC   GL1 8725  38.451  22.337   9.145
  317POPC   GL2 8726  38.828  22.359   9.099
  317POPC   C1A 8727  38.203  22.345   8.729
  317POPC   D2A 8728  38.099  22.332   8.271
  317POPC   C3A 8729  38.212  21.936   8.071
  317POPC   C4A 8730  38.514  21.682   7.833
  317POPC   C1B 8731  38.700  22.451   8.685
  317POPC   C2B 8732  38.663  22.259   8.284
  317POPC   C3B 8733  38.550  22.271   7.863
  317POPC   C4B 8734  38.687  22.383   7.397
  318POPC   NC3 8735  30.367  24.461   9.472
  318POPC   PO4 8736  29.831  24.792   9.648
  318POPC   GL1 8737  29.887  24.620   9.230
  318POPC   GL2 8738  29.848  24.261   9.178
  318POPC   C1A 8739  30.096  24.626   8.834
  318POPC   D2A 8740  30.163  24.515   8.391
  318POPC   C3A 8741  29.964  24.763   8.069
  318POPC   C4A 8742  29.885  24.620   7.656
  318POPC   C1B 8743  30.053  24.142   8.751
  318POPC   C2B 8744  29.953  24.057   8.334
  318POPC   C3B 8745  29.705  24.295   8.043
  318POPC   C4B 8746  29.600  24.136   7.627
  319POPC   NC3 8747  16.792  23.625   9.627
  319POPC   PO4 8748  16.313  24.010   9.302
  319POPC   GL1 8749  16.539  23.661   9.198
  319POPC   GL2 8750  16.884  23.580   9.123
  319POPC   C1A 8751  16.456  23.501   8.772
  319POPC   D2A 8752  16.668  23.647   8.405
  319POPC   C3A 8753  16.771  23.443   8.055
  319POPC   C4A 8754  16.697  23.651   7.698
  319POPC   C1B 8755  16.788  23.907   8.824
  319POPC   C2B 8756  16.718  24.164   8.451
  319POPC   C3B 8757  16.835  24.010   8.031
  319POPC   C4B 8758  17.034  24.027   7.612
  320POPC   NC3 8759  34.667  32.416   9.537
  320POPC   PO4 8760  34.432  31.847   9.464
  320POPC   GL1 8761  34.332  32.166   9.163
  320POPC   GL2 8762  34.632  32.377   9.044
  320POPC   C1A 8763  34.304  32.201   8.715
  320POPC   D2A 8764  34.572  32.333   8.407
  320POPC   C3A 8765  34.372  32.413   8.029
  320POPC   C4A 8766  34.426  32.107   7.698
  320POPC   C1B 8767  34.795  32.026   8.785
  320POPC   C2B 8768  34.995  32.052   8.356
  320POPC   C3B 8769  34.878  32.176   7.947
  320POPC   C4B 8770  34.710  32.540   7.690
  321POPC   NC3 8771   0.213  26.985   9.748
  321POPC   PO4 8772   0.342  26.390   9.647
  321POPC   GL1 8773   0.513  26.694   9.294
  321POPC   GL2 8774   0.787  26.511   9.175
  321POPC   C1A 8775   0.375  26.986   8.892
  321POPC   D2A 8776   0.132  27.026   8.487
  321POPC   C3A 8777   0.152  26.808   8.048
  321POPC   C4A 8778   0.297  26.791   7.591
  321POPC   C1B 8779   0.588  26.552   8.800
  321POPC   C2B 8780   0.494  26.630   8.395
  321POPC   C3B 8781   0.649  26.763   8.000
  321POPC   C4B 8782   0.722  26.514   7.602
  322POPC   NC3 8783  33.971  32.846   9.506
  322POPC   PO4 8784  33.494  33.208   9.736
  322POPC   GL1 8785  33.551  32.923   9.233
  322POPC   GL2 8786  33.906  33.020   9.037
  322POPC   C1A 8787  33.519  32.892   8.744
  322POPC   D2A 8788  33.681  33.203   8.450
  322POPC   C3A 8789  33.810  33.256   8.021
  322POPC   C4A 8790  33.621  33.115   7.633
  322POPC   C1B 8791  34.138  33.219   8.677
  322POPC   C2B 8792  34.128  32.957   8.312
  322POPC   C3B 8793  33.934  32.761   7.955
  322POPC   C4B 8794  34.015  32.829   7.496
  323POPC   NC3 8795  18.708  35.329   9.511
  323POPC   PO4 8796  19.303  35.002   9.501
  323POPC   GL1 8797  19.130  35.261   9.135
  323POPC   GL2 8798  18.790  35.158   9.051
  323POPC   C1A 8799  19.202  35.561   8.745
  323POPC   D2A 8800  19.282  35.520   8.294
  323POPC   C3A 8801  19.243  35.097   8.157
  323POPC   C4A 8802  19.125  34.931   7.751
  323POPC   C1B 8803  18.960  35.113   8.636
  323POPC   C2B 8804  18.795  35.321   8.270
  323POPC   C3B 8805  18.776  35.320   7.829
  323POPC   C4B 8806  18.709  35.047   7.466
  324POPC   NC3 8807  33.659  29.308   9.483
  324POPC   PO4 8808  34.078  28.771   9.423
  324POPC   GL1 8809  33.781  28.952   9.127
  324POPC   GL2 8810  33.410  28.860   9.037
  324POPC   C1A 8811  33.808  28.972   8.704
  324POPC   D2A 8812  33.688  29.048   8.297
  324POPC   C3A 8813  34.046  29.170   8.026
  324POPC   C4A 8814  34.091  29.265   7.589
  324POPC   C1B 8815  33.328  29.142   8.678
  324POPC   C2B 8816  33.492  29.507   8.444
  324POPC   C3B 8817  33.620  29.490   8.007
  324POPC   C4B 8818  33.590  29.056   7.796
  325POPC   NC3 8819  11.229  15.439   9.464
  325POPC   PO4 8820  11.402  14.780   9.519
  325POPC   GL1 8821  11.396  15.052   9.171
  325POPC   GL2 8822  11.046  15.088   9.112
  325POPC   C1A 8823  11.596  15.168   8.759
  325POPC   D2A 8824  11.768  15.041   8.365
  325POPC   C3A 8825  11.511  14.967   7.982
  325POPC   C4A 8826  11.493  14.974   7.501
  325POPC   C1B 8827  11.124  15.327   8.700
  325POPC   C2B 8828  11.352  15.394   8.266
  325POPC   C3B 8829  11.301  15.388   7.782
  325POPC   C4B 8830  11.490  15.451   7.330
  326POPC   NC3 8831  29.428  24.475   9.492
  326POPC   PO4 8832  28.853  24.168   9.334
  326POPC   GL1 8833  29.027  24.509   9.063
  326POPC   GL2 8834  29.405  24.605   9.003
  326POPC   C1A 8835  29.146  24.334   8.662
  326POPC   D2A 8836  28.988  24.100   8.314
  326POPC   C3A 8837  29.066  24.403   8.014
  326POPC   C4A 8838  28.891  24.748   7.789
  326POPC   C1B 8839  29.637  24.521   8.604
  326POPC   C2B 8840  29.480  24.725   8.253
  326POPC   C3B 8841  29.423  24.696   7.831
  326POPC   C4B 8842  29.371  24.877   7.404
  327POPC   NC3 8843  44.012  30.653   9.490
  327POPC   PO4 8844  43.433  30.260   9.675
  327POPC   GL1 8845  43.520  30.544   9.304
  327POPC   GL2 8846  43.634  30.916   9.284
  327POPC   C1A 8847  43.542  30.640   8.838
  327POPC   D2A 8848  43.503  30.806   8.392
  327POPC   C3A 8849  43.650  30.553   8.043
  327POPC   C4A 8850  43.978  30.674   7.776
  327POPC   C1B 8851  43.655  31.152   8.882
  327POPC   C2B 8852  43.864  31.186   8.469
  327POPC   C3B 8853  43.782  31.099   8.023
  327POPC   C4B 8854  44.068  31.153   7.660
  328POPC   NC3 8855  31.439   1.943   9.657
  328POPC   PO4 8856  31.776   2.390   9.291
  328POPC   GL1 8857  31.411   2.149   9.146
  328POPC   GL2 8858  31.373   1.786   9.122
  328POPC   C1A 8859  31.437   2.083   8.706
  328POPC   D2A 8860  31.412   1.790   8.378
  328POPC   C3A 8861  31.505   2.012   8.020
  328POPC   C4A 8862  31.659   1.847   7.673
  328POPC   C1B 8863  31.064   1.758   8.785
  328POPC   C2B 8864  30.929   1.639   8.384
  328POPC   C3B 8865  31.078   1.709   7.967
  328POPC   C4B 8866  31.216   1.609   7.547
  329POPC   NC3 8867  23.108  17.847   9.333
  329POPC   PO4 8868  22.439  17.761   9.444
  329POPC   GL1 8869  22.709  17.555   9.120
  329POPC   GL2 8870  23.049  17.362   9.175
  329POPC   C1A 8871  22.861  17.621   8.679
  329POPC   D2A 8872  22.863  17.895   8.300
  329POPC   C3A 8873  22.907  17.707   7.871
  329POPC   C4A 8874  22.656  17.505   7.522
  329POPC   C1B 8875  23.230  17.249   8.769
  329POPC   C2B 8876  23.160  17.331   8.330
  329POPC   C3B 8877  23.172  17.250   7.931
  329POPC   C4B 8878  23.137  17.370   7.551
  330POPC   NC3 8879   5.064  26.397   9.429
  330POPC   PO4 8880   5.348  25.768   9.489
  330POPC   GL1 8881   4.984  25.887   9.185
  330POPC   GL2 8882   4.708  26.166   9.153
  330POPC   C1A 8883   4.976  25.897   8.747
  330POPC   D2A 8884   5.222  25.843   8.361
  330POPC   C3A 8885   5.013  25.836   7.953
  330POPC   C4A 8886   4.754  26.087   7.715
  330POPC   C1B 8887   4.850  26.395   8.788
  330POPC   C2B 8888   5.025  26.510   8.370
  330POPC   C3B 8889   5.149  26.335   7.959
  330POPC   C4B 8890   5.311  26.400   7.520
  331POPC   NC3 8891  31.474   4.703   9.563
  331POPC   PO4 8892  31.613   5.344   9.451
  331POPC   GL1 8893  31.528   4.958   9.122
  331POPC   GL2 8894  31.213   4.726   9.124
  331POPC   C1A 8895  31.683   4.864   8.681
  331POPC   D2A 8896  31.462   5.021   8.297
  331POPC   C3A 8897  31.459   5.227   7.838
  331POPC   C4A 8898  31.288   5.480   7.475
  331POPC   C1B 8899  31.173   4.804   8.698
  331POPC   C2B 8900  31.162   4.584   8.314
  331POPC   C3B 8901  31.241   4.766   7.935
  331POPC   C4B 8902  31.681   4.762   7.861
  332POPC   NC3 8903  40.590  41.863   9.676
  332POPC   PO4 8904  40.949  41.328   9.627
  332POPC   GL1 8905  40.840  41.537   9.211
  332POPC   GL2 8906  40.555  41.821   9.173
  332POPC   C1A 8907  40.932  41.591   8.762
  332POPC   D2A 8908  41.176  41.516   8.377
  332POPC   C3A 8909  40.942  41.611   7.970
  332POPC   C4A 8910  40.875  41.466   7.498
  332POPC   C1B 8911  40.672  42.036   8.811
  332POPC   C2B 8912  40.738  41.884   8.395
  332POPC   C3B 8913  40.639  42.025   8.021
  332POPC   C4B 8914  40.786  41.960   7.625
  333POPC   NC3 8915   8.746  43.648   9.493
  333POPC   PO4 8916   9.292  44.126   9.600
  333POPC   GL1 8917   9.051  44.020   9.235
  333POPC   GL2 8918   8.904  44.354   9.180
  333POPC   C1A 8919   8.991  43.684   8.880
  333POPC   D2A 8920   9.116  43.644   8.437
  333POPC   C3A 8921   8.860  43.779   8.101
  333POPC   C4A 8922   8.807  43.811   7.677
  333POPC   C1B 8923   8.937  44.178   8.760
  333POPC   C2B 8924   9.105  44.173   8.340
  333POPC   C3B 8925   8.958  44.228   7.903
  333POPC   C4B 8926   8.910  44.220   7.387
  334POPC   NC3 8927  31.742  42.838   9.497
  334POPC   PO4 8928  31.903  43.534   9.194
  334POPC   GL1 8929  31.615  43.103   9.046
  334POPC   GL2 8930  31.422  42.735   9.077
  334POPC   C1A 8931  31.380  43.073   8.656
  334POPC   D2A 8932  31.222  43.349   8.307
  334POPC   C3A 8933  31.337  43.255   7.911
  334POPC   C4A 8934  31.530  43.169   7.500
  334POPC   C1B 8935  31.516  42.561   8.722
  334POPC   C2B 8936  31.720  42.754   8.366
  334POPC   C3B 8937  31.486  42.784   8.038
  334POPC   C4B 8938  31.294  42.759   7.657
  335POPC   NC3 8939   6.728  19.341   9.560
  335POPC   PO4 8940   7.132  19.880   9.483
  335POPC   GL1 8941   6.862  19.724   9.210
  335POPC   GL2 8942   6.620  19.995   9.238
  335POPC   C1A 8943   6.664  19.641   8.837
  335POPC   D2A 8944   6.388  19.656   8.511
  335POPC   C3A 8945   6.583  19.627   8.125
  335POPC   C4A 8946   6.522  19.703   7.726
  335POPC   C1B 8947   6.739  20.205   8.851
  335POPC   C2B 8948   6.735  20.033   8.437
  335POPC   C3B 8949   6.600  20.134   8.009
  335POPC   C4B 8950   6.584  20.308   7.581
  336POPC   NC3 8951   8.460  29.737   9.481
  336POPC   PO4 8952   8.047  30.274   9.481
  336POPC   GL1 8953   8.351  30.131   9.181
  336POPC   GL2 8954   8.146  29.852   9.073
  336POPC   C1A 8955   8.460  30.092   8.747
  336POPC   D2A 8956   8.180  29.998   8.444
  336POPC   C3A 8957   8.260  30.195   8.087
  336POPC   C4A 8958   8.274  30.097   7.643
  336POPC   C1B 8959   7.809  29.778   8.738
  336POPC   C2B 8960   7.758  29.752   8.282
  336POPC   C3B 8961   8.025  29.748   7.909
  336POPC   C4B 8962   8.256  29.559   7.562
  337POPC   NC3 8963  42.918  20.229   9.394
  337POPC   PO4 8964  42.897  19.606   9.711
  337POPC   GL1 8965  43.112  19.708   9.280
  337POPC   GL2 8966  42.791  19.800   9.120
  337POPC   C1A 8967  43.271  19.851   8.838
  337POPC   D2A 8968  43.056  19.880   8.438
  337POPC   C3A 8969  43.238  19.899   8.026
  337POPC   C4A 8970  43.068  20.106   7.703
  337POPC   C1B 8971  42.936  19.478   8.811
  337POPC   C2B 8972  42.933  19.392   8.377
  337POPC   C3B 8973  42.827  19.616   8.005
  337POPC   C4B 8974  42.989  19.625   7.626
  338POPC   NC3 8975  43.281  24.888   9.397
  338POPC   PO4 8976  43.561  24.320   9.566
  338POPC   GL1 8977  43.300  24.431   9.159
  338POPC   GL2 8978  42.932  24.575   9.183
  338POPC   C1A 8979  43.148  24.526   8.716
  338POPC   D2A 8980  42.971  24.390   8.338
  338POPC   C3A 8981  43.126  24.509   7.929
  338POPC   C4A 8982  43.202  24.615   7.498
  338POPC   C1B 8983  42.798  24.874   8.834
  338POPC   C2B 8984  42.523  24.747   8.483
  338POPC   C3B 8985  42.641  24.650   8.053
  338POPC   C4B 8986  42.841  24.934   7.747
  339POPC   NC3 8987  35.915   3.036   9.664
  339POPC   PO4 8988  36.042   2.431   9.438
  339POPC   GL1 8989  36.168   2.692   9.100
  339POPC   GL2 8990  36.038   3.040   9.168
  339POPC   C1A 8991  36.059   2.852   8.686
  339POPC   D2A 8992  36.195   3.018   8.277
  339POPC   C3A 8993  36.135   2.671   7.994
  339POPC   C4A 8994  36.160   2.412   7.607
  339POPC   C1B 8995  35.777   3.245   8.861
  339POPC   C2B 8996  35.676   3.087   8.424
  339POPC   C3B 8997  35.764   3.068   7.974
  339POPC   C4B 8998  35.785   2.775   7.641
  340POPC   NC3 8999  37.304   3.285   9.556
  340POPC   PO4 9000  37.736   2.984   9.355
  340POPC   GL1 9001  37.871   3.256   9.082
  340POPC   GL2 9002  37.613   3.491   9.091
  340POPC   C1A 9003  37.966   3.278   8.663
  340POPC   D2A 9004  37.672   3.491   8.364
  340POPC   C3A 9005  37.493   3.404   7.981
  340POPC   C4A 9006  37.477   3.672   7.594
  340POPC   C1B 9007  37.826   3.753   8.776
  340POPC   C2B 9008  37.967   3.905   8.364
  340POPC   C3B 9009  37.783   3.832   7.974
  340POPC   C4B 9010  37.927   3.969   7.584
  341POPC   NC3 9011   6.848  13.030   9.386
  341POPC   PO4 9012   6.311  12.838   9.744
  341POPC   GL1 9013   6.504  12.694   9.244
  341POPC   GL2 9014   6.543  12.962   9.010
  341POPC   C1A 9015   6.819  12.635   8.775
  341POPC   D2A 9016   6.648  12.641   8.292
  341POPC   C3A 9017   6.869  12.737   7.898
  341POPC   C4A 9018   6.849  13.113   7.651
  341POPC   C1B 9019   6.350  12.797   8.691
  341POPC   C2B 9020   6.249  12.975   8.331
  341POPC   C3B 9021   6.070  12.758   8.021
  341POPC   C4B 9022   6.388  12.893   7.793
  342POPC   NC3 9023  44.458  20.682   9.669
  342POPC   PO4 9024  44.132  20.111   9.537
  342POPC   GL1 9025  43.924  20.465   9.288
  342POPC   GL2 9026  44.089  20.781   9.233
  342POPC   C1A 9027  43.862  20.506   8.823
  342POPC   D2A 9028  44.000  20.340   8.425
  342POPC   C3A 9029  43.761  20.559   8.102
  342POPC   C4A 9030  43.562  20.659   7.693
  342POPC   C1B 9031  44.276  20.948   8.871
  342POPC   C2B 9032  44.139  20.826   8.467
  342POPC   C3B 9033  44.054  20.983   8.051
  342POPC   C4B 9034  44.049  20.763   7.696
  343POPC   NC3 9035   6.198  21.686   9.226
  343POPC   PO4 9036   5.788  21.985   9.610
  343POPC   GL1 9037   5.703  22.096   9.177
  343POPC   GL2 9038   6.067  22.174   9.078
  343POPC   C1A 9039   5.683  22.190   8.739
  343POPC   D2A 9040   6.060  22.025   8.551
  343POPC   C3A 9041   6.034  21.962   8.125
  343POPC   C4A 9042   5.673  22.027   7.864
  343POPC   C1B 9043   6.326  22.437   8.797
  343POPC   C2B 9044   6.154  22.520   8.392
  343POPC   C3B 9045   5.830  22.466   8.108
  343POPC   C4B 9046   5.973  22.389   7.687
  344POPC   NC3 9047  24.230  10.515   9.485
  344POPC   PO4 9048  24.910  10.458   9.477
  344POPC   GL1 9049  24.606  10.467   9.147
  344POPC   GL2 9050  24.333  10.727   9.024
  344POPC   C1A 9051  24.591  10.409   8.726
  344POPC   D2A 9052  24.321  10.567   8.434
  344POPC   C3A 9053  24.441  10.479   8.025
  344POPC   C4A 9054  24.554  10.706   7.614
  344POPC   C1B 9055  24.060  10.400   8.846
  344POPC   C2B 9056  23.867  10.324   8.456
  344POPC   C3B 9057  23.911  10.613   8.132
  344POPC   C4B 9058  24.135  10.841   7.859
  345POPC   NC3 9059  20.769   8.671   9.482
  345POPC   PO4 9060  20.297   9.135   9.557
  345POPC   GL1 9061  20.550   9.046   9.172
  345POPC   GL2 9062  20.897   9.145   9.096
  345POPC   C1A 9063  20.681   8.756   8.820
  345POPC   D2A 9064  20.735   8.513   8.446
  345POPC   C3A 9065  20.582   8.733   8.091
  345POPC   C4A 9066  20.678   8.692   7.646
  345POPC   C1B 9067  20.691   9.264   8.697
  345POPC   C2B 9068  20.572   9.263   8.261
  345POPC   C3B 9069  20.738   9.496   7.933
  345POPC   C4B 9070  20.931   9.389   7.535
  346POPC   NC3 9071  19.420  28.033   9.552
  346POPC   PO4 9072  20.139  28.125   9.571
  346POPC   GL1 9073  19.840  28.181   9.214
  346POPC   GL2 9074  20.085  28.409   9.113
  346POPC   C1A 9075  19.613  28.382   8.820
  346POPC   D2A 9076  19.470  28.458   8.357
  346POPC   C3A 9077  19.634  28.232   7.989
  346POPC   C4A 9078  20.002  27.965   7.961
  346POPC   C1B 9079  20.082  28.246   8.703
  346POPC   C2B 9080  19.996  28.379   8.299
  346POPC   C3B 9081  20.107  28.505   7.881
  346POPC   C4B 9082  20.155  28.590   7.414
  347POPC   NC3 9083  11.655  30.462   9.581
  347POPC   PO4 9084  12.164  30.985   9.476
  347POPC   GL1 9085  12.012  30.656   9.199
  347POPC   GL2 9086  11.650  30.732   9.148
  347POPC   C1A 9087  12.261  30.586   8.816
  347POPC   D2A 9088  12.497  30.738   8.442
  347POPC   C3A 9089  12.383  30.476   8.080
  347POPC   C4A 9090  12.159  30.474   7.679
  347POPC   C1B 9091  11.792  30.812   8.726
  347POPC   C2B 9092  12.009  30.707   8.350
  347POPC   C3B 9093  12.109  30.916   7.956
  347POPC   C4B 9094  11.753  31.118   7.788
  348POPC   NC3 9095   1.574   7.925   9.582
  348POPC   PO4 9096   1.202   8.601   9.571
  348POPC   GL1 9097   1.393   8.461   9.155
  348POPC   GL2 9098   1.388   8.092   9.130
  348POPC   C1A 9099   1.280   8.382   8.713
  348POPC   D2A 9100   1.017   8.380   8.325
  348POPC   C3A 9101   1.183   8.387   7.925
  348POPC   C4A 9102   1.526   8.421   7.695
  348POPC   C1B 9103   1.323   7.844   8.728
  348POPC   C2B 9104   1.213   7.882   8.273
  348POPC   C3B 9105   1.416   7.938   7.878
  348POPC   C4B 9106   1.423   7.687   7.496
  349POPC   NC3 9107  21.611  42.417  10.107
  349POPC   PO4 9108  21.140  42.479   9.594
  349POPC   GL1 9109  21.300  42.360   9.220
  349POPC   GL2 9110  21.301  42.044   9.182
  349POPC   C1A 9111  21.208  42.407   8.786
  349POPC   D2A 9112  21.288  42.630   8.430
  349POPC   C3A 9113  21.365  42.425   8.054
  349POPC   C4A 9114  21.316  42.615   7.645
  349POPC   C1B 9115  21.052  41.922   8.798
  349POPC   C2B 9116  21.148  42.043   8.358
  349POPC   C3B 9117  20.985  42.114   7.928
  349POPC   C4B 9118  21.206  42.135   7.551
  350POPC   NC3 9119  42.785  31.099   9.484
  350POPC   PO4 9120  43.065  31.787   9.583
  350POPC   GL1 9121  43.082  31.477   9.311
  350POPC   GL2 9122  42.741  31.536   9.236
  350POPC   C1A 9123  43.146  31.407   8.911
  350POPC   D2A 9124  42.984  31.458   8.514
  350POPC   C3A 9125  43.196  31.192   8.210
  350POPC   C4A 9126  43.146  31.344   7.764
  350POPC   C1B 9127  42.623  31.766   8.896
  350POPC   C2B 9128  42.655  31.856   8.471
  350POPC   C3B 9129  42.898  31.752   8.099
  350POPC   C4B 9130  42.742  31.736   7.687
  351POPC   NC3 9131   1.507  10.424   9.895
  351POPC   PO4 9132   1.454  11.054   9.657
  351POPC   GL1 9133   1.509  10.847   9.257
  351POPC   GL2 9134   1.452  10.475   9.284
  351POPC   C1A 9135   1.356  10.735   8.831
  351POPC   D2A 9136   1.489  10.875   8.422
  351POPC   C3A 9137   1.230  10.727   8.076
  351POPC   C4A 9138   1.275  10.479   7.704
  351POPC   C1B 9139   1.649  10.305   8.884
  351POPC   C2B 9140   1.430  10.343   8.470
  351POPC   C3B 9141   1.351  10.158   8.085
  351POPC   C4B 9142   1.578  10.066   7.726
  352POPC   NC3 9143   2.228  40.448   9.253
  352POPC   PO4 9144   2.314  41.089   9.340
  352POPC   GL1 9145   1.980  40.871   9.067
  352POPC   GL2 9146   1.740  40.548   9.080
  352POPC   C1A 9147   2.177  40.835   8.653
  352POPC   D2A 9148   2.135  41.025   8.262
  352POPC   C3A 9149   2.312  40.859   7.895
  352POPC   C4A 9150   2.385  41.051   7.540
  352POPC   C1B 9151   1.820  40.476   8.651
  352POPC   C2B 9152   1.729  40.750   8.347
  352POPC   C3B 9153   1.546  40.893   7.992
  352POPC   C4B 9154   1.777  40.682   7.697
  353POPC   NC3 9155  23.433  44.200   9.263
  353POPC   PO4 9156  24.096  44.283   9.463
  353POPC   GL1 9157  23.889  44.105   9.111
  353POPC   GL2 9158  23.723  43.798   9.077
  353POPC   C1A 9159  23.807  44.205   8.702
  353POPC   D2A 9160  23.508  44.218   8.381
  353POPC   C3A 9161  23.573  43.992   7.989
  353POPC   C4A 9162  23.822  43.782   7.674
  353POPC   C1B 9163  23.417  43.836   8.710
  353POPC   C2B 9164  23.291  43.670   8.300
  353POPC   C3B 9165  23.405  43.525   7.868
  353POPC   C4B 9166  23.415  43.589   7.408
  354POPC   NC3 9167  37.454  31.354   9.755
  354POPC   PO4 9168  36.866  31.562   9.419
  354POPC   GL1 9169  36.865  31.620   9.012
  354POPC   GL2 9170  37.130  31.810   9.012
  354POPC   C1A 9171  37.010  31.392   8.661
  354POPC   D2A 9172  36.862  31.212   8.275
  354POPC   C3A 9173  36.874  31.570   7.967
  354POPC   C4A 9174  36.732  31.662   7.506
  354POPC   C1B 9175  37.228  32.029   8.654
  354POPC   C2B 9176  37.238  31.966   8.209
  354POPC   C3B 9177  37.334  31.878   7.786
  354POPC   C4B 9178  37.207  31.496   7.595
  355POPC   NC3 9179  22.675  37.680   9.491
  355POPC   PO4 9180  23.059  37.134   9.637
  355POPC   GL1 9181  23.116  37.463   9.277
  355POPC   GL2 9182  23.382  37.722   9.227
  355POPC   C1A 9183  23.008  37.644   8.876
  355POPC   D2A 9184  22.910  37.450   8.484
  355POPC   C3A 9185  22.958  37.629   8.085
  355POPC   C4A 9186  22.760  37.391   7.742
  355POPC   C1B 9187  23.359  37.979   8.817
  355POPC   C2B 9188  23.137  38.059   8.428
  355POPC   C3B 9189  23.287  38.070   8.017
  355POPC   C4B 9190  23.118  37.864   7.670
  356POPC   NC3 9191  12.995  29.646   9.427
  356POPC   PO4 9192  12.885  30.293   9.447
  356POPC   GL1 9193  12.990  30.058   9.089
  356POPC   GL2 9194  12.663  29.862   9.079
  356POPC   C1A 9195  13.129  30.009   8.644
  356POPC   D2A 9196  12.963  29.885   8.221
  356POPC   C3A 9197  12.914  30.006   7.787
  356POPC   C4A 9198  12.911  30.088   7.329
  356POPC   C1B 9199  12.704  29.659   8.662
  356POPC   C2B 9200  12.826  29.407   8.278
  356POPC   C3B 9201  12.663  29.550   7.872
  356POPC   C4B 9202  12.810  29.618   7.457
  357POPC   NC3 9203  21.066  32.880   9.732
  357POPC   PO4 9204  21.441  32.365   9.491
  357POPC   GL1 9205  21.410  32.616   9.144
  357POPC   GL2 9206  21.141  32.370   9.034
  357POPC   C1A 9207  21.529  32.507   8.727
  357POPC   D2A 9208  21.705  32.264   8.394
  357POPC   C3A 9209  21.767  32.485   8.020
  357POPC   C4A 9210  21.527  32.399   7.670
  357POPC   C1B 9211  21.023  32.002   8.790
  357POPC   C2B 9212  21.210  31.842   8.407
  357POPC   C3B 9213  21.400  32.007   8.018
  357POPC   C4B 9214  21.117  31.975   7.646
  358POPC   NC3 9215  34.413  14.034   9.404
  358POPC   PO4 9216  34.651  14.535   9.551
  358POPC   GL1 9217  34.694  14.609   9.130
  358POPC   GL2 9218  34.395  14.410   9.067
  358POPC   C1A 9219  34.669  14.554   8.664
  358POPC   D2A 9220  34.449  14.432   8.271
  358POPC   C3A 9221  34.615  14.653   7.926
  358POPC   C4A 9222  34.971  14.781   7.695
  358POPC   C1B 9223  34.482  14.052   8.761
  358POPC   C2B 9224  34.603  13.929   8.349
  358POPC   C3B 9225  34.436  13.993   7.947
  358POPC   C4B 9226  34.667  14.237   7.645
  359POPC   NC3 9227   3.012  16.245   9.623
  359POPC   PO4 9228   2.761  16.855   9.507
  359POPC   GL1 9229   2.836  16.632   9.167
  359POPC   GL2 9230   3.165  16.521   9.216
  359POPC   C1A 9231   2.600  16.600   8.807
  359POPC   D2A 9232   2.519  16.801   8.423
  359POPC   C3A 9233   2.700  16.707   8.036
  359POPC   C4A 9234   2.441  16.697   7.683
  359POPC   C1B 9235   3.090  16.423   8.763
  359POPC   C2B 9236   2.984  16.324   8.330
  359POPC   C3B 9237   3.074  16.384   7.878
  359POPC   C4B 9238   2.905  16.596   7.522
  360POPC   NC3 9239  20.769  42.797   9.595
  360POPC   PO4 9240  20.400  43.345   9.369
  360POPC   GL1 9241  20.605  43.362   9.047
  360POPC   GL2 9242  20.826  43.091   9.150
  360POPC   C1A 9243  20.528  43.120   8.708
  360POPC   D2A 9244  20.347  42.899   8.357
  360POPC   C3A 9245  20.509  42.996   7.960
  360POPC   C4A 9246  20.556  43.338   7.680
  360POPC   C1B 9247  21.069  42.922   8.808
  360POPC   C2B 9248  20.883  42.960   8.383
  360POPC   C3B 9249  20.970  43.194   8.002
  360POPC   C4B 9250  20.952  42.997   7.616
  361POPC   NC3 9251  31.019  34.315   9.371
  361POPC   PO4 9252  30.445  34.672   9.553
  361POPC   GL1 9253  30.605  34.616   9.140
  361POPC   GL2 9254  30.947  34.725   9.063
  361POPC   C1A 9255  30.622  34.826   8.700
  361POPC   D2A 9256  30.811  34.857   8.286
  361POPC   C3A 9257  30.461  34.844   8.025
  361POPC   C4A 9258  30.283  34.692   7.628
  361POPC   C1B 9259  30.784  34.326   8.771
  361POPC   C2B 9260  30.662  34.174   8.378
  361POPC   C3B 9261  30.667  34.365   7.972
  361POPC   C4B 9262  30.824  34.714   7.719
  362POPC   NC3 9263  44.639  23.982   9.367
  362POPC   PO4 9264  44.418  23.330   9.165
  362POPC   GL1 9265  44.629  23.629   8.977
  362POPC   GL2 9266  44.944  23.629   9.056
  362POPC   C1A 9267  44.782  23.666   8.586
  362POPC   D2A 9268  44.766  23.773   8.227
  362POPC   C3A 9269  44.367  23.758   8.043
  362POPC   C4A 9270  44.240  23.442   7.729
  362POPC   C1B 9271   0.077  24.021   8.796
  362POPC   C2B 9272   0.238  23.950   8.345
  362POPC   C3B 9273   0.106  24.012   7.925
  362POPC   C4B 9274  44.772  23.809   7.736
  363POPC   NC3 9275  31.856  28.894   9.479
  363POPC   PO4 9276  32.495  29.228   9.457
  363POPC   GL1 9277  32.291  29.215   9.085
  363POPC   GL2 9278  31.932  29.271   9.113
  363POPC   C1A 9279  32.105  28.957   8.761
  363POPC   D2A 9280  32.141  28.775   8.372
  363POPC   C3A 9281  32.093  28.941   7.960
  363POPC   C4A 9282  32.320  28.863   7.585
  363POPC   C1B 9283  31.987  29.456   8.754
  363POPC   C2B 9284  32.183  29.328   8.393
  363POPC   C3B 9285  32.227  29.441   7.983
  363POPC   C4B 9286  32.275  29.360   7.564
  364POPC   NC3 9287   2.511  37.099   9.549
  364POPC   PO4 9288   2.642  36.406   9.398
  364POPC   GL1 9289   2.650  36.779   9.178
  364POPC   GL2 9290   2.944  36.807   9.301
  364POPC   C1A 9291   2.683  36.947   8.762
  364POPC   D2A 9292   2.576  36.812   8.355
  364POPC   C3A 9293   2.778  37.097   8.070
  364POPC   C4A 9294   3.054  37.180   7.734
  364POPC   C1B 9295   3.045  36.626   8.894
  364POPC   C2B 9296   3.019  36.574   8.472
  364POPC   C3B 9297   3.189  36.788   8.129
  364POPC   C4B 9298   3.157  36.679   7.721
  365POPC   NC3 9299  19.940   3.734   9.520
  365POPC   PO4 9300  19.444   3.220   9.600
  365POPC   GL1 9301  19.672   3.418   9.210
  365POPC   GL2 9302  19.662   3.762   9.075
  365POPC   C1A 9303  19.740   3.408   8.732
  365POPC   D2A 9304  19.600   3.228   8.332
  365POPC   C3A 9305  19.816   3.318   7.954
  365POPC   C4A 9306  20.131   3.280   7.647
  365POPC   C1B 9307  19.727   3.927   8.669
  365POPC   C2B 9308  19.756   3.710   8.289
  365POPC   C3B 9309  19.771   3.829   7.862
  365POPC   C4B 9310  19.856   3.961   7.426
  366POPC   NC3 9311  33.570  14.965   9.433
  366POPC   PO4 9312  33.344  14.381   9.476
  366POPC   GL1 9313  33.633  14.457   9.164
  366POPC   GL2 9314  33.883  14.188   9.207
  366POPC   C1A 9315  33.689  14.716   8.811
  366POPC   D2A 9316  33.883  14.647   8.414
  366POPC   C3A 9317  33.560  14.546   8.105
  366POPC   C4A 9318  33.584  14.592   7.656
  366POPC   C1B 9319  33.990  14.269   8.787
  366POPC   C2B 9320  34.096  14.089   8.407
  366POPC   C3B 9321  33.988  14.265   8.088
  366POPC   C4B 9322  34.185  14.398   7.761
  367POPC   NC3 9323  44.423  22.004   9.547
  367POPC   PO4 9324  43.877  21.872   9.931
  367POPC   GL1 9325  43.922  21.872   9.396
  367POPC   GL2 9326  44.209  21.892   9.113
  367POPC   C1A 9327  43.748  22.020   8.960
  367POPC   D2A 9328  43.826  21.973   8.502
  367POPC   C3A 9329  43.713  22.295   8.198
  367POPC   C4A 9330  43.603  22.595   7.903
  367POPC   C1B 9331  44.265  22.212   8.770
  367POPC   C2B 9332  44.507  22.258   8.377
  367POPC   C3B 9333  44.318  22.192   7.962
  367POPC   C4B 9334  43.933  22.162   7.744
  368POPC   NC3 9335  39.686  11.404   9.633
  368POPC   PO4 9336  40.220  11.660   9.575
  368POPC   GL1 9337  39.986  11.489   9.223
  368POPC   GL2 9338  39.841  11.132   9.233
  368POPC   C1A 9339  40.050  11.326   8.814
  368POPC   D2A 9340  40.183  11.267   8.395
  368POPC   C3A 9341  40.013  11.476   8.040
  368POPC   C4A 9342  40.197  11.160   7.833
  368POPC   C1B 9343  39.586  11.111   8.841
  368POPC   C2B 9344  39.658  11.280   8.437
  368POPC   C3B 9345  39.748  11.047   8.059
  368POPC   C4B 9346  39.647  11.126   7.614
  369POPC   NC3 9347  34.923  43.677   9.771
  369POPC   PO4 9348  35.006  44.352   9.766
  369POPC   GL1 9349  35.076  44.065   9.393
  369POPC   GL2 9350  35.431  43.938   9.371
  369POPC   C1A 9351  35.118  43.862   8.966
  369POPC   D2A 9352  35.158  43.726   8.527
  369POPC   C3A 9353  34.985  43.910   8.160
  369POPC   C4A 9354  35.239  43.852   7.791
  369POPC   C1B 9355  35.609  44.027   8.957
  369POPC   C2B 9356  35.729  44.067   8.540
  369POPC   C3B 9357  35.570  43.991   8.141
  369POPC   C4B 9358  35.696  44.003   7.680
  370POPC   NC3 9359  32.438  35.461   9.463
  370POPC   PO4 9360  31.942  35.033   9.399
  370POPC   GL1 9361  32.217  35.276   9.033
  370POPC   GL2 9362  32.348  35.577   8.994
  370POPC   C1A 9363  32.409  35.267   8.598
  370POPC   D2A 9364  32.133  35.295   8.215
  370POPC   C3A 9365  32.238  35.110   7.800
  370POPC   C4A 9366  32.411  34.987   7.354
  370POPC   C1B 9367  32.100  35.672   8.650
  370POPC   C2B 9368  32.424  35.740   8.334
  370POPC   C3B 9369  32.379  35.620   7.907
  370POPC   C4B 9370  31.941  35.553   7.788
  371POPC   NC3 9371  28.138   1.771   9.638
  371POPC   PO4 9372  28.569   1.277   9.366
  371POPC   GL1 9373  28.339   1.337   9.045
  371POPC   GL2 9374  28.234   1.005   8.971
  371POPC   C1A 9375  28.321   1.584   8.682
  371POPC   D2A 9376  28.200   1.516   8.243
  371POPC   C3A 9377  28.511   1.340   7.950
  371POPC   C4A 9378  28.569   1.016   7.615
  371POPC   C1B 9379  28.279   1.083   8.545
  371POPC   C2B 9380  28.181   1.003   8.119
  371POPC   C3B 9381  28.072   1.005   7.708
  371POPC   C4B 9382  28.212   1.348   7.484
  372POPC   NC3 9383   6.865   0.091   9.975
  372POPC   PO4 9384   6.477   0.409   9.538
  372POPC   GL1 9385   6.675   0.490   9.118
  372POPC   GL2 9386   6.793   0.197   8.931
  372POPC   C1A 9387   6.691   0.603   8.655
  372POPC   D2A 9388   6.742   0.314   8.301
  372POPC   C3A 9389   6.844   0.541   7.919
  372POPC   C4A 9390   6.760   0.474   7.495
  372POPC   C1B 9391   6.376   0.194   8.714
  372POPC   C2B 9392   6.226   0.130   8.273
  372POPC   C3B 9393   6.414   0.239   7.851
  372POPC   C4B 9394   6.450   0.077   7.428
  373POPC   NC3 9395  25.649  44.301   9.341
  373POPC   PO4 9396  26.144  44.567   9.716
  373POPC   GL1 9397  26.062  44.763   9.324
  373POPC   GL2 9398  25.755  44.916   9.214
  373POPC   C1A 9399  26.173  44.722   8.890
  373POPC   D2A 9400  26.453  44.715   8.529
  373POPC   C3A 9401  26.312  44.726   8.125
  373POPC   C4A 9402  26.211  44.456   7.783
  373POPC   C1B 9403  25.819   0.060   8.777
  373POPC   C2B 9404  25.875  44.788   8.427
  373POPC   C3B 9405  25.793  44.678   8.005
  373POPC   C4B 9406  25.849  44.733   7.537
  374POPC   NC3 9407  38.097   2.042   9.503
  374POPC   PO4 9408  37.370   2.135   9.736
  374POPC   GL1 9409  37.463   2.148   9.238
  374POPC   GL2 9410  37.746   1.936   9.141
  374POPC   C1A 9411  37.530   2.173   8.737
  374POPC   D2A 9412  37.710   2.189   8.264
  374POPC   C3A 9413  37.518   2.226   7.874
  374POPC   C4A 9414  37.672   2.163   7.456
  374POPC   C1B 9415  37.811   1.751   8.730
  374POPC   C2B 9416  37.610   1.705   8.332
  374POPC   C3B 9417  37.717   1.758   7.905
  374POPC   C4B 9418  37.508   1.680   7.476
  375POPC   NC3 9419  20.107  20.183   9.439
  375POPC   PO4 9420  19.467  20.375   9.643
  375POPC   GL1 9421  19.623  20.360   9.187
  375POPC   GL2 9422  19.406  20.297   8.905
  375POPC   C1A 9423  19.734  20.669   8.807
  375POPC   D2A 9424  19.549  20.741   8.383
  375POPC   C3A 9425  19.831  20.705   8.044
  375POPC   C4A 9426  20.174  20.649   7.745
  375POPC   C1B 9427  19.854  20.169   8.792
  375POPC   C2B 9428  19.921  20.328   8.420
  375POPC   C3B 9429  19.955  20.223   8.007
  375POPC   C4B 9430  19.634  20.326   7.680
  376POPC   NC3 9431  24.316  30.546   9.531
  376POPC   PO4 9432  24.439  31.168   9.295
  376POPC   GL1 9433  24.369  30.821   9.109
  376POPC   GL2 9434  24.696  30.658   9.208
  376POPC   C1A 9435  24.293  30.657   8.719
  376POPC   D2A 9436  24.536  30.628   8.365
  376POPC   C3A 9437  24.438  30.365   8.039
  376POPC   C4A 9438  24.494  30.645   7.731
  376POPC   C1B 9439  24.768  30.872   8.801
  376POPC   C2B 9440  24.829  31.086   8.431
  376POPC   C3B 9441  24.698  31.016   8.032
  376POPC   C4B 9442  24.883  30.951   7.648
  377POPC   NC3 9443   1.805  11.274   9.461
  377POPC   PO4 9444   2.425  11.473   9.490
  377POPC   GL1 9445   2.193  11.355   9.140
  377POPC   GL2 9446   2.196  11.005   9.176
  377POPC   C1A 9447   2.047  11.285   8.726
  377POPC   D2A 9448   2.132  11.495   8.320
  377POPC   C3A 9449   1.930  11.375   7.923
  377POPC   C4A 9450   1.592  11.540   7.661
  377POPC   C1B 9451   2.351  10.865   8.754
  377POPC   C2B 9452   2.160  10.944   8.350
  377POPC   C3B 9453   2.111  10.883   7.908
  377POPC   C4B 9454   2.262  11.135   7.564
  378POPC   NC3 9455  19.822  35.036   9.396
  378POPC   PO4 9456  20.133  34.451   9.598
  378POPC   GL1 9457  19.961  34.543   9.193
  378POPC   GL2 9458  19.597  34.619   9.216
  378POPC   C1A 9459  20.086  34.470   8.766
  378POPC   D2A 9460  20.269  34.348   8.372
  378POPC   C3A 9461  20.019  34.474   8.003
  378POPC   C4A 9462  20.102  34.821   7.742
  378POPC   C1B 9463  19.672  34.773   8.792
  378POPC   C2B 9464  19.657  34.638   8.353
  378POPC   C3B 9465  19.618  34.822   7.928
  378POPC   C4B 9466  19.549  34.742   7.493
  379POPC   NC3 9467   1.496  38.331   9.454
  379POPC   PO4 9468   2.096  38.563   9.501
  379POPC   GL1 9469   1.950  38.337   9.170
  379POPC   GL2 9470   1.771  38.599   9.088
  379POPC   C1A 9471   2.093  38.340   8.745
  379POPC   D2A 9472   2.007  38.597   8.419
  379POPC   C3A 9473   2.075  38.477   8.034
  379POPC   C4A 9474   2.166  38.500   7.617
  379POPC   C1B 9475   1.590  38.795   8.773
  379POPC   C2B 9476   1.587  38.870   8.372
  379POPC   C3B 9477   1.565  38.568   8.111
  379POPC   C4B 9478   1.649  38.558   7.721
  380POPC   NC3 9479  38.721  41.568   9.347
  380POPC   PO4 9480  39.399  41.481   9.483
  380POPC   GL1 9481  39.209  41.714   9.144
  380POPC   GL2 9482  39.417  41.967   8.988
  380POPC   C1A 9483  39.084  41.586   8.743
  380POPC   D2A 9484  38.860  41.523   8.360
  380POPC   C3A 9485  39.121  41.433   8.030
  380POPC   C4A 9486  38.966  41.706   7.734
  380POPC   C1B 9487  39.492  41.875   8.555
  380POPC   C2B 9488  39.290  41.907   8.174
  380POPC   C3B 9489  39.439  41.856   7.767
  380POPC   C4B 9490  39.529  41.413   7.695
  381POPC   NC3 9491  41.177  32.692   9.487
  381POPC   PO4 9492  41.279  33.413   9.466
  381POPC   GL1 9493  41.325  33.206   9.073
  381POPC   GL2 9494  41.377  32.831   9.041
  381POPC   C1A 9495  41.217  33.151   8.626
  381POPC   D2A 9496  41.428  32.917   8.288
  381POPC   C3A 9497  41.609  33.102   7.940
  381POPC   C4A 9498  41.330  32.897   7.672
  381POPC   C1B 9499  41.680  32.930   8.742
  381POPC   C2B 9500  41.954  33.008   8.420
  381POPC   C3B 9501  41.920  32.737   8.117
  381POPC   C4B 9502  41.834  32.721   7.700
  382POPC   NC3 9503  28.519   8.034   9.373
  382POPC   PO4 9504  27.982   8.150   9.707
  382POPC   GL1 9505  28.059   8.292   9.229
  382POPC   GL2 9506  28.360   8.495   9.171
  382POPC   C1A 9507  28.148   8.259   8.748
  382POPC   D2A 9508  28.172   8.006   8.366
  382POPC   C3A 9509  28.070   8.207   7.976
  382POPC   C4A 9510  28.380   8.166   7.684
  382POPC   C1B 9511  28.645   8.405   8.821
  382POPC   C2B 9512  28.645   8.283   8.405
  382POPC   C3B 9513  28.892   8.396   8.076
  382POPC   C4B 9514  28.790   8.468   7.681
  383POPC   NC3 9515   0.779   5.154   9.463
  383POPC   PO4 9516   0.164   5.162   9.799
  383POPC   GL1 9517   0.155   5.134   9.250
  383POPC   GL2 9518   0.446   5.195   9.099
  383POPC   C1A 9519   0.238   4.883   8.792
  383POPC   D2A 9520   0.413   4.847   8.392
  383POPC   C3A 9521   0.397   5.049   7.993
  383POPC   C4A 9522   0.720   4.965   7.679
  383POPC   C1B 9523   0.337   5.390   8.714
  383POPC   C2B 9524   0.541   5.439   8.287
  383POPC   C3B 9525   0.433   5.549   7.822
  383POPC   C4B 9526   0.139   5.647   7.443
  384POPC   NC3 9527  14.203  18.545   9.410
  384POPC   PO4 9528  14.814  18.301   9.606
  384POPC   GL1 9529  14.776  18.272   9.183
  384POPC   GL2 9530  14.436  18.128   9.167
  384POPC   C1A 9531  14.622  18.395   8.763
  384POPC   D2A 9532  14.375  18.614   8.438
  384POPC   C3A 9533  14.343  18.450   8.017
  384POPC   C4A 9534  14.613  18.446   7.659
  384POPC   C1B 9535  14.138  18.272   8.813
  384POPC   C2B 9536  14.047  18.216   8.382
  384POPC   C3B 9537  14.122  17.926   8.081
  384POPC   C4B 9538  13.958  17.867   7.691
  385POPC   NC3 9539  27.544   2.456   9.589
  385POPC   PO4 9540  27.860   2.973   9.578
  385POPC   GL1 9541  27.788   2.745   9.227
  385POPC   GL2 9542  27.473   2.905   9.211
  385POPC   C1A 9543  27.791   2.629   8.814
  385POPC   D2A 9544  27.812   2.847   8.439
  385POPC   C3A 9545  27.838   2.670   8.028
  385POPC   C4A 9546  27.814   2.545   7.628
  385POPC   C1B 9547  27.405   2.937   8.773
  385POPC   C2B 9548  27.347   2.647   8.443
  385POPC   C3B 9549  27.322   2.878   8.111
  385POPC   C4B 9550  27.439   2.883   7.725
  386POPC   NC3 9551   2.093  32.203   9.591
  386POPC   PO4 9552   2.308  31.697   9.211
  386POPC   GL1 9553   1.977  32.080   9.100
  386POPC   GL2 9554   1.922  32.468   9.187
  386POPC   C1A 9555   2.002  32.323   8.713
  386POPC   D2A 9556   1.938  32.122   8.339
  386POPC   C3A 9557   2.156  32.067   7.950
  386POPC   C4A 9558   1.851  31.974   7.656
  386POPC   C1B 9559   1.652  32.683   8.864
  386POPC   C2B 9560   1.555  32.624   8.414
  386POPC   C3B 9561   1.691  32.767   8.010
  386POPC   C4B 9562   1.981  32.552   7.767
  387POPC   NC3 9563   8.441   4.383   9.450
  387POPC   PO4 9564   9.063   4.115   9.586
  387POPC   GL1 9565   8.917   4.293   9.215
  387POPC   GL2 9566   8.720   3.982   9.182
  387POPC   C1A 9567   8.996   4.483   8.809
  387POPC   D2A 9568   9.109   4.307   8.422
  387POPC   C3A 9569   9.029   4.501   8.041
  387POPC   C4A 9570   9.297   4.635   7.709
  387POPC   C1B 9571   8.956   3.951   8.809
  387POPC   C2B 9572   8.938   3.818   8.385
  387POPC   C3B 9573   9.092   3.968   8.002
  387POPC   C4B 9574   8.991   4.198   7.634
  388POPC   NC3 9575  10.125   0.751   9.470
  388POPC   PO4 9576  10.637   0.388   9.670
  388POPC   GL1 9577  10.631   0.409   9.180
  388POPC   GL2 9578  10.390   0.612   9.058
  388POPC   C1A 9579  10.804   0.556   8.755
  388POPC   D2A 9580  10.984   0.476   8.334
  388POPC   C3A 9581  10.663   0.459   7.997
  388POPC   C4A 9582  10.615   0.304   7.527
  388POPC   C1B 9583  10.062   0.539   8.740
  388POPC   C2B 9584  10.031   0.327   8.357
  388POPC   C3B 9585  10.148   0.354   7.936
  388POPC   C4B 9586  10.321   0.688   7.689
  389POPC   NC3 9587  40.838  24.332   9.482
  389POPC   PO4 9588  41.126  24.947   9.473
  389POPC   GL1 9589  40.835  24.849   9.110
  389POPC   GL2 9590  40.663  24.559   9.041
  389POPC   C1A 9591  40.651  24.964   8.704
  389POPC   D2A 9592  40.481  24.810   8.309
  389POPC   C3A 9593  40.748  24.844   7.938
  389POPC   C4A 9594  40.938  24.685   7.553
  389POPC   C1B 9595  40.999  24.534   8.739
  389POPC   C2B 9596  40.964  24.410   8.315
  389POPC   C3B 9597  40.634  24.336   8.045
  389POPC   C4B 9598  40.675  24.216   7.601
  390POPC   NC3 9599  13.950  44.884   9.905
  390POPC   PO4 9600  13.449  44.776   9.420
  390POPC   GL1 9601  13.626  44.630   9.024
  390POPC   GL2 9602  13.911  44.393   9.157
  390POPC   C1A 9603  13.709  44.825   8.633
  390POPC   D2A 9604  13.848   0.065   8.277
  390POPC   C3A 9605  13.745  44.828   7.916
  390POPC   C4A 9606  13.437  44.806   7.586
  390POPC   C1B 9607  13.797  44.229   8.745
  390POPC   C2B 9608  13.561  44.354   8.383
  390POPC   C3B 9609  13.456  44.405   7.955
  390POPC   C4B 9610  13.738  44.406   7.603
  391POPC   NC3 9611  10.093  13.269   9.387
  391POPC   PO4 9612   9.775  13.794   9.728
  391POPC   GL1 9613   9.764  13.640   9.253
  391POPC   GL2 9614   9.608  13.865   9.016
  391POPC   C1A 9615   9.974  13.578   8.818
  391POPC   D2A 9616  10.056  13.657   8.375
  391POPC   C3A 9617   9.812  13.467   8.016
  391POPC   C4A 9618   9.843  13.359   7.569
  391POPC   C1B 9619   9.456  13.637   8.685
  391POPC   C2B 9620   9.314  13.756   8.279
  391POPC   C3B 9621   9.383  13.897   7.852
  391POPC   C4B 9622   9.642  13.785   7.467
  392POPC   NC3 9623  35.017  12.642   9.374
  392POPC   PO4 9624  35.516  13.153   9.445
  392POPC   GL1 9625  35.361  12.941   9.125
  392POPC   GL2 9626  35.069  13.123   9.154
  392POPC   C1A 9627  35.335  12.836   8.724
  392POPC   D2A 9628  35.624  12.734   8.401
  392POPC   C3A 9629  35.409  12.765   8.047
  392POPC   C4A 9630  35.285  12.896   7.655
  392POPC   C1B 9631  34.920  13.117   8.751
  392POPC   C2B 9632  34.988  12.919   8.346
  392POPC   C3B 9633  35.073  13.176   8.001
  392POPC   C4B 9634  34.900  13.235   7.599
  393POPC   NC3 9635  38.927   9.931   9.639
  393POPC   PO4 9636  38.377   9.485   9.659
  393POPC   GL1 9637  38.507   9.816   9.285
  393POPC   GL2 9638  38.272   9.980   9.140
  393POPC   C1A 9639  38.587  10.045   8.776
  393POPC   D2A 9640  38.352  10.200   8.426
  393POPC   C3A 9641  38.547  10.026   8.032
  393POPC   C4A 9642  38.672   9.639   7.800
  393POPC   C1B 9643  38.409   9.595   8.835
  393POPC   C2B 9644  38.326   9.684   8.394
  393POPC   C3B 9645  38.173   9.686   7.973
  393POPC   C4B 9646  38.238   9.318   7.760
  394POPC   NC3 9647  42.397  34.378   9.499
  394POPC   PO4 9648  42.054  35.005   9.503
  394POPC   GL1 9649  42.257  34.742   9.139
  394POPC   GL2 9650  42.496  34.451   9.020
  394POPC   C1A 9651  42.313  34.774   8.677
  394POPC   D2A 9652  42.044  34.859   8.315
  394POPC   C3A 9653  42.063  34.601   7.940
  394POPC   C4A 9654  42.286  34.868   7.682
  394POPC   C1B 9655  42.556  34.265   8.608
  394POPC   C2B 9656  42.405  34.439   8.273
  394POPC   C3B 9657  42.617  34.536   7.929
  394POPC   C4B 9658  42.889  34.329   7.640
  395POPC   NC3 9659  34.625  26.779   9.591
  395POPC   PO4 9660  34.046  27.058   9.523
  395POPC   GL1 9661  34.419  26.976   9.167
  395POPC   GL2 9662  34.798  26.809   9.126
  395POPC   C1A 9663  34.586  27.046   8.733
  395POPC   D2A 9664  34.428  27.151   8.324
  395POPC   C3A 9665  34.575  26.934   7.984
  395POPC   C4A 9666  34.493  26.769   7.578
  395POPC   C1B 9667  34.944  26.542   8.803
  395POPC   C2B 9668  34.750  26.679   8.417
  395POPC   C3B 9669  34.613  26.455   8.088
  395POPC   C4B 9670  34.874  26.486   7.763
  396POPC   NC3 9671  14.319  20.209   9.453
  396POPC   PO4 9672  14.151  19.591   9.589
  396POPC   GL1 9673  14.359  19.749   9.219
  396POPC   GL2 9674  14.173  19.968   9.000
  396POPC   C1A 9675  14.607  19.662   8.851
  396POPC   D2A 9676  14.505  19.456   8.438
  396POPC   C3A 9677  14.567  19.740   8.092
  396POPC   C4A 9678  14.494  19.694   7.672
  396POPC   C1B 9679  14.009  20.276   8.686
  396POPC   C2B 9680  14.112  20.348   8.252
  396POPC   C3B 9681  14.142  20.077   7.862
  396POPC   C4B 9682  14.141  20.030   7.405
  397POPC   NC3 9683  39.260  38.932   9.621
  397POPC   PO4 9684  39.287  39.598   9.638
  397POPC   GL1 9685  39.287  39.202   9.206
  397POPC   GL2 9686  39.442  38.853   9.148
  397POPC   C1A 9687  39.085  39.032   8.785
  397POPC   D2A 9688  38.980  39.072   8.295
  397POPC   C3A 9689  39.172  39.392   7.987
  397POPC   C4A 9690  39.096  39.521   7.556
  397POPC   C1B 9691  39.584  38.854   8.735
  397POPC   C2B 9692  39.657  39.030   8.317
  397POPC   C3B 9693  39.431  38.949   7.941
  397POPC   C4B 9694  39.390  39.117   7.509
  398POPC   NC3 9695  33.631  11.673   9.377
  398POPC   PO4 9696  34.089  11.261   9.771
  398POPC   GL1 9697  33.830  11.201   9.291
  398POPC   GL2 9698  33.852  11.414   9.023
  398POPC   C1A 9699  33.447  11.154   8.935
  398POPC   D2A 9700  33.334  11.051   8.470
  398POPC   C3A 9701  33.548  11.225   8.058
  398POPC   C4A 9702  33.762  11.037   7.666
  398POPC   C1B 9703  33.682  11.620   8.667
  398POPC   C2B 9704  33.700  11.839   8.269
  398POPC   C3B 9705  33.975  11.836   7.931
  398POPC   C4B 9706  33.871  11.528   7.658
  399POPC   NC3 9707   4.801  21.180   9.337
  399POPC   PO4 9708   5.135  21.619   9.734
  399POPC   GL1 9709   5.234  21.423   9.208
  399POPC   GL2 9710   5.257  21.104   9.135
  399POPC   C1A 9711   5.100  21.477   8.747
  399POPC   D2A 9712   4.954  21.665   8.331
  399POPC   C3A 9713   4.928  21.406   7.947
  399POPC   C4A 9714   5.010  21.573   7.541
  399POPC   C1B 9715   5.478  21.130   8.795
  399POPC   C2B 9716   5.464  21.316   8.401
  399POPC   C3B 9717   5.471  21.136   8.003
  399POPC   C4B 9718   5.261  21.129   7.638
  400POPC   NC3 9719   3.519  20.221   9.536
  400POPC   PO4 9720   3.917  19.622   9.426
  400POPC   GL1 9721   3.481  19.721   9.264
  400POPC   GL2 9722   3.449  20.006   9.100
  400POPC   C1A 9723   3.386  19.634   8.794
  400POPC   D2A 9724   3.578  19.811   8.423
  400POPC   C3A 9725   3.332  19.805   8.059
  400POPC   C4A 9726   3.440  19.605   7.689
  400POPC   C1B 9727   3.793  20.101   8.811
  400POPC   C2B 9728   3.775  20.273   8.361
  400POPC   C3B 9729   3.750  20.079   7.923
  400POPC   C4B 9730   3.609  20.045   7.459
  401POPC   NC3 9731  44.691   2.728   9.611
  401POPC   PO4 9732   0.119   2.295   9.340
  401POPC   GL1 9733  44.813   2.569   9.139
  401POPC   GL2 9734  44.862   2.931   9.172
  401POPC   C1A 9735  44.602   2.662   8.749
  401POPC   D2A 9736  44.857   2.760   8.371
  401POPC   C3A 9737  44.733   2.823   7.942
  401POPC   C4A 9738  44.365   2.679   7.740
  401POPC   C1B 9739  44.805   3.115   8.744
  401POPC   C2B 9740  44.542   3.197   8.333
  401POPC   C3B 9741  44.351   3.167   7.892
  401POPC   C4B 9742  44.559   3.045   7.464
  402POPC   NC3 9743  22.454  11.796   9.622
  402POPC   PO4 9744  22.068  11.272   9.480
  402POPC   GL1 9745  22.157  11.397   9.082
  402POPC   GL2 9746  22.343  11.151   9.058
  402POPC   C1A 9747  22.147  11.319   8.623
  402POPC   D2A 9748  22.372  11.039   8.366
  402POPC   C3A 9749  22.417  11.325   8.094
  402POPC   C4A 9750  22.404  11.341   7.680
  402POPC   C1B 9751  21.964  10.901   8.835
  402POPC   C2B 9752  21.854  10.907   8.368
  402POPC   C3B 9753  21.986  11.087   7.954
  402POPC   C4B 9754  21.907  11.285   7.548
  403POPC   NC3 9755   1.819  15.312   9.578
  403POPC   PO4 9756   1.177  15.133   9.616
  403POPC   GL1 9757   1.462  15.120   9.268
  403POPC   GL2 9758   1.532  14.819   9.080
  403POPC   C1A 9759   1.513  15.355   8.899
  403POPC   D2A 9760   1.404  15.538   8.480
  403POPC   C3A 9761   1.342  15.323   8.085
  403POPC   C4A 9762   1.684  15.341   7.841
  403POPC   C1B 9763   1.687  14.942   8.652
  403POPC   C2B 9764   1.640  14.931   8.209
  403POPC   C3B 9765   1.456  14.878   7.801
  403POPC   C4B 9766   1.337  14.705   7.380
  404POPC   NC3 9767  23.994  20.838   9.469
  404POPC   PO4 9768  23.702  20.227   9.427
  404POPC   GL1 9769  23.792  20.496   9.105
  404POPC   GL2 9770  23.638  20.833   9.101
  404POPC   C1A 9771  23.796  20.410   8.698
  404POPC   D2A 9772  23.577  20.420   8.337
  404POPC   C3A 9773  23.830  20.334   8.006
  404POPC   C4A 9774  23.684  20.441   7.609
  404POPC   C1B 9775  23.913  20.904   8.755
  404POPC   C2B 9776  24.001  20.732   8.325
  404POPC   C3B 9777  23.884  20.868   7.890
  404POPC   C4B 9778  23.882  20.873   7.418
  405POPC   NC3 9779   0.539   2.353   9.526
  405POPC   PO4 9780   0.582   1.643   9.428
  405POPC   GL1 9781   0.496   1.953   9.128
  405POPC   GL2 9782   0.496   2.283   9.019
  405POPC   C1A 9783   0.233   1.958   8.755
  405POPC   D2A 9784   0.495   2.076   8.439
  405POPC   C3A 9785   0.570   1.853   8.084
  405POPC   C4A 9786   0.447   1.908   7.686
  405POPC   C1B 9787   0.700   2.488   8.729
  405POPC   C2B 9788   0.841   2.434   8.322
  405POPC   C3B 9789   0.644   2.349   7.898
  405POPC   C4B 9790   0.711   2.265   7.434
  406POPC   NC3 9791   3.950   9.519   9.457
  406POPC   PO4 9792   4.444   9.998   9.583
  406POPC   GL1 9793   4.269   9.815   9.165
  406POPC   GL2 9794   4.345   9.470   9.110
  406POPC   C1A 9795   4.198   9.738   8.699
  406POPC   D2A 9796   4.349  10.006   8.362
  406POPC   C3A 9797   4.428   9.878   7.950
  406POPC   C4A 9798   4.089  10.050   7.780
  406POPC   C1B 9799   4.626   9.413   8.794
  406POPC   C2B 9800   4.688   9.645   8.448
  406POPC   C3B 9801   4.808   9.581   8.073
  406POPC   C4B 9802   4.644   9.472   7.683
  407POPC   NC3 9803  41.028  16.543   9.758
  407POPC   PO4 9804  41.414  16.864   9.513
  407POPC   GL1 9805  41.368  16.882   9.072
  407POPC   GL2 9806  41.728  16.865   9.025
  407POPC   C1A 9807  41.082  16.877   8.683
  407POPC   D2A 9808  40.920  16.802   8.257
  407POPC   C3A 9809  41.148  16.803   7.876
  407POPC   C4A 9810  41.576  16.762   7.756
  407POPC   C1B 9811  41.541  16.654   8.660
  407POPC   C2B 9812  41.497  16.886   8.276
  407POPC   C3B 9813  41.900  17.014   8.038
  407POPC   C4B 9814  42.057  16.876   7.600
  408POPC   NC3 9815  37.533  28.593   9.516
  408POPC   PO4 9816  36.874  28.386   9.664
  408POPC   GL1 9817  36.817  28.244   9.221
  408POPC   GL2 9818  36.883  28.553   9.133
  408POPC   C1A 9819  36.768  28.221   8.771
  408POPC   D2A 9820  37.033  28.362   8.416
  408POPC   C3A 9821  36.934  28.232   8.018
  408POPC   C4A 9822  36.573  28.023   7.904
  408POPC   C1B 9823  36.614  28.713   8.852
  408POPC   C2B 9824  36.672  28.787   8.428
  408POPC   C3B 9825  36.674  28.704   7.999
  408POPC   C4B 9826  36.409  28.721   7.626
  409POPC   NC3 9827   9.909  15.198   9.424
  409POPC   PO4 9828   9.245  15.021   9.540
  409POPC   GL1 9829   9.597  14.935   9.140
  409POPC   GL2 9830   9.786  15.277   8.944
  409POPC   C1A 9831   9.560  14.927   8.694
  409POPC   D2A 9832   9.489  15.130   8.304
  409POPC   C3A 9833   9.852  15.113   8.087
  409POPC   C4A 9834  10.043  14.872   7.770
  409POPC   C1B 9835   9.443  15.466   8.689
  409POPC   C2B 9836   9.371  15.728   8.342
  409POPC   C3B 9837   9.597  15.575   8.014
  409POPC   C4B 9838   9.939  15.477   7.730
  410POPC   NC3 9839  41.556  27.052   9.496
  410POPC   PO4 9840  42.017  26.703   9.139
  410POPC   GL1 9841  41.570  26.702   9.082
  410POPC   GL2 9842  41.251  26.910   9.034
  410POPC   C1A 9843  41.548  26.850   8.652
  410POPC   D2A 9844  41.528  26.929   8.268
  410POPC   C3A 9845  41.842  26.724   8.012
  410POPC   C4A 9846  41.807  26.799   7.589
  410POPC   C1B 9847  41.194  26.504   8.779
  410POPC   C2B 9848  41.342  26.459   8.326
  410POPC   C3B 9849  41.340  26.647   7.889
  410POPC   C4B 9850  41.373  26.478   7.461
  411POPC   NC3 9851  28.345  26.888   9.593
  411POPC   PO4 9852  28.197  26.347   9.484
  411POPC   GL1 9853  28.402  26.595   9.142
  411POPC   GL2 9854  28.737  26.701   9.201
  411POPC   C1A 9855  28.403  26.814   8.696
  411POPC   D2A 9856  28.117  26.746   8.310
  411POPC   C3A 9857  28.170  26.965   7.914
  411POPC   C4A 9858  28.567  26.984   7.737
  411POPC   C1B 9859  28.735  26.437   8.795
  411POPC   C2B 9860  28.480  26.374   8.398
  411POPC   C3B 9861  28.456  26.526   7.962
  411POPC   C4B 9862  28.600  26.524   7.513
  412POPC   NC3 9863  43.122   3.385   9.634
  412POPC   PO4 9864  42.713   2.911   9.573
  412POPC   GL1 9865  43.026   3.124   9.195
  412POPC   GL2 9866  43.189   3.501   9.147
  412POPC   C1A 9867  43.175   3.203   8.751
  412POPC   D2A 9868  43.291   3.512   8.429
  412POPC   C3A 9869  43.063   3.422   8.101
  412POPC   C4A 9870  43.078   3.171   7.753
  412POPC   C1B 9871  42.975   3.715   8.776
  412POPC   C2B 9872  42.924   3.893   8.339
  412POPC   C3B 9873  43.165   3.886   7.934
  412POPC   C4B 9874  43.377   3.598   7.665
  413POPC   NC3 9875  29.205  25.541   9.380
  413POPC   PO4 9876  29.414  26.223   9.458
  413POPC   GL1 9877  29.328  25.965   9.118
  413POPC   GL2 9878  29.056  26.044   8.937
  413POPC   C1A 9879  29.490  25.911   8.705
  413POPC   D2A 9880  29.539  26.104   8.321
  413POPC   C3A 9881  29.460  25.973   7.880
  413POPC   C4A 9882  29.232  26.261   7.614
  413POPC   C1B 9883  29.056  25.630   8.702
  413POPC   C2B 9884  29.188  25.723   8.286
  413POPC   C3B 9885  29.011  26.112   8.054
  413POPC   C4B 9886  28.735  26.068   7.694
  414POPC   NC3 9887  36.758  12.496   9.274
  414POPC   PO4 9888  37.097  13.040   9.567
  414POPC   GL1 9889  36.849  13.010   9.181
  414POPC   GL2 9890  36.480  13.070   9.216
  414POPC   C1A 9891  36.894  12.931   8.742
  414POPC   D2A 9892  36.897  12.648   8.400
  414POPC   C3A 9893  36.982  12.939   8.061
  414POPC   C4A 9894  37.076  12.671   7.741
  414POPC   C1B 9895  36.390  13.084   8.782
  414POPC   C2B 9896  36.539  13.047   8.348
  414POPC   C3B 9897  36.481  13.159   7.909
  414POPC   C4B 9898  36.755  13.035   7.575
  415POPC   NC3 9899  41.892   3.986   9.793
  415POPC   PO4 9900  41.825   3.314   9.480
  415POPC   GL1 9901  41.594   3.461   9.119
  415POPC   GL2 9902  41.300   3.698   9.167
  415POPC   C1A 9903  41.746   3.444   8.685
  415POPC   D2A 9904  41.807   3.103   8.401
  415POPC   C3A 9905  41.671   3.299   8.028
  415POPC   C4A 9906  41.888   3.528   7.720
  415POPC   C1B 9907  41.245   3.505   8.750
  415POPC   C2B 9908  41.307   3.217   8.445
  415POPC   C3B 9909  41.161   3.234   8.042
  415POPC   C4B 9910  41.293   3.440   7.706
  416POPC   NC3 9911   8.029  28.033   9.408
  416POPC   PO4 9912   8.420  28.514   9.428
  416POPC   GL1 9913   8.403  28.204   9.091
  416POPC   GL2 9914   8.390  28.499   8.898
  416POPC   C1A 9915   8.111  28.107   8.723
  416POPC   D2A 9916   7.984  28.419   8.377
  416POPC   C3A 9917   8.039  28.313   7.931
  416POPC   C4A 9918   8.003  28.222   7.453
  416POPC   C1B 9919   8.589  28.213   8.604
  416POPC   C2B 9920   8.561  28.249   8.172
  416POPC   C3B 9921   8.486  28.611   7.912
  416POPC   C4B 9922   8.763  28.824   7.614
  417POPC   NC3 9923   5.668  19.390   9.406
  417POPC   PO4 9924   6.283  19.350   9.461
  417POPC   GL1 9925   6.021  19.109   9.130
  417POPC   GL2 9926   5.653  18.981   9.103
  417POPC   C1A 9927   5.878  19.315   8.740
  417POPC   D2A 9928   6.047  19.354   8.309
  417POPC   C3A 9929   5.920  19.053   7.993
  417POPC   C4A 9930   5.695  19.071   7.586
  417POPC   C1B 9931   5.759  18.832   8.712
  417POPC   C2B 9932   6.137  18.858   8.480
  417POPC   C3B 9933   6.178  18.648   8.119
  417POPC   C4B 9934   5.749  18.562   7.912
  418POPC   NC3 9935  37.967  26.510   9.576
  418POPC   PO4 9936  37.514  25.906   9.616
  418POPC   GL1 9937  37.576  25.957   9.217
  418POPC   GL2 9938  37.754  26.273   9.168
  418POPC   C1A 9939  37.604  25.918   8.803
  418POPC   D2A 9940  37.586  26.202   8.463
  418POPC   C3A 9941  37.674  25.954   8.137
  418POPC   C4A 9942  37.575  25.979   7.731
  418POPC   C1B 9943  37.991  26.254   8.762
  418POPC   C2B 9944  38.075  26.254   8.300
  418POPC   C3B 9945  37.977  26.284   7.855
  418POPC   C4B 9946  37.926  26.132   7.426
  419POPC   NC3 9947  12.429  20.269   9.332
  419POPC   PO4 9948  11.816  20.696   9.632
  419POPC   GL1 9949  11.907  20.667   9.135
  419POPC   GL2 9950  12.248  20.616   8.951
  419POPC   C1A 9951  11.822  20.503   8.693
  419POPC   D2A 9952  11.892  20.556   8.233
  419POPC   C3A 9953  12.094  20.779   7.893
  419POPC   C4A 9954  11.929  20.654   7.454
  419POPC   C1B 9955  12.318  20.658   8.486
  419POPC   C2B 9956  12.334  20.335   8.137
  419POPC   C3B 9957  12.143  20.303   7.752
  419POPC   C4B 9958  12.321  20.328   7.346
  420POPC   NC3 9959   7.886  32.436   9.623
  420POPC   PO4 9960   8.286  31.975   9.464
  420POPC   GL1 9961   8.279  32.257   9.134
  420POPC   GL2 9962   8.220  32.582   9.237
  420POPC   C1A 9963   8.134  32.204   8.734
  420POPC   D2A 9964   8.206  31.843   8.496
  420POPC   C3A 9965   8.151  32.005   8.118
  420POPC   C4A 9966   8.148  31.966   7.712
  420POPC   C1B 9967   7.932  32.674   8.882
  420POPC   C2B 9968   7.820  32.622   8.444
  420POPC   C3B 9969   7.902  32.459   8.026
  420POPC   C4B 9970   7.925  32.601   7.620
  421POPC   NC3 9971   5.615  39.389   9.432
  421POPC   PO4 9972   6.279  39.163   9.582
  421POPC   GL1 9973   6.031  39.067   9.212
  421POPC   GL2 9974   5.720  38.869   9.307
  421POPC   C1A 9975   6.051  39.254   8.783
  421POPC   D2A 9976   5.848  39.475   8.407
  421POPC   C3A 9977   6.022  39.447   7.982
  421POPC   C4A 9978   6.237  39.223   7.655
  421POPC   C1B 9979   5.675  38.893   8.846
  421POPC   C2B 9980   5.831  38.955   8.410
  421POPC   C3B 9981   5.631  39.138   8.049
  421POPC   C4B 9982   5.737  39.106   7.614
  422POPC   NC3 9983  43.353  34.770   9.471
  422POPC   PO4 9984  42.732  34.704   9.421
  422POPC   GL1 9985  43.006  34.471   9.134
  422POPC   GL2 9986  43.195  34.718   9.006
  422POPC   C1A 9987  43.067  34.374   8.654
  422POPC   D2A 9988  42.953  34.685   8.319
  422POPC   C3A 9989  43.083  34.758   7.872
  422POPC   C4A 9990  42.777  34.795   7.491
  422POPC   C1B 9991  43.505  34.382   8.930
  422POPC   C2B 9992  43.578  34.398   8.497
  422POPC   C3B 9993  43.316  34.307   8.137
  422POPC   C4B 9994  43.387  34.353   7.706
  423POPC   NC3 9995  21.411  38.511   9.728
  423POPC   PO4 9996  20.762  38.654   9.588
  423POPC   GL1 9997  21.133  38.509   9.258
  423POPC   GL2 9998  21.483  38.375   9.240
  423POPC   C1A 9999  21.278  38.503   8.795
  423POPC   D2A10000  21.546  38.536   8.399
  423POPC   C3A10001  21.350  38.494   7.994
  423POPC   C4A10002  21.393  38.292   7.591
  423POPC   C1B10003  21.626  38.119   8.887
  423POPC   C2B10004  21.782  38.099   8.458
  423POPC   C3B10005  21.672  38.121   8.026
  423POPC   C4B10006  21.874  38.223   7.624
  424POPC   NC310007  15.797  25.986   9.490
  424POPC   PO410008  16.350  25.629   9.485
  424POPC   GL110009  16.124  25.812   9.103
  424POPC   GL210010  15.744  25.801   9.019
  424POPC   C1A10011  16.104  26.154   8.784
  424POPC   D2A10012  15.999  26.206   8.339
  424POPC   C3A10013  16.054  25.828   8.107
  424POPC   C4A10014  16.259  25.842   7.729
  424POPC   C1B10015  15.608  26.235   8.885
  424POPC   C2B10016  15.598  26.478   8.507
  424POPC   C3B10017  15.667  26.529   8.062
  424POPC   C4B10018  15.892  26.228   7.812
  425POPC   NC310019  34.249  13.280   9.422
  425POPC   PO410020  34.815  13.819   9.506
  425POPC   GL110021  34.913  13.634   9.125
  425POPC   GL210022  34.644  13.406   9.116
  425POPC   C1A10023  34.857  13.634   8.695
  425POPC   D2A10024  34.998  13.578   8.296
  425POPC   C3A10025  34.699  13.561   7.949
  425POPC   C4A10026  34.701  13.738   7.529
  425POPC   C1B10027  34.354  13.516   8.776
  425POPC   C2B10028  34.231  13.591   8.364
  425POPC   C3B10029  34.176  13.336   8.005
  425POPC   C4B10030  34.268  13.507   7.604
  426POPC   NC310031  39.563   7.657   9.656
  426POPC   PO410032  39.072   7.231   9.590
  426POPC   GL110033  39.152   7.409   9.182
  426POPC   GL210034  39.482   7.533   9.143
  426POPC   C1A10035  39.009   7.439   8.740
  426POPC   D2A10036  38.825   7.322   8.335
  426POPC   C3A10037  39.101   7.366   7.989
  426POPC   C4A10038  39.140   7.284   7.560
  426POPC   C1B10039  39.649   7.476   8.686
  426POPC   C2B10040  39.656   7.377   8.206
  426POPC   C3B10041  39.585   7.247   7.775
  426POPC   C4B10042  39.768   7.262   7.322
  427POPC   NC310043  36.502  41.669   9.389
  427POPC   PO410044  37.006  41.243   9.593
  427POPC   GL110045  36.898  41.210   9.167
  427POPC   GL210046  36.538  41.123   9.209
  427POPC   C1A10047  36.978  41.440   8.763
  427POPC   D2A10048  37.276  41.649   8.489
  427POPC   C3A10049  37.190  41.559   8.093
  427POPC   C4A10050  37.026  41.788   7.729
  427POPC   C1B10051  36.655  41.041   8.764
  427POPC   C2B10052  36.671  41.260   8.378
  427POPC   C3B10053  36.723  41.412   7.975
  427POPC   C4B10054  36.993  41.249   7.698
  428POPC   NC310055  18.641   7.581   9.534
  428POPC   PO410056  18.062   7.235   9.591
  428POPC   GL110057  18.294   7.359   9.200
  428POPC   GL210058  18.346   7.742   9.153
  428POPC   C1A10059  18.126   7.357   8.772
  428POPC   D2A10060  17.981   7.273   8.342
  428POPC   C3A10061  18.308   7.205   8.032
  428POPC   C4A10062  18.285   7.218   7.588
  428POPC   C1B10063  18.347   7.869   8.731
  428POPC   C2B10064  18.382   7.617   8.366
  428POPC   C3B10065  18.358   7.736   7.957
  428POPC   C4B10066  18.593   7.778   7.618
  429POPC   NC310067  29.804  42.259  10.329
  429POPC   PO410068  29.897  42.478   9.728
  429POPC   GL110069  29.877  42.484   9.214
  429POPC   GL210070  30.169  42.587   9.017
  429POPC   C1A10071  29.970  42.167   8.830
  429POPC   D2A10072  30.109  42.113   8.372
  429POPC   C3A10073  30.013  41.855   7.985
  429POPC   C4A10074  30.121  41.837   7.550
  429POPC   C1B10075  30.115  42.596   8.590
  429POPC   C2B10076  30.077  42.583   8.182
  429POPC   C3B10077  29.834  42.607   7.856
  429POPC   C4B10078  30.012  42.718   7.474
  430POPC   NC310079   0.753  43.815   9.428
  430POPC   PO410080   0.322  44.321   9.482
  430POPC   GL110081   0.539  44.185   9.124
  430POPC   GL210082   0.334  43.861   9.089
  430POPC   C1A10083   0.436  44.151   8.686
  430POPC   D2A10084   0.521  43.890   8.343
  430POPC   C3A10085   0.446  44.088   7.957
  430POPC   C4A10086   0.717  44.078   7.579
  430POPC   C1B10087   0.647  43.665   8.801
  430POPC   C2B10088   0.679  43.380   8.462
  430POPC   C3B10089   0.460  43.446   8.101
  430POPC   C4B10090   0.533  43.636   7.755
  431POPC   NC310091  18.405  44.848   9.491
  431POPC   PO410092  18.846  44.375   9.152
  431POPC   GL110093  18.443  44.562   9.050
  431POPC   GL210094  18.099  44.746   9.074
  431POPC   C1A10095  18.441  44.798   8.671
  431POPC   D2A10096  18.181  44.811   8.299
  431POPC   C3A10097  18.340  44.777   7.881
  431POPC   C4A10098  18.065  44.970   7.593
  431POPC   C1B10099  18.056  44.482   8.674
  431POPC   C2B10100  18.212  44.280   8.284
  431POPC   C3B10101  18.132  44.287   7.836
  431POPC   C4B10102  17.837  44.240   7.436
  432POPC   NC310103  35.321  34.227   9.252
  432POPC   PO410104  35.779  34.664   9.479
  432POPC   GL110105  35.639  34.836   9.123
  432POPC   GL210106  35.315  34.703   9.080
  432POPC   C1A10107  35.633  34.923   8.686
  432POPC   D2A10108  35.496  34.823   8.259
  432POPC   C3A10109  35.374  34.400   8.123
  432POPC   C4A10110  35.411  34.241   7.712
  432POPC   C1B10111  34.933  34.651   8.820
  432POPC   C2B10112  34.856  34.844   8.438
  432POPC   C3B10113  34.963  34.819   8.029
  432POPC   C4B10114  35.328  34.778   7.767
  433POPC   NC310115  41.553   1.537   9.287
  433POPC   PO410116  41.268   1.001   9.535
  433POPC   GL110117  41.455   1.030   9.134
  433POPC   GL210118  41.174   0.828   9.055
  433POPC   C1A10119  41.746   1.103   8.767
  433POPC   D2A10120  41.931   0.969   8.361
  433POPC   C3A10121  41.767   1.181   8.006
  433POPC   C4A10122  41.444   1.490   7.973
  433POPC   C1B10123  41.268   0.983   8.629
  433POPC   C2B10124  41.301   1.026   8.187
  433POPC   C3B10125  41.331   1.040   7.750
  433POPC   C4B10126  41.205   1.144   7.356
  434POPC   NC310127   7.350   2.165   9.723
  434POPC   PO410128   7.212   2.812   9.500
  434POPC   GL110129   7.145   2.756   9.086
  434POPC   GL210130   7.479   2.661   9.016
  434POPC   C1A10131   7.105   2.755   8.641
  434POPC   D2A10132   7.311   2.504   8.330
  434POPC   C3A10133   7.340   2.752   8.007
  434POPC   C4A10134   7.135   2.871   7.684
  434POPC   C1B10135   7.686   2.318   8.791
  434POPC   C2B10136   7.867   2.148   8.405
  434POPC   C3B10137   7.684   2.236   8.030
  434POPC   C4B10138   7.713   2.554   7.724
  435POPC   NC310139  41.402  41.319   9.465
  435POPC   PO410140  41.528  41.986   9.462
  435POPC   GL110141  41.406  41.764   9.062
  435POPC   GL210142  41.350  41.426   8.981
  435POPC   C1A10143  41.624  41.789   8.644
  435POPC   D2A10144  41.896  41.536   8.365
  435POPC   C3A10145  41.750  41.444   7.957
  435POPC   C4A10146  41.792  41.771   7.663
  435POPC   C1B10147  41.579  41.262   8.649
  435POPC   C2B10148  41.520  41.083   8.261
  435POPC   C3B10149  41.233  41.187   7.965
  435POPC   C4B10150  41.253  41.125   7.549
  436POPC   NC310151   6.259  16.268   9.527
  436POPC   PO410152   5.563  16.200   9.470
  436POPC   GL110153   5.689  15.881   9.175
  436POPC   GL210154   6.043  15.786   9.195
  436POPC   C1A10155   5.605  15.855   8.767
  436POPC   D2A10156   5.581  15.745   8.354
  436POPC   C3A10157   5.531  16.012   8.013
  436POPC   C4A10158   5.457  15.827   7.639
  436POPC   C1B10159   6.118  15.921   8.754
  436POPC   C2B10160   5.907  16.149   8.383
  436POPC   C3B10161   6.041  16.135   7.917
  436POPC   C4B10162   5.924  16.015   7.457
  437POPC   NC310163  40.604  25.019   9.522
  437POPC   PO410164  39.930  25.301   9.372
  437POPC   GL110165  40.016  25.050   9.023
  437POPC   GL210166  40.338  25.015   9.102
  437POPC   C1A10167  40.042  25.079   8.597
  437POPC   D2A10168  39.899  25.452   8.433
  437POPC   C3A10169  39.691  25.300   8.107
  437POPC   C4A10170  39.837  25.233   7.717
  437POPC   C1B10171  40.361  25.394   8.828
  437POPC   C2B10172  40.423  25.371   8.380
  437POPC   C3B10173  40.187  25.470   8.000
  437POPC   C4B10174  40.298  25.410   7.562
  438POPC   NC310175  31.177  31.773   9.510
  438POPC   PO410176  31.842  31.686   9.304
  438POPC   GL110177  31.458  31.531   9.139
  438POPC   GL210178  31.434  31.887   9.064
  438POPC   C1A10179  31.233  31.289   8.799
  438POPC   D2A10180  31.351  31.164   8.330
  438POPC   C3A10181  31.416  31.245   7.840
  438POPC   C4A10182  31.497  31.552   7.441
  438POPC   C1B10183  31.097  31.788   8.840
  438POPC   C2B10184  31.060  31.621   8.451
  438POPC   C3B10185  31.263  31.711   8.101
  438POPC   C4B10186  31.095  31.635   7.736
  439POPC   NC310187   2.943  18.696   9.496
  439POPC   PO410188   2.491  19.133   9.413
  439POPC   GL110189   2.601  18.830   9.114
  439POPC   GL210190   2.942  18.925   9.042
  439POPC   C1A10191   2.605  18.932   8.662
  439POPC   D2A10192   2.268  19.032   8.368
  439POPC   C3A10193   2.421  19.121   7.974
  439POPC   C4A10194   2.722  19.015   7.688
  439POPC   C1B10195   2.957  19.322   8.784
  439POPC   C2B10196   3.153  19.447   8.381
  439POPC   C3B10197   3.127  19.254   7.969
  439POPC   C4B10198   3.179  19.170   7.517
  440POPC   NC310199   8.891  42.699   9.214
  440POPC   PO410200   9.159  43.309   9.432
  440POPC   GL110201   9.108  43.142   9.068
  440POPC   GL210202   8.732  43.193   9.075
  440POPC   C1A10203   9.328  42.913   8.726
  440POPC   D2A10204   9.377  42.791   8.299
  440POPC   C3A10205   9.045  43.004   8.145
  440POPC   C4A10206   9.122  43.382   7.968
  440POPC   C1B10207   8.872  43.223   8.623
  440POPC   C2B10208   8.662  43.341   8.230
  440POPC   C3B10209   8.484  43.147   7.865
  440POPC   C4B10210   8.511  42.666   7.779
  441POPC   NC310211  19.750  27.089   9.559
  441POPC   PO410212  20.046  26.475   9.441
  441POPC   GL110213  20.035  26.863   9.217
  441POPC   GL210214  19.695  26.808   9.101
  441POPC   C1A10215  20.036  27.009   8.787
  441POPC   D2A10216  19.788  26.780   8.500
  441POPC   C3A10217  19.824  26.777   8.045
  441POPC   C4A10218  20.067  26.999   7.715
  441POPC   C1B10219  19.422  26.557   8.793
  441POPC   C2B10220  19.362  26.589   8.311
  441POPC   C3B10221  19.425  26.502   7.850
  441POPC   C4B10222  19.390  26.526   7.392
  442POPC   NC310223   9.427  32.929   9.418
  442POPC   PO410224   8.822  33.259   9.350
  442POPC   GL110225   9.002  33.172   9.048
  442POPC   GL210226   9.015  32.796   9.037
  442POPC   C1A10227   8.876  33.203   8.644
  442POPC   D2A10228   8.856  32.861   8.408
  442POPC   C3A10229   8.652  32.917   8.043
  442POPC   C4A10230   8.812  32.823   7.676
  442POPC   C1B10231   9.336  32.978   8.744
  442POPC   C2B10232   9.330  33.076   8.334
  442POPC   C3B10233   9.232  32.868   7.971
  442POPC   C4B10234   9.273  32.837   7.505
  443POPC   NC310235  10.994  32.440   9.584
  443POPC   PO410236  10.585  32.961   9.548
  443POPC   GL110237  10.571  33.073   9.135
  443POPC   GL210238  10.280  33.236   9.007
  443POPC   C1A10239  10.484  32.862   8.724
  443POPC   D2A10240  10.169  32.964   8.403
  443POPC   C3A10241  10.263  32.824   7.967
  443POPC   C4A10242  10.282  32.793   7.524
  443POPC   C1B10243  10.485  33.364   8.627
  443POPC   C2B10244  10.527  33.240   8.180
  443POPC   C3B10245  10.581  33.166   7.733
  443POPC   C4B10246  10.396  33.285   7.359
  444POPC   NC310247  16.416   7.567   9.481
  444POPC   PO410248  17.112   7.468   9.385
  444POPC   GL110249  16.748   7.391   9.108
  444POPC   GL210250  16.590   7.064   9.143
  444POPC   C1A10251  16.549   7.334   8.692
  444POPC   D2A10252  16.328   7.464   8.304
  444POPC   C3A10253  16.583   7.467   7.920
  444POPC   C4A10254  16.495   7.658   7.555
  444POPC   C1B10255  16.253   6.934   8.869
  444POPC   C2B10256  16.260   6.951   8.413
  444POPC   C3B10257  16.392   7.004   7.982
  444POPC   C4B10258  16.485   7.073   7.515
  445POPC   NC310259  26.634   6.357   9.534
  445POPC   PO410260  26.941   7.008   9.494
  445POPC   GL110261  26.841   6.947   9.083
  445POPC   GL210262  26.819   6.605   9.107
  445POPC   C1A10263  26.931   6.822   8.656
  445POPC   D2A10264  26.960   7.006   8.266
  445POPC   C3A10265  26.836   6.675   8.023
  445POPC   C4A10266  26.989   6.261   8.101
  445POPC   C1B10267  26.534   6.431   8.783
  445POPC   C2B10268  26.505   6.265   8.345
  445POPC   C3B10269  26.480   6.332   7.891
  445POPC   C4B10270  26.498   6.451   7.431
  446POPC   NC310271  19.136   5.312   9.444
  446POPC   PO410272  18.833   4.743   9.475
  446POPC   GL110273  18.942   4.950   9.091
  446POPC   GL210274  18.659   5.107   8.977
  446POPC   C1A10275  19.198   4.907   8.692
  446POPC   D2A10276  19.327   5.214   8.332
  446POPC   C3A10277  19.284   5.037   7.891
  446POPC   C4A10278  19.547   5.197   7.534
  446POPC   C1B10279  18.868   5.274   8.660
  446POPC   C2B10280  18.856   5.076   8.274
  446POPC   C3B10281  18.733   5.129   7.877
  446POPC   C4B10282  18.866   4.821   7.618
  447POPC   NC310283  31.784   1.047   9.938
  447POPC   PO410284  31.449   1.288   9.417
  447POPC   GL110285  31.381   1.020   9.089
  447POPC   GL210286  31.146   1.265   8.969
  447POPC   C1A10287  31.263   0.872   8.665
  447POPC   D2A10288  31.217   1.165   8.327
  447POPC   C3A10289  31.462   0.950   8.033
  447POPC   C4A10290  31.684   0.698   7.739
  447POPC   C1B10291  31.456   1.418   8.727
  447POPC   C2B10292  31.698   1.366   8.336
  447POPC   C3B10293  31.513   1.451   7.966
  447POPC   C4B10294  31.531   1.201   7.594
  448POPC   NC310295  11.878   4.441   9.746
  448POPC   PO410296  12.423   3.996   9.628
  448POPC   GL110297  12.374   4.231   9.240
  448POPC   GL210298  12.015   4.362   9.215
  448POPC   C1A10299  12.278   4.163   8.802
  448POPC   D2A10300  12.141   4.043   8.405
  448POPC   C3A10301  12.226   4.287   8.045
  448POPC   C4A10302  12.394   4.428   7.660
  448POPC   C1B10303  11.851   4.451   8.787
  448POPC   C2B10304  11.720   4.396   8.331
  448POPC   C3B10305  11.782   4.629   7.930
  448POPC   C4B10306  11.916   4.494   7.501
  449POPC   NC310307  40.091  24.165   9.461
  449POPC   PO410308  40.190  23.525   9.600
  449POPC   GL110309  39.985  23.669   9.186
  449POPC   GL210310  40.015  23.995   8.993
  449POPC   C1A10311  39.889  23.577   8.734
  449POPC   D2A10312  40.131  23.464   8.360
  449POPC   C3A10313  39.979  23.534   7.928
  449POPC   C4A10314  39.917  23.700   7.503
  449POPC   C1B10315  40.363  23.755   8.767
  449POPC   C2B10316  40.503  23.845   8.344
  449POPC   C3B10317  40.484  23.601   7.997
  449POPC   C4B10318  40.471  23.743   7.614
  450POPC   NC310319  25.558  13.768   9.381
  450POPC   PO410320  25.153  13.261   9.600
  450POPC   GL110321  25.338  13.288   9.160
  450POPC   GL210322  25.626  13.026   9.109
  450POPC   C1A10323  25.127  13.375   8.704
  450POPC   D2A10324  25.062  13.703   8.378
  450POPC   C3A10325  25.077  13.787   7.932
  450POPC   C4A10326  25.484  13.887   7.767
  450POPC   C1B10327  25.634  13.316   8.757
  450POPC   C2B10328  25.487  13.414   8.351
  450POPC   C3B10329  25.415  13.391   7.935
  450POPC   C4B10330  25.744  13.437   7.646
  451POPC   NC310331   6.312  27.930   9.390
  451POPC   PO410332   6.570  28.624   9.412
  451POPC   GL110333   6.559  28.300   9.152
  451POPC   GL210334   6.200  28.378   9.156
  451POPC   C1A10335   6.755  28.139   8.784
  451POPC   D2A10336   6.875  28.429   8.460
  451POPC   C3A10337   6.719  28.335   8.064
  451POPC   C4A10338   6.889  28.009   7.835
  451POPC   C1B10339   6.223  28.197   8.766
  451POPC   C2B10340   6.377  28.122   8.392
  451POPC   C3B10341   6.242  28.179   7.984
  451POPC   C4B10342   6.454  28.071   7.618
  452POPC   NC310343  20.160  41.674   9.436
  452POPC   PO410344  20.871  41.584   9.419
  452POPC   GL110345  20.527  41.440   9.154
  452POPC   GL210346  20.463  41.742   9.050
  452POPC   C1A10347  20.514  41.166   8.812
  452POPC   D2A10348  20.683  41.089   8.454
  452POPC   C3A10349  20.590  41.360   8.170
  452POPC   C4A10350  20.753  41.314   7.775
  452POPC   C1B10351  20.598  41.632   8.650
  452POPC   C2B10352  20.678  41.859   8.296
  452POPC   C3B10353  20.587  41.786   7.886
  452POPC   C4B10354  20.544  42.046   7.571
  453POPC   NC310355  24.173  14.832   9.323
  453POPC   PO410356  23.698  14.321   9.472
  453POPC   GL110357  23.532  14.482   9.121
  453POPC   GL210358  23.762  14.717   9.056
  453POPC   C1A10359  23.592  14.323   8.713
  453POPC   D2A10360  23.481  13.999   8.422
  453POPC   C3A10361  23.695  14.051   8.008
  453POPC   C4A10362  24.164  14.167   7.923
  453POPC   C1B10363  24.012  14.629   8.691
  453POPC   C2B10364  23.876  14.426   8.300
  453POPC   C3B10365  23.781  14.562   7.877
  453POPC   C4B10366  24.054  14.612   7.495
  454POPC   NC310367  14.764   4.256   9.498
  454POPC   PO410368  14.122   4.425   9.645
  454POPC   GL110369  14.241   4.275   9.200
  454POPC   GL210370  14.553   4.367   9.072
  454POPC   C1A10371  14.169   4.269   8.745
  454POPC   D2A10372  14.144   4.081   8.315
  454POPC   C3A10373  14.206   4.387   8.015
  454POPC   C4A10374  14.432   4.411   7.601
  454POPC   C1B10375  14.714   4.043   8.808
  454POPC   C2B10376  14.644   4.196   8.421
  454POPC   C3B10377  14.708   4.245   8.017
  454POPC   C4B10378  14.909   4.190   7.651
  455POPC   NC310379  32.087  29.601   9.483
  455POPC   PO410380  32.608  30.030   9.445
  455POPC   GL110381  32.487  29.698   9.171
  455POPC   GL210382  32.194  29.837   9.056
  455POPC   C1A10383  32.492  29.557   8.761
  455POPC   D2A10384  32.388  29.844   8.455
  455POPC   C3A10385  32.602  29.764   8.084
  455POPC   C4A10386  32.421  29.846   7.677
  455POPC   C1B10387  31.938  29.973   8.748
  455POPC   C2B10388  31.885  29.777   8.379
  455POPC   C3B10389  31.992  29.896   8.027
  455POPC   C4B10390  31.942  29.768   7.643
  456POPC   NC310391   3.205  17.927   9.382
  456POPC   PO410392   3.722  17.486   9.493
  456POPC   GL110393   3.653  17.324   9.134
  456POPC   GL210394   3.315  17.477   9.150
  456POPC   C1A10395   3.693  17.218   8.718
  456POPC   D2A10396   3.685  17.498   8.366
  456POPC   C3A10397   3.616  17.309   7.938
  456POPC   C4A10398   3.580  17.608   7.600
  456POPC   C1B10399   3.207  17.418   8.746
  456POPC   C2B10400   3.251  17.257   8.349
  456POPC   C3B10401   3.086  17.280   7.953
  456POPC   C4B10402   3.082  17.542   7.596
  457POPC   NC310403   6.536   4.893   9.396
  457POPC   PO410404   6.637   5.503   9.499
  457POPC   GL110405   6.506   5.386   9.120
  457POPC   GL210406   6.833   5.249   9.062
  457POPC   C1A10407   6.523   5.353   8.669
  457POPC   D2A10408   6.733   5.435   8.287
  457POPC   C3A10409   6.558   5.387   7.881
  457POPC   C4A10410   6.368   5.363   7.460
  457POPC   C1B10411   6.779   4.904   8.767
  457POPC   C2B10412   6.707   4.635   8.414
  457POPC   C3B10413   6.587   4.851   8.058
  457POPC   C4B10414   6.630   4.940   7.631
  458POPC   NC310415   9.393  13.928   9.497
  458POPC   PO410416   8.860  13.505   9.447
  458POPC   GL110417   9.105  13.721   9.112
  458POPC   GL210418   9.161  14.104   9.058
  458POPC   C1A10419   8.940  13.744   8.704
  458POPC   D2A10420   8.688  13.570   8.405
  458POPC   C3A10421   8.974  13.416   8.129
  458POPC   C4A10422   8.864  13.509   7.748
  458POPC   C1B10423   8.749  14.194   8.885
  458POPC   C2B10424   8.641  14.116   8.447
  458POPC   C3B10425   8.874  13.968   8.100
  458POPC   C4B10426   8.728  13.990   7.677
  459POPC   NC310427  39.325  42.095   9.482
  459POPC   PO410428  39.156  42.771   9.371
  459POPC   GL110429  39.216  42.438   9.091
  459POPC   GL210430  38.963  42.207   9.019
  459POPC   C1A10431  39.245  42.303   8.637
  459POPC   D2A10432  39.088  42.366   8.268
  459POPC   C3A10433  39.395  42.360   7.938
  459POPC   C4A10434  39.361  42.462   7.513
  459POPC   C1B10435  38.817  42.016   8.598
  459POPC   C2B10436  38.785  41.987   8.138
  459POPC   C3B10437  38.919  42.207   7.777
  459POPC   C4B10438  38.965  42.038   7.338
  460POPC   NC310439  41.267  11.023   9.346
  460POPC   PO410440  41.107  11.602   9.399
  460POPC   GL110441  41.319  11.438   9.019
  460POPC   GL210442  41.263  11.117   8.849
  460POPC   C1A10443  41.444  11.525   8.593
  460POPC   D2A10444  41.682  11.345   8.236
  460POPC   C3A10445  41.781  11.599   7.888
  460POPC   C4A10446  41.860  11.480   7.441
  460POPC   C1B10447  40.929  10.938   8.587
  460POPC   C2B10448  40.902  10.865   8.129
  460POPC   C3B10449  41.251  10.956   7.860
  460POPC   C4B10450  41.386  11.350   7.675
  461POPC   NC310451  13.316  19.849   9.521
  461POPC   PO410452  13.871  20.237   9.334
  461POPC   GL110453  13.703  19.851   9.179
  461POPC   GL210454  13.385  19.925   9.043
  461POPC   C1A10455  13.744  19.590   8.808
  461POPC   D2A10456  13.666  19.581   8.373
  461POPC   C3A10457  14.041  19.631   8.115
  461POPC   C4A10458  14.002  19.592   7.658
  461POPC   C1B10459  13.546  20.058   8.675
  461POPC   C2B10460  13.661  20.107   8.255
  461POPC   C3B10461  13.620  19.830   7.918
  461POPC   C4B10462  13.375  19.525   7.701
  462POPC   NC310463   3.446  31.565   9.745
  462POPC   PO410464   4.075  31.659   9.551
  462POPC   GL110465   4.197  31.437   9.183
  462POPC   GL210466   4.538  31.411   9.116
  462POPC   C1A10467   4.216  31.516   8.750
  462POPC   D2A10468   4.051  31.541   8.351
  462POPC   C3A10469   4.193  31.383   7.965
  462POPC   C4A10470   4.196  31.535   7.575
  462POPC   C1B10471   4.686  31.305   8.725
  462POPC   C2B10472   4.499  31.215   8.327
  462POPC   C3B10473   4.675  31.196   7.875
  462POPC   C4B10474   4.797  31.193   7.398
  463POPC   NC310475  30.046  12.265   9.536
  463POPC   PO410476  29.535  11.835   9.310
  463POPC   GL110477  29.762  12.116   9.073
  463POPC   GL210478  30.092  12.061   9.081
  463POPC   C1A10479  29.843  12.158   8.623
  463POPC   D2A10480  30.057  11.923   8.285
  463POPC   C3A10481  29.827  11.896   7.895
  463POPC   C4A10482  29.653  12.239   7.704
  463POPC   C1B10483  30.268  12.364   8.778
  463POPC   C2B10484  30.226  12.415   8.317
  463POPC   C3B10485  30.161  12.304   7.865
  463POPC   C4B10486  30.158  12.355   7.384
  464POPC   NC310487   3.034  43.225   9.425
  464POPC   PO410488   2.653  42.678   9.501
  464POPC   GL110489   2.628  42.777   9.074
  464POPC   GL210490   2.971  42.817   9.105
  464POPC   C1A10491   2.644  42.836   8.627
  464POPC   D2A10492   2.639  43.262   8.418
  464POPC   C3A10493   2.536  43.245   7.998
  464POPC   C4A10494   2.452  42.826   7.802
  464POPC   C1B10495   3.001  43.145   8.764
  464POPC   C2B10496   3.046  42.956   8.335
  464POPC   C3B10497   2.964  42.965   7.913
  464POPC   C4B10498   3.155  43.210   7.616
  465POPC   NC310499  37.429  10.239   9.587
  465POPC   PO410500  38.092  10.301   9.718
  465POPC   GL110501  37.904  10.323   9.299
  465POPC   GL210502  37.702  10.652   9.247
  465POPC   C1A10503  37.951  10.376   8.834
  465POPC   D2A10504  37.833  10.251   8.379
  465POPC   C3A10505  38.080  10.253   7.978
  465POPC   C4A10506  37.928  10.193   7.532
  465POPC   C1B10507  37.664  10.806   8.790
  465POPC   C2B10508  37.578  10.714   8.345
  465POPC   C3B10509  37.620  10.480   7.940
  465POPC   C4B10510  37.494  10.462   7.488
  466POPC   NC310511  24.212   8.490   9.492
  466POPC   PO410512  24.893   8.430   9.444
  466POPC   GL110513  24.765   8.197   9.082
  466POPC   GL210514  24.664   7.854   9.105
  466POPC   C1A10515  24.603   8.290   8.667
  466POPC   D2A10516  24.705   8.482   8.275
  466POPC   C3A10517  24.436   8.408   7.951
  466POPC   C4A10518  24.319   8.222   7.582
  466POPC   C1B10519  24.276   7.949   8.852
  466POPC   C2B10520  24.167   8.078   8.416
  466POPC   C3B10521  24.295   7.915   8.007
  466POPC   C4B10522  24.529   7.790   7.628
  467POPC   NC310523  36.915  31.137   9.256
  467POPC   PO410524  36.797  30.568   9.502
  467POPC   GL110525  36.653  30.697   9.139
  467POPC   GL210526  37.016  30.658   9.056
  467POPC   C1A10527  36.512  30.813   8.742
  467POPC   D2A10528  36.662  30.697   8.325
  467POPC   C3A10529  36.608  30.893   7.945
  467POPC   C4A10530  36.897  31.120   7.726
  467POPC   C1B10531  36.997  30.845   8.676
  467POPC   C2B10532  37.177  30.626   8.378
  467POPC   C3B10533  37.302  30.625   7.979
  467POPC   C4B10534  37.072  30.573   7.629
  468POPC   NC310535  28.800  17.971   9.408
  468POPC   PO410536  29.162  18.516   9.528
  468POPC   GL110537  29.221  18.244   9.157
  468POPC   GL210538  28.897  18.249   8.983
  468POPC   C1A10539  29.342  18.089   8.729
  468POPC   D2A10540  29.190  18.242   8.349
  468POPC   C3A10541  29.252  18.050   7.968
  468POPC   C4A10542  29.231  18.289   7.566
  468POPC   C1B10543  28.839  17.963   8.646
  468POPC   C2B10544  28.766  17.948   8.211
  468POPC   C3B10545  28.788  18.194   7.819
  468POPC   C4B10546  28.775  17.970   7.465
  469POPC   NC310547  19.281   3.647   9.573
  469POPC   PO410548  18.717   3.859   9.347
  469POPC   GL110549  18.896   3.632   9.068
  469POPC   GL210550  19.204   3.562   9.062
  469POPC   C1A10551  18.816   3.420   8.719
  469POPC   D2A10552  18.821   3.626   8.359
  469POPC   C3A10553  18.848   3.443   7.960
  469POPC   C4A10554  18.592   3.273   7.687
  469POPC   C1B10555  19.284   3.667   8.615
  469POPC   C2B10556  19.293   3.627   8.159
  469POPC   C3B10557  19.258   3.711   7.726
  469POPC   C4B10558  19.238   3.921   7.298
  470POPC   NC310559   8.355  12.479   9.461
  470POPC   PO410560   8.032  13.159   9.489
  470POPC   GL110561   8.276  12.956   9.184
  470POPC   GL210562   8.629  12.995   9.242
  470POPC   C1A10563   8.181  12.831   8.776
  470POPC   D2A10564   8.062  12.923   8.385
  470POPC   C3A10565   8.237  12.763   8.029
  470POPC   C4A10566   8.268  12.842   7.602
  470POPC   C1B10567   8.662  12.718   8.838
  470POPC   C2B10568   8.496  12.533   8.446
  470POPC   C3B10569   8.705  12.596   8.099
  470POPC   C4B10570   8.751  12.653   7.683
  471POPC   NC310571   9.618  15.773   9.602
  471POPC   PO410572  10.055  16.318   9.563
  471POPC   GL110573   9.831  16.055   9.239
  471POPC   GL210574   9.492  16.073   9.186
  471POPC   C1A10575   9.824  15.817   8.835
  471POPC   D2A10576   9.818  16.006   8.401
  471POPC   C3A10577   9.972  15.923   7.969
  471POPC   C4A10578  10.032  16.084   7.524
  471POPC   C1B10579   9.469  16.172   8.765
  471POPC   C2B10580   9.543  16.451   8.435
  471POPC   C3B10581   9.533  16.246   8.056
  471POPC   C4B10582   9.558  15.973   7.687
  472POPC   NC310583  42.557  31.924   9.556
  472POPC   PO410584  42.345  31.282   9.545
  472POPC   GL110585  42.231  31.587   9.210
  472POPC   GL210586  42.269  31.293   9.038
  472POPC   C1A10587  42.149  31.667   8.744
  472POPC   D2A10588  42.332  31.422   8.422
  472POPC   C3A10589  42.314  31.585   7.988
  472POPC   C4A10590  42.272  31.503   7.534
  472POPC   C1B10591  42.652  31.231   8.829
  472POPC   C2B10592  42.694  31.039   8.437
  472POPC   C3B10593  42.710  31.273   8.099
  472POPC   C4B10594  42.642  31.233   7.720
  473POPC   NC310595  39.060  15.962   9.863
  473POPC   PO410596  39.307  16.475   9.666
  473POPC   GL110597  39.100  16.148   9.335
  473POPC   GL210598  38.985  15.794   9.307
  473POPC   C1A10599  38.925  16.138   8.898
  473POPC   D2A10600  39.000  16.206   8.438
  473POPC   C3A10601  39.273  15.960   8.153
  473POPC   C4A10602  39.455  15.742   7.798
  473POPC   C1B10603  38.949  15.585   8.880
  473POPC   C2B10604  38.924  15.687   8.424
  473POPC   C3B10605  38.996  15.537   8.011
  473POPC   C4B10606  38.987  15.696   7.590
  474POPC   NC310607  29.218  17.096   9.403
  474POPC   PO410608  28.786  17.562   9.606
  474POPC   GL110609  28.856  17.484   9.166
  474POPC   GL210610  28.968  17.176   8.958
  474POPC   C1A10611  29.160  17.646   8.885
  474POPC   D2A10612  29.238  17.698   8.422
  474POPC   C3A10613  29.070  17.539   8.054
  474POPC   C4A10614  28.714  17.617   7.806
  474POPC   C1B10615  29.350  17.232   8.685
  474POPC   C2B10616  29.478  17.242   8.250
  474POPC   C3B10617  29.399  17.290   7.750
  474POPC   C4B10618  29.459  17.207   7.300
  475POPC   NC310619  27.296  42.835   9.786
  475POPC   PO410620  27.330  43.378   9.739
  475POPC   GL110621  27.366  43.506   9.271
  475POPC   GL210622  27.240  43.192   9.176
  475POPC   C1A10623  27.590  43.513   8.836
  475POPC   D2A10624  27.810  43.638   8.412
  475POPC   C3A10625  27.742  43.386   8.032
  475POPC   C4A10626  27.699  43.077   7.662
  475POPC   C1B10627  27.112  43.356   8.766
  475POPC   C2B10628  27.342  43.372   8.362
  475POPC   C3B10629  27.245  43.343   7.902
  475POPC   C4B10630  27.114  43.483   7.465
  476POPC   NC310631  15.868  30.516   9.526
  476POPC   PO410632  16.489  30.771   9.614
  476POPC   GL110633  16.199  30.822   9.202
  476POPC   GL210634  15.833  30.695   9.077
  476POPC   C1A10635  16.192  30.713   8.741
  476POPC   D2A10636  15.867  30.613   8.451
  476POPC   C3A10637  16.011  30.797   8.073
  476POPC   C4A10638  16.087  30.573   7.729
  476POPC   C1B10639  15.632  30.947   8.797
  476POPC   C2B10640  15.671  31.081   8.366
  476POPC   C3B10641  15.531  30.949   7.994
  476POPC   C4B10642  15.579  30.641   7.710
  477POPC   NC310643  40.651  30.494   9.625
  477POPC   PO410644  40.520  31.141   9.562
  477POPC   GL110645  40.697  30.815   9.205
  477POPC   GL210646  40.543  30.435   9.128
  477POPC   C1A10647  40.634  30.773   8.742
  477POPC   D2A10648  40.384  30.785   8.373
  477POPC   C3A10649  40.630  30.719   8.039
  477POPC   C4A10650  40.615  30.863   7.634
  477POPC   C1B10651  40.916  30.372   8.827
  477POPC   C2B10652  41.068  30.520   8.396
  477POPC   C3B10653  40.986  30.369   7.962
  477POPC   C4B10654  40.584  30.319   7.719
  478POPC   NC310655  42.827  35.617   9.553
  478POPC   PO410656  43.281  35.178   9.673
  478POPC   GL110657  43.099  35.242   9.255
  478POPC   GL210658  43.243  35.586   9.228
  478POPC   C1A10659  43.205  35.161   8.793
  478POPC   D2A10660  43.371  35.028   8.378
  478POPC   C3A10661  43.258  35.248   7.987
  478POPC   C4A10662  43.079  35.189   7.558
  478POPC   C1B10663  43.036  35.642   8.847
  478POPC   C2B10664  43.135  35.528   8.434
  478POPC   C3B10665  43.116  35.784   8.096
  478POPC   C4B10666  43.030  35.663   7.734
  479POPC   NC310667   9.845  18.410   9.583
  479POPC   PO410668   9.805  19.045   9.511
  479POPC   GL110669   9.572  19.005   9.131
  479POPC   GL210670   9.578  18.659   9.175
  479POPC   C1A10671   9.598  19.155   8.727
  479POPC   D2A10672   9.953  19.221   8.448
  479POPC   C3A10673   9.764  19.200   8.042
  479POPC   C4A10674   9.347  19.125   7.969
  479POPC   C1B10675   9.807  18.676   8.788
  479POPC   C2B10676   9.690  18.780   8.367
  479POPC   C3B10677   9.671  18.676   7.938
  479POPC   C4B10678   9.908  18.896   7.620
  480POPC   NC310679  18.992  36.172   9.765
  480POPC   PO410680  18.867  35.711   9.271
  480POPC   GL110681  19.080  36.087   9.158
  480POPC   GL210682  19.280  36.401   9.182
  480POPC   C1A10683  19.044  36.241   8.742
  480POPC   D2A10684  19.036  36.419   8.328
  480POPC   C3A10685  18.957  36.151   7.982
  480POPC   C4A10686  18.780  35.833   7.696
  480POPC   C1B10687  19.407  36.601   8.807
  480POPC   C2B10688  19.549  36.502   8.390
  480POPC   C3B10689  19.423  36.355   8.008
  480POPC   C4B10690  19.302  36.399   7.597
  481POPC   NC310691  43.006  23.965   9.666
  481POPC   PO410692  43.446  23.545   9.455
  481POPC   GL110693  43.161  23.569   9.112
  481POPC   GL210694  42.919  23.834   9.174
  481POPC   C1A10695  43.283  23.464   8.704
  481POPC   D2A10696  43.378  23.733   8.378
  481POPC   C3A10697  43.367  23.493   8.019
  481POPC   C4A10698  43.274  23.636   7.627
  481POPC   C1B10699  42.992  23.964   8.759
  481POPC   C2B10700  42.884  23.890   8.344
  481POPC   C3B10701  43.131  23.985   7.979
  481POPC   C4B10702  43.239  24.129   7.560
  482POPC   NC310703  14.128  30.853   9.303
  482POPC   PO410704  14.633  31.299   9.605
  482POPC   GL110705  14.768  31.245   9.192
  482POPC   GL210706  14.434  31.350   9.075
  482POPC   C1A10707  14.816  31.309   8.738
  482POPC   D2A10708  14.731  31.522   8.367
  482POPC   C3A10709  14.693  31.278   8.003
  482POPC   C4A10710  14.653  31.554   7.674
  482POPC   C1B10711  14.177  31.535   8.738
  482POPC   C2B10712  14.286  31.773   8.387
  482POPC   C3B10713  14.259  31.579   7.992
  482POPC   C4B10714  14.196  31.152   7.872
  483POPC   NC310715   5.661  26.117   9.557
  483POPC   PO410716   6.031  25.599   9.425
  483POPC   GL110717   5.738  25.843   9.133
  483POPC   GL210718   5.434  26.118   9.112
  483POPC   C1A10719   5.756  26.034   8.721
  483POPC   D2A10720   5.738  25.823   8.343
  483POPC   C3A10721   6.060  25.820   8.064
  483POPC   C4A10722   5.870  25.874   7.682
  483POPC   C1B10723   5.358  26.377   8.756
  483POPC   C2B10724   5.512  26.311   8.337
  483POPC   C3B10725   5.669  26.300   7.905
  483POPC   C4B10726   5.837  26.474   7.509
  484POPC   NC310727  18.012  27.064   9.780
  484POPC   PO410728  18.660  27.161   9.516
  484POPC   GL110729  18.351  26.923   9.307
  484POPC   GL210730  18.239  26.597   9.325
  484POPC   C1A10731  18.428  26.803   8.860
  484POPC   D2A10732  18.510  26.910   8.426
  484POPC   C3A10733  18.188  26.950   8.171
  484POPC   C4A10734  18.151  27.026   7.755
  484POPC   C1B10735  18.025  26.492   8.918
  484POPC   C2B10736  18.057  26.594   8.501
  484POPC   C3B10737  18.163  26.431   8.067
  484POPC   C4B10738  18.020  26.570   7.647
  485POPC   NC310739  36.218  24.316   9.522
  485POPC   PO410740  36.058  24.960   9.522
  485POPC   GL110741  36.045  24.802   9.098
  485POPC   GL210742  36.352  24.596   9.061
  485POPC   C1A10743  36.000  24.623   8.665
  485POPC   D2A10744  35.882  24.423   8.261
  485POPC   C3A10745  35.820  24.558   7.819
  485POPC   C4A10746  35.990  24.795   7.485
  485POPC   C1B10747  36.461  24.431   8.650
  485POPC   C2B10748  36.387  24.461   8.246
  485POPC   C3B10749  36.305  24.332   7.843
  485POPC   C4B10750  36.444  24.558   7.468
  486POPC   NC310751  20.779  43.542   9.522
  486POPC   PO410752  20.315  44.069   9.528
  486POPC   GL110753  20.704  43.920   9.193
  486POPC   GL210754  21.027  43.647   9.103
  486POPC   C1A10755  20.676  43.825   8.755
  486POPC   D2A10756  20.417  43.911   8.377
  486POPC   C3A10757  20.584  44.165   8.027
  486POPC   C4A10758  20.780  44.164   7.642
  486POPC   C1B10759  20.989  43.415   8.715
  486POPC   C2B10760  20.712  43.458   8.378
  486POPC   C3B10761  20.759  43.688   8.041
  486POPC   C4B10762  20.935  43.686   7.677
  487POPC   NC310763  30.651  30.049   9.560
  487POPC   PO410764  31.263  30.118   9.513
  487POPC   GL110765  30.981  30.169   9.182
  487POPC   GL210766  30.927  29.814   9.181
  487POPC   C1A10767  30.678  30.159   8.829
  487POPC   D2A10768  30.443  30.190   8.444
  487POPC   C3A10769  30.611  30.351   8.076
  487POPC   C4A10770  30.620  30.169   7.682
  487POPC   C1B10771  31.006  29.770   8.765
  487POPC   C2B10772  30.681  29.678   8.444
  487POPC   C3B10773  30.452  29.854   8.068
  487POPC   C4B10774  30.342  29.741   7.647
  488POPC   NC310775  17.405  19.019   9.937
  488POPC   PO410776  17.848  19.342   9.525
  488POPC   GL110777  17.605  19.208   9.152
  488POPC   GL210778  17.285  19.062   9.229
  488POPC   C1A10779  17.680  19.034   8.729
  488POPC   D2A10780  17.680  19.271   8.324
  488POPC   C3A10781  17.666  19.091   7.934
  488POPC   C4A10782  17.982  18.944   7.646
  488POPC   C1B10783  17.188  19.006   8.803
  488POPC   C2B10784  17.316  18.929   8.365
  488POPC   C3B10785  17.183  18.856   7.950
  488POPC   C4B10786  17.248  19.152   7.635
  489POPC   NC310787  35.412  35.832   9.619
  489POPC   PO410788  35.045  36.378   9.488
  489POPC   GL110789  35.356  36.207   9.225
  489POPC   GL210790  35.411  35.840   9.105
  489POPC   C1A10791  35.461  36.284   8.842
  489POPC   D2A10792  35.240  36.150   8.504
  489POPC   C3A10793  35.420  36.076   8.156
  489POPC   C4A10794  35.304  36.222   7.770
  489POPC   C1B10795  35.131  35.689   8.756
  489POPC   C2B10796  35.090  35.687   8.295
  489POPC   C3B10797  35.200  35.720   7.838
  489POPC   C4B10798  35.276  35.610   7.397
  490POPC   NC310799   1.093  24.741   9.522
  490POPC   PO410800   1.565  24.298   9.513
  490POPC   GL110801   1.455  24.476   9.128
  490POPC   GL210802   1.354  24.815   9.119
  490POPC   C1A10803   1.194  24.405   8.764
  490POPC   D2A10804   1.093  24.165   8.404
  490POPC   C3A10805   1.149  24.342   7.987
  490POPC   C4A10806   0.965  24.161   7.581
  490POPC   C1B10807   1.387  24.871   8.719
  490POPC   C2B10808   1.145  24.794   8.370
  490POPC   C3B10809   1.344  24.863   7.985
  490POPC   C4B10810   1.420  25.049   7.590
  491POPC   NC310811  29.070  16.325   9.494
  491POPC   PO410812  28.739  16.926   9.375
  491POPC   GL110813  29.070  16.695   9.094
  491POPC   GL210814  29.297  16.391   9.042
  491POPC   C1A10815  29.229  16.752   8.697
  491POPC   D2A10816  29.347  16.701   8.280
  491POPC   C3A10817  29.097  16.983   8.038
  491POPC   C4A10818  28.742  16.988   7.778
  491POPC   C1B10819  29.155  16.262   8.601
  491POPC   C2B10820  28.857  16.455   8.298
  491POPC   C3B10821  28.956  16.521   7.874
  491POPC   C4B10822  29.389  16.466   7.810
  492POPC   NC310823  41.656  18.040   9.277
  492POPC   PO410824  41.804  18.658   9.431
  492POPC   GL110825  41.821  18.449   9.040
  492POPC   GL210826  41.434  18.402   8.996
  492POPC   C1A10827  41.721  18.227   8.636
  492POPC   D2A10828  41.508  18.288   8.239
  492POPC   C3A10829  41.741  18.189   7.851
  492POPC   C4A10830  41.638  17.993   7.461
  492POPC   C1B10831  41.212  18.101   8.713
  492POPC   C2B10832  41.265  17.856   8.300
  492POPC   C3B10833  41.237  18.056   7.864
  492POPC   C4B10834  41.232  18.517   7.837
  493POPC   NC310835  38.762  36.040   9.649
  493POPC   PO410836  39.407  36.013   9.468
  493POPC   GL110837  39.278  36.000   9.086
  493POPC   GL210838  38.918  35.889   9.171
  493POPC   C1A10839  39.407  36.314   8.758
  493POPC   D2A10840  39.487  36.596   8.373
  493POPC   C3A10841  39.520  36.366   7.997
  493POPC   C4A10842  39.538  36.016   7.742
  493POPC   C1B10843  38.939  35.897   8.715
  493POPC   C2B10844  38.815  36.033   8.302
  493POPC   C3B10845  39.077  36.075   7.957
  493POPC   C4B10846  38.955  35.989   7.548
  494POPC   NC310847   9.960  40.603   9.614
  494POPC   PO410848   9.360  40.683   9.378
  494POPC   GL110849   9.739  40.775   9.162
  494POPC   GL210850   9.887  41.107   9.236
  494POPC   C1A10851   9.936  40.537   8.836
  494POPC   D2A10852  10.074  40.376   8.444
  494POPC   C3A10853   9.799  40.407   8.112
  494POPC   C4A10854   9.871  40.542   7.692
  494POPC   C1B10855   9.912  41.080   8.775
  494POPC   C2B10856   9.609  41.082   8.405
  494POPC   C3B10857   9.685  40.929   7.986
  494POPC   C4B10858  10.059  41.012   7.747
  495POPC   NC310859  19.267  30.660   9.557
  495POPC   PO410860  18.612  30.651   9.534
  495POPC   GL110861  18.885  30.606   9.177
  495POPC   GL210862  19.039  30.928   9.123
  495POPC   C1A10863  18.987  30.549   8.757
  495POPC   D2A10864  18.884  30.976   8.620
  495POPC   C3A10865  19.010  31.024   8.205
  495POPC   C4A10866  18.890  30.912   7.794
  495POPC   C1B10867  19.374  30.887   8.794
  495POPC   C2B10868  19.505  30.966   8.341
  495POPC   C3B10869  19.371  30.800   7.922
  495POPC   C4B10870  19.088  30.443   7.902
  496POPC   NC310871  24.904  19.915   9.105
  496POPC   PO410872  24.419  19.801   9.561
  496POPC   GL110873  24.344  19.949   9.183
  496POPC   GL210874  24.468  19.670   8.956
  496POPC   C1A10875  24.235  20.101   8.800
  496POPC   D2A10876  24.341  19.902   8.430
  496POPC   C3A10877  24.363  20.161   8.091
  496POPC   C4A10878  24.619  19.981   7.790
  496POPC   C1B10879  24.759  19.631   8.564
  496POPC   C2B10880  24.711  19.615   8.138
  496POPC   C3B10881  24.455  19.497   7.776
  496POPC   C4B10882  24.660  19.649   7.397
  497POPC   NC310883  16.003  39.454   9.417
  497POPC   PO410884  16.189  38.863   9.319
  497POPC   GL110885  15.938  39.099   8.989
  497POPC   GL210886  15.748  39.415   8.976
  497POPC   C1A10887  15.925  39.226   8.543
  497POPC   D2A10888  16.254  39.442   8.331
  497POPC   C3A10889  16.178  39.397   7.907
  497POPC   C4A10890  16.328  39.070   7.595
  497POPC   C1B10891  15.752  39.709   8.621
  497POPC   C2B10892  15.858  39.716   8.195
  497POPC   C3B10893  15.670  39.594   7.817
  497POPC   C4B10894  15.590  39.595   7.342
  498POPC   NC310895  33.424   3.030   9.512
  498POPC   PO410896  34.072   2.640   9.562
  498POPC   GL110897  33.772   2.759   9.241
  498POPC   GL210898  33.986   2.692   9.014
  498POPC   C1A10899  33.528   2.649   8.813
  498POPC   D2A10900  33.732   2.595   8.376
  498POPC   C3A10901  33.687   2.821   7.988
  498POPC   C4A10902  33.447   3.112   7.773
  498POPC   C1B10903  33.931   2.953   8.671
  498POPC   C2B10904  34.155   3.028   8.282
  498POPC   C3B10905  34.101   3.097   7.849
  498POPC   C4B10906  34.063   3.204   7.416
  499POPC   NC310907  38.687   5.317   9.536
  499POPC   PO410908  38.328   5.859   9.561
  499POPC   GL110909  38.515   6.032   9.210
  499POPC   GL210910  38.687   5.715   9.201
  499POPC   C1A10911  38.374   6.102   8.776
  499POPC   D2A10912  38.569   5.936   8.411
  499POPC   C3A10913  38.314   5.979   8.069
  499POPC   C4A10914  38.171   6.283   7.785
  499POPC   C1B10915  38.576   5.600   8.821
  499POPC   C2B10916  38.686   5.434   8.454
  499POPC   C3B10917  38.648   5.570   8.057
  499POPC   C4B10918  38.708   5.851   7.766
  500POPC   NC310919  37.513  39.032   9.359
  500POPC   PO410920  36.841  39.083   9.661
  500POPC   GL110921  37.015  39.214   9.281
  500POPC   GL210922  37.075  38.899   9.119
  500POPC   C1A10923  36.857  39.340   8.871
  500POPC   D2A10924  36.951  39.414   8.426
  500POPC   C3A10925  36.766  39.251   8.048
  500POPC   C4A10926  36.883  39.087   7.654
  500POPC   C1B10927  37.207  38.969   8.689
  500POPC   C2B10928  37.125  38.912   8.248
  500POPC   C3B10929  37.256  38.822   7.829
  500POPC   C4B10930  37.307  38.945   7.378
  501POPC   NC310931  21.059  37.345   9.209
  501POPC   PO410932  20.940  36.672   9.399
  501POPC   GL110933  20.601  36.920   9.148
  501POPC   GL210934  20.286  36.745   9.016
  501POPC   C1A10935  20.562  37.178   8.760
  501POPC   D2A10936  20.901  37.227   8.435
  501POPC   C3A10937  20.733  37.051   8.073
  501POPC   C4A10938  20.409  37.084   7.790
  501POPC   C1B10939  20.634  36.663   8.702
  501POPC   C2B10940  20.725  36.504   8.303
  501POPC   C3B10941  20.704  36.583   7.866
  501POPC   C4B10942  21.011  36.502   7.586
  502POPC   NC310943  21.044  18.815   9.404
  502POPC   PO410944  20.389  19.045   9.656
  502POPC   GL110945  20.598  18.996   9.239
  502POPC   GL210946  20.549  18.711   9.019
  502POPC   C1A10947  20.602  19.160   8.817
  502POPC   D2A10948  20.470  18.966   8.440
  502POPC   C3A10949  20.517  19.205   8.073
  502POPC   C4A10950  20.587  19.063   7.650
  502POPC   C1B10951  20.877  18.720   8.679
  502POPC   C2B10952  20.893  18.665   8.211
  502POPC   C3B10953  20.603  18.594   7.832
  502POPC   C4B10954  20.706  18.687   7.346
  503POPC   NC310955   0.794  42.907   9.355
  503POPC   PO410956   0.353  42.637   9.750
  503POPC   GL110957   0.298  42.870   9.280
  503POPC   GL210958   0.110  43.178   9.279
  503POPC   C1A10959   0.410  42.813   8.782
  503POPC   D2A10960   0.584  42.781   8.309
  503POPC   C3A10961   0.466  42.999   7.881
  503POPC   C4A10962   0.412  42.917   7.424
  503POPC   C1B10963   0.267  43.297   8.846
  503POPC   C2B10964   0.202  43.127   8.417
  503POPC   C3B10965  44.999  43.206   8.015
  503POPC   C4B10966   0.116  43.341   7.582
  504POPC   NC310967   3.739  10.378   9.688
  504POPC   PO410968   3.342  10.854   9.495
  504POPC   GL110969   3.469  10.730   9.134
  504POPC   GL210970   3.562  10.406   9.172
  504POPC   C1A10971   3.438  10.662   8.713
  504POPC   D2A10972   3.724  10.626   8.370
  504POPC   C3A10973   3.456  10.576   7.992
  504POPC   C4A10974   3.524  10.747   7.594
  504POPC   C1B10975   3.384  10.152   8.844
  504POPC   C2B10976   3.352  10.240   8.402
  504POPC   C3B10977   3.724  10.162   8.140
  504POPC   C4B10978   3.588  10.142   7.732
  505POPC   NC310979  19.126   2.948   9.781
  505POPC   PO410980  18.845   3.522   9.715
  505POPC   GL110981  19.035   3.155   9.313
  505POPC   GL210982  19.320   3.041   9.145
  505POPC   C1A10983  18.852   2.929   8.885
  505POPC   D2A10984  18.712   2.707   8.447
  505POPC   C3A10985  18.827   2.882   7.991
  505POPC   C4A10986  19.153   2.782   7.677
  505POPC   C1B10987  19.271   3.173   8.731
  505POPC   C2B10988  19.096   3.175   8.314
  505POPC   C3B10989  19.329   3.205   7.869
  505POPC   C4B10990  19.487   3.058   7.397
  506POPC   NC310991  32.647  40.489   9.523
  506POPC   PO410992  32.119  40.911   9.474
  506POPC   GL110993  32.199  40.936   9.078
  506POPC   GL210994  32.554  40.869   9.151
  506POPC   C1A10995  32.243  40.600   8.801
  506POPC   D2A10996  32.053  40.371   8.471
  506POPC   C3A10997  32.211  40.410   8.065
  506POPC   C4A10998  32.117  40.715   7.760
  506POPC   C1B10999  32.590  40.971   8.736
  506POPC   C2B11000  32.403  40.817   8.350
  506POPC   C3B11001  32.550  40.918   7.939
  506POPC   C4B11002  32.521  41.155   7.567
  507POPC   NC311003  30.214   9.100   9.385
  507POPC   PO411004  29.569   9.106   9.317
  507POPC   GL111005  29.801   8.777   9.162
  507POPC   GL211006  29.983   9.026   8.950
  507POPC   C1A11007  29.725   8.658   8.742
  507POPC   D2A11008  29.781   8.976   8.413
  507POPC   C3A11009  29.586   8.844   8.047
  507POPC   C4A11010  29.725   8.875   7.631
  507POPC   C1B11011  30.267   9.274   8.713
  507POPC   C2B11012  30.127   9.407   8.316
  507POPC   C3B11013  29.977   9.212   7.940
  507POPC   C4B11014  30.150   9.178   7.530
  508POPC   NC311015   3.452  32.727   9.758
  508POPC   PO411016   3.540  32.046   9.741
  508POPC   GL111017   3.341  32.189   9.271
  508POPC   GL211018   3.369  32.504   9.024
  508POPC   C1A11019   3.416  32.055   8.801
  508POPC   D2A11020   3.207  32.299   8.489
  508POPC   C3A11021   3.351  32.435   8.080
  508POPC   C4A11022   3.162  32.420   7.710
  508POPC   C1B11023   3.771  32.431   8.784
  508POPC   C2B11024   3.759  32.395   8.373
  508POPC   C3B11025   3.818  32.252   7.964
  508POPC   C4B11026   4.096  32.460   7.676
  509POPC   NC311027  29.126  37.964   9.701
  509POPC   PO411028  29.062  37.273   9.708
  509POPC   GL111029  29.248  37.414   9.288
  509POPC   GL211030  28.954  37.561   9.152
  509POPC   C1A11031  29.391  37.603   8.839
  509POPC   D2A11032  29.260  37.786   8.411
  509POPC   C3A11033  29.363  37.702   7.940
  509POPC   C4A11034  29.314  37.632   7.465
  509POPC   C1B11035  28.911  37.372   8.736
  509POPC   C2B11036  28.810  37.507   8.317
  509POPC   C3B11037  28.904  37.868   8.049
  509POPC   C4B11038  29.006  38.018   7.662
  510POPC   NC311039   1.058  27.263   9.437
  510POPC   PO411040   1.387  27.755   9.666
  510POPC   GL111041   1.372  27.672   9.205
  510POPC   GL211042   1.052  27.588   9.042
  510POPC   C1A11043   1.481  27.712   8.755
  510POPC   D2A11044   1.598  27.644   8.301
  510POPC   C3A11045   1.290  27.588   7.951
  510POPC   C4A11046   1.051  27.763   7.609
  510POPC   C1B11047   0.754  27.460   8.736
  510POPC   C2B11048   0.690  27.121   8.478
  510POPC   C3B11049   0.930  27.179   8.119
  510POPC   C4B11050   0.736  27.200   7.732
  511POPC   NC311051   2.705  15.543   9.476
  511POPC   PO411052   2.533  16.142   9.677
  511POPC   GL111053   2.590  16.143   9.212
  511POPC   GL211054   2.925  16.089   9.117
  511POPC   C1A11055   2.605  16.103   8.739
  511POPC   D2A11056   2.668  15.937   8.329
  511POPC   C3A11057   2.606  16.204   7.980
  511POPC   C4A11058   2.767  16.084   7.599
  511POPC   C1B11059   3.071  15.918   8.696
  511POPC   C2B11060   3.236  15.864   8.305
  511POPC   C3B11061   3.067  15.865   7.938
  511POPC   C4B11062   3.309  15.975   7.597
  512POPC   NC311063   5.844  36.694   9.470
  512POPC   PO411064   5.685  37.357   9.601
  512POPC   GL111065   5.738  37.142   9.222
  512POPC   GL211066   6.082  37.027   9.139
  512POPC   C1A11067   5.652  36.960   8.837
  512POPC   D2A11068   5.656  36.773   8.426
  512POPC   C3A11069   5.842  36.938   8.045
  512POPC   C4A11070   5.684  36.932   7.629
  512POPC   C1B11071   6.085  36.684   8.800
  512POPC   C2B11072   6.115  36.425   8.425
  512POPC   C3B11073   6.195  36.422   7.980
  512POPC   C4B11074   6.075  36.624   7.611
  513POPC   NC311075   8.104  38.817   9.364
  513POPC   PO411076   8.274  39.449   9.604
  513POPC   GL111077   8.222  39.295   9.197
  513POPC   GL211078   8.455  38.993   9.056
  513POPC   C1A11079   8.040  39.556   8.893
  513POPC   D2A11080   8.225  39.690   8.554
  513POPC   C3A11081   8.199  39.412   8.268
  513POPC   C4A11082   8.263  39.521   7.857
  513POPC   C1B11083   8.121  39.080   8.724
  513POPC   C2B11084   7.932  38.948   8.335
  513POPC   C3B11085   7.955  39.114   7.930
  513POPC   C4B11086   8.239  39.004   7.627
  514POPC   NC311087  19.724  34.187   9.498
  514POPC   PO411088  20.032  33.548   9.496
  514POPC   GL111089  19.910  33.831   9.126
  514POPC   GL211090  19.704  34.149   8.990
  514POPC   C1A11091  20.060  33.964   8.712
  514POPC   D2A11092  19.851  34.080   8.347
  514POPC   C3A11093  20.132  33.973   8.035
  514POPC   C4A11094  19.989  33.850   7.669
  514POPC   C1B11095  19.536  33.854   8.682
  514POPC   C2B11096  19.386  33.855   8.261
  514POPC   C3B11097  19.568  33.989   7.892
  514POPC   C4B11098  19.521  33.821   7.449
  515POPC   NC311099  10.393  20.118   9.509
  515POPC   PO411100  10.693  19.504   9.554
  515POPC   GL111101  10.480  19.676   9.178
  515POPC   GL211102  10.806  19.637   9.068
  515POPC   C1A11103  10.348  19.978   8.823
  515POPC   D2A11104  10.518  20.196   8.409
  515POPC   C3A11105  10.400  20.055   7.994
  515POPC   C4A11106  10.211  20.332   7.680
  515POPC   C1B11107  10.846  19.869   8.732
  515POPC   C2B11108  10.573  19.711   8.433
  515POPC   C3B11109  10.659  19.618   8.059
  515POPC   C4B11110  10.809  19.730   7.703
  516POPC   NC311111  34.386  40.628   9.530
  516POPC   PO411112  35.023  40.994   9.615
  516POPC   GL111113  34.717  40.880   9.233
  516POPC   GL211114  34.555  40.529   9.070
  516POPC   C1A11115  34.400  40.984   8.901
  516POPC   D2A11116  34.548  41.053   8.492
  516POPC   C3A11117  34.480  41.005   8.103
  516POPC   C4A11118  34.668  41.078   7.743
  516POPC   C1B11119  34.515  40.555   8.609
  516POPC   C2B11120  34.281  40.560   8.217
  516POPC   C3B11121  34.417  40.620   7.764
  516POPC   C4B11122  34.334  40.468   7.324
  517POPC   NC311123  28.239  22.608   9.773
  517POPC   PO411124  28.720  22.997   9.454
  517POPC   GL111125  28.497  22.782   9.119
  517POPC   GL211126  28.157  22.655   9.224
  517POPC   C1A11127  28.602  22.877   8.686
  517POPC   D2A11128  28.573  23.140   8.293
  517POPC   C3A11129  28.457  22.907   7.899
  517POPC   C4A11130  28.317  23.042   7.462
  517POPC   C1B11131  28.111  22.698   8.791
  517POPC   C2B11132  28.215  22.770   8.376
  517POPC   C3B11133  28.046  23.086   8.114
  517POPC   C4B11134  27.907  22.966   7.735
  518POPC   NC311135  13.293  12.289   9.473
  518POPC   PO411136  13.506  11.660   9.572
  518POPC   GL111137  13.477  11.890   9.179
  518POPC   GL211138  13.823  12.017   9.147
  518POPC   C1A11139  13.596  11.929   8.710
  518POPC   D2A11140  13.798  12.046   8.294
  518POPC   C3A11141  13.587  11.942   7.890
  518POPC   C4A11142  13.409  11.807   7.453
  518POPC   C1B11143  13.830  12.351   8.840
  518POPC   C2B11144  13.878  12.527   8.467
  518POPC   C3B11145  13.591  12.479   8.138
  518POPC   C4B11146  13.847  12.375   7.800
  519POPC   NC311147  13.538  10.640   9.769
  519POPC   PO411148  13.563  10.078   9.494
  519POPC   GL111149  13.662  10.420   9.180
  519POPC   GL211150  13.561  10.745   9.270
  519POPC   C1A11151  13.603  10.404   8.714
  519POPC   D2A11152  13.836  10.288   8.307
  519POPC   C3A11153  13.745  10.504   7.898
  519POPC   C4A11154  13.323  10.530   7.675
  519POPC   C1B11155  13.635  10.912   8.855
  519POPC   C2B11156  13.700  10.957   8.411
  519POPC   C3B11157  13.461  10.914   8.011
  519POPC   C4B11158  13.625  10.926   7.588
  520POPC   NC311159  25.845  21.051   9.505
  520POPC   PO411160  26.353  21.508   9.487
  520POPC   GL111161  26.042  21.512   9.206
  520POPC   GL211162  26.123  21.185   9.089
  520POPC   C1A11163  25.895  21.559   8.798
  520POPC   D2A11164  26.087  21.585   8.402
  520POPC   C3A11165  25.864  21.504   8.073
  520POPC   C4A11166  25.907  21.382   7.703
  520POPC   C1B11167  26.362  21.346   8.767
  520POPC   C2B11168  26.549  21.222   8.402
  520POPC   C3B11169  26.395  21.321   7.999
  520POPC   C4B11170  26.366  21.105   7.597
  521POPC   NC311171  13.135  40.337   9.712
  521POPC   PO411172  13.504  39.941   9.759
  521POPC   GL111173  13.487  40.021   9.277
  521POPC   GL211174  13.788  40.185   9.120
  521POPC   C1A11175  13.488  39.901   8.794
  521POPC   D2A11176  13.710  39.783   8.363
  521POPC   C3A11177  13.575  39.907   7.909
  521POPC   C4A11178  13.570  39.835   7.428
  521POPC   C1B11179  13.920  40.143   8.661
  521POPC   C2B11180  13.817  40.271   8.200
  521POPC   C3B11181  13.961  40.554   7.843
  521POPC   C4B11182  13.895  40.669   7.374
  522POPC   NC311183  14.792   2.680   9.663
  522POPC   PO411184  15.327   2.488   9.334
  522POPC   GL111185  15.145   2.596   8.993
  522POPC   GL211186  14.950   2.829   9.199
  522POPC   C1A11187  15.254   2.939   8.753
  522POPC   D2A11188  15.191   3.152   8.382
  522POPC   C3A11189  15.211   2.910   7.985
  522POPC   C4A11190  15.299   2.490   7.736
  522POPC   C1B11191  14.773   2.944   8.843
  522POPC   C2B11192  14.824   2.796   8.439
  522POPC   C3B11193  14.704   2.802   8.036
  522POPC   C4B11194  14.873   2.762   7.630
  523POPC   NC311195  31.564  28.052   9.595
  523POPC   PO411196  31.098  28.540   9.401
  523POPC   GL111197  31.288  28.263   9.160
  523POPC   GL211198  31.579  28.386   9.182
  523POPC   C1A11199  31.523  28.120   8.783
  523POPC   D2A11200  31.592  28.063   8.411
  523POPC   C3A11201  31.257  28.305   8.202
  523POPC   C4A11202  31.267  28.346   7.762
  523POPC   C1B11203  31.762  28.566   8.817
  523POPC   C2B11204  31.660  28.583   8.384
  523POPC   C3B11205  31.728  28.361   7.997
  523POPC   C4B11206  31.871  28.437   7.586
  524POPC   NC311207   7.819  16.207   9.560
  524POPC   PO411208   7.218  15.864   9.318
  524POPC   GL111209   7.342  16.105   9.038
  524POPC   GL211210   7.666  16.160   9.094
  524POPC   C1A11211   7.226  16.095   8.644
  524POPC   D2A11212   7.366  15.789   8.376
  524POPC   C3A11213   7.285  16.017   8.033
  524POPC   C4A11214   7.465  15.920   7.655
  524POPC   C1B11215   7.883  16.307   8.766
  524POPC   C2B11216   7.685  16.199   8.388
  524POPC   C3B11217   7.811  16.150   7.971
  524POPC   C4B11218   7.844  16.268   7.556
  525POPC   NC311219  28.654  36.097   9.341
  525POPC   PO411220  27.993  36.072   9.359
  525POPC   GL111221  28.274  35.964   9.021
  525POPC   GL211222  28.409  36.327   8.958
  525POPC   C1A11223  28.467  35.988   8.586
  525POPC   D2A11224  28.444  36.355   8.339
  525POPC   C3A11225  28.287  36.285   7.938
  525POPC   C4A11226  28.407  35.908   7.802
  525POPC   C1B11227  28.807  36.344   8.715
  525POPC   C2B11228  28.969  36.405   8.305
  525POPC   C3B11229  28.795  36.206   7.988
  525POPC   C4B11230  28.710  36.334   7.586
  526POPC   NC311231   1.420  20.347   9.517
  526POPC   PO411232   1.289  20.889   9.521
  526POPC   GL111233   1.201  20.653   9.134
  526POPC   GL211234   1.002  20.333   9.197
  526POPC   C1A11235   1.400  20.729   8.694
  526POPC   D2A11236   1.367  21.006   8.301
  526POPC   C3A11237   1.314  20.767   7.914
  526POPC   C4A11238   1.138  20.629   7.515
  526POPC   C1B11239   1.343  20.234   8.859
  526POPC   C2B11240   1.465  20.292   8.417
  526POPC   C3B11241   1.243  20.281   8.026
  526POPC   C4B11242   1.422  20.215   7.645
  527POPC   NC311243  21.093  33.641   9.549
  527POPC   PO411244  21.684  33.842   9.532
  527POPC   GL111245  21.616  33.831   9.124
  527POPC   GL211246  21.269  33.815   9.105
  527POPC   C1A11247  21.608  33.835   8.689
  527POPC   D2A11248  21.484  33.644   8.295
  527POPC   C3A11249  21.617  33.810   7.906
  527POPC   C4A11250  21.742  34.034   7.547
  527POPC   C1B11251  21.198  33.572   8.733
  527POPC   C2B11252  20.975  33.577   8.317
  527POPC   C3B11253  21.098  33.650   7.871
  527POPC   C4B11254  21.007  33.675   7.406
  528POPC   NC311255   9.708   1.427   9.470
  528POPC   PO411256   9.602   0.759   9.546
  528POPC   GL111257   9.785   0.989   9.186
  528POPC   GL211258   9.550   1.187   9.053
  528POPC   C1A11259   9.908   1.025   8.747
  528POPC   D2A11260   9.612   1.122   8.424
  528POPC   C3A11261   9.857   1.269   8.097
  528POPC   C4A11262  10.009   1.128   7.733
  528POPC   C1B11263   9.739   1.497   8.770
  528POPC   C2B11264   9.518   1.699   8.453
  528POPC   C3B11265   9.404   1.502   8.073
  528POPC   C4B11266   9.300   1.359   7.666
  529POPC   NC311267  10.395   3.543   9.423
  529POPC   PO411268  10.511   2.890   9.347
  529POPC   GL111269  10.486   3.177   9.048
  529POPC   GL211270  10.782   3.290   9.131
  529POPC   C1A11271  10.351   3.497   8.752
  529POPC   D2A11272  10.540   3.581   8.364
  529POPC   C3A11273  10.609   3.225   8.136
  529POPC   C4A11274  10.389   3.329   7.788
  529POPC   C1B11275  10.869   3.523   8.761
  529POPC   C2B11276  11.065   3.593   8.349
  529POPC   C3B11277  10.886   3.604   7.933
  529POPC   C4B11278  10.945   3.572   7.479
  530POPC   NC311279  25.561  34.586   9.608
  530POPC   PO411280  25.048  34.955   9.459
  530POPC   GL111281  25.175  34.800   9.074
  530POPC   GL211282  25.281  34.457   9.061
  530POPC   C1A11283  24.966  34.655   8.701
  530POPC   D2A11284  24.750  34.779   8.334
  530POPC   C3A11285  25.021  34.655   7.947
  530POPC   C4A11286  25.424  34.702   7.717
  530POPC   C1B11287  25.473  34.354   8.667
  530POPC   C2B11288  25.474  34.488   8.214
  530POPC   C3B11289  25.376  34.227   7.848
  530POPC   C4B11290  25.293  33.951   7.510
  531POPC   NC311291  44.379  30.630  10.069
  531POPC   PO411292  44.811  30.539   9.548
  531POPC   GL111293  44.626  30.772   9.235
  531POPC   GL211294  44.401  30.995   9.363
  531POPC   C1A11295  44.653  30.743   8.803
  531POPC   D2A11296  44.850  30.484   8.500
  531POPC   C3A11297  44.805  30.629   8.094
  531POPC   C4A11298  44.904  30.411   7.708
  531POPC   C1B11299  44.202  30.969   8.921
  531POPC   C2B11300  44.236  30.812   8.481
  531POPC   C3B11301  44.342  30.970   8.072
  531POPC   C4B11302  44.494  30.789   7.709
  532POPC   NC311303  21.952  35.901   9.478
  532POPC   PO411304  22.449  36.348   9.538
  532POPC   GL111305  22.262  36.187   9.181
  532POPC   GL211306  21.883  36.302   9.167
  532POPC   C1A11307  22.370  35.949   8.807
  532POPC   D2A11308  22.499  36.000   8.372
  532POPC   C3A11309  22.252  36.252   8.117
  532POPC   C4A11310  22.291  36.147   7.700
  532POPC   C1B11311  22.058  36.361   8.758
  532POPC   C2B11312  21.928  36.036   8.464
  532POPC   C3B11313  21.782  36.045   8.030
  532POPC   C4B11314  21.854  36.411   7.762
  533POPC   NC311315  24.917  33.697   9.466
  533POPC   PO411316  25.368  34.186   9.484
  533POPC   GL111317  25.418  33.964   9.110
  533POPC   GL211318  25.097  33.929   9.049
  533POPC   C1A11319  25.410  33.829   8.677
  533POPC   D2A11320  25.423  33.994   8.288
  533POPC   C3A11321  25.365  33.691   7.960
  533POPC   C4A11322  25.583  33.455   7.643
  533POPC   C1B11323  24.991  34.156   8.705
  533POPC   C2B11324  24.988  34.285   8.298
  533POPC   C3B11325  24.889  34.101   7.913
  533POPC   C4B11326  24.771  33.927   7.515
  534POPC   NC311327   8.503  16.888   9.300
  534POPC   PO411328   8.242  16.346   9.679
  534POPC   GL111329   8.118  16.529   9.205
  534POPC   GL211330   7.855  16.711   9.102
  534POPC   C1A11331   8.206  16.730   8.718
  534POPC   D2A11332   8.380  16.994   8.308
  534POPC   C3A11333   8.430  16.787   7.906
  534POPC   C4A11334   8.305  16.345   7.818
  534POPC   C1B11335   7.826  17.064   8.841
  534POPC   C2B11336   7.893  17.165   8.416
  534POPC   C3B11337   7.718  17.046   8.027
  534POPC   C4B11338   7.897  16.737   7.747
  535POPC   NC311339  40.834  44.057   9.668
  535POPC   PO411340  40.909  43.397   9.613
  535POPC   GL111341  40.833  43.690   9.234
  535POPC   GL211342  41.099  43.918   9.244
  535POPC   C1A11343  40.630  43.858   8.817
  535POPC   D2A11344  40.441  43.948   8.411
  535POPC   C3A11345  40.641  43.963   8.020
  535POPC   C4A11346  40.480  44.110   7.591
  535POPC   C1B11347  41.128  43.904   8.808
  535POPC   C2B11348  41.145  44.112   8.411
  535POPC   C3B11349  41.012  44.326   8.039
  535POPC   C4B11350  40.976  44.164   7.647
  536POPC   NC311351  40.132  44.756   9.757
  536POPC   PO411352  39.670  44.295   9.535
  536POPC   GL111353  39.760  44.430   9.141
  536POPC   GL211354  40.133  44.538   9.112
  536POPC   C1A11355  39.817  44.478   8.712
  536POPC   D2A11356  40.136  44.578   8.417
  536POPC   C3A11357  39.920  44.553   8.037
  536POPC   C4A11358  39.997  44.485   7.620
  536POPC   C1B11359  40.347  44.853   8.833
  536POPC   C2B11360  40.375   0.035   8.427
  536POPC   C3B11361  40.282  44.940   8.017
  536POPC   C4B11362  40.332   0.138   7.627
  537POPC   NC311363  24.689  14.008   9.555
  537POPC   PO411364  24.638  14.659   9.416
  537POPC   GL111365  24.604  14.335   9.076
  537POPC   GL211366  24.548  13.943   9.081
  537POPC   C1A11367  24.507  14.395   8.623
  537POPC   D2A11368  24.327  14.663   8.278
  537POPC   C3A11369  24.617  14.850   8.005
  537POPC   C4A11370  24.565  14.687   7.591
  537POPC   C1B11371  24.737  13.912   8.697
  537POPC   C2B11372  24.941  14.190   8.410
  537POPC   C3B11373  24.731  14.369   8.108
  537POPC   C4B11374  24.753  14.217   7.724
  538POPC   NC311375   8.676  32.841   9.464
  538POPC   PO411376   7.945  32.906   9.590
  538POPC   GL111377   8.086  33.076   9.170
  538POPC   GL211378   8.457  33.017   9.033
  538POPC   C1A11379   8.079  33.181   8.733
  538POPC   D2A11380   8.382  33.093   8.454
  538POPC   C3A11381   8.153  32.911   8.145
  538POPC   C4A11382   8.060  33.068   7.778
  538POPC   C1B11383   8.435  32.650   8.736
  538POPC   C2B11384   8.355  32.462   8.300
  538POPC   C3B11385   8.404  32.500   7.828
  538POPC   C4B11386   8.375  32.789   7.439
  539POPC   NC311387  24.866  15.068   9.572
  539POPC   PO411388  24.157  15.200   9.604
  539POPC   GL111389  24.548  15.174   9.217
  539POPC   GL211390  24.519  14.866   8.955
  539POPC   C1A11391  24.829  15.238   8.835
  539POPC   D2A11392  24.953  15.074   8.409
  539POPC   C3A11393  24.848  15.311   8.037
  539POPC   C4A11394  24.512  15.237   7.694
  539POPC   C1B11395  24.447  15.079   8.538
  539POPC   C2B11396  24.257  15.209   8.152
  539POPC   C3B11397  24.063  15.020   7.783
  539POPC   C4B11398  24.227  15.051   7.310
  540POPC   NC311399  28.341  34.160   9.517
  540POPC   PO411400  28.981  33.921   9.485
  540POPC   GL111401  28.608  33.883   9.185
  540POPC   GL211402  28.467  33.548   9.143
  540POPC   C1A11403  28.278  33.982   8.834
  540POPC   D2A11404  28.041  33.885   8.428
  540POPC   C3A11405  28.143  33.941   7.993
  540POPC   C4A11406  28.333  33.806   7.604
  540POPC   C1B11407  28.689  33.562   8.766
  540POPC   C2B11408  28.477  33.587   8.376
  540POPC   C3B11409  28.367  33.440   7.970
  540POPC   C4B11410  28.698  33.445   7.647
  541POPC   NC311411  41.468  36.360   9.321
  541POPC   PO411412  41.997  35.944   9.352
  541POPC   GL111413  41.786  36.092   8.980
  541POPC   GL211414  41.434  35.952   8.950
  541POPC   C1A11415  41.713  36.228   8.541
  541POPC   D2A11416  41.597  36.545   8.207
  541POPC   C3A11417  41.700  36.420   7.775
  541POPC   C4A11418  41.554  36.016   7.683
  541POPC   C1B11419  41.177  36.292   8.723
  541POPC   C2B11420  41.008  36.443   8.316
  541POPC   C3B11421  41.192  36.420   7.891
  541POPC   C4B11422  41.270  36.441   7.450
  542POPC   NC311423  14.137   5.459   9.730
  542POPC   PO411424  14.302   6.053   9.647
  542POPC   GL111425  14.385   5.867   9.217
  542POPC   GL211426  14.318   5.505   9.215
  542POPC   C1A11427  14.624   5.925   8.816
  542POPC   D2A11428  14.559   6.137   8.400
  542POPC   C3A11429  14.649   6.018   7.998
  542POPC   C4A11430  14.250   5.980   7.768
  542POPC   C1B11431  14.523   5.403   8.804
  542POPC   C2B11432  14.637   5.607   8.385
  542POPC   C3B11433  14.499   5.533   7.939
  542POPC   C4B11434  14.655   5.731   7.559
  543POPC   NC311435  20.638  24.353  10.018
  543POPC   PO411436  20.618  24.522   9.430
  543POPC   GL111437  20.425  24.466   9.061
  543POPC   GL211438  20.238  24.736   9.095
  543POPC   C1A11439  20.508  24.555   8.619
  543POPC   D2A11440  20.896  24.462   8.398
  543POPC   C3A11441  20.896  24.464   7.953
  543POPC   C4A11442  20.557  24.322   7.715
  543POPC   C1B11443  20.144  24.897   8.716
  543POPC   C2B11444  20.291  24.934   8.288
  543POPC   C3B11445  20.526  24.823   7.928
  543POPC   C4B11446  20.604  24.907   7.519
  544POPC   NC311447   5.399  21.247   9.637
  544POPC   PO411448   6.102  21.277   9.467
  544POPC   GL111449   5.798  21.291   9.167
  544POPC   GL211450   5.685  21.599   9.287
  544POPC   C1A11451   5.927  21.355   8.731
  544POPC   D2A11452   5.956  21.169   8.383
  544POPC   C3A11453   5.883  21.438   8.066
  544POPC   C4A11454   5.858  21.225   7.673
  544POPC   C1B11455   5.575  21.685   8.844
  544POPC   C2B11456   5.594  21.803   8.369
  544POPC   C3B11457   5.388  21.636   7.970
  544POPC   C4B11458   5.514  21.583   7.520
  545POPC   NC311459  40.170  28.266   9.379
  545POPC   PO411460  39.680  28.282   9.875
  545POPC   GL111461  39.736  28.519   9.403
  545POPC   GL211462  39.669  28.395   9.071
  545POPC   C1A11463  40.016  28.794   9.048
  545POPC   D2A11464  40.224  28.681   8.665
  545POPC   C3A11465  40.138  28.709   8.210
  545POPC   C4A11466  40.162  28.645   7.779
  545POPC   C1B11467  39.914  28.191   8.734
  545POPC   C2B11468  40.153  28.198   8.386
  545POPC   C3B11469  39.898  28.283   8.066
  545POPC   C4B11470  39.740  28.038   7.771
  546POPC   NC311471  35.192  13.494   9.524
  546POPC   PO411472  35.519  14.132   9.651
  546POPC   GL111473  35.343  13.930   9.290
  546POPC   GL211474  35.539  13.615   9.167
  546POPC   C1A11475  35.363  14.002   8.853
  546POPC   D2A11476  35.330  14.082   8.405
  546POPC   C3A11477  35.436  13.737   8.129
  546POPC   C4A11478  35.202  13.620   7.767
  546POPC   C1B11479  35.346  13.421   8.800
  546POPC   C2B11480  35.403  13.225   8.390
  546POPC   C3B11481  35.587  13.259   7.968
  546POPC   C4B11482  35.519  13.327   7.512
  547POPC   NC311483  36.264  11.433   9.559
  547POPC   PO411484  35.743  11.059   9.437
  547POPC   GL111485  35.979  11.377   9.140
  547POPC   GL211486  36.376  11.308   9.098
  547POPC   C1A11487  36.104  11.564   8.759
  547POPC   D2A11488  36.397  11.530   8.449
  547POPC   C3A11489  36.200  11.506   8.051
  547POPC   C4A11490  35.971  11.408   7.675
  547POPC   C1B11491  36.348  11.075   8.731
  547POPC   C2B11492  36.052  11.138   8.430
  547POPC   C3B11493  36.023  11.030   8.037
  547POPC   C4B11494  36.330  11.038   7.733
  548POPC   NC311495   9.781  25.940   9.678
  548POPC   PO411496   9.239  26.276   9.411
  548POPC   GL111497   9.567  26.300   9.073
  548POPC   GL211498   9.829  26.177   9.235
  548POPC   C1A11499   9.564  26.292   8.609
  548POPC   D2A11500   9.621  25.942   8.320
  548POPC   C3A11501   9.655  25.833   7.877
  548POPC   C4A11502   9.934  25.827   7.518
  548POPC   C1B11503   9.963  26.027   8.851
  548POPC   C2B11504  10.060  26.165   8.478
  548POPC   C3B11505  10.073  26.052   8.093
  548POPC   C4B11506  10.263  26.096   7.742
  549POPC   NC311507  12.107  22.062   9.466
  549POPC   PO411508  11.726  22.676   9.302
  549POPC   GL111509  11.928  22.413   9.038
  549POPC   GL211510  12.067  22.092   8.953
  549POPC   C1A11511  11.907  22.425   8.595
  549POPC   D2A11512  11.899  22.130   8.259
  549POPC   C3A11513  11.875  22.224   7.831
  549POPC   C4A11514  11.837  22.013   7.482
  549POPC   C1B11515  12.458  22.010   8.797
  549POPC   C2B11516  12.549  21.873   8.394
  549POPC   C3B11517  12.331  21.960   8.019
  549POPC   C4B11518  12.338  22.098   7.618
  550POPC   NC311519  16.610   8.739   9.762
  550POPC   PO411520  17.123   8.605   9.357
  550POPC   GL111521  16.846   8.947   9.203
  550POPC   GL211522  16.478   9.018   9.291
  550POPC   C1A11523  16.941   9.181   8.842
  550POPC   D2A11524  16.913   9.192   8.416
  550POPC   C3A11525  16.954   8.858   8.127
  550POPC   C4A11526  16.992   9.055   7.734
  550POPC   C1B11527  16.474   8.916   8.858
  550POPC   C2B11528  16.534   8.867   8.438
  550POPC   C3B11529  16.512   9.132   8.079
  550POPC   C4B11530  16.502   8.872   7.730
  551POPC   NC311531   3.732  44.596   9.263
  551POPC   PO411532   4.443  44.821   9.414
  551POPC   GL111533   4.201  44.728   9.112
  551POPC   GL211534   3.997   0.038   9.212
  551POPC   C1A11535   4.356  44.622   8.703
  551POPC   D2A11536   4.600  44.742   8.330
  551POPC   C3A11537   4.429  44.537   7.971
  551POPC   C4A11538   4.316  44.547   7.552
  551POPC   C1B11539   4.170   0.112   8.785
  551POPC   C2B11540   4.093  44.908   8.349
  551POPC   C3B11541   3.975  44.773   7.904
  551POPC   C4B11542   3.936  44.844   7.425
  552POPC   NC311543  34.695  35.162   9.428
  552POPC   PO411544  34.070  35.242   9.512
  552POPC   GL111545  34.258  35.333   9.099
  552POPC   GL211546  34.595  35.375   8.979
  552POPC   C1A11547  34.135  35.568   8.764
  552POPC   D2A11548  33.972  35.576   8.380
  552POPC   C3A11549  34.242  35.439   8.044
  552POPC   C4A11550  34.504  35.210   7.740
  552POPC   C1B11551  34.770  35.321   8.599
  552POPC   C2B11552  34.774  35.289   8.181
  552POPC   C3B11553  34.710  35.619   7.937
  552POPC   C4B11554  34.798  35.681   7.512
  553POPC   NC311555  39.603   9.695   9.877
  553POPC   PO411556  39.074   9.458   9.616
  553POPC   GL111557  39.196   9.779   9.244
  553POPC   GL211558  38.931  10.019   9.136
  553POPC   C1A11559  39.329  10.010   8.835
  553POPC   D2A11560  39.250   9.878   8.393
  553POPC   C3A11561  39.097   9.934   7.964
  553POPC   C4A11562  39.296   9.814   7.526
  553POPC   C1B11563  38.926   9.681   8.798
  553POPC   C2B11564  38.827   9.581   8.346
  553POPC   C3B11565  39.102   9.433   8.004
  553POPC   C4B11566  39.038   9.357   7.555
  554POPC   NC311567  40.853  25.866   9.782
  554POPC   PO411568  40.376  26.236   9.560
  554POPC   GL111569  40.768  26.180   9.281
  554POPC   GL211570  40.891  26.533   9.210
  554POPC   C1A11571  40.827  25.943   8.841
  554POPC   D2A11572  40.708  25.821   8.358
  554POPC   C3A11573  40.971  25.847   7.947
  554POPC   C4A11574  41.111  26.047   7.530
  554POPC   C1B11575  40.680  26.442   8.814
  554POPC   C2B11576  40.843  26.324   8.421
  554POPC   C3B11577  40.647  26.248   8.036
  554POPC   C4B11578  40.664  26.290   7.599
  555POPC   NC311579  18.074  22.698   9.495
  555POPC   PO411580  18.352  23.308   9.514
  555POPC   GL111581  18.141  23.088   9.157
  555POPC   GL211582  17.777  23.199   9.080
  555POPC   C1A11583  18.333  22.940   8.742
  555POPC   D2A11584  18.561  22.869   8.359
  555POPC   C3A11585  18.511  22.992   7.923
  555POPC   C4A11586  18.291  23.143   7.534
  555POPC   C1B11587  17.828  22.926   8.718
  555POPC   C2B11588  18.034  23.035   8.313
  555POPC   C3B11589  17.943  22.978   7.878
  555POPC   C4B11590  17.987  22.701   7.523
  556POPC   NC311591  42.609   2.557   9.861
  556POPC   PO411592  43.068   2.310   9.504
  556POPC   GL111593  43.011   2.622   9.246
  556POPC   GL211594  42.782   2.503   9.010
  556POPC   C1A11595  43.228   2.678   8.857
  556POPC   D2A11596  43.004   2.439   8.532
  556POPC   C3A11597  43.115   2.545   8.133
  556POPC   C4A11598  43.106   2.684   7.732
  556POPC   C1B11599  42.779   2.871   8.724
  556POPC   C2B11600  42.853   2.986   8.323
  556POPC   C3B11601  42.679   2.860   7.949
  556POPC   C4B11602  42.696   2.906   7.495
  557POPC   NC311603   5.431   9.176   9.488
  557POPC   PO411604   4.955   8.763   9.676
  557POPC   GL111605   4.965   8.945   9.221
  557POPC   GL211606   5.113   9.305   9.094
  557POPC   C1A11607   4.906   8.977   8.757
  557POPC   D2A11608   5.058   9.291   8.428
  557POPC   C3A11609   5.017   9.130   7.997
  557POPC   C4A11610   5.088   8.728   7.768
  557POPC   C1B11611   5.463   9.351   8.752
  557POPC   C2B11612   5.587   9.258   8.284
  557POPC   C3B11613   5.483   9.060   7.832
  557POPC   C4B11614   5.344   8.973   7.371
  558POPC   NC311615  20.051  10.352   9.485
  558POPC   PO411616  19.610  10.906   9.456
  558POPC   GL111617  19.889  10.814   9.118
  558POPC   GL211618  19.984  10.465   9.007
  558POPC   C1A11619  19.789  10.762   8.656
  558POPC   D2A11620  19.908  10.423   8.453
  558POPC   C3A11621  19.875  10.563   8.076
  558POPC   C4A11622  19.915  10.386   7.741
  558POPC   C1B11623  19.559  10.369   8.864
  558POPC   C2B11624  19.408  10.442   8.411
  558POPC   C3B11625  19.471  10.270   8.005
  558POPC   C4B11626  19.435  10.376   7.594
  559POPC   NC311627   0.115  38.859   9.360
  559POPC   PO411628   0.461  39.369   9.565
  559POPC   GL111629   0.515  39.115   9.173
  559POPC   GL211630   0.235  39.211   9.028
  559POPC   C1A11631   0.629  39.063   8.755
  559POPC   D2A11632   0.374  39.234   8.417
  559POPC   C3A11633   0.479  39.067   8.017
  559POPC   C4A11634   0.497  39.321   7.661
  559POPC   C1B11635   0.033  39.461   8.760
  559POPC   C2B11636  44.886  39.421   8.364
  559POPC   C3B11637   0.116  39.445   8.007
  559POPC   C4B11638   0.021  39.514   7.595
  560POPC   NC311639  36.508   1.381   9.461
  560POPC   PO411640  37.118   1.211   9.450
  560POPC   GL111641  37.061   1.113   9.023
  560POPC   GL211642  36.721   1.045   8.969
  560POPC   C1A11643  37.132   1.075   8.604
  560POPC   D2A11644  37.188   1.389   8.298
  560POPC   C3A11645  36.981   1.204   7.962
  560POPC   C4A11646  37.175   0.921   7.658
  560POPC   C1B11647  36.772   1.482   8.805
  560POPC   C2B11648  36.792   1.705   8.381
  560POPC   C3B11649  36.697   1.634   7.912
  560POPC   C4B11650  36.407   1.432   7.600
  561POPC   NC311651   1.779   0.980   9.451
  561POPC   PO411652   1.577   1.666   9.332
  561POPC   GL111653   1.815   1.357   9.058
  561POPC   GL211654   1.919   0.975   8.978
  561POPC   C1A11655   2.079   1.444   8.716
  561POPC   D2A11656   2.250   1.601   8.340
  561POPC   C3A11657   1.947   1.475   8.001
  561POPC   C4A11658   1.851   1.380   7.576
  561POPC   C1B11659   2.230   0.964   8.687
  561POPC   C2B11660   2.218   1.105   8.261
  561POPC   C3B11661   2.004   0.970   7.902
  561POPC   C4B11662   1.687   0.882   7.628
  562POPC   NC311663  10.947   4.170   9.500
  562POPC   PO411664  11.600   4.089   9.577
  562POPC   GL111665  11.399   4.168   9.151
  562POPC   GL211666  11.147   4.452   9.131
  562POPC   C1A11667  11.348   4.308   8.694
  562POPC   D2A11668  11.123   4.271   8.303
  562POPC   C3A11669  11.377   4.285   7.968
  562POPC   C4A11670  11.783   4.133   7.858
  562POPC   C1B11671  10.871   4.495   8.754
  562POPC   C2B11672  10.703   4.549   8.329
  562POPC   C3B11673  10.882   4.620   7.896
  562POPC   C4B11674  10.940   4.551   7.420
  563POPC   NC311675  20.662  10.179   9.427
  563POPC   PO411676  20.365  10.720   9.453
  563POPC   GL111677  20.487  10.561   9.093
  563POPC   GL211678  20.832  10.485   9.026
  563POPC   C1A11679  20.405  10.440   8.690
  563POPC   D2A11680  20.362  10.255   8.314
  563POPC   C3A11681  20.367  10.469   7.933
  563POPC   C4A11682  20.343  10.248   7.515
  563POPC   C1B11683  20.898  10.669   8.597
  563POPC   C2B11684  20.863  10.531   8.149
  563POPC   C3B11685  20.808  10.321   7.740
  563POPC   C4B11686  20.705  10.557   7.339
  564POPC   NC311687  16.442   2.723   9.410
  564POPC   PO411688  16.942   3.088   9.598
  564POPC   GL111689  16.894   2.834   9.200
  564POPC   GL211690  16.889   2.466   9.214
  564POPC   C1A11691  16.727   2.827   8.786
  564POPC   D2A11692  16.533   2.514   8.497
  564POPC   C3A11693  16.462   2.617   8.045
  564POPC   C4A11694  16.267   2.625   7.604
  564POPC   C1B11695  16.987   2.387   8.774
  564POPC   C2B11696  17.027   2.663   8.407
  564POPC   C3B11697  16.941   2.817   8.026
  564POPC   C4B11698  16.791   2.687   7.645
  565POPC   NC311699  12.606  14.860   9.584
  565POPC   PO411700  13.015  14.316   9.629
  565POPC   GL111701  12.877  14.440   9.259
  565POPC   GL211702  13.200  14.381   9.150
  565POPC   C1A11703  12.744  14.310   8.846
  565POPC   D2A11704  12.761  14.110   8.466
  565POPC   C3A11705  12.639  14.267   8.083
  565POPC   C4A11706  12.795  14.050   7.734
  565POPC   C1B11707  13.263  14.660   8.859
  565POPC   C2B11708  13.148  14.440   8.509
  565POPC   C3B11709  13.136  14.283   8.114
  565POPC   C4B11710  13.270  14.445   7.762
  566POPC   NC311711   2.857  44.346   9.359
  566POPC   PO411712   2.796  43.668   9.471
  566POPC   GL111713   3.033  43.627   9.098
  566POPC   GL211714   3.133  43.964   9.099
  566POPC   C1A11715   2.933  43.644   8.667
  566POPC   D2A11716   2.606  43.776   8.387
  566POPC   C3A11717   2.817  43.884   8.049
  566POPC   C4A11718   2.930  43.687   7.685
  566POPC   C1B11719   2.981  44.155   8.731
  566POPC   C2B11720   2.736  44.282   8.425
  566POPC   C3B11721   2.952  44.407   8.080
  566POPC   C4B11722   2.918  44.262   7.668
  567POPC   NC311723   1.025  11.891   9.560
  567POPC   PO411724   1.334  12.491   9.554
  567POPC   GL111725   1.258  12.182   9.197
  567POPC   GL211726   0.887  12.045   9.115
  567POPC   C1A11727   1.165  12.185   8.736
  567POPC   D2A11728   1.281  12.022   8.364
  567POPC   C3A11729   1.181  12.183   7.946
  567POPC   C4A11730   1.270  11.935   7.563
  567POPC   C1B11731   0.775  11.838   8.713
  567POPC   C2B11732   0.783  11.928   8.235
  567POPC   C3B11733   0.772  11.960   7.752
  567POPC   C4B11734   0.892  12.232   7.386
  568POPC   NC311735  37.674  12.440   9.557
  568POPC   PO411736  37.828  11.789   9.580
  568POPC   GL111737  37.806  12.000   9.211
  568POPC   GL211738  37.488  12.041   9.237
  568POPC   C1A11739  37.674  11.856   8.791
  568POPC   D2A11740  37.940  11.810   8.426
  568POPC   C3A11741  37.756  12.043   8.081
  568POPC   C4A11742  37.864  12.095   7.634
  568POPC   C1B11743  37.465  12.321   8.908
  568POPC   C2B11744  37.645  12.452   8.525
  568POPC   C3B11745  37.407  12.438   8.144
  568POPC   C4B11746  37.407  12.283   7.762
  569POPC   NC311747  38.677  36.367   9.115
  569POPC   PO411748  38.436  35.807   9.417
  569POPC   GL111749  38.384  35.947   9.060
  569POPC   GL211750  38.125  36.141   9.160
  569POPC   C1A11751  38.423  35.925   8.644
  569POPC   D2A11752  38.343  36.251   8.394
  569POPC   C3A11753  38.327  36.109   8.002
  569POPC   C4A11754  38.644  36.298   7.848
  569POPC   C1B11755  37.952  36.226   8.759
  569POPC   C2B11756  37.857  36.379   8.350
  569POPC   C3B11757  37.901  36.362   7.906
  569POPC   C4B11758  37.958  36.020   7.586
  570POPC   NC311759  27.100  11.366   9.412
  570POPC   PO411760  26.444  11.250   9.509
  570POPC   GL111761  26.699  11.154   9.156
  570POPC   GL211762  26.672  11.491   9.080
  570POPC   C1A11763  26.970  11.220   8.756
  570POPC   D2A11764  26.911  11.444   8.335
  570POPC   C3A11765  26.873  11.264   7.910
  570POPC   C4A11766  27.031  11.308   7.489
  570POPC   C1B11767  26.493  11.399   8.679
  570POPC   C2B11768  26.413  11.582   8.291
  570POPC   C3B11769  26.409  11.475   7.859
  570POPC   C4B11770  26.226  11.077   7.736
  571POPC   NC311771  16.865   5.285   9.445
  571POPC   PO411772  16.539   4.778   9.535
  571POPC   GL111773  16.551   5.027   9.141
  571POPC   GL211774  16.894   5.085   8.983
  571POPC   C1A11775  16.441   4.984   8.721
  571POPC   D2A11776  16.819   4.965   8.472
  571POPC   C3A11777  16.772   5.060   8.038
  571POPC   C4A11778  16.456   5.000   7.686
  571POPC   C1B11779  17.086   5.422   8.743
  571POPC   C2B11780  17.126   5.602   8.331
  571POPC   C3B11781  16.946   5.532   7.955
  571POPC   C4B11782  16.921   5.278   7.595
  572POPC   NC311783  16.437  20.046   9.328
  572POPC   PO411784  15.858  19.650   9.543
  572POPC   GL111785  15.950  19.948   9.240
  572POPC   GL211786  16.181  19.685   9.090
  572POPC   C1A11787  16.075  20.096   8.794
  572POPC   D2A11788  16.005  19.876   8.424
  572POPC   C3A11789  16.079  19.978   8.015
  572POPC   C4A11790  16.119  19.746   7.650
  572POPC   C1B11791  15.777  19.687   8.858
  572POPC   C2B11792  15.500  19.723   8.513
  572POPC   C3B11793  15.572  19.884   8.130
  572POPC   C4B11794  15.607  19.743   7.743
  573POPC   NC311795   8.114  31.471   9.489
  573POPC   PO411796   8.724  31.471   9.468
  573POPC   GL111797   8.425  31.619   9.109
  573POPC   GL211798   8.036  31.784   9.063
  573POPC   C1A11799   8.186  31.399   8.792
  573POPC   D2A11800   8.278  31.311   8.393
  573POPC   C3A11801   8.311  31.525   8.038
  573POPC   C4A11802   8.261  31.155   7.798
  573POPC   C1B11803   7.757  31.661   8.679
  573POPC   C2B11804   7.818  31.599   8.220
  573POPC   C3B11805   7.889  31.524   7.745
  573POPC   C4B11806   7.885  31.672   7.281
  574POPC   NC311807   8.503  17.614   9.397
  574POPC   PO411808   8.903  17.067   9.472
  574POPC   GL111809   8.982  17.420   9.195
  574POPC   GL211810   8.692  17.285   9.042
  574POPC   C1A11811   9.227  17.653   8.852
  574POPC   D2A11812   9.144  17.858   8.469
  574POPC   C3A11813   9.110  17.705   8.053
  574POPC   C4A11814   9.097  17.938   7.696
  574POPC   C1B11815   8.752  17.553   8.728
  574POPC   C2B11816   8.776  17.452   8.344
  574POPC   C3B11817   8.656  17.307   7.962
  574POPC   C4B11818   8.829  17.491   7.622
  575POPC   NC311819  16.526  11.763   9.376
  575POPC   PO411820  17.064  12.180   9.505
  575POPC   GL111821  16.754  12.168   9.120
  575POPC   GL211822  16.379  12.212   9.144
  575POPC   C1A11823  16.619  12.001   8.679
  575POPC   D2A11824  16.763  11.736   8.299
  575POPC   C3A11825  16.944  11.900   7.904
  575POPC   C4A11826  16.974  11.820   7.429
  575POPC   C1B11827  16.172  12.247   8.743
  575POPC   C2B11828  16.301  12.286   8.338
  575POPC   C3B11829  16.525  12.155   8.003
  575POPC   C4B11830  16.758  12.257   7.608
  576POPC   NC311831  28.228  37.549   9.556
  576POPC   PO411832  28.712  37.935   9.450
  576POPC   GL111833  28.415  37.704   9.106
  576POPC   GL211834  28.108  37.431   9.088
  576POPC   C1A11835  28.278  37.750   8.680
  576POPC   D2A11836  28.234  37.518   8.294
  576POPC   C3A11837  28.446  37.707   7.985
  576POPC   C4A11838  28.654  37.652   7.584
  576POPC   C1B11839  27.890  37.436   8.723
  576POPC   C2B11840  27.796  37.737   8.419
  576POPC   C3B11841  27.920  37.805   7.993
  576POPC   C4B11842  28.124  37.603   7.633
  577POPC   NC311843  10.048  29.930   9.731
  577POPC   PO411844   9.661  29.703   9.152
  577POPC   GL111845   9.655  30.101   8.961
  577POPC   GL211846   9.385  30.275   9.014
  577POPC   C1A11847   9.580  30.026   8.567
  577POPC   D2A11848   9.673  29.638   8.381
  577POPC   C3A11849   9.616  29.739   7.981
  577POPC   C4A11850   9.968  29.910   7.761
  577POPC   C1B11851   9.309  30.508   8.662
  577POPC   C2B11852   9.353  30.389   8.241
  577POPC   C3B11853   9.546  30.226   7.883
  577POPC   C4B11854   9.315  30.031   7.522
  578POPC   NC311855   5.632  43.396   9.594
  578POPC   PO411856   6.166  43.077   9.380
  578POPC   GL111857   5.854  43.280   9.155
  578POPC   GL211858   5.563  43.057   9.194
  578POPC   C1A11859   5.821  43.313   8.733
  578POPC   D2A11860   6.069  42.993   8.566
  578POPC   C3A11861   6.125  43.074   8.146
  578POPC   C4A11862   6.121  42.923   7.750
  578POPC   C1B11863   5.596  42.853   8.791
  578POPC   C2B11864   5.598  43.004   8.336
  578POPC   C3B11865   5.627  42.952   7.876
  578POPC   C4B11866   5.622  43.161   7.442
  579POPC   NC311867  31.871  26.644   9.832
  579POPC   PO411868  31.278  26.920   9.528
  579POPC   GL111869  31.514  26.909   9.177
  579POPC   GL211870  31.840  26.979   9.165
  579POPC   C1A11871  31.593  26.799   8.752
  579POPC   D2A11872  31.382  26.707   8.391
  579POPC   C3A11873  31.440  26.951   8.044
  579POPC   C4A11874  31.273  26.784   7.705
  579POPC   C1B11875  32.024  27.116   8.783
  579POPC   C2B11876  32.168  27.145   8.381
  579POPC   C3B11877  31.964  27.028   7.991
  579POPC   C4B11878  31.756  26.894   7.619
  580POPC   NC311879  22.013  21.526   9.470
  580POPC   PO411880  22.528  21.079   9.327
  580POPC   GL111881  22.223  21.276   9.070
  580POPC   GL211882  22.310  21.626   9.038
  580POPC   C1A11883  22.056  21.324   8.646
  580POPC   D2A11884  22.057  21.515   8.246
  580POPC   C3A11885  22.109  21.263   7.809
  580POPC   C4A11886  22.056  21.043   7.376
  580POPC   C1B11887  22.622  21.738   8.710
  580POPC   C2B11888  22.694  21.621   8.278
  580POPC   C3B11889  22.405  21.698   7.932
  580POPC   C4B11890  22.445  21.757   7.503
  581POPC   NC311891  37.289  36.049   9.614
  581POPC   PO411892  36.701  36.341   9.704
  581POPC   GL111893  36.827  36.069   9.330
  581POPC   GL211894  36.780  36.368   9.169
  581POPC   C1A11895  36.973  36.020   8.864
  581POPC   D2A11896  37.098  36.202   8.462
  581POPC   C3A11897  37.084  36.035   8.041
  581POPC   C4A11898  36.760  35.856   7.874
  581POPC   C1B11899  36.950  36.588   8.831
  581POPC   C2B11900  36.814  36.634   8.429
  581POPC   C3B11901  36.614  36.592   8.057
  581POPC   C4B11902  36.792  36.371   7.780
  582POPC   NC311903  41.005  35.554   9.365
  582POPC   PO411904  40.406  35.315   9.410
  582POPC   GL111905  40.625  35.409   9.072
  582POPC   GL211906  40.869  35.115   9.119
  582POPC   C1A11907  40.809  35.539   8.709
  582POPC   D2A11908  40.767  35.286   8.373
  582POPC   C3A11909  40.907  35.437   7.978
  582POPC   C4A11910  40.766  35.577   7.561
  582POPC   C1B11911  40.542  34.979   8.815
  582POPC   C2B11912  40.424  34.884   8.411
  582POPC   C3B11913  40.472  35.067   8.028
  582POPC   C4B11914  40.706  35.087   7.682
  583POPC   NC311915  33.041  41.842   9.460
  583POPC   PO411916  32.871  41.189   9.406
  583POPC   GL111917  33.050  41.384   9.081
  583POPC   GL211918  33.100  41.733   8.977
  583POPC   C1A11919  32.955  41.377   8.643
  583POPC   D2A11920  33.106  41.383   8.256
  583POPC   C3A11921  32.812  41.391   7.942
  583POPC   C4A11922  33.125  41.325   7.617
  583POPC   C1B11923  32.713  41.831   8.744
  583POPC   C2B11924  32.598  41.757   8.339
  583POPC   C3B11925  32.949  41.862   8.128
  583POPC   C4B11926  33.092  41.850   7.746
  584POPC   NC311927  36.955  28.838   9.548
  584POPC   PO411928  37.255  29.369   9.219
  584POPC   GL111929  37.088  29.022   9.081
  584POPC   GL211930  36.853  29.158   8.861
  584POPC   C1A11931  37.109  28.772   8.702
  584POPC   D2A11932  37.143  28.857   8.239
  584POPC   C3A11933  36.994  29.152   7.965
  584POPC   C4A11934  36.899  28.908   7.588
  584POPC   C1B11935  36.669  29.423   8.583
  584POPC   C2B11936  36.550  29.239   8.211
  584POPC   C3B11937  36.531  29.224   7.769
  584POPC   C4B11938  36.843  29.432   7.508
  585POPC   NC311939   5.048  22.969   9.609
  585POPC   PO411940   5.420  22.436   9.462
  585POPC   GL111941   5.194  22.762   9.187
  585POPC   GL211942   5.392  23.106   9.245
  585POPC   C1A11943   4.954  23.043   8.855
  585POPC   D2A11944   4.747  23.216   8.450
  585POPC   C3A11945   4.955  23.076   8.057
  585POPC   C4A11946   5.118  22.723   7.762
  585POPC   C1B11947   5.448  22.961   8.825
  585POPC   C2B11948   5.399  22.627   8.528
  585POPC   C3B11949   5.432  22.819   8.136
  585POPC   C4B11950   5.397  23.182   7.827
  586POPC   NC311951   7.393  38.366   9.456
  586POPC   PO411952   7.680  39.012   9.398
  586POPC   GL111953   7.613  38.667   9.104
  586POPC   GL211954   7.696  38.270   9.052
  586POPC   C1A11955   7.296  38.605   8.778
  586POPC   D2A11956   7.176  38.787   8.374
  586POPC   C3A11957   7.230  38.499   8.029
  586POPC   C4A11958   7.372  38.420   7.637
  586POPC   C1B11959   7.849  38.480   8.705
  586POPC   C2B11960   7.644  38.508   8.334
  586POPC   C3B11961   7.779  38.380   7.949
  586POPC   C4B11962   7.821  38.701   7.665
  587POPC   NC311963   6.650  12.544   9.762
  587POPC   PO411964   6.290  11.964   9.658
  587POPC   GL111965   6.566  12.208   9.364
  587POPC   GL211966   6.909  12.184   9.196
  587POPC   C1A11967   6.469  12.294   8.931
  587POPC   D2A11968   6.331  12.314   8.513
  587POPC   C3A11969   6.633  12.094   8.229
  587POPC   C4A11970   6.734  11.810   7.861
  587POPC   C1B11971   6.956  12.149   8.720
  587POPC   C2B11972   7.065  12.343   8.312
  587POPC   C3B11973   6.986  12.243   7.862
  587POPC   C4B11974   7.052  12.474   7.462
  588POPC   NC311975  12.989  16.571   9.900
  588POPC   PO411976  13.549  16.861   9.522
  588POPC   GL111977  13.572  16.827   9.078
  588POPC   GL211978  13.593  16.486   8.925
  588POPC   C1A11979  13.613  16.891   8.622
  588POPC   D2A11980  13.740  17.160   8.273
  588POPC   C3A11981  13.649  16.895   7.924
  588POPC   C4A11982  13.702  16.819   7.500
  588POPC   C1B11983  13.196  16.623   8.811
  588POPC   C2B11984  13.235  16.469   8.426
  588POPC   C3B11985  13.541  16.437   8.143
  588POPC   C4B11986  13.433  16.455   7.732
  589POPC   NC311987  17.690  30.477   9.548
  589POPC   PO411988  17.069  30.747   9.394
  589POPC   GL111989  17.460  30.650   9.154
  589POPC   GL211990  17.819  30.646   9.096
  589POPC   C1A11991  17.478  30.442   8.749
  589POPC   D2A11992  17.247  30.618   8.430
  589POPC   C3A11993  17.438  30.593   8.046
  589POPC   C4A11994  17.334  30.869   7.732
  589POPC   C1B11995  17.660  30.909   8.783
  589POPC   C2B11996  17.747  30.815   8.386
  589POPC   C3B11997  17.846  30.888   7.959
  589POPC   C4B11998  17.759  31.034   7.538
  590POPC   NC311999  22.880   7.817   9.417
  590POPC   PO412000  23.086   8.401   9.430
  590POPC   GL112001  22.968   8.182   9.060
  590POPC   GL212002  23.294   8.015   9.021
  590POPC   C1A12003  22.869   8.221   8.612
  590POPC   D2A12004  23.042   8.259   8.176
  590POPC   C3A12005  22.737   8.191   7.839
  590POPC   C4A12006  22.802   8.357   7.402
  590POPC   C1B12007  23.317   7.740   8.657
  590POPC   C2B12008  23.310   7.583   8.249
  590POPC   C3B12009  23.080   7.794   7.914
  590POPC   C4B12010  23.216   8.166   7.668
  591POPC   NC312011  12.704   1.119   9.370
  591POPC   PO412012  13.143   1.581   9.614
  591POPC   GL112013  13.159   1.484   9.120
  591POPC   GL212014  13.058   1.169   9.026
  591POPC   C1A12015  13.133   1.446   8.612
  591POPC   D2A12016  12.825   1.390   8.263
  591POPC   C3A12017  12.943   1.280   7.863
  591POPC   C4A12018  12.883   1.591   7.564
  591POPC   C1B12019  12.690   1.243   8.728
  591POPC   C2B12020  12.584   0.948   8.417
  591POPC   C3B12021  12.557   0.866   8.009
  591POPC   C4B12022  12.623   1.001   7.578
  592POPC   NC312023  22.298  42.083   9.461
  592POPC   PO412024  21.666  42.053   9.805
  592POPC   GL112025  21.786  42.258   9.394
  592POPC   GL212026  22.035  42.563   9.383
  592POPC   C1A12027  21.707  42.297   8.933
  592POPC   D2A12028  21.619  42.202   8.486
  592POPC   C3A12029  21.962  42.139   8.190
  592POPC   C4A12030  22.099  42.139   7.740
  592POPC   C1B12031  22.161  42.519   8.939
  592POPC   C2B12032  22.262  42.494   8.483
  592POPC   C3B12033  22.262  42.555   8.026
  592POPC   C4B12034  22.234  42.653   7.553
  593POPC   NC312035   6.291  42.651   9.487
  593POPC   PO412036   6.375  41.952   9.410
  593POPC   GL112037   6.691  42.114   9.115
  593POPC   GL212038   6.469  42.373   9.098
  593POPC   C1A12039   6.782  42.408   8.716
  593POPC   D2A12040   6.804  42.360   8.263
  593POPC   C3A12041   6.677  42.527   7.886
  593POPC   C4A12042   6.746  42.472   7.422
  593POPC   C1B12043   6.350  42.096   8.741
  593POPC   C2B12044   6.465  41.970   8.342
  593POPC   C3B12045   6.509  42.048   7.912
  593POPC   C4B12046   6.215  41.996   7.580
  594POPC   NC312047  31.503  35.109   9.502
  594POPC   PO412048  31.191  35.625   9.418
  594POPC   GL112049  31.359  35.384   9.085
  594POPC   GL212050  31.723  35.379   9.103
  594POPC   C1A12051  31.539  35.519   8.667
  594POPC   D2A12052  31.726  35.626   8.280
  594POPC   C3A12053  31.444  35.502   7.961
  594POPC   C4A12054  31.486  35.482   7.530
  594POPC   C1B12055  31.586  35.015   8.819
  594POPC   C2B12056  31.292  34.895   8.496
  594POPC   C3B12057  31.286  35.021   8.069
  594POPC   C4B12058  31.706  35.070   7.846
  595POPC   NC312059  19.198  29.669   9.449
  595POPC   PO412060  18.976  30.290   9.560
  595POPC   GL112061  19.006  30.077   9.134
  595POPC   GL212062  19.324  29.972   9.024
  595POPC   C1A12063  18.788  30.040   8.721
  595POPC   D2A12064  18.879  30.219   8.318
  595POPC   C3A12065  18.849  29.985   7.915
  595POPC   C4A12066  18.882  29.695   7.569
  595POPC   C1B12067  19.287  30.000   8.577
  595POPC   C2B12068  19.121  29.750   8.278
  595POPC   C3B12069  19.253  29.549   7.924
  595POPC   C4B12070  19.380  29.662   7.504
  596POPC   NC312071  25.643  10.352   9.432
  596POPC   PO412072  26.063  10.801   9.712
  596POPC   GL112073  26.073  10.675   9.280
  596POPC   GL212074  26.106  10.306   9.217
  596POPC   C1A12075  25.965  10.633   8.835
  596POPC   D2A12076  26.204  10.643   8.436
  596POPC   C3A12077  26.002  10.698   8.020
  596POPC   C4A12078  25.916  10.672   7.562
  596POPC   C1B12079  26.030  10.138   8.778
  596POPC   C2B12080  25.874  10.249   8.370
  596POPC   C3B12081  25.850  10.230   7.922
  596POPC   C4B12082  26.094   9.952   7.703
  597POPC   NC312083   5.614  27.788   9.583
  597POPC   PO412084   6.159  27.411   9.423
  597POPC   GL112085   5.905  27.677   9.179
  597POPC   GL212086   5.594  27.498   9.157
  597POPC   C1A12087   5.882  27.833   8.786
  597POPC   D2A12088   6.055  27.689   8.398
  597POPC   C3A12089   5.764  27.670   8.056
  597POPC   C4A12090   6.017  27.781   7.727
  597POPC   C1B12091   5.817  27.315   8.774
  597POPC   C2B12092   5.886  27.209   8.324
  597POPC   C3B12093   6.138  27.329   7.965
  597POPC   C4B12094   6.205  27.363   7.508
  598POPC   NC312095  39.462  44.718   9.511
  598POPC   PO412096  38.913  44.307   9.663
  598POPC   GL112097  39.123  44.395   9.247
  598POPC   GL212098  39.134  44.729   9.131
  598POPC   C1A12099  39.295  44.382   8.817
  598POPC   D2A12100  39.104  44.529   8.451
  598POPC   C3A12101  39.384  44.600   8.112
  598POPC   C4A12102  39.276  44.790   7.747
  598POPC   C1B12103  38.920  44.915   8.761
  598POPC   C2B12104  38.744  44.893   8.349
  598POPC   C3B12105  38.888   0.057   7.971
  598POPC   C4B12106  38.679   0.218   7.623
  599POPC   NC312107  18.398   3.730   9.669
  599POPC   PO412108  17.962   4.307   9.702
  599POPC   GL112109  18.116   4.096   9.337
  599POPC   GL212110  18.415   4.230   9.178
  599POPC   C1A12111  18.050   4.047   8.866
  599POPC   D2A12112  18.302   4.301   8.557
  599POPC   C3A12113  18.233   4.264   8.088
  599POPC   C4A12114  18.051   4.226   7.656
  599POPC   C1B12115  18.354   4.625   8.952
  599POPC   C2B12116  18.549   4.777   8.564
  599POPC   C3B12117  18.576   4.668   8.106
  599POPC   C4B12118  18.457   4.533   7.682
  600POPC   NC312119  38.633  37.021   9.705
  600POPC   PO412120  38.337  36.603   9.314
  600POPC   GL112121  38.677  36.872   9.119
  600POPC   GL212122  38.648  37.211   9.197
  600POPC   C1A12123  38.547  36.849   8.680
  600POPC   D2A12124  38.177  36.785   8.463
  600POPC   C3A12125  38.295  36.662   8.068
  600POPC   C4A12126  38.630  36.852   7.833
  600POPC   C1B12127  38.331  37.284   8.899
  600POPC   C2B12128  38.435  37.308   8.470
  600POPC   C3B12129  38.296  37.198   8.062
  600POPC   C4B12130  38.306  37.353   7.628
  601POPC   NC312131  27.543  30.115   9.388
  601POPC   PO412132  27.224  29.519   9.446
  601POPC   GL112133  27.533  29.680   9.138
  601POPC   GL212134  27.903  29.666   9.211
  601POPC   C1A12135  27.558  29.904   8.737
  601POPC   D2A12136  27.852  29.969   8.404
  601POPC   C3A12137  27.817  30.169   8.043
  601POPC   C4A12138  27.488  30.225   7.790
  601POPC   C1B12139  28.030  29.670   8.777
  601POPC   C2B12140  28.152  29.554   8.323
  601POPC   C3B12141  27.887  29.630   7.953
  601POPC   C4B12142  27.829  29.891   7.596
  602POPC   NC312143   2.608  24.978   9.411
  602POPC   PO412144   2.968  25.493   9.464
  602POPC   GL112145   2.803  25.334   9.103
  602POPC   GL212146   2.978  25.073   9.063
  602POPC   C1A12147   2.642  25.252   8.703
  602POPC   D2A12148   2.617  25.066   8.302
  602POPC   C3A12149   2.765  25.336   7.966
  602POPC   C4A12150   2.725  25.449   7.525
  602POPC   C1B12151   3.167  24.965   8.684
  602POPC   C2B12152   3.248  24.839   8.302
  602POPC   C3B12153   3.006  24.884   7.997
  602POPC   C4B12154   3.029  25.054   7.615
  603POPC   NC312155  19.015  22.353   9.529
  603POPC   PO412156  18.986  21.734   9.780
  603POPC   GL112157  18.880  21.897   9.323
  603POPC   GL212158  19.204  21.759   9.231
  603POPC   C1A12159  18.854  22.258   8.925
  603POPC   D2A12160  18.715  22.390   8.500
  603POPC   C3A12161  19.018  22.212   8.210
  603POPC   C4A12162  19.168  22.247   7.792
  603POPC   C1B12163  19.359  21.606   8.851
  603POPC   C2B12164  19.282  21.730   8.437
  603POPC   C3B12165  19.346  21.804   8.011
  603POPC   C4B12166  19.585  21.995   7.675
  604POPC   NC312167   9.258  29.568   9.324
  604POPC   PO412168   8.798  30.088   9.480
  604POPC   GL112169   8.895  30.059   9.085
  604POPC   GL212170   8.701  29.772   9.034
  604POPC   C1A12171   9.057  30.063   8.666
  604POPC   D2A12172   9.188  29.810   8.310
  604POPC   C3A12173   9.057  30.004   7.956
  604POPC   C4A12174   8.705  30.251   7.873
  604POPC   C1B12175   8.781  29.645   8.630
  604POPC   C2B12176   8.660  29.879   8.288
  604POPC   C3B12177   8.586  29.761   7.887
  604POPC   C4B12178   8.782  29.791   7.465
  605POPC   NC312179  21.585  41.721   9.465
  605POPC   PO412180  21.849  41.109   9.492
  605POPC   GL112181  21.649  41.360   9.087
  605POPC   GL212182  21.292  41.544   9.082
  605POPC   C1A12183  21.451  41.368   8.636
  605POPC   D2A12184  21.060  41.523   8.447
  605POPC   C3A12185  21.117  41.624   8.010
  605POPC   C4A12186  21.467  41.364   7.812
  605POPC   C1B12187  21.562  41.814   8.815
  605POPC   C2B12188  21.806  41.697   8.478
  605POPC   C3B12189  21.595  41.745   8.148
  605POPC   C4B12190  21.603  42.037   7.837
  606POPC   NC312191  40.021  26.420   9.795
  606POPC   PO412192  40.025  27.037   9.501
  606POPC   GL112193  39.937  26.903   9.121
  606POPC   GL212194  39.999  26.573   9.100
  606POPC   C1A12195  39.784  26.832   8.720
  606POPC   D2A12196  40.017  26.905   8.349
  606POPC   C3A12197  39.923  26.692   8.004
  606POPC   C4A12198  39.569  26.728   7.779
  606POPC   C1B12199  40.297  26.793   8.764
  606POPC   C2B12200  40.475  26.682   8.342
  606POPC   C3B12201  40.409  26.667   7.861
  606POPC   C4B12202  40.425  26.674   7.380
  607POPC   NC312203  21.292   6.874   9.353
  607POPC   PO412204  21.717   6.426   9.745
  607POPC   GL112205  21.488   6.410   9.261
  607POPC   GL212206  21.100   6.441   9.132
  607POPC   C1A12207  21.494   6.604   8.789
  607POPC   D2A12208  21.489   6.928   8.412
  607POPC   C3A12209  21.465   6.788   7.980
  607POPC   C4A12210  21.539   6.383   7.793
  607POPC   C1B12211  20.997   6.724   8.756
  607POPC   C2B12212  20.951   6.805   8.299
  607POPC   C3B12213  20.992   6.576   7.887
  607POPC   C4B12214  21.109   6.252   7.561
  608POPC   NC312215  26.875  18.424   9.421
  608POPC   PO412216  27.121  17.710   9.450
  608POPC   GL112217  27.043  18.018   9.121
  608POPC   GL212218  26.673  18.083   9.115
  608POPC   C1A12219  26.984  18.068   8.661
  608POPC   D2A12220  26.839  17.926   8.240
  608POPC   C3A12221  26.998  18.189   7.875
  608POPC   C4A12222  27.019  18.029   7.440
  608POPC   C1B12223  26.474  18.184   8.734
  608POPC   C2B12224  26.633  18.376   8.354
  608POPC   C3B12225  26.530  18.418   7.926
  608POPC   C4B12226  26.621  18.374   7.490
  609POPC   NC312227  29.804   6.926   9.564
  609POPC   PO412228  30.197   6.348   9.425
  609POPC   GL112229  29.789   6.518   9.175
  609POPC   GL212230  29.676   6.868   9.097
  609POPC   C1A12231  29.606   6.487   8.741
  609POPC   D2A12232  29.875   6.628   8.368
  609POPC   C3A12233  29.839   6.601   7.920
  609POPC   C4A12234  30.073   6.278   7.720
  609POPC   C1B12235  29.896   6.926   8.783
  609POPC   C2B12236  29.846   7.140   8.436
  609POPC   C3B12237  30.051   7.048   8.088
  609POPC   C4B12238  30.010   7.088   7.695
  610POPC   NC312239   3.927  38.682   9.847
  610POPC   PO412240   4.538  38.517   9.653
  610POPC   GL112241   4.391  38.577   9.213
  610POPC   GL212242   4.726  38.650   9.164
  610POPC   C1A12243   4.127  38.660   8.770
  610POPC   D2A12244   3.926  38.617   8.340
  610POPC   C3A12245   4.133  38.608   7.943
  610POPC   C4A12246   4.183  38.300   7.626
  610POPC   C1B12247   4.556  38.389   8.791
  610POPC   C2B12248   4.316  38.237   8.448
  610POPC   C3B12249   4.484  38.250   8.047
  610POPC   C4B12250   4.626  38.541   7.751
  611POPC   NC312251  38.736  20.687   9.582
  611POPC   PO412252  38.322  20.198   9.535
  611POPC   GL112253  38.314  20.579   9.271
  611POPC   GL212254  38.641  20.625   9.096
  611POPC   C1A12255  38.214  20.773   8.876
  611POPC   D2A12256  38.539  20.764   8.595
  611POPC   C3A12257  38.396  20.613   8.206
  611POPC   C4A12258  38.603  20.704   7.816
  611POPC   C1B12259  38.787  20.331   8.817
  611POPC   C2B12260  38.876  20.415   8.406
  611POPC   C3B12261  38.780  20.255   8.012
  611POPC   C4B12262  38.916  20.305   7.621
  612POPC   NC312263  41.594   2.397   9.527
  612POPC   PO412264  41.194   1.826   9.405
  612POPC   GL112265  41.379   2.133   9.133
  612POPC   GL212266  41.722   2.017   9.094
  612POPC   C1A12267  41.471   2.237   8.705
  612POPC   D2A12268  41.676   2.009   8.379
  612POPC   C3A12269  41.451   2.007   7.978
  612POPC   C4A12270  41.466   2.337   7.687
  612POPC   C1B12271  41.886   1.680   8.787
  612POPC   C2B12272  41.769   1.506   8.398
  612POPC   C3B12273  41.889   1.712   7.990
  612POPC   C4B12274  41.798   1.811   7.556
  613POPC   NC312275  19.894  37.380   9.457
  613POPC   PO412276  20.109  37.966   9.555
  613POPC   GL112277  19.940  37.837   9.123
  613POPC   GL212278  19.743  37.534   9.008
  613POPC   C1A12279  19.731  37.955   8.734
  613POPC   D2A12280  19.580  37.710   8.386
  613POPC   C3A12281  19.625  37.907   8.003
  613POPC   C4A12282  19.873  37.835   7.676
  613POPC   C1B12283  20.026  37.250   8.785
  613POPC   C2B12284  20.046  37.178   8.349
  613POPC   C3B12285  19.830  37.403   8.020
  613POPC   C4B12286  20.017  37.364   7.646
  614POPC   NC312287  27.414   5.112   9.688
  614POPC   PO412288  27.774   4.716   9.287
  614POPC   GL112289  27.554   4.817   8.991
  614POPC   GL212290  27.323   4.961   9.200
  614POPC   C1A12291  27.785   4.976   8.637
  614POPC   D2A12292  27.811   5.186   8.258
  614POPC   C3A12293  27.731   4.999   7.854
  614POPC   C4A12294  27.649   5.203   7.480
  614POPC   C1B12295  27.425   5.286   8.843
  614POPC   C2B12296  27.281   5.274   8.379
  614POPC   C3B12297  27.238   5.182   7.914
  614POPC   C4B12298  27.249   5.522   7.570
  615POPC   NC312299  17.656  42.805   9.364
  615POPC   PO412300  17.026  43.022   9.416
  615POPC   GL112301  17.283  43.199   9.150
  615POPC   GL212302  17.586  43.367   9.304
  615POPC   C1A12303  17.344  42.994   8.755
  615POPC   D2A12304  17.193  42.965   8.343
  615POPC   C3A12305  17.339  43.134   7.983
  615POPC   C4A12306  17.219  43.350   7.595
  615POPC   C1B12307  17.640  43.383   8.853
  615POPC   C2B12308  17.780  43.116   8.484
  615POPC   C3B12309  17.848  43.238   8.051
  615POPC   C4B12310  18.139  43.366   7.745
  616POPC   NC312311  43.587  38.156  10.006
  616POPC   PO412312  43.865  38.598   9.490
  616POPC   GL112313  43.847  38.368   9.113
  616POPC   GL212314  43.844  38.011   9.213
  616POPC   C1A12315  43.927  38.376   8.676
  616POPC   D2A12316  44.235  38.182   8.440
  616POPC   C3A12317  44.055  38.116   8.054
  616POPC   C4A12318  44.018  38.469   7.774
  616POPC   C1B12319  43.724  37.924   8.810
  616POPC   C2B12320  43.641  38.027   8.377
  616POPC   C3B12321  43.615  38.405   8.129
  616POPC   C4B12322  43.429  38.569   7.740
  617POPC   NC312323  20.598  34.510   9.564
  617POPC   PO412324  20.256  34.956   9.240
  617POPC   GL112325  20.501  34.586   9.074
  617POPC   GL212326  20.886  34.516   9.147
  617POPC   C1A12327  20.615  34.317   8.745
  617POPC   D2A12328  20.813  34.389   8.349
  617POPC   C3A12329  20.548  34.603   8.041
  617POPC   C4A12330  20.413  34.390   7.666
  617POPC   C1B12331  20.967  34.687   8.749
  617POPC   C2B12332  21.003  34.861   8.318
  617POPC   C3B12333  21.034  34.649   7.897
  617POPC   C4B12334  21.070  34.546   7.451
  618POPC   NC312335  12.452  12.304  10.010
  618POPC   PO412336  12.100  12.068   9.499
  618POPC   GL112337  11.973  12.080   9.091
  618POPC   GL212338  11.716  12.362   9.168
  618POPC   C1A12339  12.255  12.038   8.696
  618POPC   D2A12340  12.681  12.100   8.485
  618POPC   C3A12341  12.660  11.903   8.072
  618POPC   C4A12342  12.210  11.949   7.899
  618POPC   C1B12343  11.575  12.151   8.783
  618POPC   C2B12344  11.582  12.322   8.357
  618POPC   C3B12345  11.672  12.260   7.931
  618POPC   C4B12346  11.702  11.864   7.718
  619POPC   NC312347  23.748  35.139   9.517
  619POPC   PO412348  23.305  35.479   9.631
  619POPC   GL112349  23.587  35.477   9.205
  619POPC   GL212350  23.615  35.168   9.023
  619POPC   C1A12351  23.785  35.633   8.854
  619POPC   D2A12352  23.996  35.675   8.412
  619POPC   C3A12353  23.839  35.444   8.095
  619POPC   C4A12354  23.822  35.595   7.665
  619POPC   C1B12355  23.596  35.271   8.557
  619POPC   C2B12356  23.305  35.370   8.217
  619POPC   C3B12357  23.403  35.331   7.803
  619POPC   C4B12358  23.763  35.093   7.735
  620POPC   NC312359  20.028  29.377   9.324
  620POPC   PO412360  19.463  29.377   9.706
  620POPC   GL112361  19.580  29.093   9.235
  620POPC   GL212362  19.887  28.880   9.180
  620POPC   C1A12363  19.738  29.124   8.759
  620POPC   D2A12364  20.043  29.395   8.529
  620POPC   C3A12365  20.083  29.340   8.083
  620POPC   C4A12366  19.755  29.455   7.796
  620POPC   C1B12367  20.191  28.827   8.799
  620POPC   C2B12368  20.124  28.887   8.367
  620POPC   C3B12369  19.817  28.886   8.051
  620POPC   C4B12370  19.992  29.008   7.677
  621POPC   NC312371  26.320  27.850   9.409
  621POPC   PO412372  26.442  27.242   9.461
  621POPC   GL112373  26.205  27.411   9.087
  621POPC   GL212374  25.998  27.691   9.032
  621POPC   C1A12375  26.224  27.500   8.614
  621POPC   D2A12376  26.378  27.831   8.308
  621POPC   C3A12377  26.271  27.780   7.873
  621POPC   C4A12378  26.082  27.459   7.588
  621POPC   C1B12379  25.865  27.855   8.631
  621POPC   C2B12380  25.881  27.629   8.219
  621POPC   C3B12381  25.746  27.775   7.818
  621POPC   C4B12382  25.559  27.716   7.390
  622POPC   NC312383  29.634  33.040   9.751
  622POPC   PO412384  30.158  32.836   9.317
  622POPC   GL112385  29.880  33.085   9.120
  622POPC   GL212386  29.677  32.853   8.929
  622POPC   C1A12387  29.923  33.280   8.733
  622POPC   D2A12388  29.841  33.134   8.288
  622POPC   C3A12389  29.966  33.200   7.838
  622POPC   C4A12390  29.763  33.369   7.412
  622POPC   C1B12391  30.052  32.811   8.651
  622POPC   C2B12392  29.997  32.630   8.270
  622POPC   C3B12393  29.727  32.712   7.931
  622POPC   C4B12394  29.795  32.865   7.493
  623POPC   NC312395  10.735  24.554   9.476
  623POPC   PO412396  10.192  24.127   9.495
  623POPC   GL112397  10.385  24.386   9.155
  623POPC   GL212398  10.730  24.313   9.040
  623POPC   C1A12399  10.447  24.635   8.749
  623POPC   D2A12400  10.707  24.864   8.425
  623POPC   C3A12401  10.604  24.721   8.001
  623POPC   C4A12402  10.420  24.620   7.586
  623POPC   C1B12403  10.824  24.262   8.634
  623POPC   C2B12404  11.036  23.997   8.362
  623POPC   C3B12405  10.849  24.267   8.073
  623POPC   C4B12406  10.990  24.498   7.727
  624POPC   NC312407  11.108  19.799   9.491
  624POPC   PO412408  11.743  20.080   9.464
  624POPC   GL112409  11.625  19.857   9.097
  624POPC   GL212410  11.308  19.730   9.028
  624POPC   C1A12411  11.567  20.004   8.699
  624POPC   D2A12412  11.253  19.882   8.399
  624POPC   C3A12413  11.483  19.902   8.014
  624POPC   C4A12414  11.260  19.947   7.656
  624POPC   C1B12415  11.208  19.462   8.722
  624POPC   C2B12416  10.985  19.426   8.397
  624POPC   C3B12417  11.162  19.504   8.037
  624POPC   C4B12418  11.234  19.441   7.641
  625POPC   NC312419  31.893   1.103   9.394
  625POPC   PO412420  32.369   1.594   9.171
  625POPC   GL112421  32.241   1.228   8.996
  625POPC   GL212422  31.891   1.261   8.944
  625POPC   C1A12423  32.195   1.231   8.543
  625POPC   D2A12424  32.191   1.565   8.258
  625POPC   C3A12425  32.458   1.441   7.919
  625POPC   C4A12426  32.480   0.984   7.741
  625POPC   C1B12427  31.746   0.999   8.700
  625POPC   C2B12428  31.887   0.881   8.328
  625POPC   C3B12429  31.983   1.093   7.969
  625POPC   C4B12430  31.978   1.470   7.789
  626POPC   NC312431  19.215  11.435   9.440
  626POPC   PO412432  18.727  10.904   9.526
  626POPC   GL112433  18.951  10.960   9.088
  626POPC   GL212434  19.158  11.242   8.976
  626POPC   C1A12435  19.236  10.798   8.759
  626POPC   D2A12436  19.375  11.100   8.437
  626POPC   C3A12437  19.207  11.238   8.004
  626POPC   C4A12438  19.312  11.555   7.684
  626POPC   C1B12439  18.877  11.169   8.623
  626POPC   C2B12440  18.728  11.275   8.206
  626POPC   C3B12441  18.830  11.580   7.850
  626POPC   C4B12442  18.937  11.863   7.492
  627POPC   NC312443   5.528   2.764  10.002
  627POPC   PO412444   5.614   2.576   9.311
  627POPC   GL112445   5.825   2.654   8.991
  627POPC   GL212446   6.139   2.629   9.151
  627POPC   C1A12447   5.689   2.932   8.704
  627POPC   D2A12448   5.723   2.706   8.365
  627POPC   C3A12449   5.563   2.769   8.004
  627POPC   C4A12450   5.730   2.910   7.659
  627POPC   C1B12451   6.211   2.935   8.799
  627POPC   C2B12452   6.166   2.953   8.352
  627POPC   C3B12453   6.163   2.814   7.948
  627POPC   C4B12454   6.251   2.953   7.553
  628POPC   NC312455  29.621  12.594   9.230
  628POPC   PO412456  29.511  12.968   9.707
  628POPC   GL112457  29.767  13.046   9.119
  628POPC   GL212458  29.545  12.904   8.813
  628POPC   C1A12459  30.042  12.861   8.750
  628POPC   D2A12460  29.827  12.683   8.430
  628POPC   C3A12461  30.005  12.808   8.052
  628POPC   C4A12462  29.894  12.698   7.651
  628POPC   C1B12463  29.367  12.514   8.629
  628POPC   C2B12464  29.505  12.282   8.274
  628POPC   C3B12465  29.523  12.613   8.006
  628POPC   C4B12466  29.383  12.685   7.593
  629POPC   NC312467  30.663   9.811   9.757
  629POPC   PO412468  30.301  10.253   9.411
  629POPC   GL112469  30.507   9.901   9.141
  629POPC   GL212470  30.811   9.734   9.207
  629POPC   C1A12471  30.427   9.824   8.713
  629POPC   D2A12472  30.592  10.023   8.333
  629POPC   C3A12473  30.478   9.979   7.892
  629POPC   C4A12474  30.684   9.773   7.518
  629POPC   C1B12475  30.755   9.456   8.818
  629POPC   C2B12476  30.637   9.499   8.372
  629POPC   C3B12477  30.491   9.421   7.946
  629POPC   C4B12478  30.644   9.277   7.564
  630POPC   NC312479  29.556  31.204   9.467
  630POPC   PO412480  30.017  31.680   9.559
  630POPC   GL112481  29.787  31.581   9.210
  630POPC   GL212482  30.046  31.342   9.163
  630POPC   C1A12483  29.678  31.359   8.812
  630POPC   D2A12484  29.573  31.428   8.391
  630POPC   C3A12485  29.850  31.324   8.019
  630POPC   C4A12486  29.743  31.179   7.597
  630POPC   C1B12487  30.177  31.523   8.788
  630POPC   C2B12488  30.047  31.648   8.380
  630POPC   C3B12489  30.185  31.718   7.966
  630POPC   C4B12490  30.191  31.467   7.615
  631POPC   NC312491  30.231  13.988   9.457
  631POPC   PO412492  30.319  13.383   9.477
  631POPC   GL112493  30.656  13.494   9.139
  631POPC   GL212494  30.857  13.801   9.134
  631POPC   C1A12495  30.615  13.629   8.711
  631POPC   D2A12496  30.332  13.721   8.375
  631POPC   C3A12497  30.566  13.530   8.030
  631POPC   C4A12498  30.575  13.592   7.581
  631POPC   C1B12499  30.907  14.046   8.733
  631POPC   C2B12500  30.877  13.879   8.300
  631POPC   C3B12501  30.920  13.875   7.841
  631POPC   C4B12502  31.217  13.680   7.553
  632POPC   NC312503  11.023  16.748   9.457
  632POPC   PO412504  11.440  17.135   9.637
  632POPC   GL112505  11.441  16.885   9.196
  632POPC   GL212506  11.100  16.854   9.001
  632POPC   C1A12507  11.491  16.657   8.771
  632POPC   D2A12508  11.457  16.828   8.366
  632POPC   C3A12509  11.635  16.673   7.995
  632POPC   C4A12510  11.599  16.884   7.615
  632POPC   C1B12511  10.986  16.743   8.647
  632POPC   C2B12512  10.945  16.869   8.266
  632POPC   C3B12513  11.167  16.886   7.906
  632POPC   C4B12514  11.172  16.684   7.498
  633POPC   NC312515  11.785  13.648   9.449
  633POPC   PO412516  12.407  13.542   9.665
  633POPC   GL112517  12.270  13.568   9.238
  633POPC   GL212518  12.084  13.245   9.268
  633POPC   C1A12519  12.081  13.905   8.903
  633POPC   D2A12520  11.830  14.048   8.526
  633POPC   C3A12521  11.975  13.943   8.108
  633POPC   C4A12522  11.907  13.766   7.696
  633POPC   C1B12523  12.011  13.411   8.838
  633POPC   C2B12524  11.903  13.539   8.431
  633POPC   C3B12525  12.027  13.413   8.035
  633POPC   C4B12526  11.702  13.273   7.738
  634POPC   NC312527   0.136  27.650   9.407
  634POPC   PO412528   0.600  27.151   9.543
  634POPC   GL112529   0.520  27.409   9.178
  634POPC   GL212530   0.609  27.779   9.243
  634POPC   C1A12531   0.243  27.473   8.791
  634POPC   D2A12532   0.373  27.607   8.393
  634POPC   C3A12533   0.370  27.293   8.083
  634POPC   C4A12534   0.048  27.213   7.775
  634POPC   C1B12535   0.530  27.908   8.831
  634POPC   C2B12536   0.788  27.931   8.448
  634POPC   C3B12537   0.784  27.677   8.061
  634POPC   C4B12538   0.521  27.647   7.700
  635POPC   NC312539   7.309  41.123   9.548
  635POPC   PO412540   7.262  41.860   9.568
  635POPC   GL112541   7.399  41.795   9.161
  635POPC   GL212542   7.496  41.479   9.247
  635POPC   C1A12543   7.358  41.778   8.697
  635POPC   D2A12544   7.425  41.694   8.256
  635POPC   C3A12545   7.414  41.825   7.846
  635POPC   C4A12546   7.242  41.839   7.410
  635POPC   C1B12547   7.273  41.325   8.887
  635POPC   C2B12548   7.315  41.246   8.467
  635POPC   C3B12549   7.479  41.194   8.071
  635POPC   C4B12550   7.241  41.352   7.749
  636POPC   NC312551  37.275  21.927   9.494
  636POPC   PO412552  36.877  21.358   9.588
  636POPC   GL112553  36.928  21.371   9.177
  636POPC   GL212554  37.240  21.482   9.190
  636POPC   C1A12555  36.942  21.590   8.774
  636POPC   D2A12556  36.709  21.465   8.453
  636POPC   C3A12557  36.908  21.426   8.088
  636POPC   C4A12558  36.710  21.267   7.732
  636POPC   C1B12559  37.223  21.192   8.798
  636POPC   C2B12560  37.132  21.051   8.366
  636POPC   C3B12561  37.123  21.005   7.874
  636POPC   C4B12562  37.251  21.022   7.418
  637POPC   NC312563  37.264  32.811   9.523
  637POPC   PO412564  36.665  33.217   9.487
  637POPC   GL112565  36.943  33.129   9.173
  637POPC   GL212566  36.932  32.779   9.131
  637POPC   C1A12567  37.114  33.043   8.753
  637POPC   D2A12568  36.938  32.905   8.370
  637POPC   C3A12569  36.981  33.267   8.065
  637POPC   C4A12570  37.102  33.356   7.615
  637POPC   C1B12571  36.691  32.593   8.765
  637POPC   C2B12572  36.478  32.595   8.360
  637POPC   C3B12573  36.709  32.581   7.980
  637POPC   C4B12574  36.632  32.517   7.551
  638POPC   NC312575  30.252  21.270   9.571
  638POPC   PO412576  29.701  21.001   9.557
  638POPC   GL112577  29.644  21.300   9.206
  638POPC   GL212578  29.971  21.334   9.103
  638POPC   C1A12579  29.573  21.436   8.760
  638POPC   D2A12580  29.784  21.507   8.335
  638POPC   C3A12581  29.691  21.282   7.935
  638POPC   C4A12582  29.856  21.463   7.522
  638POPC   C1B12583  30.038  21.197   8.663
  638POPC   C2B12584  30.074  21.061   8.211
  638POPC   C3B12585  30.067  21.007   7.754
  638POPC   C4B12586  30.301  21.177   7.402
  639POPC   NC312587  18.980   8.248   9.464
  639POPC   PO412588  19.406   7.694   9.119
  639POPC   GL112589  19.124   8.042   8.956
  639POPC   GL212590  19.131   8.358   9.006
  639POPC   C1A12591  18.859   7.978   8.675
  639POPC   D2A12592  18.949   7.760   8.326
  639POPC   C3A12593  18.950   7.928   7.934
  639POPC   C4A12594  19.160   8.052   7.569
  639POPC   C1B12595  19.036   8.481   8.621
  639POPC   C2B12596  19.024   8.321   8.235
  639POPC   C3B12597  18.995   8.466   7.810
  639POPC   C4B12598  18.627   8.685   7.667
  640POPC   NC312599  19.290  28.960   9.622
  640POPC   PO412600  18.681  29.046   9.420
  640POPC   GL112601  19.044  29.005   9.123
  640POPC   GL212602  19.168  29.362   9.036
  640POPC   C1A12603  19.153  29.015   8.653
  640POPC   D2A12604  18.972  29.254   8.291
  640POPC   C3A12605  18.672  28.995   8.064
  640POPC   C4A12606  18.798  28.739   7.734
  640POPC   C1B12607  19.385  29.485   8.629
  640POPC   C2B12608  19.521  29.240   8.276
  640POPC   C3B12609  19.292  28.998   7.960
  640POPC   C4B12610  18.988  29.203   7.692
  641POPC   NC312611  35.984  14.098   9.609
  641POPC   PO412612  36.293  13.517   9.489
  641POPC   GL112613  36.071  13.724   9.153
  641POPC   GL212614  35.847  14.032   9.131
  641POPC   C1A12615  36.049  13.516   8.766
  641POPC   D2A12616  35.797  13.544   8.406
  641POPC   C3A12617  36.068  13.458   8.041
  641POPC   C4A12618  36.411  13.714   7.901
  641POPC   C1B12619  35.876  13.987   8.703
  641POPC   C2B12620  36.168  13.890   8.379
  641POPC   C3B12621  35.924  13.955   8.050
  641POPC   C4B12622  35.885  13.788   7.689
  642POPC   NC312623  18.744  34.078   9.331
  642POPC   PO412624  18.205  33.612   9.419
  642POPC   GL112625  18.331  33.839   9.055
  642POPC   GL212626  18.677  33.679   8.994
  642POPC   C1A12627  18.076  33.896   8.654
  642POPC   D2A12628  17.982  34.169   8.308
  642POPC   C3A12629  17.998  33.977   7.910
  642POPC   C4A12630  18.226  33.603   7.783
  642POPC   C1B12631  18.581  33.925   8.612
  642POPC   C2B12632  18.424  33.924   8.200
  642POPC   C3B12633  18.584  33.987   7.801
  642POPC   C4B12634  18.758  34.203   7.423
  643POPC   NC312635  44.003  44.441   9.484
  643POPC   PO412636  43.551  44.947   9.544
  643POPC   GL112637  43.737  44.745   9.188
  643POPC   GL212638  44.019  44.954   9.135
  643POPC   C1A12639  43.717  44.463   8.832
  643POPC   D2A12640  43.824  44.551   8.396
  643POPC   C3A12641  43.520  44.668   8.069
  643POPC   C4A12642  43.495  44.511   7.631
  643POPC   C1B12643  44.137  44.919   8.708
  643POPC   C2B12644  44.286  44.811   8.296
  643POPC   C3B12645  44.214  44.544   8.017
  643POPC   C4B12646  43.938  44.706   7.762
  644POPC   NC312647   7.505  31.800   9.300
  644POPC   PO412648   7.403  32.436   9.548
  644POPC   GL112649   7.560  32.506   9.179
  644POPC   GL212650   7.776  32.234   9.161
  644POPC   C1A12651   7.413  32.603   8.761
  644POPC   D2A12652   7.286  32.386   8.392
  644POPC   C3A12653   7.370  32.478   7.975
  644POPC   C4A12654   7.276  32.185   7.674
  644POPC   C1B12655   7.610  32.146   8.761
  644POPC   C2B12656   7.726  32.105   8.359
  644POPC   C3B12657   7.672  31.997   7.916
  644POPC   C4B12658   7.737  32.126   7.455
  645POPC   NC312659  30.932  37.864   9.667
  645POPC   PO412660  30.369  37.995   9.474
  645POPC   GL112661  30.642  37.781   9.231
  645POPC   GL212662  30.902  38.017   9.175
  645POPC   C1A12663  30.791  37.483   8.962
  645POPC   D2A12664  30.829  37.486   8.544
  645POPC   C3A12665  30.690  37.563   8.138
  645POPC   C4A12666  30.695  37.667   7.706
  645POPC   C1B12667  31.053  37.860   8.803
  645POPC   C2B12668  31.196  37.798   8.416
  645POPC   C3B12669  31.065  37.870   7.992
  645POPC   C4B12670  31.037  38.011   7.533
  646POPC   NC312671  28.200  10.338   9.562
  646POPC   PO412672  28.393   9.667   9.512
  646POPC   GL112673  28.327   9.797   9.119
  646POPC   GL212674  28.138   9.498   9.080
  646POPC   C1A12675  28.580   9.980   8.732
  646POPC   D2A12676  28.754   9.704   8.471
  646POPC   C3A12677  28.755   9.829   8.048
  646POPC   C4A12678  28.524   9.845   7.648
  646POPC   C1B12679  28.225   9.639   8.657
  646POPC   C2B12680  28.285   9.764   8.275
  646POPC   C3B12681  28.178   9.589   7.907
  646POPC   C4B12682  27.946   9.245   7.716
  647POPC   NC312683   5.650  23.514   9.550
  647POPC   PO412684   6.214  23.811   9.559
  647POPC   GL112685   5.992  23.684   9.187
  647POPC   GL212686   5.638  23.843   9.168
  647POPC   C1A12687   6.073  23.580   8.759
  647POPC   D2A12688   6.073  23.470   8.330
  647POPC   C3A12689   6.120  23.722   7.975
  647POPC   C4A12690   5.983  24.008   7.632
  647POPC   C1B12691   5.543  23.467   8.892
  647POPC   C2B12692   5.311  23.363   8.504
  647POPC   C3B12693   5.519  23.563   8.151
  647POPC   C4B12694   5.696  23.598   7.743
  648POPC   NC312695   3.819  21.175   9.526
  648POPC   PO412696   3.394  20.691   9.615
  648POPC   GL112697   3.506  20.850   9.235
  648POPC   GL212698   3.507  20.513   9.061
  648POPC   C1A12699   3.546  20.963   8.821
  648POPC   D2A12700   3.499  20.681   8.479
  648POPC   C3A12701   3.718  20.720   8.100
  648POPC   C4A12702   3.590  20.854   7.730
  648POPC   C1B12703   3.323  20.251   8.693
  648POPC   C2B12704   3.188  20.265   8.274
  648POPC   C3B12705   3.354  20.417   7.894
  648POPC   C4B12706   3.357  20.506   7.445
  649POPC   NC312707  22.938  38.641   9.404
  649POPC   PO412708  23.055  37.967   9.542
  649POPC   GL112709  22.880  38.087   9.208
  649POPC   GL212710  23.136  38.275   9.128
  649POPC   C1A12711  22.770  38.146   8.789
  649POPC   D2A12712  22.735  38.383   8.374
  649POPC   C3A12713  22.799  38.180   7.952
  649POPC   C4A12714  22.839  38.288   7.468
  649POPC   C1B12715  23.159  38.479   8.718
  649POPC   C2B12716  23.263  38.525   8.254
  649POPC   C3B12717  23.119  38.551   7.816
  649POPC   C4B12718  23.096  38.743   7.411
  650POPC   NC312719   4.228   7.029   9.445
  650POPC   PO412720   4.150   7.698   9.607
  650POPC   GL112721   4.272   7.482   9.215
  650POPC   GL212722   4.084   7.181   8.993
  650POPC   C1A12723   4.455   7.494   8.834
  650POPC   D2A12724   4.255   7.325   8.495
  650POPC   C3A12725   4.427   7.359   8.137
  650POPC   C4A12726   4.479   7.407   7.751
  650POPC   C1B12727   4.448   6.970   8.792
  650POPC   C2B12728   4.518   6.891   8.343
  650POPC   C3B12729   4.445   6.921   7.880
  650POPC   C4B12730   4.268   6.986   7.475
  651POPC   NC312731  13.226  15.645   9.608
  651POPC   PO412732  12.827  15.221   9.937
  651POPC   GL112733  12.966  15.224   9.415
  651POPC   GL212734  13.108  14.901   9.285
  651POPC   C1A12735  13.064  15.232   8.910
  651POPC   D2A12736  13.116  15.007   8.494
  651POPC   C3A12737  13.055  15.238   8.112
  651POPC   C4A12738  12.778  15.159   7.756
  651POPC   C1B12739  12.772  14.822   8.910
  651POPC   C2B12740  12.706  14.680   8.455
  651POPC   C3B12741  12.900  14.730   8.021
  651POPC   C4B12742  12.885  14.695   7.533
  652POPC   NC312743  30.313   1.850   9.468
  652POPC   PO412744  29.749   2.283   9.540
  652POPC   GL112745  29.815   2.102   9.138
  652POPC   GL212746  30.163   2.018   9.023
  652POPC   C1A12747  29.775   1.918   8.729
  652POPC   D2A12748  30.027   2.038   8.392
  652POPC   C3A12749  29.841   1.964   7.984
  652POPC   C4A12750  29.964   2.091   7.549
  652POPC   C1B12751  30.198   1.592   8.818
  652POPC   C2B12752  29.990   1.525   8.453
  652POPC   C3B12753  30.194   1.641   8.095
  652POPC   C4B12754  30.313   1.713   7.706
  653POPC   NC312755  23.266  41.007   9.430
  653POPC   PO412756  23.243  40.419   9.629
  653POPC   GL112757  23.472  40.579   9.213
  653POPC   GL212758  23.307  40.811   8.959
  653POPC   C1A12759  23.691  40.539   8.784
  653POPC   D2A12760  23.534  40.610   8.344
  653POPC   C3A12761  23.718  40.729   7.931
  653POPC   C4A12762  23.443  40.891   7.634
  653POPC   C1B12763  23.591  41.034   8.678
  653POPC   C2B12764  23.659  41.142   8.235
  653POPC   C3B12765  23.687  41.285   7.800
  653POPC   C4B12766  23.510  41.333   7.369
  654POPC   NC312767  14.573  22.946   9.470
  654POPC   PO412768  14.018  23.341   9.261
  654POPC   GL112769  14.167  22.923   9.098
  654POPC   GL212770  13.937  22.606   9.098
  654POPC   C1A12771  14.556  22.785   8.846
  654POPC   D2A12772  14.713  23.013   8.505
  654POPC   C3A12773  14.598  22.915   8.107
  654POPC   C4A12774  14.395  23.165   7.809
  654POPC   C1B12775  14.089  22.678   8.657
  654POPC   C2B12776  14.083  22.841   8.245
  654POPC   C3B12777  14.203  22.661   7.880
  654POPC   C4B12778  14.572  22.613   7.692
  655POPC   NC312779  18.594  41.687   9.742
  655POPC   PO412780  19.029  41.268   9.430
  655POPC   GL112781  19.223  41.439   9.111
  655POPC   GL212782  19.039  41.768   9.129
  655POPC   C1A12783  19.153  41.538   8.692
  655POPC   D2A12784  19.250  41.701   8.309
  655POPC   C3A12785  19.063  41.478   8.045
  655POPC   C4A12786  19.120  41.264   7.697
  655POPC   C1B12787  18.741  41.875   8.780
  655POPC   C2B12788  18.709  41.660   8.408
  655POPC   C3B12789  18.567  41.698   7.997
  655POPC   C4B12790  18.798  41.636   7.638
  656POPC   NC312791  28.396  24.149   9.343
  656POPC   PO412792  28.175  24.764   9.355
  656POPC   GL112793  28.498  24.566   9.075
  656POPC   GL212794  28.646  24.806   8.855
  656POPC   C1A12795  28.644  24.285   8.726
  656POPC   D2A12796  28.759  24.548   8.384
  656POPC   C3A12797  28.484  24.557   8.047
  656POPC   C4A12798  28.193  24.298   7.829
  656POPC   C1B12799  28.281  24.605   8.584
  656POPC   C2B12800  28.050  24.788   8.220
  656POPC   C3B12801  28.073  24.797   7.784
  656POPC   C4B12802  28.399  24.697   7.521
  657POPC   NC312803  10.490  44.994   9.462
  657POPC   PO412804  10.254  44.373   9.720
  657POPC   GL112805  10.200  44.540   9.264
  657POPC   GL212806  10.160  44.882   9.087
  657POPC   C1A12807  10.498  44.562   8.891
  657POPC   D2A12808  10.692  44.685   8.505
  657POPC   C3A12809  10.487  44.519   8.144
  657POPC   C4A12810  10.355  44.521   7.714
  657POPC   C1B12811  10.377   0.105   8.740
  657POPC   C2B12812  10.459   0.076   8.283
  657POPC   C3B12813  10.603  44.948   7.892
  657POPC   C4B12814  10.944  44.764   7.692
  658POPC   NC312815  19.027   6.661   9.597
  658POPC   PO412816  18.826   7.188   9.353
  658POPC   GL112817  18.870   6.759   9.133
  658POPC   GL212818  19.165   6.515   9.132
  658POPC   C1A12819  18.781   6.528   8.777
  658POPC   D2A12820  18.867   6.805   8.474
  658POPC   C3A12821  18.789   6.776   8.061
  658POPC   C4A12822  18.868   6.622   7.681
  658POPC   C1B12823  19.290   6.689   8.742
  658POPC   C2B12824  19.245   6.509   8.326
  658POPC   C3B12825  19.315   6.699   7.950
  658POPC   C4B12826  19.386   6.587   7.543
  659POPC   NC312827  21.732   9.157   9.353
  659POPC   PO412828  21.130   8.958   9.501
  659POPC   GL112829  21.356   8.835   9.141
  659POPC   GL212830  21.431   9.142   8.952
  659POPC   C1A12831  21.633   8.719   8.809
  659POPC   D2A12832  21.660   8.978   8.423
  659POPC   C3A12833  21.489   8.801   8.040
  659POPC   C4A12834  21.656   8.669   7.623
  659POPC   C1B12835  21.147   8.987   8.685
  659POPC   C2B12836  20.986   8.962   8.307
  659POPC   C3B12837  20.971   9.021   7.890
  659POPC   C4B12838  21.334   9.068   7.629
  660POPC   NC312839  23.564  18.037   9.682
  660POPC   PO412840  23.875  18.556   9.628
  660POPC   GL112841  23.733  18.282   9.244
  660POPC   GL212842  23.635  17.944   9.189
  660POPC   C1A12843  23.656  18.202   8.766
  660POPC   D2A12844  23.484  18.256   8.357
  660POPC   C3A12845  23.649  18.257   7.961
  660POPC   C4A12846  23.678  18.219   7.568
  660POPC   C1B12847  23.475  17.707   8.834
  660POPC   C2B12848  23.352  17.768   8.440
  660POPC   C3B12849  23.361  17.851   8.020
  660POPC   C4B12850  23.428  17.768   7.589
  661POPC   NC312851  16.848  30.472   9.721
  661POPC   PO412852  16.788  29.796   9.529
  661POPC   GL112853  16.721  29.971   9.124
  661POPC   GL212854  16.383  29.970   8.959
  661POPC   C1A12855  16.833  29.905   8.697
  661POPC   D2A12856  16.657  30.048   8.290
  661POPC   C3A12857  16.773  30.052   7.874
  661POPC   C4A12858  16.719  30.249   7.477
  661POPC   C1B12859  16.455  29.593   8.724
  661POPC   C2B12860  16.684  29.532   8.341
  661POPC   C3B12861  16.510  29.621   7.938
  661POPC   C4B12862  16.401  29.765   7.524
  662POPC   NC312863   7.872  22.668   9.555
  662POPC   PO412864   8.326  23.160   9.583
  662POPC   GL112865   8.246  22.901   9.185
  662POPC   GL212866   8.036  22.632   9.094
  662POPC   C1A12867   8.438  22.715   8.785
  662POPC   D2A12868   8.308  22.879   8.375
  662POPC   C3A12869   8.454  22.757   7.967
  662POPC   C4A12870   8.379  22.912   7.537
  662POPC   C1B12871   7.753  22.792   8.845
  662POPC   C2B12872   7.798  22.889   8.444
  662POPC   C3B12873   7.915  22.668   8.086
  662POPC   C4B12874   7.978  22.619   7.657
  663POPC   NC312875  27.135   7.446   9.465
  663POPC   PO412876  26.486   7.753   9.363
  663POPC   GL112877  26.734   7.468   9.130
  663POPC   GL212878  26.959   7.718   9.088
  663POPC   C1A12879  26.827   7.332   8.711
  663POPC   D2A12880  26.587   7.360   8.328
  663POPC   C3A12881  26.701   7.269   7.908
  663POPC   C4A12882  27.038   7.065   7.754
  663POPC   C1B12883  26.924   7.965   8.785
  663POPC   C2B12884  26.695   7.846   8.443
  663POPC   C3B12885  26.718   7.759   7.996
  663POPC   C4B12886  26.939   7.722   7.592
  664POPC   NC312887   7.926  33.429   9.509
  664POPC   PO412888   8.434  33.775   9.513
  664POPC   GL112889   8.177  33.830   9.163
  664POPC   GL212890   8.111  34.185   9.108
  664POPC   C1A12891   8.205  33.732   8.705
  664POPC   D2A12892   8.089  33.507   8.304
  664POPC   C3A12893   8.206  33.574   7.889
  664POPC   C4A12894   8.083  33.479   7.482
  664POPC   C1B12895   8.461  34.183   8.814
  664POPC   C2B12896   8.549  34.159   8.361
  664POPC   C3B12897   8.226  34.058   8.045
  664POPC   C4B12898   7.893  34.288   7.788
  665POPC   NC312899  29.704  15.607   9.207
  665POPC   PO412900  30.306  15.776   9.532
  665POPC   GL112901  30.140  15.881   9.126
  665POPC   GL212902  29.856  16.131   9.168
  665POPC   C1A12903  30.073  15.797   8.659
  665POPC   D2A12904  30.023  16.044   8.260
  665POPC   C3A12905  30.127  15.962   7.832
  665POPC   C4A12906  30.145  15.981   7.397
  665POPC   C1B12907  29.626  16.089   8.766
  665POPC   C2B12908  29.539  15.924   8.354
  665POPC   C3B12909  29.631  16.025   7.915
  665POPC   C4B12910  29.695  16.203   7.501
  666POPC   NC312911  44.302  28.408   9.695
  666POPC   PO412912  43.647  28.238   9.469
  666POPC   GL112913  43.682  28.517   9.131
  666POPC   GL212914  44.005  28.635   9.087
  666POPC   C1A12915  43.603  28.396   8.715
  666POPC   D2A12916  43.511  28.031   8.463
  666POPC   C3A12917  43.622  28.159   8.041
  666POPC   C4A12918  43.529  27.992   7.628
  666POPC   C1B12919  44.135  28.450   8.718
  666POPC   C2B12920  44.044  28.107   8.473
  666POPC   C3B12921  44.147  28.275   8.107
  666POPC   C4B12922  43.954  28.572   7.801
  667POPC   NC312923  35.425   4.566   9.497
  667POPC   PO412924  35.303   3.891   9.620
  667POPC   GL112925  35.431   4.047   9.181
  667POPC   GL212926  35.430   4.383   9.031
  667POPC   C1A12927  35.530   3.994   8.745
  667POPC   D2A12928  35.433   4.335   8.446
  667POPC   C3A12929  35.678   4.312   8.100
  667POPC   C4A12930  35.468   4.128   7.734
  667POPC   C1B12931  35.126   4.593   8.771
  667POPC   C2B12932  35.143   4.765   8.342
  667POPC   C3B12933  35.260   4.581   7.951
  667POPC   C4B12934  35.017   4.382   7.619
  668POPC   NC312935  29.022  44.394   9.371
  668POPC   PO412936  29.439  44.904   9.529
  668POPC   GL112937  29.223  44.857   9.129
  668POPC   GL212938  28.895  44.733   8.969
  668POPC   C1A12939  29.241  44.962   8.699
  668POPC   D2A12940  28.899  44.937   8.426
  668POPC   C3A12941  28.978  44.788   8.046
  668POPC   C4A12942  29.269  44.924   7.764
  668POPC   C1B12943  29.164  44.452   8.710
  668POPC   C2B12944  29.185  44.267   8.314
  668POPC   C3B12945  29.321  44.421   7.932
  668POPC   C4B12946  29.258  44.303   7.538
  669POPC   NC312947  44.788  19.120   9.270
  669POPC   PO412948  44.333  18.778   9.609
  669POPC   GL112949  44.476  18.724   9.134
  669POPC   GL212950  44.840  18.766   8.912
  669POPC   C1A12951  44.407  18.934   8.715
  669POPC   D2A12952  44.589  18.895   8.282
  669POPC   C3A12953  44.362  19.092   7.923
  669POPC   C4A12954  44.302  19.548   7.850
  669POPC   C1B12955  44.913  19.149   8.627
  669POPC   C2B12956   0.217  19.272   8.305
  669POPC   C3B12957   0.179  19.093   7.881
  669POPC   C4B12958  44.865  18.801   7.858
  670POPC   NC312959  15.025   2.117   9.318
  670POPC   PO412960  15.556   1.794   9.550
  670POPC   GL112961  15.426   1.778   9.130
  670POPC   GL212962  15.362   2.103   8.954
  670POPC   C1A12963  15.257   1.668   8.745
  670POPC   D2A12964  15.091   1.994   8.469
  670POPC   C3A12965  15.338   2.036   8.099
  670POPC   C4A12966  15.129   1.811   7.783
  670POPC   C1B12967  15.515   2.331   8.620
  670POPC   C2B12968  15.261   2.545   8.367
  670POPC   C3B12969  14.960   2.380   8.117
  670POPC   C4B12970  14.839   2.263   7.715
  671POPC   NC312971  41.707  33.201   9.542
  671POPC   PO412972  42.325  33.035   9.697
  671POPC   GL112973  42.355  33.002   9.227
  671POPC   GL212974  42.026  32.874   9.113
  671POPC   C1A12975  42.314  33.184   8.794
  671POPC   D2A12976  42.468  33.153   8.357
  671POPC   C3A12977  42.184  33.161   7.981
  671POPC   C4A12978  42.197  33.083   7.526
  671POPC   C1B12979  42.194  32.686   8.710
  671POPC   C2B12980  42.386  32.614   8.304
  671POPC   C3B12981  42.358  32.698   7.845
  671POPC   C4B12982  42.462  32.654   7.421
  672POPC   NC312983  11.803  15.013   9.625
  672POPC   PO412984  11.647  15.607   9.559
  672POPC   GL112985  11.856  15.363   9.238
  672POPC   GL212986  12.209  15.199   9.256
  672POPC   C1A12987  12.004  15.455   8.847
  672POPC   D2A12988  12.122  15.420   8.444
  672POPC   C3A12989  11.857  15.505   8.101
  672POPC   C4A12990  11.804  15.304   7.706
  672POPC   C1B12991  12.533  15.314   8.917
  672POPC   C2B12992  12.625  15.289   8.449
  672POPC   C3B12993  12.394  15.366   8.025
  672POPC   C4B12994  12.285  15.221   7.603
  673POPC   NC312995  17.267  19.505   9.468
  673POPC   PO412996  17.254  20.137   9.404
  673POPC   GL112997  17.458  20.099   9.067
  673POPC   GL212998  17.560  19.748   9.124
  673POPC   C1A12999  17.365  19.972   8.687
  673POPC   D2A13000  17.546  19.755   8.398
  673POPC   C3A13001  17.392  19.965   8.082
  673POPC   C4A13002  17.527  20.155   7.735
  673POPC   C1B13003  17.386  19.473   8.793
  673POPC   C2B13004  17.162  19.426   8.409
  673POPC   C3B13005  17.291  19.451   8.030
  673POPC   C4B13006  17.397  19.656   7.673
  674POPC   NC313007   0.315  29.523   9.465
  674POPC   PO413008   0.245  28.839   9.484
  674POPC   GL113009   0.344  28.909   9.100
  674POPC   GL213010   0.580  29.188   9.147
  674POPC   C1A13011   0.606  28.864   8.740
  674POPC   D2A13012   0.699  28.991   8.312
  674POPC   C3A13013   0.657  28.790   7.888
  674POPC   C4A13014   0.605  29.042   7.518
  674POPC   C1B13015   0.341  29.308   8.767
  674POPC   C2B13016   0.417  29.455   8.356
  674POPC   C3B13017   0.471  29.311   7.956
  674POPC   C4B13018   0.286  29.450   7.551
  675POPC   NC313019  11.833  29.671   9.459
  675POPC   PO413020  12.065  30.248   9.582
  675POPC   GL113021  12.143  30.147   9.180
  675POPC   GL213022  11.779  30.156   9.174
  675POPC   C1A13023  12.238  29.946   8.784
  675POPC   D2A13024  12.414  29.996   8.366
  675POPC   C3A13025  12.256  29.859   7.969
  675POPC   C4A13026  12.446  29.948   7.595
  675POPC   C1B13027  11.838  30.303   8.797
  675POPC   C2B13028  11.842  30.061   8.456
  675POPC   C3B13029  11.938  30.225   8.101
  675POPC   C4B13030  11.792  30.131   7.716
  676POPC   NC313031   8.978   1.799   9.434
  676POPC   PO413032   8.689   2.386   9.381
  676POPC   GL113033   9.039   2.205   9.106
  676POPC   GL213034   9.034   1.834   8.935
  676POPC   C1A13035   9.139   2.257   8.685
  676POPC   D2A13036   9.078   1.940   8.414
  676POPC   C3A13037   8.927   2.150   8.105
  676POPC   C4A13038   8.989   2.188   7.711
  676POPC   C1B13039   8.707   1.667   8.689
  676POPC   C2B13040   8.633   1.745   8.261
  676POPC   C3B13041   8.946   1.680   7.913
  676POPC   C4B13042   9.035   1.731   7.450
  677POPC   NC313043  41.024   4.838   9.531
  677POPC   PO413044  40.410   5.022   9.376
  677POPC   GL113045  40.572   4.863   9.000
  677POPC   GL213046  40.867   5.038   9.085
  677POPC   C1A13047  40.649   4.934   8.542
  677POPC   D2A13048  40.916   5.185   8.251
  677POPC   C3A13049  40.672   5.185   7.868
  677POPC   C4A13050  40.379   4.850   7.888
  677POPC   C1B13051  41.068   4.804   8.793
  677POPC   C2B13052  41.104   4.698   8.383
  677POPC   C3B13053  40.957   4.745   7.974
  677POPC   C4B13054  41.144   5.085   7.768
  678POPC   NC313055  34.426  38.950   9.743
  678POPC   PO413056  34.419  39.507   9.305
  678POPC   GL113057  34.657  39.271   9.019
  678POPC   GL213058  34.392  39.183   8.791
  678POPC   C1A13059  34.866  39.162   8.636
  678POPC   D2A13060  34.646  39.058   8.254
  678POPC   C3A13061  34.691  39.329   7.874
  678POPC   C4A13062  34.469  39.730   7.822
  678POPC   C1B13063  34.198  38.791   8.607
  678POPC   C2B13064  34.141  38.637   8.176
  678POPC   C3B13065  34.510  38.701   7.914
  678POPC   C4B13066  34.610  38.897   7.499
  679POPC   NC313067  14.278  41.158   9.690
  679POPC   PO413068  14.186  40.636   9.531
  679POPC   GL113069  14.262  40.939   9.144
  679POPC   GL213070  14.440  41.259   9.192
  679POPC   C1A13071  14.393  40.910   8.672
  679POPC   D2A13072  14.308  40.840   8.206
  679POPC   C3A13073  14.539  40.594   7.922
  679POPC   C4A13074  14.741  40.724   7.520
  679POPC   C1B13075  14.717  41.281   8.796
  679POPC   C2B13076  14.807  41.083   8.358
  679POPC   C3B13077  14.662  41.113   7.900
  679POPC   C4B13078  14.626  41.228   7.453
  680POPC   NC313079  28.513   8.790   9.569
  680POPC   PO413080  27.881   8.715   9.448
  680POPC   GL113081  28.203   8.992   9.204
  680POPC   GL213082  28.485   9.219   9.285
  680POPC   C1A13083  28.481   8.902   8.857
  680POPC   D2A13084  28.349   8.691   8.481
  680POPC   C3A13085  28.415   8.599   8.050
  680POPC   C4A13086  28.399   8.800   7.664
  680POPC   C1B13087  28.609   9.404   8.899
  680POPC   C2B13088  28.548   9.240   8.473
  680POPC   C3B13089  28.398   9.130   8.072
  680POPC   C4B13090  28.491   9.291   7.659
  681POPC   NC313091  28.070  44.666   9.509
  681POPC   PO413092  28.730  44.739   9.447
  681POPC   GL113093  28.442  44.601   9.161
  681POPC   GL213094  28.515  44.269   9.205
  681POPC   C1A13095  28.400  44.691   8.735
  681POPC   D2A13096  28.183  44.648   8.343
  681POPC   C3A13097  28.437  44.746   8.017
  681POPC   C4A13098  28.133  44.715   7.697
  681POPC   C1B13099  28.695  44.275   8.801
  681POPC   C2B13100  28.715  44.474   8.390
  681POPC   C3B13101  28.790  44.327   7.972
  681POPC   C4B13102  28.503  44.369   7.693
  682POPC   NC313103   5.702  44.371   9.460
  682POPC   PO413104   5.945  43.736   9.629
  682POPC   GL113105   5.847  43.796   9.204
  682POPC   GL213106   5.791  44.123   9.044
  682POPC   C1A13107   6.070  43.759   8.820
  682POPC   D2A13108   6.030  43.932   8.427
  682POPC   C3A13109   6.067  43.686   8.083
  682POPC   C4A13110   5.908  43.396   7.800
  682POPC   C1B13111   5.837  44.341   8.667
  682POPC   C2B13112   5.584  44.141   8.365
  682POPC   C3B13113   5.712  44.019   7.959
  682POPC   C4B13114   5.566  44.038   7.555
  683POPC   NC313115  11.648  14.444   9.296
  683POPC   PO413116  12.164  14.752   9.520
  683POPC   GL113117  12.091  14.659   9.127
  683POPC   GL213118  11.851  14.869   9.070
  683POPC   C1A13119  11.971  14.511   8.711
  683POPC   D2A13120  12.273  14.347   8.447
  683POPC   C3A13121  12.160  14.427   8.036
  683POPC   C4A13122  12.271  14.136   7.733
  683POPC   C1B13123  12.178  14.983   8.744
  683POPC   C2B13124  12.277  14.923   8.309
  683POPC   C3B13125  12.044  14.924   7.940
  683POPC   C4B13126  11.788  14.620   7.733
  684POPC   NC313127  44.666  35.352   9.777
  684POPC   PO413128   0.264  35.541   9.620
  684POPC   GL113129  44.969  35.511   9.273
  684POPC   GL213130  44.860  35.209   9.279
  684POPC   C1A13131  44.722  35.555   8.880
  684POPC   D2A13132  44.578  35.732   8.463
  684POPC   C3A13133  44.648  35.466   8.080
  684POPC   C4A13134  44.380  35.499   7.706
  684POPC   C1B13135  44.865  35.040   8.886
  684POPC   C2B13136  44.652  35.140   8.497
  684POPC   C3B13137  44.641  34.959   8.070
  684POPC   C4B13138  44.637  35.062   7.653
  685POPC   NC313139  36.733  35.270   9.363
  685POPC   PO413140  37.351  35.616   9.474
  685POPC   GL113141  37.075  35.606   9.161
  685POPC   GL213142  37.208  35.291   9.067
  685POPC   C1A13143  36.880  35.528   8.756
  685POPC   D2A13144  37.043  35.666   8.385
  685POPC   C3A13145  36.919  35.411   8.047
  685POPC   C4A13146  36.690  35.208   7.707
  685POPC   C1B13147  37.140  35.075   8.686
  685POPC   C2B13148  37.223  34.843   8.318
  685POPC   C3B13149  37.073  34.947   7.936
  685POPC   C4B13150  37.086  34.917   7.496
  686POPC   NC313151  41.527  23.864   9.807
  686POPC   PO413152  41.859  23.403   9.380
  686POPC   GL113153  41.596  23.748   9.295
  686POPC   GL213154  41.768  24.035   9.171
  686POPC   C1A13155  41.368  23.819   8.907
  686POPC   D2A13156  41.370  23.587   8.519
  686POPC   C3A13157  41.420  23.888   8.172
  686POPC   C4A13158  41.315  23.683   7.808
  686POPC   C1B13159  41.914  23.763   8.830
  686POPC   C2B13160  41.870  23.713   8.402
  686POPC   C3B13161  41.804  23.580   7.989
  686POPC   C4B13162  41.839  23.884   7.673
  687POPC   NC313163  14.188  42.278   9.963
  687POPC   PO413164  14.314  41.625   9.595
  687POPC   GL113165  14.401  41.765   9.185
  687POPC   GL213166  14.110  41.710   9.051
  687POPC   C1A13167  14.560  41.767   8.748
  687POPC   D2A13168  14.468  41.840   8.307
  687POPC   C3A13169  14.506  41.651   7.889
  687POPC   C4A13170  14.521  41.737   7.419
  687POPC   C1B13171  14.198  41.395   8.758
  687POPC   C2B13172  14.380  41.343   8.362
  687POPC   C3B13173  14.177  41.273   7.983
  687POPC   C4B13174  14.165  41.406   7.587
  688POPC   NC313175  36.906  34.337   9.439
  688POPC   PO413176  37.097  34.931   9.421
  688POPC   GL113177  37.179  34.744   9.065
  688POPC   GL213178  37.283  34.432   9.113
  688POPC   C1A13179  36.904  34.571   8.772
  688POPC   D2A13180  36.557  34.493   8.533
  688POPC   C3A13181  36.758  34.628   8.185
  688POPC   C4A13182  36.678  34.689   7.758
  688POPC   C1B13183  37.297  34.244   8.728
  688POPC   C2B13184  37.151  34.313   8.304
  688POPC   C3B13185  37.107  34.431   7.857
  688POPC   C4B13186  37.231  34.366   7.407
  689POPC   NC313187  40.772  40.937   9.409
  689POPC   PO413188  40.900  40.265   9.457
  689POPC   GL113189  40.865  40.543   9.100
  689POPC   GL213190  40.549  40.739   8.986
  689POPC   C1A13191  40.986  40.615   8.683
  689POPC   D2A13192  40.956  40.885   8.315
  689POPC   C3A13193  40.912  40.666   7.931
  689POPC   C4A13194  41.100  40.502   7.537
  689POPC   C1B13195  40.722  41.110   8.744
  689POPC   C2B13196  40.690  41.322   8.325
  689POPC   C3B13197  40.725  41.157   7.877
  689POPC   C4B13198  40.794  40.914   7.479
  690POPC   NC313199   3.277  43.748   9.534
  690POPC   PO413200   3.797  44.148   9.741
  690POPC   GL113201   3.614  44.094   9.276
  690POPC   GL213202   3.674  43.767   9.155
  690POPC   C1A13203   3.491  44.100   8.784
  690POPC   D2A13204   3.321  43.838   8.381
  690POPC   C3A13205   3.292  44.013   7.924
  690POPC   C4A13206   3.325  43.932   7.451
  690POPC   C1B13207   3.453  43.575   8.811
  690POPC   C2B13208   3.391  43.310   8.469
  690POPC   C3B13209   3.181  43.425   8.088
  690POPC   C4B13210   3.474  43.570   7.764
  691POPC   NC313211  27.621   8.419   9.690
  691POPC   PO413212  27.252   7.930   9.437
  691POPC   GL113213  27.353   8.121   9.066
  691POPC   GL213214  27.540   8.432   9.146
  691POPC   C1A13215  27.605   7.978   8.710
  691POPC   D2A13216  27.675   8.137   8.305
  691POPC   C3A13217  27.637   7.902   7.910
  691POPC   C4A13218  27.424   7.868   7.537
  691POPC   C1B13219  27.481   8.477   8.679
  691POPC   C2B13220  27.337   8.559   8.241
  691POPC   C3B13221  27.533   8.406   7.895
  691POPC   C4B13222  27.489   8.438   7.496
  692POPC   NC313223  18.739  26.676   9.494
  692POPC   PO413224  19.337  26.870   9.495
  692POPC   GL113225  19.216  26.987   9.089
  692POPC   GL213226  18.866  26.966   9.067
  692POPC   C1A13227  19.337  27.041   8.669
  692POPC   D2A13228  19.042  27.145   8.347
  692POPC   C3A13229  19.236  26.999   8.013
  692POPC   C4A13230  19.055  26.850   7.643
  692POPC   C1B13231  18.937  26.737   8.656
  692POPC   C2B13232  18.880  26.657   8.188
  692POPC   C3B13233  18.568  26.713   7.878
  692POPC   C4B13234  18.572  26.898   7.455
  693POPC   NC313235  29.789   6.138   9.530
  693POPC   PO413236  30.154   5.511   9.470
  693POPC   GL113237  29.935   5.615   9.094
  693POPC   GL213238  29.869   6.000   9.059
  693POPC   C1A13239  29.991   5.702   8.668
  693POPC   D2A13240  30.087   5.509   8.313
  693POPC   C3A13241  30.048   5.779   7.955
  693POPC   C4A13242  30.208   5.830   7.540
  693POPC   C1B13243  29.564   5.943   8.769
  693POPC   C2B13244  29.670   6.005   8.387
  693POPC   C3B13245  29.546   5.890   8.027
  693POPC   C4B13246  29.577   6.186   7.707
  694POPC   NC313247   0.708  44.587   9.454
  694POPC   PO413248   0.058  44.903   9.622
  694POPC   GL113249   0.061  44.717   9.189
  694POPC   GL213250   0.397  44.693   9.094
  694POPC   C1A13251   0.097  44.589   8.717
  694POPC   D2A13252   0.378  44.628   8.359
  694POPC   C3A13253   0.236  44.614   7.938
  694POPC   C4A13254   0.422  44.775   7.551
  694POPC   C1B13255   0.709  44.567   8.763
  694POPC   C2B13256   0.800  44.349   8.322
  694POPC   C3B13257   0.725  44.495   7.879
  694POPC   C4B13258   0.908  44.581   7.460
  695POPC   NC313259  42.392  41.195   9.527
  695POPC   PO413260  41.850  40.921   9.471
  695POPC   GL113261  42.250  40.937   9.139
  695POPC   GL213262  42.620  40.844   9.177
  695POPC   C1A13263  42.335  40.758   8.750
  695POPC   D2A13264  42.276  40.605   8.349
  695POPC   C3A13265  42.324  40.876   7.992
  695POPC   C4A13266  42.505  41.087   7.665
  695POPC   C1B13267  42.836  40.823   8.737
  695POPC   C2B13268  42.775  40.776   8.292
  695POPC   C3B13269  42.624  40.458   8.013
  695POPC   C4B13270  42.248  40.399   7.790
  696POPC   NC313271  31.356  12.790   9.450
  696POPC   PO413272  32.025  12.716   9.427
  696POPC   GL113273  31.805  12.818   9.076
  696POPC   GL213274  31.580  13.092   9.111
  696POPC   C1A13275  31.659  12.856   8.665
  696POPC   D2A13276  31.798  12.800   8.255
  696POPC   C3A13277  31.475  12.770   8.000
  696POPC   C4A13278  31.468  12.669   7.625
  696POPC   C1B13279  31.237  13.127   8.781
  696POPC   C2B13280  31.383  13.155   8.364
  696POPC   C3B13281  31.673  13.248   8.056
  696POPC   C4B13282  31.480  13.215   7.653
  697POPC   NC313283  17.064  24.790   9.556
  697POPC   PO413284  16.978  24.083   9.662
  697POPC   GL113285  16.851  24.170   9.259
  697POPC   GL213286  16.726  24.506   9.282
  697POPC   C1A13287  16.998  24.358   8.876
  697POPC   D2A13288  17.192  24.380   8.443
  697POPC   C3A13289  16.924  24.503   8.108
  697POPC   C4A13290  16.813  24.496   7.681
  697POPC   C1B13291  16.609  24.709   8.884
  697POPC   C2B13292  16.609  24.752   8.441
  697POPC   C3B13293  16.374  24.854   8.079
  697POPC   C4B13294  16.317  24.694   7.690
  698POPC   NC313295  40.965  22.694   9.346
  698POPC   PO413296  40.811  22.083   9.601
  698POPC   GL113297  40.798  22.226   9.182
  698POPC   GL213298  41.118  22.101   9.174
  698POPC   C1A13299  40.648  22.064   8.765
  698POPC   D2A13300  40.503  21.926   8.348
  698POPC   C3A13301  40.745  22.130   8.028
  698POPC   C4A13302  40.626  22.340   7.639
  698POPC   C1B13303  41.113  22.254   8.780
  698POPC   C2B13304  41.006  22.431   8.400
  698POPC   C3B13305  41.174  22.444   8.012
  698POPC   C4B13306  41.110  22.218   7.658
  699POPC   NC313307  20.922  32.770   9.247
  699POPC   PO413308  21.489  33.017   9.537
  699POPC   GL113309  21.482  33.269   9.101
  699POPC   GL213310  21.194  33.128   9.015
  699POPC   C1A13311  21.493  33.177   8.588
  699POPC   D2A13312  21.431  32.765   8.291
  699POPC   C3A13313  21.334  32.845   7.903
  699POPC   C4A13314  21.481  33.294   7.918
  699POPC   C1B13315  21.116  32.838   8.668
  699POPC   C2B13316  20.897  32.840   8.293
  699POPC   C3B13317  20.965  33.173   8.015
  699POPC   C4B13318  21.139  33.183   7.562
  700POPC   NC313319  37.078  18.384   9.305
  700POPC   PO413320  36.639  18.556   9.689
  700POPC   GL113321  36.740  18.091   9.153
  700POPC   GL213322  37.206  18.007   8.997
  700POPC   C1A13323  36.875  18.066   8.659
  700POPC   D2A13324  37.073  18.313   8.301
  700POPC   C3A13325  36.956  18.352   7.861
  700POPC   C4A13326  36.571  18.431   7.665
  700POPC   C1B13327  37.435  18.204   8.654
  700POPC   C2B13328  37.545  18.118   8.213
  700POPC   C3B13329  37.514  17.920   7.814
  700POPC   C4B13330  37.216  18.032   7.470
  701POPC   NC313331   9.950   4.881   9.822
  701POPC   PO413332   9.281   5.088   9.655
  701POPC   GL113333   9.490   5.060   9.221
  701POPC   GL213334   9.826   4.882   9.127
  701POPC   C1A13335   9.552   5.069   8.738
  701POPC   D2A13336   9.285   5.291   8.447
  701POPC   C3A13337   9.480   5.381   8.040
  701POPC   C4A13338   9.597   5.072   7.755
  701POPC   C1B13339  10.040   4.931   8.682
  701POPC   C2B13340   9.891   4.989   8.228
  701POPC   C3B13341  10.108   4.943   7.794
  701POPC   C4B13342  10.197   5.046   7.360
  702POPC   NC313343  37.135  40.829   9.427
  702POPC   PO413344  36.483  40.592   9.450
  702POPC   GL113345  36.504  40.623   9.075
  702POPC   GL213346  36.874  40.640   9.006
  702POPC   C1A13347  36.466  40.554   8.693
  702POPC   D2A13348  36.758  40.664   8.414
  702POPC   C3A13349  36.544  40.651   8.068
  702POPC   C4A13350  36.730  40.799   7.702
  702POPC   C1B13351  37.165  40.472   8.654
  702POPC   C2B13352  37.295  40.364   8.255
  702POPC   C3B13353  37.178  40.568   7.857
  702POPC   C4B13354  37.280  40.707   7.442
  703POPC   NC313355  16.758   1.648   9.450
  703POPC   PO413356  16.418   2.268   9.369
  703POPC   GL113357  16.509   1.943   9.103
  703POPC   GL213358  16.883   1.952   9.060
  703POPC   C1A13359  16.570   1.848   8.678
  703POPC   D2A13360  16.636   2.048   8.283
  703POPC   C3A13361  16.656   1.761   7.946
  703POPC   C4A13362  17.027   1.756   7.729
  703POPC   C1B13363  17.084   1.896   8.653
  703POPC   C2B13364  17.225   2.197   8.338
  703POPC   C3B13365  16.989   2.312   7.977
  703POPC   C4B13366  16.595   2.224   7.755
  704POPC   NC313367   3.711  44.606   9.809
  704POPC   PO413368   3.276  44.513   9.278
  704POPC   GL113369   3.376  44.782   8.945
  704POPC   GL213370   3.760  44.814   8.821
  704POPC   C1A13371   3.376  44.644   8.543
  704POPC   D2A13372   3.454  44.313   8.313
  704POPC   C3A13373   3.645  44.382   7.947
  704POPC   C4A13374   3.346  44.528   7.705
  704POPC   C1B13375   3.582   0.150   8.651
  704POPC   C2B13376   3.286   0.110   8.352
  704POPC   C3B13377   3.489  44.859   8.093
  704POPC   C4B13378   3.566   0.020   7.731
  705POPC   NC313379  28.326  17.571   9.624
  705POPC   PO413380  27.902  17.097   9.565
  705POPC   GL113381  28.188  17.279   9.233
  705POPC   GL213382  28.240  17.668   9.145
  705POPC   C1A13383  28.475  17.300   8.877
  705POPC   D2A13384  28.767  17.455   8.554
  705POPC   C3A13385  28.649  17.264   8.178
  705POPC   C4A13386  28.321  17.279   7.812
  705POPC   C1B13387  28.093  17.650   8.751
  705POPC   C2B13388  28.219  17.394   8.429
  705POPC   C3B13389  28.323  17.657   8.126
  705POPC   C4B13390  28.080  17.751   7.775
  706POPC   NC313391  35.783   3.920   9.513
  706POPC   PO413392  36.180   3.417   9.532
  706POPC   GL113393  36.254   3.510   9.106
  706POPC   GL213394  35.954   3.690   9.051
  706POPC   C1A13395  36.255   3.343   8.686
  706POPC   D2A13396  36.234   3.565   8.262
  706POPC   C3A13397  36.198   3.352   7.854
  706POPC   C4A13398  35.870   3.273   7.504
  706POPC   C1B13399  36.209   3.855   8.702
  706POPC   C2B13400  36.195   4.085   8.307
  706POPC   C3B13401  36.225   3.976   7.890
  706POPC   C4B13402  36.514   3.762   7.632
  707POPC   NC313403   5.978  12.505   9.576
  707POPC   PO413404   6.173  13.088   9.313
  707POPC   GL113405   5.815  12.834   9.190
  707POPC   GL213406   6.011  12.626   9.007
  707POPC   C1A13407   5.481  12.723   8.871
  707POPC   D2A13408   5.373  12.544   8.440
  707POPC   C3A13409   5.508  12.739   8.037
  707POPC   C4A13410   5.682  12.547   7.666
  707POPC   C1B13411   5.880  12.994   8.700
  707POPC   C2B13412   5.783  13.141   8.271
  707POPC   C3B13413   5.955  13.204   7.832
  707POPC   C4B13414   5.994  12.921   7.457
  708POPC   NC313415  24.496  16.874   9.647
  708POPC   PO413416  24.618  16.270   9.448
  708POPC   GL113417  24.364  16.587   9.239
  708POPC   GL213418  24.108  16.468   9.027
  708POPC   C1A13419  24.503  16.911   8.963
  708POPC   D2A13420  24.652  16.864   8.563
  708POPC   C3A13421  24.440  16.908   8.191
  708POPC   C4A13422  24.438  16.675   7.824
  708POPC   C1B13423  24.452  16.421   8.725
  708POPC   C2B13424  24.499  16.386   8.263
  708POPC   C3B13425  24.643  16.203   7.854
  708POPC   C4B13426  24.523  16.384   7.401
  709POPC   NC313427  35.621  14.677   9.636
  709POPC   PO413428  36.320  14.416   9.643
  709POPC   GL113429  36.348  14.190   9.251
  709POPC   GL213430  36.160  14.462   9.084
  709POPC   C1A13431  36.381  14.031   8.840
  709POPC   D2A13432  36.230  14.361   8.578
  709POPC   C3A13433  36.216  14.362   8.153
  709POPC   C4A13434  36.175  14.308   7.723
  709POPC   C1B13435  36.274  14.829   8.778
  709POPC   C2B13436  36.290  14.869   8.305
  709POPC   C3B13437  36.069  14.801   7.899
  709POPC   C4B13438  35.809  14.742   7.520
  710POPC   NC313439   2.551  17.260   9.528
  710POPC   PO413440   1.958  17.545   9.432
  710POPC   GL113441   1.963  17.175   9.117
  710POPC   GL213442   2.283  16.967   9.169
  710POPC   C1A13443   1.888  17.370   8.717
  710POPC   D2A13444   1.799  17.799   8.571
  710POPC   C3A13445   1.797  17.765   8.130
  710POPC   C4A13446   2.128  17.795   7.823
  710POPC   C1B13447   2.382  17.219   8.767
  710POPC   C2B13448   2.262  17.478   8.357
  710POPC   C3B13449   2.059  17.313   7.957
  710POPC   C4B13450   2.235  17.163   7.539
  711POPC   NC313451  18.991  37.774   9.499
  711POPC   PO413452  19.434  37.231   9.487
  711POPC   GL113453  19.237  37.487   9.172
  711POPC   GL213454  18.826  37.491   9.123
  711POPC   C1A13455  19.281  37.692   8.802
  711POPC   D2A13456  19.044  37.922   8.539
  711POPC   C3A13457  19.109  37.898   8.105
  711POPC   C4A13458  18.951  37.716   7.748
  711POPC   C1B13459  18.678  37.911   8.914
  711POPC   C2B13460  18.562  38.077   8.478
  711POPC   C3B13461  18.607  38.085   8.018
  711POPC   C4B13462  18.533  37.990   7.575
  712POPC   NC313463  34.943  30.895   9.509
  712POPC   PO413464  34.438  30.421   9.477
  712POPC   GL113465  34.575  30.733   9.183
  712POPC   GL213466  34.326  30.591   8.988
  712POPC   C1A13467  34.800  30.780   8.782
  712POPC   D2A13468  34.969  30.914   8.338
  712POPC   C3A13469  34.789  30.738   7.946
  712POPC   C4A13470  34.547  30.447   7.667
  712POPC   C1B13471  34.332  30.973   8.776
  712POPC   C2B13472  34.470  30.861   8.388
  712POPC   C3B13473  34.300  30.667   8.064
  712POPC   C4B13474  34.159  30.946   7.810
  713POPC   NC313475  22.386  36.796   9.582
  713POPC   PO413476  21.743  37.094   9.583
  713POPC   GL113477  21.790  36.812   9.200
  713POPC   GL213478  22.128  36.750   9.152
  713POPC   C1A13479  21.789  36.852   8.736
  713POPC   D2A13480  21.529  37.111   8.434
  713POPC   C3A13481  21.753  37.273   8.038
  713POPC   C4A13482  21.860  37.054   7.658
  713POPC   C1B13483  22.326  36.861   8.782
  713POPC   C2B13484  22.292  36.690   8.371
  713POPC   C3B13485  22.190  36.765   7.945
  713POPC   C4B13486  22.373  37.072   7.638
  714POPC   NC313487   9.642  37.150   9.662
  714POPC   PO413488   9.505  36.464   9.619
  714POPC   GL113489   9.530  36.783   9.297
  714POPC   GL213490   9.840  36.846   9.234
  714POPC   C1A13491   9.602  36.892   8.811
  714POPC   D2A13492   9.644  37.175   8.466
  714POPC   C3A13493   9.669  36.938   8.091
  714POPC   C4A13494   9.652  36.939   7.653
  714POPC   C1B13495   9.988  36.552   8.844
  714POPC   C2B13496   9.857  36.493   8.428
  714POPC   C3B13497   9.896  36.430   8.011
  714POPC   C4B13498   9.963  36.553   7.606
  715POPC   NC313499   0.043  31.061   9.457
  715POPC   PO413500   0.622  30.709   9.525
  715POPC   GL113501   0.446  30.873   9.172
  715POPC   GL213502   0.130  30.664   9.137
  715POPC   C1A13503   0.637  30.961   8.763
  715POPC   D2A13504   0.855  30.812   8.412
  715POPC   C3A13505   0.732  30.956   8.025
  715POPC   C4A13506   0.747  30.712   7.659
  715POPC   C1B13507   0.143  30.873   8.739
  715POPC   C2B13508   0.326  30.748   8.346
  715POPC   C3B13509   0.270  30.733   7.909
  715POPC   C4B13510  44.968  30.925   7.654
  716POPC   NC313511   2.394  21.747   9.542
  716POPC   PO413512   1.801  21.417   9.572
  716POPC   GL113513   1.964  21.311   9.177
  716POPC   GL213514   1.838  21.637   9.078
  716POPC   C1A13515   2.214  21.386   8.814
  716POPC   D2A13516   2.190  21.545   8.406
  716POPC   C3A13517   2.320  21.300   8.068
  716POPC   C4A13518   2.070  21.089   7.797
  716POPC   C1B13519   1.798  21.938   8.752
  716POPC   C2B13520   1.677  21.870   8.353
  716POPC   C3B13521   1.808  21.586   8.049
  716POPC   C4B13522   1.731  21.666   7.637
  717POPC   NC313523  27.231   1.959   9.260
  717POPC   PO413524  27.866   2.155   9.464
  717POPC   GL113525  27.683   2.125   9.111
  717POPC   GL213526  27.406   2.399   9.067
  717POPC   C1A13527  27.755   1.797   8.773
  717POPC   D2A13528  27.678   1.569   8.386
  717POPC   C3A13529  27.825   1.799   8.053
  717POPC   C4A13530  27.756   2.060   7.739
  717POPC   C1B13531  27.529   2.227   8.654
  717POPC   C2B13532  27.694   2.258   8.266
  717POPC   C3B13533  27.412   2.383   7.932
  717POPC   C4B13534  27.378   2.360   7.484
  718POPC   NC313535  27.375  44.552   9.593
  718POPC   PO413536  27.776   0.020   9.548
  718POPC   GL113537  27.714  44.816   9.155
  718POPC   GL213538  27.708  44.468   9.153
  718POPC   C1A13539  27.871  44.735   8.749
  718POPC   D2A13540  27.728  44.908   8.382
  718POPC   C3A13541  27.753  44.743   8.029
  718POPC   C4A13542  27.729   0.022   7.672
  718POPC   C1B13543  27.457  44.400   8.756
  718POPC   C2B13544  27.389  44.496   8.325
  718POPC   C3B13545  27.426  44.334   7.934
  718POPC   C4B13546  27.613  44.538   7.591
  719POPC   NC313547   5.120  44.549   9.725
  719POPC   PO413548   5.790  44.715   9.755
  719POPC   GL113549   5.966  44.765   9.298
  719POPC   GL213550   5.647  44.697   9.081
  719POPC   C1A13551   6.080  44.770   8.843
  719POPC   D2A13552   5.837  44.848   8.479
  719POPC   C3A13553   5.943  44.646   8.096
  719POPC   C4A13554   5.886  44.449   7.710
  719POPC   C1B13555   5.446  45.000   8.816
  719POPC   C2B13556   5.439   0.190   8.438
  719POPC   C3B13557   5.573   0.006   8.051
  719POPC   C4B13558   5.521  44.811   7.668
  720POPC   NC313559  19.714  20.747   9.492
  720POPC   PO413560  19.909  21.434   9.540
  720POPC   GL113561  19.771  21.526   9.142
  720POPC   GL213562  19.607  21.200   9.118
  720POPC   C1A13563  19.849  21.447   8.698
  720POPC   D2A13564  19.856  21.185   8.329
  720POPC   C3A13565  19.759  21.479   8.033
  720POPC   C4A13566  19.578  21.494   7.682
  720POPC   C1B13567  19.450  21.125   8.700
  720POPC   C2B13568  19.335  21.230   8.289
  720POPC   C3B13569  19.489  21.060   7.929
  720POPC   C4B13570  19.895  21.089   7.709
  721POPC   NC313571  35.976  13.153   9.390
  721POPC   PO413572  36.308  12.577   9.246
  721POPC   GL113573  35.868  12.774   9.083
  721POPC   GL213574  35.704  12.521   8.877
  721POPC   C1A13575  35.774  13.077   8.762
  721POPC   D2A13576  36.037  13.112   8.412
  721POPC   C3A13577  36.056  12.853   8.076
  721POPC   C4A13578  35.982  13.071   7.675
  721POPC   C1B13579  36.080  12.666   8.643
  721POPC   C2B13580  36.411  12.537   8.405
  721POPC   C3B13581  36.567  12.656   8.007
  721POPC   C4B13582  36.340  12.711   7.661
  722POPC   NC313583  43.203  39.437   9.203
  722POPC   PO413584  42.947  38.837   9.448
  722POPC   GL113585  43.023  38.945   9.033
  722POPC   GL213586  42.758  39.185   9.017
  722POPC   C1A13587  43.353  39.031   8.686
  722POPC   D2A13588  43.489  39.333   8.335
  722POPC   C3A13589  43.425  39.189   7.897
  722POPC   C4A13590  43.089  38.960   7.677
  722POPC   C1B13591  42.870  39.229   8.588
  722POPC   C2B13592  42.972  39.191   8.156
  722POPC   C3B13593  42.775  39.365   7.754
  722POPC   C4B13594  42.804  39.324   7.268
  723POPC   NC313595  30.608  39.752   9.639
  723POPC   PO413596  30.668  40.369   9.547
  723POPC   GL113597  30.632  40.057   9.165
  723POPC   GL213598  30.929  39.930   9.000
  723POPC   C1A13599  30.517  39.950   8.696
  723POPC   D2A13600  30.292  39.957   8.265
  723POPC   C3A13601  30.410  40.146   7.843
  723POPC   C4A13602  30.753  40.289   7.552
  723POPC   C1B13603  30.995  39.668   8.652
  723POPC   C2B13604  30.769  39.709   8.290
  723POPC   C3B13605  30.813  39.840   7.868
  723POPC   C4B13606  30.704  39.783   7.440
  724POPC   NC313607  20.796  38.163   9.359
  724POPC   PO413608  20.227  38.511   9.425
  724POPC   GL113609  20.590  38.593   9.104
  724POPC   GL213610  20.841  38.886   9.095
  724POPC   C1A13611  20.643  38.679   8.645
  724POPC   D2A13612  20.567  38.808   8.193
  724POPC   C3A13613  20.441  38.495   7.876
  724POPC   C4A13614  20.640  38.105   7.698
  724POPC   C1B13615  21.085  38.971   8.715
  724POPC   C2B13616  21.080  38.750   8.353
  724POPC   C3B13617  20.875  38.419   8.128
  724POPC   C4B13618  20.928  38.536   7.697
  725POPC   NC313619   4.207  13.358   9.624
  725POPC   PO413620   4.725  13.762   9.498
  725POPC   GL113621   4.380  13.732   9.243
  725POPC   GL213622   4.325  13.405   9.105
  725POPC   C1A13623   4.353  13.827   8.821
  725POPC   D2A13624   4.535  13.745   8.417
  725POPC   C3A13625   4.295  13.681   8.059
  725POPC   C4A13626   4.429  13.674   7.613
  725POPC   C1B13627   4.225  13.348   8.637
  725POPC   C2B13628   3.869  13.451   8.357
  725POPC   C3B13629   3.875  13.390   7.928
  725POPC   C4B13630   4.272  13.225   7.819
  726POPC   NC313631  33.418  30.940   9.602
  726POPC   PO413632  32.760  30.909   9.411
  726POPC   GL113633  32.942  30.649   9.119
  726POPC   GL213634  33.236  30.542   9.293
  726POPC   C1A13635  32.885  30.718   8.686
  726POPC   D2A13636  32.595  30.772   8.352
  726POPC   C3A13637  32.884  30.888   8.039
  726POPC   C4A13638  32.862  30.593   7.732
  726POPC   C1B13639  33.378  30.577   8.853
  726POPC   C2B13640  33.313  30.494   8.411
  726POPC   C3B13641  33.312  30.419   7.959
  726POPC   C4B13642  33.316  30.812   7.729
  727POPC   NC313643   3.770   5.670   9.740
  727POPC   PO413644   3.399   6.186   9.554
  727POPC   GL113645   3.499   5.850   9.231
  727POPC   GL213646   3.846   5.700   9.206
  727POPC   C1A13647   3.550   5.828   8.766
  727POPC   D2A13648   3.607   5.929   8.334
  727POPC   C3A13649   3.325   6.075   8.026
  727POPC   C4A13650   3.372   6.021   7.606
  727POPC   C1B13651   3.908   5.471   8.806
  727POPC   C2B13652   4.008   5.627   8.386
  727POPC   C3B13653   3.854   5.615   7.939
  727POPC   C4B13654   3.598   5.545   7.574
  728POPC   NC313655  15.203  18.087   9.489
  728POPC   PO413656  15.569  18.695   9.613
  728POPC   GL113657  15.321  18.529   9.243
  728POPC   GL213658  15.354  18.206   9.027
  728POPC   C1A13659  15.070  18.575   8.872
  728POPC   D2A13660  15.048  18.340   8.464
  728POPC   C3A13661  14.966  18.444   8.040
  728POPC   C4A13662  15.092  18.312   7.596
  728POPC   C1B13663  14.989  17.988   8.822
  728POPC   C2B13664  14.961  17.830   8.385
  728POPC   C3B13665  15.116  17.936   7.961
  728POPC   C4B13666  14.927  17.829   7.562
  729POPC   NC313667  24.992   3.039   9.363
  729POPC   PO413668  25.341   2.582   9.735
  729POPC   GL113669  25.283   2.632   9.252
  729POPC   GL213670  25.440   2.938   9.101
  729POPC   C1A13671  25.117   2.658   8.805
  729POPC   D2A13672  25.014   2.532   8.376
  729POPC   C3A13673  25.214   2.732   8.042
  729POPC   C4A13674  25.285   2.603   7.621
  729POPC   C1B13675  25.491   2.984   8.637
  729POPC   C2B13676  25.596   3.039   8.202
  729POPC   C3B13677  25.506   3.057   7.780
  729POPC   C4B13678  25.468   3.394   7.489
  730POPC   NC313679  23.223  12.419   9.476
  730POPC   PO413680  22.776  12.904   9.395
  730POPC   GL113681  23.054  12.841   9.064
  730POPC   GL213682  23.029  12.485   8.995
  730POPC   C1A13683  23.121  13.118   8.689
  730POPC   D2A13684  22.842  13.212   8.351
  730POPC   C3A13685  22.941  12.981   7.969
  730POPC   C4A13686  22.634  12.966   7.670
  730POPC   C1B13687  22.709  12.724   8.723
  730POPC   C2B13688  22.613  12.746   8.301
  730POPC   C3B13689  22.771  12.480   7.967
  730POPC   C4B13690  22.938  12.558   7.575
  731POPC   NC313691  31.787  40.119   9.462
  731POPC   PO413692  32.517  40.025   9.543
  731POPC   GL113693  32.317  40.218   9.173
  731POPC   GL213694  31.972  40.186   8.997
  731POPC   C1A13695  32.409  40.111   8.746
  731POPC   D2A13696  32.290  39.902   8.371
  731POPC   C3A13697  32.522  40.000   8.023
  731POPC   C4A13698  32.429  40.202   7.621
  731POPC   C1B13699  31.840  39.938   8.633
  731POPC   C2B13700  31.810  40.005   8.187
  731POPC   C3B13701  32.055  39.959   7.847
  731POPC   C4B13702  32.039  39.930   7.392
  732POPC   NC313703  17.789  36.555   9.534
  732POPC   PO413704  17.546  37.177   9.629
  732POPC   GL113705  17.760  37.028   9.223
  732POPC   GL213706  17.616  36.721   9.089
  732POPC   C1A13707  17.922  36.994   8.753
  732POPC   D2A13708  17.707  36.906   8.332
  732POPC   C3A13709  17.808  36.791   7.887
  732POPC   C4A13710  17.634  36.501   7.564
  732POPC   C1B13711  17.391  36.935   8.762
  732POPC   C2B13712  17.201  36.987   8.351
  732POPC   C3B13713  17.435  37.225   8.026
  732POPC   C4B13714  17.292  37.407   7.669
  733POPC   NC313715  33.084  28.096  10.030
  733POPC   PO413716  32.733  28.331   9.414
  733POPC   GL113717  32.907  28.191   9.029
  733POPC   GL213718  32.987  28.537   9.003
  733POPC   C1A13719  32.845  28.213   8.583
  733POPC   D2A13720  32.611  28.524   8.341
  733POPC   C3A13721  32.734  28.589   7.900
  733POPC   C4A13722  32.790  28.649   7.450
  733POPC   C1B13723  33.078  28.687   8.608
  733POPC   C2B13724  33.148  28.500   8.210
  733POPC   C3B13725  33.315  28.544   7.792
  733POPC   C4B13726  33.306  28.250   7.435
  734POPC   NC313727  38.762  25.006   9.439
  734POPC   PO413728  38.301  25.475   9.389
  734POPC   GL113729  38.409  25.240   9.079
  734POPC   GL213730  38.066  25.174   8.988
  734POPC   C1A13731  38.439  25.315   8.649
  734POPC   D2A13732  38.246  25.235   8.275
  734POPC   C3A13733  38.468  25.474   7.995
  734POPC   C4A13734  38.427  25.437   7.590
  734POPC   C1B13735  38.288  24.830   8.744
  734POPC   C2B13736  38.423  24.746   8.303
  734POPC   C3B13737  38.517  24.963   7.883
  734POPC   C4B13738  38.671  25.002   7.409
  735POPC   NC313739   6.801  41.791   9.524
  735POPC   PO413740   6.481  41.234   9.585
  735POPC   GL113741   6.559  41.515   9.191
  735POPC   GL213742   6.909  41.631   9.056
  735POPC   C1A13743   6.495  41.573   8.768
  735POPC   D2A13744   6.728  41.444   8.414
  735POPC   C3A13745   6.524  41.543   8.034
  735POPC   C4A13746   6.416  41.540   7.592
  735POPC   C1B13747   6.870  41.901   8.667
  735POPC   C2B13748   6.958  41.879   8.210
  735POPC   C3B13749   6.911  41.747   7.802
  735POPC   C4B13750   6.726  41.957   7.455
  736POPC   NC313751  13.235   5.097   9.475
  736POPC   PO413752  13.854   5.082   9.562
  736POPC   GL113753  13.799   4.917   9.195
  736POPC   GL213754  14.099   4.761   9.182
  736POPC   C1A13755  13.566   4.907   8.821
  736POPC   D2A13756  13.377   5.191   8.545
  736POPC   C3A13757  13.479   5.110   8.109
  736POPC   C4A13758  13.516   4.992   7.676
  736POPC   C1B13759  14.055   4.994   8.762
  736POPC   C2B13760  13.832   4.855   8.395
  736POPC   C3B13761  13.707   4.587   8.083
  736POPC   C4B13762  13.923   4.665   7.703
  737POPC   NC313763  41.342  26.414   9.481
  737POPC   PO413764  41.859  26.739   9.650
  737POPC   GL113765  41.811  26.294   9.321
  737POPC   GL213766  41.815  25.928   9.310
  737POPC   C1A13767  41.565  26.159   8.902
  737POPC   D2A13768  41.260  26.003   8.562
  737POPC   C3A13769  41.418  25.996   8.129
  737POPC   C4A13770  41.666  26.254   7.859
  737POPC   C1B13771  41.832  25.717   8.892
  737POPC   C2B13772  41.730  25.766   8.470
  737POPC   C3B13773  41.906  25.854   8.079
  737POPC   C4B13774  41.845  25.709   7.687
  738POPC   NC313775  22.531   6.855  10.036
  738POPC   PO413776  23.085   6.793   9.789
  738POPC   GL113777  23.007   6.719   9.268
  738POPC   GL213778  22.669   6.827   9.169
  738POPC   C1A13779  23.047   6.818   8.775
  738POPC   D2A13780  23.237   6.946   8.336
  738POPC   C3A13781  23.025   6.792   7.947
  738POPC   C4A13782  22.629   6.972   7.839
  738POPC   C1B13783  22.560   7.009   8.743
  738POPC   C2B13784  22.697   6.828   8.340
  738POPC   C3B13785  22.596   6.473   8.023
  738POPC   C4B13786  22.391   6.403   7.606
  739POPC   NC313787  28.063  33.295   9.450
  739POPC   PO413788  27.404  33.375   9.454
  739POPC   GL113789  27.660  33.272   9.129
  739POPC   GL213790  27.522  32.933   9.065
  739POPC   C1A13791  27.882  33.138   8.750
  739POPC   D2A13792  27.771  32.962   8.339
  739POPC   C3A13793  27.856  33.215   7.949
  739POPC   C4A13794  27.867  32.948   7.571
  739POPC   C1B13795  27.352  33.191   8.730
  739POPC   C2B13796  27.225  33.099   8.311
  739POPC   C3B13797  27.431  32.943   7.953
  739POPC   C4B13798  27.372  32.809   7.552
  740POPC   NC313799  33.217  33.421   9.420
  740POPC   PO413800  32.969  34.092   9.501
  740POPC   GL113801  32.952  33.874   9.107
  740POPC   GL213802  33.296  33.777   9.048
  740POPC   C1A13803  33.019  33.872   8.635
  740POPC   D2A13804  32.852  33.650   8.266
  740POPC   C3A13805  32.987  33.876   7.876
  740POPC   C4A13806  32.912  33.774   7.431
  740POPC   C1B13807  33.327  33.483   8.675
  740POPC   C2B13808  33.363  33.511   8.180
  740POPC   C3B13809  33.267  33.497   7.714
  740POPC   C4B13810  33.389  33.716   7.283
  741POPC   NC313811  21.422   8.589   9.581
  741POPC   PO413812  21.749   7.996   9.447
  741POPC   GL113813  21.683   8.325   9.158
  741POPC   GL213814  21.339   8.304   9.160
  741POPC   C1A13815  21.584   8.213   8.736
  741POPC   D2A13816  21.242   8.050   8.481
  741POPC   C3A13817  21.358   7.936   8.070
  741POPC   C4A13818  21.366   8.136   7.674
  741POPC   C1B13819  21.133   8.479   8.835
  741POPC   C2B13820  21.291   8.555   8.446
  741POPC   C3B13821  21.120   8.419   8.084
  741POPC   C4B13822  21.155   8.583   7.700
  742POPC   NC313823   8.388   5.097   9.414
  742POPC   PO413824   7.744   5.192   9.501
  742POPC   GL113825   7.970   4.928   9.091
  742POPC   GL213826   8.299   4.723   9.083
  742POPC   C1A13827   8.048   4.891   8.632
  742POPC   D2A13828   7.999   5.206   8.296
  742POPC   C3A13829   8.015   5.154   7.858
  742POPC   C4A13830   8.094   4.737   7.670
  742POPC   C1B13831   8.577   4.856   8.780
  742POPC   C2B13832   8.484   4.993   8.390
  742POPC   C3B13833   8.483   4.943   7.980
  742POPC   C4B13834   8.437   5.109   7.574
  743POPC   NC313835  25.674   7.348   9.564
  743POPC   PO413836  25.095   7.652   9.524
  743POPC   GL113837  25.351   7.501   9.187
  743POPC   GL213838  25.546   7.802   9.185
  743POPC   C1A13839  25.238   7.275   8.796
  743POPC   D2A13840  25.009   7.431   8.431
  743POPC   C3A13841  25.093   7.212   8.018
  743POPC   C4A13842  25.353   7.200   7.620
  743POPC   C1B13843  25.530   7.721   8.746
  743POPC   C2B13844  25.339   7.824   8.338
  743POPC   C3B13845  25.191   7.690   7.934
  743POPC   C4B13846  25.423   7.705   7.531
  744POPC   NC313847   8.481  36.923   9.364
  744POPC   PO413848   7.943  37.167   9.743
  744POPC   GL113849   7.932  36.945   9.287
  744POPC   GL213850   7.971  36.561   9.254
  744POPC   C1A13851   7.951  36.998   8.835
  744POPC   D2A13852   7.856  37.153   8.435
  744POPC   C3A13853   8.127  37.139   8.099
  744POPC   C4A13854   8.241  37.016   7.697
  744POPC   C1B13855   8.229  36.567   8.856
  744POPC   C2B13856   8.336  36.855   8.500
  744POPC   C3B13857   8.473  36.746   8.093
  744POPC   C4B13858   8.438  36.559   7.703
  745POPC   NC313859  29.626  18.516   9.547
  745POPC   PO413860  30.132  18.102   9.506
  745POPC   GL113861  30.035  18.011   9.043
  745POPC   GL213862  29.682  17.960   9.108
  745POPC   C1A13863  29.986  17.998   8.576
  745POPC   D2A13864  29.659  17.909   8.245
  745POPC   C3A13865  29.753  17.984   7.802
  745POPC   C4A13866  30.152  18.229   7.745
  745POPC   C1B13867  29.720  18.370   8.880
  745POPC   C2B13868  29.681  18.396   8.424
  745POPC   C3B13869  29.603  18.441   7.959
  745POPC   C4B13870  29.721  18.404   7.494
  746POPC   NC313871  19.024  38.716   9.466
  746POPC   PO413872  19.335  38.063   9.364
  746POPC   GL113873  19.031  38.301   9.143
  746POPC   GL213874  19.229  38.593   9.038
  746POPC   C1A13875  18.839  38.401   8.749
  746POPC   D2A13876  18.948  38.367   8.315
  746POPC   C3A13877  18.854  38.558   7.929
  746POPC   C4A13878  18.991  38.217   7.645
  746POPC   C1B13879  19.313  38.537   8.649
  746POPC   C2B13880  19.439  38.219   8.382
  746POPC   C3B13881  19.341  38.352   8.001
  746POPC   C4B13882  19.317  38.661   7.695
  747POPC   NC313883  29.275  21.186   9.546
  747POPC   PO413884  28.778  21.604   9.425
  747POPC   GL113885  28.947  21.554   9.051
  747POPC   GL213886  28.989  21.213   9.118
  747POPC   C1A13887  29.064  21.674   8.628
  747POPC   D2A13888  29.286  21.431   8.336
  747POPC   C3A13889  29.291  21.574   7.954
  747POPC   C4A13890  28.992  21.522   7.716
  747POPC   C1B13891  29.166  21.117   8.743
  747POPC   C2B13892  29.120  20.939   8.343
  747POPC   C3B13893  29.220  21.063   7.967
  747POPC   C4B13894  28.887  21.024   7.766
  748POPC   NC313895  28.584  28.874   9.411
  748POPC   PO413896  28.300  28.346   9.611
  748POPC   GL113897  28.386  28.403   9.191
  748POPC   GL213898  28.188  28.661   9.173
  748POPC   C1A13899  28.651  28.382   8.808
  748POPC   D2A13900  28.699  28.084   8.456
  748POPC   C3A13901  28.549  28.166   8.017
  748POPC   C4A13902  28.723  28.486   7.716
  748POPC   C1B13903  28.252  28.700   8.730
  748POPC   C2B13904  28.296  28.476   8.338
  748POPC   C3B13905  28.229  28.570   7.875
  748POPC   C4B13906  28.314  28.369   7.463
  749POPC   NC313907  42.279   3.123   9.508
  749POPC   PO413908  42.276   3.785   9.600
  749POPC   GL113909  42.385   3.618   9.203
  749POPC   GL213910  42.690   3.489   9.328
  749POPC   C1A13911  42.228   3.595   8.738
  749POPC   D2A13912  42.118   3.510   8.266
  749POPC   C3A13913  42.312   3.758   7.900
  749POPC   C4A13914  42.380   3.785   7.453
  749POPC   C1B13915  42.667   3.347   8.885
  749POPC   C2B13916  42.638   3.452   8.451
  749POPC   C3B13917  42.567   3.345   8.025
  749POPC   C4B13918  42.765   3.560   7.700
  750POPC   NC313919   2.098   1.665   9.379
  750POPC   PO413920   1.922   2.317   9.553
  750POPC   GL113921   2.041   2.194   9.149
  750POPC   GL213922   2.204   1.889   8.944
  750POPC   C1A13923   1.859   2.212   8.785
  750POPC   D2A13924   1.890   1.910   8.491
  750POPC   C3A13925   1.815   1.968   8.052
  750POPC   C4A13926   1.899   1.986   7.601
  750POPC   C1B13927   2.374   2.255   8.747
  750POPC   C2B13928   2.223   2.422   8.355
  750POPC   C3B13929   2.227   2.261   7.935
  750POPC   C4B13930   2.293   1.824   7.878
  751POPC   NC313931   0.228  21.561   9.535
  751POPC   PO413932   0.852  21.636   9.343
  751POPC   GL113933   0.687  21.286   9.148
  751POPC   GL213934   0.799  21.482   8.858
  751POPC   C1A13935   0.439  21.114   8.796
  751POPC   D2A13936   0.180  21.091   8.407
  751POPC   C3A13937   0.378  21.345   8.076
  751POPC   C4A13938   0.572  21.248   7.676
  751POPC   C1B13939   0.516  21.552   8.531
  751POPC   C2B13940   0.674  21.738   8.157
  751POPC   C3B13941   0.593  21.745   7.718
  751POPC   C4B13942   0.535  21.827   7.257
  752POPC   NC313943  33.537   7.497   9.525
  752POPC   PO413944  33.022   7.283   9.593
  752POPC   GL113945  33.099   7.470   9.202
  752POPC   GL213946  32.984   7.178   9.075
  752POPC   C1A13947  33.008   7.602   8.753
  752POPC   D2A13948  32.994   7.410   8.322
  752POPC   C3A13949  32.870   7.625   7.909
  752POPC   C4A13950  33.186   7.792   7.595
  752POPC   C1B13951  33.178   7.091   8.680
  752POPC   C2B13952  33.029   6.905   8.277
  752POPC   C3B13953  32.919   7.122   7.905
  752POPC   C4B13954  33.082   7.297   7.543
  753POPC   NC313955   2.413  10.288   9.494
  753POPC   PO413956   1.746  10.171   9.605
  753POPC   GL113957   1.951  10.543   9.308
  753POPC   GL213958   2.227  10.484   9.074
  753POPC   C1A13959   1.857  10.778   8.879
  753POPC   D2A13960   1.885  10.557   8.485
  753POPC   C3A13961   1.714  10.546   8.059
  753POPC   C4A13962   1.776  10.608   7.622
  753POPC   C1B13963   2.190  10.225   8.704
  753POPC   C2B13964   2.082  10.161   8.242
  753POPC   C3B13965   2.050  10.223   7.780
  753POPC   C4B13966   2.254  10.060   7.415
  754POPC   NC313967  38.981   2.509   9.520
  754POPC   PO413968  39.265   3.130   9.579
  754POPC   GL113969  39.293   2.948   9.177
  754POPC   GL213970  39.500   2.655   9.242
  754POPC   C1A13971  39.410   2.888   8.739
  754POPC   D2A13972  39.508   2.858   8.303
  754POPC   C3A13973  39.232   2.989   7.989
  754POPC   C4A13974  38.995   2.656   7.902
  754POPC   C1B13975  39.462   2.378   8.869
  754POPC   C2B13976  39.362   2.360   8.418
  754POPC   C3B13977  39.530   2.449   7.993
  754POPC   C4B13978  39.307   2.340   7.610
  755POPC   NC313979  37.018  42.469   9.566
  755POPC   PO413980  36.912  41.867   9.254
  755POPC   GL113981  37.047  42.287   9.091
  755POPC   GL213982  36.759  42.473   9.132
  755POPC   C1A13983  37.087  42.498   8.688
  755POPC   D2A13984  36.979  42.273   8.285
  755POPC   C3A13985  37.202  42.387   7.906
  755POPC   C4A13986  37.224  42.199   7.478
  755POPC   C1B13987  36.555  42.500   8.765
  755POPC   C2B13988  36.642  42.642   8.371
  755POPC   C3B13989  36.745  42.612   7.958
  755POPC   C4B13990  36.919  42.622   7.542
  756POPC   NC313991  30.240  40.657   9.582
  756POPC   PO413992  29.673  40.461   9.599
  756POPC   GL113993  29.937  40.619   9.185
  756POPC   GL213994  30.106  40.963   9.136
  756POPC   C1A13995  30.345  40.571   8.925
  756POPC   D2A13996  30.310  40.410   8.533
  756POPC   C3A13997  30.080  40.663   8.273
  756POPC   C4A13998  30.092  40.812   7.886
  756POPC   C1B13999  30.168  41.017   8.651
  756POPC   C2B14000  30.185  41.206   8.193
  756POPC   C3B14001  30.017  41.357   7.754
  756POPC   C4B14002  29.956  41.423   7.281
  757POPC   NC314003  18.267   2.481   9.573
  757POPC   PO414004  17.996   1.843   9.474
  757POPC   GL114005  18.201   1.932   9.114
  757POPC   GL214006  18.461   2.145   9.209
  757POPC   C1A14007  18.034   2.071   8.722
  757POPC   D2A14008  18.026   1.851   8.296
  757POPC   C3A14009  18.131   2.098   7.946
  757POPC   C4A14010  18.293   2.266   7.587
  757POPC   C1B14011  18.418   2.408   8.832
  757POPC   C2B14012  18.284   2.378   8.397
  757POPC   C3B14013  18.488   2.473   8.026
  757POPC   C4B14014  18.750   2.458   7.664
  758POPC   NC314015  22.244  29.557  10.060
  758POPC   PO414016  22.003  30.113   9.595
  758POPC   GL114017  22.086  29.885   9.221
  758POPC   GL214018  22.388  29.788   9.299
  758POPC   C1A14019  21.935  29.648   8.848
  758POPC   D2A14020  22.123  29.730   8.472
  758POPC   C3A14021  21.923  29.673   8.109
  758POPC   C4A14022  22.114  29.877   7.789
  758POPC   C1B14023  22.469  29.703   8.861
  758POPC   C2B14024  22.582  29.516   8.438
  758POPC   C3B14025  22.533  29.667   7.970
  758POPC   C4B14026  22.489  29.631   7.446
  759POPC   NC314027  16.980  29.402   9.651
  759POPC   PO414028  16.603  28.914   9.394
  759POPC   GL114029  16.711  29.307   9.151
  759POPC   GL214030  17.017  29.522   9.148
  759POPC   C1A14031  16.799  29.189   8.724
  759POPC   D2A14032  16.626  29.004   8.330
  759POPC   C3A14033  16.779  29.176   7.968
  759POPC   C4A14034  16.652  29.294   7.560
  759POPC   C1B14035  17.240  29.461   8.754
  759POPC   C2B14036  17.262  29.615   8.328
  759POPC   C3B14037  17.042  29.632   7.939
  759POPC   C4B14038  16.900  29.719   7.504
  760POPC   NC314039  36.427  20.823   9.374
  760POPC   PO414040  36.060  20.237   9.477
  760POPC   GL114041  36.236  20.412   9.077
  760POPC   GL214042  36.538  20.593   8.931
  760POPC   C1A14043  36.161  20.399   8.627
  760POPC   D2A14044  36.388  20.546   8.281
  760POPC   C3A14045  36.149  20.484   7.938
  760POPC   C4A14046  36.250  20.172   7.666
  760POPC   C1B14047  36.268  20.889   8.652
  760POPC   C2B14048  36.115  20.978   8.217
  760POPC   C3B14049  36.265  20.967   7.797
  760POPC   C4B14050  36.324  20.650   7.492
  761POPC   NC314051   1.100  26.617   9.561
  761POPC   PO414052   1.475  27.113   9.287
  761POPC   GL114053   1.146  26.875   9.111
  761POPC   GL214054   0.860  27.036   9.014
  761POPC   C1A14055   1.078  26.625   8.769
  761POPC   D2A14056   1.041  26.733   8.359
  761POPC   C3A14057   1.401  26.612   8.147
  761POPC   C4A14058   1.494  26.558   7.723
  761POPC   C1B14059   1.181  27.172   8.678
  761POPC   C2B14060   1.464  27.136   8.310
  761POPC   C3B14061   1.376  27.060   7.889
  761POPC   C4B14062   1.078  26.822   7.755
  762POPC   NC314063  34.259  25.923   9.438
  762POPC   PO414064  33.628  26.154   9.438
  762POPC   GL114065  33.953  26.176   9.093
  762POPC   GL214066  34.254  25.975   8.947
  762POPC   C1A14067  33.907  26.325   8.692
  762POPC   D2A14068  33.576  26.467   8.417
  762POPC   C3A14069  33.776  26.421   8.073
  762POPC   C4A14070  33.780  26.227   7.734
  762POPC   C1B14071  34.099  25.757   8.631
  762POPC   C2B14072  33.857  25.963   8.323
  762POPC   C3B14073  33.777  25.780   7.946
  762POPC   C4B14074  33.849  25.781   7.513
  763POPC   NC314075   1.453   0.209   9.694
  763POPC   PO414076   1.994   0.526   9.526
  763POPC   GL114077   1.892   0.432   9.150
  763POPC   GL214078   1.878   0.115   9.076
  763POPC   C1A14079   2.009   0.501   8.739
  763POPC   D2A14080   1.890   0.740   8.398
  763POPC   C3A14081   2.082   0.516   8.103
  763POPC   C4A14082   1.951   0.431   7.719
  763POPC   C1B14083   2.301   0.092   8.815
  763POPC   C2B14084   2.443   0.316   8.434
  763POPC   C3B14085   2.437   0.155   8.012
  763POPC   C4B14086   2.657   0.105   7.645
  764POPC   NC314087  12.929  18.922   9.569
  764POPC   PO414088  13.217  19.485   9.247
  764POPC   GL114089  12.954  19.177   9.125
  764POPC   GL214090  12.635  19.206   9.237
  764POPC   C1A14091  12.990  18.923   8.781
  764POPC   D2A14092  12.903  19.130   8.415
  764POPC   C3A14093  12.960  18.907   8.075
  764POPC   C4A14094  13.271  19.015   7.750
  764POPC   C1B14095  12.503  19.090   8.849
  764POPC   C2B14096  12.400  19.111   8.424
  764POPC   C3B14097  12.389  18.850   8.067
  764POPC   C4B14098  12.614  18.736   7.718
  765POPC   NC314099  14.349  15.962   9.551
  765POPC   PO414100  14.003  16.302   9.149
  765POPC   GL114101  14.345  16.094   9.018
  765POPC   GL214102  14.295  15.720   8.994
  765POPC   C1A14103  14.456  16.026   8.590
  765POPC   D2A14104  14.348  15.974   8.166
  765POPC   C3A14105  14.628  16.150   7.862
  765POPC   C4A14106  14.638  16.361   7.465
  765POPC   C1B14107  14.401  15.460   8.602
  765POPC   C2B14108  14.493  15.462   8.137
  765POPC   C3B14109  14.454  15.687   7.731
  765POPC   C4B14110  14.340  15.611   7.279
  766POPC   NC314111  14.821  11.431   9.633
  766POPC   PO414112  15.397  11.144   9.353
  766POPC   GL114113  15.098  11.367   9.149
  766POPC   GL214114  14.752  11.409   9.124
  766POPC   C1A14115  14.989  11.142   8.760
  766POPC   D2A14116  15.408  11.140   8.588
  766POPC   C3A14117  15.372  11.099   8.142
  766POPC   C4A14118  15.315  11.285   7.768
  766POPC   C1B14119  14.957  11.630   8.751
  766POPC   C2B14120  15.153  11.515   8.357
  766POPC   C3B14121  15.010  11.624   7.957
  766POPC   C4B14122  14.955  11.819   7.549
  767POPC   NC314123  43.373  25.524   9.508
  767POPC   PO414124  42.847  25.036   9.465
  767POPC   GL114125  42.986  25.315   9.182
  767POPC   GL214126  43.246  25.182   9.004
  767POPC   C1A14127  42.840  25.436   8.800
  767POPC   D2A14128  42.975  25.175   8.458
  767POPC   C3A14129  42.851  25.322   8.079
  767POPC   C4A14130  43.071  25.409   7.696
  767POPC   C1B14131  43.432  25.006   8.666
  767POPC   C2B14132  43.338  24.870   8.247
  767POPC   C3B14133  43.342  25.006   7.822
  767POPC   C4B14134  43.248  25.075   7.340
  768POPC   NC314135  13.678  13.670   9.535
  768POPC   PO414136  13.781  13.078   9.446
  768POPC   GL114137  13.513  13.396   9.150
  768POPC   GL214138  13.306  13.744   9.186
  768POPC   C1A14139  13.598  13.654   8.780
  768POPC   D2A14140  13.850  13.613   8.364
  768POPC   C3A14141  13.765  13.754   7.946
  768POPC   C4A14142  13.682  13.677   7.518
  768POPC   C1B14143  13.115  13.907   8.820
  768POPC   C2B14144  13.336  13.944   8.437
  768POPC   C3B14145  13.266  13.798   8.041
  768POPC   C4B14146  13.284  13.938   7.665
  769POPC   NC314147  15.372  33.960   9.458
  769POPC   PO414148  16.064  33.779   9.566
  769POPC   GL114149  16.024  33.763   9.114
  769POPC   GL214150  16.269  33.998   9.026
  769POPC   C1A14151  15.820  33.771   8.675
  769POPC   D2A14152  15.422  33.730   8.398
  769POPC   C3A14153  15.548  33.840   7.970
  769POPC   C4A14154  15.989  33.978   7.920
  769POPC   C1B14155  16.365  33.652   8.739
  769POPC   C2B14156  16.240  33.666   8.322
  769POPC   C3B14157  16.322  33.600   7.908
  769POPC   C4B14158  16.336  33.704   7.484
  770POPC   NC314159   2.146  34.120   9.534
  770POPC   PO414160   1.871  33.471   9.609
  770POPC   GL114161   2.009  33.691   9.245
  770POPC   GL214162   2.381  33.755   9.267
  770POPC   C1A14163   1.875  33.701   8.838
  770POPC   D2A14164   1.874  33.569   8.453
  770POPC   C3A14165   1.731  33.825   8.142
  770POPC   C4A14166   1.760  33.976   7.732
  770POPC   C1B14167   2.393  33.762   8.828
  770POPC   C2B14168   2.286  33.877   8.413
  770POPC   C3B14169   2.218  33.850   7.949
  770POPC   C4B14170   2.292  33.837   7.503
  771POPC   NC314171  30.173  29.489   9.439
  771POPC   PO414172  30.133  28.802   9.383
  771POPC   GL114173  30.005  29.120   9.071
  771POPC   GL214174  30.161  29.415   8.951
  771POPC   C1A14175  29.870  29.080   8.660
  771POPC   D2A14176  29.909  28.936   8.233
  771POPC   C3A14177  29.899  29.268   7.918
  771POPC   C4A14178  29.551  29.499   7.763
  771POPC   C1B14179  30.327  29.308   8.576
  771POPC   C2B14180  30.347  29.368   8.172
  771POPC   C3B14181  30.400  29.255   7.799
  771POPC   C4B14182  30.134  29.294   7.457
  772POPC   NC314183  17.116  21.939   9.632
  772POPC   PO414184  16.754  22.520   9.550
  772POPC   GL114185  16.604  22.344   9.194
  772POPC   GL214186  16.487  22.033   9.349
  772POPC   C1A14187  16.779  22.327   8.772
  772POPC   D2A14188  16.797  22.606   8.399
  772POPC   C3A14189  16.889  22.462   7.983
  772POPC   C4A14190  16.880  22.648   7.560
  772POPC   C1B14191  16.475  21.941   8.905
  772POPC   C2B14192  16.709  21.774   8.567
  772POPC   C3B14193  16.615  21.714   8.134
  772POPC   C4B14194  16.687  22.013   7.774
  773POPC   NC314195   4.853   1.951   9.704
  773POPC   PO414196   5.409   2.384   9.789
  773POPC   GL114197   5.324   2.083   9.383
  773POPC   GL214198   5.520   1.787   9.407
  773POPC   C1A14199   5.144   2.076   8.921
  773POPC   D2A14200   4.956   1.882   8.510
  773POPC   C3A14201   4.949   2.090   8.103
  773POPC   C4A14202   4.807   1.836   7.747
  773POPC   C1B14203   5.473   1.706   8.978
  773POPC   C2B14204   5.451   1.786   8.527
  773POPC   C3B14205   5.288   1.729   8.121
  773POPC   C4B14206   5.335   1.929   7.750
  774POPC   NC314207   5.051   7.597   9.432
  774POPC   PO414208   4.707   7.088   9.395
  774POPC   GL114209   4.867   7.269   9.052
  774POPC   GL214210   5.231   7.218   9.101
  774POPC   C1A14211   4.848   7.227   8.608
  774POPC   D2A14212   4.963   7.116   8.204
  774POPC   C3A14213   4.946   7.477   7.968
  774POPC   C4A14214   4.879   7.682   7.585
  774POPC   C1B14215   5.199   7.564   8.799
  774POPC   C2B14216   5.178   7.569   8.398
  774POPC   C3B14217   5.426   7.339   8.106
  774POPC   C4B14218   5.393   7.264   7.710
  775POPC   NC314219  19.527  31.623   9.476
  775POPC   PO414220  20.137  31.315   9.247
  775POPC   GL114221  19.729  31.300   9.127
  775POPC   GL214222  19.794  31.641   9.050
  775POPC   C1A14223  19.706  31.255   8.714
  775POPC   D2A14224  20.016  31.477   8.585
  775POPC   C3A14225  20.003  31.498   8.160
  775POPC   C4A14226  19.802  31.562   7.800
  775POPC   C1B14227  19.510  31.723   8.777
  775POPC   C2B14228  19.623  31.771   8.390
  775POPC   C3B14229  19.514  31.890   8.026
  775POPC   C4B14230  19.351  31.705   7.638
  776POPC   NC314231   4.893  25.481   9.492
  776POPC   PO414232   5.313  24.905   9.473
  776POPC   GL114233   5.044  25.085   9.197
  776POPC   GL214234   5.208  25.401   9.110
  776POPC   C1A14235   4.842  25.107   8.829
  776POPC   D2A14236   5.020  25.408   8.595
  776POPC   C3A14237   4.812  25.492   8.258
  776POPC   C4A14238   4.771  25.246   7.889
  776POPC   C1B14239   5.432  25.614   8.807
  776POPC   C2B14240   5.512  25.380   8.455
  776POPC   C3B14241   5.328  25.419   8.048
  776POPC   C4B14242   5.400  25.676   7.663
  777POPC   NC314243  29.738  36.648   9.140
  777POPC   PO414244  30.028  37.098   9.555
  777POPC   GL114245  29.934  37.150   9.140
  777POPC   GL214246  30.168  36.922   9.066
  777POPC   C1A14247  29.942  37.196   8.674
  777POPC   D2A14248  29.734  37.038   8.291
  777POPC   C3A14249  29.860  36.936   7.880
  777POPC   C4A14250  30.112  37.129   7.590
  777POPC   C1B14251  30.257  36.731   8.700
  777POPC   C2B14252  30.227  36.873   8.307
  777POPC   C3B14253  30.455  36.621   8.054
  777POPC   C4B14254  30.282  36.661   7.687
  778POPC   NC314255   3.522  34.818   9.468
  778POPC   PO414256   3.701  34.229   9.276
  778POPC   GL114257   3.783  34.590   9.022
  778POPC   GL214258   3.460  34.718   8.955
  778POPC   C1A14259   3.799  34.513   8.595
  778POPC   D2A14260   3.458  34.318   8.345
  778POPC   C3A14261   3.365  34.619   8.006
  778POPC   C4A14262   3.710  34.773   7.728
  778POPC   C1B14263   3.177  34.376   8.787
  778POPC   C2B14264   2.942  34.265   8.401
  778POPC   C3B14265   3.068  34.150   7.999
  778POPC   C4B14266   3.048  34.389   7.685
  779POPC   NC314267  38.623   7.335   9.560
  779POPC   PO414268  38.548   7.918   9.384
  779POPC   GL114269  38.641   7.517   9.084
  779POPC   GL214270  38.723   7.120   9.121
  779POPC   C1A14271  38.471   7.276   8.709
  779POPC   D2A14272  38.357   7.044   8.320
  779POPC   C3A14273  38.257   7.282   7.907
  779POPC   C4A14274  38.198   7.628   7.552
  779POPC   C1B14275  38.858   6.931   8.716
  779POPC   C2B14276  38.813   6.797   8.268
  779POPC   C3B14277  38.727   7.027   7.889
  779POPC   C4B14278  38.684   7.459   7.661
  780POPC   NC314279   9.832  35.866   9.684
  780POPC   PO414280   9.944  35.242   9.590
  780POPC   GL114281   9.691  35.484   9.277
  780POPC   GL214282   9.422  35.211   9.248
  780POPC   C1A14283   9.815  35.555   8.828
  780POPC   D2A14284   9.779  35.286   8.445
  780POPC   C3A14285   9.889  35.441   8.029
  780POPC   C4A14286  10.057  35.275   7.644
  780POPC   C1B14287   9.386  35.305   8.808
  780POPC   C2B14288   9.253  35.359   8.360
  780POPC   C3B14289   9.376  35.513   7.928
  780POPC   C4B14290   9.565  35.164   7.700
  781POPC   NC314291  27.823  35.631   9.443
  781POPC   PO414292  27.556  35.020   9.410
  781POPC   GL114293  27.797  35.188   9.157
  781POPC   GL214294  27.534  35.412   9.072
  781POPC   C1A14295  27.944  35.360   8.785
  781POPC   D2A14296  27.804  35.544   8.435
  781POPC   C3A14297  27.684  35.322   8.069
  781POPC   C4A14298  27.433  35.581   7.798
  781POPC   C1B14299  27.438  35.131   8.713
  781POPC   C2B14300  27.339  34.984   8.283
  781POPC   C3B14301  27.193  35.136   7.853
  781POPC   C4B14302  27.343  35.110   7.382
  782POPC   NC314303   4.387   0.278   9.486
  782POPC   PO414304   3.956   0.793   9.498
  782POPC   GL114305   4.173   0.735   9.123
  782POPC   GL214306   4.467   0.696   9.145
  782POPC   C1A14307   4.258   0.870   8.708
  782POPC   D2A14308   4.140   0.855   8.272
  782POPC   C3A14309   4.304   0.509   8.026
  782POPC   C4A14310   4.575   0.512   7.655
  782POPC   C1B14311   4.573   0.445   8.813
  782POPC   C2B14312   4.530   0.266   8.417
  782POPC   C3B14313   4.652   0.142   8.010
  782POPC   C4B14314   4.357   0.041   7.713
  783POPC   NC314315  35.615  42.891   9.661
  783POPC   PO414316  35.236  43.397   9.577
  783POPC   GL114317  35.505  43.187   9.267
  783POPC   GL214318  35.669  43.432   9.053
  783POPC   C1A14319  35.617  42.905   8.956
  783POPC   D2A14320  35.549  43.000   8.533
  783POPC   C3A14321  35.417  42.743   8.230
  783POPC   C4A14322  35.521  42.945   7.872
  783POPC   C1B14323  35.293  43.325   8.829
  783POPC   C2B14324  35.080  43.210   8.436
  783POPC   C3B14325  35.053  43.403   8.061
  783POPC   C4B14326  35.278  43.344   7.716
  784POPC   NC314327  44.220  35.891   9.443
  784POPC   PO414328  43.816  36.405   9.523
  784POPC   GL114329  43.793  36.143   9.164
  784POPC   GL214330  43.817  35.759   9.129
  784POPC   C1A14331  43.639  36.088   8.765
  784POPC   D2A14332  43.910  36.159   8.444
  784POPC   C3A14333  43.788  36.202   8.038
  784POPC   C4A14334  43.814  36.382   7.632
  784POPC   C1B14335  44.024  35.719   8.670
  784POPC   C2B14336  44.096  35.746   8.175
  784POPC   C3B14337  44.082  35.926   7.726
  784POPC   C4B14338  44.054  35.682   7.330
  785POPC   NC314339  32.006  24.455   9.458
  785POPC   PO414340  32.576  24.853   9.402
  785POPC   GL114341  32.322  24.645   9.099
  785POPC   GL214342  32.328  24.298   9.099
  785POPC   C1A14343  32.266  24.654   8.677
  785POPC   D2A14344  32.536  24.423   8.429
  785POPC   C3A14345  32.431  24.411   8.013
  785POPC   C4A14346  32.031  24.496   7.820
  785POPC   C1B14347  32.149  24.174   8.718
  785POPC   C2B14348  32.035  24.285   8.318
  785POPC   C3B14349  32.098  24.027   7.962
  785POPC   C4B14350  32.006  24.007   7.527
  786POPC   NC314351  31.097  30.936   9.677
  786POPC   PO414352  30.659  30.503   9.602
  786POPC   GL114353  30.914  30.678   9.273
  786POPC   GL214354  30.626  30.590   9.087
  786POPC   C1A14355  31.022  30.805   8.848
  786POPC   D2A14356  30.832  30.582   8.513
  786POPC   C3A14357  31.093  30.527   8.121
  786POPC   C4A14358  31.148  30.545   7.689
  786POPC   C1B14359  30.323  30.551   8.765
  786POPC   C2B14360  30.346  30.712   8.364
  786POPC   C3B14361  30.677  30.866   8.114
  786POPC   C4B14362  30.663  30.720   7.721
  787POPC   NC314363   0.252  24.200   9.527
  787POPC   PO414364   0.605  24.771   9.558
  787POPC   GL114365   0.551  24.537   9.232
  787POPC   GL214366   0.221  24.528   9.084
  787POPC   C1A14367   0.672  24.469   8.840
  787POPC   D2A14368   0.361  24.378   8.554
  787POPC   C3A14369   0.616  24.261   8.224
  787POPC   C4A14370   0.683  24.466   7.866
  787POPC   C1B14371  44.946  24.593   8.741
  787POPC   C2B14372   0.044  24.739   8.363
  787POPC   C3B14373   0.191  24.512   8.041
  787POPC   C4B14374   0.022  24.427   7.634
  788POPC   NC314375   4.767   6.645   9.314
  788POPC   PO414376   5.194   6.228   9.617
  788POPC   GL114377   5.225   6.321   9.161
  788POPC   GL214378   5.263   6.678   9.111
  788POPC   C1A14379   4.996   6.368   8.742
  788POPC   D2A14380   4.972   6.612   8.348
  788POPC   C3A14381   4.751   6.525   7.966
  788POPC   C4A14382   4.765   6.653   7.532
  788POPC   C1B14383   5.244   6.879   8.697
  788POPC   C2B14384   5.424   6.832   8.267
  788POPC   C3B14385   5.195   6.783   7.874
  788POPC   C4B14386   4.905   7.090   7.679
  789POPC   NC314387  22.786  40.407   9.610
  789POPC   PO414388  22.814  41.057   9.391
  789POPC   GL114389  22.871  40.694   9.179
  789POPC   GL214390  23.013  40.377   9.142
  789POPC   C1A14391  22.848  40.703   8.734
  789POPC   D2A14392  23.143  40.924   8.455
  789POPC   C3A14393  23.069  40.897   8.012
  789POPC   C4A14394  22.821  40.622   7.725
  789POPC   C1B14395  23.207  40.365   8.713
  789POPC   C2B14396  23.043  40.446   8.274
  789POPC   C3B14397  23.286  40.457   7.880
  789POPC   C4B14398  23.222  40.497   7.421
  790POPC   NC314399  14.563  28.959   9.336
  790POPC   PO414400  14.189  29.531   9.550
  790POPC   GL114401  14.188  29.548   9.120
  790POPC   GL214402  14.405  29.274   8.988
  790POPC   C1A14403  14.013  29.446   8.727
  790POPC   D2A14404  13.906  29.596   8.351
  790POPC   C3A14405  14.049  29.421   7.940
  790POPC   C4A14406  14.419  29.153   7.856
  790POPC   C1B14407  14.518  29.002   8.637
  790POPC   C2B14408  14.479  28.806   8.234
  790POPC   C3B14409  14.427  28.541   7.878
  790POPC   C4B14410  14.238  28.585   7.468
  791POPC   NC314411  30.399  36.783   9.549
  791POPC   PO414412  30.753  37.423   9.595
  791POPC   GL114413  30.509  37.222   9.267
  791POPC   GL214414  30.708  36.951   9.179
  791POPC   C1A14415  30.455  37.190   8.757
  791POPC   D2A14416  30.693  37.045   8.368
  791POPC   C3A14417  30.548  37.107   7.947
  791POPC   C4A14418  30.594  37.219   7.520
  791POPC   C1B14419  30.772  36.745   8.802
  791POPC   C2B14420  30.861  36.567   8.398
  791POPC   C3B14421  31.030  36.795   8.059
  791POPC   C4B14422  30.833  36.785   7.673
  792POPC   NC314423  31.184  24.871   9.990
  792POPC   PO414424  31.590  24.693   9.438
  792POPC   GL114425  31.541  24.765   9.033
  792POPC   GL214426  31.832  24.572   8.943
  792POPC   C1A14427  31.419  24.715   8.614
  792POPC   D2A14428  31.537  24.508   8.230
  792POPC   C3A14429  31.226  24.462   7.947
  792POPC   C4A14430  31.419  24.752   7.707
  792POPC   C1B14431  31.640  24.259   8.667
  792POPC   C2B14432  31.613  24.007   8.268
  792POPC   C3B14433  31.612  24.137   7.832
  792POPC   C4B14434  31.511  23.994   7.397
  793POPC   NC314435   7.965  23.497   9.549
  793POPC   PO414436   8.462  23.937   9.493
  793POPC   GL114437   8.201  23.739   9.175
  793POPC   GL214438   8.366  23.412   9.145
  793POPC   C1A14439   8.222  23.710   8.746
  793POPC   D2A14440   8.448  23.845   8.428
  793POPC   C3A14441   8.292  23.673   8.053
  793POPC   C4A14442   8.438  23.728   7.681
  793POPC   C1B14443   8.241  23.198   8.773
  793POPC   C2B14444   8.079  23.330   8.402
  793POPC   C3B14445   8.134  23.181   7.999
  793POPC   C4B14446   8.079  23.359   7.596
  794POPC   NC314447  42.182  32.626   9.550
  794POPC   PO414448  42.086  31.975   9.502
  794POPC   GL114449  42.351  32.126   9.146
  794POPC   GL214450  42.390  32.468   9.100
  794POPC   C1A14451  42.250  32.167   8.705
  794POPC   D2A14452  41.971  32.305   8.392
  794POPC   C3A14453  42.100  32.269   7.968
  794POPC   C4A14454  42.296  31.996   7.670
  794POPC   C1B14455  42.720  32.308   8.797
  794POPC   C2B14456  42.873  32.318   8.386
  794POPC   C3B14457  42.732  32.376   7.955
  794POPC   C4B14458  42.724  32.235   7.515
  795POPC   NC314459   9.119  34.575   9.499
  795POPC   PO414460   8.482  34.495   9.517
  795POPC   GL114461   8.793  34.369   9.163
  795POPC   GL214462   8.878  34.711   9.055
  795POPC   C1A14463   8.982  34.316   8.718
  795POPC   D2A14464   9.124  34.070   8.338
  795POPC   C3A14465   9.102  34.339   7.984
  795POPC   C4A14466   8.827  34.696   7.873
  795POPC   C1B14467   9.257  34.801   8.881
  795POPC   C2B14468   9.482  34.884   8.510
  795POPC   C3B14469   9.436  34.828   8.072
  795POPC   C4B14470   9.306  34.685   7.671
  796POPC   NC314471   7.094  33.647   9.449
  796POPC   PO414472   7.793  33.902   9.527
  796POPC   GL114473   7.639  33.815   9.099
  796POPC   GL214474   7.804  33.495   9.011
  796POPC   C1A14475   7.237  33.725   8.811
  796POPC   D2A14476   7.115  33.408   8.487
  796POPC   C3A14477   7.217  33.580   8.072
  796POPC   C4A14478   7.243  34.045   7.917
  796POPC   C1B14479   7.702  33.613   8.625
  796POPC   C2B14480   7.833  33.966   8.384
  796POPC   C3B14481   7.748  33.836   7.995
  796POPC   C4B14482   7.684  33.425   7.848
  797POPC   NC314483   9.917  12.481   9.368
  797POPC   PO414484   9.625  13.138   9.390
  797POPC   GL114485   9.749  12.901   9.045
  797POPC   GL214486   9.565  12.578   9.019
  797POPC   C1A14487   9.783  13.088   8.635
  797POPC   D2A14488   9.470  13.242   8.328
  797POPC   C3A14489   9.559  13.018   7.944
  797POPC   C4A14490   9.968  12.910   7.714
  797POPC   C1B14491   9.855  12.562   8.649
  797POPC   C2B14492   9.885  12.665   8.185
  797POPC   C3B14493   9.666  12.537   7.790
  797POPC   C4B14494   9.652  12.533   7.302
  798POPC   NC314495   5.187  37.444   9.546
  798POPC   PO414496   4.929  36.842   9.470
  798POPC   GL114497   5.237  36.869   9.161
  798POPC   GL214498   5.234  37.211   9.103
  798POPC   C1A14499   5.192  36.801   8.714
  798POPC   D2A14500   5.180  36.534   8.385
  798POPC   C3A14501   4.991  36.599   8.012
  798POPC   C4A14502   5.236  36.605   7.678
  798POPC   C1B14503   4.827  37.126   8.886
  798POPC   C2B14504   4.896  37.136   8.449
  798POPC   C3B14505   5.239  37.026   8.179
  798POPC   C4B14506   5.234  37.117   7.733
  799POPC   NC314507   4.259  23.146   9.422
  799POPC   PO414508   4.755  22.611   9.501
  799POPC   GL114509   4.580  22.816   9.163
  799POPC   GL214510   4.195  22.759   9.110
  799POPC   C1A14511   4.508  22.814   8.743
  799POPC   D2A14512   4.243  22.948   8.474
  799POPC   C3A14513   4.456  22.951   8.117
  799POPC   C4A14514   4.627  22.834   7.725
  799POPC   C1B14515   4.011  22.518   8.778
  799POPC   C2B14516   3.902  22.588   8.352
  799POPC   C3B14517   3.904  22.943   8.084
  799POPC   C4B14518   4.137  22.961   7.713
  800POPC   NC314519   0.879  41.256   9.588
  800POPC   PO414520   0.402  40.908   9.361
  800POPC   GL114521   0.676  40.770   9.084
  800POPC   GL214522   0.653  40.388   9.154
  800POPC   C1A14523   0.680  40.922   8.641
  800POPC   D2A14524   0.444  40.833   8.263
  800POPC   C3A14525   0.519  40.902   7.809
  800POPC   C4A14526   0.602  40.664   7.423
  800POPC   C1B14527   0.391  40.498   8.772
  800POPC   C2B14528   0.236  40.382   8.369
  800POPC   C3B14529   0.370  40.412   7.927
  800POPC   C4B14530   0.175  40.442   7.521
  801POPC   NC314531   0.652  25.221   9.621
  801POPC   PO414532   1.338  25.189   9.508
  801POPC   GL114533   1.240  25.308   9.107
  801POPC   GL214534   0.935  25.141   9.197
  801POPC   C1A14535   1.197  25.320   8.665
  801POPC   D2A14536   1.471  25.233   8.340
  801POPC   C3A14537   1.395  25.437   7.963
  801POPC   C4A14538   1.106  25.433   7.610
  801POPC   C1B14539   0.877  24.956   8.830
  801POPC   C2B14540   0.726  25.228   8.496
  801POPC   C3B14541   0.964  25.218   8.122
  801POPC   C4B14542   0.915  24.951   7.728
  802POPC   NC314543  18.167  40.538   9.345
  802POPC   PO414544  18.401  41.123   9.482
  802POPC   GL114545  18.505  40.959   9.042
  802POPC   GL214546  18.177  40.819   8.929
  802POPC   C1A14547  18.533  40.841   8.586
  802POPC   D2A14548  18.088  40.868   8.397
  802POPC   C3A14549  18.167  40.974   7.977
  802POPC   C4A14550  18.483  40.694   7.838
  802POPC   C1B14551  18.246  40.429   8.679
  802POPC   C2B14552  18.329  40.428   8.258
  802POPC   C3B14553  18.167  40.201   7.934
  802POPC   C4B14554  18.196  40.371   7.567
  803POPC   NC314555  17.646   1.442   9.402
  803POPC   PO414556  18.174   1.046   9.693
  803POPC   GL114557  18.227   1.132   9.194
  803POPC   GL214558  18.054   1.427   9.121
  803POPC   C1A14559  17.937   1.123   8.748
  803POPC   D2A14560  17.916   0.926   8.344
  803POPC   C3A14561  18.206   1.167   8.088
  803POPC   C4A14562  18.197   1.237   7.657
  803POPC   C1B14563  18.163   1.579   8.716
  803POPC   C2B14564  18.442   1.540   8.343
  803POPC   C3B14565  18.410   1.643   7.889
  803POPC   C4B14566  18.327   1.747   7.440
  804POPC   NC314567  38.348  43.357   9.651
  804POPC   PO414568  38.792  42.910   9.827
  804POPC   GL114569  38.641  43.006   9.403
  804POPC   GL214570  38.273  42.896   9.368
  804POPC   C1A14571  38.521  43.073   8.953
  804POPC   D2A14572  38.720  43.195   8.574
  804POPC   C3A14573  38.552  43.105   8.160
  804POPC   C4A14574  38.411  43.181   7.708
  804POPC   C1B14575  38.136  42.739   8.949
  804POPC   C2B14576  38.311  42.815   8.529
  804POPC   C3B14577  38.171  42.780   8.095
  804POPC   C4B14578  38.030  42.815   7.676
  805POPC   NC314579  22.293  39.186   9.625
  805POPC   PO414580  21.737  38.790   9.505
  805POPC   GL114581  21.996  38.924   9.123
  805POPC   GL214582  22.272  39.194   9.125
  805POPC   C1A14583  21.960  39.230   8.750
  805POPC   D2A14584  22.214  39.237   8.379
  805POPC   C3A14585  22.098  39.049   7.976
  805POPC   C4A14586  21.872  39.173   7.618
  805POPC   C1B14587  22.274  39.612   8.840
  805POPC   C2B14588  22.216  39.757   8.380
  805POPC   C3B14589  22.347  39.535   7.960
  805POPC   C4B14590  22.352  39.312   7.521
  806POPC   NC314591  28.847   9.573   9.526
  806POPC   PO414592  29.336   9.993   9.446
  806POPC   GL114593  29.230   9.689   9.166
  806POPC   GL214594  28.878   9.818   9.096
  806POPC   C1A14595  29.439   9.573   8.769
  806POPC   D2A14596  29.230   9.646   8.366
  806POPC   C3A14597  29.387   9.614   7.994
  806POPC   C4A14598  29.347   9.818   7.628
  806POPC   C1B14599  29.115   9.959   8.757
  806POPC   C2B14600  29.045  10.150   8.391
  806POPC   C3B14601  29.191  10.122   8.006
  806POPC   C4B14602  28.926  10.140   7.667
  807POPC   NC314603  25.433   9.698   9.638
  807POPC   PO414604  24.891   9.359   9.549
  807POPC   GL114605  25.093   9.664   9.229
  807POPC   GL214606  25.412   9.817   9.145
  807POPC   C1A14607  25.108   9.684   8.778
  807POPC   D2A14608  25.427   9.592   8.489
  807POPC   C3A14609  25.294   9.569   8.052
  807POPC   C4A14610  24.966   9.753   7.751
  807POPC   C1B14611  25.537  10.016   8.757
  807POPC   C2B14612  25.394  10.084   8.314
  807POPC   C3B14613  25.384  10.043   7.864
  807POPC   C4B14614  25.642  10.072   7.474
  808POPC   NC314615  12.488  15.708   9.841
  808POPC   PO414616  12.998  16.161   9.665
  808POPC   GL114617  12.850  15.931   9.270
  808POPC   GL214618  12.572  16.096   9.049
  808POPC   C1A14619  12.879  15.725   8.871
  808POPC   D2A14620  13.007  15.630   8.466
  808POPC   C3A14621  12.790  15.722   8.094
  808POPC   C4A14622  13.046  15.625   7.757
  808POPC   C1B14623  12.786  16.310   8.771
  808POPC   C2B14624  12.865  16.133   8.414
  808POPC   C3B14625  12.788  16.325   8.048
  808POPC   C4B14626  12.825  16.082   7.671
  809POPC   NC314627  31.770  15.496   9.654
  809POPC   PO414628  31.260  15.121   9.655
  809POPC   GL114629  31.439  15.103   9.223
  809POPC   GL214630  31.708  15.367   9.164
  809POPC   C1A14631  31.470  14.968   8.777
  809POPC   D2A14632  31.649  15.213   8.432
  809POPC   C3A14633  31.736  15.142   7.999
  809POPC   C4A14634  31.416  15.046   7.722
  809POPC   C1B14635  31.430  15.470   8.834
  809POPC   C2B14636  31.324  15.636   8.460
  809POPC   C3B14637  31.356  15.467   8.063
  809POPC   C4B14638  31.543  15.553   7.715
  810POPC   NC314639  17.865  44.007   9.495
  810POPC   PO414640  17.265  43.783   9.465
  810POPC   GL114641  17.503  43.853   9.119
  810POPC   GL214642  17.319  44.110   9.041
  810POPC   C1A14643  17.724  43.857   8.679
  810POPC   D2A14644  17.564  43.558   8.354
  810POPC   C3A14645  17.508  43.628   7.900
  810POPC   C4A14646  17.428  43.894   7.499
  810POPC   C1B14647  17.207  43.840   8.706
  810POPC   C2B14648  17.358  44.033   8.340
  810POPC   C3B14649  17.292  44.095   7.955
  810POPC   C4B14650  17.009  43.768   7.808
  811POPC   NC314651  28.164   7.156   9.389
  811POPC   PO414652  28.143   7.784   9.197
  811POPC   GL114653  28.529   7.605   9.053
  811POPC   GL214654  28.537   7.232   9.047
  811POPC   C1A14655  28.525   7.500   8.623
  811POPC   D2A14656  28.199   7.480   8.339
  811POPC   C3A14657  28.368   7.664   7.975
  811POPC   C4A14658  28.784   7.474   7.783
  811POPC   C1B14659  28.163   7.109   8.752
  811POPC   C2B14660  27.888   7.075   8.364
  811POPC   C3B14661  28.011   6.927   7.994
  811POPC   C4B14662  28.346   7.180   7.809
  812POPC   NC314663   9.288  41.112   9.192
  812POPC   PO414664   8.746  41.032   9.566
  812POPC   GL114665   8.851  40.843   9.132
  812POPC   GL214666   9.076  40.555   8.998
  812POPC   C1A14667   8.838  40.898   8.680
  812POPC   D2A14668   9.035  41.201   8.393
  812POPC   C3A14669   9.185  41.048   8.014
  812POPC   C4A14670   9.286  40.850   7.640
  812POPC   C1B14671   9.413  40.604   8.683
  812POPC   C2B14672   9.341  40.604   8.241
  812POPC   C3B14673   8.978  40.570   7.983
  812POPC   C4B14674   8.926  40.488   7.533
  813POPC   NC314675   0.311  19.524   9.476
  813POPC   PO414676   0.678  20.098   9.551
  813POPC   GL114677   0.456  19.924   9.159
  813POPC   GL214678   0.450  20.272   9.064
  813POPC   C1A14679   0.380  19.687   8.720
  813POPC   D2A14680   0.264  19.808   8.252
  813POPC   C3A14681   0.477  19.931   7.794
  813POPC   C4A14682   0.653  19.974   7.313
  813POPC   C1B14683   0.462  20.179   8.629
  813POPC   C2B14684   0.527  20.256   8.218
  813POPC   C3B14685   0.279  20.373   7.894
  813POPC   C4B14686   0.310  20.327   7.456
  814POPC   NC314687  41.080  27.369   9.626
  814POPC   PO414688  40.489  27.703   9.775
  814POPC   GL114689  40.582  27.786   9.319
  814POPC   GL214690  40.948  27.736   9.287
  814POPC   C1A14691  40.715  27.915   8.871
  814POPC   D2A14692  41.055  27.830   8.562
  814POPC   C3A14693  40.949  27.846   8.105
  814POPC   C4A14694  40.660  27.589   7.856
  814POPC   C1B14695  41.087  27.426   8.964
  814POPC   C2B14696  41.230  27.300   8.569
  814POPC   C3B14697  40.996  27.322   8.192
  814POPC   C4B14698  41.068  27.226   7.765
  815POPC   NC314699  38.859  16.536   9.566
  815POPC   PO414700  38.315  16.950   9.526
  815POPC   GL114701  38.388  16.903   9.122
  815POPC   GL214702  38.669  16.693   9.129
  815POPC   C1A14703  38.377  16.714   8.704
  815POPC   D2A14704  38.261  16.537   8.307
  815POPC   C3A14705  38.420  16.831   8.011
  815POPC   C4A14706  38.237  17.144   7.759
  815POPC   C1B14707  38.903  16.670   8.757
  815POPC   C2B14708  38.770  16.639   8.347
  815POPC   C3B14709  38.800  16.492   7.968
  815POPC   C4B14710  39.003  16.615   7.638
  816POPC   NC314711   8.757  28.196   9.489
  816POPC   PO414712   8.965  28.861   9.534
  816POPC   GL114713   8.841  28.616   9.149
  816POPC   GL214714   8.910  28.289   9.017
  816POPC   C1A14715   8.813  28.669   8.689
  816POPC   D2A14716   8.999  28.433   8.395
  816POPC   C3A14717   8.988  28.572   8.009
  816POPC   C4A14718   9.224  28.525   7.664
  816POPC   C1B14719   9.043  27.997   8.688
  816POPC   C2B14720   8.982  27.945   8.251
  816POPC   C3B14721   8.996  28.024   7.799
  816POPC   C4B14722   9.140  27.822   7.371
  817POPC   NC314723  16.918  43.476   9.439
  817POPC   PO414724  16.409  43.095   9.699
  817POPC   GL114725  16.556  43.148   9.210
  817POPC   GL214726  16.691  42.846   9.056
  817POPC   C1A14727  16.790  43.229   8.765
  817POPC   D2A14728  16.695  43.007   8.338
  817POPC   C3A14729  16.834  43.256   7.983
  817POPC   C4A14730  16.676  43.440   7.607
  817POPC   C1B14731  16.926  42.692   8.710
  817POPC   C2B14732  17.000  42.492   8.316
  817POPC   C3B14733  16.936  42.728   7.928
  817POPC   C4B14734  16.729  42.925   7.572
  818POPC   NC314735  26.056  35.551   9.536
  818POPC   PO414736  25.867  34.887   9.459
  818POPC   GL114737  25.946  35.129   9.057
  818POPC   GL214738  26.222  35.376   9.084
  818POPC   C1A14739  25.972  35.356   8.632
  818POPC   D2A14740  25.678  35.591   8.383
  818POPC   C3A14741  25.674  35.464   7.959
  818POPC   C4A14742  25.749  35.042   7.885
  818POPC   C1B14743  26.446  35.171   8.770
  818POPC   C2B14744  26.436  35.338   8.375
  818POPC   C3B14745  26.182  35.343   8.033
  818POPC   C4B14746  26.373  35.456   7.662
  819POPC   NC314747   0.616  32.635   9.569
  819POPC   PO414748   0.191  33.020   9.779
  819POPC   GL114749   0.377  32.860   9.221
  819POPC   GL214750   0.687  33.038   9.148
  819POPC   C1A14751   0.582  32.639   8.814
  819POPC   D2A14752   0.470  32.749   8.329
  819POPC   C3A14753   0.762  32.874   7.965
  819POPC   C4A14754   0.666  32.940   7.509
  819POPC   C1B14755   0.428  33.117   8.759
  819POPC   C2B14756   0.401  33.268   8.339
  819POPC   C3B14757   0.337  33.169   7.920
  819POPC   C4B14758   0.046  33.411   7.729
  820POPC   NC314759  10.877  39.333   9.725
  820POPC   PO414760  10.340  39.077   9.450
  820POPC   GL114761  10.153  39.261   9.066
  820POPC   GL214762  10.342  39.602   9.049
  820POPC   C1A14763  10.302  39.271   8.639
  820POPC   D2A14764  10.662  39.075   8.468
  820POPC   C3A14765  10.627  39.081   8.035
  820POPC   C4A14766  10.253  39.072   7.821
  820POPC   C1B14767  10.664  39.667   8.746
  820POPC   C2B14768  10.663  39.561   8.333
  820POPC   C3B14769  10.376  39.551   8.011
  820POPC   C4B14770  10.595  39.441   7.642
  821POPC   NC314771  22.344  19.742   9.390
  821POPC   PO414772  22.024  20.353   9.484
  821POPC   GL114773  22.050  20.071   9.131
  821POPC   GL214774  21.889  19.756   9.118
  821POPC   C1A14775  22.273  19.918   8.750
  821POPC   D2A14776  22.200  19.732   8.357
  821POPC   C3A14777  22.518  19.649   8.042
  821POPC   C4A14778  22.371  19.759   7.623
  821POPC   C1B14779  21.871  19.538   8.729
  821POPC   C2B14780  21.920  19.298   8.345
  821POPC   C3B14781  22.062  19.431   7.959
  821POPC   C4B14782  21.932  19.520   7.530
  822POPC   NC314783  24.028  43.819   9.527
  822POPC   PO414784  24.698  43.841   9.443
  822POPC   GL114785  24.360  43.896   9.124
  822POPC   GL214786  24.343  44.211   8.950
  822POPC   C1A14787  24.121  43.803   8.738
  822POPC   D2A14788  23.950  43.875   8.315
  822POPC   C3A14789  24.252  43.826   7.948
  822POPC   C4A14790  24.309  43.582   7.541
  822POPC   C1B14791  24.590  44.014   8.617
  822POPC   C2B14792  24.627  44.118   8.161
  822POPC   C3B14793  24.675  44.040   7.731
  822POPC   C4B14794  24.654  43.897   7.298
  823POPC   NC314795  40.204  25.691   9.446
  823POPC   PO414796  39.709  26.218   9.532
  823POPC   GL114797  39.987  26.071   9.192
  823POPC   GL214798  40.308  26.158   9.059
  823POPC   C1A14799  39.978  25.829   8.807
  823POPC   D2A14800  39.770  25.962   8.433
  823POPC   C3A14801  39.782  25.789   8.018
  823POPC   C4A14802  39.973  25.781   7.610
  823POPC   C1B14803  40.144  26.315   8.666
  823POPC   C2B14804  40.149  26.279   8.224
  823POPC   C3B14805  40.146  26.227   7.795
  823POPC   C4B14806  40.228  26.150   7.356
  824POPC   NC314807  26.708  29.568   9.341
  824POPC   PO414808  26.497  30.206   9.534
  824POPC   GL114809  26.706  30.033   9.118
  824POPC   GL214810  27.067  29.933   9.142
  824POPC   C1A14811  26.704  29.837   8.672
  824POPC   D2A14812  26.641  29.793   8.195
  824POPC   C3A14813  26.644  30.116   7.881
  824POPC   C4A14814  27.009  30.269   7.657
  824POPC   C1B14815  27.138  29.597   8.814
  824POPC   C2B14816  27.080  29.566   8.391
  824POPC   C3B14817  27.151  29.877   8.059
  824POPC   C4B14818  27.376  29.709   7.720
  825POPC   NC314819  30.211   8.228   9.366
  825POPC   PO414820  29.547   8.306   9.450
  825POPC   GL114821  29.579   8.151   9.035
  825POPC   GL214822  29.842   7.918   9.059
  825POPC   C1A14823  29.665   8.191   8.573
  825POPC   D2A14824  29.906   8.471   8.278
  825POPC   C3A14825  29.796   8.415   7.854
  825POPC   C4A14826  29.618   8.047   7.632
  825POPC   C1B14827  30.019   7.833   8.639
  825POPC   C2B14828  29.986   7.945   8.248
  825POPC   C3B14829  30.191   8.097   7.958
  825POPC   C4B14830  30.406   7.892   7.677
  826POPC   NC314831   7.045  43.308   9.475
  826POPC   PO414832   7.601  42.992   9.467
  826POPC   GL114833   7.676  43.132   9.085
  826POPC   GL214834   7.349  43.263   9.059
  826POPC   C1A14835   7.820  43.016   8.673
  826POPC   D2A14836   7.717  43.180   8.264
  826POPC   C3A14837   7.274  43.070   8.097
  826POPC   C4A14838   7.112  42.781   7.766
  826POPC   C1B14839   7.008  43.461   8.833
  826POPC   C2B14840   6.885  43.392   8.415
  826POPC   C3B14841   6.996  43.497   7.975
  826POPC   C4B14842   7.006  43.265   7.595
  827POPC   NC314843  34.830  43.129   9.405
  827POPC   PO414844  34.309  43.416   9.097
  827POPC   GL114845  34.524  43.091   8.977
  827POPC   GL214846  34.809  43.306   8.922
  827POPC   C1A14847  34.549  43.061   8.550
  827POPC   D2A14848  34.620  43.104   8.136
  827POPC   C3A14849  34.343  43.185   7.797
  827POPC   C4A14850  34.421  42.916   7.486
  827POPC   C1B14851  34.962  42.870   8.790
  827POPC   C2B14852  34.915  42.712   8.366
  827POPC   C3B14853  35.023  42.879   7.941
  827POPC   C4B14854  34.831  43.142   7.649
  828POPC   NC314855  42.858  21.603   9.502
  828POPC   PO414856  43.489  21.224   9.489
  828POPC   GL114857  43.308  21.492   9.229
  828POPC   GL214858  43.372  21.845   9.364
  828POPC   C1A14859  42.991  21.425   8.873
  828POPC   D2A14860  42.958  21.313   8.424
  828POPC   C3A14861  43.163  21.631   8.148
  828POPC   C4A14862  43.271  21.563   7.713
  828POPC   C1B14863  43.254  21.862   8.917
  828POPC   C2B14864  43.444  21.541   8.641
  828POPC   C3B14865  43.657  21.536   8.268
  828POPC   C4B14866  43.602  21.854   7.955
  829POPC   NC314867  19.326   9.800   9.561
  829POPC   PO414868  18.738   9.357   9.468
  829POPC   GL114869  18.884   9.727   9.159
  829POPC   GL214870  19.201   9.933   9.107
  829POPC   C1A14871  18.937   9.748   8.710
  829POPC   D2A14872  19.066   9.471   8.386
  829POPC   C3A14873  18.866   9.709   8.035
  829POPC   C4A14874  18.720   9.614   7.610
  829POPC   C1B14875  19.427   9.886   8.740
  829POPC   C2B14876  19.271   9.927   8.308
  829POPC   C3B14877  19.474   9.781   7.884
  829POPC   C4B14878  19.491   9.898   7.411
  830POPC   NC314879  33.796   2.268   9.629
  830POPC   PO414880  33.564   1.665   9.435
  830POPC   GL114881  33.776   1.919   9.157
  830POPC   GL214882  33.673   2.274   9.134
  830POPC   C1A14883  33.843   1.761   8.754
  830POPC   D2A14884  33.522   1.672   8.446
  830POPC   C3A14885  33.697   1.688   8.052
  830POPC   C4A14886  33.651   1.882   7.670
  830POPC   C1B14887  33.929   2.265   8.743
  830POPC   C2B14888  33.837   2.103   8.324
  830POPC   C3B14889  33.721   2.312   7.908
  830POPC   C4B14890  33.589   2.415   7.449
  831POPC   NC314891  12.009   3.914   9.438
  831POPC   PO414892  12.059   3.317   9.708
  831POPC   GL114893  11.961   3.415   9.238
  831POPC   GL214894  12.034   3.730   8.986
  831POPC   C1A14895  11.858   3.308   8.789
  831POPC   D2A14896  11.895   3.576   8.398
  831POPC   C3A14897  11.869   3.325   7.997
  831POPC   C4A14898  11.877   3.252   7.552
  831POPC   C1B14899  12.331   3.623   8.695
  831POPC   C2B14900  12.408   3.614   8.273
  831POPC   C3B14901  12.139   3.767   7.967
  831POPC   C4B14902  12.271   3.532   7.678
  832POPC   NC314903  21.013  36.209   9.328
  832POPC   PO414904  20.459  36.158   9.719
  832POPC   GL114905  20.308  36.208   9.234
  832POPC   GL214906  20.599  36.338   9.075
  832POPC   C1A14907  20.285  36.079   8.759
  832POPC   D2A14908  20.393  36.111   8.275
  832POPC   C3A14909  20.145  35.909   7.920
  832POPC   C4A14910  20.187  36.095   7.490
  832POPC   C1B14911  20.786  36.096   8.710
  832POPC   C2B14912  20.837  35.873   8.332
  832POPC   C3B14913  20.919  36.108   7.988
  832POPC   C4B14914  20.604  36.097   7.765
  833POPC   NC314915  32.853  31.359   9.439
  833POPC   PO414916  33.520  31.486   9.660
  833POPC   GL114917  33.336  31.396   9.236
  833POPC   GL214918  33.084  31.587   9.038
  833POPC   C1A14919  33.223  31.103   8.888
  833POPC   D2A14920  33.125  31.117   8.432
  833POPC   C3A14921  33.239  31.271   7.996
  833POPC   C4A14922  33.201  31.558   7.675
  833POPC   C1B14923  32.759  31.335   8.783
  833POPC   C2B14924  32.641  31.290   8.347
  833POPC   C3B14925  32.786  31.466   7.981
  833POPC   C4B14926  32.804  31.218   7.604
  834POPC   NC314927  18.210  21.073   9.364
  834POPC   PO414928  18.190  21.648   9.711
  834POPC   GL114929  18.110  21.596   9.257
  834POPC   GL214930  18.414  21.714   9.133
  834POPC   C1A14931  17.994  21.412   8.825
  834POPC   D2A14932  17.906  21.097   8.486
  834POPC   C3A14933  17.925  21.204   8.032
  834POPC   C4A14934  18.318  21.249   7.761
  834POPC   C1B14935  18.472  21.496   8.711
  834POPC   C2B14936  18.296  21.440   8.308
  834POPC   C3B14937  18.143  21.685   7.969
  834POPC   C4B14938  18.414  21.782   7.644
  835POPC   NC314939  20.945  11.455   9.457
  835POPC   PO414940  20.379  11.420   9.775
  835POPC   GL114941  20.547  11.188   9.313
  835POPC   GL214942  20.832  10.964   9.260
  835POPC   C1A14943  20.616  11.269   8.843
  835POPC   D2A14944  20.437  11.268   8.424
  835POPC   C3A14945  20.602  11.313   8.022
  835POPC   C4A14946  20.628  11.644   7.769
  835POPC   C1B14947  21.084  11.086   8.888
  835POPC   C2B14948  20.994  11.176   8.465
  835POPC   C3B14949  21.014  11.033   8.034
  835POPC   C4B14950  20.680  10.843   7.769
  836POPC   NC314951  35.790  40.121   9.484
  836POPC   PO414952  36.379  39.839   9.426
  836POPC   GL114953  36.375  39.925   9.019
  836POPC   GL214954  36.041  40.070   9.036
  836POPC   C1A14955  36.549  39.723   8.654
  836POPC   D2A14956  36.535  39.673   8.222
  836POPC   C3A14957  36.508  39.954   7.857
  836POPC   C4A14958  36.493  40.344   7.670
  836POPC   C1B14959  36.127  40.027   8.591
  836POPC   C2B14960  36.097  39.949   8.153
  836POPC   C3B14961  35.996  40.220   7.831
  836POPC   C4B14962  35.625  40.430   7.720
  837POPC   NC314963   4.086  28.415   9.517
  837POPC   PO414964   4.620  28.807   9.333
  837POPC   GL114965   4.376  28.489   9.102
  837POPC   GL214966   4.466  28.125   8.986
  837POPC   C1A14967   4.181  28.412   8.701
  837POPC   D2A14968   4.351  28.069   8.455
  837POPC   C3A14969   4.199  28.098   8.026
  837POPC   C4A14970   4.010  28.450   7.837
  837POPC   C1B14971   4.726  28.409   8.735
  837POPC   C2B14972   4.714  28.705   8.413
  837POPC   C3B14973   4.493  28.556   8.070
  837POPC   C4B14974   4.575  28.487   7.651
  838POPC   NC314975  12.600  17.984   9.391
  838POPC   PO414976  13.063  18.450   9.545
  838POPC   GL114977  12.964  18.254   9.183
  838POPC   GL214978  12.784  18.572   9.085
  838POPC   C1A14979  12.849  18.154   8.753
  838POPC   D2A14980  12.866  18.525   8.461
  838POPC   C3A14981  12.738  18.394   8.088
  838POPC   C4A14982  12.900  18.046   7.819
  838POPC   C1B14983  12.447  18.491   8.767
  838POPC   C2B14984  12.380  18.120   8.486
  838POPC   C3B14985  12.390  17.993   8.059
  838POPC   C4B14986  12.436  18.265   7.705
  839POPC   NC314987  29.834  11.823   9.659
  839POPC   PO414988  30.020  11.209   9.491
  839POPC   GL114989  30.086  11.556   9.204
  839POPC   GL214990  29.985  11.274   8.996
  839POPC   C1A14991  29.994  11.684   8.750
  839POPC   D2A14992  29.972  11.316   8.485
  839POPC   C3A14993  29.947  11.444   8.104
  839POPC   C4A14994  30.083  11.466   7.711
  839POPC   C1B14995  30.162  10.924   8.799
  839POPC   C2B14996  30.404  10.876   8.473
  839POPC   C3B14997  30.263  11.051   8.125
  839POPC   C4B14998  30.255  10.993   7.720
  840POPC   NC314999  21.250  32.014   9.779
  840POPC   PO415000  20.708  32.545   9.580
  840POPC   GL115001  20.577  32.404   9.122
  840POPC   GL215002  20.261  32.161   9.122
  840POPC   C1A15003  20.774  32.462   8.679
  840POPC   D2A15004  21.140  32.360   8.419
  840POPC   C3A15005  21.066  32.400   7.989
  840POPC   C4A15006  20.695  32.267   7.779
  840POPC   C1B15007  20.298  32.333   8.686
  840POPC   C2B15008  20.329  32.354   8.203
  840POPC   C3B15009  20.235  32.477   7.803
  840POPC   C4B15010  20.267  32.168   7.465
  841POPC   NC315011  14.781  27.066   9.493
  841POPC   PO415012  14.130  26.841   9.570
  841POPC   GL115013  14.435  26.803   9.226
  841POPC   GL215014  14.276  26.567   9.048
  841POPC   C1A15015  14.446  26.986   8.821
  841POPC   D2A15016  14.233  26.780   8.478
  841POPC   C3A15017  14.500  26.792   8.133
  841POPC   C4A15018  14.669  26.974   7.752
  841POPC   C1B15019  13.981  26.396   8.803
  841POPC   C2B15020  13.826  26.441   8.429
  841POPC   C3B15021  13.989  26.545   8.052
  841POPC   C4B15022  14.191  26.777   7.726
  842POPC   NC315023  36.908   0.774   9.364
  842POPC   PO415024  36.522   0.156   9.344
  842POPC   GL115025  36.661   0.477   9.043
  842POPC   GL215026  37.012   0.383   9.001
  842POPC   C1A15027  36.779   0.658   8.640
  842POPC   D2A15028  37.043   0.569   8.290
  842POPC   C3A15029  36.792   0.715   7.955
  842POPC   C4A15030  36.551   0.513   7.657
  842POPC   C1B15031  36.821   0.111   8.686
  842POPC   C2B15032  36.769  44.911   8.293
  842POPC   C3B15033  36.922   0.079   7.872
  842POPC   C4B15034  37.215   0.434   7.802
  843POPC   NC315035  10.655  34.125   9.218
  843POPC   PO415036  10.273  34.612   9.609
  843POPC   GL115037  10.359  34.531   9.167
  843POPC   GL215038  10.220  34.797   9.058
  843POPC   C1A15039  10.443  34.454   8.679
  843POPC   D2A15040  10.702  34.423   8.291
  843POPC   C3A15041  10.513  34.531   7.928
  843POPC   C4A15042  10.169  34.342   7.757
  843POPC   C1B15043  10.629  34.879   8.889
  843POPC   C2B15044  10.902  34.827   8.553
  843POPC   C3B15045  10.883  34.865   8.110
  843POPC   C4B15046  10.840  34.851   7.683
  844POPC   NC315047  23.357  16.098   9.444
  844POPC   PO415048  22.762  16.012   9.551
  844POPC   GL115049  22.853  16.069   9.128
  844POPC   GL215050  23.077  16.351   9.097
  844POPC   C1A15051  23.107  15.903   8.787
  844POPC   D2A15052  23.006  15.631   8.454
  844POPC   C3A15053  22.725  15.795   8.169
  844POPC   C4A15054  22.863  15.790   7.772
  844POPC   C1B15055  23.108  16.399   8.669
  844POPC   C2B15056  22.981  16.216   8.287
  844POPC   C3B15057  22.855  16.301   7.850
  844POPC   C4B15058  22.992  16.137   7.419
  845POPC   NC315059  44.646  19.060   9.816
  845POPC   PO415060  44.831  19.606   9.351
  845POPC   GL115061  44.953  19.824   9.001
  845POPC   GL215062  44.692  20.066   8.963
  845POPC   C1A15063  44.795  19.716   8.585
  845POPC   D2A15064  44.495  19.429   8.380
  845POPC   C3A15065  44.764  19.363   8.075
  845POPC   C4A15066   0.027  19.640   7.825
  845POPC   C1B15067  44.941  20.225   8.625
  845POPC   C2B15068  44.879  20.172   8.168
  845POPC   C3B15069  44.542  19.991   7.908
  845POPC   C4B15070  44.279  20.002   7.501
  846POPC   NC315071  32.721  11.451   9.552
  846POPC   PO415072  33.439  11.313   9.629
  846POPC   GL115073  33.169  11.441   9.269
  846POPC   GL215074  32.987  11.136   9.245
  846POPC   C1A15075  33.086  11.540   8.808
  846POPC   D2A15076  33.264  11.557   8.369
  846POPC   C3A15077  33.145  11.623   7.920
  846POPC   C4A15078  33.354  11.517   7.534
  846POPC   C1B15079  32.953  11.024   8.835
  846POPC   C2B15080  32.836  11.221   8.466
  846POPC   C3B15081  32.981  11.136   8.077
  846POPC   C4B15082  32.979  11.187   7.652
  847POPC   NC315083  32.352  41.312   9.414
  847POPC   PO415084  32.585  41.980   9.389
  847POPC   GL115085  32.358  41.723   9.088
  847POPC   GL215086  32.546  41.417   8.976
  847POPC   C1A15087  32.194  41.798   8.673
  847POPC   D2A15088  32.038  41.743   8.242
  847POPC   C3A15089  32.320  41.723   7.862
  847POPC   C4A15090  32.246  41.880   7.417
  847POPC   C1B15091  32.213  41.295   8.692
  847POPC   C2B15092  32.347  41.314   8.260
  847POPC   C3B15093  32.143  41.235   7.887
  847POPC   C4B15094  31.975  41.446   7.530
  848POPC   NC315095  13.591  43.574   9.481
  848POPC   PO415096  13.807  42.940   9.579
  848POPC   GL115097  13.717  42.961   9.134
  848POPC   GL215098  13.505  43.213   9.131
  848POPC   C1A15099  13.868  43.169   8.735
  848POPC   D2A15100  14.077  43.291   8.349
  848POPC   C3A15101  13.850  43.201   7.940
  848POPC   C4A15102  13.654  42.824   7.687
  848POPC   C1B15103  13.360  43.114   8.721
  848POPC   C2B15104  13.510  43.267   8.327
  848POPC   C3B15105  13.339  43.183   7.900
  848POPC   C4B15106  13.170  43.339   7.516
  849POPC   NC315107  14.877  12.241   9.338
  849POPC   PO415108  15.324  11.838   9.560
  849POPC   GL115109  15.225  11.875   9.128
  849POPC   GL215110  15.322  12.181   9.090
  849POPC   C1A15111  15.378  11.882   8.689
  849POPC   D2A15112  15.121  12.007   8.362
  849POPC   C3A15113  15.323  12.052   8.026
  849POPC   C4A15114  15.273  12.195   7.653
  849POPC   C1B15115  15.081  12.329   8.737
  849POPC   C2B15116  14.824  12.435   8.334
  849POPC   C3B15117  14.980  12.550   7.883
  849POPC   C4B15118  14.989  12.490   7.363
  850POPC   NC315119   8.900  25.673   9.827
  850POPC   PO415120   9.308  25.279   9.448
  850POPC   GL115121   8.945  25.334   9.179
  850POPC   GL215122   9.203  25.484   8.985
  850POPC   C1A15123   8.761  25.514   8.788
  850POPC   D2A15124   8.860  25.615   8.343
  850POPC   C3A15125   9.219  25.670   8.109
  850POPC   C4A15126   9.095  25.699   7.668
  850POPC   C1B15127   9.225  25.358   8.620
  850POPC   C2B15128   9.212  25.143   8.268
  850POPC   C3B15129   8.982  25.260   7.919
  850POPC   C4B15130   9.258  25.223   7.558
  851POPC   NC315131  43.418  36.397   9.761
  851POPC   PO415132  42.872  36.089   9.618
  851POPC   GL115133  42.906  35.996   9.210
  851POPC   GL215134  43.263  36.103   9.128
  851POPC   C1A15135  42.866  36.134   8.814
  851POPC   D2A15136  43.154  36.051   8.533
  851POPC   C3A15137  42.913  36.250   8.258
  851POPC   C4A15138  42.801  36.148   7.856
  851POPC   C1B15139  43.296  36.465   8.807
  851POPC   C2B15140  43.463  36.435   8.370
  851POPC   C3B15141  43.296  36.349   7.951
  851POPC   C4B15142  43.399  36.028   7.718
  852POPC   NC315143  44.165  26.263   9.535
  852POPC   PO415144  43.711  25.803   9.379
  852POPC   GL115145  43.832  25.863   9.015
  852POPC   GL215146  44.160  25.692   8.956
  852POPC   C1A15147  43.534  25.991   8.703
  852POPC   D2A15148  43.438  26.153   8.328
  852POPC   C3A15149  43.728  26.002   8.029
  852POPC   C4A15150  43.734  26.214   7.666
  852POPC   C1B15151  44.035  25.958   8.569
  852POPC   C2B15152  44.009  26.331   8.318
  852POPC   C3B15153  44.177  26.285   7.930
  852POPC   C4B15154  44.211  25.917   7.731
  853POPC   NC315155  10.404  10.976   9.661
  853POPC   PO415156  10.592  10.495   9.591
  853POPC   GL115157  10.551  10.690   9.155
  853POPC   GL215158  10.203  10.764   9.016
  853POPC   C1A15159  10.587  10.643   8.677
  853POPC   D2A15160  10.342  10.532   8.291
  853POPC   C3A15161  10.484  10.601   7.857
  853POPC   C4A15162  10.791  10.547   7.511
  853POPC   C1B15163  10.173  10.944   8.567
  853POPC   C2B15164  10.003  10.971   8.126
  853POPC   C3B15165  10.047  10.847   7.682
  853POPC   C4B15166  10.296  10.625   7.362
  854POPC   NC315167  12.571  31.291   9.536
  854POPC   PO415168  13.181  31.559   9.307
  854POPC   GL115169  12.819  31.408   9.077
  854POPC   GL215170  12.943  31.653   8.822
  854POPC   C1A15171  12.522  31.412   8.715
  854POPC   D2A15172  12.698  31.646   8.360
  854POPC   C3A15173  12.817  31.410   7.984
  854POPC   C4A15174  12.603  31.289   7.568
  854POPC   C1B15175  13.145  31.332   8.592
  854POPC   C2B15176  13.368  31.289   8.219
  854POPC   C3B15177  13.264  31.133   7.847
  854POPC   C4B15178  13.113  31.350   7.499
  855POPC   NC315179  17.930  28.286   9.364
  855POPC   PO415180  17.415  28.368   9.668
  855POPC   GL115181  17.440  28.231   9.217
  855POPC   GL215182  17.174  28.438   9.191
  855POPC   C1A15183  17.659  28.244   8.777
  855POPC   D2A15184  17.776  28.130   8.352
  855POPC   C3A15185  17.749  28.451   8.064
  855POPC   C4A15186  17.857  28.403   7.679
  855POPC   C1B15187  17.163  28.290   8.764
  855POPC   C2B15188  17.324  28.473   8.372
  855POPC   C3B15189  17.296  28.331   7.919
  855POPC   C4B15190  17.171  28.534   7.548
  856POPC   NC315191   1.401  18.119   9.464
  856POPC   PO415192   0.921  18.574   9.434
  856POPC   GL115193   0.976  18.295   9.099
  856POPC   GL215194   0.872  17.926   9.143
  856POPC   C1A15195   1.238  18.430   8.745
  856POPC   D2A15196   1.152  18.598   8.344
  856POPC   C3A15197   1.250  18.395   7.981
  856POPC   C4A15198   1.340  18.317   7.581
  856POPC   C1B15199   1.196  17.922   8.816
  856POPC   C2B15200   1.112  18.048   8.401
  856POPC   C3B15201   1.161  17.900   7.988
  856POPC   C4B15202   1.470  17.832   7.748
  857POPC   NC315203   4.158  24.974   9.421
  857POPC   PO415204   4.501  24.321   9.468
  857POPC   GL115205   4.281  24.551   9.168
  857POPC   GL215206   4.533  24.797   9.109
  857POPC   C1A15207   4.079  24.629   8.773
  857POPC   D2A15208   4.049  24.393   8.382
  857POPC   C3A15209   4.320  24.428   8.009
  857POPC   C4A15210   4.197  24.487   7.567
  857POPC   C1B15211   4.580  24.624   8.720
  857POPC   C2B15212   4.575  24.256   8.457
  857POPC   C3B15213   4.818  24.271   8.085
  857POPC   C4B15214   4.704  24.395   7.656
  858POPC   NC315215  27.518  17.942   9.546
  858POPC   PO415216  27.549  18.588   9.654
  858POPC   GL115217  27.545  18.288   9.176
  858POPC   GL215218  27.854  18.033   9.165
  858POPC   C1A15219  27.386  18.399   8.717
  858POPC   D2A15220  27.161  18.407   8.305
  858POPC   C3A15221  27.441  18.438   7.915
  858POPC   C4A15222  27.579  18.669   7.527
  858POPC   C1B15223  27.891  18.281   8.788
  858POPC   C2B15224  27.722  18.277   8.368
  858POPC   C3B15225  27.813  18.094   8.033
  858POPC   C4B15226  27.853  18.242   7.670
  859POPC   NC315227  40.143  29.351   9.531
  859POPC   PO415228  39.629  29.000   9.513
  859POPC   GL115229  39.777  29.327   9.180
  859POPC   GL215230  40.156  29.458   9.057
  859POPC   C1A15231  39.763  29.347   8.775
  859POPC   D2A15232  39.947  29.095   8.491
  859POPC   C3A15233  39.839  29.201   8.100
  859POPC   C4A15234  39.847  29.036   7.715
  859POPC   C1B15235  40.367  29.296   8.690
  859POPC   C2B15236  40.451  29.089   8.313
  859POPC   C3B15237  40.324  29.122   7.881
  859POPC   C4B15238  40.144  29.484   7.705
  860POPC   NC315239  17.144  36.979   9.720
  860POPC   PO415240  17.343  36.459   9.565
  860POPC   GL115241  17.120  36.752   9.223
  860POPC   GL215242  17.236  37.094   9.220
  860POPC   C1A15243  16.891  36.822   8.780
  860POPC   D2A15244  16.645  36.854   8.360
  860POPC   C3A15245  16.852  36.773   7.965
  860POPC   C4A15246  17.295  36.754   7.879
  860POPC   C1B15247  17.033  37.307   8.866
  860POPC   C2B15248  16.830  37.326   8.457
  860POPC   C3B15249  16.912  37.277   8.014
  860POPC   C4B15250  16.786  37.209   7.587
  861POPC   NC315251  17.272   2.962   9.915
  861POPC   PO415252  17.799   2.574   9.578
  861POPC   GL115253  17.662   2.769   9.181
  861POPC   GL215254  17.375   2.925   9.304
  861POPC   C1A15255  17.763   3.076   8.831
  861POPC   D2A15256  17.567   3.274   8.440
  861POPC   C3A15257  17.813   3.118   8.062
  861POPC   C4A15258  17.799   2.922   7.665
  861POPC   C1B15259  17.290   2.808   8.855
  861POPC   C2B15260  17.512   2.765   8.462
  861POPC   C3B15261  17.453   2.597   8.042
  861POPC   C4B15262  17.300   2.648   7.624
  862POPC   NC315263  39.614  31.959   9.469
  862POPC   PO415264  40.122  32.319   9.836
  862POPC   GL115265  40.091  32.186   9.326
  862POPC   GL215266  39.787  32.200   9.067
  862POPC   C1A15267  40.234  32.165   8.850
  862POPC   D2A15268  39.912  32.434   8.608
  862POPC   C3A15269  39.872  32.520   8.155
  862POPC   C4A15270  40.088  32.315   7.833
  862POPC   C1B15271  39.824  31.912   8.716
  862POPC   C2B15272  39.951  32.020   8.294
  862POPC   C3B15273  39.639  32.085   7.967
  862POPC   C4B15274  39.638  32.300   7.578
  863POPC   NC315275  39.194  19.571   9.763
  863POPC   PO415276  39.296  20.082   9.340
  863POPC   GL115277  39.333  19.957   8.961
  863POPC   GL215278  39.420  19.615   9.037
  863POPC   C1A15279  39.055  19.927   8.632
  863POPC   D2A15280  38.936  19.697   8.318
  863POPC   C3A15281  39.057  19.822   7.882
  863POPC   C4A15282  39.252  19.470   7.694
  863POPC   C1B15283  39.375  19.500   8.602
  863POPC   C2B15284  39.415  19.605   8.171
  863POPC   C3B15285  39.609  19.816   7.809
  863POPC   C4B15286  39.896  20.148   7.736
  864POPC   NC315287  31.589  25.710   9.614
  864POPC   PO415288  31.091  25.246   9.690
  864POPC   GL115289  31.282  25.307   9.242
  864POPC   GL215290  31.656  25.250   9.158
  864POPC   C1A15291  31.308  25.199   8.778
  864POPC   D2A15292  31.514  25.136   8.351
  864POPC   C3A15293  31.271  25.160   7.982
  864POPC   C4A15294  31.223  25.535   7.737
  864POPC   C1B15295  31.854  25.055   8.750
  864POPC   C2B15296  31.920  24.819   8.349
  864POPC   C3B15297  31.845  24.962   7.926
  864POPC   C4B15298  31.654  25.263   7.661
  865POPC   NC315299  12.591  28.001   9.472
  865POPC   PO415300  13.210  28.233   9.604
  865POPC   GL115301  12.941  28.230   9.202
  865POPC   GL215302  12.851  28.559   9.061
  865POPC   C1A15303  12.764  28.147   8.767
  865POPC   D2A15304  13.028  28.071   8.388
  865POPC   C3A15305  12.855  28.083   7.978
  865POPC   C4A15306  12.798  28.257   7.565
  865POPC   C1B15307  12.658  28.648   8.703
  865POPC   C2B15308  12.679  28.439   8.326
  865POPC   C3B15309  12.657  28.567   7.930
  865POPC   C4B15310  12.429  28.674   7.568
  866POPC   NC315311   4.149  17.939   9.813
  866POPC   PO415312   4.085  18.654   9.612
  866POPC   GL115313   4.146  18.388   9.184
  866POPC   GL215314   4.512  18.265   9.135
  866POPC   C1A15315   4.256  18.527   8.723
  866POPC   D2A15316   4.476  18.661   8.319
  866POPC   C3A15317   4.375  18.415   7.917
  866POPC   C4A15318   4.123  18.366   7.516
  866POPC   C1B15319   4.327  18.001   8.826
  866POPC   C2B15320   4.298  18.106   8.383
  866POPC   C3B15321   4.416  17.893   7.994
  866POPC   C4B15322   4.467  17.995   7.538
  867POPC   NC315323  39.554  27.137   9.389
  867POPC   PO415324  39.059  26.729   9.575
  867POPC   GL115325  39.178  26.890   9.163
  867POPC   GL215326  39.475  26.664   9.146
  867POPC   C1A15327  39.294  26.969   8.714
  867POPC   D2A15328  39.468  26.886   8.293
  867POPC   C3A15329  39.320  27.133   7.971
  867POPC   C4A15330  39.448  27.164   7.538
  867POPC   C1B15331  39.170  26.489   8.847
  867POPC   C2B15332  39.026  26.604   8.440
  867POPC   C3B15333  39.111  26.558   8.005
  867POPC   C4B15334  39.092  26.759   7.617
  868POPC   NC315335   8.197  34.152   9.616
  868POPC   PO415336   7.886  34.708   9.410
  868POPC   GL115337   8.092  34.782   9.055
  868POPC   GL215338   8.378  34.640   9.036
  868POPC   C1A15339   8.073  34.653   8.641
  868POPC   D2A15340   7.964  34.488   8.261
  868POPC   C3A15341   7.974  34.807   7.951
  868POPC   C4A15342   8.033  34.750   7.533
  868POPC   C1B15343   8.598  34.661   8.635
  868POPC   C2B15344   8.434  34.710   8.240
  868POPC   C3B15345   8.374  34.497   7.860
  868POPC   C4B15346   8.688  34.186   7.685
  869POPC   NC315347   9.452  14.610   9.512
  869POPC   PO415348   9.884  14.126   9.338
  869POPC   GL115349   9.638  14.396   9.047
  869POPC   GL215350   9.931  14.602   8.900
  869POPC   C1A15351   9.585  14.449   8.581
  869POPC   D2A15352   9.975  14.602   8.381
  869POPC   C3A15353   9.960  14.448   8.009
  869POPC   C4A15354   9.579  14.513   7.831
  869POPC   C1B15355   9.962  14.145   8.691
  869POPC   C2B15356   9.741  14.042   8.310
  869POPC   C3B15357   9.886  13.951   7.916
  869POPC   C4B15358   9.931  14.187   7.567
  870POPC   NC315359   3.056  40.147   9.435
  870POPC   PO415360   2.914  39.576   9.182
  870POPC   GL115361   2.714  39.952   9.066
  870POPC   GL215362   2.425  39.757   8.950
  870POPC   C1A15363   2.891  40.269   8.773
  870POPC   D2A15364   3.025  40.268   8.368
  870POPC   C3A15365   2.775  40.018   8.080
  870POPC   C4A15366   2.724  40.089   7.667
  870POPC   C1B15367   2.622  39.839   8.570
  870POPC   C2B15368   3.019  39.733   8.413
  870POPC   C3B15369   3.110  39.621   7.971
  870POPC   C4B15370   2.980  39.674   7.538
  871POPC   NC315371  10.169  16.976   9.370
  871POPC   PO415372  10.666  16.503   9.660
  871POPC   GL115373  10.563  16.668   9.254
  871POPC   GL215374  10.273  16.509   9.156
  871POPC   C1A15375  10.507  16.869   8.827
  871POPC   D2A15376  10.223  16.978   8.506
  871POPC   C3A15377  10.347  16.810   8.118
  871POPC   C4A15378  10.466  16.934   7.743
  871POPC   C1B15379  10.583  16.359   8.863
  871POPC   C2B15380  10.580  16.508   8.463
  871POPC   C3B15381  10.739  16.450   8.081
  871POPC   C4B15382  10.731  16.504   7.664
  872POPC   NC315383  25.594  20.083   9.538
  872POPC   PO415384  25.142  19.599   9.339
  872POPC   GL115385  25.375  19.695   9.022
  872POPC   GL215386  25.416  20.023   9.071
  872POPC   C1A15387  25.291  19.681   8.603
  872POPC   D2A15388  25.423  19.827   8.244
  872POPC   C3A15389  25.112  19.987   7.982
  872POPC   C4A15390  25.045  19.650   7.728
  872POPC   C1B15391  25.639  20.039   8.721
  872POPC   C2B15392  25.765  20.186   8.335
  872POPC   C3B15393  25.627  20.177   7.942
  872POPC   C4B15394  25.466  20.017   7.602
  873POPC   NC315395   4.062  38.923   9.362
  873POPC   PO415396   4.402  39.608   9.518
  873POPC   GL115397   4.252  39.382   9.173
  873POPC   GL215398   4.491  39.107   9.153
  873POPC   C1A15399   4.091  39.199   8.790
  873POPC   D2A15400   4.255  39.138   8.419
  873POPC   C3A15401   4.012  39.080   8.088
  873POPC   C4A15402   4.166  39.087   7.673
  873POPC   C1B15403   4.580  38.891   8.751
  873POPC   C2B15404   4.497  38.707   8.338
  873POPC   C3B15405   4.529  38.965   7.986
  873POPC   C4B15406   4.736  39.012   7.571
  874POPC   NC315407   8.497  44.583   9.486
  874POPC   PO415408   7.876  44.766   9.149
  874POPC   GL115409   8.214  44.549   9.088
  874POPC   GL215410   8.404  44.875   9.100
  874POPC   C1A15411   8.372  44.320   8.781
  874POPC   D2A15412   8.098  44.472   8.462
  874POPC   C3A15413   8.206  44.528   8.057
  874POPC   C4A15414   7.926  44.696   7.733
  874POPC   C1B15415   8.341  44.870   8.691
  874POPC   C2B15416   8.482  44.987   8.332
  874POPC   C3B15417   8.303   0.009   7.947
  874POPC   C4B15418   8.421  44.899   7.575
  875POPC   NC315419  26.547  15.959   9.597
  875POPC   PO415420  25.934  15.785   9.400
  875POPC   GL115421  25.972  15.974   9.078
  875POPC   GL215422  26.287  16.108   9.123
  875POPC   C1A15423  25.960  15.854   8.673
  875POPC   D2A15424  25.655  15.894   8.379
  875POPC   C3A15425  25.799  15.954   7.984
  875POPC   C4A15426  25.683  15.804   7.608
  875POPC   C1B15427  26.114  16.333   8.758
  875POPC   C2B15428  25.990  16.290   8.356
  875POPC   C3B15429  26.175  16.302   7.933
  875POPC   C4B15430  26.077  16.185   7.543
  876POPC   NC315431  20.943  40.362   9.713
  876POPC   PO415432  20.635  39.771   9.694
  876POPC   GL115433  20.517  39.898   9.250
  876POPC   GL215434  20.689  40.220   9.148
  876POPC   C1A15435  20.659  39.760   8.826
  876POPC   D2A15436  20.513  39.619   8.404
  876POPC   C3A15437  20.670  39.857   8.020
  876POPC   C4A15438  20.440  40.055   7.694
  876POPC   C1B15439  20.924  40.222   8.791
  876POPC   C2B15440  20.642  40.131   8.459
  876POPC   C3B15441  20.530  40.348   8.090
  876POPC   C4B15442  20.870  40.339   7.769
  877POPC   NC315443  23.514  38.129   9.498
  877POPC   PO415444  23.385  38.684   9.321
  877POPC   GL115445  23.631  38.361   9.030
  877POPC   GL215446  23.807  38.007   9.082
  877POPC   C1A15447  23.626  38.331   8.573
  877POPC   D2A15448  23.848  38.460   8.221
  877POPC   C3A15449  23.616  38.445   7.819
  877POPC   C4A15450  23.620  38.672   7.399
  877POPC   C1B15451  23.834  37.882   8.651
  877POPC   C2B15452  23.752  37.957   8.219
  877POPC   C3B15453  24.007  38.126   7.864
  877POPC   C4B15454  23.853  38.190   7.419
  878POPC   NC315455  17.955  24.543   9.424
  878POPC   PO415456  17.358  24.524   9.825
  878POPC   GL115457  17.350  24.422   9.323
  878POPC   GL215458  17.613  24.223   9.176
  878POPC   C1A15459  17.492  24.560   8.851
  878POPC   D2A15460  17.594  24.804   8.498
  878POPC   C3A15461  17.557  24.670   8.094
  878POPC   C4A15462  17.259  24.713   7.779
  878POPC   C1B15463  17.810  24.185   8.759
  878POPC   C2B15464  17.627  24.156   8.352
  878POPC   C3B15465  17.379  24.205   7.978
  878POPC   C4B15466  17.614  24.279   7.595
  879POPC   NC315467  25.036  16.052   9.518
  879POPC   PO415468  25.521  16.688   9.427
  879POPC   GL115469  25.269  16.733   9.045
  879POPC   GL215470  24.916  16.638   9.185
  879POPC   C1A15471  25.089  17.047   8.762
  879POPC   D2A15472  25.047  17.065   8.308
  879POPC   C3A15473  25.366  16.861   8.109
  879POPC   C4A15474  25.425  16.791   7.678
  879POPC   C1B15475  24.978  16.375   8.826
  879POPC   C2B15476  24.982  16.508   8.399
  879POPC   C3B15477  24.936  16.616   7.992
  879POPC   C4B15478  25.081  16.349   7.660
  880POPC   NC315479   2.526  31.314   9.445
  880POPC   PO415480   3.147  31.663   9.402
  880POPC   GL115481   2.871  31.489   9.113
  880POPC   GL215482   2.902  31.156   9.057
  880POPC   C1A15483   2.669  31.524   8.738
  880POPC   D2A15484   2.406  31.625   8.401
  880POPC   C3A15485   2.655  31.733   8.015
  880POPC   C4A15486   2.804  31.464   7.642
  880POPC   C1B15487   3.047  31.104   8.664
  880POPC   C2B15488   2.879  31.358   8.327
  880POPC   C3B15489   2.602  31.235   8.052
  880POPC   C4B15490   2.959  31.015   7.882
  881POPC   NC315491  36.471  20.036   9.602
  881POPC   PO415492  36.837  19.476   9.493
  881POPC   GL115493  36.912  19.807   9.136
  881POPC   GL215494  36.689  20.121   9.107
  881POPC   C1A15495  37.087  19.949   8.708
  881POPC   D2A15496  37.230  19.765   8.293
  881POPC   C3A15497  37.053  19.849   7.870
  881POPC   C4A15498  37.067  19.601   7.493
  881POPC   C1B15499  36.622  20.168   8.642
  881POPC   C2B15500  36.739  19.978   8.249
  881POPC   C3B15501  36.502  19.767   7.889
  881POPC   C4B15502  36.172  19.677   7.545
  882POPC   NC315503   4.682  40.026   9.397
  882POPC   PO415504   4.168  40.401   9.605
  882POPC   GL115505   4.306  40.288   9.189
  882POPC   GL215506   4.224  39.940   9.152
  882POPC   C1A15507   4.341  40.204   8.727
  882POPC   D2A15508   4.661  40.276   8.420
  882POPC   C3A15509   4.610  40.007   8.085
  882POPC   C4A15510   4.277  39.964   7.796
  882POPC   C1B15511   4.199  39.709   8.768
  882POPC   C2B15512   4.377  39.644   8.367
  882POPC   C3B15513   4.325  39.480   7.965
  882POPC   C4B15514   4.470  39.466   7.518
  883POPC   NC315515  32.008  36.997   9.520
  883POPC   PO415516  32.504  36.599   9.477
  883POPC   GL115517  32.346  36.910   9.146
  883POPC   GL215518  31.995  36.785   9.055
  883POPC   C1A15519  32.249  37.079   8.730
  883POPC   D2A15520  32.102  37.036   8.310
  883POPC   C3A15521  32.369  36.913   7.962
  883POPC   C4A15522  32.244  37.174   7.634
  883POPC   C1B15523  31.832  36.571   8.656
  883POPC   C2B15524  31.934  36.558   8.216
  883POPC   C3B15525  31.882  36.826   7.873
  883POPC   C4B15526  31.820  36.724   7.479
  884POPC   NC315527  37.708  13.485   9.425
  884POPC   PO415528  37.872  14.136   9.362
  884POPC   GL115529  37.816  14.003   8.981
  884POPC   GL215530  37.922  13.651   8.916
  884POPC   C1A15531  37.614  13.941   8.590
  884POPC   D2A15532  37.822  13.784   8.237
  884POPC   C3A15533  37.711  13.606   7.843
  884POPC   C4A15534  37.364  13.644   7.569
  884POPC   C1B15535  37.544  13.418   8.768
  884POPC   C2B15536  37.204  13.353   8.494
  884POPC   C3B15537  37.304  13.369   8.064
  884POPC   C4B15538  37.259  13.155   7.671
  885POPC   NC315539  28.607  35.126   9.803
  885POPC   PO415540  28.444  34.635   9.453
  885POPC   GL115541  28.503  34.423   9.093
  885POPC   GL215542  28.173  34.575   9.024
  885POPC   C1A15543  28.514  34.510   8.662
  885POPC   D2A15544  28.599  34.625   8.258
  885POPC   C3A15545  28.417  34.371   7.909
  885POPC   C4A15546  28.387  34.293   7.453
  885POPC   C1B15547  27.874  34.821   8.785
  885POPC   C2B15548  27.843  34.890   8.348
  885POPC   C3B15549  28.135  34.807   8.011
  885POPC   C4B15550  28.301  34.799   7.586
  886POPC   NC315551  24.476  36.093   9.440
  886POPC   PO415552  23.882  36.004   9.698
  886POPC   GL115553  24.079  35.874   9.218
  886POPC   GL215554  24.310  36.208   8.986
  886POPC   C1A15555  24.271  35.758   8.813
  886POPC   D2A15556  24.338  36.106   8.488
  886POPC   C3A15557  24.434  36.071   8.083
  886POPC   C4A15558  24.638  35.976   7.710
  886POPC   C1B15559  24.586  36.502   8.723
  886POPC   C2B15560  24.642  36.530   8.265
  886POPC   C3B15561  24.581  36.469   7.827
  886POPC   C4B15562  24.513  36.308   7.361
  887POPC   NC315563   9.555  32.397   9.890
  887POPC   PO415564  10.173  32.053   9.628
  887POPC   GL115565   9.992  32.273   9.262
  887POPC   GL215566   9.616  32.351   9.269
  887POPC   C1A15567   9.869  32.157   8.863
  887POPC   D2A15568   9.687  32.224   8.477
  887POPC   C3A15569  10.005  32.257   8.181
  887POPC   C4A15570   9.868  32.333   7.791
  887POPC   C1B15571   9.462  32.502   8.868
  887POPC   C2B15572   9.276  32.542   8.422
  887POPC   C3B15573   9.410  32.394   7.997
  887POPC   C4B15574   9.455  32.366   7.504
  888POPC   NC315575  16.094   3.815   9.361
  888POPC   PO415576  15.911   4.505   9.255
  888POPC   GL115577  15.972   4.159   9.017
  888POPC   GL215578  15.638   4.051   9.119
  888POPC   C1A15579  16.189   4.131   8.639
  888POPC   D2A15580  16.254   4.217   8.190
  888POPC   C3A15581  16.218   4.632   8.009
  888POPC   C4A15582  16.272   4.513   7.591
  888POPC   C1B15583  15.586   4.319   8.724
  888POPC   C2B15584  15.744   4.238   8.314
  888POPC   C3B15585  15.821   4.326   7.883
  888POPC   C4B15586  15.477   4.488   7.650
  889POPC   NC315587   0.667  26.114   9.475
  889POPC   PO415588  44.990  26.199   9.315
  889POPC   GL115589   0.333  26.221   9.094
  889POPC   GL215590   0.444  25.881   9.087
  889POPC   C1A15591   0.389  26.122   8.657
  889POPC   D2A15592   0.627  26.052   8.294
  889POPC   C3A15593   0.452  26.301   7.979
  889POPC   C4A15594   0.072  26.369   7.793
  889POPC   C1B15595   0.697  25.693   8.720
  889POPC   C2B15596   0.987  25.687   8.388
  889POPC   C3B15597   1.005  25.777   7.987
  889POPC   C4B15598   0.667  25.891   7.766
  890POPC   NC315599  21.010  18.144   9.481
  890POPC   PO415600  21.449  18.582   9.427
  890POPC   GL115601  21.334  18.583   9.033
  890POPC   GL215602  21.009  18.419   9.057
  890POPC   C1A15603  21.593  18.321   8.819
  890POPC   D2A15604  21.607  18.148   8.458
  890POPC   C3A15605  21.438  18.390   8.138
  890POPC   C4A15606  21.533  18.292   7.756
  890POPC   C1B15607  21.115  18.223   8.670
  890POPC   C2B15608  21.179  17.958   8.281
  890POPC   C3B15609  21.072  18.090   7.892
  890POPC   C4B15610  21.086  18.541   7.718
  891POPC   NC315611   3.321  25.821   9.468
  891POPC   PO415612   3.865  26.294   9.479
  891POPC   GL115613   3.772  25.922   9.198
  891POPC   GL215614   3.493  26.073   9.052
  891POPC   C1A15615   3.695  25.640   8.813
  891POPC   D2A15616   3.440  25.852   8.498
  891POPC   C3A15617   3.478  25.743   8.076
  891POPC   C4A15618   3.461  25.966   7.704
  891POPC   C1B15619   3.385  26.466   8.851
  891POPC   C2B15620   3.262  26.514   8.425
  891POPC   C3B15621   3.534  26.293   8.120
  891POPC   C4B15622   3.675  26.424   7.690
  892POPC   NC315623  39.659  39.550   9.360
  892POPC   PO415624  40.082  40.066   9.586
  892POPC   GL115625  40.064  39.858   9.216
  892POPC   GL215626  39.730  40.025   9.159
  892POPC   C1A15627  40.114  40.011   8.805
  892POPC   D2A15628  40.134  40.216   8.405
  892POPC   C3A15629  40.363  39.980   8.116
  892POPC   C4A15630  40.270  39.958   7.692
  892POPC   C1B15631  39.640  40.188   8.728
  892POPC   C2B15632  39.655  40.084   8.279
  892POPC   C3B15633  39.755  39.949   7.866
  892POPC   C4B15634  39.601  39.585   7.638
  893POPC   NC315635   9.551  11.414   9.492
  893POPC   PO415636  10.238  11.430   9.576
  893POPC   GL115637   9.964  11.492   9.172
  893POPC   GL215638   9.666  11.263   9.041
  893POPC   C1A15639   9.881  11.546   8.697
  893POPC   D2A15640   9.548  11.492   8.398
  893POPC   C3A15641   9.747  11.427   8.028
  893POPC   C4A15642   9.906  11.728   7.771
  893POPC   C1B15643   9.682  11.052   8.657
  893POPC   C2B15644   9.483  11.001   8.268
  893POPC   C3B15645   9.555  11.001   7.822
  893POPC   C4B15646   9.598  10.851   7.391
  894POPC   NC315647  22.324  41.087   9.374
  894POPC   PO415648  22.312  40.425   9.561
  894POPC   GL115649  22.081  40.634   9.243
  894POPC   GL215650  22.384  40.672   9.076
  894POPC   C1A15651  21.984  40.665   8.784
  894POPC   D2A15652  22.128  40.816   8.356
  894POPC   C3A15653  21.986  40.578   8.040
  894POPC   C4A15654  21.857  40.531   7.651
  894POPC   C1B15655  22.418  40.969   8.738
  894POPC   C2B15656  22.638  40.970   8.335
  894POPC   C3B15657  22.574  41.045   7.908
  894POPC   C4B15658  22.317  40.783   7.718
  895POPC   NC315659   6.483  24.837   9.580
  895POPC   PO415660   6.890  25.343   9.422
  895POPC   GL115661   6.784  25.014   9.171
  895POPC   GL215662   6.439  25.106   9.158
  895POPC   C1A15663   6.865  24.999   8.731
  895POPC   D2A15664   6.912  24.774   8.349
  895POPC   C3A15665   6.799  24.926   7.932
  895POPC   C4A15666   6.414  25.007   7.699
  895POPC   C1B15667   6.333  25.034   8.748
  895POPC   C2B15668   6.520  25.127   8.324
  895POPC   C3B15669   6.422  25.433   7.996
  895POPC   C4B15670   6.138  25.440   7.649
  896POPC   NC315671   5.298  27.049   9.552
  896POPC   PO415672   4.664  26.720   9.528
  896POPC   GL115673   4.967  26.844   9.174
  896POPC   GL215674   5.157  27.169   9.091
  896POPC   C1A15675   4.940  26.883   8.730
  896POPC   D2A15676   4.716  26.972   8.367
  896POPC   C3A15677   5.047  26.981   8.097
  896POPC   C4A15678   5.072  26.794   7.738
  896POPC   C1B15679   5.311  27.428   8.746
  896POPC   C2B15680   5.402  27.356   8.328
  896POPC   C3B15681   5.277  27.424   7.920
  896POPC   C4B15682   5.182  27.240   7.536
  897POPC   NC315683   7.000  14.662   9.533
  897POPC   PO415684   6.528  14.195   9.804
  897POPC   GL115685   6.526  14.498   9.371
  897POPC   GL215686   6.183  14.668   9.326
  897POPC   C1A15687   6.601  14.616   8.891
  897POPC   D2A15688   6.727  14.371   8.512
  897POPC   C3A15689   6.583  14.447   8.084
  897POPC   C4A15690   6.607  14.327   7.644
  897POPC   C1B15691   6.100  14.724   8.887
  897POPC   C2B15692   6.307  14.683   8.468
  897POPC   C3B15693   6.237  14.830   8.066
  897POPC   C4B15694   6.446  14.823   7.673
  898POPC   NC315695   1.534  28.141   9.476
  898POPC   PO415696   1.094  28.615   9.393
  898POPC   GL115697   1.335  28.372   9.070
  898POPC   GL215698   1.106  28.125   9.040
  898POPC   C1A15699   1.323  28.213   8.602
  898POPC   D2A15700   1.469  28.537   8.317
  898POPC   C3A15701   1.393  28.474   7.904
  898POPC   C4A15702   1.488  28.068   7.707
  898POPC   C1B15703   1.024  28.574   8.738
  898POPC   C2B15704   0.946  28.522   8.292
  898POPC   C3B15705   1.009  28.164   8.008
  898POPC   C4B15706   1.049  28.276   7.559
  899POPC   NC315707  10.304  32.517   9.586
  899POPC   PO415708  10.851  32.020   9.511
  899POPC   GL115709  10.571  32.246   9.253
  899POPC   GL215710  10.687  32.579   9.213
  899POPC   C1A15711  10.416  32.342   8.850
  899POPC   D2A15712  10.538  32.167   8.465
  899POPC   C3A15713  10.512  32.394   8.103
  899POPC   C4A15714  10.355  32.320   7.715
  899POPC   C1B15715  10.928  32.638   8.868
  899POPC   C2B15716  10.903  32.665   8.449
  899POPC   C3B15717  10.819  32.818   8.066
  899POPC   C4B15718  10.746  32.660   7.695
  900POPC   NC315719  35.171  40.302   9.458
  900POPC   PO415720  35.409  39.594   9.414
  900POPC   GL115721  35.235  39.889   9.139
  900POPC   GL215722  35.484  40.116   9.083
  900POPC   C1A15723  35.103  40.081   8.741
  900POPC   D2A15724  35.136  40.064   8.308
  900POPC   C3A15725  35.199  40.310   7.961
  900POPC   C4A15726  35.273  40.047   7.601
  900POPC   C1B15727  35.616  39.950   8.721
  900POPC   C2B15728  35.658  40.168   8.347
  900POPC   C3B15729  35.568  39.949   8.010
  900POPC   C4B15730  35.715  39.714   7.718
  901POPC   NC315731  43.088  44.132   9.459
  901POPC   PO415732  43.377  43.572   9.834
  901POPC   GL115733  43.332  43.670   9.343
  901POPC   GL215734  42.963  43.655   9.279
  901POPC   C1A15735  43.422  43.797   8.863
  901POPC   D2A15736  43.569  43.776   8.383
  901POPC   C3A15737  43.425  44.126   8.088
  901POPC   C4A15738  43.251  44.075   7.643
  901POPC   C1B15739  42.866  43.636   8.841
  901POPC   C2B15740  43.048  43.828   8.458
  901POPC   C3B15741  42.942  43.945   8.042
  901POPC   C4B15742  42.719  44.137   7.740
  902POPC   NC315743  16.669  42.751   9.546
  902POPC   PO415744  16.780  42.070   9.545
  902POPC   GL115745  16.605  42.345   9.248
  902POPC   GL215746  16.960  42.437   9.181
  902POPC   C1A15747  16.544  42.385   8.815
  902POPC   D2A15748  16.653  42.124   8.480
  902POPC   C3A15749  16.632  42.237   8.038
  902POPC   C4A15750  16.539  42.299   7.584
  902POPC   C1B15751  17.007  42.130   8.852
  902POPC   C2B15752  17.204  42.017   8.454
  902POPC   C3B15753  17.175  41.974   7.996
  902POPC   C4B15754  17.040  42.275   7.688
  903POPC   NC315755  36.372  18.252   9.459
  903POPC   PO415756  35.689  18.297   9.513
  903POPC   GL115757  35.816  17.997   9.168
  903POPC   GL215758  36.154  17.957   9.112
  903POPC   C1A15759  35.846  18.077   8.716
  903POPC   D2A15760  36.137  18.297   8.381
  903POPC   C3A15761  36.133  18.314   7.916
  903POPC   C4A15762  36.125  18.645   7.546
  903POPC   C1B15763  36.371  18.043   8.782
  903POPC   C2B15764  36.462  17.921   8.423
  903POPC   C3B15765  36.597  18.116   8.130
  903POPC   C4B15766  36.494  17.941   7.792
  904POPC   NC315767   0.878  36.687   9.439
  904POPC   PO415768   1.379  37.103   9.634
  904POPC   GL115769   1.329  36.897   9.250
  904POPC   GL215770   1.057  37.093   9.198
  904POPC   C1A15771   1.258  36.785   8.816
  904POPC   D2A15772   1.118  36.903   8.404
  904POPC   C3A15773   1.336  36.719   8.084
  904POPC   C4A15774   1.149  36.803   7.723
  904POPC   C1B15775   1.010  37.228   8.799
  904POPC   C2B15776   0.912  37.382   8.416
  904POPC   C3B15777   0.783  37.298   8.072
  904POPC   C4B15778   0.845  37.203   7.702
  905POPC   NC315779  18.558  10.473   9.543
  905POPC   PO415780  18.041  10.747   9.392
  905POPC   GL115781  18.246  10.369   9.139
  905POPC   GL215782  18.483  10.075   9.231
  905POPC   C1A15783  18.113  10.235   8.707
  905POPC   D2A15784  18.323  10.427   8.365
  905POPC   C3A15785  18.096  10.529   8.011
  905POPC   C4A15786  18.398  10.681   7.726
  905POPC   C1B15787  18.594  10.127   8.785
  905POPC   C2B15788  18.498   9.960   8.376
  905POPC   C3B15789  18.500  10.131   7.950
  905POPC   C4B15790  18.188  10.224   7.610
  906POPC   NC315791   7.515  20.161   9.411
  906POPC   PO415792   7.824  19.593   9.247
  906POPC   GL115793   7.438  19.797   9.075
  906POPC   GL215794   7.592  20.057   8.885
  906POPC   C1A15795   7.125  19.893   8.782
  906POPC   D2A15796   7.254  20.014   8.387
  906POPC   C3A15797   7.053  19.869   8.033
  906POPC   C4A15798   7.297  19.717   7.685
  906POPC   C1B15799   7.552  19.632   8.626
  906POPC   C2B15800   7.483  19.601   8.209
  906POPC   C3B15801   7.611  19.966   7.999
  906POPC   C4B15802   7.810  19.752   7.699
  907POPC   NC315803  14.061  22.088   9.405
  907POPC   PO415804  14.185  22.703   9.551
  907POPC   GL115805  14.413  22.450   9.221
  907POPC   GL215806  14.585  22.126   9.252
  907POPC   C1A15807  14.405  22.282   8.789
  907POPC   D2A15808  14.540  22.497   8.408
  907POPC   C3A15809  14.476  22.266   8.049
  907POPC   C4A15810  14.206  22.041   7.743
  907POPC   C1B15811  14.792  21.945   8.886
  907POPC   C2B15812  14.719  21.990   8.462
  907POPC   C3B15813  14.439  21.788   8.225
  907POPC   C4B15814  14.659  21.838   7.861
  908POPC   NC315815  10.936  30.104   9.372
  908POPC   PO415816  11.196  30.741   9.534
  908POPC   GL115817  11.093  30.622   9.176
  908POPC   GL215818  11.306  30.352   9.135
  908POPC   C1A15819  11.006  30.865   8.805
  908POPC   D2A15820  11.321  30.959   8.480
  908POPC   C3A15821  11.185  30.742   8.100
  908POPC   C4A15822  11.292  30.857   7.702
  908POPC   C1B15823  11.375  30.514   8.758
  908POPC   C2B15824  11.557  30.491   8.369
  908POPC   C3B15825  11.673  30.627   7.961
  908POPC   C4B15826  11.696  30.610   7.528
  909POPC   NC315827  32.324  28.011   9.478
  909POPC   PO415828  31.766  28.469   9.627
  909POPC   GL115829  32.082  28.411   9.244
  909POPC   GL215830  32.013  28.068   9.056
  909POPC   C1A15831  32.270  28.467   8.802
  909POPC   D2A15832  32.073  28.276   8.414
  909POPC   C3A15833  32.234  28.419   7.996
  909POPC   C4A15834  32.377  28.374   7.578
  909POPC   C1B15835  32.365  27.978   8.709
  909POPC   C2B15836  32.476  28.005   8.234
  909POPC   C3B15837  32.382  27.935   7.788
  909POPC   C4B15838  32.510  27.862   7.356
  910POPC   NC315839  35.966  35.124   9.443
  910POPC   PO415840  36.444  35.646   9.318
  910POPC   GL115841  36.043  35.541   9.093
  910POPC   GL215842  36.001  35.198   8.949
  910POPC   C1A15843  36.140  35.602   8.659
  910POPC   D2A15844  36.517  35.638   8.389
  910POPC   C3A15845  36.396  35.527   7.993
  910POPC   C4A15846  36.030  35.308   7.940
  910POPC   C1B15847  36.445  35.208   8.779
  910POPC   C2B15848  36.678  35.106   8.409
  910POPC   C3B15849  36.413  34.997   8.061
  910POPC   C4B15850  36.068  34.837   7.749
  911POPC   NC315851   5.553  16.658   9.542
  911POPC   PO415852   6.233  16.761   9.602
  911POPC   GL115853   6.075  16.664   9.184
  911POPC   GL215854   5.967  16.313   9.109
  911POPC   C1A15855   5.847  16.762   8.785
  911POPC   D2A15856   5.775  17.086   8.456
  911POPC   C3A15857   6.005  17.054   8.072
  911POPC   C4A15858   5.880  17.070   7.639
  911POPC   C1B15859   6.222  16.416   8.748
  911POPC   C2B15860   6.106  16.627   8.356
  911POPC   C3B15861   5.836  16.592   7.986
  911POPC   C4B15862   6.045  16.581   7.589
  912POPC   NC315863  42.817  37.653   9.611
  912POPC   PO415864  43.473  37.994   9.557
  912POPC   GL115865  43.358  37.716   9.151
  912POPC   GL215866  43.028  37.575   9.167
  912POPC   C1A15867  43.200  37.847   8.739
  912POPC   D2A15868  42.844  37.731   8.464
  912POPC   C3A15869  43.010  37.658   8.058
  912POPC   C4A15870  42.849  37.861   7.714
  912POPC   C1B15871  43.053  37.367   8.794
  912POPC   C2B15872  43.184  37.300   8.414
  912POPC   C3B15873  43.304  37.216   8.020
  912POPC   C4B15874  43.139  37.312   7.619
  913POPC   NC315875  25.422  22.575   9.457
  913POPC   PO415876  25.504  23.159   9.337
  913POPC   GL115877  25.813  22.914   9.066
  913POPC   GL215878  25.770  22.544   9.067
  913POPC   C1A15879  25.954  22.870   8.620
  913POPC   D2A15880  25.748  22.886   8.205
  913POPC   C3A15881  26.014  23.048   7.870
  913POPC   C4A15882  26.346  22.845   7.613
  913POPC   C1B15883  25.585  22.528   8.646
  913POPC   C2B15884  25.875  22.413   8.294
  913POPC   C3B15885  26.055  22.495   7.889
  913POPC   C4B15886  25.772  22.685   7.627
  914POPC   NC315887  42.308  23.434   9.864
  914POPC   PO415888  42.445  22.828   9.525
  914POPC   GL115889  42.313  23.015   9.120
  914POPC   GL215890  42.380  22.707   9.008
  914POPC   C1A15891  42.273  23.316   8.768
  914POPC   D2A15892  42.435  23.238   8.339
  914POPC   C3A15893  42.287  23.396   7.920
  914POPC   C4A15894  42.226  23.039   7.578
  914POPC   C1B15895  42.246  22.813   8.586
  914POPC   C2B15896  42.384  22.614   8.213
  914POPC   C3B15897  42.349  22.601   7.779
  914POPC   C4B15898  42.559  22.363   7.484
  915POPC   NC315899  44.320   2.007   9.562
  915POPC   PO415900  43.679   2.208   9.489
  915POPC   GL115901  43.936   1.997   9.173
  915POPC   GL215902  44.227   2.223   9.084
  915POPC   C1A15903  43.927   2.045   8.718
  915POPC   D2A15904  44.014   2.173   8.307
  915POPC   C3A15905  43.802   1.981   7.986
  915POPC   C4A15906  43.758   2.049   7.517
  915POPC   C1B15907  44.383   1.851   8.821
  915POPC   C2B15908  44.517   1.751   8.393
  915POPC   C3B15909  44.311   1.861   8.016
  915POPC   C4B15910  44.062   1.670   7.679
  916POPC   NC315911  43.579  29.912   9.399
  916POPC   PO415912  42.833  29.755   9.466
  916POPC   GL115913  42.850  29.923   9.110
  916POPC   GL215914  43.149  30.074   9.186
  916POPC   C1A15915  42.950  29.776   8.729
  916POPC   D2A15916  43.298  29.765   8.468
  916POPC   C3A15917  43.140  29.770   8.086
  916POPC   C4A15918  42.968  29.940   7.741
  916POPC   C1B15919  43.327  30.155   8.822
  916POPC   C2B15920  43.440  30.287   8.449
  916POPC   C3B15921  43.608  30.039   8.147
  916POPC   C4B15922  43.497  29.885   7.763
  917POPC   NC315923   3.073  33.634   9.579
  917POPC   PO415924   2.640  34.178   9.483
  917POPC   GL115925   2.859  33.938   9.156
  917POPC   GL215926   2.894  33.568   9.120
  917POPC   C1A15927   2.887  33.891   8.738
  917POPC   D2A15928   2.731  33.582   8.472
  917POPC   C3A15929   2.702  33.799   8.115
  917POPC   C4A15930   2.752  33.817   7.688
  917POPC   C1B15931   3.154  33.466   8.748
  917POPC   C2B15932   3.158  33.288   8.357
  917POPC   C3B15933   2.989  33.394   7.993
  917POPC   C4B15934   3.227  33.697   7.746
  918POPC   NC315935  10.535  31.738   9.691
  918POPC   PO415936  10.547  31.070   9.584
  918POPC   GL115937  10.551  31.362   9.220
  918POPC   GL215938  10.469  31.738   9.195
  918POPC   C1A15939  10.647  31.279   8.796
  918POPC   D2A15940  10.444  31.179   8.410
  918POPC   C3A15941  10.707  30.971   8.099
  918POPC   C4A15942  10.874  31.170   7.748
  918POPC   C1B15943  10.274  31.826   8.798
  918POPC   C2B15944  10.351  31.693   8.375
  918POPC   C3B15945  10.287  31.861   7.951
  918POPC   C4B15946   9.986  31.892   7.599
  919POPC   NC315947   6.111  26.950   9.402
  919POPC   PO415948   5.484  26.598   9.495
  919POPC   GL115949   5.648  26.626   9.125
  919POPC   GL215950   5.654  26.984   9.146
  919POPC   C1A15951   5.823  26.591   8.714
  919POPC   D2A15952   6.107  26.767   8.442
  919POPC   C3A15953   5.969  26.723   8.033
  919POPC   C4A15954   6.093  26.898   7.681
  919POPC   C1B15955   5.447  26.928   8.750
  919POPC   C2B15956   5.509  26.828   8.336
  919POPC   C3B15957   5.563  27.011   7.945
  919POPC   C4B15958   5.549  26.884   7.540
  920POPC   NC315959   2.206   7.112   9.610
  920POPC   PO415960   2.178   7.679   9.568
  920POPC   GL115961   2.070   7.655   9.162
  920POPC   GL215962   2.026   7.280   9.145
  920POPC   C1A15963   1.862   7.613   8.761
  920POPC   D2A15964   1.784   7.413   8.350
  920POPC   C3A15965   1.816   7.616   7.963
  920POPC   C4A15966   1.917   7.531   7.540
  920POPC   C1B15967   2.039   7.121   8.710
  920POPC   C2B15968   2.123   7.014   8.267
  920POPC   C3B15969   1.916   7.114   7.851
  920POPC   C4B15970   1.522   7.159   7.562
  921POPC   NC315971  31.986  13.189   9.435
  921POPC   PO415972  32.668  13.028   9.471
  921POPC   GL115973  32.394  13.090   9.161
  921POPC   GL215974  32.344  12.804   8.985
  921POPC   C1A15975  32.382  13.252   8.759
  921POPC   D2A15976  32.075  13.189   8.426
  921POPC   C3A15977  32.275  12.919   8.118
  921POPC   C4A15978  32.353  12.691   7.749
  921POPC   C1B15979  32.124  12.662   8.632
  921POPC   C2B15980  32.019  12.328   8.311
  921POPC   C3B15981  31.884  12.421   7.880
  921POPC   C4B15982  31.952  12.534   7.444
  922POPC   NC315983  13.419  44.275   9.315
  922POPC   PO415984  13.962  43.918   9.440
  922POPC   GL115985  13.754  43.842   9.087
  922POPC   GL215986  13.936  43.523   9.078
  922POPC   C1A15987  13.511  43.620   8.768
  922POPC   D2A15988  13.599  43.809   8.371
  922POPC   C3A15989  13.481  43.675   7.972
  922POPC   C4A15990  13.443  44.005   7.643
  922POPC   C1B15991  14.012  43.718   8.667
  922POPC   C2B15992  14.061  44.053   8.349
  922POPC   C3B15993  13.846  44.057   7.985
  922POPC   C4B15994  14.070  44.004   7.631
  923POPC   NC315995  43.952  26.939   9.582
  923POPC   PO415996  43.773  26.257   9.757
  923POPC   GL115997  43.791  26.331   9.222
  923POPC   GL215998  44.022  26.626   9.184
  923POPC   C1A15999  43.781  26.427   8.766
  923POPC   D2A16000  43.607  26.663   8.379
  923POPC   C3A16001  43.879  26.715   8.002
  923POPC   C4A16002  44.250  26.710   7.682
  923POPC   C1B16003  44.094  26.840   8.790
  923POPC   C2B16004  43.925  27.100   8.451
  923POPC   C3B16005  44.027  27.255   8.050
  923POPC   C4B16006  43.916  27.085   7.670
  924POPC   NC316007  26.562  32.420   9.566
  924POPC   PO416008  27.163  32.583   9.330
  924POPC   GL116009  26.868  32.291   9.183
  924POPC   GL216010  26.680  32.539   9.012
  924POPC   C1A16011  26.727  32.070   8.826
  924POPC   D2A16012  26.899  31.981   8.421
  924POPC   C3A16013  26.795  32.227   8.041
  924POPC   C4A16014  26.678  32.050   7.617
  924POPC   C1B16015  27.083  32.413   8.709
  924POPC   C2B16016  27.339  32.562   8.342
  924POPC   C3B16017  27.328  32.438   7.912
  924POPC   C4B16018  27.051  32.408   7.591
  925POPC   NC316019  30.214  25.084   9.597
  925POPC   PO416020  29.652  25.480   9.628
  925POPC   GL116021  29.892  25.387   9.214
  925POPC   GL216022  30.122  25.094   9.113
  925POPC   C1A16023  29.711  25.467   8.797
  925POPC   D2A16024  29.799  25.643   8.367
  925POPC   C3A16025  29.942  25.416   7.981
  925POPC   C4A16026  29.705  25.096   7.745
  925POPC   C1B16027  30.440  24.980   8.802
  925POPC   C2B16028  30.348  24.996   8.398
  925POPC   C3B16029  30.367  25.111   8.000
  925POPC   C4B16030  30.178  25.062   7.635
  926POPC   NC316031   9.113  25.776   9.375
  926POPC   PO416032   8.571  26.163   9.461
  926POPC   GL116033   8.837  26.162   9.079
  926POPC   GL216034   9.161  26.033   8.965
  926POPC   C1A16035   8.729  26.014   8.685
  926POPC   D2A16036   8.542  26.084   8.311
  926POPC   C3A16037   8.747  25.949   7.957
  926POPC   C4A16038   8.880  26.157   7.591
  926POPC   C1B16039   9.207  25.876   8.610
  926POPC   C2B16040   9.089  26.133   8.304
  926POPC   C3B16041   9.345  26.280   8.001
  926POPC   C4B16042   9.382  26.145   7.595
  927POPC   NC316043  29.688   5.349   9.516
  927POPC   PO416044  30.106   4.802   9.533
  927POPC   GL116045  29.938   5.043   9.174
  927POPC   GL216046  29.813   4.759   8.983
  927POPC   C1A16047  29.924   5.206   8.729
  927POPC   D2A16048  29.822   5.045   8.313
  927POPC   C3A16049  29.783   5.324   7.963
  927POPC   C4A16050  30.047   5.361   7.632
  927POPC   C1B16051  29.474   4.936   8.699
  927POPC   C2B16052  29.315   4.964   8.278
  927POPC   C3B16053  29.566   4.710   7.966
  927POPC   C4B16054  29.880   4.880   7.732
  928POPC   NC316055  19.553   7.508   9.524
  928POPC   PO416056  20.102   7.207   9.559
  928POPC   GL116057  20.111   7.050   9.143
  928POPC   GL216058  19.782   7.211   9.093
  928POPC   C1A16059  20.229   7.136   8.729
  928POPC   D2A16060  19.927   7.210   8.414
  928POPC   C3A16061  20.018   7.188   7.984
  928POPC   C4A16062  19.762   7.344   7.616
  928POPC   C1B16063  19.948   7.538   8.826
  928POPC   C2B16064  19.710   7.670   8.479
  928POPC   C3B16065  19.771   7.645   8.042
  928POPC   C4B16066  19.609   7.831   7.686
  929POPC   NC316067  19.295  35.676   9.443
  929POPC   PO416068  19.965  35.476   9.517
  929POPC   GL116069  20.002  35.398   9.072
  929POPC   GL216070  19.623  35.440   9.110
  929POPC   C1A16071  20.136  35.206   8.647
  929POPC   D2A16072  20.030  35.032   8.220
  929POPC   C3A16073  20.195  35.300   7.869
  929POPC   C4A16074  20.158  35.573   7.501
  929POPC   C1B16075  19.630  35.289   8.709
  929POPC   C2B16076  19.799  35.494   8.366
  929POPC   C3B16077  19.689  35.370   7.981
  929POPC   C4B16078  19.330  35.395   7.746
  930POPC   NC316079  11.153  37.518   9.524
  930POPC   PO416080  11.217  38.185   9.561
  930POPC   GL116081  11.247  37.897   9.180
  930POPC   GL216082  10.879  37.917   9.225
  930POPC   C1A16083  11.378  37.717   8.730
  930POPC   D2A16084  11.451  37.468   8.316
  930POPC   C3A16085  11.369  37.688   7.899
  930POPC   C4A16086  11.575  37.816   7.481
  930POPC   C1B16087  10.905  37.632   8.882
  930POPC   C2B16088  10.994  37.372   8.538
  930POPC   C3B16089  10.971  37.392   8.099
  930POPC   C4B16090  10.825  37.741   7.888
  931POPC   NC316091   3.261  13.165   9.492
  931POPC   PO416092   3.938  13.041   9.404
  931POPC   GL116093   3.618  12.900   9.174
  931POPC   GL216094   3.627  12.553   9.302
  931POPC   C1A16095   3.406  13.057   8.798
  931POPC   D2A16096   3.574  12.991   8.393
  931POPC   C3A16097   3.430  13.099   8.033
  931POPC   C4A16098   3.344  12.886   7.637
  931POPC   C1B16099   3.722  12.504   8.852
  931POPC   C2B16100   3.721  12.488   8.416
  931POPC   C3B16101   3.485  12.566   8.059
  931POPC   C4B16102   3.686  12.497   7.670
  932POPC   NC316103  19.213  32.690   9.846
  932POPC   PO416104  19.082  33.259   9.382
  932POPC   GL116105  19.080  33.036   9.038
  932POPC   GL216106  19.434  32.935   9.183
  932POPC   C1A16107  19.005  33.023   8.591
  932POPC   D2A16108  19.151  33.199   8.203
  932POPC   C3A16109  19.003  33.083   7.816
  932POPC   C4A16110  19.021  32.688   7.753
  932POPC   C1B16111  19.500  33.096   8.785
  932POPC   C2B16112  19.531  32.884   8.427
  932POPC   C3B16113  19.432  32.714   8.054
  932POPC   C4B16114  19.455  32.926   7.654
  933POPC   NC316115  41.912  31.207   9.421
  933POPC   PO416116  41.391  31.592   9.372
  933POPC   GL116117  41.495  31.266   9.104
  933POPC   GL216118  41.764  31.475   9.010
  933POPC   C1A16119  41.360  31.310   8.681
  933POPC   D2A16120  41.119  31.479   8.336
  933POPC   C3A16121  41.354  31.341   7.981
  933POPC   C4A16122  41.430  31.510   7.580
  933POPC   C1B16123  41.872  31.192   8.690
  933POPC   C2B16124  41.807  31.253   8.248
  933POPC   C3B16125  41.860  31.349   7.811
  933POPC   C4B16126  41.843  31.321   7.346
  934POPC   NC316127  18.093  42.185   9.547
  934POPC   PO416128  18.763  42.052   9.497
  934POPC   GL116129  18.415  42.092   9.164
  934POPC   GL216130  18.200  42.425   9.127
  934POPC   C1A16131  18.239  42.072   8.750
  934POPC   D2A16132  18.455  42.119   8.386
  934POPC   C3A16133  18.296  42.143   7.994
  934POPC   C4A16134  18.392  42.490   7.746
  934POPC   C1B16135  17.955  42.508   8.763
  934POPC   C2B16136  17.984  42.381   8.312
  934POPC   C3B16137  17.900  42.484   7.852
  934POPC   C4B16138  17.782  42.552   7.394
  935POPC   NC316139   7.351  39.783   9.564
  935POPC   PO416140   7.177  40.453   9.579
  935POPC   GL116141   7.331  40.177   9.169
  935POPC   GL216142   7.200  39.851   9.088
  935POPC   C1A16143   7.361  40.076   8.682
  935POPC   D2A16144   7.577  40.259   8.325
  935POPC   C3A16145   7.471  40.104   7.927
  935POPC   C4A16146   7.733  40.155   7.552
  935POPC   C1B16147   6.994  39.725   8.691
  935POPC   C2B16148   7.211  39.718   8.291
  935POPC   C3B16149   7.047  39.725   7.892
  935POPC   C4B16150   7.014  40.152   7.675
  936POPC   NC316151   1.798  20.946   9.507
  936POPC   PO416152   2.511  20.838   9.415
  936POPC   GL116153   2.126  20.716   9.123
  936POPC   GL216154   1.718  20.667   9.090
  936POPC   C1A16155   1.959  20.946   8.749
  936POPC   D2A16156   1.885  21.119   8.333
  936POPC   C3A16157   1.802  20.757   8.100
  936POPC   C4A16158   2.133  20.565   7.868
  936POPC   C1B16159   1.863  20.420   8.749
  936POPC   C2B16160   2.036  20.351   8.346
  936POPC   C3B16161   1.796  20.215   7.987
  936POPC   C4B16162   1.890  19.997   7.621
  937POPC   NC316163  44.326  22.901   9.314
  937POPC   PO416164  43.636  22.722   9.299
  937POPC   GL116165  43.883  22.948   9.086
  937POPC   GL216166  44.052  22.606   9.020
  937POPC   C1A16167  43.962  22.994   8.681
  937POPC   D2A16168  43.747  22.884   8.305
  937POPC   C3A16169  43.845  23.114   7.939
  937POPC   C4A16170  43.498  23.123   7.676
  937POPC   C1B16171  43.813  22.484   8.680
  937POPC   C2B16172  44.105  22.541   8.373
  937POPC   C3B16173  44.114  22.668   7.954
  937POPC   C4B16174  44.063  22.607   7.511
  938POPC   NC316175  19.904  21.896   9.519
  938POPC   PO416176  19.407  22.306   9.285
  938POPC   GL116177  19.819  22.293   9.177
  938POPC   GL216178  19.953  22.007   9.038
  938POPC   C1A16179  19.913  22.460   8.775
  938POPC   D2A16180  19.841  22.348   8.345
  938POPC   C3A16181  19.561  22.532   8.033
  938POPC   C4A16182  19.561  22.482   7.588
  938POPC   C1B16183  19.748  21.953   8.683
  938POPC   C2B16184  19.956  21.844   8.322
  938POPC   C3B16185  20.018  21.926   7.891
  938POPC   C4B16186  20.044  21.655   7.522
  939POPC   NC316187   6.260  36.046   9.462
  939POPC   PO416188   5.524  36.047   9.592
  939POPC   GL116189   5.788  35.900   9.250
  939POPC   GL216190   5.857  36.248   9.163
  939POPC   C1A16191   5.818  35.784   8.799
  939POPC   D2A16192   5.630  35.781   8.343
  939POPC   C3A16193   5.920  35.990   8.049
  939POPC   C4A16194   5.921  36.111   7.602
  939POPC   C1B16195   5.632  36.389   8.784
  939POPC   C2B16196   5.626  36.288   8.337
  939POPC   C3B16197   5.671  36.456   7.891
  939POPC   C4B16198   5.629  36.470   7.387
  940POPC   NC316199   6.630   8.041   9.765
  940POPC   PO416200   6.841   7.748   9.154
  940POPC   GL116201   6.576   8.048   8.971
  940POPC   GL216202   6.386   8.172   9.215
  940POPC   C1A16203   6.666   8.321   8.646
  940POPC   D2A16204   6.907   8.441   8.300
  940POPC   C3A16205   6.765   8.368   7.884
  940POPC   C4A16206   6.646   8.115   7.553
  940POPC   C1B16207   6.186   8.328   8.839
  940POPC   C2B16208   6.255   8.504   8.407
  940POPC   C3B16209   6.263   8.284   8.040
  940POPC   C4B16210   6.300   8.439   7.659
  941POPC   NC316211  15.794   1.409   9.460
  941POPC   PO416212  16.027   0.799   9.626
  941POPC   GL116213  16.088   1.018   9.243
  941POPC   GL216214  16.389   0.812   9.128
  941POPC   C1A16215  15.794   1.169   8.872
  941POPC   D2A16216  15.714   1.464   8.523
  941POPC   C3A16217  15.712   1.259   8.155
  941POPC   C4A16218  16.029   1.231   7.846
  941POPC   C1B16219  16.091   0.759   8.806
  941POPC   C2B16220  15.860   0.862   8.443
  941POPC   C3B16221  15.971   0.747   8.030
  941POPC   C4B16222  16.381   0.841   7.834
  942POPC   NC316223  40.176  32.684   9.564
  942POPC   PO416224  39.902  33.353   9.523
  942POPC   GL116225  40.046  33.077   9.185
  942POPC   GL216226  40.002  32.697   9.094
  942POPC   C1A16227  40.133  33.160   8.767
  942POPC   D2A16228  40.074  32.921   8.417
  942POPC   C3A16229  39.948  33.128   8.067
  942POPC   C4A16230  40.030  32.844   7.752
  942POPC   C1B16231  39.720  32.863   8.805
  942POPC   C2B16232  39.503  32.773   8.416
  942POPC   C3B16233  39.512  32.869   7.957
  942POPC   C4B16234  39.647  33.189   7.645
  943POPC   NC316235  17.549   5.333   9.635
  943POPC   PO416236  17.148   4.852   9.500
  943POPC   GL116237  17.359   5.133   9.207
  943POPC   GL216238  17.569   4.864   9.141
  943POPC   C1A16239  17.542   5.220   8.772
  943POPC   D2A16240  17.292   5.112   8.369
  943POPC   C3A16241  17.414   5.313   7.969
  943POPC   C4A16242  17.800   5.537   7.885
  943POPC   C1B16243  17.320   4.762   8.815
  943POPC   C2B16244  17.508   4.646   8.423
  943POPC   C3B16245  17.548   4.822   8.031
  943POPC   C4B16246  17.252   4.895   7.698
  944POPC   NC316247  33.134  13.079   9.504
  944POPC   PO416248  32.999  12.493   9.400
  944POPC   GL116249  32.862  12.740   9.091
  944POPC   GL216250  32.880  13.104   9.029
  944POPC   C1A16251  32.783  12.716   8.702
  944POPC   D2A16252  32.721  12.986   8.382
  944POPC   C3A16253  32.802  12.762   7.997
  944POPC   C4A16254  32.882  12.858   7.548
  944POPC   C1B16255  33.181  13.020   8.744
  944POPC   C2B16256  33.237  13.159   8.325
  944POPC   C3B16257  33.217  13.061   7.895
  944POPC   C4B16258  33.347  13.118   7.456
  945POPC   NC316259  44.723  18.362   9.583
  945POPC   PO416260   0.198  17.954   9.737
  945POPC   GL116261   0.040  18.162   9.245
  945POPC   GL216262  44.744  18.292   9.090
  945POPC   C1A16263   0.009  18.059   8.750
  945POPC   D2A16264  44.719  18.031   8.355
  945POPC   C3A16265  44.776  18.182   7.929
  945POPC   C4A16266  44.709  17.998   7.493
  945POPC   C1B16267  44.554  18.419   8.672
  945POPC   C2B16268  44.364  18.419   8.239
  945POPC   C3B16269  44.401  18.586   7.828
  945POPC   C4B16270  44.548  18.841   7.452
  946POPC   NC316271  37.895  31.336   9.304
  946POPC   PO416272  37.595  31.798   9.701
  946POPC   GL116273  37.535  31.683   9.278
  946POPC   GL216274  37.411  31.358   9.084
  946POPC   C1A16275  37.615  31.761   8.842
  946POPC   D2A16276  37.438  31.598   8.481
  946POPC   C3A16277  37.639  31.637   8.120
  946POPC   C4A16278  37.676  31.447   7.743
  946POPC   C1B16279  37.746  31.277   8.711
  946POPC   C2B16280  37.854  31.215   8.279
  946POPC   C3B16281  37.874  30.998   7.884
  946POPC   C4B16282  37.898  31.128   7.419
  947POPC   NC316283  34.152   0.224   9.425
  947POPC   PO416284  33.447   0.139   9.315
  947POPC   GL116285  33.750   0.260   9.081
  947POPC   GL216286  33.801   0.596   9.170
  947POPC   C1A16287  33.771   0.371   8.667
  947POPC   D2A16288  33.774   0.656   8.365
  947POPC   C3A16289  33.750   0.397   8.051
  947POPC   C4A16290  34.067   0.246   7.783
  947POPC   C1B16291  33.567   0.812   8.820
  947POPC   C2B16292  33.289   0.685   8.486
  947POPC   C3B16293  33.386   0.811   8.065
  947POPC   C4B16294  33.657   0.802   7.730
  948POPC   NC316295   7.668  34.304   9.335
  948POPC   PO416296   7.169  34.728   9.396
  948POPC   GL116297   7.282  34.643   9.004
  948POPC   GL216298   7.583  34.802   8.996
  948POPC   C1A16299   7.126  34.411   8.645
  948POPC   D2A16300   7.108  34.463   8.207
  948POPC   C3A16301   7.492  34.558   8.037
  948POPC   C4A16302   7.558  34.679   7.644
  948POPC   C1B16303   7.558  34.756   8.539
  948POPC   C2B16304   7.614  35.069   8.214
  948POPC   C3B16305   7.636  35.179   7.768
  948POPC   C4B16306   7.709  35.067   7.318
  949POPC   NC316307  44.913   4.825   9.573
  949POPC   PO416308  44.208   4.899   9.663
  949POPC   GL116309  44.454   4.796   9.309
  949POPC   GL216310  44.640   5.072   9.201
  949POPC   C1A16311  44.478   4.737   8.832
  949POPC   D2A16312  44.754   4.812   8.468
  949POPC   C3A16313  44.801   4.853   7.988
  949POPC   C4A16314  44.484   5.035   7.694
  949POPC   C1B16315  44.848   5.193   8.805
  949POPC   C2B16316   0.040   5.206   8.364
  949POPC   C3B16317  44.970   5.345   7.958
  949POPC   C4B16318  44.970   5.197   7.584
  950POPC   NC316319  41.217  25.424   9.536
  950POPC   PO416320  40.607  25.489   9.608
  950POPC   GL116321  40.749  25.374   9.157
  950POPC   GL216322  41.081  25.296   9.090
  950POPC   C1A16323  40.855  25.436   8.675
  950POPC   D2A16324  40.986  25.384   8.239
  950POPC   C3A16325  40.677  25.423   7.927
  950POPC   C4A16326  40.490  25.832   7.738
  950POPC   C1B16327  41.182  25.036   8.783
  950POPC   C2B16328  41.054  24.908   8.386
  950POPC   C3B16329  41.275  24.961   8.037
  950POPC   C4B16330  41.091  25.181   7.743
  951POPC   NC316331   9.169  13.135   9.483
  951POPC   PO416332   8.820  12.546   9.434
  951POPC   GL116333   9.100  12.805   9.104
  951POPC   GL216334   9.070  13.201   9.004
  951POPC   C1A16335   9.284  12.874   8.681
  951POPC   D2A16336   9.071  12.923   8.275
  951POPC   C3A16337   9.209  12.607   7.992
  951POPC   C4A16338   9.234  12.450   7.572
  951POPC   C1B16339   8.688  13.241   8.800
  951POPC   C2B16340   8.569  13.038   8.414
  951POPC   C3B16341   8.635  13.083   7.970
  951POPC   C4B16342   9.062  13.033   7.757
  952POPC   NC316343  16.368  29.663   9.381
  952POPC   PO416344  16.245  30.311   9.322
  952POPC   GL116345  15.915  30.161   9.092
  952POPC   GL216346  15.916  29.783   9.121
  952POPC   C1A16347  15.918  30.067   8.648
  952POPC   D2A16348  16.191  29.847   8.311
  952POPC   C3A16349  16.263  30.100   7.891
  952POPC   C4A16350  16.198  30.209   7.402
  952POPC   C1B16351  15.941  29.559   8.736
  952POPC   C2B16352  15.747  29.249   8.515
  952POPC   C3B16353  15.661  29.357   8.087
  952POPC   C4B16354  15.989  29.632   7.871
  953POPC   NC316355  38.428   9.102   9.891
  953POPC   PO416356  38.677   8.692   9.615
  953POPC   GL116357  38.477   9.067   9.354
  953POPC   GL216358  38.681   9.346   9.205
  953POPC   C1A16359  38.364   9.073   8.912
  953POPC   D2A16360  38.444   9.186   8.468
  953POPC   C3A16361  38.333   8.880   8.105
  953POPC   C4A16362  38.441   8.649   7.693
  953POPC   C1B16363  38.857   9.174   8.791
  953POPC   C2B16364  38.905   9.055   8.315
  953POPC   C3B16365  38.705   9.142   7.901
  953POPC   C4B16366  38.565   9.082   7.461
  954POPC   NC316367   5.441   5.673   9.221
  954POPC   PO416368   5.904   6.159   9.547
  954POPC   GL116369   6.077   6.104   9.136
  954POPC   GL216370   5.752   6.006   9.014
  954POPC   C1A16371   6.088   6.226   8.720
  954POPC   D2A16372   5.818   6.042   8.443
  954POPC   C3A16373   5.940   6.108   8.040
  954POPC   C4A16374   5.850   5.844   7.696
  954POPC   C1B16375   5.941   5.657   8.762
  954POPC   C2B16376   5.818   5.490   8.355
  954POPC   C3B16377   5.643   5.453   7.933
  954POPC   C4B16378   5.623   5.452   7.443
  955POPC   NC316379  32.254  34.806   9.170
  955POPC   PO416380  32.282  34.311   9.601
  955POPC   GL116381  32.304  34.308   9.124
  955POPC   GL216382  32.470  34.077   9.018
  955POPC   C1A16383  32.410  34.480   8.662
  955POPC   D2A16384  32.243  34.807   8.393
  955POPC   C3A16385  32.109  34.658   8.017
  955POPC   C4A16386  32.433  34.622   7.741
  955POPC   C1B16387  32.091  34.082   8.670
  955POPC   C2B16388  32.052  34.174   8.207
  955POPC   C3B16389  32.153  34.161   7.745
  955POPC   C4B16390  31.887  34.122   7.355
  956POPC   NC316391  33.119  17.066   9.434
  956POPC   PO416392  33.381  17.625   9.599
  956POPC   GL116393  33.237  17.510   9.152
  956POPC   GL216394  32.883  17.395   9.118
  956POPC   C1A16395  33.121  17.665   8.716
  956POPC   D2A16396  32.867  17.483   8.368
  956POPC   C3A16397  32.983  17.540   7.928
  956POPC   C4A16398  32.742  17.637   7.543
  956POPC   C1B16399  33.030  17.164   8.763
  956POPC   C2B16400  33.139  17.032   8.382
  956POPC   C3B16401  33.221  17.069   7.975
  956POPC   C4B16402  33.580  16.886   7.825
  957POPC   NC316403  16.147  28.891   9.440
  957POPC   PO416404  15.786  29.438   9.489
  957POPC   GL116405  15.846  29.212   9.105
  957POPC   GL216406  16.195  29.273   9.094
  957POPC   C1A16407  15.885  28.821   8.831
  957POPC   D2A16408  16.119  28.707   8.446
  957POPC   C3A16409  15.906  28.917   8.120
  957POPC   C4A16410  15.819  28.891   7.662
  957POPC   C1B16411  16.261  29.136   8.685
  957POPC   C2B16412  16.208  29.318   8.271
  957POPC   C3B16413  16.236  29.185   7.834
  957POPC   C4B16414  16.141  29.341   7.410
  958POPC   NC316415   8.003  25.168   9.594
  958POPC   PO416416   8.504  25.618   9.575
  958POPC   GL116417   8.335  25.325   9.207
  958POPC   GL216418   7.967  25.260   9.097
  958POPC   C1A16419   8.307  25.306   8.746
  958POPC   D2A16420   8.380  25.543   8.435
  958POPC   C3A16421   8.485  25.341   8.081
  958POPC   C4A16422   8.480  25.561   7.729
  958POPC   C1B16423   7.886  25.587   8.754
  958POPC   C2B16424   7.892  25.453   8.319
  958POPC   C3B16425   7.998  25.393   7.891
  958POPC   C4B16426   8.241  25.076   7.645
  959POPC   NC316427  10.905  28.317   9.554
  959POPC   PO416428  11.554  28.350   9.704
  959POPC   GL116429  11.474  28.400   9.266
  959POPC   GL216430  11.203  28.613   9.244
  959POPC   C1A16431  11.434  28.237   8.835
  959POPC   D2A16432  11.561  28.325   8.418
  959POPC   C3A16433  11.273  28.220   8.096
  959POPC   C4A16434  11.252  28.195   7.640
  959POPC   C1B16435  11.248  28.715   8.784
  959POPC   C2B16436  11.189  28.685   8.317
  959POPC   C3B16437  11.307  28.669   7.844
  959POPC   C4B16438  11.162  28.618   7.381
  960POPC   NC316439  34.497   2.316   9.561
  960POPC   PO416440  34.015   1.859   9.632
  960POPC   GL116441  34.279   1.923   9.283
  960POPC   GL216442  34.166   2.252   9.203
  960POPC   C1A16443  34.360   1.835   8.859
  960POPC   D2A16444  34.670   1.633   8.560
  960POPC   C3A16445  34.630   1.698   8.132
  960POPC   C4A16446  34.783   2.041   7.885
  960POPC   C1B16447  34.424   2.336   8.865
  960POPC   C2B16448  34.451   2.117   8.451
  960POPC   C3B16449  34.279   2.075   8.075
  960POPC   C4B16450  34.143   1.835   7.747
  961POPC   NC316451  17.868  26.185   9.491
  961POPC   PO416452  17.272  25.830   9.558
  961POPC   GL116453  17.441  26.028   9.207
  961POPC   GL216454  17.724  25.853   9.129
  961POPC   C1A16455  17.543  26.214   8.813
  961POPC   D2A16456  17.349  26.394   8.439
  961POPC   C3A16457  17.361  26.221   8.043
  961POPC   C4A16458  17.580  26.323   7.664
  961POPC   C1B16459  17.632  25.676   8.771
  961POPC   C2B16460  17.429  25.837   8.429
  961POPC   C3B16461  17.374  25.714   8.029
  961POPC   C4B16462  17.389  25.853   7.627
  962POPC   NC316463   5.155   2.553   9.416
  962POPC   PO416464   5.510   3.092   9.670
  962POPC   GL116465   5.401   3.026   9.164
  962POPC   GL216466   5.303   2.690   8.937
  962POPC   C1A16467   5.135   3.154   8.790
  962POPC   D2A16468   4.819   3.074   8.429
  962POPC   C3A16469   5.039   2.888   8.060
  962POPC   C4A16470   5.170   2.920   7.639
  962POPC   C1B16471   5.514   2.346   8.663
  962POPC   C2B16472   5.460   2.260   8.201
  962POPC   C3B16473   5.225   2.424   7.828
  962POPC   C4B16474   4.982   2.246   7.479
  963POPC   NC316475  43.358  41.430   9.414
  963POPC   PO416476  44.094  41.255   9.477
  963POPC   GL116477  44.268  41.470   9.086
  963POPC   GL216478  44.062  41.793   9.048
  963POPC   C1A16479  44.219  41.566   8.626
  963POPC   D2A16480  44.200  41.473   8.206
  963POPC   C3A16481  43.843  41.386   8.003
  963POPC   C4A16482  43.848  41.564   7.606
  963POPC   C1B16483  43.789  41.866   8.667
  963POPC   C2B16484  43.666  41.808   8.242
  963POPC   C3B16485  43.599  42.006   7.866
  963POPC   C4B16486  43.510  41.908   7.466
  964POPC   NC316487  42.302  39.817   9.414
  964POPC   PO416488  42.854  40.128   9.573
  964POPC   GL116489  42.583  40.206   9.201
  964POPC   GL216490  42.766  40.382   8.965
  964POPC   C1A16491  42.392  40.034   8.795
  964POPC   D2A16492  42.274  40.081   8.345
  964POPC   C3A16493  42.158  39.732   8.077
  964POPC   C4A16494  42.073  39.932   7.683
  964POPC   C1B16495  42.694  40.340   8.529
  964POPC   C2B16496  42.780  40.009   8.220
  964POPC   C3B16497  42.547  39.971   7.868
  964POPC   C4B16498  42.544  39.764   7.485
  965POPC   NC316499  35.836   9.668   9.510
  965POPC   PO416500  35.960  10.201   9.570
  965POPC   GL116501  35.905  10.045   9.119
  965POPC   GL216502  35.586   9.849   9.085
  965POPC   C1A16503  36.042  10.101   8.657
  965POPC   D2A16504  36.209  10.130   8.214
  965POPC   C3A16505  35.922  10.180   7.855
  965POPC   C4A16506  35.832   9.993   7.437
  965POPC   C1B16507  35.795   9.647   8.729
  965POPC   C2B16508  36.098   9.640   8.386
  965POPC   C3B16509  36.021   9.690   7.946
  965POPC   C4B16510  35.714   9.530   7.636
  966POPC   NC316511  25.051  14.616   9.228
  966POPC   PO416512  25.086  13.901   9.315
  966POPC   GL116513  25.368  14.213   9.139
  966POPC   GL216514  25.081  14.238   8.901
  966POPC   C1A16515  25.496  14.517   8.801
  966POPC   D2A16516  25.311  14.561   8.409
  966POPC   C3A16517  25.608  14.571   8.087
  966POPC   C4A16518  25.503  14.638   7.664
  966POPC   C1B16519  25.376  14.018   8.664
  966POPC   C2B16520  25.443  14.069   8.242
  966POPC   C3B16521  25.215  14.294   7.937
  966POPC   C4B16522  25.210  14.227   7.495
  967POPC   NC316523   7.761  14.549   9.447
  967POPC   PO416524   8.367  14.815   9.467
  967POPC   GL116525   8.163  14.496   9.134
  967POPC   GL216526   7.809  14.528   8.950
  967POPC   C1A16527   8.238  14.283   8.747
  967POPC   D2A16528   8.214  14.454   8.329
  967POPC   C3A16529   8.430  14.316   7.959
  967POPC   C4A16530   8.361  14.296   7.510
  967POPC   C1B16531   7.597  14.158   8.771
  967POPC   C2B16532   7.684  13.963   8.368
  967POPC   C3B16533   7.951  14.120   8.023
  967POPC   C4B16534   7.927  14.535   7.768
  968POPC   NC316535   4.454  18.751   9.316
  968POPC   PO416536   4.584  19.340   9.564
  968POPC   GL116537   4.248  19.227   9.198
  968POPC   GL216538   4.005  18.907   9.140
  968POPC   C1A16539   4.317  19.113   8.740
  968POPC   D2A16540   4.573  19.184   8.351
  968POPC   C3A16541   4.414  19.033   7.939
  968POPC   C4A16542   4.349  18.844   7.519
  968POPC   C1B16543   3.859  18.915   8.704
  968POPC   C2B16544   4.007  18.964   8.266
  968POPC   C3B16545   3.960  18.714   7.874
  968POPC   C4B16546   3.841  18.786   7.405
  969POPC   NC316547  11.097  16.298   9.748
  969POPC   PO416548  10.820  15.645   9.588
  969POPC   GL116549  11.111  15.937   9.306
  969POPC   GL216550  10.939  16.280   9.249
  969POPC   C1A16551  11.365  15.820   8.893
  969POPC   D2A16552  11.579  15.841   8.460
  969POPC   C3A16553  11.357  15.872   8.054
  969POPC   C4A16554  11.628  15.782   7.730
  969POPC   C1B16555  11.140  16.288   8.833
  969POPC   C2B16556  11.196  16.371   8.367
  969POPC   C3B16557  11.212  16.363   7.917
  969POPC   C4B16558  11.452  16.262   7.589
  970POPC   NC316559  42.443  16.785  10.177
  970POPC   PO416560  42.632  17.156   9.688
  970POPC   GL116561  42.521  17.013   9.188
  970POPC   GL216562  42.198  17.136   9.033
  970POPC   C1A16563  42.394  16.745   8.752
  970POPC   D2A16564  42.307  16.829   8.303
  970POPC   C3A16565  42.299  16.600   7.944
  970POPC   C4A16566  42.543  16.240   7.793
  970POPC   C1B16567  42.430  17.242   8.643
  970POPC   C2B16568  42.263  17.345   8.217
  970POPC   C3B16569  42.290  17.290   7.769
  970POPC   C4B16570  42.172  17.336   7.311
  971POPC   NC316571  13.128  22.353   9.473
  971POPC   PO416572  13.620  21.881   9.488
  971POPC   GL116573  13.611  22.167   9.153
  971POPC   GL216574  13.256  22.011   9.128
  971POPC   C1A16575  13.861  22.221   8.729
  971POPC   D2A16576  13.981  22.115   8.258
  971POPC   C3A16577  13.815  22.338   7.854
  971POPC   C4A16578  13.986  22.503   7.441
  971POPC   C1B16579  13.299  22.239   8.772
  971POPC   C2B16580  13.470  22.109   8.418
  971POPC   C3B16581  13.361  22.191   8.043
  971POPC   C4B16582  13.328  22.131   7.671
  972POPC   NC316583  34.534  44.836   9.696
  972POPC   PO416584  34.145  44.348   9.421
  972POPC   GL116585  34.392  44.556   9.114
  972POPC   GL216586  34.492  44.910   9.121
  972POPC   C1A16587  34.370  44.578   8.731
  972POPC   D2A16588  34.492  44.770   8.411
  972POPC   C3A16589  34.662  44.543   8.062
  972POPC   C4A16590  34.500  44.520   7.640
  972POPC   C1B16591  34.837  44.757   8.793
  972POPC   C2B16592  35.010  44.728   8.407
  972POPC   C3B16593  35.204  44.881   8.063
  972POPC   C4B16594  34.970  44.715   7.695
  973POPC   NC316595   7.416  19.427   9.404
  973POPC   PO416596   7.740  18.826   9.513
  973POPC   GL116597   7.620  18.844   9.085
  973POPC   GL216598   7.252  18.903   9.002
  973POPC   C1A16599   7.681  18.645   8.669
  973POPC   D2A16600   7.648  18.518   8.225
  973POPC   C3A16601   7.424  18.856   7.972
  973POPC   C4A16602   7.555  19.269   7.815
  973POPC   C1B16603   7.141  19.372   8.838
  973POPC   C2B16604   6.994  19.521   8.434
  973POPC   C3B16605   7.048  19.365   8.004
  973POPC   C4B16606   6.925  19.380   7.584
  974POPC   NC316607  13.899  44.945   9.310
  974POPC   PO416608  14.394  44.816   9.729
  974POPC   GL116609  14.397  44.809   9.254
  974POPC   GL216610  14.429  44.459   9.108
  974POPC   C1A16611  14.602  44.898   8.848
  974POPC   D2A16612  14.799  44.643   8.520
  974POPC   C3A16613  14.574  44.554   8.170
  974POPC   C4A16614  14.601  44.663   7.751
  974POPC   C1B16615  14.177  44.599   8.743
  974POPC   C2B16616  14.037  44.577   8.307
  974POPC   C3B16617  14.153  44.452   7.902
  974POPC   C4B16618  14.205  44.482   7.465
  975POPC   NC316619  33.422  13.927   9.322
  975POPC   PO416620  34.089  13.727   9.343
  975POPC   GL116621  33.774  13.643   9.075
  975POPC   GL216622  33.609  13.317   9.171
  975POPC   C1A16623  33.809  13.765   8.656
  975POPC   D2A16624  33.751  13.545   8.256
  975POPC   C3A16625  33.954  13.779   7.920
  975POPC   C4A16626  33.794  14.093   7.665
  975POPC   C1B16627  33.519  13.378   8.723
  975POPC   C2B16628  33.307  13.663   8.447
  975POPC   C3B16629  33.249  13.582   8.019
  975POPC   C4B16630  33.568  13.449   7.788
  976POPC   NC316631  38.143  14.528   9.441
  976POPC   PO416632  38.648  14.142   9.488
  976POPC   GL116633  38.534  14.396   9.134
  976POPC   GL216634  38.207  14.361   8.962
  976POPC   C1A16635  38.615  14.663   8.812
  976POPC   D2A16636  38.520  14.423   8.466
  976POPC   C3A16637  38.746  14.337   8.114
  976POPC   C4A16638  38.436  14.374   7.775
  976POPC   C1B16639  38.140  14.082   8.605
  976POPC   C2B16640  38.271  14.050   8.180
  976POPC   C3B16641  38.050  14.003   7.822
  976POPC   C4B16642  37.937  14.304   7.514
  977POPC   NC316643   8.803  20.709   9.491
  977POPC   PO416644   9.310  20.382   9.617
  977POPC   GL116645   9.314  20.608   9.219
  977POPC   GL216646   9.026  20.476   9.112
  977POPC   C1A16647   9.261  20.688   8.733
  977POPC   D2A16648   9.015  20.758   8.381
  977POPC   C3A16649   8.999  20.527   8.015
  977POPC   C4A16650   9.066  20.706   7.632
  977POPC   C1B16651   8.730  20.592   8.803
  977POPC   C2B16652   8.549  20.503   8.408
  977POPC   C3B16653   8.563  20.790   8.078
  977POPC   C4B16654   8.588  20.946   7.661
  978POPC   NC316655  35.505  32.768   9.554
  978POPC   PO416656  35.086  32.152   9.514
  978POPC   GL116657  35.292  32.234   9.158
  978POPC   GL216658  35.136  32.562   9.185
  978POPC   C1A16659  35.316  32.060   8.751
  978POPC   D2A16660  35.530  31.999   8.373
  978POPC   C3A16661  35.404  32.227   8.024
  978POPC   C4A16662  35.328  32.129   7.609
  978POPC   C1B16663  35.040  32.486   8.767
  978POPC   C2B16664  35.276  32.509   8.433
  978POPC   C3B16665  35.067  32.624   8.086
  978POPC   C4B16666  35.230  32.615   7.703
  979POPC   NC316667  31.673   2.822   9.431
  979POPC   PO416668  32.317   2.899   9.528
  979POPC   GL116669  32.159   2.826   9.133
  979POPC   GL216670  31.976   3.132   9.114
  979POPC   C1A16671  32.160   2.533   8.756
  979POPC   D2A16672  32.229   2.357   8.331
  979POPC   C3A16673  32.305   2.612   8.040
  979POPC   C4A16674  32.583   2.783   7.849
  979POPC   C1B16675  32.075   3.047   8.681
  979POPC   C2B16676  31.903   2.787   8.354
  979POPC   C3B16677  31.855   2.782   7.921
  979POPC   C4B16678  32.154   3.033   7.683
  980POPC   NC316679  20.894  22.021   9.451
  980POPC   PO416680  20.243  22.318   9.499
  980POPC   GL116681  20.344  22.326   9.067
  980POPC   GL216682  20.628  22.144   9.040
  980POPC   C1A16683  20.291  22.167   8.628
  980POPC   D2A16684  20.302  22.225   8.189
  980POPC   C3A16685  20.519  21.937   7.949
  980POPC   C4A16686  20.544  21.752   7.549
  980POPC   C1B16687  20.751  21.942   8.663
  980POPC   C2B16688  20.960  21.952   8.242
  980POPC   C3B16689  20.974  22.038   7.794
  980POPC   C4B16690  21.079  21.820   7.401
  981POPC   NC316691  28.144  12.899   9.603
  981POPC   PO416692  28.672  12.430   9.624
  981POPC   GL116693  28.504  12.727   9.291
  981POPC   GL216694  28.159  12.609   9.187
  981POPC   C1A16695  28.448  12.970   8.919
  981POPC   D2A16696  28.459  12.974   8.521
  981POPC   C3A16697  28.197  13.090   8.232
  981POPC   C4A16698  28.479  12.991   7.911
  981POPC   C1B16699  28.010  12.750   8.765
  981POPC   C2B16700  27.995  12.606   8.332
  981POPC   C3B16701  28.028  12.731   7.888
  981POPC   C4B16702  27.957  12.782   7.441
  982POPC   NC316703  25.944  37.020   9.548
  982POPC   PO416704  25.636  36.496   9.437
  982POPC   GL116705  25.878  36.718   9.137
  982POPC   GL216706  26.238  36.723   9.235
  982POPC   C1A16707  25.808  36.907   8.727
  982POPC   D2A16708  25.585  36.736   8.367
  982POPC   C3A16709  25.679  36.908   7.935
  982POPC   C4A16710  26.038  37.104   7.676
  982POPC   C1B16711  26.298  36.706   8.777
  982POPC   C2B16712  26.514  36.656   8.330
  982POPC   C3B16713  26.428  36.777   7.881
  982POPC   C4B16714  26.364  36.757   7.428
  983POPC   NC316715   1.051  11.272   9.660
  983POPC   PO416716   1.469  11.764   9.507
  983POPC   GL116717   1.342  11.409   9.253
  983POPC   GL216718   0.999  11.532   9.183
  983POPC   C1A16719   1.514  11.228   8.846
  983POPC   D2A16720   1.635  11.382   8.420
  983POPC   C3A16721   1.394  11.238   8.070
  983POPC   C4A16722   1.528  11.017   7.762
  983POPC   C1B16723   1.251  11.688   8.836
  983POPC   C2B16724   1.143  11.541   8.427
  983POPC   C3B16725   1.156  11.670   8.002
  983POPC   C4B16726   0.992  11.488   7.674
  984POPC   NC316727  12.066  20.325   9.701
  984POPC   PO416728  12.366  19.800   9.389
  984POPC   GL116729  12.152  19.896   9.072
  984POPC   GL216730  12.018  20.178   9.045
  984POPC   C1A16731  12.000  19.714   8.736
  984POPC   D2A16732  12.193  19.599   8.365
  984POPC   C3A16733  12.174  19.330   8.023
  984POPC   C4A16734  12.290  19.483   7.646
  984POPC   C1B16735  12.178  20.175   8.616
  984POPC   C2B16736  11.904  20.031   8.295
  984POPC   C3B16737  12.024  19.835   7.925
  984POPC   C4B16738  12.463  19.933   7.794
  985POPC   NC316739  32.319  23.570   9.802
  985POPC   PO416740  32.131  24.018   9.556
  985POPC   GL116741  32.104  23.840   9.146
  985POPC   GL216742  31.833  24.069   9.098
  985POPC   C1A16743  32.312  23.695   8.742
  985POPC   D2A16744  32.430  23.921   8.351
  985POPC   C3A16745  32.440  23.651   7.998
  985POPC   C4A16746  32.262  23.571   7.588
  985POPC   C1B16747  31.812  23.782   8.715
  985POPC   C2B16748  31.987  23.662   8.302
  985POPC   C3B16749  31.808  23.634   7.861
  985POPC   C4B16750  31.771  23.554   7.407
  986POPC   NC316751  32.744  12.121   9.488
  986POPC   PO416752  33.353  11.927   9.650
  986POPC   GL116753  33.227  11.955   9.177
  986POPC   GL216754  32.902  12.117   9.000
  986POPC   C1A16755  33.313  12.004   8.717
  986POPC   D2A16756  32.994  12.202   8.441
  986POPC   C3A16757  33.065  12.165   8.015
  986POPC   C4A16758  33.213  12.502   7.748
  986POPC   C1B16759  32.656  11.881   8.636
  986POPC   C2B16760  32.774  11.692   8.272
  986POPC   C3B16761  32.620  11.501   7.918
  986POPC   C4B16762  32.693  11.866   7.727
  987POPC   NC316763  40.872   1.470   9.500
  987POPC   PO416764  40.568   0.853   9.514
  987POPC   GL116765  40.713   1.029   9.160
  987POPC   GL216766  40.477   0.764   9.010
  987POPC   C1A16767  40.928   1.315   8.831
  987POPC   D2A16768  41.142   1.475   8.423
  987POPC   C3A16769  40.959   1.373   8.003
  987POPC   C4A16770  40.627   1.503   7.782
  987POPC   C1B16771  40.796   0.801   8.715
  987POPC   C2B16772  40.811   1.021   8.357
  987POPC   C3B16773  40.599   1.001   7.988
  987POPC   C4B16774  40.731   1.014   7.574
  988POPC   NC316775  27.408  38.103   9.413
  988POPC   PO416776  27.768  37.609   9.511
  988POPC   GL116777  27.606  37.652   9.123
  988POPC   GL216778  27.837  37.873   8.996
  988POPC   C1A16779  27.402  37.552   8.734
  988POPC   D2A16780  27.517  37.315   8.369
  988POPC   C3A16781  27.472  37.569   7.995
  988POPC   C4A16782  27.629  37.613   7.577
  988POPC   C1B16783  27.504  38.040   8.720
  988POPC   C2B16784  27.390  38.010   8.277
  988POPC   C3B16785  27.322  38.037   7.811
  988POPC   C4B16786  27.395  38.059   7.351
  989POPC   NC316787  18.503  27.647   9.447
  989POPC   PO416788  17.870  27.481   9.594
  989POPC   GL116789  18.117  27.407   9.188
  989POPC   GL216790  18.487  27.334   9.065
  989POPC   C1A16791  18.202  27.657   8.801
  989POPC   D2A16792  18.267  27.921   8.450
  989POPC   C3A16793  18.068  27.751   8.104
  989POPC   C4A16794  18.160  27.798   7.677
  989POPC   C1B16795  18.659  27.309   8.701
  989POPC   C2B16796  18.376  27.415   8.381
  989POPC   C3B16797  18.401  27.383   7.988
  989POPC   C4B16798  18.752  27.186   7.882
  990POPC   NC316799  27.089  29.122   9.647
  990POPC   PO416800  26.496  29.206   9.569
  990POPC   GL116801  26.741  29.068   9.221
  990POPC   GL216802  27.047  29.178   9.126
  990POPC   C1A16803  26.707  29.266   8.781
  990POPC   D2A16804  26.600  29.332   8.409
  990POPC   C3A16805  26.850  29.234   8.075
  990POPC   C4A16806  26.858  29.548   7.779
  990POPC   C1B16807  27.182  29.100   8.683
  990POPC   C2B16808  27.263  28.986   8.253
  990POPC   C3B16809  27.226  28.944   7.784
  990POPC   C4B16810  27.104  28.843   7.322
  991POPC   NC316811   3.252   2.419   9.356
  991POPC   PO416812   3.851   2.660   9.600
  991POPC   GL116813   3.658   2.712   9.199
  991POPC   GL216814   3.681   2.364   9.048
  991POPC   C1A16815   3.837   2.798   8.798
  991POPC   D2A16816   3.847   2.606   8.402
  991POPC   C3A16817   3.766   2.896   8.083
  991POPC   C4A16818   3.597   2.824   7.711
  991POPC   C1B16819   3.393   2.529   8.718
  991POPC   C2B16820   3.359   2.724   8.320
  991POPC   C3B16821   3.158   2.626   7.919
  991POPC   C4B16822   2.897   2.895   7.713
  992POPC   NC316823  11.046  14.471   9.633
  992POPC   PO416824  11.513  14.007   9.373
  992POPC   GL116825  11.218  14.190   9.096
  992POPC   GL216826  11.187  14.551   9.117
  992POPC   C1A16827  11.368  14.280   8.682
  992POPC   D2A16828  11.539  14.568   8.369
  992POPC   C3A16829  11.352  14.458   7.977
  992POPC   C4A16830  11.582  14.144   7.771
  992POPC   C1B16831  11.251  14.784   8.753
  992POPC   C2B16832  11.161  14.934   8.360
  992POPC   C3B16833  10.987  14.847   7.968
  992POPC   C4B16834  11.110  14.686   7.572
  993POPC   NC316835  30.615  43.265   9.315
  993POPC   PO416836  31.275  42.968   9.477
  993POPC   GL116837  31.122  43.210   9.150
  993POPC   GL216838  30.921  42.942   9.013
  993POPC   C1A16839  30.980  43.401   8.765
  993POPC   D2A16840  30.802  43.121   8.470
  993POPC   C3A16841  30.639  43.300   8.155
  993POPC   C4A16842  30.808  43.549   7.856
  993POPC   C1B16843  30.567  42.786   8.742
  993POPC   C2B16844  30.581  42.639   8.320
  993POPC   C3B16845  30.446  42.795   7.913
  993POPC   C4B16846  30.539  43.141   7.691
  994POPC   NC316847  17.942   0.640   9.598
  994POPC   PO416848  17.303   0.335   9.825
  994POPC   GL116849  17.339   0.429   9.349
  994POPC   GL216850  17.681   0.425   9.209
  994POPC   C1A16851  17.310   0.514   8.880
  994POPC   D2A16852  17.223   0.489   8.425
  994POPC   C3A16853  17.530   0.624   8.143
  994POPC   C4A16854  17.417   0.351   7.831
  994POPC   C1B16855  17.685   0.056   8.906
  994POPC   C2B16856  17.686  44.900   8.456
  994POPC   C3B16857  17.820   0.078   8.031
  994POPC   C4B16858  17.927   0.457   7.789
  995POPC   NC316859  12.323  39.765   9.830
  995POPC   PO416860  11.975  40.183   9.578
  995POPC   GL116861  12.152  40.092   9.199
  995POPC   GL216862  12.139  39.741   9.284
  995POPC   C1A16863  12.235  40.269   8.763
  995POPC   D2A16864  12.181  40.467   8.330
  995POPC   C3A16865  12.160  40.323   7.891
  995POPC   C4A16866  12.157  40.376   7.427
  995POPC   C1B16867  12.069  39.759   8.823
  995POPC   C2B16868  12.333  39.853   8.459
  995POPC   C3B16869  12.318  39.844   8.003
  995POPC   C4B16870  12.108  39.887   7.615
  996POPC   NC316871  12.394  44.644   9.449
  996POPC   PO416872  11.801   0.015   9.434
  996POPC   GL116873  11.916  44.597   9.200
  996POPC   GL216874  12.212  44.632   8.984
  996POPC   C1A16875  11.839  44.393   8.776
  996POPC   D2A16876  12.101  44.571   8.455
  996POPC   C3A16877  12.227  44.275   8.152
  996POPC   C4A16878  12.277  44.337   7.736
  996POPC   C1B16879  11.894  44.927   8.788
  996POPC   C2B16880  11.989   0.094   8.376
  996POPC   C3B16881  11.902  44.861   7.991
  996POPC   C4B16882  11.835  44.995   7.556
  997POPC   NC316883   1.912  24.189   9.242
  997POPC   PO416884   2.227  24.730   9.491
  997POPC   GL116885   2.093  24.655   9.100
  997POPC   GL216886   1.841  24.828   9.035
  997POPC   C1A16887   2.227  24.438   8.720
  997POPC   D2A16888   2.046  24.366   8.302
  997POPC   C3A16889   2.229  24.526   7.928
  997POPC   C4A16890   2.139  24.366   7.558
  997POPC   C1B16891   1.732  24.515   8.704
  997POPC   C2B16892   1.531  24.447   8.322
  997POPC   C3B16893   1.705  24.519   7.902
  997POPC   C4B16894   1.867  24.882   7.762
  998POPC   NC316895  20.444  44.463   9.322
  998POPC   PO416896  21.067  44.629   9.454
  998POPC   GL116897  20.857  44.714   9.100
  998POPC   GL216898  20.831  44.384   8.994
  998POPC   C1A16899  20.722  44.778   8.670
  998POPC   D2A16900  20.844  44.552   8.314
  998POPC   C3A16901  20.666  44.748   7.969
  998POPC   C4A16902  20.879  44.905   7.586
  998POPC   C1B16903  20.500  44.307   8.695
  998POPC   C2B16904  20.340  44.489   8.342
  998POPC   C3B16905  20.204  44.484   7.923
  998POPC   C4B16906  20.136  44.197   7.613
  999POPC   NC316907  13.333  12.968   9.413
  999POPC   PO416908  13.740  12.424   9.477
  999POPC   GL116909  13.487  12.594   9.104
  999POPC   GL216910  13.719  12.865   8.993
  999POPC   C1A16911  13.428  12.656   8.635
  999POPC   D2A16912  13.651  12.962   8.326
  999POPC   C3A16913  13.679  12.884   7.858
  999POPC   C4A16914  13.419  12.825   7.507
  999POPC   C1B16915  13.418  13.142   8.752
  999POPC   C2B16916  13.378  13.417   8.400
  999POPC   C3B16917  13.482  13.334   8.019
  999POPC   C4B16918  13.351  13.327   7.644
 1000POPC   NC316919  34.752  33.321   9.911
 1000POPC   PO416920  34.440  32.845   9.524
 1000POPC   GL116921  34.719  32.866   9.211
 1000POPC   GL216922  34.441  33.052   9.049
 1000POPC   C1A16923  34.864  32.961   8.807
 1000POPC   D2A16924  34.665  33.241   8.530
 1000POPC   C3A16925  34.803  33.268   8.094
 1000POPC   C4A16926  34.886  32.998   7.740
 1000POPC   C1B16927  34.423  32.746   8.694
 1000POPC   C2B16928  34.615  32.812   8.256
 1000POPC   C3B16929  34.402  32.962   7.868
 1000POPC   C4B16930  34.449  33.120   7.440
 1001POPC   NC316931  40.500  20.704   9.568
 1001POPC   PO416932  41.103  20.850   9.545
 1001POPC   GL116933  40.854  20.786   9.198
 1001POPC   GL216934  40.552  20.960   9.134
 1001POPC   C1A16935  40.810  20.632   8.797
 1001POPC   D2A16936  40.973  20.477   8.410
 1001POPC   C3A16937  40.698  20.537   8.064
 1001POPC   C4A16938  40.910  20.515   7.698
 1001POPC   C1B16939  40.797  21.153   8.834
 1001POPC   C2B16940  40.878  20.988   8.427
 1001POPC   C3B16941  40.825  21.051   8.007
 1001POPC   C4B16942  40.580  20.931   7.689
 1002POPC   NC316943   6.288   5.803   9.476
 1002POPC   PO416944   6.899   6.079   9.483
 1002POPC   GL116945   6.741   5.876   9.136
 1002POPC   GL216946   7.066   5.966   8.999
 1002POPC   C1A16947   6.425   5.844   8.801
 1002POPC   D2A16948   6.283   5.722   8.366
 1002POPC   C3A16949   6.417   5.885   7.952
 1002POPC   C4A16950   6.292   5.984   7.537
 1002POPC   C1B16951   6.899   5.751   8.659
 1002POPC   C2B16952   6.760   5.965   8.313
 1002POPC   C3B16953   6.955   6.039   7.945
 1002POPC   C4B16954   7.024   5.616   7.914
 1003POPC   NC316955   0.075  11.474   9.582
 1003POPC   PO416956   0.706  11.566   9.613
 1003POPC   GL116957   0.483  11.427   9.254
 1003POPC   GL216958   0.459  11.748   9.153
 1003POPC   C1A16959   0.469  11.328   8.798
 1003POPC   D2A16960   0.629  11.467   8.397
 1003POPC   C3A16961   0.778  11.218   8.046
 1003POPC   C4A16962   0.511  11.022   7.720
 1003POPC   C1B16963   0.103  11.681   8.876
 1003POPC   C2B16964   0.053  11.532   8.436
 1003POPC   C3B16965   0.272  11.364   8.060
 1003POPC   C4B16966   0.456  11.556   7.673
 1004POPC   NC316967   3.163  23.761   9.718
 1004POPC   PO416968   2.491  23.798   9.578
 1004POPC   GL116969   2.659  23.898   9.167
 1004POPC   GL216970   2.945  24.115   9.232
 1004POPC   C1A16971   2.640  23.708   8.727
 1004POPC   D2A16972   2.454  23.439   8.416
 1004POPC   C3A16973   2.630  23.610   8.068
 1004POPC   C4A16974   2.429  23.564   7.701
 1004POPC   C1B16975   3.128  23.900   8.870
 1004POPC   C2B16976   3.175  23.852   8.415
 1004POPC   C3B16977   3.030  23.975   7.993
 1004POPC   C4B16978   2.885  23.808   7.633
 1005POPC   NC316979   3.833  29.953   9.434
 1005POPC   PO416980   3.372  29.447   9.497
 1005POPC   GL116981   3.520  29.628   9.146
 1005POPC   GL216982   3.503  29.995   9.062
 1005POPC   C1A16983   3.670  29.589   8.769
 1005POPC   D2A16984   3.693  29.771   8.402
 1005POPC   C3A16985   3.480  29.587   8.100
 1005POPC   C4A16986   3.452  29.715   7.704
 1005POPC   C1B16987   3.735  30.182   8.743
 1005POPC   C2B16988   3.867  30.244   8.332
 1005POPC   C3B16989   3.798  30.030   7.950
 1005POPC   C4B16990   3.934  30.126   7.524
 1006POPC   NC316991   0.611  35.796   9.804
 1006POPC   PO416992   0.512  36.466   9.656
 1006POPC   GL116993   0.494  36.370   9.223
 1006POPC   GL216994   0.704  36.088   9.281
 1006POPC   C1A16995   0.394  36.383   8.767
 1006POPC   D2A16996   0.123  36.301   8.359
 1006POPC   C3A16997   0.351  36.357   7.931
 1006POPC   C4A16998   0.491  36.291   7.456
 1006POPC   C1B16999   0.608  35.939   8.860
 1006POPC   C2B17000   0.509  35.981   8.443
 1006POPC   C3B17001   0.561  35.708   8.128
 1006POPC   C4B17002   0.597  35.931   7.780
 1007POPC   NC317003  32.308  43.456   9.386
 1007POPC   PO417004  32.487  44.175   9.389
 1007POPC   GL117005  32.327  43.979   8.999
 1007POPC   GL217006  31.948  43.992   8.924
 1007POPC   C1A17007  32.456  43.943   8.581
 1007POPC   D2A17008  32.675  43.707   8.264
 1007POPC   C3A17009  32.533  43.840   7.891
 1007POPC   C4A17010  32.219  44.134   7.859
 1007POPC   C1B17011  31.974  43.719   8.588
 1007POPC   C2B17012  32.149  43.741   8.226
 1007POPC   C3B17013  32.040  43.629   7.887
 1007POPC   C4B17014  31.670  43.598   7.750
 1008POPC   NC317015  21.408  36.737   9.537
 1008POPC   PO417016  21.525  37.313   9.152
 1008POPC   GL117017  21.300  36.896   9.045
 1008POPC   GL217018  21.366  36.509   9.091
 1008POPC   C1A17019  21.151  36.731   8.652
 1008POPC   D2A17020  21.151  36.785   8.203
 1008POPC   C3A17021  21.241  37.170   8.001
 1008POPC   C4A17022  21.406  37.299   7.607
 1008POPC   C1B17023  21.563  36.402   8.723
 1008POPC   C2B17024  21.801  36.509   8.341
 1008POPC   C3B17025  21.676  36.779   8.066
 1008POPC   C4B17026  21.433  36.764   7.731
 1009POPC   NC317027  28.789   4.223   9.489
 1009POPC   PO417028  29.337   4.630   9.355
 1009POPC   GL117029  29.257   4.302   9.096
 1009POPC   GL217030  28.928   4.448   9.023
 1009POPC   C1A17031  29.259   4.309   8.639
 1009POPC   D2A17032  29.216   4.467   8.243
 1009POPC   C3A17033  29.219   4.219   7.888
 1009POPC   C4A17034  29.341   4.286   7.469
 1009POPC   C1B17035  28.916   4.008   8.841
 1009POPC   C2B17036  29.069   3.874   8.421
 1009POPC   C3B17037  28.873   3.878   8.022
 1009POPC   C4B17038  28.877   3.846   7.556
 1010POPC   NC317039  36.824  19.008   9.596
 1010POPC   PO417040  36.590  18.548   9.157
 1010POPC   GL117041  36.938  18.818   9.044
 1010POPC   GL217042  37.032  18.539   8.811
 1010POPC   C1A17043  37.036  19.265   8.868
 1010POPC   D2A17044  36.811  19.554   8.560
 1010POPC   C3A17045  36.842  19.448   8.118
 1010POPC   C4A17046  37.184  19.299   7.889
 1010POPC   C1B17047  36.631  18.478   8.523
 1010POPC   C2B17048  36.525  18.630   8.129
 1010POPC   C3B17049  36.708  18.901   7.809
 1010POPC   C4B17050  36.582  18.852   7.382
 1011POPC   NC317051  25.159  10.830   9.680
 1011POPC   PO417052  25.273  10.126   9.594
 1011POPC   GL117053  25.247  10.310   9.140
 1011POPC   GL217054  24.974  10.127   9.062
 1011POPC   C1A17055  25.450  10.530   8.757
 1011POPC   D2A17056  25.660  10.718   8.409
 1011POPC   C3A17057  25.464  10.546   8.066
 1011POPC   C4A17058  25.442  10.521   7.641
 1011POPC   C1B17059  25.063  10.203   8.685
 1011POPC   C2B17060  25.009  10.447   8.380
 1011POPC   C3B17061  24.914  10.161   8.102
 1011POPC   C4B17062  24.783  10.248   7.742
 1012POPC   NC317063  30.303  33.278   9.435
 1012POPC   PO417064  30.847  32.877   9.665
 1012POPC   GL117065  30.681  32.944   9.250
 1012POPC   GL217066  30.928  33.143   9.201
 1012POPC   C1A17067  30.563  33.010   8.799
 1012POPC   D2A17068  30.359  33.171   8.413
 1012POPC   C3A17069  30.538  33.048   8.024
 1012POPC   C4A17070  30.395  33.080   7.593
 1012POPC   C1B17071  31.014  33.281   8.796
 1012POPC   C2B17072  30.923  33.250   8.342
 1012POPC   C3B17073  30.876  33.415   7.896
 1012POPC   C4B17074  30.788  33.374   7.447
 1013POPC   NC317075   1.511   2.157   9.398
 1013POPC   PO417076   0.891   2.051   9.616
 1013POPC   GL117077   0.966   2.201   9.203
 1013POPC   GL217078   1.240   2.329   8.993
 1013POPC   C1A17079   0.888   2.024   8.798
 1013POPC   D2A17080   0.967   1.850   8.409
 1013POPC   C3A17081   1.062   2.048   8.061
 1013POPC   C4A17082   0.948   1.878   7.695
 1013POPC   C1B17083   1.393   2.025   8.665
 1013POPC   C2B17084   1.455   1.702   8.318
 1013POPC   C3B17085   1.421   1.680   7.867
 1013POPC   C4B17086   1.417   2.101   7.699
 1014POPC   NC317087   7.838   3.940   9.453
 1014POPC   PO417088   7.963   4.630   9.503
 1014POPC   GL117089   7.951   4.365   9.112
 1014POPC   GL217090   8.217   4.147   9.068
 1014POPC   C1A17091   8.086   4.389   8.637
 1014POPC   D2A17092   8.152   4.598   8.212
 1014POPC   C3A17093   8.036   4.291   7.890
 1014POPC   C4A17094   7.752   4.217   7.515
 1014POPC   C1B17095   8.543   4.292   8.816
 1014POPC   C2B17096   8.617   4.468   8.426
 1014POPC   C3B17097   8.559   4.300   8.027
 1014POPC   C4B17098   8.594   4.537   7.677
 1015POPC   NC317099  28.615  20.459   9.454
 1015POPC   PO417100  28.209  20.952   9.566
 1015POPC   GL117101  28.332  20.808   9.140
 1015POPC   GL217102  28.657  20.828   9.066
 1015POPC   C1A17103  28.322  20.899   8.669
 1015POPC   D2A17104  28.267  20.522   8.389
 1015POPC   C3A17105  28.150  20.477   7.971
 1015POPC   C4A17106  28.307  20.518   7.512
 1015POPC   C1B17107  28.646  20.509   8.757
 1015POPC   C2B17108  28.768  20.573   8.336
 1015POPC   C3B17109  28.659  20.593   7.898
 1015POPC   C4B17110  28.809  20.438   7.486
 1016POPC   NC317111   0.233  40.502   9.469
 1016POPC   PO417112  44.535  40.725   9.537
 1016POPC   GL117113  44.643  40.780   9.133
 1016POPC   GL217114  44.982  40.702   9.088
 1016POPC   C1A17115  44.575  40.691   8.715
 1016POPC   D2A17116  44.331  40.589   8.386
 1016POPC   C3A17117  44.534  40.649   8.039
 1016POPC   C4A17118  44.358  40.688   7.693
 1016POPC   C1B17119   0.076  40.896   8.716
 1016POPC   C2B17120  44.910  40.802   8.341
 1016POPC   C3B17121   0.031  40.821   7.938
 1016POPC   C4B17122  44.830  40.829   7.581
 1017POPC   NC317123  37.615  40.625   9.606
 1017POPC   PO417124  37.482  41.118   9.321
 1017POPC   GL117125  37.703  40.793   9.126
 1017POPC   GL217126  37.394  40.696   9.022
 1017POPC   C1A17127  37.755  40.613   8.702
 1017POPC   D2A17128  37.547  40.788   8.356
 1017POPC   C3A17129  37.679  40.602   8.001
 1017POPC   C4A17130  37.997  40.616   7.747
 1017POPC   C1B17131  37.177  40.977   8.679
 1017POPC   C2B17132  37.109  41.028   8.203
 1017POPC   C3B17133  37.404  41.008   7.849
 1017POPC   C4B17134  37.722  40.974   7.493
 1018POPC   NC317135   2.856  19.480   9.427
 1018POPC   PO417136   2.344  19.902   9.483
 1018POPC   GL117137   2.613  19.899   9.128
 1018POPC   GL217138   2.969  19.794   9.044
 1018POPC   C1A17139   2.543  19.624   8.765
 1018POPC   D2A17140   2.634  19.390   8.391
 1018POPC   C3A17141   2.569  19.582   8.016
 1018POPC   C4A17142   2.793  19.513   7.627
 1018POPC   C1B17143   2.855  20.026   8.694
 1018POPC   C2B17144   2.855  19.869   8.313
 1018POPC   C3B17145   2.838  19.979   7.892
 1018POPC   C4B17146   3.141  20.039   7.632
 1019POPC   NC317147   8.764  19.478  10.131
 1019POPC   PO417148   8.798  19.921   9.582
 1019POPC   GL117149   9.059  19.974   9.231
 1019POPC   GL217150   8.907  19.738   9.065
 1019POPC   C1A17151   9.222  20.124   8.831
 1019POPC   D2A17152   8.994  20.236   8.461
 1019POPC   C3A17153   9.162  20.043   8.093
 1019POPC   C4A17154   9.173  20.159   7.658
 1019POPC   C1B17155   8.966  19.737   8.619
 1019POPC   C2B17156   8.900  19.643   8.210
 1019POPC   C3B17157   9.007  19.629   7.771
 1019POPC   C4B17158   8.745  19.490   7.367
 1020POPC   NC317159  12.317  32.167   9.340
 1020POPC   PO417160  12.901  32.489   9.291
 1020POPC   GL117161  12.938  32.162   9.010
 1020POPC   GL217162  12.756  31.915   9.211
 1020POPC   C1A17163  12.967  32.126   8.561
 1020POPC   D2A17164  13.204  32.316   8.220
 1020POPC   C3A17165  12.944  32.532   7.893
 1020POPC   C4A17166  12.496  32.445   7.931
 1020POPC   C1B17167  12.532  31.953   8.773
 1020POPC   C2B17168  12.491  32.136   8.351
 1020POPC   C3B17169  12.801  32.024   8.020
 1020POPC   C4B17170  12.832  31.764   7.617
 1021POPC   NC317171   0.049  42.964   9.814
 1021POPC   PO417172  44.529  43.193   9.642
 1021POPC   GL117173  44.565  43.045   9.254
 1021POPC   GL217174  44.790  42.765   9.324
 1021POPC   C1A17175  44.491  43.221   8.853
 1021POPC   D2A17176  44.703  43.231   8.464
 1021POPC   C3A17177  44.496  43.332   8.080
 1021POPC   C4A17178  44.542  42.970   7.822
 1021POPC   C1B17179  44.905  42.903   8.884
 1021POPC   C2B17180  44.980  42.656   8.508
 1021POPC   C3B17181  44.865  42.624   8.067
 1021POPC   C4B17182   0.023  42.797   7.713
 1022POPC   NC317183  38.185  29.906   9.464
 1022POPC   PO417184  38.486  30.395   9.573
 1022POPC   GL117185  38.492  30.185   9.125
 1022POPC   GL217186  38.518  29.797   9.092
 1022POPC   C1A17187  38.437  30.184   8.653
 1022POPC   D2A17188  38.196  30.320   8.293
 1022POPC   C3A17189  38.244  30.075   7.906
 1022POPC   C4A17190  38.460  30.085   7.513
 1022POPC   C1B17191  38.248  29.714   8.743
 1022POPC   C2B17192  38.218  29.748   8.320
 1022POPC   C3B17193  38.294  29.559   7.928
 1022POPC   C4B17194  38.617  29.627   7.633
 1023POPC   NC317195  30.408   0.895   9.543
 1023POPC   PO417196  30.892   0.458   9.454
 1023POPC   GL117197  30.534   0.460   9.132
 1023POPC   GL217198  30.354   0.159   8.968
 1023POPC   C1A17199  30.537   0.515   8.677
 1023POPC   D2A17200  30.848   0.360   8.389
 1023POPC   C3A17201  30.685   0.436   7.999
 1023POPC   C4A17202  30.363   0.736   7.900
 1023POPC   C1B17203  30.767   0.044   8.803
 1023POPC   C2B17204  30.917  44.837   8.425
 1023POPC   C3B17205  31.012  44.950   8.013
 1023POPC   C4B17206  30.879   0.128   7.659
 1024POPC   NC317207   7.471  32.887   9.590
 1024POPC   PO417208   7.487  33.420   9.386
 1024POPC   GL117209   7.307  33.281   9.054
 1024POPC   GL217210   7.290  32.950   9.127
 1024POPC   C1A17211   7.555  33.103   8.720
 1024POPC   D2A17212   7.721  33.167   8.336
 1024POPC   C3A17213   7.636  32.907   8.030
 1024POPC   C4A17214   7.559  32.980   7.632
 1024POPC   C1B17215   7.058  32.957   8.742
 1024POPC   C2B17216   7.214  32.910   8.340
 1024POPC   C3B17217   7.119  33.036   7.930
 1024POPC   C4B17218   7.054  32.727   7.631
 1025POPC   NC317219   8.992  36.399   9.780
 1025POPC   PO417220   8.921  37.070   9.560
 1025POPC   GL117221   8.921  36.915   9.124
 1025POPC   GL217222   9.159  36.719   8.969
 1025POPC   C1A17223   8.665  37.110   8.798
 1025POPC   D2A17224   8.690  37.210   8.390
 1025POPC   C3A17225   8.643  37.219   7.986
 1025POPC   C4A17226   8.748  36.950   7.677
 1025POPC   C1B17227   9.147  37.067   8.658
 1025POPC   C2B17228   9.185  37.269   8.259
 1025POPC   C3B17229   9.195  37.117   7.867
 1025POPC   C4B17230   9.321  37.279   7.495
 1026POPC   NC317231  27.852  25.058   9.494
 1026POPC   PO417232  27.359  25.428   9.497
 1026POPC   GL117233  27.598  25.338   9.136
 1026POPC   GL217234  27.841  25.596   9.128
 1026POPC   C1A17235  27.505  25.324   8.698
 1026POPC   D2A17236  27.486  25.636   8.365
 1026POPC   C3A17237  27.540  25.456   7.975
 1026POPC   C4A17238  27.610  24.988   7.953
 1026POPC   C1B17239  27.969  25.512   8.694
 1026POPC   C2B17240  27.875  25.263   8.320
 1026POPC   C3B17241  28.002  25.303   7.872
 1026POPC   C4B17242  27.755  25.434   7.490
 1027POPC   NC317243  25.307  30.466   9.641
 1027POPC   PO417244  25.225  31.110   9.601
 1027POPC   GL117245  25.152  30.953   9.201
 1027POPC   GL217246  25.362  30.713   9.193
 1027POPC   C1A17247  25.239  31.045   8.787
 1027POPC   D2A17248  25.347  31.155   8.396
 1027POPC   C3A17249  25.293  30.909   8.025
 1027POPC   C4A17250  25.387  30.847   7.598
 1027POPC   C1B17251  25.206  30.542   8.808
 1027POPC   C2B17252  25.046  30.636   8.402
 1027POPC   C3B17253  24.937  30.534   7.974
 1027POPC   C4B17254  25.072  30.477   7.523
 1028POPC   NC317255   4.713  38.167   9.407
 1028POPC   PO417256   4.712  37.528   9.495
 1028POPC   GL117257   4.952  37.722   9.164
 1028POPC   GL217258   5.314  37.770   9.185
 1028POPC   C1A17259   5.069  37.551   8.770
 1028POPC   D2A17260   5.236  37.575   8.410
 1028POPC   C3A17261   5.009  37.485   8.074
 1028POPC   C4A17262   5.125  37.639   7.697
 1028POPC   C1B17263   5.382  37.966   8.810
 1028POPC   C2B17264   5.251  38.081   8.403
 1028POPC   C3B17265   5.416  37.928   8.032
 1028POPC   C4B17266   5.388  38.173   7.712
 1029POPC   NC317267  32.627  37.753   9.528
 1029POPC   PO417268  33.208  37.602   9.528
 1029POPC   GL117269  33.000  37.645   9.140
 1029POPC   GL217270  32.718  37.418   9.118
 1029POPC   C1A17271  33.047  37.516   8.713
 1029POPC   D2A17272  32.850  37.656   8.342
 1029POPC   C3A17273  32.921  37.780   7.921
 1029POPC   C4A17274  33.152  37.690   7.530
 1029POPC   C1B17275  32.757  37.102   8.792
 1029POPC   C2B17276  32.850  37.116   8.359
 1029POPC   C3B17277  32.690  37.288   7.996
 1029POPC   C4B17278  32.731  37.439   7.612
 1030POPC   NC317279  10.272  28.309   9.293
 1030POPC   PO417280  10.712  28.735   9.533
 1030POPC   GL117281  10.759  28.420   9.100
 1030POPC   GL217282  10.526  28.451   8.878
 1030POPC   C1A17283  10.947  28.321   8.665
 1030POPC   D2A17284  10.720  28.447   8.323
 1030POPC   C3A17285  10.805  28.315   7.928
 1030POPC   C4A17286  10.599  28.137   7.604
 1030POPC   C1B17287  10.356  28.136   8.652
 1030POPC   C2B17288  10.230  28.278   8.268
 1030POPC   C3B17289  10.353  28.579   7.978
 1030POPC   C4B17290  10.263  28.560   7.572
 1031POPC   NC317291  17.306  11.778   9.493
 1031POPC   PO417292  17.807  11.296   9.508
 1031POPC   GL117293  17.658  11.224   9.098
 1031POPC   GL217294  17.976  11.106   9.017
 1031POPC   C1A17295  17.340  11.218   8.762
 1031POPC   D2A17296  17.421  11.471   8.390
 1031POPC   C3A17297  17.266  11.363   8.009
 1031POPC   C4A17298  16.912  11.439   7.745
 1031POPC   C1B17299  17.852  11.283   8.624
 1031POPC   C2B17300  17.877  11.308   8.173
 1031POPC   C3B17301  17.719  11.466   7.804
 1031POPC   C4B17302  17.373  11.515   7.522
 1032POPC   NC317303  15.282  10.636   9.485
 1032POPC   PO417304  14.857  10.993   9.819
 1032POPC   GL117305  14.913  10.911   9.287
 1032POPC   GL217306  14.847  10.578   9.157
 1032POPC   C1A17307  15.238  10.730   8.875
 1032POPC   D2A17308  15.157  10.713   8.438
 1032POPC   C3A17309  15.357  10.569   8.059
 1032POPC   C4A17310  15.094  10.813   7.795
 1032POPC   C1B17311  14.920  10.352   8.746
 1032POPC   C2B17312  14.987  10.256   8.269
 1032POPC   C3B17313  15.003  10.290   7.795
 1032POPC   C4B17314  14.666  10.227   7.498
 1033POPC   NC317315  27.440  17.217   9.325
 1033POPC   PO417316  27.851  17.640   9.554
 1033POPC   GL117317  27.750  17.528   9.108
 1033POPC   GL217318  27.457  17.704   9.060
 1033POPC   C1A17319  27.658  17.413   8.652
 1033POPC   D2A17320  27.811  17.653   8.277
 1033POPC   C3A17321  27.626  17.529   7.888
 1033POPC   C4A17322  27.353  17.180   7.855
 1033POPC   C1B17323  27.519  17.907   8.657
 1033POPC   C2B17324  27.358  17.939   8.201
 1033POPC   C3B17325  27.431  17.956   7.734
 1033POPC   C4B17326  27.433  17.632   7.393
 1034POPC   NC317327  31.316  29.655   9.480
 1034POPC   PO417328  31.863  30.002   9.427
 1034POPC   GL117329  31.683  29.739   9.142
 1034POPC   GL217330  31.475  30.045   9.045
 1034POPC   C1A17331  31.516  29.637   8.750
 1034POPC   D2A17332  31.401  29.905   8.430
 1034POPC   C3A17333  31.480  29.729   8.057
 1034POPC   C4A17334  31.454  29.733   7.637
 1034POPC   C1B17335  31.197  30.261   8.733
 1034POPC   C2B17336  30.950  30.106   8.370
 1034POPC   C3B17337  31.045  30.011   7.939
 1034POPC   C4B17338  31.106  30.071   7.491
 1035POPC   NC317339  40.974   3.994   9.563
 1035POPC   PO417340  40.644   4.543   9.564
 1035POPC   GL117341  40.874   4.452   9.145
 1035POPC   GL217342  40.935   4.071   9.050
 1035POPC   C1A17343  40.788   4.384   8.662
 1035POPC   D2A17344  40.928   4.255   8.216
 1035POPC   C3A17345  40.636   4.362   7.879
 1035POPC   C4A17346  40.404   4.476   7.501
 1035POPC   C1B17347  41.117   3.968   8.607
 1035POPC   C2B17348  41.209   3.714   8.252
 1035POPC   C3B17349  41.000   3.842   7.887
 1035POPC   C4B17350  41.095   4.247   7.694
 1036POPC   NC317351  35.053  11.959   9.660
 1036POPC   PO417352  35.449  12.372   9.345
 1036POPC   GL117353  35.212  12.414   8.971
 1036POPC   GL217354  34.937  12.250   9.027
 1036POPC   C1A17355  35.244  12.371   8.532
 1036POPC   D2A17356  35.516  12.140   8.285
 1036POPC   C3A17357  35.537  12.289   7.880
 1036POPC   C4A17358  35.116  12.413   7.778
 1036POPC   C1B17359  35.161  11.919   8.808
 1036POPC   C2B17360  35.286  11.710   8.378
 1036POPC   C3B17361  35.208  11.881   7.918
 1036POPC   C4B17362  35.353  12.013   7.481
 1037POPC   NC317363  38.603   0.227   9.567
 1037POPC   PO417364  38.117   0.748   9.482
 1037POPC   GL117365  38.273   0.375   9.235
 1037POPC   GL217366  38.077   0.241   9.013
 1037POPC   C1A17367  38.596   0.274   8.884
 1037POPC   D2A17368  38.841   0.377   8.468
 1037POPC   C3A17369  38.660   0.532   8.046
 1037POPC   C4A17370  38.650   0.798   7.650
 1037POPC   C1B17371  38.276   0.648   8.836
 1037POPC   C2B17372  38.364   0.667   8.449
 1037POPC   C3B17373  38.093   0.617   8.099
 1037POPC   C4B17374  38.241   0.515   7.682
 1038POPC   NC317375  26.528  10.746   9.640
 1038POPC   PO417376  27.147  10.918   9.450
 1038POPC   GL117377  26.845  10.655   9.194
 1038POPC   GL217378  26.630  10.358   9.313
 1038POPC   C1A17379  26.912  10.550   8.750
 1038POPC   D2A17380  27.091  10.325   8.384
 1038POPC   C3A17381  26.835  10.384   8.006
 1038POPC   C4A17382  26.532  10.752   7.983
 1038POPC   C1B17383  26.512  10.263   8.903
 1038POPC   C2B17384  26.563  10.233   8.471
 1038POPC   C3B17385  26.332  10.270   8.098
 1038POPC   C4B17386  26.310  10.392   7.706
 1039POPC   NC317387  24.062  34.520   9.610
 1039POPC   PO417388  23.448  34.811   9.400
 1039POPC   GL117389  23.780  34.574   9.191
 1039POPC   GL217390  24.037  34.808   9.080
 1039POPC   C1A17391  23.975  34.353   8.834
 1039POPC   D2A17392  23.792  34.371   8.402
 1039POPC   C3A17393  24.050  34.341   8.036
 1039POPC   C4A17394  23.972  34.237   7.596
 1039POPC   C1B17395  23.740  34.791   8.716
 1039POPC   C2B17396  23.373  34.789   8.449
 1039POPC   C3B17397  23.361  34.854   8.012
 1039POPC   C4B17398  23.661  34.591   7.774
 1040POPC   NC317399  34.418  34.236   9.683
 1040POPC   PO417400  34.889  34.670   9.472
 1040POPC   GL117401  34.515  34.535   9.243
 1040POPC   GL217402  34.326  34.852   9.248
 1040POPC   C1A17403  34.510  34.301   8.850
 1040POPC   D2A17404  34.477  34.496   8.453
 1040POPC   C3A17405  34.628  34.344   8.064
 1040POPC   C4A17406  34.934  34.358   7.771
 1040POPC   C1B17407  34.481  34.914   8.814
 1040POPC   C2B17408  34.369  35.046   8.394
 1040POPC   C3B17409  34.413  34.807   8.030
 1040POPC   C4B17410  34.213  34.773   7.627
 1041POPC   NC317411  20.774   9.415   9.527
 1041POPC   PO417412  20.275   9.924   9.440
 1041POPC   GL117413  20.348   9.565   9.179
 1041POPC   GL217414  20.694   9.623   9.084
 1041POPC   C1A17415  20.328   9.665   8.733
 1041POPC   D2A17416  20.537   9.759   8.352
 1041POPC   C3A17417  20.469   9.949   7.933
 1041POPC   C4A17418  20.632   9.840   7.571
 1041POPC   C1B17419  20.819   9.958   8.839
 1041POPC   C2B17420  20.830  10.163   8.498
 1041POPC   C3B17421  20.934   9.982   8.119
 1041POPC   C4B17422  21.084   9.848   7.766
 1042POPC   NC317423  32.596  32.139   9.450
 1042POPC   PO417424  33.291  32.308   9.459
 1042POPC   GL117425  33.165  32.096   9.081
 1042POPC   GL217426  32.805  32.041   9.001
 1042POPC   C1A17427  33.218  31.935   8.636
 1042POPC   D2A17428  33.201  31.765   8.168
 1042POPC   C3A17429  33.064  32.027   7.780
 1042POPC   C4A17430  33.169  32.343   7.456
 1042POPC   C1B17431  32.934  32.418   8.756
 1042POPC   C2B17432  33.099  32.617   8.375
 1042POPC   C3B17433  33.066  32.530   7.929
 1042POPC   C4B17434  32.702  32.386   7.683
 1043POPC   NC317435  39.289  18.065   9.535
 1043POPC   PO417436  38.775  18.445   9.511
 1043POPC   GL117437  39.026  18.300   9.157
 1043POPC   GL217438  39.392  18.386   9.157
 1043POPC   C1A17439  39.183  18.081   8.794
 1043POPC   D2A17440  39.135  18.285   8.397
 1043POPC   C3A17441  39.257  18.086   8.036
 1043POPC   C4A17442  39.326  18.198   7.617
 1043POPC   C1B17443  39.617  18.351   8.765
 1043POPC   C2B17444  39.745  18.397   8.359
 1043POPC   C3B17445  39.532  18.538   8.009
 1043POPC   C4B17446  39.756  18.511   7.637
 1044POPC   NC317447  26.612  13.100   9.257
 1044POPC   PO417448  26.042  12.808   9.539
 1044POPC   GL117449  26.146  12.773   9.137
 1044POPC   GL217450  26.450  12.621   9.124
 1044POPC   C1A17451  26.017  12.957   8.766
 1044POPC   D2A17452  25.725  12.964   8.414
 1044POPC   C3A17453  25.889  13.142   8.033
 1044POPC   C4A17454  25.969  12.927   7.639
 1044POPC   C1B17455  26.313  12.480   8.722
 1044POPC   C2B17456  25.915  12.501   8.510
 1044POPC   C3B17457  25.925  12.622   8.081
 1044POPC   C4B17458  26.346  12.509   7.896
 1045POPC   NC317459   1.757  12.682   9.586
 1045POPC   PO417460   2.304  12.649   9.366
 1045POPC   GL117461   2.052  12.822   9.115
 1045POPC   GL217462   2.080  13.146   9.073
 1045POPC   C1A17463   1.940  12.685   8.733
 1045POPC   D2A17464   2.140  12.540   8.399
 1045POPC   C3A17465   1.920  12.603   8.057
 1045POPC   C4A17466   2.015  12.658   7.665
 1045POPC   C1B17467   2.271  13.084   8.673
 1045POPC   C2B17468   2.115  13.040   8.255
 1045POPC   C3B17469   2.206  13.115   7.827
 1045POPC   C4B17470   1.961  13.077   7.419
 1046POPC   NC317471   1.538  25.629   9.403
 1046POPC   PO417472   1.131  26.169   9.474
 1046POPC   GL117473   1.005  26.049   9.113
 1046POPC   GL217474   0.938  25.714   9.161
 1046POPC   C1A17475   0.906  26.148   8.732
 1046POPC   D2A17476   1.155  26.211   8.407
 1046POPC   C3A17477   0.978  26.329   8.028
 1046POPC   C4A17478   1.104  26.178   7.657
 1046POPC   C1B17479   1.280  25.782   8.808
 1046POPC   C2B17480   1.485  25.797   8.389
 1046POPC   C3B17481   1.456  26.038   8.016
 1046POPC   C4B17482   1.510  25.809   7.637
 1047POPC   NC317483   9.104  31.195   9.468
 1047POPC   PO417484   9.249  31.863   9.517
 1047POPC   GL117485   8.994  31.733   9.089
 1047POPC   GL217486   8.923  31.375   9.022
 1047POPC   C1A17487   9.182  31.632   8.672
 1047POPC   D2A17488   9.386  31.517   8.285
 1047POPC   C3A17489   9.117  31.725   7.992
 1047POPC   C4A17490   8.749  31.586   7.785
 1047POPC   C1B17491   8.694  31.450   8.670
 1047POPC   C2B17492   8.774  31.383   8.241
 1047POPC   C3B17493   8.763  31.093   7.887
 1047POPC   C4B17494   8.621  31.135   7.422
 1048POPC   NC317495  37.851  43.747   9.701
 1048POPC   PO417496  37.535  44.235   9.509
 1048POPC   GL117497  37.926  44.024   9.258
 1048POPC   GL217498  37.974  43.649   9.199
 1048POPC   C1A17499  38.092  43.972   8.808
 1048POPC   D2A17500  37.905  43.818   8.406
 1048POPC   C3A17501  37.882  43.993   7.994
 1048POPC   C4A17502  37.859  43.819   7.562
 1048POPC   C1B17503  37.682  43.587   8.824
 1048POPC   C2B17504  37.419  43.660   8.435
 1048POPC   C3B17505  37.570  43.553   8.011
 1048POPC   C4B17506  37.451  43.436   7.593
 1049POPC   NC317507  24.619  20.219   9.589
 1049POPC   PO417508  24.462  20.873   9.495
 1049POPC   GL117509  24.333  20.515   9.211
 1049POPC   GL217510  24.645  20.359   9.077
 1049POPC   C1A17511  24.307  20.594   8.763
 1049POPC   D2A17512  24.583  20.804   8.471
 1049POPC   C3A17513  24.443  20.858   8.061
 1049POPC   C4A17514  24.643  20.982   7.686
 1049POPC   C1B17515  24.701  20.294   8.608
 1049POPC   C2B17516  24.858  20.409   8.192
 1049POPC   C3B17517  24.669  20.479   7.801
 1049POPC   C4B17518  24.222  20.517   7.722
 1050POPC   NC317519   7.374  10.418   9.640
 1050POPC   PO417520   7.180  10.965   9.486
 1050POPC   GL117521   7.348  10.730   9.110
 1050POPC   GL217522   7.616  10.489   9.194
 1050POPC   C1A17523   7.334  10.654   8.646
 1050POPC   D2A17524   7.195  10.834   8.272
 1050POPC   C3A17525   7.442  10.793   7.900
 1050POPC   C4A17526   7.543  11.036   7.532
 1050POPC   C1B17527   7.805  10.537   8.784
 1050POPC   C2B17528   7.729  10.627   8.328
 1050POPC   C3B17529   7.884  10.515   7.911
 1050POPC   C4B17530   7.713  10.542   7.517
 1051POPC   NC317531   5.281   0.330   9.426
 1051POPC   PO417532   4.744   0.740   9.557
 1051POPC   GL117533   4.961   0.584   9.138
 1051POPC   GL217534   4.978   0.213   9.044
 1051POPC   C1A17535   5.063   0.560   8.679
 1051POPC   D2A17536   5.028   0.444   8.254
 1051POPC   C3A17537   5.386   0.476   7.995
 1051POPC   C4A17538   5.094   0.619   7.671
 1051POPC   C1B17539   4.961   0.060   8.610
 1051POPC   C2B17540   5.077  44.926   8.177
 1051POPC   C3B17541   5.112   0.119   7.759
 1051POPC   C4B17542   4.891   0.262   7.350
 1052POPC   NC317543  28.125  16.020   9.614
 1052POPC   PO417544  28.409  15.463   9.755
 1052POPC   GL117545  28.391  15.761   9.221
 1052POPC   GL217546  28.276  16.085   9.126
 1052POPC   C1A17547  28.372  15.736   8.746
 1052POPC   D2A17548  28.174  15.716   8.354
 1052POPC   C3A17549  28.353  15.701   7.937
 1052POPC   C4A17550  28.647  15.705   7.563
 1052POPC   C1B17551  28.449  16.242   8.744
 1052POPC   C2B17552  28.341  16.402   8.342
 1052POPC   C3B17553  28.154  16.156   8.043
 1052POPC   C4B17554  28.256  16.063   7.606
 1053POPC   NC317555  34.150  31.504   9.547
 1053POPC   PO417556  33.738  31.100   9.324
 1053POPC   GL117557  33.973  31.337   9.087
 1053POPC   GL217558  33.806  31.655   9.162
 1053POPC   C1A17559  33.991  31.321   8.652
 1053POPC   D2A17560  34.018  31.104   8.280
 1053POPC   C3A17561  34.107  31.441   7.995
 1053POPC   C4A17562  34.189  31.408   7.566
 1053POPC   C1B17563  33.547  31.531   8.778
 1053POPC   C2B17564  33.607  31.443   8.318
 1053POPC   C3B17565  33.652  31.666   7.905
 1053POPC   C4B17566  33.689  31.552   7.461
 1054POPC   NC317567  41.949  35.493   9.452
 1054POPC   PO417568  41.320  35.211   9.431
 1054POPC   GL117569  41.519  35.438   9.129
 1054POPC   GL217570  41.262  35.387   8.907
 1054POPC   C1A17571  41.770  35.593   8.777
 1054POPC   D2A17572  41.822  35.730   8.344
 1054POPC   C3A17573  41.481  35.642   8.044
 1054POPC   C4A17574  41.689  35.452   7.719
 1054POPC   C1B17575  41.101  35.000   8.674
 1054POPC   C2B17576  41.136  34.939   8.201
 1054POPC   C3B17577  41.279  35.159   7.791
 1054POPC   C4B17578  41.076  35.172   7.369
 1055POPC   NC317579  34.114   3.718   9.284
 1055POPC   PO417580  33.552   3.491   9.480
 1055POPC   GL117581  33.777   3.279   9.127
 1055POPC   GL217582  34.136   3.193   9.089
 1055POPC   C1A17583  33.761   3.429   8.693
 1055POPC   D2A17584  33.691   3.236   8.287
 1055POPC   C3A17585  33.756   3.482   7.928
 1055POPC   C4A17586  33.638   3.500   7.484
 1055POPC   C1B17587  34.269   3.354   8.664
 1055POPC   C2B17588  34.226   3.519   8.201
 1055POPC   C3B17589  34.215   3.611   7.737
 1055POPC   C4B17590  34.353   3.613   7.285
 1056POPC   NC317591   1.822   2.738   9.702
 1056POPC   PO417592   1.261   2.575   9.455
 1056POPC   GL117593   1.228   2.821   9.122
 1056POPC   GL217594   1.490   3.050   9.112
 1056POPC   C1A17595   1.112   2.776   8.694
 1056POPC   D2A17596   1.307   2.854   8.312
 1056POPC   C3A17597   1.266   2.523   8.044
 1056POPC   C4A17598   1.089   2.485   7.659
 1056POPC   C1B17599   1.136   3.246   8.880
 1056POPC   C2B17600   0.989   3.407   8.490
 1056POPC   C3B17601   1.054   3.259   8.100
 1056POPC   C4B17602   1.161   3.077   7.694
 1057POPC   NC317603   6.359  33.576   9.575
 1057POPC   PO417604   6.816  34.024   9.362
 1057POPC   GL117605   6.696  33.771   9.027
 1057POPC   GL217606   6.354  33.675   9.032
 1057POPC   C1A17607   6.702  33.729   8.583
 1057POPC   D2A17608   6.880  33.940   8.265
 1057POPC   C3A17609   6.755  33.751   7.848
 1057POPC   C4A17610   6.790  33.486   7.471
 1057POPC   C1B17611   6.228  33.926   8.657
 1057POPC   C2B17612   6.349  33.956   8.197
 1057POPC   C3B17613   6.281  34.039   7.745
 1057POPC   C4B17614   6.421  33.858   7.391
 1058POPC   NC317615   2.207  17.987   9.415
 1058POPC   PO417616   1.717  18.501   9.461
 1058POPC   GL117617   1.862  18.275   9.146
 1058POPC   GL217618   2.186  18.374   9.090
 1058POPC   C1A17619   1.764  18.321   8.731
 1058POPC   D2A17620   1.577  18.223   8.343
 1058POPC   C3A17621   1.765  18.256   7.942
 1058POPC   C4A17622   1.779  18.556   7.625
 1058POPC   C1B17623   2.219  18.092   8.734
 1058POPC   C2B17624   2.106  18.145   8.314
 1058POPC   C3B17625   2.312  18.244   7.940
 1058POPC   C4B17626   2.526  18.036   7.609
 1059POPC   NC317627   1.407  28.970   9.457
 1059POPC   PO417628   1.115  29.482   9.559
 1059POPC   GL117629   1.146  29.366   9.126
 1059POPC   GL217630   1.522  29.354   9.146
 1059POPC   C1A17631   0.910  29.322   8.697
 1059POPC   D2A17632   0.932  29.455   8.240
 1059POPC   C3A17633   0.984  29.172   7.898
 1059POPC   C4A17634   1.067  29.235   7.426
 1059POPC   C1B17635   1.350  29.009   8.815
 1059POPC   C2B17636   1.212  28.989   8.394
 1059POPC   C3B17637   1.437  28.971   8.012
 1059POPC   C4B17638   1.529  29.032   7.593
 1060POPC   NC317639  30.665  13.079   9.424
 1060POPC   PO417640  30.077  12.674   9.346
 1060POPC   GL117641  30.519  12.699   9.103
 1060POPC   GL217642  30.925  12.692   9.158
 1060POPC   C1A17643  30.670  12.975   8.768
 1060POPC   D2A17644  30.434  12.914   8.389
 1060POPC   C3A17645  30.560  13.004   7.991
 1060POPC   C4A17646  30.397  12.745   7.713
 1060POPC   C1B17647  31.159  12.628   8.737
 1060POPC   C2B17648  31.041  12.781   8.277
 1060POPC   C3B17649  30.981  12.761   7.782
 1060POPC   C4B17650  31.108  12.970   7.362
 1061POPC   NC317651  16.313   3.399   9.714
 1061POPC   PO417652  15.692   3.546   9.432
 1061POPC   GL117653  15.828   3.588   9.009
 1061POPC   GL217654  16.183   3.653   8.862
 1061POPC   C1A17655  15.761   3.830   8.663
 1061POPC   D2A17656  15.997   3.782   8.314
 1061POPC   C3A17657  15.729   3.812   7.986
 1061POPC   C4A17658  15.654   3.480   7.725
 1061POPC   C1B17659  15.956   3.310   8.612
 1061POPC   C2B17660  15.815   3.312   8.194
 1061POPC   C3B17661  16.126   3.445   7.916
 1061POPC   C4B17662  16.216   3.828   7.838
 1062POPC   NC317663  20.713  19.387   9.559
 1062POPC   PO417664  20.537  20.022   9.501
 1062POPC   GL117665  20.848  19.988   9.167
 1062POPC   GL217666  21.078  19.725   9.248
 1062POPC   C1A17667  20.655  20.060   8.714
 1062POPC   D2A17668  20.295  19.988   8.421
 1062POPC   C3A17669  20.432  19.815   8.026
 1062POPC   C4A17670  20.795  19.989   7.826
 1062POPC   C1B17671  20.835  19.603   8.870
 1062POPC   C2B17672  20.658  19.584   8.476
 1062POPC   C3B17673  20.879  19.578   8.122
 1062POPC   C4B17674  20.764  19.511   7.700
 1063POPC   NC317675  40.346  37.401   9.448
 1063POPC   PO417676  40.931  37.756   9.486
 1063POPC   GL117677  40.775  37.747   9.074
 1063POPC   GL217678  40.403  37.702   9.059
 1063POPC   C1A17679  40.694  37.560   8.671
 1063POPC   D2A17680  40.707  37.479   8.270
 1063POPC   C3A17681  40.842  37.799   8.074
 1063POPC   C4A17682  40.779  37.680   7.681
 1063POPC   C1B17683  40.167  37.530   8.723
 1063POPC   C2B17684  40.230  37.728   8.351
 1063POPC   C3B17685  40.340  37.767   7.951
 1063POPC   C4B17686  40.418  38.048   7.633
 1064POPC   NC317687  18.556  25.702   9.628
 1064POPC   PO417688  19.045  25.243   9.642
 1064POPC   GL117689  18.792  25.323   9.280
 1064POPC   GL217690  18.631  25.013   9.185
 1064POPC   C1A17691  18.849  25.556   8.876
 1064POPC   D2A17692  18.939  25.724   8.434
 1064POPC   C3A17693  19.209  25.499   8.124
 1064POPC   C4A17694  19.011  25.333   7.745
 1064POPC   C1B17695  18.785  25.070   8.736
 1064POPC   C2B17696  18.823  25.163   8.269
 1064POPC   C3B17697  18.734  24.922   7.858
 1064POPC   C4B17698  18.813  25.021   7.381
 1065POPC   NC317699  25.803  14.720   9.567
 1065POPC   PO417700  26.352  14.449   9.735
 1065POPC   GL117701  26.053  14.317   9.328
 1065POPC   GL217702  25.889  14.571   9.102
 1065POPC   C1A17703  25.867  14.135   8.898
 1065POPC   D2A17704  25.832  14.323   8.493
 1065POPC   C3A17705  25.963  14.155   8.124
 1065POPC   C4A17706  25.867  14.300   7.719
 1065POPC   C1B17707  26.235  14.490   8.834
 1065POPC   C2B17708  26.323  14.441   8.423
 1065POPC   C3B17709  26.111  14.634   8.119
 1065POPC   C4B17710  26.230  14.667   7.729
 1066POPC   NC317711  31.213  14.688   9.461
 1066POPC   PO417712  31.602  14.189   9.533
 1066POPC   GL117713  31.407  14.300   9.178
 1066POPC   GL217714  31.645  14.606   9.148
 1066POPC   C1A17715  31.338  14.458   8.780
 1066POPC   D2A17716  31.641  14.583   8.479
 1066POPC   C3A17717  31.395  14.793   8.189
 1066POPC   C4A17718  31.319  14.532   7.851
 1066POPC   C1B17719  31.836  14.269   8.875
 1066POPC   C2B17720  31.812  14.059   8.471
 1066POPC   C3B17721  31.911  14.137   8.031
 1066POPC   C4B17722  31.716  14.260   7.631
 1067POPC   NC317723  15.884  40.145   9.538
 1067POPC   PO417724  15.594  39.663   9.397
 1067POPC   GL117725  15.932  39.893   9.080
 1067POPC   GL217726  16.079  40.259   9.100
 1067POPC   C1A17727  16.170  39.986   8.668
 1067POPC   D2A17728  16.356  39.938   8.244
 1067POPC   C3A17729  16.102  40.016   7.862
 1067POPC   C4A17730  15.708  40.049   7.601
 1067POPC   C1B17731  15.826  40.338   8.728
 1067POPC   C2B17732  15.913  40.225   8.300
 1067POPC   C3B17733  15.822  40.427   7.934
 1067POPC   C4B17734  15.828  40.558   7.501
 1068POPC   NC317735   7.586  17.230   9.508
 1068POPC   PO417736   7.509  17.879   9.735
 1068POPC   GL117737   7.466  17.656   9.250
 1068POPC   GL217738   7.683  17.475   9.091
 1068POPC   C1A17739   7.389  17.733   8.785
 1068POPC   D2A17740   7.108  17.577   8.482
 1068POPC   C3A17741   7.248  17.526   8.053
 1068POPC   C4A17742   7.257  17.751   7.658
 1068POPC   C1B17743   7.871  17.592   8.702
 1068POPC   C2B17744   7.780  17.640   8.278
 1068POPC   C3B17745   7.732  17.616   7.869
 1068POPC   C4B17746   7.547  17.338   7.634
 1069POPC   NC317747  10.278  27.472   9.593
 1069POPC   PO417748  10.675  27.956   9.384
 1069POPC   GL117749  10.479  27.681   9.085
 1069POPC   GL217750  10.416  27.323   9.133
 1069POPC   C1A17751  10.556  27.648   8.634
 1069POPC   D2A17752  10.620  27.923   8.251
 1069POPC   C3A17753  10.486  27.671   7.895
 1069POPC   C4A17754  10.418  27.216   7.971
 1069POPC   C1B17755  10.773  27.192   8.901
 1069POPC   C2B17756  11.012  27.364   8.591
 1069POPC   C3B17757  10.861  27.400   8.183
 1069POPC   C4B17758  10.883  27.306   7.764
 1070POPC   NC317759  24.388  18.570  10.014
 1070POPC   PO417760  24.796  18.201   9.615
 1070POPC   GL117761  24.535  18.339   9.284
 1070POPC   GL217762  24.226  18.108   9.307
 1070POPC   C1A17763  24.638  18.421   8.846
 1070POPC   D2A17764  24.597  18.236   8.447
 1070POPC   C3A17765  24.563  18.467   8.102
 1070POPC   C4A17766  24.681  18.380   7.712
 1070POPC   C1B17767  24.140  18.344   8.936
 1070POPC   C2B17768  24.095  18.236   8.519
 1070POPC   C3B17769  24.139  18.197   8.088
 1070POPC   C4B17770  24.167  18.403   7.703
 1071POPC   NC317771   4.309  26.413   9.465
 1071POPC   PO417772   4.541  25.778   9.444
 1071POPC   GL117773   4.288  25.885   9.065
 1071POPC   GL217774   4.144  26.235   9.036
 1071POPC   C1A17775   4.472  26.074   8.699
 1071POPC   D2A17776   4.724  26.068   8.327
 1071POPC   C3A17777   4.394  26.046   8.045
 1071POPC   C4A17778   4.295  25.835   7.626
 1071POPC   C1B17779   3.914  26.078   8.695
 1071POPC   C2B17780   3.912  25.887   8.295
 1071POPC   C3B17781   3.925  26.047   7.896
 1071POPC   C4B17782   4.206  26.350   7.637
 1072POPC   NC317783  43.934  34.164   9.710
 1072POPC   PO417784  43.590  33.632   9.548
 1072POPC   GL117785  43.900  33.851   9.281
 1072POPC   GL217786  44.090  33.616   9.092
 1072POPC   C1A17787  43.874  34.009   8.850
 1072POPC   D2A17788  43.936  33.755   8.521
 1072POPC   C3A17789  43.889  33.871   8.109
 1072POPC   C4A17790  43.648  33.935   7.757
 1072POPC   C1B17791  43.711  33.447   8.886
 1072POPC   C2B17792  43.519  33.433   8.485
 1072POPC   C3B17793  43.701  33.366   8.096
 1072POPC   C4B17794  44.073  33.471   7.855
 1073POPC   NC317795   8.381  42.208   9.521
 1073POPC   PO417796   8.436  42.704   9.095
 1073POPC   GL117797   8.126  42.358   9.083
 1073POPC   GL217798   8.070  41.991   9.191
 1073POPC   C1A17799   8.206  42.160   8.711
 1073POPC   D2A17800   8.151  42.402   8.365
 1073POPC   C3A17801   8.258  42.282   7.997
 1073POPC   C4A17802   8.062  42.403   7.678
 1073POPC   C1B17803   7.764  42.018   8.892
 1073POPC   C2B17804   7.738  42.051   8.460
 1073POPC   C3B17805   7.783  42.120   8.038
 1073POPC   C4B17806   7.985  41.901   7.706
 1074POPC   NC317807  28.169   0.923   9.454
 1074POPC   PO417808  28.695   0.571   9.543
 1074POPC   GL117809  28.441   0.515   9.189
 1074POPC   GL217810  28.461   0.141   9.231
 1074POPC   C1A17811  28.483   0.634   8.741
 1074POPC   D2A17812  28.276   0.574   8.344
 1074POPC   C3A17813  28.425   0.602   7.893
 1074POPC   C4A17814  28.285   0.641   7.408
 1074POPC   C1B17815  28.241   0.169   8.844
 1074POPC   C2B17816  28.395   0.101   8.429
 1074POPC   C3B17817  28.114   0.133   8.077
 1074POPC   C4B17818  28.227   0.205   7.669
 1075POPC   NC317819  13.189   1.966   9.322
 1075POPC   PO417820  13.847   2.047   9.461
 1075POPC   GL117821  13.640   2.132   9.113
 1075POPC   GL217822  13.585   2.455   9.149
 1075POPC   C1A17823  13.691   2.178   8.683
 1075POPC   D2A17824  13.939   1.912   8.403
 1075POPC   C3A17825  13.748   1.759   8.018
 1075POPC   C4A17826  13.602   1.515   7.698
 1075POPC   C1B17827  13.273   2.447   8.848
 1075POPC   C2B17828  13.244   2.301   8.446
 1075POPC   C3B17829  13.420   2.186   8.084
 1075POPC   C4B17830  13.580   2.306   7.740
 1076POPC   NC317831  12.684  43.720   9.425
 1076POPC   PO417832  13.065  44.197   9.583
 1076POPC   GL117833  12.997  44.005   9.143
 1076POPC   GL217834  12.653  44.062   8.997
 1076POPC   C1A17835  12.938  43.710   8.774
 1076POPC   D2A17836  13.124  43.619   8.384
 1076POPC   C3A17837  13.078  43.953   8.076
 1076POPC   C4A17838  13.011  43.780   7.676
 1076POPC   C1B17839  12.382  44.172   8.660
 1076POPC   C2B17840  12.621  43.977   8.350
 1076POPC   C3B17841  12.592  43.799   7.966
 1076POPC   C4B17842  12.570  43.954   7.539
 1077POPC   NC317843  38.201   2.780   9.370
 1077POPC   PO417844  38.814   2.359   9.125
 1077POPC   GL117845  38.792   2.766   9.080
 1077POPC   GL217846  38.466   2.769   8.949
 1077POPC   C1A17847  38.898   2.883   8.668
 1077POPC   D2A17848  38.827   3.103   8.307
 1077POPC   C3A17849  38.540   2.836   8.104
 1077POPC   C4A17850  38.505   2.525   7.807
 1077POPC   C1B17851  38.268   2.785   8.557
 1077POPC   C2B17852  38.182   2.469   8.249
 1077POPC   C3B17853  37.939   2.559   7.934
 1077POPC   C4B17854  38.156   2.903   7.766
 1078POPC   NC317855  26.635  38.493   9.914
 1078POPC   PO417856  27.031  38.295   9.558
 1078POPC   GL117857  26.958  38.333   9.098
 1078POPC   GL217858  27.281  38.395   9.001
 1078POPC   C1A17859  26.682  38.397   8.701
 1078POPC   D2A17860  26.738  38.622   8.298
 1078POPC   C3A17861  26.764  38.402   7.873
 1078POPC   C4A17862  26.454  38.358   7.515
 1078POPC   C1B17863  27.163  38.400   8.575
 1078POPC   C2B17864  27.198  38.462   8.148
 1078POPC   C3B17865  27.147  38.730   7.814
 1078POPC   C4B17866  27.123  38.530   7.430
 1079POPC   NC317867  20.067  30.091   9.425
 1079POPC   PO417868  19.603  29.586   9.227
 1079POPC   GL117869  19.833  29.858   9.025
 1079POPC   GL217870  20.165  29.734   8.937
 1079POPC   C1A17871  19.787  29.854   8.596
 1079POPC   D2A17872  19.648  29.734   8.209
 1079POPC   C3A17873  19.418  30.038   7.954
 1079POPC   C4A17874  19.555  30.368   7.684
 1079POPC   C1B17875  20.135  30.192   8.793
 1079POPC   C2B17876  19.939  30.307   8.435
 1079POPC   C3B17877  19.933  30.129   8.012
 1079POPC   C4B17878  20.151  29.793   7.842
 1080POPC   NC317879   5.803  29.545   9.515
 1080POPC   PO417880   5.610  28.889   9.502
 1080POPC   GL117881   5.776  29.165   9.180
 1080POPC   GL217882   5.628  29.486   9.054
 1080POPC   C1A17883   5.974  29.188   8.805
 1080POPC   D2A17884   5.902  29.030   8.430
 1080POPC   C3A17885   6.122  29.201   8.120
 1080POPC   C4A17886   5.768  29.109   7.835
 1080POPC   C1B17887   5.590  29.469   8.629
 1080POPC   C2B17888   5.852  29.598   8.317
 1080POPC   C3B17889   5.572  29.576   7.997
 1080POPC   C4B17890   5.546  29.611   7.549
 1081POPC   NC317891   2.997   2.065   9.715
 1081POPC   PO417892   2.448   1.976   9.389
 1081POPC   GL117893   2.699   1.829   9.070
 1081POPC   GL217894   2.921   2.087   9.184
 1081POPC   C1A17895   2.641   1.830   8.614
 1081POPC   D2A17896   2.734   2.192   8.350
 1081POPC   C3A17897   2.744   2.097   7.918
 1081POPC   C4A17898   2.734   1.737   7.667
 1081POPC   C1B17899   3.053   2.078   8.769
 1081POPC   C2B17900   3.145   1.733   8.469
 1081POPC   C3B17901   3.086   1.684   8.017
 1081POPC   C4B17902   3.216   2.028   7.725
 1082POPC   NC317903  18.684   9.782   9.618
 1082POPC   PO417904  18.117   9.785   9.635
 1082POPC   GL117905  18.186   9.638   9.238
 1082POPC   GL217906  18.007   9.899   9.073
 1082POPC   C1A17907  18.455   9.648   8.877
 1082POPC   D2A17908  18.560   9.482   8.470
 1082POPC   C3A17909  18.316   9.543   8.104
 1082POPC   C4A17910  18.244   9.741   7.732
 1082POPC   C1B17911  17.966   9.558   8.758
 1082POPC   C2B17912  17.808   9.447   8.347
 1082POPC   C3B17913  17.772   9.495   7.929
 1082POPC   C4B17914  17.926   9.412   7.548
 1083POPC   NC317915  40.400  38.956   9.332
 1083POPC   PO417916  39.684  39.096   9.517
 1083POPC   GL117917  39.975  39.216   9.173
 1083POPC   GL217918  39.969  38.920   9.074
 1083POPC   C1A17919  40.110  39.489   8.801
 1083POPC   D2A17920  39.996  39.706   8.396
 1083POPC   C3A17921  40.146  39.543   7.996
 1083POPC   C4A17922  40.564  39.551   7.794
 1083POPC   C1B17923  40.094  38.984   8.671
 1083POPC   C2B17924  40.241  38.757   8.324
 1083POPC   C3B17925  40.047  38.841   7.969
 1083POPC   C4B17926  39.850  39.188   7.796
 1084POPC   NC317927   5.608  34.021   9.494
 1084POPC   PO417928   5.916  33.467   9.741
 1084POPC   GL117929   5.790  33.604   9.245
 1084POPC   GL217930   5.909  33.926   9.094
 1084POPC   C1A17931   5.889  33.555   8.755
 1084POPC   D2A17932   5.857  33.783   8.317
 1084POPC   C3A17933   5.951  33.698   7.875
 1084POPC   C4A17934   5.966  33.630   7.383
 1084POPC   C1B17935   5.700  34.051   8.708
 1084POPC   C2B17936   5.578  34.236   8.309
 1084POPC   C3B17937   5.820  34.214   7.933
 1084POPC   C4B17938   5.755  34.084   7.488
 1085POPC   NC317939   9.636  20.716   9.661
 1085POPC   PO417940  10.288  20.587   9.588
 1085POPC   GL117941  10.063  20.645   9.229
 1085POPC   GL217942   9.784  20.878   9.205
 1085POPC   C1A17943  10.121  20.787   8.804
 1085POPC   D2A17944   9.853  20.748   8.447
 1085POPC   C3A17945   9.967  20.603   8.037
 1085POPC   C4A17946   9.676  20.734   7.689
 1085POPC   C1B17947   9.699  20.508   8.887
 1085POPC   C2B17948   9.514  20.333   8.459
 1085POPC   C3B17949   9.506  20.387   8.005
 1085POPC   C4B17950   9.700  20.233   7.605
 1086POPC   NC317951  29.482   3.418   9.554
 1086POPC   PO417952  28.873   3.763   9.502
 1086POPC   GL117953  29.176   3.679   9.212
 1086POPC   GL217954  29.001   3.341   9.186
 1086POPC   C1A17955  29.422   3.843   8.850
 1086POPC   D2A17956  29.604   3.961   8.426
 1086POPC   C3A17957  29.486   3.742   8.054
 1086POPC   C4A17958  29.402   3.807   7.603
 1086POPC   C1B17959  29.063   3.492   8.768
 1086POPC   C2B17960  29.415   3.432   8.501
 1086POPC   C3B17961  29.280   3.264   8.124
 1086POPC   C4B17962  29.090   3.470   7.813
 1087POPC   NC317963  33.957  27.586   9.311
 1087POPC   PO417964  34.496  27.903   9.692
 1087POPC   GL117965  34.580  27.786   9.240
 1087POPC   GL217966  34.700  27.418   9.176
 1087POPC   C1A17967  34.627  27.797   8.806
 1087POPC   D2A17968  34.636  27.622   8.411
 1087POPC   C3A17969  34.483  27.891   8.129
 1087POPC   C4A17970  34.369  27.760   7.780
 1087POPC   C1B17971  34.942  27.388   8.768
 1087POPC   C2B17972  34.947  27.236   8.322
 1087POPC   C3B17973  34.731  27.403   7.923
 1087POPC   C4B17974  34.663  27.257   7.486
 1088POPC   NC317975  43.805  23.902   9.458
 1088POPC   PO417976  44.202  23.363   9.681
 1088POPC   GL117977  43.958  23.458   9.287
 1088POPC   GL217978  44.166  23.764   9.152
 1088POPC   C1A17979  43.807  23.486   8.855
 1088POPC   D2A17980  43.764  23.391   8.406
 1088POPC   C3A17981  43.850  23.684   8.077
 1088POPC   C4A17982  43.759  23.561   7.671
 1088POPC   C1B17983  44.195  23.892   8.729
 1088POPC   C2B17984  43.967  24.111   8.398
 1088POPC   C3B17985  44.019  24.196   7.977
 1088POPC   C4B17986  44.098  23.937   7.642
 1089POPC   NC317987  23.492   8.186   9.475
 1089POPC   PO417988  24.132   7.921   9.514
 1089POPC   GL117989  23.855   8.015   9.158
 1089POPC   GL217990  23.717   8.367   9.052
 1089POPC   C1A17991  23.764   7.985   8.730
 1089POPC   D2A17992  23.611   8.267   8.433
 1089POPC   C3A17993  23.562   8.079   8.036
 1089POPC   C4A17994  23.880   8.006   7.708
 1089POPC   C1B17995  24.097   8.462   8.807
 1089POPC   C2B17996  24.207   8.573   8.382
 1089POPC   C3B17997  23.947   8.420   8.043
 1089POPC   C4B17998  23.720   8.481   7.669
 1090POPC   NC317999  29.037  27.271   9.529
 1090POPC   PO418000  28.852  27.959   9.517
 1090POPC   GL118001  29.050  27.671   9.213
 1090POPC   GL218002  28.945  27.334   9.041
 1090POPC   C1A18003  29.333  27.653   8.864
 1090POPC   D2A18004  29.212  27.881   8.471
 1090POPC   C3A18005  29.230  27.623   8.095
 1090POPC   C4A18006  29.114  27.791   7.706
 1090POPC   C1B18007  28.836  27.664   8.745
 1090POPC   C2B18008  28.749  27.594   8.333
 1090POPC   C3B18009  28.846  27.229   8.117
 1090POPC   C4B18010  28.914  27.341   7.733
 1091POPC   NC318011   0.938  19.722   9.678
 1091POPC   PO418012   1.513  19.922   9.644
 1091POPC   GL118013   1.279  19.884   9.242
 1091POPC   GL218014   0.932  19.733   9.183
 1091POPC   C1A18015   1.303  19.700   8.820
 1091POPC   D2A18016   1.189  19.607   8.400
 1091POPC   C3A18017   1.403  19.806   8.050
 1091POPC   C4A18018   1.496  19.638   7.654
 1091POPC   C1B18019   0.870  19.983   8.854
 1091POPC   C2B18020   0.976  20.107   8.466
 1091POPC   C3B18021   0.883  19.907   8.097
 1091POPC   C4B18022   1.017  19.900   7.704
 1092POPC   NC318023  42.201  43.594   9.576
 1092POPC   PO418024  42.625  44.034   9.420
 1092POPC   GL118025  42.442  43.704   9.130
 1092POPC   GL218026  42.089  43.581   9.091
 1092POPC   C1A18027  42.363  43.747   8.685
 1092POPC   D2A18028  42.530  44.008   8.343
 1092POPC   C3A18029  42.286  43.971   7.968
 1092POPC   C4A18030  42.218  43.553   7.804
 1092POPC   C1B18031  41.884  43.507   8.717
 1092POPC   C2B18032  41.947  43.735   8.346
 1092POPC   C3B18033  41.777  43.803   7.961
 1092POPC   C4B18034  41.903  43.908   7.586
 1093POPC   NC318035  33.315   2.055   9.408
 1093POPC   PO418036  32.703   2.173   9.409
 1093POPC   GL118037  32.980   1.987   9.027
 1093POPC   GL218038  33.305   1.760   8.994
 1093POPC   C1A18039  33.028   1.886   8.572
 1093POPC   D2A18040  32.943   1.569   8.261
 1093POPC   C3A18041  32.874   1.775   7.891
 1093POPC   C4A18042  32.694   1.754   7.522
 1093POPC   C1B18043  33.448   2.108   8.735
 1093POPC   C2B18044  33.333   2.279   8.360
 1093POPC   C3B18045  33.288   2.043   8.012
 1093POPC   C4B18046  33.171   2.104   7.583
 1094POPC   NC318047  23.149  42.576   9.715
 1094POPC   PO418048  22.589  42.392   9.626
 1094POPC   GL118049  22.667  42.595   9.219
 1094POPC   GL218050  22.591  42.284   9.074
 1094POPC   C1A18051  22.848  42.589   8.746
 1094POPC   D2A18052  22.805  42.461   8.272
 1094POPC   C3A18053  23.110  42.384   7.933
 1094POPC   C4A18054  23.381  42.072   7.712
 1094POPC   C1B18055  22.598  42.139   8.643
 1094POPC   C2B18056  22.471  42.098   8.200
 1094POPC   C3B18057  22.613  42.225   7.822
 1094POPC   C4B18058  22.715  42.635   7.709
 1095POPC   NC318059  11.585  33.881   9.494
 1095POPC   PO418060  10.927  33.864   9.505
 1095POPC   GL118061  11.173  33.784   9.168
 1095POPC   GL218062  11.278  33.500   9.207
 1095POPC   C1A18063  11.342  33.900   8.772
 1095POPC   D2A18064  11.427  34.055   8.383
 1095POPC   C3A18065  11.060  34.046   8.129
 1095POPC   C4A18066  11.144  33.838   7.743
 1095POPC   C1B18067  11.383  33.396   8.800
 1095POPC   C2B18068  11.324  33.539   8.404
 1095POPC   C3B18069  11.476  33.551   8.025
 1095POPC   C4B18070  11.461  33.396   7.625
 1096POPC   NC318071   3.751  27.528   9.432
 1096POPC   PO418072   4.414  27.678   9.669
 1096POPC   GL118073   4.243  27.649   9.248
 1096POPC   GL218074   4.039  27.957   9.247
 1096POPC   C1A18075   4.357  27.630   8.813
 1096POPC   D2A18076   4.398  27.394   8.441
 1096POPC   C3A18077   4.444  27.653   8.114
 1096POPC   C4A18078   4.393  27.705   7.695
 1096POPC   C1B18079   3.927  27.938   8.812
 1096POPC   C2B18080   3.996  27.705   8.416
 1096POPC   C3B18081   3.941  27.653   7.957
 1096POPC   C4B18082   3.751  28.011   7.715
 1097POPC   NC318083  22.531  11.138   9.544
 1097POPC   PO418084  22.477  10.526   9.662
 1097POPC   GL118085  22.274  10.691   9.255
 1097POPC   GL218086  22.153  10.445   9.003
 1097POPC   C1A18087  22.453  10.768   8.787
 1097POPC   D2A18088  22.194  10.545   8.489
 1097POPC   C3A18089  22.223  10.605   8.053
 1097POPC   C4A18090  22.516  10.802   7.762
 1097POPC   C1B18091  21.779  10.377   8.725
 1097POPC   C2B18092  21.814  10.191   8.317
 1097POPC   C3B18093  21.859  10.245   7.879
 1097POPC   C4B18094  21.981  10.155   7.448
 1098POPC   NC318095  19.445  26.137   9.565
 1098POPC   PO418096  18.704  26.183   9.648
 1098POPC   GL118097  18.935  26.127   9.282
 1098POPC   GL218098  19.079  26.465   9.168
 1098POPC   C1A18099  19.083  26.032   8.865
 1098POPC   D2A18100  19.020  26.251   8.492
 1098POPC   C3A18101  19.194  26.096   8.117
 1098POPC   C4A18102  18.988  25.836   7.813
 1098POPC   C1B18103  18.695  26.375   8.904
 1098POPC   C2B18104  18.525  26.392   8.475
 1098POPC   C3B18105  18.648  26.209   8.055
 1098POPC   C4B18106  18.942  26.356   7.743
 1099POPC   NC318107  31.744  33.629   9.440
 1099POPC   PO418108  31.308  34.091   9.664
 1099POPC   GL118109  31.330  33.891   9.228
 1099POPC   GL218110  31.235  33.551   9.236
 1099POPC   C1A18111  31.502  33.989   8.788
 1099POPC   D2A18112  31.706  33.810   8.403
 1099POPC   C3A18113  31.506  34.010   8.046
 1099POPC   C4A18114  31.429  34.038   7.574
 1099POPC   C1B18115  31.491  33.499   8.865
 1099POPC   C2B18116  31.418  33.383   8.484
 1099POPC   C3B18117  31.315  33.536   8.134
 1099POPC   C4B18118  31.349  33.551   7.724
 1100POPC   NC318119   9.586  23.215   9.524
 1100POPC   PO418120  10.049  22.818   9.390
 1100POPC   GL118121   9.726  22.842   9.139
 1100POPC   GL218122  10.004  22.957   8.899
 1100POPC   C1A18123   9.526  23.013   8.793
 1100POPC   D2A18124   9.753  23.008   8.431
 1100POPC   C3A18125   9.540  23.108   8.098
 1100POPC   C4A18126   9.745  23.050   7.714
 1100POPC   C1B18127   9.891  22.575   8.682
 1100POPC   C2B18128   9.952  22.536   8.248
 1100POPC   C3B18129  10.239  22.671   7.910
 1100POPC   C4B18130  10.352  22.405   7.562
 1101POPC   NC318131  14.780  15.060   9.509
 1101POPC   PO418132  15.370  15.212   9.592
 1101POPC   GL118133  15.129  15.204   9.173
 1101POPC   GL218134  14.998  14.854   9.104
 1101POPC   C1A18135  14.842  15.272   8.802
 1101POPC   D2A18136  14.796  15.103   8.368
 1101POPC   C3A18137  14.955  15.255   7.950
 1101POPC   C4A18138  15.003  14.993   7.550
 1101POPC   C1B18139  15.226  14.947   8.726
 1101POPC   C2B18140  15.309  15.112   8.319
 1101POPC   C3B18141  15.380  14.970   7.905
 1101POPC   C4B18142  15.497  15.071   7.486
 1102POPC   NC318143  44.198  31.523   9.657
 1102POPC   PO418144  44.865  31.536   9.491
 1102POPC   GL118145  44.517  31.471   9.191
 1102POPC   GL218146  44.317  31.803   9.238
 1102POPC   C1A18147  44.609  31.290   8.737
 1102POPC   D2A18148  44.929  31.173   8.364
 1102POPC   C3A18149  44.906  31.366   7.931
 1102POPC   C4A18150  44.582  31.275   7.605
 1102POPC   C1B18151  44.543  31.824   8.834
 1102POPC   C2B18152  44.727  31.737   8.453
 1102POPC   C3B18153  44.504  31.655   8.096
 1102POPC   C4B18154  44.610  31.773   7.714
 1103POPC   NC318155  13.336   1.176   9.511
 1103POPC   PO418156  14.004   1.072   9.613
 1103POPC   GL118157  13.795   1.242   9.239
 1103POPC   GL218158  13.994   1.454   9.015
 1103POPC   C1A18159  13.540   1.200   8.857
 1103POPC   D2A18160  13.643   1.368   8.448
 1103POPC   C3A18161  13.437   1.231   8.078
 1103POPC   C4A18162  13.352   1.061   7.640
 1103POPC   C1B18163  14.013   1.077   8.692
 1103POPC   C2B18164  13.913   0.987   8.233
 1103POPC   C3B18165  13.827   1.020   7.784
 1103POPC   C4B18166  13.797   1.197   7.346
 1104POPC   NC318167  31.264  13.879   9.465
 1104POPC   PO418168  31.151  13.203   9.415
 1104POPC   GL118169  31.339  13.535   9.097
 1104POPC   GL218170  31.653  13.788   9.137
 1104POPC   C1A18171  31.609  13.475   8.718
 1104POPC   D2A18172  31.521  13.673   8.323
 1104POPC   C3A18173  31.218  13.517   8.043
 1104POPC   C4A18174  30.959  13.284   7.761
 1104POPC   C1B18175  31.409  13.952   8.777
 1104POPC   C2B18176  31.314  14.163   8.360
 1104POPC   C3B18177  31.401  14.015   7.949
 1104POPC   C4B18178  31.673  13.687   7.805
 1105POPC   NC318179  40.702  18.973   9.405
 1105POPC   PO418180  40.824  19.592   9.474
 1105POPC   GL118181  40.950  19.323   9.141
 1105POPC   GL218182  40.577  19.216   8.984
 1105POPC   C1A18183  41.007  19.100   8.767
 1105POPC   D2A18184  40.711  19.186   8.426
 1105POPC   C3A18185  40.856  19.317   8.038
 1105POPC   C4A18186  40.707  19.473   7.663
 1105POPC   C1B18187  40.543  18.814   8.729
 1105POPC   C2B18188  40.395  18.787   8.291
 1105POPC   C3B18189  40.510  18.984   7.881
 1105POPC   C4B18190  40.948  18.930   7.698
 1106POPC   NC318191  12.537  17.349   9.669
 1106POPC   PO418192  13.047  17.724   9.464
 1106POPC   GL118193  12.906  17.579   9.094
 1106POPC   GL218194  12.533  17.496   9.154
 1106POPC   C1A18195  13.060  17.654   8.661
 1106POPC   D2A18196  13.049  17.642   8.203
 1106POPC   C3A18197  12.846  17.239   8.090
 1106POPC   C4A18198  12.801  17.125   7.711
 1106POPC   C1B18199  12.544  17.696   8.741
 1106POPC   C2B18200  12.549  17.570   8.304
 1106POPC   C3B18201  12.570  17.587   7.821
 1106POPC   C4B18202  12.615  17.880   7.430
 1107POPC   NC318203  13.118  33.760   9.462
 1107POPC   PO418204  12.443  33.930   9.351
 1107POPC   GL118205  12.677  33.644   9.133
 1107POPC   GL218206  12.929  33.844   9.013
 1107POPC   C1A18207  12.659  33.587   8.680
 1107POPC   D2A18208  12.798  33.789   8.322
 1107POPC   C3A18209  12.717  33.571   7.940
 1107POPC   C4A18210  12.591  33.722   7.538
 1107POPC   C1B18211  13.178  33.629   8.716
 1107POPC   C2B18212  13.332  33.803   8.335
 1107POPC   C3B18213  13.155  33.855   7.951
 1107POPC   C4B18214  12.783  34.090   7.835
 1108POPC   NC318215  30.462  11.356   9.555
 1108POPC   PO418216  31.054  11.527   9.371
 1108POPC   GL118217  30.840  11.203   9.136
 1108POPC   GL218218  30.472  11.144   9.111
 1108POPC   C1A18219  30.831  11.010   8.739
 1108POPC   D2A18220  30.789  11.214   8.357
 1108POPC   C3A18221  30.749  10.944   8.041
 1108POPC   C4A18222  30.764  11.033   7.620
 1108POPC   C1B18223  30.431  11.360   8.731
 1108POPC   C2B18224  30.404  11.543   8.320
 1108POPC   C3B18225  30.565  11.426   7.904
 1108POPC   C4B18226  30.561  11.460   7.452
 1109POPC   NC318227  18.748  28.243   9.183
 1109POPC   PO418228  19.209  28.491   9.571
 1109POPC   GL118229  19.203  28.480   9.127
 1109POPC   GL218230  19.247  28.118   9.082
 1109POPC   C1A18231  19.066  28.489   8.677
 1109POPC   D2A18232  19.002  28.664   8.259
 1109POPC   C3A18233  19.201  28.474   7.891
 1109POPC   C4A18234  18.988  28.259   7.518
 1109POPC   C1B18235  19.277  28.012   8.665
 1109POPC   C2B18236  19.070  28.097   8.297
 1109POPC   C3B18237  19.148  27.965   7.911
 1109POPC   C4B18238  19.555  27.799   7.734
 1110POPC   NC318239   7.960  17.923   9.611
 1110POPC   PO418240   8.190  17.246   9.460
 1110POPC   GL118241   8.181  17.409   9.073
 1110POPC   GL218242   8.097  17.779   9.125
 1110POPC   C1A18243   8.308  17.312   8.691
 1110POPC   D2A18244   8.282  17.536   8.307
 1110POPC   C3A18245   8.138  17.296   7.971
 1110POPC   C4A18246   8.256  17.153   7.572
 1110POPC   C1B18247   8.327  17.853   8.736
 1110POPC   C2B18248   8.619  17.950   8.395
 1110POPC   C3B18249   8.621  17.846   7.975
 1110POPC   C4B18250   8.327  17.666   7.709
 1111POPC   NC318251   6.620  29.666   9.533
 1111POPC   PO418252   6.355  30.275   9.457
 1111POPC   GL118253   6.597  30.017   9.129
 1111POPC   GL218254   6.425  29.746   9.084
 1111POPC   C1A18255   6.720  29.847   8.703
 1111POPC   D2A18256   6.944  29.815   8.343
 1111POPC   C3A18257   6.737  29.921   7.965
 1111POPC   C4A18258   6.736  29.779   7.503
 1111POPC   C1B18259   6.240  29.611   8.691
 1111POPC   C2B18260   6.380  29.655   8.257
 1111POPC   C3B18261   6.493  29.481   7.827
 1111POPC   C4B18262   6.380  29.458   7.336
 1112POPC   NC318263   6.395  39.594   9.420
 1112POPC   PO418264   6.400  40.301   9.524
 1112POPC   GL118265   6.635  40.055   9.189
 1112POPC   GL218266   6.387  39.883   9.003
 1112POPC   C1A18267   6.876  40.204   8.805
 1112POPC   D2A18268   6.991  40.207   8.351
 1112POPC   C3A18269   6.689  40.047   8.062
 1112POPC   C4A18270   6.343  40.243   7.792
 1112POPC   C1B18271   6.477  39.940   8.569
 1112POPC   C2B18272   6.228  39.889   8.186
 1112POPC   C3B18273   6.388  39.737   7.784
 1112POPC   C4B18274   6.442  39.625   7.389
 1113POPC   NC318275  25.814  17.903   9.326
 1113POPC   PO418276  26.357  18.251   9.473
 1113POPC   GL118277  26.101  18.294   9.094
 1113POPC   GL218278  25.870  18.549   9.050
 1113POPC   C1A18279  25.937  18.219   8.647
 1113POPC   D2A18280  26.207  18.103   8.289
 1113POPC   C3A18281  26.144  18.050   7.857
 1113POPC   C4A18282  26.143  18.161   7.442
 1113POPC   C1B18283  26.195  18.647   8.731
 1113POPC   C2B18284  26.249  18.738   8.319
 1113POPC   C3B18285  26.037  18.557   7.970
 1113POPC   C4B18286  26.184  18.662   7.565
 1114POPC   NC318287  13.689   4.623   9.602
 1114POPC   PO418288  13.568   4.007   9.372
 1114POPC   GL118289  13.691   4.368   9.092
 1114POPC   GL218290  13.425   4.576   9.163
 1114POPC   C1A18291  13.678   4.401   8.606
 1114POPC   D2A18292  13.636   4.080   8.255
 1114POPC   C3A18293  13.802   4.141   7.814
 1114POPC   C4A18294  13.995   4.255   7.386
 1114POPC   C1B18295  13.221   4.540   8.778
 1114POPC   C2B18296  13.284   4.720   8.392
 1114POPC   C3B18297  13.202   4.676   7.977
 1114POPC   C4B18298  13.435   4.474   7.646
 1115POPC   NC318299   1.322  41.600   9.727
 1115POPC   PO418300   0.917  42.040   9.378
 1115POPC   GL118301   1.131  41.851   9.069
 1115POPC   GL218302   1.226  41.547   9.220
 1115POPC   C1A18303   1.149  41.841   8.659
 1115POPC   D2A18304   1.107  41.557   8.320
 1115POPC   C3A18305   1.001  41.757   7.935
 1115POPC   C4A18306   1.319  41.806   7.600
 1115POPC   C1B18307   1.324  41.348   8.814
 1115POPC   C2B18308   1.562  41.237   8.434
 1115POPC   C3B18309   1.553  41.405   8.028
 1115POPC   C4B18310   1.187  41.328   7.773
 1116POPC   NC318311  32.523  25.311   9.445
 1116POPC   PO418312  31.963  25.619   9.373
 1116POPC   GL118313  32.169  25.450   9.082
 1116POPC   GL218314  32.157  25.113   9.147
 1116POPC   C1A18315  32.099  25.562   8.687
 1116POPC   D2A18316  32.320  25.543   8.340
 1116POPC   C3A18317  32.021  25.567   8.020
 1116POPC   C4A18318  32.157  25.353   7.706
 1116POPC   C1B18319  32.390  25.141   8.733
 1116POPC   C2B18320  32.397  25.021   8.271
 1116POPC   C3B18321  32.354  24.898   7.822
 1116POPC   C4B18322  32.079  24.841   7.440
 1117POPC   NC318323  24.207  15.583   9.328
 1117POPC   PO418324  24.974  15.509   9.416
 1117POPC   GL118325  24.775  15.861   9.119
 1117POPC   GL218326  24.392  16.007   9.059
 1117POPC   C1A18327  24.738  15.921   8.674
 1117POPC   D2A18328  24.626  15.565   8.413
 1117POPC   C3A18329  24.451  15.675   8.000
 1117POPC   C4A18330  24.408  15.828   7.591
 1117POPC   C1B18331  24.105  16.038   8.664
 1117POPC   C2B18332  24.107  16.066   8.175
 1117POPC   C3B18333  24.160  16.244   7.739
 1117POPC   C4B18334  24.018  16.438   7.312
 1118POPC   NC318335  37.865  33.522   9.637
 1118POPC   PO418336  38.120  34.113   9.510
 1118POPC   GL118337  37.847  33.884   9.193
 1118POPC   GL218338  37.573  33.642   9.234
 1118POPC   C1A18339  37.678  33.888   8.768
 1118POPC   D2A18340  37.466  33.911   8.371
 1118POPC   C3A18341  37.756  33.908   8.079
 1118POPC   C4A18342  37.878  33.970   7.687
 1118POPC   C1B18343  37.562  33.368   8.852
 1118POPC   C2B18344  37.323  33.423   8.448
 1118POPC   C3B18345  37.409  33.533   8.006
 1118POPC   C4B18346  37.566  33.570   7.579
 1119POPC   NC318347  25.168  17.035   9.435
 1119POPC   PO418348  25.566  17.568   9.542
 1119POPC   GL118349  25.376  17.661   9.192
 1119POPC   GL218350  25.072  17.495   9.185
 1119POPC   C1A18351  25.430  17.456   8.801
 1119POPC   D2A18352  25.539  17.244   8.428
 1119POPC   C3A18353  25.399  17.441   8.058
 1119POPC   C4A18354  25.354  17.818   7.807
 1119POPC   C1B18355  24.881  17.618   8.775
 1119POPC   C2B18356  24.920  17.779   8.343
 1119POPC   C3B18357  24.907  17.548   7.928
 1119POPC   C4B18358  25.074  17.146   7.775
 1120POPC   NC318359   5.375  14.917   9.468
 1120POPC   PO418360   4.924  15.430   9.442
 1120POPC   GL118361   5.081  15.301   9.078
 1120POPC   GL218362   5.430  15.386   9.080
 1120POPC   C1A18363   5.141  14.963   8.778
 1120POPC   D2A18364   5.391  14.891   8.390
 1120POPC   C3A18365   5.196  14.979   7.991
 1120POPC   C4A18366   4.993  15.294   7.713
 1120POPC   C1B18367   5.406  15.387   8.672
 1120POPC   C2B18368   5.173  15.392   8.333
 1120POPC   C3B18369   5.414  15.447   7.990
 1120POPC   C4B18370   5.542  15.289   7.667
 1121POPC   NC318371  12.971  24.403   9.577
 1121POPC   PO418372  12.972  23.777   9.407
 1121POPC   GL118373  12.728  23.855   9.070
 1121POPC   GL218374  12.715  23.523   9.047
 1121POPC   C1A18375  12.516  23.801   8.678
 1121POPC   D2A18376  12.734  23.601   8.372
 1121POPC   C3A18377  12.832  23.783   8.005
 1121POPC   C4A18378  12.575  23.610   7.710
 1121POPC   C1B18379  13.072  23.541   8.772
 1121POPC   C2B18380  13.177  23.357   8.381
 1121POPC   C3B18381  12.962  23.278   8.018
 1121POPC   C4B18382  13.059  23.500   7.634
 1122POPC   NC318383   1.660  30.777   9.539
 1122POPC   PO418384   2.261  30.603   9.490
 1122POPC   GL118385   2.102  30.561   9.094
 1122POPC   GL218386   1.917  30.848   9.073
 1122POPC   C1A18387   2.291  30.574   8.678
 1122POPC   D2A18388   2.357  30.433   8.256
 1122POPC   C3A18389   2.076  30.561   7.900
 1122POPC   C4A18390   2.259  30.659   7.465
 1122POPC   C1B18391   1.777  30.606   8.697
 1122POPC   C2B18392   1.856  30.754   8.315
 1122POPC   C3B18393   1.662  30.858   7.933
 1122POPC   C4B18394   1.750  30.737   7.526
 1123POPC   NC318395  33.653  44.390   9.535
 1123POPC   PO418396  34.081  44.893   9.732
 1123POPC   GL118397  33.971  44.801   9.247
 1123POPC   GL218398  33.676  44.711   9.152
 1123POPC   C1A18399  34.061  44.968   8.791
 1123POPC   D2A18400  34.130   0.136   8.332
 1123POPC   C3A18401  34.216  44.814   7.987
 1123POPC   C4A18402  34.078  44.780   7.534
 1123POPC   C1B18403  33.826  44.517   8.776
 1123POPC   C2B18404  33.752  44.757   8.387
 1123POPC   C3B18405  33.702  44.828   7.939
 1123POPC   C4B18406  33.687  44.456   7.684
 1124POPC   NC318407   4.175   2.051   9.272
 1124POPC   PO418408   4.430   2.181   9.801
 1124POPC   GL118409   4.630   1.893   9.265
 1124POPC   GL218410   4.409   1.728   8.964
 1124POPC   C1A18411   4.636   2.131   8.807
 1124POPC   D2A18412   4.419   1.953   8.485
 1124POPC   C3A18413   4.457   2.015   8.073
 1124POPC   C4A18414   4.314   2.165   7.707
 1124POPC   C1B18415   3.995   1.824   8.712
 1124POPC   C2B18416   3.945   2.063   8.313
 1124POPC   C3B18417   4.038   1.772   7.978
 1124POPC   C4B18418   4.224   1.685   7.590
 1125POPC   NC318419   3.793  18.477   9.975
 1125POPC   PO418420   3.170  18.305   9.651
 1125POPC   GL118421   3.429  18.413   9.265
 1125POPC   GL218422   3.458  18.766   9.185
 1125POPC   C1A18423   3.724  18.448   8.863
 1125POPC   D2A18424   3.828  18.493   8.378
 1125POPC   C3A18425   3.493  18.341   8.047
 1125POPC   C4A18426   3.280  17.911   7.923
 1125POPC   C1B18427   3.195  18.547   8.821
 1125POPC   C2B18428   3.031  18.463   8.369
 1125POPC   C3B18429   3.093  18.651   7.909
 1125POPC   C4B18430   3.390  18.576   7.555
 1126POPC   NC318431  32.269   2.028   9.333
 1126POPC   PO418432  31.790   1.631   9.743
 1126POPC   GL118433  31.862   1.698   9.211
 1126POPC   GL218434  31.901   2.032   8.984
 1126POPC   C1A18435  31.893   1.668   8.685
 1126POPC   D2A18436  31.862   2.007   8.405
 1126POPC   C3A18437  32.041   1.984   8.017
 1126POPC   C4A18438  31.961   2.296   7.746
 1126POPC   C1B18439  32.283   2.007   8.689
 1126POPC   C2B18440  32.563   1.936   8.351
 1126POPC   C3B18441  32.741   2.224   8.094
 1126POPC   C4B18442  32.476   2.201   7.782
 1127POPC   NC318443  30.065  34.014   9.386
 1127POPC   PO418444  29.816  33.400   9.517
 1127POPC   GL118445  29.800  33.633   9.143
 1127POPC   GL218446  30.159  33.613   9.063
 1127POPC   C1A18447  29.808  33.766   8.708
 1127POPC   D2A18448  30.089  33.619   8.398
 1127POPC   C3A18449  29.875  33.650   8.031
 1127POPC   C4A18450  30.016  33.759   7.623
 1127POPC   C1B18451  30.329  33.962   8.803
 1127POPC   C2B18452  30.154  34.112   8.449
 1127POPC   C3B18453  30.279  34.011   8.056
 1127POPC   C4B18454  30.299  34.190   7.669
 1128POPC   NC318455  37.297  43.035   9.544
 1128POPC   PO418456  37.905  43.310   9.598
 1128POPC   GL118457  37.746  42.945   9.307
 1128POPC   GL218458  37.857  43.157   9.089
 1128POPC   C1A18459  37.586  42.807   8.856
 1128POPC   D2A18460  37.799  42.799   8.447
 1128POPC   C3A18461  37.679  42.989   8.022
 1128POPC   C4A18462  37.308  42.899   7.786
 1128POPC   C1B18463  38.063  43.223   8.735
 1128POPC   C2B18464  37.930  43.310   8.349
 1128POPC   C3B18465  38.103  43.504   8.001
 1128POPC   C4B18466  37.935  43.324   7.651
 1129POPC   NC318467  18.647  37.066   9.589
 1129POPC   PO418468  18.253  36.486   9.478
 1129POPC   GL118469  18.393  36.701   9.107
 1129POPC   GL218470  18.498  37.049   9.114
 1129POPC   C1A18471  18.375  36.733   8.663
 1129POPC   D2A18472  18.176  36.713   8.259
 1129POPC   C3A18473  18.325  36.666   7.826
 1129POPC   C4A18474  18.082  36.694   7.445
 1129POPC   C1B18475  18.552  37.212   8.732
 1129POPC   C2B18476  18.463  37.150   8.308
 1129POPC   C3B18477  18.206  37.141   7.952
 1129POPC   C4B18478  18.353  37.117   7.513
 1130POPC   NC318479  35.273  40.707   9.915
 1130POPC   PO418480  35.498  40.578   9.281
 1130POPC   GL118481  35.357  40.615   8.936
 1130POPC   GL218482  35.047  40.501   9.018
 1130POPC   C1A18483  35.404  40.869   8.585
 1130POPC   D2A18484  35.484  40.707   8.194
 1130POPC   C3A18485  35.563  41.029   7.906
 1130POPC   C4A18486  35.699  40.890   7.547
 1130POPC   C1B18487  34.923  40.840   8.760
 1130POPC   C2B18488  34.932  40.754   8.306
 1130POPC   C3B18489  35.083  40.831   7.886
 1130POPC   C4B18490  35.211  40.975   7.477
 1131POPC   NC318491  39.606  34.612   9.398
 1131POPC   PO418492  40.244  34.354   9.478
 1131POPC   GL118493  40.047  34.548   9.129
 1131POPC   GL218494  39.897  34.254   8.974
 1131POPC   C1A18495  40.024  34.668   8.691
 1131POPC   D2A18496  39.832  34.553   8.303
 1131POPC   C3A18497  40.160  34.567   8.018
 1131POPC   C4A18498  40.133  34.887   7.718
 1131POPC   C1B18499  39.544  34.472   8.761
 1131POPC   C2B18500  39.369  34.745   8.407
 1131POPC   C3B18501  39.535  34.827   7.971
 1131POPC   C4B18502  39.751  34.532   7.698
 1132POPC   NC318503  12.457  34.368   9.451
 1132POPC   PO418504  13.105  34.217   9.511
 1132POPC   GL118505  12.855  34.339   9.129
 1132POPC   GL218506  12.761  34.697   9.181
 1132POPC   C1A18507  12.757  34.198   8.686
 1132POPC   D2A18508  12.993  34.251   8.283
 1132POPC   C3A18509  12.911  34.576   7.971
 1132POPC   C4A18510  13.127  34.884   7.707
 1132POPC   C1B18511  12.796  34.740   8.743
 1132POPC   C2B18512  12.587  34.593   8.381
 1132POPC   C3B18513  12.400  34.406   8.030
 1132POPC   C4B18514  12.406  34.341   7.606
 1133POPC   NC318515   6.901   8.189   9.294
 1133POPC   PO418516   7.118   7.882   9.831
 1133POPC   GL118517   7.303   7.881   9.372
 1133POPC   GL218518   7.628   7.806   9.450
 1133POPC   C1A18519   7.382   8.081   8.880
 1133POPC   D2A18520   7.453   8.311   8.437
 1133POPC   C3A18521   7.284   8.330   7.966
 1133POPC   C4A18522   7.141   8.026   7.660
 1133POPC   C1B18523   7.618   7.649   9.014
 1133POPC   C2B18524   7.641   7.790   8.546
 1133POPC   C3B18525   7.432   7.882   8.149
 1133POPC   C4B18526   7.648   7.994   7.787
 1134POPC   NC318527   3.961  11.231   9.977
 1134POPC   PO418528   4.421  11.280   9.536
 1134POPC   GL118529   4.211  11.169   9.182
 1134POPC   GL218530   4.498  10.987   9.095
 1134POPC   C1A18531   4.194  11.404   8.794
 1134POPC   D2A18532   4.483  11.438   8.428
 1134POPC   C3A18533   4.262  11.338   8.050
 1134POPC   C4A18534   4.143  11.547   7.660
 1134POPC   C1B18535   4.757  11.059   8.751
 1134POPC   C2B18536   4.699  10.959   8.316
 1134POPC   C3B18537   4.812  11.140   7.960
 1134POPC   C4B18538   4.566  11.240   7.640
 1135POPC   NC318539  23.751  10.083   9.380
 1135POPC   PO418540  23.572   9.440   9.468
 1135POPC   GL118541  23.727   9.493   9.094
 1135POPC   GL218542  24.053   9.622   9.118
 1135POPC   C1A18543  23.643   9.733   8.729
 1135POPC   D2A18544  23.484   9.992   8.433
 1135POPC   C3A18545  23.463   9.781   8.059
 1135POPC   C4A18546  23.536   9.867   7.628
 1135POPC   C1B18547  24.136   9.854   8.734
 1135POPC   C2B18548  23.968   9.834   8.320
 1135POPC   C3B18549  23.982   9.967   7.906
 1135POPC   C4B18550  24.106   9.616   7.696
 1136POPC   NC318551  22.310   9.254   9.648
 1136POPC   PO418552  21.926   8.740   9.479
 1136POPC   GL118553  22.108   8.817   9.130
 1136POPC   GL218554  22.372   9.025   9.195
 1136POPC   C1A18555  22.092   8.989   8.738
 1136POPC   D2A18556  22.257   8.850   8.365
 1136POPC   C3A18557  22.008   8.739   8.016
 1136POPC   C4A18558  22.127   8.500   7.658
 1136POPC   C1B18559  22.535   9.271   8.851
 1136POPC   C2B18560  22.731   9.189   8.444
 1136POPC   C3B18561  22.575   9.144   8.036
 1136POPC   C4B18562  22.219   9.108   7.771
 1137POPC   NC318563   2.478  25.969   9.385
 1137POPC   PO418564   3.140  26.253   9.472
 1137POPC   GL118565   2.981  26.134   9.103
 1137POPC   GL218566   2.971  25.810   9.068
 1137POPC   C1A18567   3.037  26.112   8.677
 1137POPC   D2A18568   2.790  26.120   8.329
 1137POPC   C3A18569   3.074  26.097   8.018
 1137POPC   C4A18570   3.166  26.389   7.735
 1137POPC   C1B18571   2.634  25.773   8.726
 1137POPC   C2B18572   2.495  25.691   8.264
 1137POPC   C3B18573   2.695  25.828   7.840
 1137POPC   C4B18574   2.485  25.851   7.366
 1138POPC   NC318575   5.418  42.719   9.557
 1138POPC   PO418576   4.870  42.301   9.595
 1138POPC   GL118577   5.172  42.195   9.240
 1138POPC   GL218578   5.224  42.524   9.144
 1138POPC   C1A18579   5.111  41.950   8.842
 1138POPC   D2A18580   4.750  42.031   8.519
 1138POPC   C3A18581   4.875  42.127   8.076
 1138POPC   C4A18582   5.195  42.009   7.798
 1138POPC   C1B18583   5.014  42.435   8.782
 1138POPC   C2B18584   5.230  42.321   8.395
 1138POPC   C3B18585   5.281  42.531   7.986
 1138POPC   C4B18586   4.991  42.460   7.660
 1139POPC   NC318587  17.433   6.251   9.255
 1139POPC   PO418588  17.207   5.595   9.464
 1139POPC   GL118589  17.423   5.695   9.088
 1139POPC   GL218590  17.768   5.901   9.074
 1139POPC   C1A18591  17.377   5.886   8.686
 1139POPC   D2A18592  17.604   5.820   8.298
 1139POPC   C3A18593  17.357   5.816   7.897
 1139POPC   C4A18594  17.099   5.761   7.521
 1139POPC   C1B18595  17.807   6.198   8.703
 1139POPC   C2B18596  17.989   6.228   8.283
 1139POPC   C3B18597  17.793   6.082   7.909
 1139POPC   C4B18598  17.744   6.184   7.493
 1140POPC   NC318599   6.883  22.370   9.586
 1140POPC   PO418600   6.335  22.032   9.497
 1140POPC   GL118601   6.630  21.967   9.180
 1140POPC   GL218602   6.732  22.306   9.110
 1140POPC   C1A18603   6.555  21.944   8.744
 1140POPC   D2A18604   6.528  22.179   8.386
 1140POPC   C3A18605   6.670  22.075   8.011
 1140POPC   C4A18606   6.335  22.067   7.731
 1140POPC   C1B18607   6.876  22.393   8.719
 1140POPC   C2B18608   7.019  22.324   8.314
 1140POPC   C3B18609   7.000  22.444   7.877
 1140POPC   C4B18610   6.722  22.298   7.544
 1141POPC   NC318611  37.292  19.479   9.475
 1141POPC   PO418612  37.757  19.898   9.467
 1141POPC   GL118613  37.722  19.612   9.166
 1141POPC   GL218614  38.033  19.471   9.108
 1141POPC   C1A18615  37.527  19.676   8.769
 1141POPC   D2A18616  37.565  20.089   8.521
 1141POPC   C3A18617  37.605  20.026   8.057
 1141POPC   C4A18618  37.508  19.685   7.759
 1141POPC   C1B18619  38.049  19.723   8.754
 1141POPC   C2B18620  37.831  19.678   8.357
 1141POPC   C3B18621  37.979  19.656   7.939
 1141POPC   C4B18622  37.857  19.341   7.624
 1142POPC   NC318623   8.337  41.218   9.481
 1142POPC   PO418624   7.750  40.995   9.493
 1142POPC   GL118625   7.961  40.808   9.138
 1142POPC   GL218626   8.325  40.857   9.100
 1142POPC   C1A18627   8.031  40.596   8.742
 1142POPC   D2A18628   8.330  40.647   8.410
 1142POPC   C3A18629   8.066  40.528   8.046
 1142POPC   C4A18630   8.010  40.601   7.589
 1142POPC   C1B18631   8.198  41.126   8.738
 1142POPC   C2B18632   8.290  41.264   8.303
 1142POPC   C3B18633   8.416  40.963   7.999
 1142POPC   C4B18634   8.756  40.931   7.719
 1143POPC   NC318635  20.495  36.583   9.529
 1143POPC   PO418636  19.976  36.938   9.408
 1143POPC   GL118637  19.781  36.884   9.033
 1143POPC   GL218638  19.513  37.071   9.010
 1143POPC   C1A18639  19.870  36.795   8.638
 1143POPC   D2A18640  20.188  36.542   8.483
 1143POPC   C3A18641  20.272  36.721   8.112
 1143POPC   C4A18642  19.933  36.902   7.861
 1143POPC   C1B18643  19.551  37.221   8.609
 1143POPC   C2B18644  19.580  36.999   8.229
 1143POPC   C3B18645  19.417  36.846   7.864
 1143POPC   C4B18646  19.563  37.105   7.530
 1144POPC   NC318647  39.299   0.813   9.387
 1144POPC   PO418648  38.978   1.399   9.353
 1144POPC   GL118649  39.170   1.186   9.039
 1144POPC   GL218650  39.526   1.194   9.097
 1144POPC   C1A18651  39.292   0.953   8.682
 1144POPC   D2A18652  39.305   1.178   8.317
 1144POPC   C3A18653  38.951   1.321   8.154
 1144POPC   C4A18654  39.042   1.097   7.788
 1144POPC   C1B18655  39.530   1.473   8.724
 1144POPC   C2B18656  39.725   1.459   8.286
 1144POPC   C3B18657  39.419   1.508   7.902
 1144POPC   C4B18658  38.988   1.667   7.796
 1145POPC   NC318659  26.654   2.195   9.558
 1145POPC   PO418660  26.961   1.595   9.361
 1145POPC   GL118661  26.809   1.866   8.998
 1145POPC   GL218662  26.843   2.232   9.051
 1145POPC   C1A18663  27.079   1.998   8.624
 1145POPC   D2A18664  27.299   1.940   8.221
 1145POPC   C3A18665  26.994   1.997   7.887
 1145POPC   C4A18666  26.542   1.820   7.777
 1145POPC   C1B18667  26.667   2.284   8.629
 1145POPC   C2B18668  26.611   2.123   8.209
 1145POPC   C3B18669  26.524   2.320   7.800
 1145POPC   C4B18670  26.567   2.560   7.423
 1146POPC   NC318671  21.812  22.178   9.817
 1146POPC   PO418672  21.192  22.428   9.490
 1146POPC   GL118673  21.136  22.307   9.072
 1146POPC   GL218674  21.352  22.004   9.040
 1146POPC   C1A18675  21.155  22.242   8.633
 1146POPC   D2A18676  21.424  22.354   8.316
 1146POPC   C3A18677  21.430  22.152   7.944
 1146POPC   C4A18678  21.297  22.279   7.486
 1146POPC   C1B18679  21.669  22.211   8.741
 1146POPC   C2B18680  21.944  22.376   8.428
 1146POPC   C3B18681  21.851  22.468   8.002
 1146POPC   C4B18682  21.797  22.244   7.631
 1147POPC   NC318683   3.782   3.159   9.506
 1147POPC   PO418684   3.547   3.812   9.425
 1147POPC   GL118685   3.307   3.674   9.095
 1147POPC   GL218686   3.240   3.339   9.210
 1147POPC   C1A18687   3.423   3.725   8.675
 1147POPC   D2A18688   3.713   3.979   8.460
 1147POPC   C3A18689   3.800   3.767   8.047
 1147POPC   C4A18690   3.761   3.355   7.859
 1147POPC   C1B18691   3.480   3.207   8.840
 1147POPC   C2B18692   3.518   3.249   8.385
 1147POPC   C3B18693   3.283   3.142   8.013
 1147POPC   C4B18694   3.325   3.225   7.592
 1148POPC   NC318695   1.820  26.451   9.662
 1148POPC   PO418696   2.181  26.263   9.192
 1148POPC   GL118697   1.856  25.997   9.146
 1148POPC   GL218698   1.593  26.126   9.286
 1148POPC   C1A18699   1.797  25.778   8.791
 1148POPC   D2A18700   1.996  25.923   8.422
 1148POPC   C3A18701   1.926  25.829   8.006
 1148POPC   C4A18702   2.268  26.064   7.798
 1148POPC   C1B18703   1.444  26.257   8.873
 1148POPC   C2B18704   1.655  26.320   8.490
 1148POPC   C3B18705   1.864  26.358   8.089
 1148POPC   C4B18706   1.825  26.210   7.665
 1149POPC   NC318707  44.816  33.715   9.505
 1149POPC   PO418708   0.044  33.188   9.314
 1149POPC   GL118709  44.710  33.510   9.042
 1149POPC   GL218710  44.529  33.874   9.127
 1149POPC   C1A18711  44.454  33.674   8.669
 1149POPC   D2A18712  44.378  33.766   8.247
 1149POPC   C3A18713  44.740  33.836   8.027
 1149POPC   C4A18714  44.834  34.037   7.651
 1149POPC   C1B18715  44.427  34.179   8.798
 1149POPC   C2B18716  44.595  34.245   8.398
 1149POPC   C3B18717  44.396  34.217   8.006
 1149POPC   C4B18718  44.325  33.896   7.734
 1150POPC   NC318719  28.501   3.480   9.476
 1150POPC   PO418720  28.322   4.164   9.530
 1150POPC   GL118721  28.256   3.817   9.185
 1150POPC   GL218722  28.589   3.691   9.038
 1150POPC   C1A18723  28.150   3.591   8.795
 1150POPC   D2A18724  28.403   3.585   8.421
 1150POPC   C3A18725  28.147   3.514   8.068
 1150POPC   C4A18726  28.046   3.544   7.639
 1150POPC   C1B18727  28.598   3.276   8.810
 1150POPC   C2B18728  28.798   3.231   8.400
 1150POPC   C3B18729  28.635   3.372   8.003
 1150POPC   C4B18730  28.419   3.203   7.661
 1151POPC   NC318731  42.317  24.695   9.549
 1151POPC   PO418732  42.595  24.069   9.501
 1151POPC   GL118733  42.367  24.291   9.183
 1151POPC   GL218734  42.423  24.622   9.057
 1151POPC   C1A18735  42.125  24.242   8.805
 1151POPC   D2A18736  41.878  24.297   8.434
 1151POPC   C3A18737  42.136  24.499   8.149
 1151POPC   C4A18738  42.178  24.341   7.770
 1151POPC   C1B18739  42.646  24.345   8.772
 1151POPC   C2B18740  42.487  24.218   8.381
 1151POPC   C3B18741  42.644  24.148   7.955
 1151POPC   C4B18742  42.760  24.345   7.580
 1152POPC   NC318743  28.941  31.801   9.512
 1152POPC   PO418744  29.358  32.280   9.541
 1152POPC   GL118745  29.487  32.106   9.185
 1152POPC   GL218746  29.123  32.093   9.138
 1152POPC   C1A18747  29.431  32.246   8.770
 1152POPC   D2A18748  29.516  32.535   8.432
 1152POPC   C3A18749  29.427  32.302   8.067
 1152POPC   C4A18750  29.624  32.178   7.691
 1152POPC   C1B18751  28.915  31.998   8.818
 1152POPC   C2B18752  28.731  32.263   8.578
 1152POPC   C3B18753  28.793  32.151   8.182
 1152POPC   C4B18754  29.001  32.243   7.793
 1153POPC   NC318755  39.991  21.183   9.599
 1153POPC   PO418756  40.125  21.846   9.731
 1153POPC   GL118757  40.077  21.586   9.294
 1153POPC   GL218758  40.121  21.227   9.124
 1153POPC   C1A18759  39.871  21.563   8.853
 1153POPC   D2A18760  40.098  21.516   8.438
 1153POPC   C3A18761  39.847  21.370   8.098
 1153POPC   C4A18762  39.716  21.461   7.691
 1153POPC   C1B18763  39.841  20.996   8.826
 1153POPC   C2B18764  39.871  20.916   8.365
 1153POPC   C3B18765  40.230  21.038   8.072
 1153POPC   C4B18766  40.204  21.291   7.685
 1154POPC   NC318767  35.610  30.211   9.539
 1154POPC   PO418768  35.057  29.736   9.648
 1154POPC   GL118769  35.115  29.868   9.215
 1154POPC   GL218770  35.420  30.035   9.107
 1154POPC   C1A18771  35.124  29.802   8.763
 1154POPC   D2A18772  34.977  29.869   8.380
 1154POPC   C3A18773  35.318  29.940   8.114
 1154POPC   C4A18774  35.348  29.934   7.693
 1154POPC   C1B18775  35.624  29.669   8.863
 1154POPC   C2B18776  35.589  29.585   8.397
 1154POPC   C3B18777  35.776  29.751   8.004
 1154POPC   C4B18778  35.723  30.221   7.897
 1155POPC   NC318779  35.731  43.541   9.542
 1155POPC   PO418780  35.833  44.181   9.605
 1155POPC   GL118781  36.019  43.980   9.247
 1155POPC   GL218782  36.142  43.612   9.224
 1155POPC   C1A18783  36.143  44.193   8.855
 1155POPC   D2A18784  36.343  44.001   8.496
 1155POPC   C3A18785  36.083  44.013   8.136
 1155POPC   C4A18786  36.148  44.195   7.759
 1155POPC   C1B18787  35.999  43.702   8.787
 1155POPC   C2B18788  35.645  43.552   8.514
 1155POPC   C3B18789  35.617  43.476   8.068
 1155POPC   C4B18790  35.963  43.601   7.792
 1156POPC   NC318791  36.696  11.892   9.755
 1156POPC   PO418792  37.204  12.317   9.607
 1156POPC   GL118793  37.002  11.978   9.340
 1156POPC   GL218794  36.681  11.996   9.208
 1156POPC   C1A18795  37.109  11.927   8.899
 1156POPC   D2A18796  37.179  12.161   8.506
 1156POPC   C3A18797  37.240  11.918   8.119
 1156POPC   C4A18798  36.969  11.856   7.766
 1156POPC   C1B18799  36.544  12.080   8.774
 1156POPC   C2B18800  36.432  12.022   8.352
 1156POPC   C3B18801  36.750  12.176   8.107
 1156POPC   C4B18802  36.730  12.291   7.686
 1157POPC   NC318803  33.029  14.164   9.730
 1157POPC   PO418804  33.193  13.524   9.461
 1157POPC   GL118805  33.145  13.539   9.015
 1157POPC   GL218806  33.187  13.841   8.898
 1157POPC   C1A18807  32.873  13.442   8.631
 1157POPC   D2A18808  32.502  13.462   8.311
 1157POPC   C3A18809  32.645  13.265   7.935
 1157POPC   C4A18810  32.937  13.398   7.636
 1157POPC   C1B18811  32.987  14.032   8.603
 1157POPC   C2B18812  32.855  13.819   8.257
 1157POPC   C3B18813  32.864  13.872   7.850
 1157POPC   C4B18814  32.723  14.275   7.748
 1158POPC   NC318815  10.434  16.038   9.557
 1158POPC   PO418816  10.085  15.538   9.690
 1158POPC   GL118817  10.122  15.644   9.236
 1158POPC   GL218818  10.299  15.956   9.082
 1158POPC   C1A18819  10.234  15.514   8.807
 1158POPC   D2A18820  10.099  15.560   8.360
 1158POPC   C3A18821  10.414  15.650   8.029
 1158POPC   C4A18822  10.370  15.719   7.573
 1158POPC   C1B18823  10.271  16.006   8.647
 1158POPC   C2B18824  10.336  16.115   8.252
 1158POPC   C3B18825  10.420  16.146   7.846
 1158POPC   C4B18826  10.810  16.005   7.737
 1159POPC   NC318827  22.116   8.296   9.438
 1159POPC   PO418828  22.432   7.719   9.412
 1159POPC   GL118829  22.338   8.003   9.075
 1159POPC   GL218830  22.456   8.356   9.056
 1159POPC   C1A18831  22.373   8.045   8.641
 1159POPC   D2A18832  22.324   8.330   8.325
 1159POPC   C3A18833  22.239   8.124   7.961
 1159POPC   C4A18834  22.370   8.079   7.490
 1159POPC   C1B18835  22.083   8.452   8.777
 1159POPC   C2B18836  21.829   8.481   8.396
 1159POPC   C3B18837  21.734   8.297   7.995
 1159POPC   C4B18838  21.865   8.063   7.609
 1160POPC   NC318839  27.151  19.065   9.473
 1160POPC   PO418840  26.523  18.884   9.514
 1160POPC   GL118841  26.747  18.926   9.147
 1160POPC   GL218842  26.579  18.600   9.048
 1160POPC   C1A18843  26.897  19.213   8.796
 1160POPC   D2A18844  26.636  19.265   8.397
 1160POPC   C3A18845  26.762  19.289   7.970
 1160POPC   C4A18846  27.095  19.257   7.674
 1160POPC   C1B18847  26.699  18.780   8.647
 1160POPC   C2B18848  27.042  18.931   8.364
 1160POPC   C3B18849  27.084  18.813   7.937
 1160POPC   C4B18850  26.716  18.851   7.656
 1161POPC   NC318851  26.087  29.418   9.559
 1161POPC   PO418852  25.885  28.883   9.867
 1161POPC   GL118853  25.957  28.958   9.342
 1161POPC   GL218854  26.249  29.092   9.124
 1161POPC   C1A18855  25.834  29.074   8.854
 1161POPC   D2A18856  25.977  29.181   8.398
 1161POPC   C3A18857  25.924  29.089   7.925
 1161POPC   C4A18858  25.731  29.138   7.477
 1161POPC   C1B18859  26.340  28.918   8.659
 1161POPC   C2B18860  26.376  28.965   8.169
 1161POPC   C3B18861  26.393  29.313   7.859
 1161POPC   C4B18862  26.478  29.443   7.394
 1162POPC   NC318863  19.557  39.308   9.473
 1162POPC   PO418864  18.897  39.152   9.563
 1162POPC   GL118865  18.913  39.184   9.158
 1162POPC   GL218866  19.244  39.102   9.101
 1162POPC   C1A18867  18.821  38.921   8.824
 1162POPC   D2A18868  18.873  38.854   8.397
 1162POPC   C3A18869  18.992  39.110   8.026
 1162POPC   C4A18870  19.062  39.079   7.588
 1162POPC   C1B18871  19.287  39.066   8.661
 1162POPC   C2B18872  19.359  38.870   8.263
 1162POPC   C3B18873  19.616  38.996   7.939
 1162POPC   C4B18874  19.575  39.125   7.518
 1163POPC   NC318875  16.447  11.195   9.619
 1163POPC   PO418876  16.944  11.520   9.388
 1163POPC   GL118877  16.744  11.164   9.189
 1163POPC   GL218878  16.455  11.334   9.120
 1163POPC   C1A18879  16.746  11.088   8.749
 1163POPC   D2A18880  16.951  11.214   8.370
 1163POPC   C3A18881  16.723  11.058   8.010
 1163POPC   C4A18882  16.574  11.129   7.558
 1163POPC   C1B18883  16.363  11.447   8.710
 1163POPC   C2B18884  16.462  11.324   8.342
 1163POPC   C3B18885  16.447  11.494   7.951
 1163POPC   C4B18886  16.174  11.447   7.622
 1164POPC   NC318887  12.731  13.940   9.589
 1164POPC   PO418888  13.178  13.398   9.524
 1164POPC   GL118889  13.006  13.276   9.130
 1164POPC   GL218890  12.796  13.568   9.169
 1164POPC   C1A18891  12.972  13.392   8.716
 1164POPC   D2A18892  12.911  13.639   8.388
 1164POPC   C3A18893  12.956  13.394   8.037
 1164POPC   C4A18894  12.893  13.545   7.629
 1164POPC   C1B18895  12.581  13.740   8.820
 1164POPC   C2B18896  12.341  13.814   8.461
 1164POPC   C3B18897  12.496  13.759   8.066
 1164POPC   C4B18898  12.392  13.629   7.683
 1165POPC   NC318899  41.851  28.004   9.417
 1165POPC   PO418900  41.275  27.778   9.729
 1165POPC   GL118901  41.447  27.560   9.318
 1165POPC   GL218902  41.455  27.826   9.105
 1165POPC   C1A18903  41.618  27.329   8.911
 1165POPC   D2A18904  41.769  27.345   8.443
 1165POPC   C3A18905  41.620  27.305   7.957
 1165POPC   C4A18906  41.870  27.323   7.585
 1165POPC   C1B18907  41.582  27.783   8.680
 1165POPC   C2B18908  41.431  27.661   8.258
 1165POPC   C3B18909  41.412  27.828   7.854
 1165POPC   C4B18910  41.089  27.887   7.541
 1166POPC   NC318911  23.242  34.356   9.422
 1166POPC   PO418912  22.656  34.719   9.663
 1166POPC   GL118913  22.742  34.366   9.278
 1166POPC   GL218914  23.038  34.516   9.004
 1166POPC   C1A18915  22.642  34.276   8.811
 1166POPC   D2A18916  22.961  34.430   8.474
 1166POPC   C3A18917  22.825  34.561   8.046
 1166POPC   C4A18918  22.670  34.435   7.622
 1166POPC   C1B18919  23.400  34.336   8.780
 1166POPC   C2B18920  23.347  34.093   8.405
 1166POPC   C3B18921  23.314  34.337   8.069
 1166POPC   C4B18922  23.170  34.495   7.682
 1167POPC   NC318923  40.359  29.906   9.358
 1167POPC   PO418924  40.945  30.136   9.537
 1167POPC   GL118925  40.830  29.953   9.135
 1167POPC   GL218926  40.596  29.716   8.946
 1167POPC   C1A18927  41.077  29.846   8.798
 1167POPC   D2A18928  41.039  30.023   8.434
 1167POPC   C3A18929  41.230  29.878   8.096
 1167POPC   C4A18930  41.062  29.670   7.746
 1167POPC   C1B18931  40.521  30.091   8.705
 1167POPC   C2B18932  40.603  30.266   8.311
 1167POPC   C3B18933  40.728  29.950   8.019
 1167POPC   C4B18934  40.572  29.785   7.638
 1168POPC   NC318935  21.778  18.921   9.475
 1168POPC   PO418936  21.186  19.271   9.480
 1168POPC   GL118937  21.454  19.113   9.150
 1168POPC   GL218938  21.466  19.447   9.037
 1168POPC   C1A18939  21.565  19.129   8.671
 1168POPC   D2A18940  21.398  19.399   8.302
 1168POPC   C3A18941  21.564  19.221   7.913
 1168POPC   C4A18942  21.517  18.794   7.744
 1168POPC   C1B18943  21.101  19.189   8.819
 1168POPC   C2B18944  20.946  19.154   8.405
 1168POPC   C3B18945  21.029  19.103   7.965
 1168POPC   C4B18946  21.165  19.125   7.561
 1169POPC   NC318947  12.141  33.599   9.327
 1169POPC   PO418948  11.841  34.266   9.447
 1169POPC   GL118949  11.936  34.000   9.067
 1169POPC   GL218950  11.728  33.699   9.036
 1169POPC   C1A18951  12.245  33.894   8.703
 1169POPC   D2A18952  12.305  33.644   8.289
 1169POPC   C3A18953  12.294  33.915   7.904
 1169POPC   C4A18954  11.932  34.160   7.672
 1169POPC   C1B18955  11.780  33.716   8.592
 1169POPC   C2B18956  11.853  33.853   8.159
 1169POPC   C3B18957  11.892  33.662   7.730
 1169POPC   C4B18958  11.706  33.758   7.329
 1170POPC   NC318959  21.350  28.197   9.632
 1170POPC   PO418960  21.168  28.826   9.557
 1170POPC   GL118961  21.466  28.567   9.279
 1170POPC   GL218962  21.216  28.486   9.062
 1170POPC   C1A18963  21.666  28.466   8.867
 1170POPC   D2A18964  21.417  28.311   8.529
 1170POPC   C3A18965  21.361  28.370   8.089
 1170POPC   C4A18966  21.501  28.070   7.758
 1170POPC   C1B18967  20.990  28.203   8.802
 1170POPC   C2B18968  20.851  28.037   8.424
 1170POPC   C3B18969  20.986  27.956   8.018
 1170POPC   C4B18970  21.019  28.239   7.718
 1171POPC   NC318971   4.472  10.384   9.836
 1171POPC   PO418972   3.975  10.782   9.817
 1171POPC   GL118973   4.187  10.668   9.403
 1171POPC   GL218974   4.563  10.543   9.356
 1171POPC   C1A18975   4.102  10.696   8.941
 1171POPC   D2A18976   4.262  10.945   8.585
 1171POPC   C3A18977   4.214  10.816   8.133
 1171POPC   C4A18978   3.953  10.545   7.828
 1171POPC   C1B18979   4.605  10.531   8.887
 1171POPC   C2B18980   4.494  10.501   8.441
 1171POPC   C3B18981   4.455  10.381   7.991
 1171POPC   C4B18982   4.662  10.276   7.585
 1172POPC   NC318983  22.348  10.163   9.411
 1172POPC   PO418984  21.933   9.555   9.504
 1172POPC   GL118985  22.099   9.457   9.126
 1172POPC   GL218986  22.325   9.729   9.084
 1172POPC   C1A18987  22.013   9.507   8.698
 1172POPC   D2A18988  22.061   9.312   8.304
 1172POPC   C3A18989  22.270   9.549   8.008
 1172POPC   C4A18990  22.608   9.543   7.701
 1172POPC   C1B18991  22.199  10.006   8.721
 1172POPC   C2B18992  22.311  10.093   8.282
 1172POPC   C3B18993  22.304  10.004   7.813
 1172POPC   C4B18994  21.904   9.733   7.719
 1173POPC   NC318995  35.226  24.189   9.503
 1173POPC   PO418996  35.212  24.846   9.362
 1173POPC   GL118997  35.295  24.530   9.086
 1173POPC   GL218998  35.083  24.222   9.019
 1173POPC   C1A18999  35.492  24.564   8.693
 1173POPC   D2A19000  35.384  24.459   8.280
 1173POPC   C3A19001  35.347  24.726   7.972
 1173POPC   C4A19002  35.286  24.514   7.610
 1173POPC   C1B19003  35.232  24.128   8.630
 1173POPC   C2B19004  35.171  23.997   8.202
 1173POPC   C3B19005  35.150  24.057   7.757
 1173POPC   C4B19006  35.103  23.948   7.333
 1174POPC   NC319007  13.396  42.723   9.546
 1174POPC   PO419008  13.886  42.278   9.605
 1174POPC   GL119009  13.762  42.455   9.196
 1174POPC   GL219010  13.396  42.396   9.176
 1174POPC   C1A19011  13.929  42.645   8.772
 1174POPC   D2A19012  13.825  42.827   8.348
 1174POPC   C3A19013  13.865  42.497   8.024
 1174POPC   C4A19014  13.983  42.395   7.601
 1174POPC   C1B19015  13.422  42.582   8.797
 1174POPC   C2B19016  13.547  42.410   8.430
 1174POPC   C3B19017  13.367  42.323   8.040
 1174POPC   C4B19018  13.493  42.312   7.647
 1175POPC   NC319019  41.127  19.934   9.456
 1175POPC   PO419020  40.409  20.170   9.573
 1175POPC   GL119021  40.692  20.039   9.205
 1175POPC   GL219022  40.629  19.733   9.032
 1175POPC   C1A19023  40.832  20.117   8.774
 1175POPC   D2A19024  40.653  20.072   8.362
 1175POPC   C3A19025  40.878  20.044   7.935
 1175POPC   C4A19026  41.069  19.856   7.550
 1175POPC   C1B19027  40.922  19.609   8.723
 1175POPC   C2B19028  41.044  19.734   8.330
 1175POPC   C3B19029  41.251  19.623   7.968
 1175POPC   C4B19030  41.203  19.358   7.592
 1176POPC   NC319031  23.891  13.888   9.458
 1176POPC   PO419032  23.577  13.306   9.392
 1176POPC   GL119033  23.825  13.518   9.093
 1176POPC   GL219034  23.667  13.875   8.996
 1176POPC   C1A19035  23.916  13.570   8.670
 1176POPC   D2A19036  23.755  13.593   8.270
 1176POPC   C3A19037  24.008  13.662   7.923
 1176POPC   C4A19038  23.999  13.333   7.657
 1176POPC   C1B19039  23.407  13.582   8.742
 1176POPC   C2B19040  23.251  13.515   8.311
 1176POPC   C3B19041  23.431  13.426   7.890
 1176POPC   C4B19042  23.608  13.713   7.594
 1177POPC   NC319043   0.987  30.901   9.276
 1177POPC   PO419044   1.462  31.181   9.661
 1177POPC   GL119045   1.449  31.051   9.156
 1177POPC   GL219046   1.411  30.749   8.999
 1177POPC   C1A19047   1.198  31.099   8.709
 1177POPC   D2A19048   1.355  30.871   8.338
 1177POPC   C3A19049   1.170  30.700   7.963
 1177POPC   C4A19050   1.225  30.881   7.544
 1177POPC   C1B19051   1.243  30.508   8.656
 1177POPC   C2B19052   1.415  30.340   8.257
 1177POPC   C3B19053   1.550  30.357   7.817
 1177POPC   C4B19054   1.411  30.417   7.340
 1178POPC   NC319055  22.488  15.683   9.715
 1178POPC   PO419056  22.255  16.241   9.838
 1178POPC   GL119057  22.296  16.115   9.377
 1178POPC   GL219058  22.412  15.776   9.220
 1178POPC   C1A19059  22.216  16.142   8.915
 1178POPC   D2A19060  22.387  16.011   8.492
 1178POPC   C3A19061  22.217  15.973   8.052
 1178POPC   C4A19062  22.435  16.068   7.684
 1178POPC   C1B19063  22.263  15.592   8.811
 1178POPC   C2B19064  22.138  15.560   8.359
 1178POPC   C3B19065  22.006  15.490   7.914
 1178POPC   C4B19066  22.203  15.629   7.551
 1179POPC   NC319067   9.357  19.888   9.631
 1179POPC   PO419068  10.056  19.771   9.499
 1179POPC   GL119069   9.925  20.071   9.200
 1179POPC   GL219070   9.563  20.140   9.225
 1179POPC   C1A19071   9.819  20.035   8.775
 1179POPC   D2A19072  10.016  20.249   8.432
 1179POPC   C3A19073   9.894  20.046   8.055
 1179POPC   C4A19074  10.041  19.851   7.667
 1179POPC   C1B19075   9.483  19.716   9.018
 1179POPC   C2B19076   9.489  19.640   8.585
 1179POPC   C3B19077   9.420  19.592   8.161
 1179POPC   C4B19078   9.521  19.787   7.793
 1180POPC   NC319079  30.471  32.551   9.508
 1180POPC   PO419080  30.770  31.967   9.360
 1180POPC   GL119081  30.630  32.121   9.045
 1180POPC   GL219082  30.801  32.451   9.107
 1180POPC   C1A19083  30.804  32.176   8.643
 1180POPC   D2A19084  30.884  32.060   8.243
 1180POPC   C3A19085  30.556  32.087   7.957
 1180POPC   C4A19086  30.900  32.121   7.696
 1180POPC   C1B19087  30.450  32.515   8.803
 1180POPC   C2B19088  30.492  32.648   8.383
 1180POPC   C3B19089  30.408  32.573   7.941
 1180POPC   C4B19090  30.534  32.434   7.515
 1181POPC   NC319091  34.937  41.459   9.610
 1181POPC   PO419092  34.370  41.787   9.508
 1181POPC   GL119093  34.592  41.501   9.239
 1181POPC   GL219094  34.875  41.739   9.171
 1181POPC   C1A19095  34.753  41.359   8.845
 1181POPC   D2A19096  34.544  41.552   8.469
 1181POPC   C3A19097  34.672  41.476   8.061
 1181POPC   C4A19098  34.536  41.562   7.651
 1181POPC   C1B19099  34.877  41.847   8.730
 1181POPC   C2B19100  34.976  41.808   8.290
 1181POPC   C3B19101  34.957  41.853   7.834
 1181POPC   C4B19102  34.871  41.789   7.348
 1182POPC   NC319103  11.030  17.296   9.766
 1182POPC   PO419104  11.155  17.939   9.620
 1182POPC   GL119105  11.248  17.691   9.196
 1182POPC   GL219106  11.185  17.330   9.206
 1182POPC   C1A19107  11.244  17.687   8.704
 1182POPC   D2A19108  11.573  17.701   8.342
 1182POPC   C3A19109  11.626  17.786   7.896
 1182POPC   C4A19110  11.385  17.725   7.533
 1182POPC   C1B19111  11.384  17.190   8.781
 1182POPC   C2B19112  11.232  17.294   8.361
 1182POPC   C3B19113  11.233  17.472   7.968
 1182POPC   C4B19114  11.221  17.248   7.542
 1183POPC   NC319115  13.951  15.521   9.322
 1183POPC   PO419116  13.658  14.943   9.455
 1183POPC   GL119117  13.648  15.156   9.096
 1183POPC   GL219118  13.450  15.433   9.195
 1183POPC   C1A19119  13.581  15.093   8.684
 1183POPC   D2A19120  13.816  15.044   8.305
 1183POPC   C3A19121  13.649  15.167   7.928
 1183POPC   C4A19122  13.285  14.983   7.724
 1183POPC   C1B19123  13.401  15.582   8.781
 1183POPC   C2B19124  13.478  15.458   8.343
 1183POPC   C3B19125  13.504  15.641   7.935
 1183POPC   C4B19126  13.454  15.446   7.512
 1184POPC   NC319127  35.298   2.605   9.495
 1184POPC   PO419128  34.910   2.106   9.463
 1184POPC   GL119129  35.147   1.840   9.100
 1184POPC   GL219130  34.823   1.680   9.036
 1184POPC   C1A19131  35.338   1.876   8.676
 1184POPC   D2A19132  35.446   2.235   8.402
 1184POPC   C3A19133  35.461   2.119   7.979
 1184POPC   C4A19134  35.673   1.678   7.891
 1184POPC   C1B19135  34.844   2.073   8.786
 1184POPC   C2B19136  34.953   2.092   8.375
 1184POPC   C3B19137  35.154   1.760   8.172
 1184POPC   C4B19138  35.194   1.772   7.735
 1185POPC   NC319139   0.716  42.347   9.664
 1185POPC   PO419140   0.185  42.389   9.276
 1185POPC   GL119141   0.506  42.344   9.006
 1185POPC   GL219142   0.644  42.022   8.966
 1185POPC   C1A19143   0.435  42.338   8.568
 1185POPC   D2A19144   0.197  42.260   8.223
 1185POPC   C3A19145   0.372  42.504   7.923
 1185POPC   C4A19146   0.800  42.606   7.797
 1185POPC   C1B19147   0.428  41.841   8.692
 1185POPC   C2B19148   0.703  41.917   8.402
 1185POPC   C3B19149   0.654  42.107   8.017
 1185POPC   C4B19150   0.449  41.936   7.646
 1186POPC   NC319151   0.390  41.993   9.397
 1186POPC   PO419152   0.875  41.688   9.769
 1186POPC   GL119153   0.703  41.602   9.279
 1186POPC   GL219154   0.358  41.556   9.128
 1186POPC   C1A19155   0.802  41.515   8.845
 1186POPC   D2A19156   0.613  41.399   8.457
 1186POPC   C3A19157   0.477  41.615   8.089
 1186POPC   C4A19158   0.590  41.419   7.742
 1186POPC   C1B19159   0.145  41.416   8.730
 1186POPC   C2B19160   0.151  41.254   8.313
 1186POPC   C3B19161   0.061  41.386   7.918
 1186POPC   C4B19162   0.171  41.216   7.555
 1187POPC   NC319163   3.007   8.594   9.430
 1187POPC   PO419164   2.804   9.212   9.475
 1187POPC   GL119165   2.626   9.066   9.076
 1187POPC   GL219166   2.641   8.684   9.059
 1187POPC   C1A19167   2.603   8.980   8.640
 1187POPC   D2A19168   2.905   9.015   8.290
 1187POPC   C3A19169   2.683   8.967   7.887
 1187POPC   C4A19170   2.576   9.181   7.494
 1187POPC   C1B19171   2.990   8.664   8.716
 1187POPC   C2B19172   2.978   8.524   8.277
 1187POPC   C3B19173   3.136   8.759   7.892
 1187POPC   C4B19174   3.008   8.895   7.457
 1188POPC   NC319175   5.570   6.495   9.542
 1188POPC   PO419176   5.914   7.019   9.543
 1188POPC   GL119177   5.728   6.896   9.150
 1188POPC   GL219178   5.800   6.529   9.088
 1188POPC   C1A19179   5.751   6.823   8.699
 1188POPC   D2A19180   5.895   6.551   8.388
 1188POPC   C3A19181   5.891   6.649   7.988
 1188POPC   C4A19182   5.664   6.831   7.681
 1188POPC   C1B19183   5.517   6.374   8.725
 1188POPC   C2B19184   5.404   6.316   8.261
 1188POPC   C3B19185   5.518   6.319   7.800
 1188POPC   C4B19186   5.942   6.344   7.577
 1189POPC   NC319187  34.891  15.954   9.500
 1189POPC   PO419188  34.249  16.203   9.394
 1189POPC   GL119189  34.536  16.046   9.113
 1189POPC   GL219190  34.338  15.800   9.056
 1189POPC   C1A19191  34.517  16.036   8.658
 1189POPC   D2A19192  34.525  15.908   8.259
 1189POPC   C3A19193  34.627  16.012   7.828
 1189POPC   C4A19194  34.945  15.756   7.630
 1189POPC   C1B19195  34.495  15.531   8.774
 1189POPC   C2B19196  34.431  15.396   8.375
 1189POPC   C3B19197  34.450  15.522   7.965
 1189POPC   C4B19198  34.477  15.609   7.527
 1190POPC   NC319199   4.852  22.163   9.385
 1190POPC   PO419200   4.126  21.997   9.468
 1190POPC   GL119201   4.140  22.058   9.030
 1190POPC   GL219202   4.439  22.306   9.008
 1190POPC   C1A19203   4.167  22.079   8.563
 1190POPC   D2A19204   4.388  22.450   8.406
 1190POPC   C3A19205   4.261  22.511   7.983
 1190POPC   C4A19206   4.279  22.160   7.785
 1190POPC   C1B19207   4.661  22.063   8.673
 1190POPC   C2B19208   4.589  22.025   8.196
 1190POPC   C3B19209   4.643  21.817   7.785
 1190POPC   C4B19210   4.755  22.014   7.360
 1191POPC   NC319211  37.792  18.849   9.791
 1191POPC   PO419212  37.556  18.378   9.312
 1191POPC   GL119213  37.868  18.390   9.018
 1191POPC   GL219214  38.009  18.109   9.226
 1191POPC   C1A19215  37.845  18.676   8.661
 1191POPC   D2A19216  37.683  18.787   8.277
 1191POPC   C3A19217  37.776  18.497   7.963
 1191POPC   C4A19218  37.450  18.432   7.687
 1191POPC   C1B19219  37.839  17.939   8.839
 1191POPC   C2B19220  37.984  18.155   8.466
 1191POPC   C3B19221  38.027  18.031   8.022
 1191POPC   C4B19222  37.912  18.164   7.585
 1192POPC   NC319223  44.917  28.495   9.387
 1192POPC   PO419224  44.392  27.979   9.470
 1192POPC   GL119225  44.489  28.203   9.053
 1192POPC   GL219226  44.618  28.538   8.953
 1192POPC   C1A19227  44.557  28.180   8.597
 1192POPC   D2A19228  44.863  28.422   8.390
 1192POPC   C3A19229  44.919  28.226   8.021
 1192POPC   C4A19230  44.559  28.042   7.887
 1192POPC   C1B19231  44.394  28.896   8.744
 1192POPC   C2B19232  44.569  28.896   8.358
 1192POPC   C3B19233  44.551  28.585   8.026
 1192POPC   C4B19234  44.742  28.667   7.661
 1193POPC   NC319235  41.476  34.137   9.278
 1193POPC   PO419236  41.793  33.662   9.657
 1193POPC   GL119237  41.694  33.617   9.224
 1193POPC   GL219238  41.811  33.871   9.036
 1193POPC   C1A19239  41.804  33.401   8.835
 1193POPC   D2A19240  41.627  33.384   8.395
 1193POPC   C3A19241  41.836  33.549   8.004
 1193POPC   C4A19242  41.556  33.590   7.672
 1193POPC   C1B19243  41.611  34.067   8.671
 1193POPC   C2B19244  41.613  33.900   8.297
 1193POPC   C3B19245  41.720  34.047   7.906
 1193POPC   C4B19246  41.636  34.073   7.457
 1194POPC   NC319247  10.503  15.328   9.738
 1194POPC   PO419248  10.213  14.808   9.414
 1194POPC   GL119249  10.217  15.017   9.047
 1194POPC   GL219250  10.438  15.250   9.225
 1194POPC   C1A19251  10.124  15.058   8.589
 1194POPC   D2A19252  10.346  15.126   8.187
 1194POPC   C3A19253  10.395  15.216   7.768
 1194POPC   C4A19254  10.669  14.959   7.563
 1194POPC   C1B19255  10.636  15.204   8.838
 1194POPC   C2B19256  10.658  15.414   8.462
 1194POPC   C3B19257  10.841  15.325   8.074
 1194POPC   C4B19258  10.812  15.490   7.671
 1195POPC   NC319259  15.238  32.935   9.456
 1195POPC   PO419260  15.116  33.598   9.305
 1195POPC   GL119261  15.342  33.288   9.108
 1195POPC   GL219262  15.031  33.118   9.033
 1195POPC   C1A19263  15.470  33.024   8.774
 1195POPC   D2A19264  15.293  33.188   8.404
 1195POPC   C3A19265  15.457  33.036   8.038
 1195POPC   C4A19266  15.373  33.252   7.634
 1195POPC   C1B19267  15.005  32.786   8.726
 1195POPC   C2B19268  15.003  32.778   8.279
 1195POPC   C3B19269  14.972  32.980   7.885
 1195POPC   C4B19270  14.592  32.914   7.703
 1196POPC   NC319271  13.306  24.092   9.305
 1196POPC   PO419272  13.610  23.516   9.596
 1196POPC   GL119273  13.653  23.744   9.178
 1196POPC   GL219274  13.478  23.501   9.069
 1196POPC   C1A19275  13.454  23.924   8.737
 1196POPC   D2A19276  13.180  23.883   8.379
 1196POPC   C3A19277  13.351  23.945   7.963
 1196POPC   C4A19278  13.550  24.307   7.754
 1196POPC   C1B19279  13.745  23.531   8.701
 1196POPC   C2B19280  13.626  23.619   8.294
 1196POPC   C3B19281  13.939  23.478   8.011
 1196POPC   C4B19282  14.021  23.462   7.594
 1197POPC   NC319283  39.469  36.476   9.484
 1197POPC   PO419284  40.184  36.283   9.530
 1197POPC   GL119285  39.878  36.119   9.250
 1197POPC   GL219286  39.813  36.412   9.097
 1197POPC   C1A19287  39.828  35.951   8.833
 1197POPC   D2A19288  39.684  36.023   8.389
 1197POPC   C3A19289  39.946  35.848   8.063
 1197POPC   C4A19290  40.035  35.838   7.638
 1197POPC   C1B19291  39.914  36.408   8.649
 1197POPC   C2B19292  39.976  36.459   8.225
 1197POPC   C3B19293  39.990  36.304   7.817
 1197POPC   C4B19294  39.729  36.360   7.440
 1198POPC   NC319295  17.634  28.773   9.712
 1198POPC   PO419296  17.436  29.373   9.617
 1198POPC   GL119297  17.387  29.163   9.227
 1198POPC   GL219298  17.091  28.961   9.242
 1198POPC   C1A19299  17.641  29.160   8.848
 1198POPC   D2A19300  17.701  29.366   8.447
 1198POPC   C3A19301  17.495  29.215   8.058
 1198POPC   C4A19302  17.195  29.223   7.675
 1198POPC   C1B19303  17.227  28.838   8.828
 1198POPC   C2B19304  17.173  28.997   8.410
 1198POPC   C3B19305  17.185  28.823   8.002
 1198POPC   C4B19306  17.547  28.807   7.732
 1199POPC   NC319307  23.826   7.568   9.493
 1199POPC   PO419308  24.060   7.004   9.440
 1199POPC   GL119309  23.966   7.316   9.072
 1199POPC   GL219310  23.628   7.566   9.038
 1199POPC   C1A19311  23.979   7.525   8.682
 1199POPC   D2A19312  23.874   7.666   8.301
 1199POPC   C3A19313  24.148   7.428   8.061
 1199POPC   C4A19314  24.051   7.538   7.665
 1199POPC   C1B19315  23.502   7.260   8.757
 1199POPC   C2B19316  23.730   7.155   8.404
 1199POPC   C3B19317  23.661   7.280   8.007
 1199POPC   C4B19318  23.537   7.640   7.766
 1200POPC   NC319319   2.994   5.791   9.452
 1200POPC   PO419320   2.291   5.694   9.345
 1200POPC   GL119321   2.626   5.731   9.071
 1200POPC   GL219322   2.845   6.043   9.009
 1200POPC   C1A19323   2.608   5.777   8.636
 1200POPC   D2A19324   2.890   6.086   8.471
 1200POPC   C3A19325   2.846   5.902   8.097
 1200POPC   C4A19326   2.494   5.697   7.882
 1200POPC   C1B19327   3.068   5.694   8.808
 1200POPC   C2B19328   3.182   5.661   8.392
 1200POPC   C3B19329   3.232   5.585   7.938
 1200POPC   C4B19330   2.895   5.369   7.723
 1201POPC   NC319331  31.329  26.466   9.411
 1201POPC   PO419332  31.828  26.116   9.751
 1201POPC   GL119333  31.768  26.122   9.267
 1201POPC   GL219334  31.718  26.443   9.088
 1201POPC   C1A19335  31.789  26.068   8.771
 1201POPC   D2A19336  31.630  26.226   8.355
 1201POPC   C3A19337  31.554  25.951   7.957
 1201POPC   C4A19338  31.380  25.950   7.525
 1201POPC   C1B19339  31.338  26.358   8.786
 1201POPC   C2B19340  31.079  26.295   8.418
 1201POPC   C3B19341  31.239  26.368   8.007
 1201POPC   C4B19342  31.057  26.344   7.612
 1202POPC   NC319343  20.854  20.376   9.502
 1202POPC   PO419344  20.252  20.685   9.450
 1202POPC   GL119345  20.617  20.712   9.181
 1202POPC   GL219346  20.743  20.446   9.013
 1202POPC   C1A19347  20.741  20.882   8.801
 1202POPC   D2A19348  20.780  20.583   8.460
 1202POPC   C3A19349  20.738  20.766   8.043
 1202POPC   C4A19350  20.769  20.486   7.708
 1202POPC   C1B19351  20.341  20.503   8.767
 1202POPC   C2B19352  20.292  20.642   8.327
 1202POPC   C3B19353  20.453  20.333   8.065
 1202POPC   C4B19354  20.358  20.170   7.652
 1203POPC   NC319355   5.991  40.346   9.309
 1203POPC   PO419356   5.934  39.706   9.310
 1203POPC   GL119357   5.864  39.958   9.002
 1203POPC   GL219358   5.570  40.107   9.050
 1203POPC   C1A19359   5.938  39.927   8.611
 1203POPC   D2A19360   5.692  39.994   8.264
 1203POPC   C3A19361   5.917  40.347   8.096
 1203POPC   C4A19362   5.902  40.472   7.680
 1203POPC   C1B19363   5.423  39.802   8.701
 1203POPC   C2B19364   5.371  39.580   8.270
 1203POPC   C3B19365   5.548  39.629   7.847
 1203POPC   C4B19366   5.888  39.932   7.794
 1204POPC   NC319367  16.330  19.418   9.587
 1204POPC   PO419368  17.034  19.198   9.725
 1204POPC   GL119369  16.837  19.277   9.251
 1204POPC   GL219370  16.750  18.999   9.091
 1204POPC   C1A19371  16.832  19.359   8.774
 1204POPC   D2A19372  16.812  19.048   8.433
 1204POPC   C3A19373  16.825  19.212   7.996
 1204POPC   C4A19374  16.545  19.383   7.675
 1204POPC   C1B19375  16.469  18.812   8.830
 1204POPC   C2B19376  16.537  18.622   8.447
 1204POPC   C3B19377  16.669  18.715   8.045
 1204POPC   C4B19378  16.348  18.912   7.850
 1205POPC   NC319379  37.928   3.720   9.423
 1205POPC   PO419380  37.645   4.357   9.650
 1205POPC   GL119381  37.674   4.297   9.200
 1205POPC   GL219382  37.566   3.987   9.175
 1205POPC   C1A19383  37.780   4.264   8.742
 1205POPC   D2A19384  37.979   4.489   8.372
 1205POPC   C3A19385  38.114   4.262   8.010
 1205POPC   C4A19386  37.879   4.479   7.709
 1205POPC   C1B19387  37.325   3.885   8.810
 1205POPC   C2B19388  37.470   4.003   8.415
 1205POPC   C3B19389  37.575   4.274   8.082
 1205POPC   C4B19390  37.474   4.176   7.660
 1206POPC   NC319391  22.484  30.268   9.485
 1206POPC   PO419392  22.850  29.622   9.393
 1206POPC   GL119393  22.967  29.833   9.067
 1206POPC   GL219394  22.799  30.106   9.128
 1206POPC   C1A19395  22.909  29.854   8.631
 1206POPC   D2A19396  23.013  29.728   8.213
 1206POPC   C3A19397  22.920  29.972   7.882
 1206POPC   C4A19398  22.581  30.080   7.655
 1206POPC   C1B19399  22.917  30.353   8.773
 1206POPC   C2B19400  23.014  30.253   8.343
 1206POPC   C3B19401  22.989  30.460   7.953
 1206POPC   C4B19402  23.061  30.328   7.537
 1207POPC   NC319403  39.572  33.706   9.545
 1207POPC   PO419404  38.939  33.548   9.407
 1207POPC   GL119405  39.091  33.648   9.036
 1207POPC   GL219406  39.356  33.813   9.106
 1207POPC   C1A19407  39.228  33.557   8.646
 1207POPC   D2A19408  39.063  33.816   8.355
 1207POPC   C3A19409  39.230  33.835   8.000
 1207POPC   C4A19410  38.994  33.855   7.672
 1207POPC   C1B19411  39.581  33.898   8.759
 1207POPC   C2B19412  39.626  33.738   8.327
 1207POPC   C3B19413  39.684  33.626   7.890
 1207POPC   C4B19414  39.469  33.654   7.462
 1208POPC   NC319415  38.107   6.250   9.514
 1208POPC   PO419416  38.417   6.921   9.651
 1208POPC   GL119417  38.389   6.713   9.221
 1208POPC   GL219418  38.717   6.566   9.183
 1208POPC   C1A19419  38.437   6.639   8.736
 1208POPC   D2A19420  38.363   6.472   8.301
 1208POPC   C3A19421  38.236   6.768   7.913
 1208POPC   C4A19422  38.108   6.700   7.454
 1208POPC   C1B19423  38.846   6.260   8.856
 1208POPC   C2B19424  38.892   6.316   8.405
 1208POPC   C3B19425  38.707   6.324   7.964
 1208POPC   C4B19426  38.577   6.570   7.613
 1209POPC   NC319427  14.696  33.660   9.495
 1209POPC   PO419428  13.993  33.759   9.460
 1209POPC   GL119429  14.338  33.680   9.104
 1209POPC   GL219430  14.589  33.399   9.078
 1209POPC   C1A19431  14.392  33.610   8.631
 1209POPC   D2A19432  14.322  33.833   8.223
 1209POPC   C3A19433  14.558  33.941   7.850
 1209POPC   C4A19434  14.350  34.084   7.444
 1209POPC   C1B19435  14.877  33.487   8.719
 1209POPC   C2B19436  14.820  33.515   8.292
 1209POPC   C3B19437  15.057  33.517   7.932
 1209POPC   C4B19438  15.199  33.750   7.558
 1210POPC   NC319439  20.972  39.931   9.425
 1210POPC   PO419440  21.466  40.326   9.658
 1210POPC   GL119441  21.334  40.263   9.231
 1210POPC   GL219442  21.446  39.914   9.170
 1210POPC   C1A19443  21.457  40.300   8.780
 1210POPC   D2A19444  21.462  39.995   8.418
 1210POPC   C3A19445  21.284  40.057   8.014
 1210POPC   C4A19446  21.593  40.059   7.662
 1210POPC   C1B19447  21.201  39.794   8.808
 1210POPC   C2B19448  21.017  39.699   8.409
 1210POPC   C3B19449  21.035  39.532   7.980
 1210POPC   C4B19450  21.209  39.728   7.632
 1211POPC   NC319451  35.426  33.993  10.219
 1211POPC   PO419452  35.558  33.931   9.531
 1211POPC   GL119453  35.561  33.774   9.118
 1211POPC   GL219454  35.275  33.569   9.170
 1211POPC   C1A19455  35.735  33.839   8.714
 1211POPC   D2A19456  35.457  33.948   8.388
 1211POPC   C3A19457  35.665  33.912   8.011
 1211POPC   C4A19458  35.548  33.761   7.592
 1211POPC   C1B19459  35.150  33.397   8.777
 1211POPC   C2B19460  35.056  33.574   8.418
 1211POPC   C3B19461  35.219  33.650   8.032
 1211POPC   C4B19462  35.075  33.862   7.675
 1212POPC   NC319463  35.648  31.058   9.424
 1212POPC   PO419464  35.206  30.499   9.446
 1212POPC   GL119465  35.240  30.771   9.112
 1212POPC   GL219466  35.570  30.673   9.094
 1212POPC   C1A19467  35.269  30.649   8.680
 1212POPC   D2A19468  35.274  30.300   8.458
 1212POPC   C3A19469  35.253  30.461   8.069
 1212POPC   C4A19470  35.276  30.844   7.849
 1212POPC   C1B19471  35.657  30.362   8.809
 1212POPC   C2B19472  35.798  30.383   8.394
 1212POPC   C3B19473  35.712  30.713   8.102
 1212POPC   C4B19474  35.761  30.699   7.675
 1213POPC   NC319475  32.541   4.242   9.228
 1213POPC   PO419476  31.963   4.418   9.595
 1213POPC   GL119477  32.058   4.426   9.170
 1213POPC   GL219478  32.081   4.120   9.068
 1213POPC   C1A19479  32.082   4.471   8.708
 1213POPC   D2A19480  32.329   4.339   8.366
 1213POPC   C3A19481  32.193   4.515   7.977
 1213POPC   C4A19482  32.050   4.608   7.552
 1213POPC   C1B19483  32.293   3.929   8.716
 1213POPC   C2B19484  32.462   3.843   8.334
 1213POPC   C3B19485  32.450   4.040   7.934
 1213POPC   C4B19486  32.385   4.229   7.554
 1214POPC   NC319487  21.708  13.178   9.555
 1214POPC   PO419488  21.250  12.628   9.468
 1214POPC   GL119489  21.506  12.580   9.068
 1214POPC   GL219490  21.592  12.879   9.164
 1214POPC   C1A19491  21.607  12.514   8.613
 1214POPC   D2A19492  21.496  12.409   8.182
 1214POPC   C3A19493  21.579  12.679   7.821
 1214POPC   C4A19494  21.206  12.912   7.606
 1214POPC   C1B19495  21.666  13.007   8.765
 1214POPC   C2B19496  21.662  12.949   8.324
 1214POPC   C3B19497  21.465  13.159   7.975
 1214POPC   C4B19498  21.452  13.445   7.627
 1215POPC   NC319499   6.320  21.625   9.730
 1215POPC   PO419500   6.991  21.535   9.475
 1215POPC   GL119501   6.853  21.492   9.068
 1215POPC   GL219502   6.551  21.339   9.151
 1215POPC   C1A19503   6.691  21.436   8.649
 1215POPC   D2A19504   6.314  21.558   8.409
 1215POPC   C3A19505   6.422  21.633   7.985
 1215POPC   C4A19506   6.696  21.737   7.615
 1215POPC   C1B19507   6.354  21.086   8.809
 1215POPC   C2B19508   6.457  21.024   8.384
 1215POPC   C3B19509   6.306  21.143   7.984
 1215POPC   C4B19510   6.346  21.356   7.560
 1216POPC   NC319511  30.033  34.470   9.696
 1216POPC   PO419512  29.703  34.895   9.432
 1216POPC   GL119513  29.842  34.726   9.059
 1216POPC   GL219514  30.084  34.490   9.161
 1216POPC   C1A19515  29.884  34.666   8.613
 1216POPC   D2A19516  30.267  34.594   8.420
 1216POPC   C3A19517  30.081  34.518   8.050
 1216POPC   C4A19518  29.707  34.644   7.784
 1216POPC   C1B19519  29.817  34.240   8.847
 1216POPC   C2B19520  29.654  34.201   8.390
 1216POPC   C3B19521  29.794  34.136   7.946
 1216POPC   C4B19522  29.842  34.243   7.493
 1217POPC   NC319523   5.464  28.455   9.460
 1217POPC   PO419524   4.869  28.236   9.651
 1217POPC   GL119525   4.973  28.446   9.259
 1217POPC   GL219526   4.993  28.162   9.086
 1217POPC   C1A19527   5.216  28.544   8.861
 1217POPC   D2A19528   5.183  28.271   8.506
 1217POPC   C3A19529   5.038  28.426   8.111
 1217POPC   C4A19530   5.241  28.308   7.746
 1217POPC   C1B19531   4.872  27.889   8.738
 1217POPC   C2B19532   4.823  27.955   8.309
 1217POPC   C3B19533   4.703  28.071   7.902
 1217POPC   C4B19534   4.685  28.044   7.433
 1218POPC   NC319535  39.111  21.209   9.591
 1218POPC   PO419536  39.605  21.563   9.482
 1218POPC   GL119537  39.398  21.313   9.126
 1218POPC   GL219538  39.011  21.306   9.103
 1218POPC   C1A19539  39.455  21.315   8.658
 1218POPC   D2A19540  39.564  21.691   8.403
 1218POPC   C3A19541  39.393  21.619   8.044
 1218POPC   C4A19542  39.384  21.153   7.967
 1218POPC   C1B19543  39.093  21.638   8.827
 1218POPC   C2B19544  39.028  21.567   8.413
 1218POPC   C3B19545  38.908  21.411   8.031
 1218POPC   C4B19546  38.941  21.084   7.738
 1219POPC   NC319547  15.389  29.514   9.246
 1219POPC   PO419548  14.927  29.085   9.604
 1219POPC   GL119549  15.060  29.076   9.210
 1219POPC   GL219550  15.412  29.002   9.301
 1219POPC   C1A19551  14.972  29.246   8.789
 1219POPC   D2A19552  15.238  29.260   8.417
 1219POPC   C3A19553  14.921  29.197   8.104
 1219POPC   C4A19554  14.880  29.330   7.715
 1219POPC   C1B19555  15.389  28.945   8.839
 1219POPC   C2B19556  15.498  28.811   8.440
 1219POPC   C3B19557  15.446  28.705   8.009
 1219POPC   C4B19558  15.270  28.996   7.731
 1220POPC   NC319559   0.759  17.376   9.553
 1220POPC   PO419560   0.349  17.776   9.246
 1220POPC   GL119561   0.509  17.601   8.983
 1220POPC   GL219562   0.435  17.289   9.110
 1220POPC   C1A19563   0.589  17.823   8.609
 1220POPC   D2A19564   0.720  17.805   8.197
 1220POPC   C3A19565   0.408  17.795   7.910
 1220POPC   C4A19566   0.064  17.687   7.690
 1220POPC   C1B19567   0.553  17.209   8.680
 1220POPC   C2B19568   0.482  17.384   8.310
 1220POPC   C3B19569   0.351  17.291   7.920
 1220POPC   C4B19570   0.491  17.011   7.662
 1221POPC   NC319571  19.555  41.226   9.483
 1221POPC   PO419572  19.754  41.915   9.495
 1221POPC   GL119573  19.757  41.601   9.136
 1221POPC   GL219574  19.545  41.810   8.960
 1221POPC   C1A19575  20.056  41.375   8.822
 1221POPC   D2A19576  20.070  41.204   8.386
 1221POPC   C3A19577  20.044  41.439   7.967
 1221POPC   C4A19578  20.164  41.680   7.595
 1221POPC   C1B19579  19.656  41.576   8.594
 1221POPC   C2B19580  19.459  41.237   8.343
 1221POPC   C3B19581  19.556  41.265   7.956
 1221POPC   C4B19582  19.484  41.675   7.797
 1222POPC   NC319583  40.856  27.983   9.801
 1222POPC   PO419584  40.558  28.524   9.457
 1222POPC   GL119585  40.913  28.458   9.137
 1222POPC   GL219586  41.176  28.717   9.117
 1222POPC   C1A19587  40.899  28.458   8.678
 1222POPC   D2A19588  40.603  28.524   8.385
 1222POPC   C3A19589  40.581  28.218   8.101
 1222POPC   C4A19590  40.787  28.258   7.735
 1222POPC   C1B19591  41.263  28.876   8.739
 1222POPC   C2B19592  41.344  28.630   8.429
 1222POPC   C3B19593  41.089  28.470   8.106
 1222POPC   C4B19594  41.142  28.664   7.696
 1223POPC   NC319595  33.885  28.334   9.452
 1223POPC   PO419596  33.266  28.374   9.727
 1223POPC   GL119597  33.412  28.355   9.227
 1223POPC   GL219598  33.728  28.449   9.007
 1223POPC   C1A19599  33.348  28.269   8.765
 1223POPC   D2A19600  33.601  28.479   8.453
 1223POPC   C3A19601  33.685  28.228   8.084
 1223POPC   C4A19602  33.778  28.311   7.633
 1223POPC   C1B19603  34.049  28.513   8.731
 1223POPC   C2B19604  34.073  28.704   8.340
 1223POPC   C3B19605  33.880  28.685   7.960
 1223POPC   C4B19606  33.996  28.785   7.536
 1224POPC   NC319607  41.901  25.615   9.705
 1224POPC   PO419608  41.276  25.929   9.589
 1224POPC   GL119609  41.372  25.731   9.165
 1224POPC   GL219610  41.614  25.428   9.239
 1224POPC   C1A19611  41.362  25.538   8.755
 1224POPC   D2A19612  41.471  25.276   8.415
 1224POPC   C3A19613  41.439  25.485   8.013
 1224POPC   C4A19614  41.589  25.225   7.707
 1224POPC   C1B19615  41.735  25.197   8.883
 1224POPC   C2B19616  41.976  25.311   8.551
 1224POPC   C3B19617  41.917  25.354   8.119
 1224POPC   C4B19618  42.083  25.268   7.722
 1225POPC   NC319619  12.451  30.485   9.473
 1225POPC   PO419620  12.958  30.937   9.597
 1225POPC   GL119621  12.947  30.878   9.172
 1225POPC   GL219622  12.748  30.589   9.068
 1225POPC   C1A19623  12.834  30.969   8.748
 1225POPC   D2A19624  12.978  30.889   8.313
 1225POPC   C3A19625  12.667  30.919   7.968
 1225POPC   C4A19626  12.911  30.868   7.610
 1225POPC   C1B19627  12.665  30.278   8.765
 1225POPC   C2B19628  12.796  30.336   8.385
 1225POPC   C3B19629  12.881  30.461   8.005
 1225POPC   C4B19630  12.663  30.423   7.650
 1226POPC   NC319631  44.827  21.095   9.450
 1226POPC   PO419632  44.825  21.789   9.623
 1226POPC   GL119633  44.623  21.603   9.266
 1226POPC   GL219634  44.924  21.568   9.133
 1226POPC   C1A19635  44.514  21.409   8.820
 1226POPC   D2A19636  44.259  21.312   8.403
 1226POPC   C3A19637  44.397  21.350   7.960
 1226POPC   C4A19638  44.531  20.961   7.791
 1226POPC   C1B19639   0.030  21.458   8.741
 1226POPC   C2B19640  44.791  21.413   8.369
 1226POPC   C3B19641  44.897  21.276   7.958
 1226POPC   C4B19642   0.114  21.504   7.640
 1227POPC   NC319643  31.114  24.854   9.411
 1227POPC   PO419644  30.732  24.368   9.738
 1227POPC   GL119645  30.813  24.415   9.260
 1227POPC   GL219646  31.107  24.486   9.052
 1227POPC   C1A19647  30.591  24.451   8.844
 1227POPC   D2A19648  30.677  24.588   8.430
 1227POPC   C3A19649  30.587  24.359   8.062
 1227POPC   C4A19650  30.389  24.631   7.815
 1227POPC   C1B19651  30.940  24.843   8.799
 1227POPC   C2B19652  30.996  24.985   8.385
 1227POPC   C3B19653  30.851  24.838   7.986
 1227POPC   C4B19654  30.899  24.616   7.584
 1228POPC   NC319655  14.203  32.586   9.482
 1228POPC   PO419656  14.740  33.098   9.524
 1228POPC   GL119657  14.585  32.887   9.112
 1228POPC   GL219658  14.277  32.764   8.983
 1228POPC   C1A19659  14.559  33.076   8.668
 1228POPC   D2A19660  14.571  33.066   8.204
 1228POPC   C3A19661  14.528  33.398   7.866
 1228POPC   C4A19662  14.318  33.313   7.443
 1228POPC   C1B19663  14.026  33.026   8.695
 1228POPC   C2B19664  13.936  33.060   8.282
 1228POPC   C3B19665  14.142  33.054   7.896
 1228POPC   C4B19666  14.138  32.842   7.490
 1229POPC   NC319667  16.190  10.397   9.332
 1229POPC   PO419668  15.621  10.189   9.547
 1229POPC   GL119669  15.692  10.421   9.149
 1229POPC   GL219670  15.945  10.277   8.900
 1229POPC   C1A19671  15.767  10.744   8.813
 1229POPC   D2A19672  15.708  10.805   8.364
 1229POPC   C3A19673  15.917  10.580   8.037
 1229POPC   C4A19674  15.795  10.202   7.806
 1229POPC   C1B19675  16.355  10.469   8.708
 1229POPC   C2B19676  16.640  10.711   8.417
 1229POPC   C3B19677  16.448  10.602   8.079
 1229POPC   C4B19678  16.302  10.492   7.700
 1230POPC   NC319679  18.348  26.124   9.947
 1230POPC   PO419680  18.087  25.764   9.457
 1230POPC   GL119681  18.440  25.844   9.159
 1230POPC   GL219682  18.318  26.137   9.142
 1230POPC   C1A19683  18.542  25.927   8.709
 1230POPC   D2A19684  18.275  25.966   8.329
 1230POPC   C3A19685  18.262  25.706   7.989
 1230POPC   C4A19686  18.508  25.830   7.677
 1230POPC   C1B19687  18.038  26.017   8.776
 1230POPC   C2B19688  17.812  26.165   8.387
 1230POPC   C3B19689  17.820  26.001   7.993
 1230POPC   C4B19690  18.073  26.076   7.657
 1231POPC   NC319691   3.397   7.245   9.461
 1231POPC   PO419692   3.290   7.876   9.377
 1231POPC   GL119693   3.364   7.582   9.092
 1231POPC   GL219694   3.736   7.501   9.191
 1231POPC   C1A19695   3.466   7.280   8.802
 1231POPC   D2A19696   3.757   7.300   8.491
 1231POPC   C3A19697   3.592   7.347   8.093
 1231POPC   C4A19698   3.245   7.440   7.845
 1231POPC   C1B19699   3.972   7.640   8.818
 1231POPC   C2B19700   4.066   7.796   8.386
 1231POPC   C3B19701   4.050   7.677   7.950
 1231POPC   C4B19702   3.977   7.282   7.771
 1232POPC   NC319703  38.014  35.790   9.594
 1232POPC   PO419704  37.629  36.352   9.645
 1232POPC   GL119705  37.611  36.198   9.223
 1232POPC   GL219706  37.685  35.855   9.175
 1232POPC   C1A19707  37.432  36.319   8.835
 1232POPC   D2A19708  37.397  36.617   8.486
 1232POPC   C3A19709  37.422  36.404   8.102
 1232POPC   C4A19710  37.447  36.232   7.703
 1232POPC   C1B19711  37.444  35.798   8.782
 1232POPC   C2B19712  37.508  35.905   8.322
 1232POPC   C3B19713  37.508  35.750   7.867
 1232POPC   C4B19714  37.505  35.843   7.385
 1233POPC   NC319715  43.003  19.237   9.486
 1233POPC   PO419716  42.802  18.631   9.483
 1233POPC   GL119717  42.882  18.863   9.093
 1233POPC   GL219718  43.207  19.085   9.043
 1233POPC   C1A19719  42.884  18.962   8.654
 1233POPC   D2A19720  43.284  19.007   8.403
 1233POPC   C3A19721  43.199  18.846   7.978
 1233POPC   C4A19722  42.993  19.091   7.673
 1233POPC   C1B19723  43.442  19.374   8.761
 1233POPC   C2B19724  43.468  19.542   8.373
 1233POPC   C3B19725  43.302  19.381   8.003
 1233POPC   C4B19726  43.419  19.353   7.597
 1234POPC   NC319727  27.444   1.077   9.370
 1234POPC   PO419728  27.998   1.316   9.649
 1234POPC   GL119729  27.845   1.403   9.212
 1234POPC   GL219730  27.481   1.511   9.098
 1234POPC   C1A19731  27.890   1.313   8.776
 1234POPC   D2A19732  27.781   1.022   8.440
 1234POPC   C3A19733  27.705   1.164   8.027
 1234POPC   C4A19734  27.554   0.897   7.693
 1234POPC   C1B19735  27.399   1.240   8.711
 1234POPC   C2B19736  27.251   1.304   8.285
 1234POPC   C3B19737  27.381   1.528   7.913
 1234POPC   C4B19738  27.335   1.320   7.502
 1235POPC   NC319739  17.412  44.943   9.555
 1235POPC   PO419740  17.907  44.464   9.484
 1235POPC   GL119741  17.603  44.536   9.153
 1235POPC   GL219742  17.816  44.241   9.029
 1235POPC   C1A19743  17.274  44.722   8.824
 1235POPC   D2A19744  17.176  44.598   8.360
 1235POPC   C3A19745  17.352  44.879   8.020
 1235POPC   C4A19746  17.369  44.966   7.526
 1235POPC   C1B19747  17.569  44.351   8.665
 1235POPC   C2B19748  17.716  44.422   8.248
 1235POPC   C3B19749  17.749  44.605   7.850
 1235POPC   C4B19750  17.408  44.481   7.641
 1236POPC   NC319751   8.420  21.843   9.415
 1236POPC   PO419752   8.320  22.480   9.500
 1236POPC   GL119753   8.382  22.258   9.123
 1236POPC   GL219754   8.046  22.100   9.108
 1236POPC   C1A19755   8.411  22.111   8.706
 1236POPC   D2A19756   8.366  22.381   8.354
 1236POPC   C3A19757   8.240  22.265   7.948
 1236POPC   C4A19758   8.417  22.372   7.571
 1236POPC   C1B19759   7.935  22.315   8.719
 1236POPC   C2B19760   7.866  22.189   8.306
 1236POPC   C3B19761   7.764  21.870   7.989
 1236POPC   C4B19762   8.115  21.808   7.747
 1237POPC   NC319763  28.934  23.728   9.477
 1237POPC   PO419764  29.522  24.043   9.623
 1237POPC   GL119765  29.332  23.864   9.238
 1237POPC   GL219766  29.339  24.122   9.131
 1237POPC   C1A19767  29.102  23.819   8.813
 1237POPC   D2A19768  29.140  23.618   8.417
 1237POPC   C3A19769  28.866  23.591   8.090
 1237POPC   C4A19770  29.002  23.490   7.640
 1237POPC   C1B19771  29.562  24.061   8.802
 1237POPC   C2B19772  29.470  24.017   8.418
 1237POPC   C3B19773  29.371  23.908   8.025
 1237POPC   C4B19774  29.033  23.965   7.792
 1238POPC   NC319775  17.467   8.621   9.668
 1238POPC   PO419776  17.575   7.974   9.540
 1238POPC   GL119777  17.570   8.223   9.178
 1238POPC   GL219778  17.243   8.277   9.009
 1238POPC   C1A19779  17.607   8.036   8.761
 1238POPC   D2A19780  17.534   7.932   8.331
 1238POPC   C3A19781  17.746   8.199   8.008
 1238POPC   C4A19782  17.736   7.949   7.662
 1238POPC   C1B19783  17.094   8.088   8.651
 1238POPC   C2B19784  17.038   8.156   8.227
 1238POPC   C3B19785  17.260   8.054   7.894
 1238POPC   C4B19786  17.327   8.280   7.524
 1239POPC   NC319787  26.683   1.201   9.454
 1239POPC   PO419788  27.123   0.725   9.432
 1239POPC   GL119789  26.872   0.867   9.102
 1239POPC   GL219790  27.034   1.187   9.061
 1239POPC   C1A19791  26.752   1.014   8.686
 1239POPC   D2A19792  26.967   0.873   8.352
 1239POPC   C3A19793  27.022   0.993   7.921
 1239POPC   C4A19794  26.796   1.143   7.564
 1239POPC   C1B19795  26.973   1.491   8.704
 1239POPC   C2B19796  26.864   1.663   8.299
 1239POPC   C3B19797  26.892   1.492   7.912
 1239POPC   C4B19798  26.914   1.624   7.488
 1240POPC   NC319799  14.191  42.779   9.383
 1240POPC   PO419800  14.567  42.544   9.896
 1240POPC   GL119801  14.528  42.395   9.429
 1240POPC   GL219802  14.233  42.237   9.246
 1240POPC   C1A19803  14.533  42.502   8.944
 1240POPC   D2A19804  14.460  42.249   8.600
 1240POPC   C3A19805  14.591  42.330   8.168
 1240POPC   C4A19806  14.557  42.531   7.785
 1240POPC   C1B19807  14.009  42.148   8.840
 1240POPC   C2B19808  13.998  42.150   8.384
 1240POPC   C3B19809  14.188  42.087   7.965
 1240POPC   C4B19810  14.064  41.896   7.587
 1241POPC   NC319811  27.513  23.196  10.000
 1241POPC   PO419812  27.809  22.747   9.635
 1241POPC   GL119813  27.675  22.839   9.216
 1241POPC   GL219814  27.369  22.660   9.168
 1241POPC   C1A19815  27.619  22.846   8.751
 1241POPC   D2A19816  27.705  22.768   8.318
 1241POPC   C3A19817  27.485  23.020   8.012
 1241POPC   C4A19818  27.457  23.224   7.605
 1241POPC   C1B19819  27.123  22.677   8.775
 1241POPC   C2B19820  27.163  22.777   8.334
 1241POPC   C3B19821  27.082  22.686   7.873
 1241POPC   C4B19822  27.185  22.811   7.432
 1242POPC   NC319823  14.451  24.689   9.423
 1242POPC   PO419824  14.447  24.045   9.456
 1242POPC   GL119825  14.399  24.274   9.055
 1242POPC   GL219826  14.460  24.632   8.915
 1242POPC   C1A19827  14.396  24.219   8.613
 1242POPC   D2A19828  14.374  24.558   8.319
 1242POPC   C3A19829  14.532  24.414   7.913
 1242POPC   C4A19830  14.630  24.144   7.578
 1242POPC   C1B19831  14.177  24.933   8.713
 1242POPC   C2B19832  13.997  24.939   8.317
 1242POPC   C3B19833  14.234  24.842   7.923
 1242POPC   C4B19834  14.271  24.776   7.480
 1243POPC   NC319835   2.003  29.511   9.505
 1243POPC   PO419836   1.880  28.839   9.513
 1243POPC   GL119837   1.988  29.116   9.184
 1243POPC   GL219838   2.297  29.127   9.035
 1243POPC   C1A19839   1.834  29.177   8.789
 1243POPC   D2A19840   1.777  28.920   8.461
 1243POPC   C3A19841   2.022  29.138   8.216
 1243POPC   C4A19842   1.852  29.308   7.866
 1243POPC   C1B19843   2.289  28.898   8.649
 1243POPC   C2B19844   2.480  28.801   8.267
 1243POPC   C3B19845   2.328  28.957   7.855
 1243POPC   C4B19846   2.344  29.411   7.780
 1244POPC   NC319847  33.640  37.433   9.576
 1244POPC   PO419848  33.855  38.013   9.400
 1244POPC   GL119849  33.837  37.683   9.124
 1244POPC   GL219850  33.521  37.495   9.087
 1244POPC   C1A19851  33.878  37.763   8.684
 1244POPC   D2A19852  33.828  37.535   8.319
 1244POPC   C3A19853  33.887  37.738   7.945
 1244POPC   C4A19854  33.603  37.467   7.649
 1244POPC   C1B19855  33.406  37.857   8.883
 1244POPC   C2B19856  33.361  37.847   8.454
 1244POPC   C3B19857  33.407  37.770   8.033
 1244POPC   C4B19858  33.546  37.978   7.623
 1245POPC   NC319859  35.330  34.772   9.598
 1245POPC   PO419860  35.519  35.384   9.593
 1245POPC   GL119861  35.507  35.322   9.186
 1245POPC   GL219862  35.185  35.160   9.261
 1245POPC   C1A19863  35.607  35.467   8.780
 1245POPC   D2A19864  35.782  35.337   8.397
 1245POPC   C3A19865  35.644  35.603   8.063
 1245POPC   C4A19866  35.609  35.358   7.665
 1245POPC   C1B19867  35.168  35.123   8.841
 1245POPC   C2B19868  35.266  35.238   8.453
 1245POPC   C3B19869  35.274  35.240   8.034
 1245POPC   C4B19870  35.012  35.252   7.697
 1246POPC   NC319871  35.475  44.501   9.648
 1246POPC   PO419872  34.882  44.742   9.407
 1246POPC   GL119873  35.184  44.536   9.197
 1246POPC   GL219874  35.413  44.792   9.164
 1246POPC   C1A19875  35.252  44.377   8.781
 1246POPC   D2A19876  35.430  44.453   8.369
 1246POPC   C3A19877  35.217  44.365   8.001
 1246POPC   C4A19878  35.310  44.330   7.548
 1246POPC   C1B19879  35.354  44.899   8.745
 1246POPC   C2B19880  35.634  44.927   8.400
 1246POPC   C3B19881  35.732  44.936   7.995
 1246POPC   C4B19882  35.486  44.826   7.647
 1247POPC   NC319883  21.554  19.662   9.497
 1247POPC   PO419884  21.303  20.258   9.475
 1247POPC   GL119885  21.460  20.060   9.133
 1247POPC   GL219886  21.636  20.351   9.016
 1247POPC   C1A19887  21.284  19.849   8.760
 1247POPC   D2A19888  21.060  20.019   8.403
 1247POPC   C3A19889  21.257  19.939   8.039
 1247POPC   C4A19890  21.263  19.601   7.796
 1247POPC   C1B19891  21.753  20.034   8.714
 1247POPC   C2B19892  21.679  19.828   8.340
 1247POPC   C3B19893  21.746  19.815   7.917
 1247POPC   C4B19894  21.572  19.931   7.532
 1248POPC   NC319895  17.194  21.272   9.760
 1248POPC   PO419896  17.508  21.714   9.524
 1248POPC   GL119897  17.375  21.684   9.169
 1248POPC   GL219898  17.211  21.336   9.237
 1248POPC   C1A19899  17.603  21.735   8.774
 1248POPC   D2A19900  17.793  21.593   8.378
 1248POPC   C3A19901  17.637  21.761   8.008
 1248POPC   C4A19902  17.469  21.637   7.651
 1248POPC   C1B19903  17.516  21.247   8.919
 1248POPC   C2B19904  17.414  21.228   8.497
 1248POPC   C3B19905  17.409  21.302   8.081
 1248POPC   C4B19906  17.436  21.029   7.737
 1249POPC   NC319907  25.097  18.554   9.520
 1249POPC   PO419908  25.542  18.071   9.667
 1249POPC   GL119909  25.412  18.216   9.239
 1249POPC   GL219910  25.051  18.175   9.146
 1249POPC   C1A19911  25.409  18.434   8.818
 1249POPC   D2A19912  25.085  18.318   8.505
 1249POPC   C3A19913  25.046  18.197   8.055
 1249POPC   C4A19914  25.201  18.370   7.663
 1249POPC   C1B19915  25.267  17.946   8.805
 1249POPC   C2B19916  25.453  17.817   8.415
 1249POPC   C3B19917  25.710  18.032   8.129
 1249POPC   C4B19918  25.692  18.230   7.721
 1250POPC   NC319919  21.760  30.524   9.549
 1250POPC   PO419920  22.336  30.709   9.460
 1250POPC   GL119921  22.109  30.464   9.167
 1250POPC   GL219922  22.341  30.276   8.992
 1250POPC   C1A19923  22.008  30.636   8.761
 1250POPC   D2A19924  22.200  30.578   8.394
 1250POPC   C3A19925  22.035  30.812   8.062
 1250POPC   C4A19926  22.173  30.875   7.656
 1250POPC   C1B19927  22.459  30.144   8.583
 1250POPC   C2B19928  22.461  30.185   8.137
 1250POPC   C3B19929  22.181  30.380   7.819
 1250POPC   C4B19930  21.884  30.474   7.464
 1251POPC   NC319931   1.562  13.711   9.545
 1251POPC   PO419932   0.957  13.356   9.545
 1251POPC   GL119933   1.180  13.586   9.218
 1251POPC   GL219934   1.506  13.441   9.135
 1251POPC   C1A19935   1.075  13.626   8.796
 1251POPC   D2A19936   1.058  13.487   8.386
 1251POPC   C3A19937   1.158  13.622   7.972
 1251POPC   C4A19938   0.842  13.785   7.686
 1251POPC   C1B19939   1.570  13.534   8.710
 1251POPC   C2B19940   1.542  13.377   8.295
 1251POPC   C3B19941   1.710  13.558   7.937
 1251POPC   C4B19942   1.617  13.443   7.515
 1252POPC   NC319943  28.834  22.078   9.445
 1252POPC   PO419944  29.368  22.408   9.500
 1252POPC   GL119945  29.184  22.381   9.097
 1252POPC   GL219946  28.865  22.461   9.130
 1252POPC   C1A19947  29.291  22.150   8.708
 1252POPC   D2A19948  29.386  21.943   8.286
 1252POPC   C3A19949  29.259  22.121   7.847
 1252POPC   C4A19950  29.336  22.262   7.394
 1252POPC   C1B19951  28.768  22.191   8.781
 1252POPC   C2B19952  28.909  22.141   8.377
 1252POPC   C3B19953  28.887  21.861   8.073
 1252POPC   C4B19954  28.579  21.841   7.774
 1253POPC   NC319955  43.949  33.327   9.506
 1253POPC   PO419956  44.251  32.696   9.672
 1253POPC   GL119957  43.898  32.833   9.371
 1253POPC   GL219958  44.034  33.019   9.102
 1253POPC   C1A19959  43.583  32.893   8.978
 1253POPC   D2A19960  43.794  33.005   8.569
 1253POPC   C3A19961  43.722  32.824   8.157
 1253POPC   C4A19962  43.837  33.007   7.741
 1253POPC   C1B19963  44.195  33.258   8.774
 1253POPC   C2B19964  44.149  33.329   8.368
 1253POPC   C3B19965  44.171  33.045   8.099
 1253POPC   C4B19966  44.392  32.965   7.750
 1254POPC   NC319967  27.294  13.348   9.329
 1254POPC   PO419968  26.687  13.490   9.511
 1254POPC   GL119969  26.771  13.650   9.081
 1254POPC   GL219970  26.996  13.410   8.925
 1254POPC   C1A19971  26.737  13.689   8.597
 1254POPC   D2A19972  26.727  13.304   8.327
 1254POPC   C3A19973  26.765  13.375   7.874
 1254POPC   C4A19974  26.621  13.749   7.656
 1254POPC   C1B19975  27.169  13.869   8.831
 1254POPC   C2B19976  27.069  14.064   8.448
 1254POPC   C3B19977  26.937  13.807   8.111
 1254POPC   C4B19978  27.112  13.898   7.716
 1255POPC   NC319979  17.891  31.521   9.610
 1255POPC   PO419980  17.277  31.607   9.360
 1255POPC   GL119981  17.497  31.365   9.070
 1255POPC   GL219982  17.763  31.613   9.133
 1255POPC   C1A19983  17.350  31.285   8.621
 1255POPC   D2A19984  17.324  31.075   8.209
 1255POPC   C3A19985  17.484  31.341   7.865
 1255POPC   C4A19986  17.312  31.755   7.726
 1255POPC   C1B19987  17.523  31.778   8.765
 1255POPC   C2B19988  17.431  31.737   8.329
 1255POPC   C3B19989  17.741  31.767   8.028
 1255POPC   C4B19990  17.950  31.804   7.684
 1256POPC   NC319991  25.220   8.101   9.495
 1256POPC   PO419992  25.763   8.438   9.456
 1256POPC   GL119993  25.387   8.518   9.223
 1256POPC   GL219994  25.285   8.208   9.008
 1256POPC   C1A19995  25.271   8.687   8.832
 1256POPC   D2A19996  25.113   8.361   8.547
 1256POPC   C3A19997  25.186   8.391   8.110
 1256POPC   C4A19998  25.305   8.155   7.806
 1256POPC   C1B19999  25.035   7.890   8.759
 1256POPC   C2B20000  24.837   7.946   8.346
 1256POPC   C3B20001  24.812   8.072   7.934
 1256POPC   C4B20002  24.844   8.427   7.619
 1257POPC   NC320003  31.063  42.531   9.442
 1257POPC   PO420004  31.643  42.289   9.473
 1257POPC   GL120005  31.595  42.105   9.099
 1257POPC   GL220006  31.256  42.199   9.092
 1257POPC   C1A20007  31.782  42.117   8.707
 1257POPC   D2A20008  31.600  42.256   8.316
 1257POPC   C3A20009  31.859  42.372   7.992
 1257POPC   C4A20010  31.790  42.663   7.655
 1257POPC   C1B20011  31.274  42.010   8.690
 1257POPC   C2B20012  31.077  42.188   8.356
 1257POPC   C3B20013  31.127  42.381   7.981
 1257POPC   C4B20014  31.448  42.251   7.733
 1258POPC   NC320015  32.754  36.989   9.446
 1258POPC   PO420016  33.326  36.614   9.420
 1258POPC   GL120017  33.076  36.785   9.079
 1258POPC   GL220018  33.153  37.139   9.146
 1258POPC   C1A20019  33.032  36.696   8.617
 1258POPC   D2A20020  33.261  36.810   8.230
 1258POPC   C3A20021  32.961  36.850   7.894
 1258POPC   C4A20022  32.693  36.568   7.707
 1258POPC   C1B20023  33.341  37.100   8.730
 1258POPC   C2B20024  33.351  37.322   8.331
 1258POPC   C3B20025  33.187  37.320   7.920
 1258POPC   C4B20026  33.150  37.169   7.485
 1259POPC   NC320027  17.151  22.923   9.810
 1259POPC   PO420028  17.645  22.783   9.350
 1259POPC   GL120029  17.373  22.896   8.997
 1259POPC   GL220030  17.189  23.161   9.206
 1259POPC   C1A20031  17.330  22.720   8.579
 1259POPC   D2A20032  17.593  22.646   8.199
 1259POPC   C3A20033  17.370  22.674   7.788
 1259POPC   C4A20034  17.350  22.550   7.332
 1259POPC   C1B20035  17.357  23.354   8.796
 1259POPC   C2B20036  17.527  23.175   8.394
 1259POPC   C3B20037  17.507  23.233   7.963
 1259POPC   C4B20038  17.199  23.352   7.691
 1260POPC   NC320039   6.502  24.128   9.384
 1260POPC   PO420040   7.024  24.579   9.559
 1260POPC   GL120041   6.815  24.495   9.177
 1260POPC   GL220042   6.455  24.578   9.150
 1260POPC   C1A20043   6.745  24.491   8.748
 1260POPC   D2A20044   6.661  24.291   8.409
 1260POPC   C3A20045   6.860  24.403   8.022
 1260POPC   C4A20046   6.747  24.504   7.624
 1260POPC   C1B20047   6.241  24.484   8.774
 1260POPC   C2B20048   6.319  24.666   8.407
 1260POPC   C3B20049   6.402  24.609   8.021
 1260POPC   C4B20050   6.233  24.447   7.659
 1261POPC   NC320051   2.250  38.093   9.513
 1261POPC   PO420052   2.835  38.491   9.463
 1261POPC   GL120053   2.927  38.370   9.029
 1261POPC   GL220054   3.252  38.460   8.945
 1261POPC   C1A20055   2.876  38.363   8.584
 1261POPC   D2A20056   2.489  38.397   8.356
 1261POPC   C3A20057   2.554  38.295   7.937
 1261POPC   C4A20058   2.950  38.122   7.845
 1261POPC   C1B20059   3.128  38.817   8.778
 1261POPC   C2B20060   2.978  38.851   8.404
 1261POPC   C3B20061   2.963  38.601   8.051
 1261POPC   C4B20062   2.819  38.737   7.636
 1262POPC   NC320063   7.762  30.647   9.528
 1262POPC   PO420064   7.138  30.688   9.473
 1262POPC   GL120065   7.379  30.876   9.136
 1262POPC   GL220066   7.677  30.714   9.045
 1262POPC   C1A20067   7.151  30.990   8.767
 1262POPC   D2A20068   6.999  30.746   8.411
 1262POPC   C3A20069   7.063  30.991   8.052
 1262POPC   C4A20070   7.242  30.998   7.619
 1262POPC   C1B20071   7.456  30.569   8.722
 1262POPC   C2B20072   7.516  30.780   8.380
 1262POPC   C3B20073   7.489  30.705   7.991
 1262POPC   C4B20074   7.408  30.431   7.703
 1263POPC   NC320075  28.472  14.164   9.383
 1263POPC   PO420076  28.030  14.546   9.631
 1263POPC   GL120077  28.347  14.707   9.318
 1263POPC   GL220078  28.116  14.630   9.073
 1263POPC   C1A20079  28.586  14.681   8.878
 1263POPC   D2A20080  28.395  14.592   8.450
 1263POPC   C3A20081  28.519  14.261   8.142
 1263POPC   C4A20082  28.812  14.188   7.798
 1263POPC   C1B20083  28.173  14.288   8.806
 1263POPC   C2B20084  28.044  14.233   8.379
 1263POPC   C3B20085  28.066  14.420   7.989
 1263POPC   C4B20086  28.337  14.404   7.640
 1264POPC   NC320087  11.870   2.929   9.542
 1264POPC   PO420088  11.962   2.283   9.405
 1264POPC   GL120089  11.967   2.661   9.124
 1264POPC   GL220090  12.195   2.962   9.167
 1264POPC   C1A20091  11.978   2.783   8.706
 1264POPC   D2A20092  11.964   2.441   8.410
 1264POPC   C3A20093  12.044   2.592   7.988
 1264POPC   C4A20094  12.207   2.396   7.615
 1264POPC   C1B20095  12.371   3.124   8.804
 1264POPC   C2B20096  12.198   3.161   8.404
 1264POPC   C3B20097  12.355   3.115   8.006
 1264POPC   C4B20098  12.284   2.950   7.633
 1265POPC   NC320099  37.438  24.549   9.461
 1265POPC   PO420100  37.863  24.066   9.593
 1265POPC   GL120101  37.852  24.323   9.223
 1265POPC   GL220102  38.036  24.648   9.219
 1265POPC   C1A20103  37.646  24.290   8.825
 1265POPC   D2A20104  37.402  24.537   8.554
 1265POPC   C3A20105  37.532  24.523   8.126
 1265POPC   C4A20106  37.427  24.268   7.781
 1265POPC   C1B20107  37.776  24.778   8.857
 1265POPC   C2B20108  37.845  24.972   8.475
 1265POPC   C3B20109  37.937  24.854   8.063
 1265POPC   C4B20110  37.638  24.856   7.722
 1266POPC   NC320111  27.906   9.673   9.539
 1266POPC   PO420112  27.547  10.053   9.146
 1266POPC   GL120113  27.793   9.833   8.930
 1266POPC   GL220114  27.676   9.584   8.929
 1266POPC   C1A20115  27.766   9.767   8.477
 1266POPC   D2A20116  27.475  10.002   8.251
 1266POPC   C3A20117  27.640  10.087   7.860
 1266POPC   C4A20118  27.868   9.829   7.591
 1266POPC   C1B20119  27.902   9.268   8.695
 1266POPC   C2B20120  27.948   9.319   8.274
 1266POPC   C3B20121  27.676   9.568   7.994
 1266POPC   C4B20122  27.425   9.351   7.686
 1267POPC   NC320123  43.423   1.047   9.533
 1267POPC   PO420124  42.787   1.361   9.598
 1267POPC   GL120125  43.109   1.439   9.291
 1267POPC   GL220126  43.013   1.103   9.200
 1267POPC   C1A20127  43.118   1.455   8.815
 1267POPC   D2A20128  43.215   1.278   8.374
 1267POPC   C3A20129  43.100   1.430   7.933
 1267POPC   C4A20130  43.082   1.581   7.438
 1267POPC   C1B20131  43.032   0.936   8.788
 1267POPC   C2B20132  43.077   0.782   8.361
 1267POPC   C3B20133  43.293   0.934   7.999
 1267POPC   C4B20134  43.501   0.750   7.669
 1268POPC   NC320135   0.202  34.431   9.681
 1268POPC   PO420136  44.755  34.910   9.653
 1268POPC   GL120137  44.795  34.672   9.262
 1268POPC   GL220138  44.482  34.486   9.209
 1268POPC   C1A20139  44.914  34.492   8.840
 1268POPC   D2A20140  44.911  34.690   8.421
 1268POPC   C3A20141  44.845  34.476   8.001
 1268POPC   C4A20142  44.893  34.534   7.540
 1268POPC   C1B20143  44.463  34.735   8.826
 1268POPC   C2B20144  44.366  34.704   8.418
 1268POPC   C3B20145  44.205  34.687   8.022
 1268POPC   C4B20146  44.421  34.607   7.677
 1269POPC   NC320147  41.992  37.842   9.494
 1269POPC   PO420148  42.614  37.908   9.284
 1269POPC   GL120149  42.255  37.726   9.084
 1269POPC   GL220150  42.036  37.434   9.144
 1269POPC   C1A20151  42.192  37.707   8.683
 1269POPC   D2A20152  42.291  37.943   8.361
 1269POPC   C3A20153  42.469  37.699   8.051
 1269POPC   C4A20154  42.205  37.806   7.744
 1269POPC   C1B20155  42.032  37.230   8.756
 1269POPC   C2B20156  42.197  37.338   8.330
 1269POPC   C3B20157  42.013  37.371   7.894
 1269POPC   C4B20158  41.998  37.489   7.391
 1270POPC   NC320159  14.614  19.447   9.543
 1270POPC   PO420160  14.091  18.997   9.406
 1270POPC   GL120161  14.327  19.216   9.139
 1270POPC   GL220162  14.639  19.039   9.234
 1270POPC   C1A20163  14.255  19.066   8.706
 1270POPC   D2A20164  14.015  19.160   8.352
 1270POPC   C3A20165  14.230  19.185   7.944
 1270POPC   C4A20166  14.353  19.214   7.513
 1270POPC   C1B20167  14.734  19.168   8.817
 1270POPC   C2B20168  14.744  18.966   8.393
 1270POPC   C3B20169  14.660  18.907   7.943
 1270POPC   C4B20170  14.834  19.253   7.665
 1271POPC   NC320171  41.949  37.160   9.560
 1271POPC   PO420172  41.325  36.841   9.384
 1271POPC   GL120173  41.597  37.122   9.167
 1271POPC   GL220174  41.874  36.891   9.136
 1271POPC   C1A20175  41.513  37.165   8.746
 1271POPC   D2A20176  41.309  36.920   8.443
 1271POPC   C3A20177  41.436  37.073   8.064
 1271POPC   C4A20178  41.415  36.864   7.698
 1271POPC   C1B20179  41.808  36.737   8.730
 1271POPC   C2B20180  41.858  36.956   8.353
 1271POPC   C3B20181  41.919  36.856   7.933
 1271POPC   C4B20182  41.862  37.026   7.549
 1272POPC   NC320183  21.909  41.468  10.034
 1272POPC   PO420184  22.048  41.697   9.437
 1272POPC   GL120185  21.965  41.882   9.091
 1272POPC   GL220186  22.075  41.582   8.915
 1272POPC   C1A20187  22.098  42.045   8.702
 1272POPC   D2A20188  22.319  41.712   8.478
 1272POPC   C3A20189  22.206  41.684   8.052
 1272POPC   C4A20190  21.912  41.617   7.771
 1272POPC   C1B20191  21.942  41.212   8.670
 1272POPC   C2B20192  21.754  41.190   8.246
 1272POPC   C3B20193  21.925  41.086   7.826
 1272POPC   C4B20194  22.265  41.278   7.530
 1273POPC   NC320195  38.610  25.794   9.303
 1273POPC   PO420196  38.402  26.322   9.595
 1273POPC   GL120197  38.288  26.177   9.166
 1273POPC   GL220198  38.091  25.882   9.153
 1273POPC   C1A20199  38.460  26.094   8.721
 1273POPC   D2A20200  38.566  26.381   8.370
 1273POPC   C3A20201  38.477  26.259   7.960
 1273POPC   C4A20202  38.784  26.297   7.655
 1273POPC   C1B20203  38.082  25.690   8.756
 1273POPC   C2B20204  38.137  25.745   8.314
 1273POPC   C3B20205  38.086  25.789   7.861
 1273POPC   C4B20206  38.370  25.951   7.555
 1274POPC   NC320207  20.538   7.131   9.438
 1274POPC   PO420208  20.777   7.776   9.358
 1274POPC   GL120209  20.670   7.471   9.058
 1274POPC   GL220210  20.893   7.158   9.080
 1274POPC   C1A20211  20.455   7.603   8.663
 1274POPC   D2A20212  20.216   7.611   8.276
 1274POPC   C3A20213  20.455   7.714   7.897
 1274POPC   C4A20214  20.621   7.629   7.490
 1274POPC   C1B20215  20.729   7.149   8.671
 1274POPC   C2B20216  20.550   7.221   8.299
 1274POPC   C3B20217  20.682   7.234   7.898
 1274POPC   C4B20218  20.740   6.966   7.540
 1275POPC   NC320219   4.010   5.241   9.458
 1275POPC   PO420220   4.608   4.850   9.522
 1275POPC   GL120221   4.383   4.997   9.182
 1275POPC   GL220222   4.421   5.338   9.162
 1275POPC   C1A20223   4.253   5.068   8.770
 1275POPC   D2A20224   4.254   4.907   8.381
 1275POPC   C3A20225   4.044   5.150   8.128
 1275POPC   C4A20226   4.359   5.004   7.846
 1275POPC   C1B20227   4.403   5.551   8.768
 1275POPC   C2B20228   4.447   5.383   8.370
 1275POPC   C3B20229   4.370   5.531   7.982
 1275POPC   C4B20230   4.435   5.410   7.555
 1276POPC   NC320231   7.527   4.803   9.307
 1276POPC   PO420232   7.397   4.153   9.523
 1276POPC   GL120233   7.210   4.126   9.139
 1276POPC   GL220234   7.449   4.373   9.043
 1276POPC   C1A20235   7.304   4.033   8.713
 1276POPC   D2A20236   7.654   4.138   8.440
 1276POPC   C3A20237   7.548   4.109   8.004
 1276POPC   C4A20238   7.220   4.266   7.718
 1276POPC   C1B20239   7.641   4.611   8.711
 1276POPC   C2B20240   7.639   4.678   8.277
 1276POPC   C3B20241   7.606   4.586   7.834
 1276POPC   C4B20242   7.445   4.572   7.358
 1277POPC   NC320243  32.507  14.909   9.941
 1277POPC   PO420244  32.220  15.442   9.705
 1277POPC   GL120245  32.218  15.227   9.249
 1277POPC   GL220246  32.570  15.053   9.124
 1277POPC   C1A20247  32.032  15.182   8.801
 1277POPC   D2A20248  32.328  15.302   8.436
 1277POPC   C3A20249  32.512  15.025   8.143
 1277POPC   C4A20250  32.206  14.996   7.801
 1277POPC   C1B20251  32.741  15.169   8.703
 1277POPC   C2B20252  32.708  15.624   8.541
 1277POPC   C3B20253  32.467  15.826   8.187
 1277POPC   C4B20254  32.467  15.692   7.744
 1278POPC   NC320255  34.010  25.118   9.474
 1278POPC   PO420256  33.405  25.179   9.407
 1278POPC   GL120257  33.736  25.322   9.104
 1278POPC   GL220258  33.924  25.630   9.157
 1278POPC   C1A20259  33.914  25.267   8.702
 1278POPC   D2A20260  34.145  25.014   8.371
 1278POPC   C3A20261  33.825  25.011   8.046
 1278POPC   C4A20262  33.750  25.319   7.756
 1278POPC   C1B20263  33.638  25.725   8.801
 1278POPC   C2B20264  33.596  25.532   8.369
 1278POPC   C3B20265  33.334  25.547   7.992
 1278POPC   C4B20266  33.358  25.532   7.534
 1279POPC   NC320267  38.158  30.711   9.598
 1279POPC   PO420268  38.765  31.108   9.570
 1279POPC   GL120269  38.500  30.834   9.238
 1279POPC   GL220270  38.192  30.975   9.137
 1279POPC   C1A20271  38.420  30.641   8.841
 1279POPC   D2A20272  38.641  30.681   8.446
 1279POPC   C3A20273  38.643  30.417   8.056
 1279POPC   C4A20274  38.569  30.557   7.636
 1279POPC   C1B20275  38.214  31.080   8.691
 1279POPC   C2B20276  38.180  30.834   8.320
 1279POPC   C3B20277  38.444  30.886   8.004
 1279POPC   C4B20278  38.362  31.054   7.646
 1280POPC   NC320279  40.843  17.819   9.689
 1280POPC   PO420280  40.683  17.162   9.554
 1280POPC   GL120281  40.767  17.469   9.213
 1280POPC   GL220282  40.588  17.753   9.238
 1280POPC   C1A20283  40.939  17.358   8.793
 1280POPC   D2A20284  40.674  17.170   8.498
 1280POPC   C3A20285  40.695  17.220   8.047
 1280POPC   C4A20286  40.934  17.229   7.660
 1280POPC   C1B20287  40.791  17.829   8.840
 1280POPC   C2B20288  40.796  17.676   8.397
 1280POPC   C3B20289  40.976  17.627   7.966
 1280POPC   C4B20290  40.873  17.731   7.538
 1281POPC   NC320291  41.132  42.664   9.929
 1281POPC   PO420292  40.626  42.318   9.736
 1281POPC   GL120293  40.611  42.395   9.262
 1281POPC   GL220294  40.948  42.336   9.139
 1281POPC   C1A20295  40.404  42.485   8.846
 1281POPC   D2A20296  40.413  42.277   8.433
 1281POPC   C3A20297  40.431  42.515   8.052
 1281POPC   C4A20298  40.690  42.474   7.686
 1281POPC   C1B20299  40.900  42.522   8.714
 1281POPC   C2B20300  40.875  42.423   8.269
 1281POPC   C3B20301  41.093  42.242   7.912
 1281POPC   C4B20302  41.147  42.264   7.438
 1282POPC   NC320303  21.824  32.664   9.520
 1282POPC   PO420304  22.355  33.168   9.547
 1282POPC   GL120305  22.267  32.972   9.175
 1282POPC   GL220306  21.944  33.079   9.224
 1282POPC   C1A20307  22.246  33.146   8.759
 1282POPC   D2A20308  22.375  32.995   8.383
 1282POPC   C3A20309  22.414  33.174   8.033
 1282POPC   C4A20310  22.453  33.398   7.704
 1282POPC   C1B20311  21.802  32.902   8.883
 1282POPC   C2B20312  21.889  32.866   8.463
 1282POPC   C3B20313  21.904  33.064   8.092
 1282POPC   C4B20314  21.777  32.930   7.695
 1283POPC   NC320315  29.564  20.549   9.495
 1283POPC   PO420316  28.944  20.846   9.502
 1283POPC   GL120317  29.138  20.694   9.171
 1283POPC   GL220318  29.379  20.871   9.151
 1283POPC   C1A20319  29.163  20.597   8.723
 1283POPC   D2A20320  29.264  20.408   8.292
 1283POPC   C3A20321  29.169  20.549   7.861
 1283POPC   C4A20322  29.329  20.394   7.428
 1283POPC   C1B20323  29.635  20.923   8.835
 1283POPC   C2B20324  29.606  21.027   8.416
 1283POPC   C3B20325  29.642  20.772   8.068
 1283POPC   C4B20326  29.560  20.809   7.662
 1284POPC   NC320327  37.332   2.654   9.300
 1284POPC   PO420328  37.937   2.415   9.276
 1284POPC   GL120329  37.933   2.676   8.940
 1284POPC   GL220330  37.595   2.833   8.904
 1284POPC   C1A20331  37.791   2.576   8.549
 1284POPC   D2A20332  37.355   2.533   8.426
 1284POPC   C3A20333  37.463   2.691   8.086
 1284POPC   C4A20334  37.630   2.947   7.792
 1284POPC   C1B20335  37.558   3.005   8.507
 1284POPC   C2B20336  37.891   3.001   8.231
 1284POPC   C3B20337  37.985   3.334   7.971
 1284POPC   C4B20338  37.861   3.349   7.583
 1285POPC   NC320339  14.943  12.376   9.843
 1285POPC   PO420340  15.253  12.836   9.540
 1285POPC   GL120341  15.094  12.675   9.143
 1285POPC   GL220342  15.467  12.660   9.090
 1285POPC   C1A20343  14.850  12.781   8.738
 1285POPC   D2A20344  15.070  12.892   8.313
 1285POPC   C3A20345  15.136  13.023   7.873
 1285POPC   C4A20346  15.132  13.293   7.526
 1285POPC   C1B20347  15.376  12.734   8.683
 1285POPC   C2B20348  15.344  12.474   8.317
 1285POPC   C3B20349  15.498  12.572   7.936
 1285POPC   C4B20350  15.402  12.692   7.538
 1286POPC   NC320351  10.985  43.016   9.651
 1286POPC   PO420352  11.600  43.288   9.610
 1286POPC   GL120353  11.518  43.221   9.138
 1286POPC   GL220354  11.234  42.964   9.127
 1286POPC   C1A20355  11.503  43.108   8.726
 1286POPC   D2A20356  11.221  43.116   8.424
 1286POPC   C3A20357  11.338  43.042   8.021
 1286POPC   C4A20358  11.473  43.114   7.615
 1286POPC   C1B20359  11.114  42.722   8.775
 1286POPC   C2B20360  10.876  42.730   8.411
 1286POPC   C3B20361  11.000  42.630   8.004
 1286POPC   C4B20362  11.146  42.727   7.619
 1287POPC   NC320363  23.122   9.558   9.501
 1287POPC   PO420364  22.863  10.143   9.416
 1287POPC   GL120365  22.977   9.903   9.093
 1287POPC   GL220366  23.339   9.843   9.131
 1287POPC   C1A20367  22.728   9.753   8.778
 1287POPC   D2A20368  22.485   9.635   8.457
 1287POPC   C3A20369  22.712   9.826   8.114
 1287POPC   C4A20370  23.018   9.874   7.776
 1287POPC   C1B20371  23.195   9.507   8.833
 1287POPC   C2B20372  23.077   9.607   8.417
 1287POPC   C3B20373  23.025   9.434   8.029
 1287POPC   C4B20374  23.339   9.395   7.747
 1288POPC   NC320375  40.571  43.114   9.463
 1288POPC   PO420376  41.168  42.841   9.506
 1288POPC   GL120377  40.906  42.851   9.170
 1288POPC   GL220378  40.951  43.188   9.148
 1288POPC   C1A20379  40.631  42.971   8.814
 1288POPC   D2A20380  40.495  42.810   8.451
 1288POPC   C3A20381  40.592  43.027   8.096
 1288POPC   C4A20382  40.800  42.997   7.726
 1288POPC   C1B20383  40.880  43.421   8.789
 1288POPC   C2B20384  40.900  43.626   8.397
 1288POPC   C3B20385  40.889  43.456   7.990
 1288POPC   C4B20386  40.790  43.679   7.634
 1289POPC   NC320387  29.269   7.914   9.490
 1289POPC   PO420388  28.826   8.448   9.440
 1289POPC   GL120389  29.084   8.301   9.158
 1289POPC   GL220390  28.963   7.995   9.094
 1289POPC   C1A20391  29.182   8.309   8.740
 1289POPC   D2A20392  29.310   8.538   8.388
 1289POPC   C3A20393  29.372   8.249   8.058
 1289POPC   C4A20394  29.299   8.478   7.666
 1289POPC   C1B20395  28.814   7.923   8.735
 1289POPC   C2B20396  29.046   7.973   8.379
 1289POPC   C3B20397  28.809   7.918   8.023
 1289POPC   C4B20398  29.064   7.988   7.702
 1290POPC   NC320399  26.313  15.532   9.284
 1290POPC   PO420400  26.182  14.888   9.368
 1290POPC   GL120401  25.850  15.076   9.055
 1290POPC   GL220402  25.785  15.445   9.060
 1290POPC   C1A20403  25.950  14.938   8.612
 1290POPC   D2A20404  26.387  14.969   8.392
 1290POPC   C3A20405  26.277  15.102   7.981
 1290POPC   C4A20406  25.826  14.998   7.851
 1290POPC   C1B20407  25.655  15.429   8.632
 1290POPC   C2B20408  25.849  15.405   8.221
 1290POPC   C3B20409  26.008  15.498   7.826
 1290POPC   C4B20410  26.169  15.695   7.462
 1291POPC   NC320411   4.917  36.389   9.521
 1291POPC   PO420412   4.887  35.732   9.391
 1291POPC   GL120413   4.974  36.040   9.118
 1291POPC   GL220414   5.306  36.182   9.153
 1291POPC   C1A20415   4.885  36.325   8.768
 1291POPC   D2A20416   4.673  36.347   8.342
 1291POPC   C3A20417   4.802  36.029   8.016
 1291POPC   C4A20418   4.577  35.729   7.735
 1291POPC   C1B20419   5.329  35.948   8.763
 1291POPC   C2B20420   5.165  36.035   8.384
 1291POPC   C3B20421   5.314  36.097   7.989
 1291POPC   C4B20422   5.286  36.099   7.573
 1292POPC   NC320423  31.060   1.522   9.411
 1292POPC   PO420424  30.457   1.356   9.523
 1292POPC   GL120425  30.670   1.250   9.202
 1292POPC   GL220426  30.906   1.007   9.351
 1292POPC   C1A20427  30.700   1.411   8.797
 1292POPC   D2A20428  30.480   1.385   8.434
 1292POPC   C3A20429  30.640   1.419   8.030
 1292POPC   C4A20430  30.424   1.197   7.769
 1292POPC   C1B20431  30.830   0.856   8.931
 1292POPC   C2B20432  30.767   0.950   8.502
 1292POPC   C3B20433  30.820   0.932   8.068
 1292POPC   C4B20434  31.058   1.212   7.826
 1293POPC   NC320435  30.197   3.621   9.340
 1293POPC   PO420436  30.789   3.455   9.667
 1293POPC   GL120437  30.614   3.351   9.185
 1293POPC   GL220438  30.547   3.653   8.947
 1293POPC   C1A20439  30.571   3.213   8.715
 1293POPC   D2A20440  30.632   3.127   8.258
 1293POPC   C3A20441  30.363   3.392   7.993
 1293POPC   C4A20442  30.505   3.791   7.821
 1293POPC   C1B20443  30.838   3.642   8.589
 1293POPC   C2B20444  30.896   3.889   8.203
 1293POPC   C3B20445  31.019   3.895   7.774
 1293POPC   C4B20446  30.821   3.673   7.408
 1294POPC   NC320447  19.147  44.869   9.635
 1294POPC   PO420448  18.635   0.271   9.543
 1294POPC   GL120449  18.806   0.517   9.181
 1294POPC   GL220450  18.624   0.806   9.061
 1294POPC   C1A20451  19.171   0.507   8.873
 1294POPC   D2A20452  19.230   0.246   8.501
 1294POPC   C3A20453  19.295   0.440   8.097
 1294POPC   C4A20454  19.367   0.322   7.676
 1294POPC   C1B20455  18.727   0.666   8.686
 1294POPC   C2B20456  18.818   0.494   8.337
 1294POPC   C3B20457  18.826   0.695   7.998
 1294POPC   C4B20458  18.834   0.582   7.623
 1295POPC   NC320459  32.682  42.506   9.414
 1295POPC   PO420460  33.251  42.254   9.488
 1295POPC   GL120461  33.230  42.415   9.086
 1295POPC   GL220462  33.228  42.794   9.085
 1295POPC   C1A20463  33.053  42.202   8.715
 1295POPC   D2A20464  32.720  42.262   8.391
 1295POPC   C3A20465  32.858  42.335   7.943
 1295POPC   C4A20466  32.657  42.114   7.598
 1295POPC   C1B20467  32.882  42.672   8.799
 1295POPC   C2B20468  33.077  42.621   8.397
 1295POPC   C3B20469  33.058  42.809   8.013
 1295POPC   C4B20470  32.658  42.834   7.833
 1296POPC   NC320471  40.906   2.202   9.362
 1296POPC   PO420472  40.506   1.629   9.282
 1296POPC   GL120473  40.686   1.879   9.042
 1296POPC   GL220474  40.472   2.173   9.122
 1296POPC   C1A20475  41.024   1.934   8.755
 1296POPC   D2A20476  41.097   2.111   8.364
 1296POPC   C3A20477  40.878   1.902   8.062
 1296POPC   C4A20478  40.922   1.969   7.646
 1296POPC   C1B20479  40.567   2.205   8.675
 1296POPC   C2B20480  40.600   2.336   8.240
 1296POPC   C3B20481  40.520   2.228   7.807
 1296POPC   C4B20482  40.589   2.302   7.358
 1297POPC   NC320483   8.068  20.973   9.224
 1297POPC   PO420484   8.514  21.386   9.383
 1297POPC   GL120485   8.179  21.476   9.053
 1297POPC   GL220486   7.850  21.618   9.077
 1297POPC   C1A20487   8.040  21.289   8.643
 1297POPC   D2A20488   8.188  21.082   8.266
 1297POPC   C3A20489   8.457  21.322   8.003
 1297POPC   C4A20490   8.386  21.423   7.590
 1297POPC   C1B20491   7.901  21.796   8.662
 1297POPC   C2B20492   8.114  21.642   8.271
 1297POPC   C3B20493   7.959  21.370   7.922
 1297POPC   C4B20494   7.851  21.434   7.491
 1298POPC   NC320495   1.736   6.230   9.582
 1298POPC   PO420496   2.171   6.663   9.561
 1298POPC   GL120497   2.143   6.739   9.133
 1298POPC   GL220498   1.986   6.422   9.020
 1298POPC   C1A20499   2.327   6.712   8.723
 1298POPC   D2A20500   2.526   6.593   8.351
 1298POPC   C3A20501   2.269   6.600   7.980
 1298POPC   C4A20502   2.268   6.824   7.595
 1298POPC   C1B20503   1.957   6.247   8.565
 1298POPC   C2B20504   1.688   6.051   8.221
 1298POPC   C3B20505   1.644   6.089   7.745
 1298POPC   C4B20506   1.686   6.242   7.295
 1299POPC   NC320507  35.600  20.297   9.518
 1299POPC   PO420508  35.189  20.708   9.611
 1299POPC   GL120509  35.506  20.721   9.253
 1299POPC   GL220510  35.428  20.443   9.038
 1299POPC   C1A20511  35.831  20.724   8.898
 1299POPC   D2A20512  35.715  20.765   8.450
 1299POPC   C3A20513  35.705  20.761   7.973
 1299POPC   C4A20514  35.355  20.679   7.661
 1299POPC   C1B20515  35.669  20.278   8.691
 1299POPC   C2B20516  35.781  20.301   8.250
 1299POPC   C3B20517  35.611  20.256   7.842
 1299POPC   C4B20518  35.797  20.050   7.493
 1300POPC   NC320519  12.445   2.131   9.366
 1300POPC   PO420520  11.974   1.653   9.554
 1300POPC   GL120521  12.026   1.801   9.167
 1300POPC   GL220522  12.329   1.725   9.071
 1300POPC   C1A20523  11.958   2.039   8.799
 1300POPC   D2A20524  11.986   1.870   8.419
 1300POPC   C3A20525  11.871   2.086   8.048
 1300POPC   C4A20526  11.965   1.928   7.646
 1300POPC   C1B20527  12.449   1.876   8.680
 1300POPC   C2B20528  12.405   2.159   8.318
 1300POPC   C3B20529  12.387   1.998   7.908
 1300POPC   C4B20530  12.426   1.838   7.454
 1301POPC   NC320531   3.359  30.902   9.355
 1301POPC   PO420532   3.791  30.410   9.433
 1301POPC   GL120533   3.701  30.573   9.064
 1301POPC   GL220534   3.799  30.896   9.000
 1301POPC   C1A20535   3.358  30.573   8.773
 1301POPC   D2A20536   3.215  30.671   8.377
 1301POPC   C3A20537   3.456  30.449   8.078
 1301POPC   C4A20538   3.425  30.256   7.680
 1301POPC   C1B20539   3.549  31.074   8.656
 1301POPC   C2B20540   3.346  31.156   8.247
 1301POPC   C3B20541   3.457  30.925   7.878
 1301POPC   C4B20542   3.622  30.884   7.476
 1302POPC   NC320543  18.438  43.189   9.586
 1302POPC   PO420544  18.255  43.804   9.603
 1302POPC   GL120545  18.262  43.859   9.167
 1302POPC   GL220546  17.978  43.681   9.098
 1302POPC   C1A20547  18.246  43.977   8.729
 1302POPC   D2A20548  18.532  43.878   8.374
 1302POPC   C3A20549  18.366  43.832   7.941
 1302POPC   C4A20550  18.563  43.603   7.578
 1302POPC   C1B20551  18.104  43.476   8.709
 1302POPC   C2B20552  18.092  43.608   8.328
 1302POPC   C3B20553  17.872  43.919   8.117
 1302POPC   C4B20554  17.917  43.828   7.689
 1303POPC   NC320555  23.041  29.286   9.671
 1303POPC   PO420556  22.747  28.642   9.563
 1303POPC   GL120557  22.912  28.953   9.218
 1303POPC   GL220558  23.092  29.263   9.159
 1303POPC   C1A20559  22.765  29.144   8.785
 1303POPC   D2A20560  22.485  28.976   8.441
 1303POPC   C3A20561  22.539  28.893   7.973
 1303POPC   C4A20562  22.590  29.122   7.580
 1303POPC   C1B20563  23.197  29.463   8.786
 1303POPC   C2B20564  23.135  29.253   8.410
 1303POPC   C3B20565  22.854  29.267   8.074
 1303POPC   C4B20566  22.926  29.486   7.710
 1304POPC   NC320567  30.134  35.042   9.385
 1304POPC   PO420568  29.758  35.621   9.611
 1304POPC   GL120569  29.945  35.520   9.222
 1304POPC   GL220570  29.749  35.244   9.075
 1304POPC   C1A20571  29.925  35.595   8.794
 1304POPC   D2A20572  29.719  35.341   8.499
 1304POPC   C3A20573  29.801  35.440   8.059
 1304POPC   C4A20574  29.710  35.516   7.629
 1304POPC   C1B20575  30.087  35.100   8.734
 1304POPC   C2B20576  30.043  35.026   8.250
 1304POPC   C3B20577  29.996  35.079   7.767
 1304POPC   C4B20578  30.074  35.077   7.298
 1305POPC   NC320579  25.697  32.160   9.434
 1305POPC   PO420580  26.393  31.962   9.475
 1305POPC   GL120581  26.328  32.140   9.120
 1305POPC   GL220582  26.157  32.441   9.230
 1305POPC   C1A20583  26.244  31.956   8.691
 1305POPC   D2A20584  26.327  31.767   8.275
 1305POPC   C3A20585  26.232  32.000   7.881
 1305POPC   C4A20586  26.220  31.972   7.400
 1305POPC   C1B20587  26.054  32.416   8.795
 1305POPC   C2B20588  25.916  32.270   8.417
 1305POPC   C3B20589  25.896  32.372   8.018
 1305POPC   C4B20590  25.995  32.423   7.598
 1306POPC   NC320591  34.125  30.834   9.414
 1306POPC   PO420592  33.623  30.492   9.688
 1306POPC   GL120593  33.746  30.559   9.220
 1306POPC   GL220594  33.870  30.832   8.943
 1306POPC   C1A20595  33.877  30.357   8.842
 1306POPC   D2A20596  34.042  30.590   8.510
 1306POPC   C3A20597  33.818  30.518   8.150
 1306POPC   C4A20598  33.780  30.587   7.719
 1306POPC   C1B20599  33.624  30.958   8.601
 1306POPC   C2B20600  33.540  30.926   8.184
 1306POPC   C3B20601  33.698  31.151   7.827
 1306POPC   C4B20602  33.836  31.029   7.434
 1307POPC   NC320603   6.240  15.269   9.503
 1307POPC   PO420604   5.609  15.324   9.538
 1307POPC   GL120605   5.818  15.056   9.240
 1307POPC   GL220606   5.995  15.295   9.044
 1307POPC   C1A20607   5.664  14.983   8.831
 1307POPC   D2A20608   5.890  14.963   8.462
 1307POPC   C3A20609   5.860  15.220   8.121
 1307POPC   C4A20610   6.012  15.111   7.696
 1307POPC   C1B20611   5.928  15.457   8.621
 1307POPC   C2B20612   6.082  15.686   8.241
 1307POPC   C3B20613   5.902  15.633   7.818
 1307POPC   C4B20614   6.077  15.521   7.393
 1308POPC   NC320615  41.366  43.271   9.533
 1308POPC   PO420616  41.571  42.637   9.801
 1308POPC   GL120617  41.681  42.911   9.355
 1308POPC   GL220618  41.427  42.974   9.106
 1308POPC   C1A20619  41.857  43.023   8.887
 1308POPC   D2A20620  41.614  43.064   8.449
 1308POPC   C3A20621  41.766  43.015   7.999
 1308POPC   C4A20622  41.859  42.690   7.654
 1308POPC   C1B20623  41.173  42.973   8.755
 1308POPC   C2B20624  41.004  43.081   8.390
 1308POPC   C3B20625  41.233  43.074   8.016
 1308POPC   C4B20626  41.466  43.412   7.841
 1309POPC   NC320627  30.228  30.487   9.471
 1309POPC   PO420628  29.583  30.737   9.395
 1309POPC   GL120629  29.882  30.688   9.066
 1309POPC   GL220630  30.186  30.865   9.123
 1309POPC   C1A20631  29.825  30.518   8.646
 1309POPC   D2A20632  29.530  30.509   8.297
 1309POPC   C3A20633  29.705  30.528   7.895
 1309POPC   C4A20634  29.801  30.679   7.476
 1309POPC   C1B20635  30.025  31.001   8.692
 1309POPC   C2B20636  29.885  30.884   8.261
 1309POPC   C3B20637  30.131  30.809   7.856
 1309POPC   C4B20638  30.197  31.002   7.424
 1310POPC   NC320639   4.809  33.429   9.393
 1310POPC   PO420640   5.139  32.875   9.525
 1310POPC   GL120641   5.125  33.097   9.132
 1310POPC   GL220642   5.385  33.325   9.088
 1310POPC   C1A20643   5.010  33.289   8.725
 1310POPC   D2A20644   5.197  33.208   8.314
 1310POPC   C3A20645   5.144  32.826   8.038
 1310POPC   C4A20646   4.894  33.072   7.765
 1310POPC   C1B20647   5.480  33.087   8.733
 1310POPC   C2B20648   5.724  33.208   8.430
 1310POPC   C3B20649   5.607  33.398   8.104
 1310POPC   C4B20650   5.372  33.212   7.815
 1311POPC   NC320651   9.399  43.699   9.456
 1311POPC   PO420652  10.062  43.600   9.532
 1311POPC   GL120653   9.945  43.829   9.133
 1311POPC   GL220654   9.624  44.008   9.133
 1311POPC   C1A20655   9.946  44.103   8.723
 1311POPC   D2A20656  10.127  44.147   8.290
 1311POPC   C3A20657  10.012  43.782   8.028
 1311POPC   C4A20658   9.773  43.783   7.645
 1311POPC   C1B20659   9.429  43.948   8.744
 1311POPC   C2B20660   9.580  43.879   8.336
 1311POPC   C3B20661   9.350  43.849   7.981
 1311POPC   C4B20662   9.289  43.947   7.590
 1312POPC   NC320663  14.265  17.739   9.499
 1312POPC   PO420664  14.508  17.124   9.413
 1312POPC   GL120665  14.229  17.318   9.061
 1312POPC   GL220666  14.110  17.693   9.017
 1312POPC   C1A20667  14.255  17.442   8.590
 1312POPC   D2A20668  14.487  17.599   8.243
 1312POPC   C3A20669  14.317  17.494   7.836
 1312POPC   C4A20670  14.520  17.371   7.457
 1312POPC   C1B20671  14.462  17.883   8.728
 1312POPC   C2B20672  14.552  18.115   8.346
 1312POPC   C3B20673  14.606  18.003   7.918
 1312POPC   C4B20674  14.427  17.892   7.504
 1313POPC   NC320675   0.216  35.941   9.371
 1313POPC   PO420676  44.578  36.194   9.425
 1313POPC   GL120677  44.687  36.083   9.014
 1313POPC   GL220678  44.988  36.265   9.023
 1313POPC   C1A20679  44.628  36.267   8.578
 1313POPC   D2A20680  44.345  36.212   8.201
 1313POPC   C3A20681  44.557  35.930   7.921
 1313POPC   C4A20682  44.615  35.911   7.442
 1313POPC   C1B20683   0.074  35.912   8.718
 1313POPC   C2B20684   0.066  35.738   8.293
 1313POPC   C3B20685   0.066  35.928   7.884
 1313POPC   C4B20686  44.973  36.286   7.564
 1314POPC   NC320687  26.417  11.723   9.459
 1314POPC   PO420688  27.069  11.914   9.485
 1314POPC   GL120689  26.939  11.944   9.093
 1314POPC   GL220690  26.716  12.204   8.978
 1314POPC   C1A20691  26.870  11.778   8.712
 1314POPC   D2A20692  26.720  11.963   8.367
 1314POPC   C3A20693  26.836  11.814   7.990
 1314POPC   C4A20694  26.740  12.154   7.749
 1314POPC   C1B20695  27.000  12.304   8.613
 1314POPC   C2B20696  27.033  12.320   8.137
 1314POPC   C3B20697  27.176  12.400   7.707
 1314POPC   C4B20698  27.044  12.635   7.359
 1315POPC   NC320699   3.269  22.767   9.766
 1315POPC   PO420700   3.817  22.948   9.425
 1315POPC   GL120701   3.674  22.814   9.088
 1315POPC   GL220702   3.354  22.658   9.178
 1315POPC   C1A20703   3.764  22.959   8.678
 1315POPC   D2A20704   3.448  22.896   8.371
 1315POPC   C3A20705   3.392  23.080   7.984
 1315POPC   C4A20706   3.650  23.099   7.645
 1315POPC   C1B20707   3.479  22.512   8.741
 1315POPC   C2B20708   3.465  22.386   8.298
 1315POPC   C3B20709   3.574  22.592   7.875
 1315POPC   C4B20710   3.461  22.711   7.401
 1316POPC   NC320711  24.963  29.846   9.479
 1316POPC   PO420712  25.514  30.035   9.600
 1316POPC   GL120713  25.433  30.211   9.197
 1316POPC   GL220714  25.054  30.278   9.212
 1316POPC   C1A20715  25.627  30.203   8.772
 1316POPC   D2A20716  25.753  29.904   8.389
 1316POPC   C3A20717  25.627  29.775   7.940
 1316POPC   C4A20718  25.467  29.603   7.508
 1316POPC   C1B20719  25.114  30.048   8.808
 1316POPC   C2B20720  25.301  30.197   8.393
 1316POPC   C3B20721  25.433  30.366   8.007
 1316POPC   C4B20722  25.292  30.068   7.709
 1317POPC   NC320723   8.241   2.263   9.375
 1317POPC   PO420724   8.538   1.555   9.480
 1317POPC   GL120725   8.387   1.706   9.116
 1317POPC   GL220726   8.564   2.003   9.052
 1317POPC   C1A20727   8.215   1.831   8.708
 1317POPC   D2A20728   8.150   1.589   8.350
 1317POPC   C3A20729   8.084   1.822   7.994
 1317POPC   C4A20730   8.093   2.194   7.746
 1317POPC   C1B20731   8.616   2.170   8.602
 1317POPC   C2B20732   8.421   2.195   8.154
 1317POPC   C3B20733   8.525   1.906   7.763
 1317POPC   C4B20734   8.544   1.713   7.344
 1318POPC   NC320735  34.989  38.268   9.570
 1318POPC   PO420736  35.525  38.604   9.371
 1318POPC   GL120737  35.179  38.503   9.106
 1318POPC   GL220738  34.908  38.787   9.090
 1318POPC   C1A20739  35.400  38.433   8.722
 1318POPC   D2A20740  35.570  38.594   8.350
 1318POPC   C3A20741  35.621  38.289   8.020
 1318POPC   C4A20742  35.571  38.219   7.575
 1318POPC   C1B20743  34.938  38.632   8.650
 1318POPC   C2B20744  35.113  38.348   8.292
 1318POPC   C3B20745  35.145  38.241   7.823
 1318POPC   C4B20746  35.111  38.159   7.341
 1319POPC   NC320747  15.603  11.557   9.267
 1319POPC   PO420748  16.187  11.582   9.710
 1319POPC   GL120749  16.003  11.255   9.319
 1319POPC   GL220750  16.005  10.898   9.257
 1319POPC   C1A20751  15.887  11.240   8.805
 1319POPC   D2A20752  15.958  11.355   8.364
 1319POPC   C3A20753  15.789  11.359   7.960
 1319POPC   C4A20754  15.578  11.706   7.755
 1319POPC   C1B20755  16.271  10.932   8.886
 1319POPC   C2B20756  16.188  10.910   8.446
 1319POPC   C3B20757  16.194  11.037   7.993
 1319POPC   C4B20758  16.088  10.935   7.570
 1320POPC   NC320759  15.607  32.198   9.562
 1320POPC   PO420760  16.285  32.249   9.609
 1320POPC   GL120761  16.025  32.121   9.223
 1320POPC   GL220762  15.811  32.424   9.154
 1320POPC   C1A20763  16.063  32.236   8.762
 1320POPC   D2A20764  15.994  32.420   8.384
 1320POPC   C3A20765  16.039  32.151   8.038
 1320POPC   C4A20766  16.277  32.068   7.624
 1320POPC   C1B20767  15.612  32.503   8.752
 1320POPC   C2B20768  15.451  32.561   8.342
 1320POPC   C3B20769  15.679  32.539   7.997
 1320POPC   C4B20770  16.027  32.514   7.699
 1321POPC   NC320771  22.482  13.923   9.809
 1321POPC   PO420772  22.015  13.538   9.527
 1321POPC   GL120773  22.063  13.732   9.131
 1321POPC   GL220774  22.349  13.580   9.038
 1321POPC   C1A20775  22.187  13.910   8.692
 1321POPC   D2A20776  22.473  14.148   8.422
 1321POPC   C3A20777  22.390  14.046   7.980
 1321POPC   C4A20778  22.583  13.783   7.707
 1321POPC   C1B20779  22.539  13.515   8.663
 1321POPC   C2B20780  22.339  13.543   8.277
 1321POPC   C3B20781  22.346  13.365   7.871
 1321POPC   C4B20782  21.959  13.483   7.658
 1322POPC   NC320783  44.871  25.746   9.283
 1322POPC   PO420784  44.433  25.160   9.411
 1322POPC   GL120785  44.595  25.362   9.085
 1322POPC   GL220786  44.954  25.265   9.173
 1322POPC   C1A20787  44.640  25.495   8.664
 1322POPC   D2A20788  44.677  25.175   8.330
 1322POPC   C3A20789  44.373  25.158   8.016
 1322POPC   C4A20790  44.531  25.181   7.607
 1322POPC   C1B20791  44.948  25.099   8.761
 1322POPC   C2B20792   0.199  25.205   8.371
 1322POPC   C3B20793   0.063  25.167   7.937
 1322POPC   C4B20794  44.991  25.016   7.497
 1323POPC   NC320795  18.915  12.768  10.295
 1323POPC   PO420796  18.979  12.774   9.763
 1323POPC   GL120797  19.093  12.858   9.241
 1323POPC   GL220798  18.921  13.141   9.069
 1323POPC   C1A20799  19.115  12.813   8.726
 1323POPC   D2A20800  19.052  12.596   8.292
 1323POPC   C3A20801  19.269  12.703   7.882
 1323POPC   C4A20802  19.123  12.974   7.509
 1323POPC   C1B20803  18.655  13.057   8.699
 1323POPC   C2B20804  18.723  13.011   8.261
 1323POPC   C3B20805  18.769  12.806   7.851
 1323POPC   C4B20806  18.566  12.726   7.440
 1324POPC   NC320807  44.055  40.727   9.550
 1324POPC   PO420808  43.422  40.515   9.443
 1324POPC   GL120809  43.769  40.528   9.105
 1324POPC   GL220810  44.165  40.533   9.108
 1324POPC   C1A20811  43.880  40.613   8.657
 1324POPC   D2A20812  43.776  40.988   8.387
 1324POPC   C3A20813  43.673  40.882   7.932
 1324POPC   C4A20814  43.523  40.529   7.669
 1324POPC   C1B20815  44.188  40.948   8.910
 1324POPC   C2B20816  44.263  41.066   8.501
 1324POPC   C3B20817  44.158  40.975   8.070
 1324POPC   C4B20818  44.203  41.196   7.701
 1325POPC   NC320819   9.333  24.815   9.548
 1325POPC   PO420820   8.873  24.379   9.436
 1325POPC   GL120821   8.956  24.635   9.102
 1325POPC   GL220822   9.205  24.910   9.062
 1325POPC   C1A20823   8.891  24.460   8.710
 1325POPC   D2A20824   9.046  24.190   8.388
 1325POPC   C3A20825   8.908  24.315   8.004
 1325POPC   C4A20826   8.757  24.131   7.638
 1325POPC   C1B20827   8.917  24.971   8.699
 1325POPC   C2B20828   8.839  24.787   8.276
 1325POPC   C3B20829   9.084  24.776   7.880
 1325POPC   C4B20830   8.979  24.795   7.422
 1326POPC   NC320831  13.011  44.640   9.652
 1326POPC   PO420832  12.779   0.093   9.243
 1326POPC   GL120833  13.035  44.761   9.128
 1326POPC   GL220834  12.827  44.488   9.211
 1326POPC   C1A20835  13.172  44.731   8.700
 1326POPC   D2A20836  12.952  44.940   8.332
 1326POPC   C3A20837  13.063  44.752   7.931
 1326POPC   C4A20838  12.993  44.338   7.698
 1326POPC   C1B20839  12.680  44.570   8.806
 1326POPC   C2B20840  12.629  44.529   8.386
 1326POPC   C3B20841  12.444  44.786   8.107
 1326POPC   C4B20842  12.602  44.740   7.718
 1327POPC   NC320843  27.205  13.964   9.480
 1327POPC   PO420844  27.608  13.375   9.664
 1327POPC   GL120845  27.794  13.393   9.205
 1327POPC   GL220846  28.023  13.118   9.156
 1327POPC   C1A20847  27.614  13.556   8.785
 1327POPC   D2A20848  27.278  13.519   8.472
 1327POPC   C3A20849  27.414  13.614   8.076
 1327POPC   C4A20850  27.288  13.400   7.714
 1327POPC   C1B20851  28.040  13.265   8.727
 1327POPC   C2B20852  27.882  13.478   8.349
 1327POPC   C3B20853  27.837  13.352   7.926
 1327POPC   C4B20854  27.688  13.675   7.648
 1328POPC   NC320855   9.886  24.301   9.849
 1328POPC   PO420856   9.611  23.708   9.514
 1328POPC   GL120857   9.648  23.750   9.076
 1328POPC   GL220858   9.974  23.866   9.046
 1328POPC   C1A20859   9.520  23.833   8.675
 1328POPC   D2A20860   9.616  23.515   8.404
 1328POPC   C3A20861   9.515  23.624   8.009
 1328POPC   C4A20862   9.289  23.963   7.859
 1328POPC   C1B20863  10.044  23.686   8.668
 1328POPC   C2B20864   9.998  23.928   8.319
 1328POPC   C3B20865   9.838  24.020   7.942
 1328POPC   C4B20866   9.979  23.654   7.754
 1329POPC   NC320867  17.035   9.917   9.259
 1329POPC   PO420868  16.423  10.088   9.595
 1329POPC   GL120869  16.543  10.056   9.163
 1329POPC   GL220870  16.578   9.664   9.151
 1329POPC   C1A20871  16.651   9.941   8.728
 1329POPC   D2A20872  16.936   9.686   8.510
 1329POPC   C3A20873  16.833   9.568   8.073
 1329POPC   C4A20874  16.718   9.914   7.850
 1329POPC   C1B20875  16.522   9.450   8.724
 1329POPC   C2B20876  16.383   9.615   8.318
 1329POPC   C3B20877  16.332   9.595   7.868
 1329POPC   C4B20878  16.575   9.340   7.591
 1330POPC   NC320879   2.556  11.926   9.565
 1330POPC   PO420880   3.130  12.330   9.591
 1330POPC   GL120881   2.902  12.197   9.177
 1330POPC   GL220882   2.557  12.208   9.141
 1330POPC   C1A20883   2.832  12.212   8.707
 1330POPC   D2A20884   2.571  12.287   8.343
 1330POPC   C3A20885   2.684  12.236   7.903
 1330POPC   C4A20886   3.091  12.385   7.754
 1330POPC   C1B20887   2.493  11.841   8.825
 1330POPC   C2B20888   2.565  11.780   8.366
 1330POPC   C3B20889   2.437  11.722   7.947
 1330POPC   C4B20890   2.458  11.798   7.499
 1331POPC   NC320891  37.234  30.384   9.500
 1331POPC   PO420892  37.676  30.979   9.516
 1331POPC   GL120893  37.796  30.640   9.190
 1331POPC   GL220894  37.517  30.419   9.034
 1331POPC   C1A20895  37.916  30.640   8.737
 1331POPC   D2A20896  37.684  30.714   8.350
 1331POPC   C3A20897  37.776  30.442   8.017
 1331POPC   C4A20898  38.113  30.557   7.809
 1331POPC   C1B20899  37.469  30.856   8.837
 1331POPC   C2B20900  37.364  31.098   8.444
 1331POPC   C3B20901  37.326  31.212   8.036
 1331POPC   C4B20902  37.394  31.018   7.649
 1332POPC   NC320903  14.166  25.623   9.209
 1332POPC   PO420904  14.096  25.012   9.460
 1332POPC   GL120905  14.374  25.144   9.132
 1332POPC   GL220906  14.643  25.349   9.198
 1332POPC   C1A20907  14.429  25.357   8.697
 1332POPC   D2A20908  14.456  25.137   8.277
 1332POPC   C3A20909  14.310  25.341   7.883
 1332POPC   C4A20910  13.953  25.189   7.685
 1332POPC   C1B20911  14.798  25.030   8.854
 1332POPC   C2B20912  14.793  24.792   8.511
 1332POPC   C3B20913  14.871  24.777   8.078
 1332POPC   C4B20914  14.724  25.065   7.830
 1333POPC   NC320915  15.378  44.018   9.586
 1333POPC   PO420916  15.439  43.334   9.640
 1333POPC   GL120917  15.365  43.610   9.253
 1333POPC   GL220918  15.580  43.907   9.150
 1333POPC   C1A20919  15.127  43.753   8.896
 1333POPC   D2A20920  14.898  43.616   8.552
 1333POPC   C3A20921  14.969  43.775   8.135
 1333POPC   C4A20922  14.977  43.848   7.711
 1333POPC   C1B20923  15.640  43.714   8.783
 1333POPC   C2B20924  15.372  43.769   8.449
 1333POPC   C3B20925  15.469  43.820   8.052
 1333POPC   C4B20926  15.520  43.829   7.646
 1334POPC   NC320927  30.467  26.410   9.509
 1334POPC   PO420928  31.068  26.063   9.404
 1334POPC   GL120929  30.713  26.008   9.095
 1334POPC   GL220930  30.406  26.210   9.051
 1334POPC   C1A20931  30.528  25.831   8.733
 1334POPC   D2A20932  30.711  25.910   8.351
 1334POPC   C3A20933  30.744  26.143   7.991
 1334POPC   C4A20934  30.835  25.885   7.625
 1334POPC   C1B20935  30.611  26.325   8.676
 1334POPC   C2B20936  30.430  26.461   8.314
 1334POPC   C3B20937  30.273  26.349   7.926
 1334POPC   C4B20938  30.574  26.524   7.655
 1335POPC   NC320939  17.044  31.202   9.309
 1335POPC   PO420940  16.595  31.621   9.497
 1335POPC   GL120941  16.831  31.724   9.122
 1335POPC   GL220942  16.574  31.579   8.979
 1335POPC   C1A20943  16.923  31.769   8.668
 1335POPC   D2A20944  16.533  31.605   8.480
 1335POPC   C3A20945  16.650  31.335   8.215
 1335POPC   C4A20946  17.041  31.480   8.070
 1335POPC   C1B20947  16.177  31.747   8.826
 1335POPC   C2B20948  16.060  31.772   8.379
 1335POPC   C3B20949  16.358  31.743   8.007
 1335POPC   C4B20950  16.658  31.486   7.732
 1336POPC   NC320951  36.344  14.891   9.495
 1336POPC   PO420952  35.826  15.252   9.793
 1336POPC   GL120953  35.848  15.353   9.271
 1336POPC   GL220954  36.209  15.289   9.195
 1336POPC   C1A20955  35.913  15.215   8.786
 1336POPC   D2A20956  35.782  15.031   8.362
 1336POPC   C3A20957  35.752  15.296   7.980
 1336POPC   C4A20958  36.050  15.244   7.639
 1336POPC   C1B20959  36.471  15.329   8.863
 1336POPC   C2B20960  36.341  15.406   8.480
 1336POPC   C3B20961  36.261  15.344   8.094
 1336POPC   C4B20962  36.505  15.108   7.848
 1337POPC   NC320963   2.666  26.951   9.423
 1337POPC   PO420964   2.251  26.597   9.651
 1337POPC   GL120965   2.634  26.479   9.269
 1337POPC   GL220966   3.003  26.646   9.179
 1337POPC   C1A20967   2.729  26.509   8.781
 1337POPC   D2A20968   2.780  26.800   8.399
 1337POPC   C3A20969   2.840  26.754   7.935
 1337POPC   C4A20970   2.494  26.715   7.624
 1337POPC   C1B20971   3.098  26.892   8.787
 1337POPC   C2B20972   3.215  27.073   8.359
 1337POPC   C3B20973   3.161  27.194   7.888
 1337POPC   C4B20974   3.083  27.180   7.408
 1338POPC   NC320975   4.828  11.066   9.506
 1338POPC   PO420976   4.922  10.461   9.799
 1338POPC   GL120977   5.087  10.467   9.345
 1338POPC   GL220978   5.014  10.775   9.123
 1338POPC   C1A20979   5.068  10.302   8.899
 1338POPC   D2A20980   5.005  10.622   8.557
 1338POPC   C3A20981   4.930  10.540   8.100
 1338POPC   C4A20982   4.881  10.735   7.665
 1338POPC   C1B20983   5.304  10.970   8.805
 1338POPC   C2B20984   5.429  10.862   8.374
 1338POPC   C3B20985   5.267  10.897   7.958
 1338POPC   C4B20986   5.378  10.788   7.506
 1339POPC   NC320987  25.909   6.384   9.287
 1339POPC   PO420988  25.942   6.998   9.456
 1339POPC   GL120989  26.010   6.862   9.075
 1339POPC   GL220990  26.338   6.785   9.129
 1339POPC   C1A20991  26.041   6.658   8.694
 1339POPC   D2A20992  25.828   6.870   8.384
 1339POPC   C3A20993  25.981   6.774   8.019
 1339POPC   C4A20994  26.046   6.493   7.691
 1339POPC   C1B20995  26.430   6.986   8.716
 1339POPC   C2B20996  26.424   6.854   8.267
 1339POPC   C3B20997  26.427   6.855   7.779
 1339POPC   C4B20998  26.598   7.087   7.422
 1340POPC   NC320999  24.970   9.045   9.884
 1340POPC   PO421000  24.426   8.921   9.511
 1340POPC   GL121001  24.492   9.007   9.100
 1340POPC   GL221002  24.524   8.651   9.063
 1340POPC   C1A21003  24.313   8.959   8.682
 1340POPC   D2A21004  24.151   9.095   8.286
 1340POPC   C3A21005  24.174   8.872   7.946
 1340POPC   C4A21006  24.192   8.688   7.575
 1340POPC   C1B21007  24.779   8.777   8.711
 1340POPC   C2B21008  24.672   8.999   8.313
 1340POPC   C3B21009  24.680   8.845   7.900
 1340POPC   C4B21010  24.664   8.915   7.478
 1341POPC   NC321011  33.289  43.459   9.572
 1341POPC   PO421012  32.896  42.925   9.482
 1341POPC   GL121013  32.940  43.220   9.142
 1341POPC   GL221014  33.262  43.364   9.078
 1341POPC   C1A21015  33.027  43.141   8.686
 1341POPC   D2A21016  32.729  42.984   8.388
 1341POPC   C3A21017  32.787  43.249   8.114
 1341POPC   C4A21018  32.933  43.251   7.761
 1341POPC   C1B21019  33.317  43.594   8.678
 1341POPC   C2B21020  33.189  43.596   8.223
 1341POPC   C3B21021  33.338  43.530   7.781
 1341POPC   C4B21022  33.168  43.383   7.351
 1342POPC   NC321023   1.901  19.710   9.491
 1342POPC   PO421024   1.881  20.450   9.501
 1342POPC   GL121025   1.781  20.146   9.204
 1342POPC   GL221026   2.118  20.168   9.108
 1342POPC   C1A21027   1.794  19.895   8.817
 1342POPC   D2A21028   1.794  19.890   8.367
 1342POPC   C3A21029   2.022  19.679   7.985
 1342POPC   C4A21030   2.324  19.733   7.611
 1342POPC   C1B21031   2.306  20.090   8.732
 1342POPC   C2B21032   2.330  19.891   8.359
 1342POPC   C3B21033   2.326  20.092   7.979
 1342POPC   C4B21034   2.435  20.260   7.599
 1343POPC   NC321035  13.684  26.825   9.675
 1343POPC   PO421036  13.201  26.367   9.685
 1343POPC   GL121037  13.422  26.398   9.256
 1343POPC   GL221038  13.791  26.561   9.240
 1343POPC   C1A21039  13.477  26.577   8.827
 1343POPC   D2A21040  13.556  26.857   8.501
 1343POPC   C3A21041  13.487  26.671   8.103
 1343POPC   C4A21042  13.193  26.791   7.823
 1343POPC   C1B21043  13.919  26.905   8.883
 1343POPC   C2B21044  13.923  27.180   8.454
 1343POPC   C3B21045  13.852  27.041   8.043
 1343POPC   C4B21046  13.672  26.904   7.670
 1344POPC   NC321047   9.365  17.269   9.517
 1344POPC   PO421048  10.061  17.412   9.482
 1344POPC   GL121049   9.749  17.387   9.205
 1344POPC   GL221050   9.738  17.731   9.039
 1344POPC   C1A21051   9.595  17.315   8.819
 1344POPC   D2A21052   9.647  17.680   8.511
 1344POPC   C3A21053   9.661  17.554   8.067
 1344POPC   C4A21054   9.476  17.619   7.658
 1344POPC   C1B21055  10.058  17.514   8.798
 1344POPC   C2B21056  10.168  17.509   8.393
 1344POPC   C3B21057  10.140  17.271   8.043
 1344POPC   C4B21058  10.194  17.380   7.628
 1345POPC   NC321059  14.662  10.573   9.824
 1345POPC   PO421060  13.975  10.613   9.599
 1345POPC   GL121061  14.309  10.727   9.288
 1345POPC   GL221062  14.053  10.756   9.075
 1345POPC   C1A21063  14.509  10.760   8.825
 1345POPC   D2A21064  14.517  10.453   8.446
 1345POPC   C3A21065  14.544  10.465   7.980
 1345POPC   C4A21066  14.224  10.457   7.651
 1345POPC   C1B21067  14.052  10.615   8.646
 1345POPC   C2B21068  14.119  10.699   8.203
 1345POPC   C3B21069  14.077  10.943   7.824
 1345POPC   C4B21070  14.094  10.869   7.388
 1346POPC   NC321071  22.927   7.131   9.531
 1346POPC   PO421072  23.340   7.698   9.449
 1346POPC   GL121073  23.107   7.535   9.068
 1346POPC   GL221074  22.832   7.310   9.066
 1346POPC   C1A21075  22.780   7.735   8.781
 1346POPC   D2A21076  22.471   7.561   8.482
 1346POPC   C3A21077  22.568   7.741   8.095
 1346POPC   C4A21078  22.679   7.500   7.751
 1346POPC   C1B21079  22.980   7.303   8.620
 1346POPC   C2B21080  22.871   7.306   8.191
 1346POPC   C3B21081  23.146   7.273   7.838
 1346POPC   C4B21082  23.218   6.983   7.487
 1347POPC   NC321083  41.339  33.832   9.677
 1347POPC   PO421084  40.724  33.806   9.365
 1347POPC   GL121085  40.990  34.051   9.136
 1347POPC   GL221086  41.194  33.762   9.117
 1347POPC   C1A21087  41.074  34.066   8.677
 1347POPC   D2A21088  40.829  34.037   8.296
 1347POPC   C3A21089  40.742  33.620   8.124
 1347POPC   C4A21090  40.762  33.568   7.722
 1347POPC   C1B21091  41.357  33.633   8.762
 1347POPC   C2B21092  41.186  33.633   8.355
 1347POPC   C3B21093  41.196  33.828   7.938
 1347POPC   C4B21094  41.132  33.859   7.472
 1348POPC   NC321095  20.731  23.546   9.489
 1348POPC   PO421096  20.403  24.066   9.755
 1348POPC   GL121097  20.293  23.923   9.299
 1348POPC   GL221098  20.233  23.562   9.207
 1348POPC   C1A21099  20.275  23.933   8.832
 1348POPC   D2A21100  20.333  24.114   8.409
 1348POPC   C3A21101  20.313  23.921   7.985
 1348POPC   C4A21102  20.221  23.661   7.611
 1348POPC   C1B21103  20.489  23.473   8.825
 1348POPC   C2B21104  20.573  23.633   8.385
 1348POPC   C3B21105  20.579  23.458   7.941
 1348POPC   C4B21106  20.708  23.555   7.504
 1349POPC   NC321107   9.465   0.298   9.588
 1349POPC   PO421108  10.141   0.297   9.354
 1349POPC   GL121109   9.790   0.468   9.174
 1349POPC   GL221110   9.547   0.237   9.098
 1349POPC   C1A21111   9.549   0.681   8.853
 1349POPC   D2A21112   9.577   0.526   8.454
 1349POPC   C3A21113   9.785   0.727   8.094
 1349POPC   C4A21114   9.831   0.666   7.664
 1349POPC   C1B21115   9.794   0.097   8.770
 1349POPC   C2B21116   9.667  44.941   8.384
 1349POPC   C3B21117   9.638   0.207   8.038
 1349POPC   C4B21118   9.309   0.342   7.803
 1350POPC   NC321119  40.671  11.532   9.512
 1350POPC   PO421120  40.845  10.896   9.414
 1350POPC   GL121121  40.834  11.247   9.110
 1350POPC   GL221122  40.503  11.396   9.046
 1350POPC   C1A21123  40.908  11.438   8.686
 1350POPC   D2A21124  40.677  11.332   8.289
 1350POPC   C3A21125  40.849  11.346   7.857
 1350POPC   C4A21126  40.949  11.104   7.488
 1350POPC   C1B21127  40.446  11.655   8.673
 1350POPC   C2B21128  40.399  11.762   8.211
 1350POPC   C3B21129  40.396  11.666   7.751
 1350POPC   C4B21130  40.482  11.741   7.296
 1351POPC   NC321131  30.196   7.539   9.520
 1351POPC   PO421132  29.542   7.310   9.545
 1351POPC   GL121133  29.802   7.394   9.200
 1351POPC   GL221134  30.067   7.182   9.183
 1351POPC   C1A21135  29.651   7.515   8.798
 1351POPC   D2A21136  29.542   7.705   8.426
 1351POPC   C3A21137  29.764   7.517   8.090
 1351POPC   C4A21138  29.811   7.568   7.662
 1351POPC   C1B21139  30.135   7.368   8.793
 1351POPC   C2B21140  30.260   7.430   8.380
 1351POPC   C3B21141  30.272   7.486   7.937
 1351POPC   C4B21142  30.261   7.463   7.476
 1352POPC   NC321143  38.826  33.987   9.351
 1352POPC   PO421144  38.322  33.602   9.692
 1352POPC   GL121145  38.308  33.678   9.251
 1352POPC   GL221146  38.571  33.699   9.020
 1352POPC   C1A21147  38.095  33.585   8.850
 1352POPC   D2A21148  37.934  33.568   8.435
 1352POPC   C3A21149  38.226  33.719   8.109
 1352POPC   C4A21150  38.218  33.561   7.710
 1352POPC   C1B21151  38.511  33.755   8.561
 1352POPC   C2B21152  38.613  34.043   8.211
 1352POPC   C3B21153  38.767  34.281   7.864
 1352POPC   C4B21154  38.801  34.192   7.367
 1353POPC   NC321155   2.734  28.890   9.221
 1353POPC   PO421156   2.457  29.396   9.451
 1353POPC   GL121157   2.712  29.408   9.088
 1353POPC   GL221158   3.021  29.346   9.118
 1353POPC   C1A21159   2.714  29.312   8.668
 1353POPC   D2A21160   2.521  29.327   8.280
 1353POPC   C3A21161   2.794  29.106   8.018
 1353POPC   C4A21162   2.757  28.960   7.598
 1353POPC   C1B21163   3.129  29.631   8.782
 1353POPC   C2B21164   2.933  29.731   8.398
 1353POPC   C3B21165   2.850  29.606   7.985
 1353POPC   C4B21166   3.078  29.372   7.715
 1354POPC   NC321167  43.142   0.113   9.448
 1354POPC   PO421168  42.866  44.552   9.371
 1354POPC   GL121169  43.228  44.491   9.111
 1354POPC   GL221170  43.250  44.808   9.064
 1354POPC   C1A21171  43.226  44.425   8.658
 1354POPC   D2A21172  42.919  44.369   8.325
 1354POPC   C3A21173  43.058  44.473   7.919
 1354POPC   C4A21174  43.007  44.518   7.470
 1354POPC   C1B21175  43.125   0.079   8.769
 1354POPC   C2B21176  43.096  44.867   8.392
 1354POPC   C3B21177  42.930  44.951   8.025
 1354POPC   C4B21178  43.205  44.937   7.695
 1355POPC   NC321179  28.862   6.444   9.314
 1355POPC   PO421180  29.399   6.703   9.491
 1355POPC   GL121181  29.205   6.728   9.060
 1355POPC   GL221182  28.942   6.921   9.026
 1355POPC   C1A21183  29.121   6.689   8.598
 1355POPC   D2A21184  28.835   6.496   8.325
 1355POPC   C3A21185  28.956   6.553   7.898
 1355POPC   C4A21186  29.371   6.653   7.717
 1355POPC   C1B21187  28.850   7.107   8.642
 1355POPC   C2B21188  28.905   6.987   8.207
 1355POPC   C3B21189  29.055   7.048   7.808
 1355POPC   C4B21190  29.051   7.137   7.385
 1356POPC   NC321191   3.795   8.738   9.350
 1356POPC   PO421192   3.532   9.341   9.570
 1356POPC   GL121193   3.545   9.145   9.144
 1356POPC   GL221194   3.823   8.966   8.906
 1356POPC   C1A21195   3.297   9.115   8.762
 1356POPC   D2A21196   3.244   9.368   8.402
 1356POPC   C3A21197   3.407   9.217   8.032
 1356POPC   C4A21198   3.832   9.192   7.818
 1356POPC   C1B21199   3.588   8.680   8.675
 1356POPC   C2B21200   3.411   8.788   8.334
 1356POPC   C3B21201   3.652   8.756   7.981
 1356POPC   C4B21202   3.515   8.660   7.577
 1357POPC   NC321203  21.688  11.670   9.463
 1357POPC   PO421204  21.317  11.116   9.507
 1357POPC   GL121205  21.379  11.372   9.186
 1357POPC   GL221206  21.676  11.246   9.102
 1357POPC   C1A21207  21.311  11.641   8.855
 1357POPC   D2A21208  21.372  11.733   8.429
 1357POPC   C3A21209  21.051  11.581   8.163
 1357POPC   C4A21210  21.117  11.548   7.757
 1357POPC   C1B21211  21.623  11.283   8.664
 1357POPC   C2B21212  21.460  11.242   8.245
 1357POPC   C3B21213  21.460  11.167   7.811
 1357POPC   C4B21214  21.544  10.949   7.447
 1358POPC   NC321215  24.048  29.891   9.843
 1358POPC   PO421216  24.660  30.190   9.576
 1358POPC   GL121217  24.548  30.082   9.173
 1358POPC   GL221218  24.298  30.313   9.081
 1358POPC   C1A21219  24.394  29.972   8.722
 1358POPC   D2A21220  24.436  29.839   8.276
 1358POPC   C3A21221  24.311  29.897   7.838
 1358POPC   C4A21222  24.459  29.783   7.401
 1358POPC   C1B21223  24.701  30.370   8.801
 1358POPC   C2B21224  24.785  30.191   8.429
 1358POPC   C3B21225  24.898  30.026   8.064
 1358POPC   C4B21226  24.748  30.131   7.691
 1359POPC   NC321227  38.694  33.239   9.650
 1359POPC   PO421228  38.458  32.638   9.465
 1359POPC   GL121229  38.665  32.858   9.178
 1359POPC   GL221230  38.509  33.193   9.161
 1359POPC   C1A21231  38.567  32.850   8.744
 1359POPC   D2A21232  38.346  33.228   8.561
 1359POPC   C3A21233  38.360  33.224   8.122
 1359POPC   C4A21234  38.439  32.899   7.853
 1359POPC   C1B21235  38.794  33.291   8.821
 1359POPC   C2B21236  38.814  33.381   8.396
 1359POPC   C3B21237  38.737  33.562   8.006
 1359POPC   C4B21238  38.681  33.337   7.617
 1360POPC   NC321239   0.077  17.538   9.544
 1360POPC   PO421240  44.431  17.785   9.543
 1360POPC   GL121241  44.733  17.762   9.180
 1360POPC   GL221242  44.958  17.478   9.060
 1360POPC   C1A21243  44.635  17.710   8.736
 1360POPC   D2A21244  44.525  17.528   8.331
 1360POPC   C3A21245  44.598  17.696   7.902
 1360POPC   C4A21246  44.638  17.501   7.453
 1360POPC   C1B21247   0.127  17.558   8.639
 1360POPC   C2B21248   0.017  17.597   8.204
 1360POPC   C3B21249  44.846  17.267   7.894
 1360POPC   C4B21250   0.006  17.127   7.501
 1361POPC   NC321251   0.423  33.333   9.530
 1361POPC   PO421252   0.206  33.991   9.542
 1361POPC   GL121253   0.423  33.916   9.170
 1361POPC   GL221254   0.231  33.618   9.084
 1361POPC   C1A21255   0.435  34.034   8.719
 1361POPC   D2A21256   0.120  34.075   8.379
 1361POPC   C3A21257   0.221  33.736   8.095
 1361POPC   C4A21258   0.301  33.852   7.656
 1361POPC   C1B21259   0.669  33.525   8.946
 1361POPC   C2B21260   0.903  33.303   8.621
 1361POPC   C3B21261   0.887  33.332   8.171
 1361POPC   C4B21262   0.653  33.573   7.892
 1362POPC   NC321263  14.011  11.790   9.553
 1362POPC   PO421264  14.645  12.056   9.689
 1362POPC   GL121265  14.390  12.108   9.232
 1362POPC   GL221266  14.579  12.327   8.939
 1362POPC   C1A21267  14.199  12.010   8.791
 1362POPC   D2A21268  14.294  12.233   8.397
 1362POPC   C3A21269  14.269  12.139   7.964
 1362POPC   C4A21270  14.211  12.202   7.491
 1362POPC   C1B21271  14.682  12.025   8.663
 1362POPC   C2B21272  14.642  11.847   8.287
 1362POPC   C3B21273  14.788  12.070   7.968
 1362POPC   C4B21274  14.667  12.257   7.646
 1363POPC   NC321275  39.734  24.792   9.344
 1363POPC   PO421276  40.401  24.521   9.461
 1363POPC   GL121277  40.109  24.519   9.076
 1363POPC   GL221278  40.243  24.648   8.767
 1363POPC   C1A21279  39.793  24.393   8.725
 1363POPC   D2A21280  39.558  24.239   8.343
 1363POPC   C3A21281  39.816  24.387   8.059
 1363POPC   C4A21282  39.750  24.742   7.805
 1363POPC   C1B21283  40.284  24.244   8.631
 1363POPC   C2B21284  40.021  23.983   8.376
 1363POPC   C3B21285  40.160  24.016   7.942
 1363POPC   C4B21286  40.239  24.432   7.756
 1364POPC   NC321287  41.828  38.813   9.323
 1364POPC   PO421288  41.511  38.441   9.832
 1364POPC   GL121289  41.487  38.435   9.374
 1364POPC   GL221290  41.716  38.206   9.236
 1364POPC   C1A21291  41.333  38.537   8.945
 1364POPC   D2A21292  41.294  38.482   8.469
 1364POPC   C3A21293  41.241  38.179   8.102
 1364POPC   C4A21294  41.410  38.320   7.680
 1364POPC   C1B21295  41.588  38.119   8.831
 1364POPC   C2B21296  41.635  38.058   8.422
 1364POPC   C3B21297  41.724  38.347   8.092
 1364POPC   C4B21298  41.961  38.276   7.744
 1365POPC   NC321299  18.824  40.814   9.459
 1365POPC   PO421300  19.533  40.726   9.488
 1365POPC   GL121301  19.295  40.888   9.169
 1365POPC   GL221302  19.098  40.592   9.108
 1365POPC   C1A21303  19.072  41.013   8.802
 1365POPC   D2A21304  18.920  41.162   8.420
 1365POPC   C3A21305  19.099  40.938   8.086
 1365POPC   C4A21306  18.938  40.811   7.665
 1365POPC   C1B21307  18.953  40.496   8.673
 1365POPC   C2B21308  18.825  40.550   8.258
 1365POPC   C3B21309  19.037  40.403   7.923
 1365POPC   C4B21310  19.232  40.366   7.504
 1366POPC   NC321311  20.781  27.573   9.388
 1366POPC   PO421312  20.247  27.212   9.631
 1366POPC   GL121313  20.320  27.431   9.204
 1366POPC   GL221314  20.374  27.830   9.212
 1366POPC   C1A21315  20.329  27.430   8.724
 1366POPC   D2A21316  20.621  27.553   8.357
 1366POPC   C3A21317  20.615  27.351   7.933
 1366POPC   C4A21318  20.546  27.080   7.571
 1366POPC   C1B21319  20.485  27.915   8.779
 1366POPC   C2B21320  20.348  27.978   8.344
 1366POPC   C3B21321  20.492  27.860   7.899
 1366POPC   C4B21322  20.310  27.909   7.459
 1367POPC   NC321323  37.656  21.190   9.995
 1367POPC   PO421324  37.814  21.706   9.611
 1367POPC   GL121325  37.758  21.536   9.163
 1367POPC   GL221326  37.649  21.180   9.080
 1367POPC   C1A21327  37.491  21.636   8.783
 1367POPC   D2A21328  37.275  21.705   8.392
 1367POPC   C3A21329  37.422  21.402   8.115
 1367POPC   C4A21330  37.588  21.222   7.785
 1367POPC   C1B21331  37.679  21.132   8.609
 1367POPC   C2B21332  37.835  21.491   8.413
 1367POPC   C3B21333  38.020  21.464   8.039
 1367POPC   C4B21334  38.036  21.613   7.653
 1368POPC   NC321335  42.676   4.041   9.513
 1368POPC   PO421336  42.055   4.254   9.446
 1368POPC   GL121337  42.309   4.131   9.153
 1368POPC   GL221338  42.239   4.404   8.957
 1368POPC   C1A21339  42.537   3.997   8.799
 1368POPC   D2A21340  42.383   3.934   8.382
 1368POPC   C3A21341  42.354   4.251   8.074
 1368POPC   C4A21342  42.233   4.239   7.641
 1368POPC   C1B21343  41.984   4.293   8.600
 1368POPC   C2B21344  41.897   4.467   8.180
 1368POPC   C3B21345  42.143   4.682   7.867
 1368POPC   C4B21346  42.203   4.707   7.391
 1369POPC   NC321347  26.102  33.089   9.316
 1369POPC   PO421348  25.678  32.618   9.362
 1369POPC   GL121349  25.801  32.793   9.016
 1369POPC   GL221350  25.634  33.090   9.010
 1369POPC   C1A21351  26.055  32.900   8.658
 1369POPC   D2A21352  26.298  32.718   8.333
 1369POPC   C3A21353  26.160  32.811   7.915
 1369POPC   C4A21354  26.010  33.201   7.726
 1369POPC   C1B21355  25.550  32.905   8.591
 1369POPC   C2B21356  25.732  32.818   8.209
 1369POPC   C3B21357  25.660  32.832   7.756
 1369POPC   C4B21358  25.706  32.739   7.305
 1370POPC   NC321359  21.749  10.925   9.501
 1370POPC   PO421360  21.875  10.295   9.384
 1370POPC   GL121361  21.500  10.375   9.171
 1370POPC   GL221362  21.525  10.726   9.089
 1370POPC   C1A21363  21.255  10.318   8.793
 1370POPC   D2A21364  21.327  10.126   8.398
 1370POPC   C3A21365  21.300  10.310   7.959
 1370POPC   C4A21366  21.182  10.669   7.699
 1370POPC   C1B21367  21.439  10.797   8.672
 1370POPC   C2B21368  21.358  10.719   8.260
 1370POPC   C3B21369  21.647  10.701   7.913
 1370POPC   C4B21370  21.977  10.694   7.600
 1371POPC   NC321371  41.947  20.197   9.393
 1371POPC   PO421372  41.659  19.594   9.551
 1371POPC   GL121373  41.429  19.624   9.114
 1371POPC   GL221374  41.298  19.956   8.951
 1371POPC   C1A21375  41.447  19.615   8.637
 1371POPC   D2A21376  41.533  19.926   8.337
 1371POPC   C3A21377  41.749  19.709   8.023
 1371POPC   C4A21378  41.615  19.653   7.612
 1371POPC   C1B21379  41.785  19.929   8.824
 1371POPC   C2B21380  42.033  19.876   8.464
 1371POPC   C3B21381  41.954  20.162   8.113
 1371POPC   C4B21382  41.859  20.084   7.682
 1372POPC   NC321383  44.106  29.068   9.500
 1372POPC   PO421384  43.590  29.476   9.549
 1372POPC   GL121385  43.813  29.398   9.140
 1372POPC   GL221386  43.718  29.070   9.040
 1372POPC   C1A21387  44.078  29.346   8.743
 1372POPC   D2A21388  44.079  29.265   8.281
 1372POPC   C3A21389  43.737  29.020   8.057
 1372POPC   C4A21390  43.570  28.988   7.639
 1372POPC   C1B21391  43.846  28.879   8.641
 1372POPC   C2B21392  44.097  28.748   8.289
 1372POPC   C3B21393  44.267  28.972   7.903
 1372POPC   C4B21394  44.314  28.856   7.452
 1373POPC   NC321395  16.696  25.426   9.276
 1373POPC   PO421396  17.230  25.264   9.584
 1373POPC   GL121397  17.033  25.099   9.128
 1373POPC   GL221398  17.131  24.816   9.073
 1373POPC   C1A21399  16.793  25.183   8.710
 1373POPC   D2A21400  16.567  25.280   8.373
 1373POPC   C3A21401  16.573  25.566   8.049
 1373POPC   C4A21402  16.397  25.333   7.711
 1373POPC   C1B21403  17.086  24.799   8.680
 1373POPC   C2B21404  17.118  24.921   8.343
 1373POPC   C3B21405  16.864  25.011   8.053
 1373POPC   C4B21406  16.759  24.993   7.665
 1374POPC   NC321407  28.268  16.804   9.513
 1374POPC   PO421408  28.591  16.125   9.541
 1374POPC   GL121409  28.636  16.447   9.186
 1374POPC   GL221410  28.326  16.613   9.067
 1374POPC   C1A21411  28.705  16.679   8.751
 1374POPC   D2A21412  28.413  16.921   8.516
 1374POPC   C3A21413  28.343  16.849   8.086
 1374POPC   C4A21414  28.425  16.542   7.777
 1374POPC   C1B21415  28.053  16.562   8.734
 1374POPC   C2B21416  27.820  16.418   8.384
 1374POPC   C3B21417  27.907  16.595   8.019
 1374POPC   C4B21418  27.933  16.430   7.650
 1375POPC   NC321419  18.488  31.075   9.470
 1375POPC   PO421420  18.285  31.730   9.460
 1375POPC   GL121421  18.247  31.392   9.147
 1375POPC   GL221422  18.003  31.136   9.135
 1375POPC   C1A21423  18.373  31.368   8.728
 1375POPC   D2A21424  18.186  31.599   8.369
 1375POPC   C3A21425  18.388  31.715   8.003
 1375POPC   C4A21426  18.445  31.607   7.577
 1375POPC   C1B21427  17.871  31.355   8.713
 1375POPC   C2B21428  17.779  31.320   8.273
 1375POPC   C3B21429  18.043  31.342   7.854
 1375POPC   C4B21430  18.071  31.370   7.350
 1376POPC   NC321431  39.425  17.347   9.419
 1376POPC   PO421432  38.914  17.749   9.572
 1376POPC   GL121433  39.128  17.723   9.175
 1376POPC   GL221434  38.815  17.821   9.071
 1376POPC   C1A21435  39.359  17.587   8.775
 1376POPC   D2A21436  39.198  17.387   8.372
 1376POPC   C3A21437  39.382  17.371   7.994
 1376POPC   C4A21438  39.468  17.710   7.754
 1376POPC   C1B21439  38.854  17.646   8.698
 1376POPC   C2B21440  38.891  17.791   8.292
 1376POPC   C3B21441  38.948  17.700   7.856
 1376POPC   C4B21442  38.898  17.815   7.413
 1377POPC   NC321443  27.494  21.525   9.499
 1377POPC   PO421444  27.996  21.929   9.699
 1377POPC   GL121445  27.827  21.667   9.170
 1377POPC   GL221446  27.653  21.254   9.115
 1377POPC   C1A21447  27.550  21.543   8.736
 1377POPC   D2A21448  27.692  21.343   8.343
 1377POPC   C3A21449  27.771  21.594   7.969
 1377POPC   C4A21450  27.559  21.629   7.568
 1377POPC   C1B21451  27.411  21.031   8.732
 1377POPC   C2B21452  27.371  20.950   8.264
 1377POPC   C3B21453  27.380  21.251   7.894
 1377POPC   C4B21454  27.381  21.166   7.418
 1378POPC   NC321455  25.241  36.309   9.565
 1378POPC   PO421456  25.673  35.803   9.699
 1378POPC   GL121457  25.396  35.916   9.304
 1378POPC   GL221458  25.614  36.114   9.110
 1378POPC   C1A21459  25.122  36.067   8.926
 1378POPC   D2A21460  24.880  36.122   8.522
 1378POPC   C3A21461  24.966  36.150   8.066
 1378POPC   C4A21462  25.021  36.301   7.637
 1378POPC   C1B21463  25.561  36.003   8.681
 1378POPC   C2B21464  25.409  36.238   8.353
 1378POPC   C3B21465  25.621  36.394   7.999
 1378POPC   C4B21466  25.473  36.520   7.644
 1379POPC   NC321467  10.471  41.418   9.825
 1379POPC   PO421468  10.222  41.978   9.421
 1379POPC   GL121469  10.509  41.686   9.087
 1379POPC   GL221470  10.843  41.658   9.144
 1379POPC   C1A21471  10.641  41.436   8.708
 1379POPC   D2A21472  10.413  41.155   8.446
 1379POPC   C3A21473  10.397  41.330   8.013
 1379POPC   C4A21474  10.431  41.556   7.629
 1379POPC   C1B21475  10.891  41.868   8.732
 1379POPC   C2B21476  10.903  41.771   8.267
 1379POPC   C3B21477  10.852  41.817   7.836
 1379POPC   C4B21478  10.624  42.005   7.489
 1380POPC   NC321479   1.513  42.908   9.441
 1380POPC   PO421480   0.925  43.360   9.361
 1380POPC   GL121481   1.178  43.180   9.027
 1380POPC   GL221482   1.516  43.284   9.062
 1380POPC   C1A21483   1.234  43.349   8.576
 1380POPC   D2A21484   1.129  43.444   8.118
 1380POPC   C3A21485   0.975  43.105   7.880
 1380POPC   C4A21486   0.910  42.999   7.459
 1380POPC   C1B21487   1.741  43.247   8.672
 1380POPC   C2B21488   1.663  43.382   8.256
 1380POPC   C3B21489   1.508  43.150   7.923
 1380POPC   C4B21490   1.362  43.239   7.549
 1381POPC   NC321491   1.672  38.909   9.488
 1381POPC   PO421492   2.211  39.271   9.512
 1381POPC   GL121493   2.154  39.310   9.106
 1381POPC   GL221494   2.211  38.919   9.102
 1381POPC   C1A21495   2.060  39.518   8.687
 1381POPC   D2A21496   1.806  39.557   8.292
 1381POPC   C3A21497   2.066  39.434   7.912
 1381POPC   C4A21498   2.174  39.331   7.481
 1381POPC   C1B21499   2.049  38.999   8.725
 1381POPC   C2B21500   2.053  39.109   8.323
 1381POPC   C3B21501   1.891  38.953   7.954
 1381POPC   C4B21502   1.649  39.202   7.707
 1382POPC   NC321503   9.917  42.231   9.642
 1382POPC   PO421504   9.405  42.537   9.276
 1382POPC   GL121505   9.837  42.546   9.158
 1382POPC   GL221506   9.840  42.222   9.146
 1382POPC   C1A21507   9.995  42.447   8.714
 1382POPC   D2A21508   9.678  42.378   8.338
 1382POPC   C3A21509   9.737  42.495   7.875
 1382POPC   C4A21510   9.447  42.547   7.506
 1382POPC   C1B21511   9.683  42.045   8.756
 1382POPC   C2B21512   9.952  41.959   8.419
 1382POPC   C3B21513   9.781  41.988   7.991
 1382POPC   C4B21514   9.751  42.092   7.535
 1383POPC   NC321515   9.343  29.121   9.647
 1383POPC   PO421516   8.804  29.437   9.392
 1383POPC   GL121517   8.955  29.337   8.998
 1383POPC   GL221518   8.757  29.089   8.981
 1383POPC   C1A21519   9.275  29.374   8.641
 1383POPC   D2A21520   9.308  29.315   8.184
 1383POPC   C3A21521   8.944  29.135   7.997
 1383POPC   C4A21522   8.729  29.330   7.655
 1383POPC   C1B21523   9.196  28.918   8.893
 1383POPC   C2B21524   9.324  28.831   8.448
 1383POPC   C3B21525   9.442  28.845   7.998
 1383POPC   C4B21526   9.249  29.039   7.595
 1384POPC   NC321527  34.484  23.448   9.388
 1384POPC   PO421528  34.792  23.996   9.679
 1384POPC   GL121529  34.777  23.849   9.217
 1384POPC   GL221530  34.969  23.563   9.160
 1384POPC   C1A21531  34.485  23.725   8.822
 1384POPC   D2A21532  34.327  23.489   8.440
 1384POPC   C3A21533  34.423  23.534   7.995
 1384POPC   C4A21534  34.289  23.845   7.717
 1384POPC   C1B21535  34.978  23.703   8.729
 1384POPC   C2B21536  34.723  23.923   8.431
 1384POPC   C3B21537  34.703  23.978   8.015
 1384POPC   C4B21538  34.803  23.718   7.707
 1385POPC   NC321539  19.317  42.130   9.365
 1385POPC   PO421540  19.103  42.731   9.159
 1385POPC   GL121541  19.247  42.397   8.953
 1385POPC   GL221542  18.912  42.264   9.049
 1385POPC   C1A21543  19.208  42.063   8.675
 1385POPC   D2A21544  18.948  42.107   8.337
 1385POPC   C3A21545  19.046  41.983   7.922
 1385POPC   C4A21546  19.288  42.083   7.550
 1385POPC   C1B21547  18.582  42.481   8.800
 1385POPC   C2B21548  18.491  42.629   8.390
 1385POPC   C3B21549  18.772  42.494   8.059
 1385POPC   C4B21550  18.867  42.363   7.626
 1386POPC   NC321551  28.850  36.890   9.531
 1386POPC   PO421552  28.176  37.090   9.471
 1386POPC   GL121553  28.377  36.925   9.099
 1386POPC   GL221554  28.578  37.210   9.130
 1386POPC   C1A21555  28.307  36.731   8.656
 1386POPC   D2A21556  27.981  36.561   8.317
 1386POPC   C3A21557  28.143  36.775   7.950
 1386POPC   C4A21558  28.595  36.692   7.981
 1386POPC   C1B21559  28.405  37.241   8.700
 1386POPC   C2B21560  28.509  37.087   8.283
 1386POPC   C3B21561  28.430  37.205   7.832
 1386POPC   C4B21562  28.417  37.269   7.362
 1387POPC   NC321563  26.431   9.690   9.690
 1387POPC   PO421564  25.791   9.915   9.456
 1387POPC   GL121565  26.016   9.781   9.157
 1387POPC   GL221566  26.370   9.866   9.195
 1387POPC   C1A21567  25.850   9.575   8.828
 1387POPC   D2A21568  25.940   9.483   8.437
 1387POPC   C3A21569  25.778   9.773   8.146
 1387POPC   C4A21570  25.704   9.639   7.741
 1387POPC   C1B21571  26.336   9.748   8.751
 1387POPC   C2B21572  26.283   9.824   8.326
 1387POPC   C3B21573  26.203   9.549   7.981
 1387POPC   C4B21574  26.360   9.532   7.563
 1388POPC   NC321575  44.203   1.157   9.478
 1388POPC   PO421576  43.504   1.493   9.634
 1388POPC   GL121577  43.646   1.421   9.207
 1388POPC   GL221578  43.491   1.120   9.041
 1388POPC   C1A21579  43.984   1.549   8.894
 1388POPC   D2A21580  44.015   1.649   8.415
 1388POPC   C3A21581  44.151   1.356   8.078
 1388POPC   C4A21582  43.898   1.102   7.750
 1388POPC   C1B21583  43.599   1.311   8.693
 1388POPC   C2B21584  43.719   1.224   8.303
 1388POPC   C3B21585  43.621   1.457   7.972
 1388POPC   C4B21586  43.424   1.250   7.608
 1389POPC   NC321587  38.287  35.160   9.648
 1389POPC   PO421588  38.804  35.601   9.799
 1389POPC   GL121589  38.741  35.401   9.344
 1389POPC   GL221590  38.506  35.152   9.194
 1389POPC   C1A21591  38.640  35.525   8.897
 1389POPC   D2A21592  38.533  35.355   8.525
 1389POPC   C3A21593  38.494  35.635   8.189
 1389POPC   C4A21594  38.570  35.715   7.761
 1389POPC   C1B21595  38.186  35.106   8.862
 1389POPC   C2B21596  38.028  35.307   8.486
 1389POPC   C3B21597  38.236  35.185   8.136
 1389POPC   C4B21598  38.308  35.230   7.748
 1390POPC   NC321599  31.058  38.433   9.423
 1390POPC   PO421600  30.503  38.606   9.485
 1390POPC   GL121601  30.687  38.540   9.096
 1390POPC   GL221602  30.993  38.740   9.033
 1390POPC   C1A21603  30.770  38.293   8.747
 1390POPC   D2A21604  30.726  37.992   8.415
 1390POPC   C3A21605  30.565  38.058   8.015
 1390POPC   C4A21606  30.603  38.308   7.643
 1390POPC   C1B21607  31.195  38.609   8.696
 1390POPC   C2B21608  31.142  38.315   8.391
 1390POPC   C3B21609  30.979  38.357   8.014
 1390POPC   C4B21610  31.078  38.544   7.653
 1391POPC   NC321611  36.782  36.778   9.530
 1391POPC   PO421612  37.394  36.936   9.298
 1391POPC   GL121613  37.017  37.081   9.057
 1391POPC   GL221614  36.644  37.071   9.127
 1391POPC   C1A21615  36.869  37.132   8.630
 1391POPC   D2A21616  36.808  37.083   8.191
 1391POPC   C3A21617  37.093  36.769   8.000
 1391POPC   C4A21618  37.152  36.618   7.561
 1391POPC   C1B21619  36.469  36.843   8.743
 1391POPC   C2B21620  36.323  36.877   8.339
 1391POPC   C3B21621  36.382  37.033   7.907
 1391POPC   C4B21622  36.752  36.938   7.672
 1392POPC   NC321623  43.491  31.571   9.612
 1392POPC   PO421624  43.988  31.092   9.677
 1392POPC   GL121625  43.999  31.286   9.253
 1392POPC   GL221626  43.852  31.572   9.258
 1392POPC   C1A21627  44.113  31.488   8.842
 1392POPC   D2A21628  43.929  31.761   8.526
 1392POPC   C3A21629  43.973  31.584   8.113
 1392POPC   C4A21630  44.132  31.654   7.680
 1392POPC   C1B21631  43.592  31.670   8.924
 1392POPC   C2B21632  43.481  31.516   8.527
 1392POPC   C3B21633  43.444  31.610   8.106
 1392POPC   C4B21634  43.639  31.511   7.732
 1393POPC   NC321635  25.097   0.135   9.352
 1393POPC   PO421636  25.392  44.564   9.652
 1393POPC   GL121637  25.305  44.674   9.214
 1393POPC   GL221638  24.961  44.658   9.134
 1393POPC   C1A21639  25.540  44.639   8.813
 1393POPC   D2A21640  25.424  44.477   8.413
 1393POPC   C3A21641  25.273  44.687   8.058
 1393POPC   C4A21642  25.426  44.496   7.712
 1393POPC   C1B21643  25.073  44.763   8.707
 1393POPC   C2B21644  25.378  44.987   8.457
 1393POPC   C3B21645  25.553   0.128   8.086
 1393POPC   C4B21646  25.446   0.011   7.678
 1394POPC   NC321647  31.938  37.921   9.537
 1394POPC   PO421648  32.374  37.341   9.490
 1394POPC   GL121649  32.279  37.696   9.171
 1394POPC   GL221650  31.974  37.820   9.055
 1394POPC   C1A21651  32.457  37.703   8.759
 1394POPC   D2A21652  32.388  37.461   8.386
 1394POPC   C3A21653  32.430  37.718   8.015
 1394POPC   C4A21654  32.310  37.710   7.616
 1394POPC   C1B21655  32.019  38.021   8.695
 1394POPC   C2B21656  32.013  37.809   8.311
 1394POPC   C3B21657  31.979  37.504   7.967
 1394POPC   C4B21658  31.852  37.871   7.706
 1395POPC   NC321659   5.131   0.885   9.762
 1395POPC   PO421660   5.153   1.505   9.653
 1395POPC   GL121661   5.170   1.394   9.228
 1395POPC   GL221662   5.137   1.045   9.272
 1395POPC   C1A21663   5.050   1.443   8.783
 1395POPC   D2A21664   5.007   1.174   8.420
 1395POPC   C3A21665   4.977   1.337   8.004
 1395POPC   C4A21666   5.143   1.455   7.668
 1395POPC   C1B21667   5.296   0.990   8.862
 1395POPC   C2B21668   5.417   0.838   8.439
 1395POPC   C3B21669   5.284   0.952   8.030
 1395POPC   C4B21670   5.405   1.018   7.627
 1396POPC   NC321671  18.584  44.146   9.474
 1396POPC   PO421672  18.796  43.511   9.652
 1396POPC   GL121673  18.844  43.785   9.216
 1396POPC   GL221674  19.214  43.899   9.160
 1396POPC   C1A21675  18.944  43.877   8.729
 1396POPC   D2A21676  19.165  43.755   8.337
 1396POPC   C3A21677  18.885  43.814   7.989
 1396POPC   C4A21678  18.706  44.190   7.777
 1396POPC   C1B21679  19.443  43.992   8.742
 1396POPC   C2B21680  19.469  44.222   8.335
 1396POPC   C3B21681  19.302  44.119   7.932
 1396POPC   C4B21682  19.358  43.699   7.821
 1397POPC   NC321683   0.579  18.873   9.509
 1397POPC   PO421684   0.042  19.200   9.649
 1397POPC   GL121685   0.282  19.111   9.178
 1397POPC   GL221686   0.559  19.354   9.079
 1397POPC   C1A21687   0.418  19.010   8.727
 1397POPC   D2A21688   0.579  18.786   8.327
 1397POPC   C3A21689   0.679  18.983   7.922
 1397POPC   C4A21690   0.539  19.026   7.483
 1397POPC   C1B21691   0.839  19.405   8.746
 1397POPC   C2B21692   0.691  19.488   8.335
 1397POPC   C3B21693   0.521  19.462   7.939
 1397POPC   C4B21694   0.648  19.521   7.532
 1398POPC   NC321695  42.127  27.043   9.428
 1398POPC   PO421696  42.726  26.712   9.427
 1398POPC   GL121697  42.529  26.919   9.103
 1398POPC   GL221698  42.519  26.607   8.920
 1398POPC   C1A21699  42.319  27.098   8.732
 1398POPC   D2A21700  42.124  26.997   8.338
 1398POPC   C3A21701  42.326  27.181   7.966
 1398POPC   C4A21702  42.454  27.166   7.536
 1398POPC   C1B21703  42.360  26.547   8.514
 1398POPC   C2B21704  42.510  26.715   8.136
 1398POPC   C3B21705  42.322  26.686   7.739
 1398POPC   C4B21706  42.053  26.363   7.550
 1399POPC   NC321707  28.649  31.041  10.050
 1399POPC   PO421708  29.085  31.318   9.547
 1399POPC   GL121709  29.148  31.245   9.130
 1399POPC   GL221710  28.939  31.541   9.082
 1399POPC   C1A21711  29.115  31.271   8.679
 1399POPC   D2A21712  28.817  31.131   8.406
 1399POPC   C3A21713  28.961  31.292   8.050
 1399POPC   C4A21714  29.372  31.396   7.908
 1399POPC   C1B21715  29.318  31.697   8.894
 1399POPC   C2B21716  29.273  31.841   8.474
 1399POPC   C3B21717  29.125  31.800   8.069
 1399POPC   C4B21718  29.254  31.817   7.655
 1400POPC   NC321719  34.333  42.250   9.506
 1400POPC   PO421720  34.871  42.650   9.408
 1400POPC   GL121721  34.552  42.572   9.155
 1400POPC   GL221722  34.652  42.216   9.114
 1400POPC   C1A21723  34.459  42.598   8.743
 1400POPC   D2A21724  34.350  42.664   8.321
 1400POPC   C3A21725  34.573  42.619   7.958
 1400POPC   C4A21726  34.281  42.442   7.730
 1400POPC   C1B21727  34.889  42.349   8.764
 1400POPC   C2B21728  34.680  42.252   8.375
 1400POPC   C3B21729  34.535  42.074   7.995
 1400POPC   C4B21730  34.692  42.199   7.595
 1401POPC   NC321731   9.330  39.956   9.399
 1401POPC   PO421732   9.860  39.902   9.750
 1401POPC   GL121733   9.838  40.101   9.245
 1401POPC   GL221734   9.543  40.300   9.093
 1401POPC   C1A21735   9.784  40.036   8.734
 1401POPC   D2A21736   9.896  39.860   8.284
 1401POPC   C3A21737   9.897  40.011   7.817
 1401POPC   C4A21738  10.014  40.189   7.380
 1401POPC   C1B21739   9.246  40.096   8.775
 1401POPC   C2B21740   9.346  39.807   8.438
 1401POPC   C3B21741   9.437  39.987   8.033
 1401POPC   C4B21742   9.395  40.363   7.763
 1402POPC   NC321743  40.251   4.746   9.736
 1402POPC   PO421744  40.139   4.127   9.446
 1402POPC   GL121745  39.985   4.203   9.049
 1402POPC   GL221746  39.853   3.900   9.030
 1402POPC   C1A21747  40.166   4.380   8.659
 1402POPC   D2A21748  40.403   4.515   8.311
 1402POPC   C3A21749  40.134   4.407   7.982
 1402POPC   C4A21750  40.226   4.056   7.780
 1402POPC   C1B21751  39.797   4.020   8.622
 1402POPC   C2B21752  39.732   4.091   8.219
 1402POPC   C3B21753  39.703   4.119   7.812
 1402POPC   C4B21754  39.897   4.369   7.516
 1403POPC   NC321755  24.241  17.401   9.508
 1403POPC   PO421756  23.471  17.588   9.510
 1403POPC   GL121757  23.733  17.410   9.206
 1403POPC   GL221758  24.032  17.619   9.108
 1403POPC   C1A21759  23.787  17.281   8.786
 1403POPC   D2A21760  23.993  17.352   8.392
 1403POPC   C3A21761  23.644  17.403   8.120
 1403POPC   C4A21762  23.626  17.318   7.701
 1403POPC   C1B21763  23.959  17.778   8.714
 1403POPC   C2B21764  23.829  17.855   8.294
 1403POPC   C3B21765  23.859  17.782   7.845
 1403POPC   C4B21766  23.868  17.761   7.354
 1404POPC   NC321767   1.690  27.435   9.541
 1404POPC   PO421768   2.295  27.238   9.351
 1404POPC   GL121769   2.227  27.374   8.991
 1404POPC   GL221770   1.894  27.535   9.062
 1404POPC   C1A21771   2.346  27.554   8.614
 1404POPC   D2A21772   2.247  27.924   8.432
 1404POPC   C3A21773   2.239  27.940   8.031
 1404POPC   C4A21774   1.963  27.837   7.706
 1404POPC   C1B21775   1.851  27.286   8.661
 1404POPC   C2B21776   1.988  27.327   8.227
 1404POPC   C3B21777   1.754  27.388   7.848
 1404POPC   C4B21778   1.689  27.117   7.460
 1405POPC   NC321779  20.175  25.542   9.588
 1405POPC   PO421780  20.619  26.199   9.604
 1405POPC   GL121781  20.702  26.110   9.123
 1405POPC   GL221782  20.488  25.869   8.955
 1405POPC   C1A21783  20.565  26.279   8.681
 1405POPC   D2A21784  20.710  26.438   8.296
 1405POPC   C3A21785  20.568  26.258   7.927
 1405POPC   C4A21786  20.720  26.195   7.512
 1405POPC   C1B21787  20.152  25.970   8.668
 1405POPC   C2B21788  20.342  25.957   8.264
 1405POPC   C3B21789  20.579  25.757   7.893
 1405POPC   C4B21790  20.468  25.710   7.451
 1406POPC   NC321791  42.462  17.569   9.557
 1406POPC   PO421792  42.082  18.108   9.400
 1406POPC   GL121793  42.314  18.159   9.064
 1406POPC   GL221794  42.517  17.843   9.127
 1406POPC   C1A21795  42.228  18.329   8.663
 1406POPC   D2A21796  42.022  18.366   8.256
 1406POPC   C3A21797  42.218  18.437   7.874
 1406POPC   C4A21798  42.132  18.195   7.501
 1406POPC   C1B21799  42.615  17.934   8.706
 1406POPC   C2B21800  42.321  17.904   8.351
 1406POPC   C3B21801  42.401  17.956   7.919
 1406POPC   C4B21802  42.528  17.708   7.564
 1407POPC   NC321803  16.691  28.460   9.477
 1407POPC   PO421804  17.058  27.893   9.326
 1407POPC   GL121805  16.747  28.191   9.048
 1407POPC   GL221806  16.736  28.601   8.996
 1407POPC   C1A21807  16.427  28.287   8.722
 1407POPC   D2A21808  16.255  28.175   8.304
 1407POPC   C3A21809  16.572  27.967   8.020
 1407POPC   C4A21810  16.847  28.180   7.737
 1407POPC   C1B21811  16.834  28.616   8.573
 1407POPC   C2B21812  16.821  28.482   8.155
 1407POPC   C3B21813  16.738  28.707   7.769
 1407POPC   C4B21814  16.885  28.892   7.385
 1408POPC   NC321815  35.976  10.657   9.553
 1408POPC   PO421816  36.474  11.050   9.698
 1408POPC   GL121817  36.423  10.816   9.239
 1408POPC   GL221818  36.090  10.882   9.117
 1408POPC   C1A21819  36.257  10.559   8.797
 1408POPC   D2A21820  36.053  10.609   8.366
 1408POPC   C3A21821  36.246  10.573   7.951
 1408POPC   C4A21822  36.580  10.602   7.675
 1408POPC   C1B21823  35.797  10.843   8.766
 1408POPC   C2B21824  35.604  10.852   8.343
 1408POPC   C3B21825  35.711  10.642   7.947
 1408POPC   C4B21826  35.911  10.814   7.567
 1409POPC   NC321827   3.269  38.316   9.419
 1409POPC   PO421828   3.965  38.410   9.477
 1409POPC   GL121829   3.729  38.385   9.151
 1409POPC   GL221830   3.679  38.745   9.059
 1409POPC   C1A21831   3.691  38.373   8.724
 1409POPC   D2A21832   3.374  38.496   8.448
 1409POPC   C3A21833   3.452  38.380   8.054
 1409POPC   C4A21834   3.617  38.312   7.686
 1409POPC   C1B21835   3.624  38.946   8.613
 1409POPC   C2B21836   3.519  38.885   8.129
 1409POPC   C3B21837   3.343  38.751   7.695
 1409POPC   C4B21838   3.162  38.871   7.262
 1410POPC   NC321839  39.174  34.910   9.519
 1410POPC   PO421840  38.986  34.285   9.657
 1410POPC   GL121841  38.951  34.506   9.258
 1410POPC   GL221842  39.217  34.311   9.156
 1410POPC   C1A21843  39.027  34.608   8.794
 1410POPC   D2A21844  38.949  34.426   8.368
 1410POPC   C3A21845  39.022  34.690   8.025
 1410POPC   C4A21846  39.110  34.542   7.618
 1410POPC   C1B21847  39.135  34.119   8.755
 1410POPC   C2B21848  39.406  34.192   8.377
 1410POPC   C3B21849  39.385  34.333   8.006
 1410POPC   C4B21850  39.423  34.140   7.625
 1411POPC   NC321851   3.041  21.925   9.476
 1411POPC   PO421852   2.482  22.054   9.212
 1411POPC   GL121853   2.802  22.049   9.008
 1411POPC   GL221854   2.920  22.349   9.155
 1411POPC   C1A21855   2.662  21.965   8.578
 1411POPC   D2A21856   2.643  21.704   8.201
 1411POPC   C3A21857   2.581  21.993   7.916
 1411POPC   C4A21858   2.866  22.253   7.723
 1411POPC   C1B21859   2.696  22.489   8.768
 1411POPC   C2B21860   2.553  22.402   8.336
 1411POPC   C3B21861   2.606  22.618   7.973
 1411POPC   C4B21862   2.586  22.653   7.527
 1412POPC   NC321863  23.162  11.713   9.851
 1412POPC   PO421864  22.755  12.154   9.553
 1412POPC   GL121865  22.844  12.013   9.177
 1412POPC   GL221866  23.157  12.011   9.173
 1412POPC   C1A21867  22.779  11.855   8.746
 1412POPC   D2A21868  22.851  11.992   8.323
 1412POPC   C3A21869  22.657  11.791   7.958
 1412POPC   C4A21870  22.542  12.077   7.671
 1412POPC   C1B21871  23.326  11.888   8.777
 1412POPC   C2B21872  23.362  11.732   8.369
 1412POPC   C3B21873  23.202  11.810   7.974
 1412POPC   C4B21874  23.017  11.576   7.671
 1413POPC   NC321875  36.927  15.702   9.530
 1413POPC   PO421876  36.916  16.316   9.458
 1413POPC   GL121877  36.893  16.014   9.118
 1413POPC   GL221878  36.581  15.802   9.097
 1413POPC   C1A21879  37.160  16.013   8.717
 1413POPC   D2A21880  37.397  15.978   8.316
 1413POPC   C3A21881  37.151  15.739   7.983
 1413POPC   C4A21882  37.269  15.687   7.509
 1413POPC   C1B21883  36.648  16.098   8.699
 1413POPC   C2B21884  36.882  16.122   8.296
 1413POPC   C3B21885  36.854  16.178   7.868
 1413POPC   C4B21886  36.568  16.064   7.561
 1414POPC   NC321887   2.616  13.929   9.514
 1414POPC   PO421888   3.173  13.615   9.423
 1414POPC   GL121889   2.811  13.543   9.219
 1414POPC   GL221890   2.791  13.874   9.047
 1414POPC   C1A21891   2.561  13.454   8.888
 1414POPC   D2A21892   2.564  13.564   8.469
 1414POPC   C3A21893   2.561  13.278   8.150
 1414POPC   C4A21894   2.604  13.469   7.735
 1414POPC   C1B21895   3.121  14.095   8.855
 1414POPC   C2B21896   3.055  14.178   8.415
 1414POPC   C3B21897   2.818  13.939   8.082
 1414POPC   C4B21898   2.972  13.823   7.678
 1415POPC   NC321899  31.684  38.522   9.633
 1415POPC   PO421900  31.173  38.885   9.470
 1415POPC   GL121901  31.478  38.585   9.175
 1415POPC   GL221902  31.665  38.237   9.205
 1415POPC   C1A21903  31.704  38.557   8.783
 1415POPC   D2A21904  31.600  38.614   8.378
 1415POPC   C3A21905  31.280  38.761   8.135
 1415POPC   C4A21906  31.539  38.728   7.771
 1415POPC   C1B21907  31.411  38.178   8.862
 1415POPC   C2B21908  31.594  38.112   8.461
 1415POPC   C3B21909  31.734  38.201   8.086
 1415POPC   C4B21910  31.441  38.188   7.780
 1416POPC   NC321911   9.359  18.899   9.573
 1416POPC   PO421912   9.060  19.475   9.755
 1416POPC   GL121913   9.114  19.275   9.286
 1416POPC   GL221914   9.046  18.899   9.154
 1416POPC   C1A21915   8.946  19.279   8.846
 1416POPC   D2A21916   9.123  19.248   8.443
 1416POPC   C3A21917   8.836  19.142   8.087
 1416POPC   C4A21918   8.958  19.133   7.646
 1416POPC   C1B21919   8.807  18.792   8.715
 1416POPC   C2B21920   8.678  18.649   8.240
 1416POPC   C3B21921   8.642  18.776   7.767
 1416POPC   C4B21922   8.979  18.682   7.411
 1417POPC   NC321923  27.252  32.129   9.507
 1417POPC   PO421924  27.906  32.090   9.676
 1417POPC   GL121925  27.722  32.024   9.245
 1417POPC   GL221926  27.374  31.925   9.065
 1417POPC   C1A21927  27.732  32.210   8.827
 1417POPC   D2A21928  27.840  32.462   8.472
 1417POPC   C3A21929  27.800  32.274   8.072
 1417POPC   C4A21930  27.794  32.468   7.680
 1417POPC   C1B21931  27.379  31.860   8.622
 1417POPC   C2B21932  27.359  32.028   8.209
 1417POPC   C3B21933  27.151  31.946   7.808
 1417POPC   C4B21934  27.134  31.982   7.318
 1418POPC   NC321935   8.426  34.949   9.437
 1418POPC   PO421936   8.032  35.518   9.497
 1418POPC   GL121937   7.896  35.257   9.178
 1418POPC   GL221938   8.240  35.276   9.092
 1418POPC   C1A21939   7.863  35.145   8.740
 1418POPC   D2A21940   8.095  35.091   8.371
 1418POPC   C3A21941   8.041  35.367   8.045
 1418POPC   C4A21942   8.117  35.241   7.633
 1418POPC   C1B21943   8.412  35.114   8.765
 1418POPC   C2B21944   8.584  35.217   8.362
 1418POPC   C3B21945   8.510  35.127   7.963
 1418POPC   C4B21946   8.603  35.346   7.642
 1419POPC   NC321947  11.972  43.057   9.821
 1419POPC   PO421948  12.408  43.339   9.421
 1419POPC   GL121949  12.005  43.336   9.272
 1419POPC   GL221950  12.008  43.028   9.216
 1419POPC   C1A21951  11.925  43.394   8.821
 1419POPC   D2A21952  12.178  43.254   8.430
 1419POPC   C3A21953  12.270  43.364   7.984
 1419POPC   C4A21954  12.221  43.162   7.573
 1419POPC   C1B21955  12.019  42.900   8.780
 1419POPC   C2B21956  11.806  42.918   8.364
 1419POPC   C3B21957  11.865  43.034   7.941
 1419POPC   C4B21958  11.879  42.790   7.557
 1420POPC   NC321959  44.338  34.939   9.446
 1420POPC   PO421960  43.764  34.612   9.650
 1420POPC   GL121961  43.808  34.726   9.219
 1420POPC   GL221962  43.962  34.391   9.206
 1420POPC   C1A21963  43.643  34.850   8.791
 1420POPC   D2A21964  43.868  34.813   8.396
 1420POPC   C3A21965  43.707  34.882   7.990
 1420POPC   C4A21966  43.754  34.676   7.580
 1420POPC   C1B21967  44.018  34.496   8.784
 1420POPC   C2B21968  44.061  34.282   8.400
 1420POPC   C3B21969  43.827  34.362   8.017
 1420POPC   C4B21970  44.034  34.272   7.637
 1421POPC   NC321971   3.133  34.256   9.441
 1421POPC   PO421972   3.010  34.859   9.631
 1421POPC   GL121973   3.013  34.712   9.202
 1421POPC   GL221974   2.779  34.463   9.093
 1421POPC   C1A21975   2.903  34.819   8.766
 1421POPC   D2A21976   2.583  34.837   8.471
 1421POPC   C3A21977   2.783  34.689   8.106
 1421POPC   C4A21978   2.672  34.718   7.706
 1421POPC   C1B21979   2.559  34.271   8.760
 1421POPC   C2B21980   2.428  34.356   8.343
 1421POPC   C3B21981   2.555  34.257   7.909
 1421POPC   C4B21982   2.620  34.242   7.435
 1422POPC   NC321983  15.804  27.964   9.531
 1422POPC   PO421984  16.244  28.471   9.582
 1422POPC   GL121985  16.042  28.415   9.161
 1422POPC   GL221986  15.674  28.354   9.188
 1422POPC   C1A21987  15.910  28.307   8.717
 1422POPC   D2A21988  15.733  28.400   8.317
 1422POPC   C3A21989  15.964  28.456   7.945
 1422POPC   C4A21990  16.366  28.359   7.752
 1422POPC   C1B21991  15.581  27.972   8.917
 1422POPC   C2B21992  15.552  27.957   8.469
 1422POPC   C3B21993  15.837  27.962   8.096
 1422POPC   C4B21994  15.973  28.054   7.649
 1423POPC   NC321995   1.870  33.278  10.017
 1423POPC   PO421996   1.983  32.698   9.643
 1423POPC   GL121997   1.791  33.014   9.339
 1423POPC   GL221998   2.063  33.082   9.231
 1423POPC   C1A21999   1.762  33.207   8.874
 1423POPC   D2A22000   1.814  33.064   8.436
 1423POPC   C3A22001   1.826  33.287   8.021
 1423POPC   C4A22002   1.942  33.088   7.654
 1423POPC   C1B22003   2.147  32.813   8.884
 1423POPC   C2B22004   2.217  32.735   8.454
 1423POPC   C3B22005   2.218  32.929   8.064
 1423POPC   C4B22006   2.427  32.891   7.674
 1424POPC   NC322007  16.136  18.439   9.554
 1424POPC   PO422008  15.645  18.037   9.436
 1424POPC   GL122009  15.820  18.370   9.161
 1424POPC   GL222010  15.863  18.718   9.203
 1424POPC   C1A22011  16.061  18.472   8.790
 1424POPC   D2A22012  16.180  18.278   8.427
 1424POPC   C3A22013  16.008  18.347   8.033
 1424POPC   C4A22014  15.978  17.920   7.849
 1424POPC   C1B22015  15.578  18.622   8.787
 1424POPC   C2B22016  15.589  18.376   8.370
 1424POPC   C3B22017  15.512  18.304   7.899
 1424POPC   C4B22018  15.809  18.265   7.535
 1425POPC   NC322019   7.441  24.343   9.651
 1425POPC   PO422020   7.732  24.860   9.357
 1425POPC   GL122021   7.450  24.569   9.178
 1425POPC   GL222022   7.577  24.211   9.175
 1425POPC   C1A22023   7.230  24.602   8.803
 1425POPC   D2A22024   7.183  24.351   8.420
 1425POPC   C3A22025   7.353  24.616   8.078
 1425POPC   C4A22026   7.690  24.489   7.769
 1425POPC   C1B22027   7.303  24.085   8.846
 1425POPC   C2B22028   7.371  23.839   8.450
 1425POPC   C3B22029   7.460  24.062   8.060
 1425POPC   C4B22030   7.241  24.260   7.742
 1426POPC   NC322031   7.623  26.791   9.482
 1426POPC   PO422032   6.979  26.989   9.453
 1426POPC   GL122033   7.255  26.871   9.124
 1426POPC   GL222034   7.566  26.709   8.995
 1426POPC   C1A22035   7.261  27.094   8.736
 1426POPC   D2A22036   7.106  27.044   8.334
 1426POPC   C3A22037   7.436  26.896   8.113
 1426POPC   C4A22038   7.651  26.936   7.736
 1426POPC   C1B22039   7.502  26.662   8.582
 1426POPC   C2B22040   7.543  26.395   8.249
 1426POPC   C3B22041   7.441  26.463   7.853
 1426POPC   C4B22042   7.536  26.497   7.433
 1427POPC   NC322043  33.283  15.486   9.689
 1427POPC   PO422044  33.918  15.265   9.502
 1427POPC   GL122045  33.878  15.163   9.059
 1427POPC   GL222046  33.592  15.344   8.979
 1427POPC   C1A22047  33.874  15.147   8.584
 1427POPC   D2A22048  33.555  15.046   8.294
 1427POPC   C3A22049  33.749  14.991   7.932
 1427POPC   C4A22050  33.564  15.119   7.599
 1427POPC   C1B22051  33.974  15.588   8.806
 1427POPC   C2B22052  34.061  15.753   8.421
 1427POPC   C3B22053  33.957  15.441   8.085
 1427POPC   C4B22054  34.059  15.315   7.662
 1428POPC   NC322055   0.825  35.147   9.367
 1428POPC   PO422056   1.428  35.353   9.556
 1428POPC   GL122057   1.190  35.429   9.159
 1428POPC   GL222058   1.226  35.068   9.088
 1428POPC   C1A22059   1.257  35.371   8.695
 1428POPC   D2A22060   1.407  35.584   8.353
 1428POPC   C3A22061   1.314  35.475   7.951
 1428POPC   C4A22062   0.914  35.535   7.741
 1428POPC   C1B22063   1.278  34.833   8.714
 1428POPC   C2B22064   1.217  34.940   8.315
 1428POPC   C3B22065   1.374  34.981   7.928
 1428POPC   C4B22066   1.147  35.113   7.579
 1429POPC   NC322067  39.123  41.125   9.613
 1429POPC   PO422068  39.434  40.529   9.616
 1429POPC   GL122069  39.179  40.771   9.265
 1429POPC   GL222070  38.855  40.619   9.141
 1429POPC   C1A22071  39.255  41.091   8.935
 1429POPC   D2A22072  39.116  41.099   8.501
 1429POPC   C3A22073  39.256  40.834   8.159
 1429POPC   C4A22074  39.433  40.894   7.732
 1429POPC   C1B22075  38.751  40.984   8.869
 1429POPC   C2B22076  38.593  41.098   8.473
 1429POPC   C3B22077  38.789  41.043   8.094
 1429POPC   C4B22078  38.926  40.773   7.777
 1430POPC   NC322079  15.202  34.631   9.557
 1430POPC   PO422080  14.933  34.077   9.581
 1430POPC   GL122081  15.095  34.213   9.128
 1430POPC   GL222082  15.070  34.556   9.050
 1430POPC   C1A22083  15.219  34.143   8.658
 1430POPC   D2A22084  15.141  34.117   8.196
 1430POPC   C3A22085  15.376  34.324   7.865
 1430POPC   C4A22086  15.320  34.295   7.408
 1430POPC   C1B22087  14.955  34.572   8.596
 1430POPC   C2B22088  15.045  34.626   8.163
 1430POPC   C3B22089  14.892  34.497   7.772
 1430POPC   C4B22090  14.599  34.570   7.413
 1431POPC   NC322091  24.717  35.273   9.491
 1431POPC   PO422092  24.165  34.973   9.561
 1431POPC   GL122093  24.146  35.294   9.201
 1431POPC   GL222094  24.498  35.367   9.048
 1431POPC   C1A22095  24.104  35.234   8.750
 1431POPC   D2A22096  24.461  35.234   8.470
 1431POPC   C3A22097  24.317  35.235   8.067
 1431POPC   C4A22098  24.290  35.622   7.865
 1431POPC   C1B22099  24.741  35.628   8.736
 1431POPC   C2B22100  24.677  35.698   8.310
 1431POPC   C3B22101  24.800  35.546   7.913
 1431POPC   C4B22102  24.674  35.173   7.718
 1432POPC   NC322103  16.334  40.951   9.716
 1432POPC   PO422104  16.962  40.529   9.597
 1432POPC   GL122105  16.835  40.591   9.186
 1432POPC   GL222106  16.492  40.570   9.242
 1432POPC   C1A22107  16.810  40.724   8.733
 1432POPC   D2A22108  16.912  40.672   8.283
 1432POPC   C3A22109  16.808  40.961   7.933
 1432POPC   C4A22110  16.690  40.936   7.485
 1432POPC   C1B22111  16.497  40.348   8.847
 1432POPC   C2B22112  16.355  40.433   8.461
 1432POPC   C3B22113  16.384  40.710   8.143
 1432POPC   C4B22114  16.292  40.550   7.745
 1433POPC   NC322115  25.415  12.873   9.544
 1433POPC   PO422116  24.753  12.951   9.357
 1433POPC   GL122117  25.080  12.857   9.140
 1433POPC   GL222118  25.083  12.550   9.065
 1433POPC   C1A22119  25.289  12.889   8.740
 1433POPC   D2A22120  25.190  12.998   8.313
 1433POPC   C3A22121  25.449  12.882   7.982
 1433POPC   C4A22122  25.454  12.987   7.562
 1433POPC   C1B22123  24.991  12.379   8.680
 1433POPC   C2B22124  24.884  12.583   8.315
 1433POPC   C3B22125  25.015  12.623   7.888
 1433POPC   C4B22126  25.078  12.629   7.434
 1434POPC   NC322127  33.784  36.653   9.344
 1434POPC   PO422128  34.093  37.241   9.559
 1434POPC   GL122129  33.920  37.160   9.184
 1434POPC   GL222130  34.210  36.992   9.073
 1434POPC   C1A22131  33.843  37.239   8.754
 1434POPC   D2A22132  33.766  36.982   8.397
 1434POPC   C3A22133  33.743  37.109   7.995
 1434POPC   C4A22134  33.460  36.910   7.760
 1434POPC   C1B22135  34.033  36.722   8.758
 1434POPC   C2B22136  33.980  36.488   8.388
 1434POPC   C3B22137  33.719  36.550   8.046
 1434POPC   C4B22138  33.744  36.533   7.598
 1435POPC   NC322139   9.260  38.964   9.292
 1435POPC   PO422140   9.516  39.563   9.266
 1435POPC   GL122141   9.580  39.232   8.965
 1435POPC   GL222142   9.729  38.935   9.105
 1435POPC   C1A22143   9.806  39.133   8.592
 1435POPC   D2A22144   9.960  39.302   8.212
 1435POPC   C3A22145   9.707  39.542   7.914
 1435POPC   C4A22146   9.846  39.287   7.596
 1435POPC   C1B22147   9.469  38.768   8.725
 1435POPC   C2B22148   9.522  38.807   8.292
 1435POPC   C3B22149   9.529  39.074   7.935
 1435POPC   C4B22150   9.458  39.021   7.454
 1436POPC   NC322151   2.434  23.315   9.713
 1436POPC   PO422152   1.972  23.767   9.407
 1436POPC   GL122153   1.828  23.687   9.070
 1436POPC   GL222154   1.613  23.423   9.154
 1436POPC   C1A22155   2.016  23.693   8.685
 1436POPC   D2A22156   2.223  23.897   8.404
 1436POPC   C3A22157   2.092  23.719   8.056
 1436POPC   C4A22158   1.982  23.890   7.675
 1436POPC   C1B22159   1.550  23.483   8.711
 1436POPC   C2B22160   1.722  23.417   8.292
 1436POPC   C3B22161   1.594  23.583   7.886
 1436POPC   C4B22162   1.634  23.662   7.380
 1437POPC   NC322163   0.805  39.004   9.561
 1437POPC   PO422164   1.410  39.286   9.420
 1437POPC   GL122165   1.085  39.147   9.168
 1437POPC   GL222166   0.885  39.453   9.218
 1437POPC   C1A22167   1.136  38.993   8.753
 1437POPC   D2A22168   1.434  39.302   8.561
 1437POPC   C3A22169   1.383  39.301   8.132
 1437POPC   C4A22170   1.182  39.063   7.819
 1437POPC   C1B22171   1.026  39.485   8.795
 1437POPC   C2B22172   0.903  39.295   8.384
 1437POPC   C3B22173   0.910  39.461   7.970
 1437POPC   C4B22174   1.265  39.549   7.662
 1438POPC   NC322175  13.793  19.359   9.416
 1438POPC   PO422176  13.191  19.345   9.726
 1438POPC   GL122177  13.415  19.046   9.303
 1438POPC   GL222178  13.275  18.767   9.204
 1438POPC   C1A22179  13.481  19.103   8.785
 1438POPC   D2A22180  13.416  19.119   8.292
 1438POPC   C3A22181  13.709  19.237   7.956
 1438POPC   C4A22182  13.847  19.101   7.552
 1438POPC   C1B22183  13.691  18.682   8.959
 1438POPC   C2B22184  13.881  18.686   8.545
 1438POPC   C3B22185  13.886  18.726   8.076
 1438POPC   C4B22186  13.657  18.637   7.677
 1439POPC   NC322187  35.114  42.188   9.371
 1439POPC   PO422188  35.718  42.447   9.545
 1439POPC   GL122189  35.523  42.408   9.140
 1439POPC   GL222190  35.565  42.042   9.133
 1439POPC   C1A22191  35.366  42.521   8.706
 1439POPC   D2A22192  35.190  42.263   8.364
 1439POPC   C3A22193  35.026  42.361   7.978
 1439POPC   C4A22194  35.331  42.507   7.708
 1439POPC   C1B22195  35.367  41.985   8.758
 1439POPC   C2B22196  35.479  41.835   8.350
 1439POPC   C3B22197  35.424  42.019   7.937
 1439POPC   C4B22198  35.366  41.822   7.528
 1440POPC   NC322199  19.854   8.736   9.516
 1440POPC   PO422200  19.484   9.356   9.522
 1440POPC   GL122201  19.677   9.128   9.201
 1440POPC   GL222202  20.000   9.131   9.170
 1440POPC   C1A22203  19.754   8.939   8.785
 1440POPC   D2A22204  19.717   9.078   8.388
 1440POPC   C3A22205  19.645   8.741   8.155
 1440POPC   C4A22206  19.779   8.761   7.756
 1440POPC   C1B22207  20.205   9.184   8.826
 1440POPC   C2B22208  20.217   8.976   8.472
 1440POPC   C3B22209  20.136   9.021   8.050
 1440POPC   C4B22210  20.443   9.116   7.778
 1441POPC   NC322211   4.824   5.476   9.434
 1441POPC   PO422212   4.211   5.652   9.564
 1441POPC   GL122213   4.412   5.843   9.185
 1441POPC   GL222214   4.255   6.137   9.187
 1441POPC   C1A22215   4.582   6.022   8.779
 1441POPC   D2A22216   4.426   5.900   8.378
 1441POPC   C3A22217   4.501   6.055   7.984
 1441POPC   C4A22218   4.245   5.887   7.650
 1441POPC   C1B22219   4.039   6.027   8.827
 1441POPC   C2B22220   3.981   6.255   8.469
 1441POPC   C3B22221   4.000   6.086   8.063
 1441POPC   C4B22222   3.842   6.207   7.675
 1442POPC   NC322223  21.247   0.053   9.403
 1442POPC   PO422224  20.974   0.614   9.304
 1442POPC   GL122225  21.260   0.397   9.009
 1442POPC   GL222226  21.177   0.061   8.907
 1442POPC   C1A22227  21.387   0.382   8.573
 1442POPC   D2A22228  21.184   0.374   8.178
 1442POPC   C3A22229  21.495   0.267   7.908
 1442POPC   C4A22230  21.763  44.980   7.694
 1442POPC   C1B22231  20.874   0.273   8.630
 1442POPC   C2B22232  20.684   0.228   8.208
 1442POPC   C3B22233  20.715   0.346   7.768
 1442POPC   C4B22234  20.859   0.349   7.311
 1443POPC   NC322235  10.173  38.660   9.566
 1443POPC   PO422236   9.469  38.588   9.486
 1443POPC   GL122237   9.594  38.436   9.117
 1443POPC   GL222238   9.939  38.462   9.158
 1443POPC   C1A22239   9.702  38.317   8.740
 1443POPC   D2A22240   9.904  38.394   8.404
 1443POPC   C3A22241   9.599  38.323   8.117
 1443POPC   C4A22242   9.463  38.603   7.802
 1443POPC   C1B22243  10.064  38.736   8.792
 1443POPC   C2B22244  10.186  38.831   8.348
 1443POPC   C3B22245   9.928  38.727   7.989
 1443POPC   C4B22246   9.899  38.791   7.542
 1444POPC   NC322247  22.183   5.367   9.340
 1444POPC   PO422248  22.499   4.916   9.301
 1444POPC   GL122249  22.322   5.053   8.919
 1444POPC   GL222250  21.979   5.096   8.930
 1444POPC   C1A22251  22.251   5.389   8.626
 1444POPC   D2A22252  22.099   5.574   8.244
 1444POPC   C3A22253  21.921   5.328   7.937
 1444POPC   C4A22254  22.020   5.095   7.560
 1444POPC   C1B22255  21.929   5.063   8.437
 1444POPC   C2B22256  22.112   4.857   8.042
 1444POPC   C3B22257  22.174   4.554   7.657
 1444POPC   C4B22258  22.106   4.473   7.174
 1445POPC   NC322259  39.378  29.385   9.500
 1445POPC   PO422260  38.931  28.892   9.616
 1445POPC   GL122261  39.006  29.122   9.256
 1445POPC   GL222262  38.786  29.391   9.329
 1445POPC   C1A22263  39.089  29.001   8.798
 1445POPC   D2A22264  39.430  29.109   8.462
 1445POPC   C3A22265  39.258  29.095   8.072
 1445POPC   C4A22266  39.354  28.942   7.684
 1445POPC   C1B22267  38.889  29.472   8.893
 1445POPC   C2B22268  39.012  29.390   8.461
 1445POPC   C3B22269  38.812  29.382   8.066
 1445POPC   C4B22270  39.077  29.413   7.705
 1446POPC   NC322271  33.318  41.097   9.482
 1446POPC   PO422272  33.124  40.488   9.640
 1446POPC   GL122273  33.047  40.719   9.253
 1446POPC   GL222274  33.157  40.457   9.085
 1446POPC   C1A22275  33.101  40.918   8.825
 1446POPC   D2A22276  32.927  40.870   8.386
 1446POPC   C3A22277  33.061  40.938   7.972
 1446POPC   C4A22278  32.956  40.836   7.548
 1446POPC   C1B22279  32.783  40.494   8.809
 1446POPC   C2B22280  32.654  40.372   8.380
 1446POPC   C3B22281  32.753  40.456   7.949
 1446POPC   C4B22282  33.137  40.411   7.774
 1447POPC   NC322283   6.166  14.179   9.496
 1447POPC   PO422284   5.699  14.590   9.522
 1447POPC   GL122285   5.653  14.543   9.103
 1447POPC   GL222286   5.890  14.277   9.070
 1447POPC   C1A22287   5.664  14.506   8.649
 1447POPC   D2A22288   5.862  14.490   8.267
 1447POPC   C3A22289   5.713  14.747   7.975
 1447POPC   C4A22290   5.499  14.780   7.620
 1447POPC   C1B22291   6.124  14.257   8.658
 1447POPC   C2B22292   6.175  14.096   8.237
 1447POPC   C3B22293   6.123  14.320   7.831
 1447POPC   C4B22294   6.206  14.125   7.414
 1448POPC   NC322295  27.201  28.311   9.602
 1448POPC   PO422296  26.557  28.234   9.512
 1448POPC   GL122297  26.798  28.353   9.124
 1448POPC   GL222298  27.064  28.633   9.188
 1448POPC   C1A22299  26.804  28.309   8.639
 1448POPC   D2A22300  26.550  28.395   8.254
 1448POPC   C3A22301  26.660  28.203   7.869
 1448POPC   C4A22302  26.564  28.019   7.471
 1448POPC   C1B22303  26.812  28.770   8.836
 1448POPC   C2B22304  26.806  28.823   8.404
 1448POPC   C3B22305  26.783  28.729   7.949
 1448POPC   C4B22306  26.695  28.578   7.508
 1449POPC   NC322307  41.809   2.989   9.816
 1449POPC   PO422308  41.214   2.777   9.713
 1449POPC   GL122309  41.619   2.860   9.351
 1449POPC   GL222310  41.892   2.773   9.348
 1449POPC   C1A22311  41.665   2.991   8.894
 1449POPC   D2A22312  41.422   2.742   8.580
 1449POPC   C3A22313  41.462   2.818   8.127
 1449POPC   C4A22314  41.280   2.872   7.696
 1449POPC   C1B22315  41.821   2.531   8.943
 1449POPC   C2B22316  41.897   2.565   8.491
 1449POPC   C3B22317  41.789   2.416   8.078
 1449POPC   C4B22318  41.789   2.727   7.747
 1450POPC   NC322319   6.088  20.774   9.439
 1450POPC   PO422320   5.402  20.798   9.493
 1450POPC   GL122321   5.653  20.755   9.158
 1450POPC   GL222322   5.722  20.403   9.227
 1450POPC   C1A22323   5.895  20.828   8.788
 1450POPC   D2A22324   6.057  20.668   8.400
 1450POPC   C3A22325   5.898  20.825   8.011
 1450POPC   C4A22326   5.921  20.723   7.591
 1450POPC   C1B22327   5.841  20.299   8.808
 1450POPC   C2B22328   5.696  20.307   8.377
 1450POPC   C3B22329   5.799  20.312   7.926
 1450POPC   C4B22330   5.698  20.213   7.461
 1451POPC   NC322331  34.626  44.347   9.496
 1451POPC   PO422332  34.517  43.569   9.579
 1451POPC   GL122333  34.684  43.754   9.209
 1451POPC   GL222334  34.492  44.035   9.135
 1451POPC   C1A22335  34.667  43.779   8.729
 1451POPC   D2A22336  34.679  43.533   8.409
 1451POPC   C3A22337  34.552  43.595   8.009
 1451POPC   C4A22338  34.806  43.654   7.672
 1451POPC   C1B22339  34.747  44.254   8.843
 1451POPC   C2B22340  34.591  44.184   8.416
 1451POPC   C3B22341  34.511  44.082   7.968
 1451POPC   C4B22342  34.854  44.169   7.721
 1452POPC   NC322343  27.744  19.001   9.566
 1452POPC   PO422344  27.239  18.670   9.257
 1452POPC   GL122345  27.581  18.842   9.092
 1452POPC   GL222346  27.500  19.185   9.127
 1452POPC   C1A22347  27.470  18.932   8.665
 1452POPC   D2A22348  27.531  18.745   8.312
 1452POPC   C3A22349  27.657  18.912   7.967
 1452POPC   C4A22350  28.000  18.908   7.680
 1452POPC   C1B22351  27.572  19.415   8.750
 1452POPC   C2B22352  27.374  19.398   8.373
 1452POPC   C3B22353  27.517  19.399   7.979
 1452POPC   C4B22354  27.588  19.221   7.578
 1453POPC   NC322355  26.451  19.330   9.415
 1453POPC   PO422356  26.042  19.900   9.550
 1453POPC   GL122357  25.907  19.808   9.155
 1453POPC   GL222358  26.103  19.500   9.062
 1453POPC   C1A22359  26.103  19.869   8.746
 1453POPC   D2A22360  25.932  19.728   8.364
 1453POPC   C3A22361  26.086  19.899   8.019
 1453POPC   C4A22362  26.264  19.719   7.658
 1453POPC   C1B22363  25.756  19.477   8.766
 1453POPC   C2B22364  25.613  19.347   8.346
 1453POPC   C3B22365  25.715  19.554   7.916
 1453POPC   C4B22366  25.795  19.661   7.465
 1454POPC   NC322367  33.024  27.299   9.528
 1454POPC   PO422368  33.063  26.663   9.481
 1454POPC   GL122369  33.200  26.778   9.083
 1454POPC   GL222370  32.993  27.078   9.071
 1454POPC   C1A22371  33.121  26.712   8.639
 1454POPC   D2A22372  32.889  26.913   8.287
 1454POPC   C3A22373  32.899  26.695   7.871
 1454POPC   C4A22374  33.164  26.770   7.496
 1454POPC   C1B22375  33.306  27.196   8.763
 1454POPC   C2B22376  33.399  27.023   8.327
 1454POPC   C3B22377  33.215  27.130   7.930
 1454POPC   C4B22378  33.284  27.263   7.520
 1455POPC   NC322379  14.861  41.761   9.434
 1455POPC   PO422380  15.378  41.414   9.457
 1455POPC   GL122381  15.508  41.509   9.075
 1455POPC   GL222382  15.333  41.828   9.030
 1455POPC   C1A22383  15.230  41.413   8.730
 1455POPC   D2A22384  14.944  41.588   8.430
 1455POPC   C3A22385  15.029  41.437   8.034
 1455POPC   C4A22386  14.948  41.573   7.646
 1455POPC   C1B22387  15.367  41.891   8.609
 1455POPC   C2B22388  15.379  41.988   8.195
 1455POPC   C3B22389  15.366  41.779   7.860
 1455POPC   C4B22390  15.451  41.495   7.587
 1456POPC   NC322391  14.740  16.735   9.520
 1456POPC   PO422392  15.346  16.583   9.483
 1456POPC   GL122393  15.027  16.591   9.121
 1456POPC   GL222394  14.780  16.323   9.195
 1456POPC   C1A22395  14.912  16.803   8.697
 1456POPC   D2A22396  14.997  16.923   8.232
 1456POPC   C3A22397  15.344  16.718   7.981
 1456POPC   C4A22398  15.482  16.696   7.543
 1456POPC   C1B22399  14.872  16.291   8.723
 1456POPC   C2B22400  14.729  16.487   8.308
 1456POPC   C3B22401  14.883  16.586   7.851
 1456POPC   C4B22402  15.138  16.280   7.619
 1457POPC   NC322403  18.912  33.616   9.624
 1457POPC   PO422404  19.414  33.902   9.308
 1457POPC   GL122405  19.144  33.897   9.010
 1457POPC   GL222406  19.203  33.546   8.972
 1457POPC   C1A22407  19.057  34.059   8.594
 1457POPC   D2A22408  18.894  34.161   8.189
 1457POPC   C3A22409  19.070  33.946   7.870
 1457POPC   C4A22410  19.265  33.546   7.829
 1457POPC   C1B22411  19.111  33.544   8.578
 1457POPC   C2B22412  18.781  33.551   8.281
 1457POPC   C3B22413  18.724  33.500   7.837
 1457POPC   C4B22414  18.709  33.340   7.402
 1458POPC   NC322415  38.749   4.333   9.369
 1458POPC   PO422416  38.120   4.131   9.379
 1458POPC   GL122417  38.174   4.043   8.990
 1458POPC   GL222418  38.524   4.019   9.005
 1458POPC   C1A22419  38.321   4.203   8.585
 1458POPC   D2A22420  38.565   4.556   8.413
 1458POPC   C3A22421  38.527   4.588   7.974
 1458POPC   C4A22422  38.363   4.505   7.549
 1458POPC   C1B22423  38.785   4.012   8.599
 1458POPC   C2B22424  38.810   4.154   8.177
 1458POPC   C3B22425  38.594   4.117   7.802
 1458POPC   C4B22426  38.654   4.072   7.372
 1459POPC   NC322427  33.737  34.966   9.634
 1459POPC   PO422428  33.550  35.642   9.483
 1459POPC   GL122429  33.737  35.453   9.115
 1459POPC   GL222430  33.786  35.089   9.131
 1459POPC   C1A22431  33.568  35.368   8.709
 1459POPC   D2A22432  33.455  35.543   8.304
 1459POPC   C3A22433  33.723  35.525   7.927
 1459POPC   C4A22434  33.810  35.708   7.486
 1459POPC   C1B22435  33.982  35.085   8.741
 1459POPC   C2B22436  33.771  35.106   8.329
 1459POPC   C3B22437  33.938  35.024   7.962
 1459POPC   C4B22438  34.025  35.259   7.596
 1460POPC   NC322439  39.733   3.080   9.529
 1460POPC   PO422440  40.276   2.670   9.623
 1460POPC   GL122441  40.050   2.730   9.274
 1460POPC   GL222442  40.197   3.018   9.144
 1460POPC   C1A22443  39.872   2.714   8.875
 1460POPC   D2A22444  39.843   2.492   8.509
 1460POPC   C3A22445  39.996   2.736   8.212
 1460POPC   C4A22446  39.853   2.854   7.845
 1460POPC   C1B22447  40.380   3.222   8.785
 1460POPC   C2B22448  40.312   3.429   8.405
 1460POPC   C3B22449  40.160   3.229   8.041
 1460POPC   C4B22450  40.269   3.120   7.641
 1461POPC   NC322451  44.586  19.991   9.455
 1461POPC   PO422452  44.902  20.628   9.546
 1461POPC   GL122453  44.655  20.682   9.186
 1461POPC   GL222454  44.437  20.417   9.235
 1461POPC   C1A22455  44.761  20.814   8.769
 1461POPC   D2A22456  44.631  20.938   8.358
 1461POPC   C3A22457  44.884  20.710   8.098
 1461POPC   C4A22458  44.934  20.662   7.671
 1461POPC   C1B22459  44.364  20.442   8.823
 1461POPC   C2B22460  44.512  20.440   8.439
 1461POPC   C3B22461  44.357  20.551   8.072
 1461POPC   C4B22462  44.448  20.448   7.679
 1462POPC   NC322463   5.796   2.253   9.565
 1462POPC   PO422464   6.022   1.672   9.447
 1462POPC   GL122465   5.963   1.850   9.120
 1462POPC   GL222466   5.746   2.136   9.073
 1462POPC   C1A22467   5.911   1.784   8.743
 1462POPC   D2A22468   5.882   2.046   8.437
 1462POPC   C3A22469   5.777   1.881   8.059
 1462POPC   C4A22470   5.834   1.806   7.664
 1462POPC   C1B22471   6.130   2.243   8.845
 1462POPC   C2B22472   6.179   2.472   8.486
 1462POPC   C3B22473   5.974   2.373   8.076
 1462POPC   C4B22474   5.730   2.318   7.735
 1463POPC   NC322475   7.063  16.860   9.597
 1463POPC   PO422476   7.692  16.707   9.572
 1463POPC   GL122477   7.384  16.583   9.276
 1463POPC   GL222478   7.365  16.924   9.169
 1463POPC   C1A22479   7.447  16.555   8.829
 1463POPC   D2A22480   7.674  16.710   8.479
 1463POPC   C3A22481   7.526  16.577   8.074
 1463POPC   C4A22482   7.379  16.403   7.714
 1463POPC   C1B22483   7.315  17.209   8.839
 1463POPC   C2B22484   7.367  17.138   8.417
 1463POPC   C3B22485   7.215  17.004   8.037
 1463POPC   C4B22486   7.371  16.883   7.645
 1464POPC   NC322487  39.191  10.641   9.639
 1464POPC   PO422488  39.383  10.040   9.699
 1464POPC   GL122489  39.315  10.307   9.286
 1464POPC   GL222490  38.998  10.538   9.168
 1464POPC   C1A22491  39.445  10.599   8.930
 1464POPC   D2A22492  39.488  10.745   8.476
 1464POPC   C3A22493  39.347  10.411   8.168
 1464POPC   C4A22494  39.336  10.316   7.718
 1464POPC   C1B22495  38.986  10.384   8.750
 1464POPC   C2B22496  38.878  10.239   8.350
 1464POPC   C3B22497  38.886  10.396   7.925
 1464POPC   C4B22498  38.838  10.787   7.798
 1465POPC   NC322499  21.470  31.934   9.293
 1465POPC   PO422500  20.997  31.622   9.655
 1465POPC   GL122501  21.082  31.377   9.263
 1465POPC   GL222502  21.448  31.286   9.170
 1465POPC   C1A22503  21.108  31.470   8.802
 1465POPC   D2A22504  21.294  31.319   8.401
 1465POPC   C3A22505  21.262  31.518   7.982
 1465POPC   C4A22506  21.306  31.333   7.576
 1465POPC   C1B22507  21.634  31.488   8.777
 1465POPC   C2B22508  21.697  31.667   8.354
 1465POPC   C3B22509  21.859  31.557   7.962
 1465POPC   C4B22510  21.825  31.313   7.584
 1466POPC   NC322511  37.220   6.400   9.482
 1466POPC   PO422512  36.700   6.419   9.329
 1466POPC   GL122513  37.082   6.492   9.004
 1466POPC   GL222514  37.296   6.785   9.072
 1466POPC   C1A22515  37.417   6.505   8.648
 1466POPC   D2A22516  37.419   6.770   8.258
 1466POPC   C3A22517  37.039   6.672   8.015
 1466POPC   C4A22518  36.899   6.644   7.588
 1466POPC   C1B22519  37.082   6.890   8.658
 1466POPC   C2B22520  36.711   6.848   8.367
 1466POPC   C3B22521  36.565   6.916   7.941
 1466POPC   C4B22522  36.757   7.132   7.591
 1467POPC   NC322523  25.056  43.524   9.553
 1467POPC   PO422524  25.651  43.928   9.598
 1467POPC   GL122525  25.300  43.916   9.259
 1467POPC   GL222526  25.099  44.201   9.331
 1467POPC   C1A22527  25.171  43.764   8.811
 1467POPC   D2A22528  25.314  43.711   8.345
 1467POPC   C3A22529  24.954  43.705   8.073
 1467POPC   C4A22530  24.863  43.574   7.649
 1467POPC   C1B22531  25.144  44.273   8.867
 1467POPC   C2B22532  25.062  44.126   8.447
 1467POPC   C3B22533  25.138  44.170   7.986
 1467POPC   C4B22534  25.100  44.181   7.497
 1468POPC   NC322535  36.331  36.192   9.453
 1468POPC   PO422536  35.677  36.212   9.619
 1468POPC   GL122537  35.865  36.096   9.142
 1468POPC   GL222538  36.218  36.029   8.993
 1468POPC   C1A22539  35.829  36.001   8.650
 1468POPC   D2A22540  36.049  35.902   8.244
 1468POPC   C3A22541  35.850  36.132   7.909
 1468POPC   C4A22542  35.641  35.880   7.616
 1468POPC   C1B22543  36.520  36.259   8.719
 1468POPC   C2B22544  36.606  36.142   8.290
 1468POPC   C3B22545  36.356  36.158   7.906
 1468POPC   C4B22546  36.491  36.123   7.455
 1469POPC   NC322547  31.704  41.115   9.405
 1469POPC   PO422548  31.370  40.505   9.408
 1469POPC   GL122549  31.707  40.643   9.099
 1469POPC   GL222550  31.468  40.894   9.004
 1469POPC   C1A22551  31.776  40.794   8.637
 1469POPC   D2A22552  31.385  40.999   8.426
 1469POPC   C3A22553  31.382  40.887   7.985
 1469POPC   C4A22554  31.718  41.029   7.689
 1469POPC   C1B22555  31.309  40.576   8.702
 1469POPC   C2B22556  31.048  40.621   8.319
 1469POPC   C3B22557  31.058  40.369   7.950
 1469POPC   C4B22558  31.266  40.476   7.593
 1470POPC   NC322559  25.230  21.833   9.414
 1470POPC   PO422560  25.408  21.191   9.563
 1470POPC   GL122561  25.267  21.188   9.162
 1470POPC   GL222562  25.608  21.231   9.074
 1470POPC   C1A22563  25.249  21.197   8.706
 1470POPC   D2A22564  25.485  21.527   8.494
 1470POPC   C3A22565  25.339  21.580   8.075
 1470POPC   C4A22566  25.535  21.758   7.725
 1470POPC   C1B22567  25.735  21.061   8.689
 1470POPC   C2B22568  25.596  21.114   8.241
 1470POPC   C3B22569  25.474  21.152   7.843
 1470POPC   C4B22570  25.097  21.270   7.698
 1471POPC   NC322571   4.901  10.024   9.572
 1471POPC   PO422572   5.397   9.640   9.486
 1471POPC   GL122573   5.155   9.831   9.140
 1471POPC   GL222574   4.798   9.732   9.159
 1471POPC   C1A22575   5.120   9.769   8.695
 1471POPC   D2A22576   5.420   9.760   8.346
 1471POPC   C3A22577   5.312   9.560   7.974
 1471POPC   C4A22578   5.249   9.447   7.562
 1471POPC   C1B22579   4.650   9.997   8.824
 1471POPC   C2B22580   4.855  10.140   8.439
 1471POPC   C3B22581   5.072  10.036   8.075
 1471POPC   C4B22582   4.968   9.873   7.687
 1472POPC   NC322583   4.674  27.910   9.378
 1472POPC   PO422584   5.212  27.551   9.630
 1472POPC   GL122585   5.108  27.673   9.199
 1472POPC   GL222586   4.770  27.497   9.125
 1472POPC   C1A22587   5.375  27.916   8.885
 1472POPC   D2A22588   5.499  27.848   8.457
 1472POPC   C3A22589   5.274  27.917   8.080
 1472POPC   C4A22590   5.079  27.815   7.679
 1472POPC   C1B22591   4.816  27.373   8.711
 1472POPC   C2B22592   4.894  27.448   8.268
 1472POPC   C3B22593   4.753  27.333   7.832
 1472POPC   C4B22594   4.775  27.509   7.407
 1473POPC   NC322595   3.292  25.040   9.474
 1473POPC   PO422596   3.677  25.497   9.467
 1473POPC   GL122597   3.358  25.441   9.143
 1473POPC   GL222598   3.497  25.169   9.026
 1473POPC   C1A22599   3.184  25.471   8.738
 1473POPC   D2A22600   3.485  25.308   8.426
 1473POPC   C3A22601   3.400  25.224   7.981
 1473POPC   C4A22602   3.212  25.506   7.708
 1473POPC   C1B22603   3.816  25.088   8.774
 1473POPC   C2B22604   4.012  25.318   8.456
 1473POPC   C3B22605   3.870  25.392   8.078
 1473POPC   C4B22606   3.834  25.575   7.704
 1474POPC   NC322607  30.166  35.850   9.563
 1474POPC   PO422608  30.143  36.483   9.301
 1474POPC   GL122609  29.894  36.103   9.120
 1474POPC   GL222610  29.578  35.911   9.215
 1474POPC   C1A22611  29.830  36.167   8.691
 1474POPC   D2A22612  29.849  36.556   8.451
 1474POPC   C3A22613  29.936  36.447   8.029
 1474POPC   C4A22614  29.764  36.398   7.626
 1474POPC   C1B22615  29.475  35.810   8.785
 1474POPC   C2B22616  29.674  35.815   8.360
 1474POPC   C3B22617  29.732  35.954   7.916
 1474POPC   C4B22618  29.976  35.940   7.518
 1475POPC   NC322619  10.662  34.199   9.721
 1475POPC   PO422620  10.220  33.796   9.418
 1475POPC   GL122621  10.405  33.722   9.043
 1475POPC   GL222622  10.706  33.561   9.144
 1475POPC   C1A22623  10.450  33.882   8.637
 1475POPC   D2A22624  10.298  33.715   8.276
 1475POPC   C3A22625  10.453  34.029   8.067
 1475POPC   C4A22626  10.658  34.087   7.732
 1475POPC   C1B22627  10.903  33.653   8.754
 1475POPC   C2B22628  10.819  33.654   8.328
 1475POPC   C3B22629  10.712  33.625   7.912
 1475POPC   C4B22630  10.731  33.644   7.470
 1476POPC   NC322631  32.534   9.798   9.588
 1476POPC   PO422632  31.917  10.046   9.568
 1476POPC   GL122633  31.823   9.942   9.170
 1476POPC   GL222634  31.962   9.634   9.116
 1476POPC   C1A22635  31.999  10.063   8.784
 1476POPC   D2A22636  32.071   9.817   8.419
 1476POPC   C3A22637  32.175   9.984   8.041
 1476POPC   C4A22638  32.536   9.952   7.782
 1476POPC   C1B22639  32.347   9.655   8.825
 1476POPC   C2B22640  32.498   9.555   8.368
 1476POPC   C3B22641  32.362   9.478   7.914
 1476POPC   C4B22642  32.510   9.533   7.478
 1477POPC   NC322643  14.174  25.424   9.691
 1477POPC   PO422644  13.517  25.473   9.478
 1477POPC   GL122645  13.519  25.253   9.056
 1477POPC   GL222646  13.854  25.176   9.048
 1477POPC   C1A22647  13.557  25.025   8.651
 1477POPC   D2A22648  13.615  25.250   8.238
 1477POPC   C3A22649  13.387  25.244   7.869
 1477POPC   C4A22650  13.491  25.140   7.444
 1477POPC   C1B22651  13.910  25.396   8.667
 1477POPC   C2B22652  14.054  25.489   8.290
 1477POPC   C3B22653  13.856  25.633   7.914
 1477POPC   C4B22654  13.688  25.589   7.520
 1478POPC   NC322655   2.860   7.790   9.546
 1478POPC   PO422656   2.989   7.097   9.599
 1478POPC   GL122657   2.888   7.358   9.252
 1478POPC   GL222658   2.521   7.372   9.277
 1478POPC   C1A22659   2.962   7.426   8.810
 1478POPC   D2A22660   3.123   7.305   8.394
 1478POPC   C3A22661   2.811   7.460   8.101
 1478POPC   C4A22662   2.791   7.288   7.667
 1478POPC   C1B22663   2.398   7.453   8.819
 1478POPC   C2B22664   2.309   7.485   8.354
 1478POPC   C3B22665   2.336   7.442   7.887
 1478POPC   C4B22666   2.630   7.784   7.727
 1479POPC   NC322667   7.289  42.664   9.544
 1479POPC   PO422668   7.913  42.341   9.549
 1479POPC   GL122669   7.593  42.305   9.273
 1479POPC   GL222670   7.634  42.607   9.122
 1479POPC   C1A22671   7.299  42.260   8.925
 1479POPC   D2A22672   7.250  42.221   8.484
 1479POPC   C3A22673   7.299  42.302   8.065
 1479POPC   C4A22674   7.068  42.222   7.730
 1479POPC   C1B22675   7.768  42.500   8.713
 1479POPC   C2B22676   7.678  42.595   8.264
 1479POPC   C3B22677   7.615  42.616   7.796
 1479POPC   C4B22678   7.758  42.619   7.332
 1480POPC   NC322679  33.306  34.401   9.600
 1480POPC   PO422680  33.957  34.262   9.675
 1480POPC   GL122681  33.942  34.532   9.326
 1480POPC   GL222682  33.637  34.611   9.267
 1480POPC   C1A22683  34.098  34.591   8.884
 1480POPC   D2A22684  34.008  34.678   8.440
 1480POPC   C3A22685  33.996  34.480   8.043
 1480POPC   C4A22686  33.749  34.566   7.668
 1480POPC   C1B22687  33.608  34.729   8.824
 1480POPC   C2B22688  33.486  34.662   8.397
 1480POPC   C3B22689  33.462  34.837   7.990
 1480POPC   C4B22690  33.532  35.112   7.641
 1481POPC   NC322691  36.412  32.525   9.897
 1481POPC   PO422692  36.048  32.127   9.526
 1481POPC   GL122693  36.070  32.086   9.086
 1481POPC   GL222694  35.765  31.956   8.964
 1481POPC   C1A22695  36.245  32.276   8.713
 1481POPC   D2A22696  36.403  32.070   8.348
 1481POPC   C3A22697  36.309  32.243   7.974
 1481POPC   C4A22698  36.406  32.045   7.615
 1481POPC   C1B22699  35.736  32.365   8.699
 1481POPC   C2B22700  35.929  32.475   8.274
 1481POPC   C3B22701  35.845  32.373   7.810
 1481POPC   C4B22702  35.649  32.458   7.414
 1482POPC   NC322703   5.501  14.171   9.445
 1482POPC   PO422704   4.969  14.590   9.396
 1482POPC   GL122705   5.150  14.367   9.094
 1482POPC   GL222706   5.103  14.012   9.138
 1482POPC   C1A22707   5.147  14.447   8.653
 1482POPC   D2A22708   5.297  14.408   8.229
 1482POPC   C3A22709   4.931  14.521   7.963
 1482POPC   C4A22710   4.983  14.776   7.563
 1482POPC   C1B22711   5.447  14.065   8.801
 1482POPC   C2B22712   5.652  14.026   8.395
 1482POPC   C3B22713   5.647  14.130   7.962
 1482POPC   C4B22714   5.295  14.308   7.705
 1483POPC   NC322715  19.310  44.429   9.230
 1483POPC   PO422716  18.801  44.569   9.658
 1483POPC   GL122717  18.854  44.866   9.210
 1483POPC   GL222718  19.113   0.099   9.166
 1483POPC   C1A22719  19.117  44.813   8.741
 1483POPC   D2A22720  19.321  44.767   8.291
 1483POPC   C3A22721  19.031  44.593   7.953
 1483POPC   C4A22722  18.752  44.653   7.577
 1483POPC   C1B22723  18.771   0.171   8.799
 1483POPC   C2B22724  18.774  44.997   8.341
 1483POPC   C3B22725  18.913   0.127   7.921
 1483POPC   C4B22726  18.949   0.097   7.465
 1484POPC   NC322727   8.521  28.970   9.424
 1484POPC   PO422728   8.005  29.479   9.471
 1484POPC   GL122729   8.292  29.342   9.140
 1484POPC   GL222730   7.968  29.353   8.962
 1484POPC   C1A22731   8.317  29.045   8.735
 1484POPC   D2A22732   8.214  28.890   8.287
 1484POPC   C3A22733   8.348  29.103   7.886
 1484POPC   C4A22734   8.347  29.074   7.410
 1484POPC   C1B22735   8.286  29.563   8.692
 1484POPC   C2B22736   8.284  29.493   8.273
 1484POPC   C3B22737   7.918  29.293   8.089
 1484POPC   C4B22738   7.888  29.186   7.665
 1485POPC   NC322739   7.259  18.622   9.467
 1485POPC   PO422740   7.697  18.096   9.274
 1485POPC   GL122741   7.454  18.352   9.030
 1485POPC   GL222742   7.089  18.388   9.057
 1485POPC   C1A22743   7.405  18.217   8.615
 1485POPC   D2A22744   7.397  17.959   8.307
 1485POPC   C3A22745   7.494  18.113   7.929
 1485POPC   C4A22746   7.608  18.457   7.701
 1485POPC   C1B22747   7.058  18.554   8.650
 1485POPC   C2B22748   7.135  18.466   8.202
 1485POPC   C3B22749   7.101  18.450   7.742
 1485POPC   C4B22750   6.911  18.514   7.292
 1486POPC   NC322751   2.400  32.896   9.545
 1486POPC   PO422752   2.934  33.180   9.523
 1486POPC   GL122753   2.717  33.047   9.158
 1486POPC   GL222754   2.473  33.295   9.055
 1486POPC   C1A22755   2.619  32.928   8.742
 1486POPC   D2A22756   2.669  33.080   8.336
 1486POPC   C3A22757   2.810  32.843   8.000
 1486POPC   C4A22758   2.946  32.851   7.574
 1486POPC   C1B22759   2.258  33.281   8.645
 1486POPC   C2B22760   2.302  33.411   8.208
 1486POPC   C3B22761   2.343  33.392   7.758
 1486POPC   C4B22762   2.325  33.247   7.303
 1487POPC   NC322763  20.632   6.149   9.599
 1487POPC   PO422764  20.841   6.783   9.422
 1487POPC   GL122765  20.550   6.740   9.086
 1487POPC   GL222766  20.528   6.393   9.133
 1487POPC   C1A22767  20.471   6.702   8.640
 1487POPC   D2A22768  20.229   6.816   8.300
 1487POPC   C3A22769  20.383   6.792   7.881
 1487POPC   C4A22770  20.253   6.723   7.450
 1487POPC   C1B22771  20.736   6.282   8.724
 1487POPC   C2B22772  20.660   6.370   8.254
 1487POPC   C3B22773  20.682   6.121   7.840
 1487POPC   C4B22774  20.704   5.984   7.372
 1488POPC   NC322775   7.098  21.093   9.396
 1488POPC   PO422776   7.752  21.330   9.472
 1488POPC   GL122777   7.588  21.155   9.118
 1488POPC   GL222778   7.363  21.400   9.063
 1488POPC   C1A22779   7.560  21.112   8.644
 1488POPC   D2A22780   7.621  21.470   8.323
 1488POPC   C3A22781   7.452  21.414   7.892
 1488POPC   C4A22782   7.228  21.072   7.686
 1488POPC   C1B22783   7.225  21.500   8.671
 1488POPC   C2B22784   7.093  21.357   8.278
 1488POPC   C3B22785   6.902  21.383   7.890
 1488POPC   C4B22786   7.155  21.534   7.474
 1489POPC   NC322787   5.574   1.278   9.544
 1489POPC   PO422788   6.243   1.251   9.765
 1489POPC   GL122789   6.182   1.244   9.243
 1489POPC   GL222790   5.828   1.336   9.107
 1489POPC   C1A22791   6.186   1.340   8.751
 1489POPC   D2A22792   5.996   1.520   8.340
 1489POPC   C3A22793   6.122   1.388   7.940
 1489POPC   C4A22794   6.000   1.182   7.551
 1489POPC   C1B22795   5.646   1.326   8.696
 1489POPC   C2B22796   5.522   1.318   8.282
 1489POPC   C3B22797   5.612   1.408   7.859
 1489POPC   C4B22798   5.562   1.484   7.378
 1490POPC   NC322799  16.993  12.638   9.508
 1490POPC   PO422800  16.691  13.066   9.310
 1490POPC   GL122801  16.686  12.687   9.038
 1490POPC   GL222802  17.026  12.599   8.990
 1490POPC   C1A22803  16.662  12.546   8.595
 1490POPC   D2A22804  16.422  12.767   8.248
 1490POPC   C3A22805  16.509  12.653   7.813
 1490POPC   C4A22806  16.497  12.610   7.341
 1490POPC   C1B22807  17.052  12.877   8.617
 1490POPC   C2B22808  16.924  12.802   8.181
 1490POPC   C3B22809  17.038  12.658   7.760
 1490POPC   C4B22810  17.024  12.566   7.302
 1491POPC   NC322811   4.074  24.095   9.477
 1491POPC   PO422812   4.477  23.570   9.443
 1491POPC   GL122813   4.297  23.529   9.058
 1491POPC   GL222814   4.064  23.788   9.063
 1491POPC   C1A22815   4.139  23.420   8.655
 1491POPC   D2A22816   4.205  23.385   8.193
 1491POPC   C3A22817   4.545  23.411   7.896
 1491POPC   C4A22818   4.358  23.658   7.569
 1491POPC   C1B22819   4.158  23.957   8.660
 1491POPC   C2B22820   3.990  23.875   8.243
 1491POPC   C3B22821   4.048  23.992   7.786
 1491POPC   C4B22822   3.923  24.108   7.324
 1492POPC   NC322823   8.241  35.920   9.585
 1492POPC   PO422824   8.620  36.498   9.485
 1492POPC   GL122825   8.336  36.186   9.178
 1492POPC   GL222826   8.234  35.797   9.105
 1492POPC   C1A22827   8.463  36.073   8.756
 1492POPC   D2A22828   8.446  36.355   8.436
 1492POPC   C3A22829   8.311  36.233   8.072
 1492POPC   C4A22830   8.136  36.150   7.688
 1492POPC   C1B22831   8.137  35.599   8.702
 1492POPC   C2B22832   8.379  35.685   8.327
 1492POPC   C3B22833   8.389  35.740   7.875
 1492POPC   C4B22834   8.427  35.768   7.415
 1493POPC   NC322835  11.481  23.196   9.224
 1493POPC   PO422836  11.273  22.685   9.647
 1493POPC   GL122837  11.212  22.616   9.199
 1493POPC   GL222838  10.867  22.690   9.170
 1493POPC   C1A22839  11.350  22.592   8.741
 1493POPC   D2A22840  11.620  22.797   8.396
 1493POPC   C3A22841  11.602  22.622   7.978
 1493POPC   C4A22842  11.514  22.861   7.598
 1493POPC   C1B22843  10.995  22.979   8.855
 1493POPC   C2B22844  11.142  22.985   8.454
 1493POPC   C3B22845  11.269  23.015   8.048
 1493POPC   C4B22846  11.071  23.100   7.651
 1494POPC   NC322847  19.457   8.114   9.309
 1494POPC   PO422848  20.073   8.307   9.543
 1494POPC   GL122849  19.932   8.244   9.122
 1494POPC   GL222850  19.667   8.432   8.940
 1494POPC   C1A22851  20.013   8.043   8.723
 1494POPC   D2A22852  19.882   8.115   8.299
 1494POPC   C3A22853  20.065   8.053   7.907
 1494POPC   C4A22854  19.917   8.195   7.512
 1494POPC   C1B22855  19.465   8.147   8.610
 1494POPC   C2B22856  19.406   7.987   8.181
 1494POPC   C3B22857  19.542   8.293   7.882
 1494POPC   C4B22858  19.446   8.484   7.493
 1495POPC   NC322859  35.423  15.275   9.571
 1495POPC   PO422860  35.915  14.861   9.338
 1495POPC   GL122861  35.503  14.956   9.161
 1495POPC   GL222862  35.111  15.054   9.166
 1495POPC   C1A22863  35.414  15.090   8.761
 1495POPC   D2A22864  35.380  15.357   8.447
 1495POPC   C3A22865  35.286  15.128   8.144
 1495POPC   C4A22866  35.463  14.866   7.866
 1495POPC   C1B22867  35.033  15.426   8.899
 1495POPC   C2B22868  34.917  15.589   8.495
 1495POPC   C3B22869  34.994  15.558   8.078
 1495POPC   C4B22870  35.132  15.287   7.702
 1496POPC   NC322871   9.184  35.596   9.516
 1496POPC   PO422872   8.895  35.013   9.459
 1496POPC   GL122873   8.885  35.275   9.153
 1496POPC   GL222874   8.652  35.536   9.311
 1496POPC   C1A22875   8.918  35.153   8.723
 1496POPC   D2A22876   8.985  34.894   8.340
 1496POPC   C3A22877   9.041  35.137   7.932
 1496POPC   C4A22878   8.999  35.057   7.490
 1496POPC   C1B22879   8.632  35.591   8.857
 1496POPC   C2B22880   8.868  35.667   8.500
 1496POPC   C3B22881   8.850  35.592   8.071
 1496POPC   C4B22882   8.933  35.695   7.654
 1497POPC   NC322883   5.856   2.965   9.390
 1497POPC   PO422884   5.912   3.678   9.535
 1497POPC   GL122885   5.813   3.456   9.182
 1497POPC   GL222886   5.761   3.792   9.059
 1497POPC   C1A22887   5.927   3.387   8.744
 1497POPC   D2A22888   5.779   3.273   8.336
 1497POPC   C3A22889   5.981   3.293   7.969
 1497POPC   C4A22890   5.930   3.373   7.538
 1497POPC   C1B22891   6.067   3.893   8.751
 1497POPC   C2B22892   5.940   3.781   8.343
 1497POPC   C3B22893   5.542   3.699   8.160
 1497POPC   C4B22894   5.386   3.731   7.750
 1498POPC   NC322895  36.479  32.799   9.331
 1498POPC   PO422896  35.926  33.094   9.529
 1498POPC   GL122897  36.074  33.105   9.101
 1498POPC   GL222898  36.411  33.238   9.048
 1498POPC   C1A22899  35.897  32.893   8.730
 1498POPC   D2A22900  35.646  32.917   8.351
 1498POPC   C3A22901  35.812  32.877   7.943
 1498POPC   C4A22902  36.232  32.727   7.816
 1498POPC   C1B22903  36.397  33.004   8.689
 1498POPC   C2B22904  36.181  33.008   8.310
 1498POPC   C3B22905  36.526  33.039   8.081
 1498POPC   C4B22906  36.654  33.130   7.694
 1499POPC   NC322907  10.651  21.659   9.881
 1499POPC   PO422908  10.512  22.237   9.537
 1499POPC   GL122909  10.297  22.119   9.148
 1499POPC   GL222910  10.229  22.467   9.055
 1499POPC   C1A22911  10.442  21.867   8.780
 1499POPC   D2A22912  10.726  21.982   8.459
 1499POPC   C3A22913  10.494  21.857   8.099
 1499POPC   C4A22914  10.453  21.925   7.685
 1499POPC   C1B22915  10.400  22.376   8.687
 1499POPC   C2B22916  10.445  22.355   8.251
 1499POPC   C3B22917  10.723  22.311   7.913
 1499POPC   C4B22918  10.879  22.285   7.467
 1500POPC   NC322919  40.344  31.494   9.830
 1500POPC   PO422920  39.707  31.443   9.558
 1500POPC   GL122921  39.798  31.605   9.145
 1500POPC   GL222922  40.104  31.714   9.106
 1500POPC   C1A22923  39.827  31.364   8.759
 1500POPC   D2A22924  40.038  31.176   8.426
 1500POPC   C3A22925  40.061  31.532   8.168
 1500POPC   C4A22926  40.033  31.777   7.806
 1500POPC   C1B22927  40.264  31.622   8.681
 1500POPC   C2B22928  40.523  31.377   8.372
 1500POPC   C3B22929  40.368  31.158   8.008
 1500POPC   C4B22930  40.107  31.260   7.704
 1501POPC   NC322931  12.504  12.319   9.479
 1501POPC   PO422932  12.986  11.918   9.579
 1501POPC   GL122933  12.918  12.103   9.178
 1501POPC   GL222934  12.619  12.177   9.004
 1501POPC   C1A22935  13.075  12.322   8.812
 1501POPC   D2A22936  13.023  12.478   8.391
 1501POPC   C3A22937  13.146  12.248   8.026
 1501POPC   C4A22938  12.993  12.031   7.683
 1501POPC   C1B22939  12.517  12.552   8.706
 1501POPC   C2B22940  12.589  12.755   8.309
 1501POPC   C3B22941  12.665  12.410   8.030
 1501POPC   C4B22942  12.537  12.260   7.639
 1502POPC   NC322943   8.081   9.856   9.598
 1502POPC   PO422944   7.872   9.358   9.322
 1502POPC   GL122945   7.996   9.713   9.100
 1502POPC   GL222946   7.899  10.053   9.149
 1502POPC   C1A22947   8.179   9.728   8.708
 1502POPC   D2A22948   8.009   9.660   8.307
 1502POPC   C3A22949   8.293   9.775   7.993
 1502POPC   C4A22950   8.276   9.526   7.650
 1502POPC   C1B22951   7.786  10.045   8.715
 1502POPC   C2B22952   7.849  10.133   8.277
 1502POPC   C3B22953   7.853   9.979   7.855
 1502POPC   C4B22954   7.756   9.593   7.592
 1503POPC   NC322955   0.501  18.167   9.444
 1503POPC   PO422956  44.985  18.696   9.392
 1503POPC   GL122957   0.318  18.574   9.070
 1503POPC   GL222958   0.466  18.213   8.950
 1503POPC   C1A22959   0.237  18.508   8.617
 1503POPC   D2A22960   0.290  18.135   8.329
 1503POPC   C3A22961   0.276  18.287   7.928
 1503POPC   C4A22962   0.388  18.582   7.640
 1503POPC   C1B22963   0.735  18.339   8.601
 1503POPC   C2B22964   0.756  18.327   8.135
 1503POPC   C3B22965   0.762  18.117   7.736
 1503POPC   C4B22966   0.641  17.849   7.361
 1504POPC   NC322967  22.487  42.820   9.759
 1504POPC   PO422968  21.850  43.024   9.656
 1504POPC   GL122969  22.086  43.237   9.294
 1504POPC   GL222970  22.343  42.999   9.238
 1504POPC   C1A22971  22.019  43.159   8.830
 1504POPC   D2A22972  22.102  42.976   8.435
 1504POPC   C3A22973  21.939  43.066   8.042
 1504POPC   C4A22974  22.062  43.134   7.613
 1504POPC   C1B22975  22.456  42.900   8.807
 1504POPC   C2B22976  22.600  42.899   8.379
 1504POPC   C3B22977  22.451  43.018   7.973
 1504POPC   C4B22978  22.554  43.094   7.544
 1505POPC   NC322979  10.240  14.389   9.230
 1505POPC   PO422980  10.669  14.185   9.673
 1505POPC   GL122981  10.735  14.370   9.248
 1505POPC   GL222982  10.690  14.175   8.981
 1505POPC   C1A22983  10.744  14.694   8.900
 1505POPC   D2A22984  10.664  14.853   8.468
 1505POPC   C3A22985  10.499  14.609   8.104
 1505POPC   C4A22986  10.792  14.387   7.820
 1505POPC   C1B22987  10.458  14.365   8.609
 1505POPC   C2B22988  10.264  14.144   8.278
 1505POPC   C3B22989  10.361  14.140   7.874
 1505POPC   C4B22990  10.338  14.482   7.594
 1506POPC   NC322991  14.670   7.389   9.528
 1506POPC   PO422992  15.317   7.158   9.540
 1506POPC   GL122993  15.270   7.430   9.209
 1506POPC   GL222994  15.554   7.260   9.085
 1506POPC   C1A22995  15.021   7.389   8.830
 1506POPC   D2A22996  14.842   7.627   8.476
 1506POPC   C3A22997  15.000   7.664   8.066
 1506POPC   C4A22998  14.910   7.316   7.774
 1506POPC   C1B22999  15.507   7.490   8.739
 1506POPC   C2B23000  15.289   7.370   8.390
 1506POPC   C3B23001  15.428   7.385   8.021
 1506POPC   C4B23002  15.659   7.526   7.710
 1507POPC   NC323003  28.242   5.549   9.343
 1507POPC   PO423004  28.613   6.085   9.482
 1507POPC   GL123005  28.667   5.790   9.133
 1507POPC   GL223006  28.349   5.874   8.979
 1507POPC   C1A23007  28.605   5.527   8.743
 1507POPC   D2A23008  28.593   5.769   8.353
 1507POPC   C3A23009  28.190   5.845   8.152
 1507POPC   C4A23010  28.136   5.941   7.736
 1507POPC   C1B23011  28.619   6.132   8.736
 1507POPC   C2B23012  28.415   6.254   8.384
 1507POPC   C3B23013  28.578   6.169   7.969
 1507POPC   C4B23014  28.706   6.200   7.542
 1508POPC   NC323015  38.939  14.512   9.412
 1508POPC   PO423016  39.373  13.977   9.313
 1508POPC   GL123017  39.062  14.196   9.015
 1508POPC   GL223018  39.136  14.548   8.952
 1508POPC   C1A23019  39.014  14.182   8.545
 1508POPC   D2A23020  39.177  13.949   8.174
 1508POPC   C3A23021  39.141  14.182   7.821
 1508POPC   C4A23022  39.061  14.619   7.785
 1508POPC   C1B23023  39.435  14.430   8.656
 1508POPC   C2B23024  39.354  14.443   8.215
 1508POPC   C3B23025  39.507  14.769   7.980
 1508POPC   C4B23026  39.409  14.899   7.541
 1509POPC   NC323027  20.709  39.158   9.507
 1509POPC   PO423028  20.048  39.352   9.522
 1509POPC   GL123029  20.287  39.427   9.173
 1509POPC   GL223030  20.372  39.104   9.109
 1509POPC   C1A23031  20.161  39.379   8.721
 1509POPC   D2A23032  20.067  39.306   8.270
 1509POPC   C3A23033  20.459  39.296   7.984
 1509POPC   C4A23034  20.694  39.460   7.608
 1509POPC   C1B23035  20.652  39.242   8.768
 1509POPC   C2B23036  20.819  39.213   8.340
 1509POPC   C3B23037  20.922  39.029   7.901
 1509POPC   C4B23038  20.879  39.008   7.418
 1510POPC   NC323039  37.886  17.173   9.518
 1510POPC   PO423040  37.762  16.471   9.412
 1510POPC   GL123041  37.588  16.720   9.070
 1510POPC   GL223042  37.617  17.062   9.088
 1510POPC   C1A23043  37.631  16.859   8.607
 1510POPC   D2A23044  37.952  16.966   8.261
 1510POPC   C3A23045  37.946  16.682   7.897
 1510POPC   C4A23046  37.583  16.585   7.639
 1510POPC   C1B23047  37.238  17.101   8.831
 1510POPC   C2B23048  37.148  17.016   8.391
 1510POPC   C3B23049  37.428  16.881   8.054
 1510POPC   C4B23050  37.730  17.135   7.815
 1511POPC   NC323051  38.793  23.428   9.195
 1511POPC   PO423052  38.204  23.579   9.613
 1511POPC   GL123053  38.313  23.635   9.188
 1511POPC   GL223054  38.133  23.912   9.103
 1511POPC   C1A23055  38.377  23.670   8.715
 1511POPC   D2A23056  38.626  23.752   8.332
 1511POPC   C3A23057  38.615  23.635   7.891
 1511POPC   C4A23058  38.624  23.913   7.535
 1511POPC   C1B23059  37.885  23.846   8.749
 1511POPC   C2B23060  38.094  23.945   8.375
 1511POPC   C3B23061  38.172  23.882   7.960
 1511POPC   C4B23062  38.131  24.022   7.537
 1512POPC   NC323063  21.612  40.715   9.448
 1512POPC   PO423064  20.967  40.656   9.366
 1512POPC   GL123065  21.235  40.752   9.090
 1512POPC   GL223066  21.266  41.066   9.246
 1512POPC   C1A23067  21.533  40.893   8.806
 1512POPC   D2A23068  21.635  40.689   8.415
 1512POPC   C3A23069  21.516  40.804   8.006
 1512POPC   C4A23070  21.346  40.508   7.741
 1512POPC   C1B23071  21.044  41.139   8.835
 1512POPC   C2B23072  21.185  40.985   8.452
 1512POPC   C3B23073  21.121  41.135   8.109
 1512POPC   C4B23074  21.123  40.980   7.728
 1513POPC   NC323075  37.099  27.855   9.440
 1513POPC   PO423076  37.122  27.167   9.371
 1513POPC   GL123077  37.129  27.515   9.053
 1513POPC   GL223078  36.780  27.696   9.059
 1513POPC   C1A23079  37.109  27.848   8.714
 1513POPC   D2A23080  36.811  27.885   8.382
 1513POPC   C3A23081  36.904  27.650   8.034
 1513POPC   C4A23082  36.938  27.729   7.610
 1513POPC   C1B23083  36.768  27.422   8.649
 1513POPC   C2B23084  36.725  27.194   8.221
 1513POPC   C3B23085  36.663  27.254   7.761
 1513POPC   C4B23086  36.608  27.452   7.326
 1514POPC   NC323087  27.996  31.634   9.581
 1514POPC   PO423088  27.329  31.609   9.473
 1514POPC   GL123089  27.669  31.526   9.202
 1514POPC   GL223090  27.454  31.404   8.980
 1514POPC   C1A23091  27.833  31.707   8.819
 1514POPC   D2A23092  27.725  31.512   8.413
 1514POPC   C3A23093  27.692  31.691   8.009
 1514POPC   C4A23094  27.808  31.563   7.585
 1514POPC   C1B23095  27.284  31.317   8.602
 1514POPC   C2B23096  27.227  31.524   8.225
 1514POPC   C3B23097  27.286  31.431   7.807
 1514POPC   C4B23098  27.110  31.118   7.490
 1515POPC   NC323099   4.170   4.757   9.668
 1515POPC   PO423100   4.354   4.181   9.491
 1515POPC   GL123101   4.362   4.293   9.140
 1515POPC   GL223102   4.108   4.563   9.173
 1515POPC   C1A23103   4.646   4.194   8.767
 1515POPC   D2A23104   4.750   4.039   8.340
 1515POPC   C3A23105   4.673   4.280   7.957
 1515POPC   C4A23106   4.451   4.139   7.538
 1515POPC   C1B23107   4.281   4.568   8.754
 1515POPC   C2B23108   4.395   4.415   8.362
 1515POPC   C3B23109   4.227   4.507   7.963
 1515POPC   C4B23110   3.902   4.755   7.838
 1516POPC   NC323111  40.280  33.899   9.460
 1516POPC   PO423112  39.636  34.136   9.392
 1516POPC   GL123113  39.906  33.746   9.141
 1516POPC   GL223114  40.287  33.558   9.088
 1516POPC   C1A23115  40.018  33.681   8.677
 1516POPC   D2A23116  39.953  34.108   8.485
 1516POPC   C3A23117  39.857  34.111   8.033
 1516POPC   C4A23118  39.906  33.988   7.601
 1516POPC   C1B23119  40.497  33.833   8.723
 1516POPC   C2B23120  40.335  33.871   8.281
 1516POPC   C3B23121  40.240  33.666   7.879
 1516POPC   C4B23122  40.388  33.833   7.478
 1517POPC   NC323123  25.095   6.732   9.650
 1517POPC   PO423124  25.446   6.235   9.353
 1517POPC   GL123125  25.476   6.687   9.222
 1517POPC   GL223126  25.173   6.923   9.186
 1517POPC   C1A23127  25.550   6.796   8.800
 1517POPC   D2A23128  25.395   6.581   8.398
 1517POPC   C3A23129  25.462   6.853   8.038
 1517POPC   C4A23130  25.631   6.789   7.657
 1517POPC   C1B23131  25.071   6.683   8.817
 1517POPC   C2B23132  25.025   6.901   8.414
 1517POPC   C3B23133  24.998   6.674   8.032
 1517POPC   C4B23134  25.165   6.514   7.681
 1518POPC   NC323135  42.012  42.117   9.459
 1518POPC   PO423136  42.465  41.635   9.467
 1518POPC   GL123137  42.232  41.519   9.132
 1518POPC   GL223138  41.940  41.738   9.080
 1518POPC   C1A23139  42.099  41.274   8.782
 1518POPC   D2A23140  42.341  41.160   8.420
 1518POPC   C3A23141  42.281  41.404   8.052
 1518POPC   C4A23142  42.174  41.449   7.640
 1518POPC   C1B23143  42.207  41.783   8.694
 1518POPC   C2B23144  42.187  41.973   8.287
 1518POPC   C3B23145  42.275  41.893   7.868
 1518POPC   C4B23146  42.635  41.677   7.759
 1519POPC   NC323147  37.087  22.672   9.558
 1519POPC   PO423148  36.655  23.148   9.423
 1519POPC   GL123149  37.049  23.118   9.145
 1519POPC   GL223150  37.214  22.773   9.088
 1519POPC   C1A23151  37.076  23.161   8.683
 1519POPC   D2A23152  36.795  23.135   8.312
 1519POPC   C3A23153  36.916  23.101   7.860
 1519POPC   C4A23154  36.650  23.109   7.496
 1519POPC   C1B23155  37.194  22.610   8.701
 1519POPC   C2B23156  37.203  22.789   8.299
 1519POPC   C3B23157  37.095  22.578   7.935
 1519POPC   C4B23158  36.958  22.694   7.528
 1520POPC   NC323159   8.521   8.074   9.782
 1520POPC   PO423160   7.998   7.743   9.825
 1520POPC   GL123161   8.123   7.824   9.347
 1520POPC   GL223162   8.370   8.088   9.236
 1520POPC   C1A23163   8.000   7.970   8.887
 1520POPC   D2A23164   7.975   8.219   8.466
 1520POPC   C3A23165   8.084   8.133   8.015
 1520POPC   C4A23166   8.026   8.406   7.640
 1520POPC   C1B23167   8.424   8.241   8.760
 1520POPC   C2B23168   8.510   8.232   8.279
 1520POPC   C3B23169   8.503   8.400   7.825
 1520POPC   C4B23170   8.724   8.626   7.474
 1521POPC   NC323171  24.894  34.437   9.390
 1521POPC   PO423172  24.380  34.201   9.712
 1521POPC   GL123173  24.397  34.471   9.247
 1521POPC   GL223174  24.563  34.820   9.265
 1521POPC   C1A23175  24.502  34.397   8.781
 1521POPC   D2A23176  24.467  34.288   8.356
 1521POPC   C3A23177  24.538  34.490   7.972
 1521POPC   C4A23178  24.516  34.371   7.547
 1521POPC   C1B23179  24.504  34.893   8.846
 1521POPC   C2B23180  24.218  34.751   8.517
 1521POPC   C3B23181  23.967  34.839   8.148
 1521POPC   C4B23182  24.161  34.749   7.725
 1522POPC   NC323183   2.162  44.363   9.614
 1522POPC   PO423184   1.744  44.889   9.529
 1522POPC   GL123185   1.888  44.549   9.241
 1522POPC   GL223186   2.160  44.676   9.102
 1522POPC   C1A23187   1.928  44.281   8.854
 1522POPC   D2A23188   1.670  44.362   8.471
 1522POPC   C3A23189   1.757  44.502   8.049
 1522POPC   C4A23190   2.094  44.452   7.764
 1522POPC   C1B23191   1.905  44.776   8.715
 1522POPC   C2B23192   1.994   0.055   8.349
 1522POPC   C3B23193   1.997  44.945   7.891
 1522POPC   C4B23194   2.236  44.871   7.516
 1523POPC   NC323195  35.809  41.919   9.558
 1523POPC   PO423196  36.082  41.344   9.449
 1523POPC   GL123197  36.162  41.462   9.062
 1523POPC   GL223198  36.047  41.781   9.127
 1523POPC   C1A23199  36.260  41.457   8.650
 1523POPC   D2A23200  36.063  41.409   8.263
 1523POPC   C3A23201  36.254  41.653   7.933
 1523POPC   C4A23202  36.536  41.701   7.595
 1523POPC   C1B23203  35.825  41.743   8.758
 1523POPC   C2B23204  35.982  41.888   8.381
 1523POPC   C3B23205  35.921  42.023   7.994
 1523POPC   C4B23206  35.874  41.871   7.604
 1524POPC   NC323207  37.877  20.325   9.545
 1524POPC   PO423208  37.527  20.824   9.765
 1524POPC   GL123209  37.483  20.732   9.316
 1524POPC   GL223210  37.819  20.715   9.219
 1524POPC   C1A23211  37.435  20.744   8.864
 1524POPC   D2A23212  37.383  20.570   8.457
 1524POPC   C3A23213  37.510  20.821   8.129
 1524POPC   C4A23214  37.614  20.714   7.703
 1524POPC   C1B23215  37.830  20.430   8.867
 1524POPC   C2B23216  37.890  20.628   8.485
 1524POPC   C3B23217  37.858  20.466   8.089
 1524POPC   C4B23218  38.114  20.575   7.766
 1525POPC   NC323219   1.604  36.628   9.604
 1525POPC   PO423220   2.094  37.041   9.722
 1525POPC   GL123221   1.842  37.032   9.333
 1525POPC   GL223222   2.152  37.157   9.198
 1525POPC   C1A23223   1.759  36.809   8.944
 1525POPC   D2A23224   1.647  36.926   8.504
 1525POPC   C3A23225   1.831  36.849   8.117
 1525POPC   C4A23226   1.649  36.965   7.746
 1525POPC   C1B23227   2.006  37.244   8.823
 1525POPC   C2B23228   2.145  37.077   8.464
 1525POPC   C3B23229   2.275  37.079   8.051
 1525POPC   C4B23230   2.104  37.154   7.683
 1526POPC   NC323231   2.956  41.610   9.616
 1526POPC   PO423232   2.360  41.511   9.721
 1526POPC   GL123233   2.523  41.615   9.269
 1526POPC   GL223234   2.865  41.765   9.151
 1526POPC   C1A23235   2.623  41.421   8.845
 1526POPC   D2A23236   2.501  41.358   8.423
 1526POPC   C3A23237   2.620  41.603   8.072
 1526POPC   C4A23238   2.638  41.487   7.654
 1526POPC   C1B23239   2.707  41.929   8.801
 1526POPC   C2B23240   2.891  41.780   8.447
 1526POPC   C3B23241   3.072  41.885   8.041
 1526POPC   C4B23242   2.875  41.943   7.662
 1527POPC   NC323243  30.841  35.914   9.325
 1527POPC   PO423244  30.718  36.464   9.686
 1527POPC   GL123245  30.632  36.400   9.207
 1527POPC   GL223246  30.408  36.083   9.154
 1527POPC   C1A23247  30.681  36.243   8.744
 1527POPC   D2A23248  30.651  36.051   8.301
 1527POPC   C3A23249  30.830  36.279   7.932
 1527POPC   C4A23250  30.690  36.345   7.486
 1527POPC   C1B23251  30.299  35.913   8.754
 1527POPC   C2B23252  30.188  35.669   8.372
 1527POPC   C3B23253  30.201  35.803   7.968
 1527POPC   C4B23254  30.333  36.170   7.794
 1528POPC   NC323255  23.120  13.260   9.351
 1528POPC   PO423256  22.619  13.659   9.453
 1528POPC   GL123257  22.866  13.664   9.075
 1528POPC   GL223258  23.188  13.791   9.170
 1528POPC   C1A23259  22.955  13.781   8.635
 1528POPC   D2A23260  22.774  13.769   8.231
 1528POPC   C3A23261  22.916  13.479   7.911
 1528POPC   C4A23262  22.811  13.387   7.476
 1528POPC   C1B23263  23.137  14.171   8.889
 1528POPC   C2B23264  23.031  14.233   8.396
 1528POPC   C3B23265  23.173  13.944   8.006
 1528POPC   C4B23266  23.089  13.802   7.537
 1529POPC   NC323267  26.451  33.764   9.590
 1529POPC   PO423268  26.986  34.043   9.772
 1529POPC   GL123269  26.879  33.982   9.303
 1529POPC   GL223270  26.547  33.943   9.143
 1529POPC   C1A23271  26.968  33.791   8.873
 1529POPC   D2A23272  27.162  33.605   8.492
 1529POPC   C3A23273  26.956  33.684   8.104
 1529POPC   C4A23274  27.080  33.829   7.690
 1529POPC   C1B23275  26.360  34.157   8.845
 1529POPC   C2B23276  26.479  34.269   8.448
 1529POPC   C3B23277  26.447  34.050   8.062
 1529POPC   C4B23278  26.599  34.144   7.650
 1530POPC   NC323279  17.603   4.623   9.581
 1530POPC   PO423280  17.215   4.045   9.454
 1530POPC   GL123281  17.334   4.380   9.191
 1530POPC   GL223282  17.698   4.340   9.180
 1530POPC   C1A23283  17.403   4.250   8.763
 1530POPC   D2A23284  17.184   4.000   8.476
 1530POPC   C3A23285  17.375   3.959   8.083
 1530POPC   C4A23286  17.521   4.021   7.661
 1530POPC   C1B23287  17.848   4.506   8.796
 1530POPC   C2B23288  17.822   4.250   8.414
 1530POPC   C3B23289  17.714   4.343   8.015
 1530POPC   C4B23290  17.622   4.535   7.611
 1531POPC   NC323291  31.417  39.379   9.505
 1531POPC   PO423292  31.996  39.735   9.281
 1531POPC   GL123293  31.781  39.326   9.142
 1531POPC   GL223294  31.454  39.086   9.093
 1531POPC   C1A23295  31.862  39.035   8.821
 1531POPC   D2A23296  31.902  39.020   8.398
 1531POPC   C3A23297  31.572  39.194   8.152
 1531POPC   C4A23298  31.516  39.248   7.718
 1531POPC   C1B23299  31.197  39.119   8.723
 1531POPC   C2B23300  31.019  39.185   8.334
 1531POPC   C3B23301  31.135  39.457   8.011
 1531POPC   C4B23302  31.119  39.520   7.578
 1532POPC   NC323303  20.964  30.862   9.230
 1532POPC   PO423304  20.428  30.422   9.386
 1532POPC   GL123305  20.622  30.518   9.029
 1532POPC   GL223306  20.955  30.367   9.075
 1532POPC   C1A23307  20.432  30.591   8.619
 1532POPC   D2A23308  20.310  30.544   8.180
 1532POPC   C3A23309  20.439  30.915   7.977
 1532POPC   C4A23310  20.540  30.932   7.543
 1532POPC   C1B23311  20.996  30.467   8.639
 1532POPC   C2B23312  20.819  30.615   8.237
 1532POPC   C3B23313  20.759  30.534   7.797
 1532POPC   C4B23314  20.902  30.608   7.347
 1533POPC   NC323315  33.166  35.372   9.535
 1533POPC   PO423316  32.678  34.945   9.273
 1533POPC   GL123317  32.824  35.405   9.132
 1533POPC   GL223318  33.199  35.485   9.055
 1533POPC   C1A23319  32.805  35.689   8.758
 1533POPC   D2A23320  32.925  35.585   8.342
 1533POPC   C3A23321  32.681  35.303   8.148
 1533POPC   C4A23322  32.703  35.256   7.693
 1533POPC   C1B23323  33.066  35.248   8.711
 1533POPC   C2B23324  33.175  35.100   8.320
 1533POPC   C3B23325  33.166  35.319   7.928
 1533POPC   C4B23326  33.327  35.599   7.603
 1534POPC   NC323327  23.037  35.077   9.406
 1534POPC   PO423328  23.161  35.744   9.181
 1534POPC   GL123329  23.103  35.395   9.018
 1534POPC   GL223330  22.758  35.386   9.107
 1534POPC   C1A23331  23.089  35.190   8.653
 1534POPC   D2A23332  22.911  35.016   8.285
 1534POPC   C3A23333  22.910  35.224   7.879
 1534POPC   C4A23334  22.863  35.093   7.454
 1534POPC   C1B23335  22.666  35.529   8.678
 1534POPC   C2B23336  22.614  35.488   8.214
 1534POPC   C3B23337  22.663  35.763   7.856
 1534POPC   C4B23338  22.881  35.604   7.482
 1535POPC   NC323339  33.352  32.760   9.657
 1535POPC   PO423340  32.801  33.179   9.493
 1535POPC   GL123341  33.015  32.880   9.239
 1535POPC   GL223342  32.858  32.541   9.262
 1535POPC   C1A23343  33.011  32.934   8.789
 1535POPC   D2A23344  33.076  33.141   8.403
 1535POPC   C3A23345  33.350  32.984   8.087
 1535POPC   C4A23346  33.118  32.995   7.728
 1535POPC   C1B23347  32.576  32.734   8.963
 1535POPC   C2B23348  32.577  32.731   8.512
 1535POPC   C3B23349  32.728  32.888   8.103
 1535POPC   C4B23350  32.519  32.893   7.698
 1536POPC   NC323351  14.074   0.643   9.811
 1536POPC   PO423352  14.676   0.746   9.493
 1536POPC   GL123353  14.592   0.477   9.160
 1536POPC   GL223354  14.256   0.318   9.145
 1536POPC   C1A23355  14.583   0.410   8.730
 1536POPC   D2A23356  14.292   0.525   8.410
 1536POPC   C3A23357  14.505   0.431   8.022
 1536POPC   C4A23358  14.337   0.412   7.622
 1536POPC   C1B23359  14.151   0.122   8.720
 1536POPC   C2B23360  14.358   0.002   8.325
 1536POPC   C3B23361  14.230  44.980   7.865
 1536POPC   C4B23362  14.385  44.974   7.391
 1537POPC   NC323363  38.229  21.641   9.402
 1537POPC   PO423364  38.671  21.134   9.490
 1537POPC   GL123365  38.500  21.122   9.119
 1537POPC   GL223366  38.147  21.133   9.248
 1537POPC   C1A23367  38.631  21.275   8.707
 1537POPC   D2A23368  38.472  21.487   8.327
 1537POPC   C3A23369  38.452  21.179   7.988
 1537POPC   C4A23370  38.498  21.223   7.543
 1537POPC   C1B23371  38.112  21.299   8.827
 1537POPC   C2B23372  38.172  21.087   8.445
 1537POPC   C3B23373  37.990  20.961   8.094
 1537POPC   C4B23374  38.040  21.068   7.691
 1538POPC   NC323375  35.013  14.234   9.624
 1538POPC   PO423376  35.175  14.871   9.632
 1538POPC   GL123377  35.198  14.562   9.291
 1538POPC   GL223378  35.519  14.423   9.207
 1538POPC   C1A23379  35.181  14.621   8.836
 1538POPC   D2A23380  35.360  14.694   8.403
 1538POPC   C3A23381  35.179  14.445   8.044
 1538POPC   C4A23382  34.979  14.020   7.991
 1538POPC   C1B23383  35.698  14.472   8.797
 1538POPC   C2B23384  35.759  14.373   8.362
 1538POPC   C3B23385  35.703  14.409   7.932
 1538POPC   C4B23386  35.465  14.084   7.787
 1539POPC   NC323387  16.844  10.282   9.715
 1539POPC   PO423388  16.414  10.741   9.526
 1539POPC   GL123389  16.621  10.623   9.125
 1539POPC   GL223390  16.896  10.448   9.239
 1539POPC   C1A23391  16.853  10.396   8.746
 1539POPC   D2A23392  16.718  10.201   8.312
 1539POPC   C3A23393  16.900  10.368   7.942
 1539POPC   C4A23394  16.772  10.679   7.699
 1539POPC   C1B23395  17.094  10.788   8.984
 1539POPC   C2B23396  17.134  10.780   8.544
 1539POPC   C3B23397  17.148  10.788   8.086
 1539POPC   C4B23398  17.156  11.004   7.680
 1540POPC   NC323399  21.680  37.579   9.528
 1540POPC   PO423400  21.198  38.120   9.597
 1540POPC   GL123401  21.271  37.865   9.196
 1540POPC   GL223402  21.090  38.069   8.988
 1540POPC   C1A23403  21.298  37.738   8.704
 1540POPC   D2A23404  21.571  37.636   8.379
 1540POPC   C3A23405  21.425  37.659   7.995
 1540POPC   C4A23406  21.675  37.755   7.666
 1540POPC   C1B23407  20.944  38.180   8.599
 1540POPC   C2B23408  21.231  38.081   8.295
 1540POPC   C3B23409  21.110  38.032   7.880
 1540POPC   C4B23410  21.201  37.770   7.525
 1541POPC   NC323411  38.702   1.928   9.219
 1541POPC   PO423412  38.498   2.409   9.576
 1541POPC   GL123413  38.339   2.251   9.072
 1541POPC   GL223414  38.245   1.884   9.015
 1541POPC   C1A23415  38.084   2.185   8.665
 1541POPC   D2A23416  38.093   1.874   8.312
 1541POPC   C3A23417  38.133   2.060   7.938
 1541POPC   C4A23418  38.149   2.286   7.569
 1541POPC   C1B23419  38.500   1.865   8.607
 1541POPC   C2B23420  38.597   1.770   8.143
 1541POPC   C3B23421  38.501   1.826   7.675
 1541POPC   C4B23422  38.674   1.678   7.281
 1542POPC   NC323423  11.623  12.672   9.590
 1542POPC   PO423424  11.173  13.058   9.349
 1542POPC   GL123425  11.372  12.771   9.143
 1542POPC   GL223426  11.675  12.921   9.140
 1542POPC   C1A23427  11.492  12.644   8.756
 1542POPC   D2A23428  11.279  12.739   8.385
 1542POPC   C3A23429  11.473  12.780   7.994
 1542POPC   C4A23430  11.340  12.593   7.638
 1542POPC   C1B23431  11.596  13.138   8.717
 1542POPC   C2B23432  11.493  13.229   8.269
 1542POPC   C3B23433  11.215  13.255   7.876
 1542POPC   C4B23434  11.283  13.179   7.410
 1543POPC   NC323435  28.704  30.163   9.375
 1543POPC   PO423436  28.013  30.100   9.479
 1543POPC   GL123437  28.219  30.049   9.088
 1543POPC   GL223438  28.428  29.790   9.092
 1543POPC   C1A23439  28.280  30.126   8.644
 1543POPC   D2A23440  28.317  30.049   8.184
 1543POPC   C3A23441  28.635  30.277   7.935
 1543POPC   C4A23442  28.625  30.132   7.517
 1543POPC   C1B23443  28.540  29.570   8.711
 1543POPC   C2B23444  28.714  29.635   8.302
 1543POPC   C3B23445  28.675  29.746   7.903
 1543POPC   C4B23446  28.310  29.772   7.709
 1544POPC   NC323447   7.954  20.997   9.739
 1544POPC   PO423448   7.348  20.601   9.481
 1544POPC   GL123449   7.167  20.469   9.091
 1544POPC   GL223450   7.233  20.813   8.988
 1544POPC   C1A23451   7.140  20.428   8.637
 1544POPC   D2A23452   6.999  20.419   8.197
 1544POPC   C3A23453   7.275  20.665   7.978
 1544POPC   C4A23454   7.666  20.512   7.870
 1544POPC   C1B23455   7.593  20.609   8.825
 1544POPC   C2B23456   7.593  20.619   8.388
 1544POPC   C3B23457   7.691  20.967   8.121
 1544POPC   C4B23458   7.726  20.985   7.676
 1545POPC   NC323459  10.516  23.582   9.555
 1545POPC   PO423460  11.015  24.144   9.563
 1545POPC   GL123461  10.809  23.862   9.246
 1545POPC   GL223462  10.467  23.875   9.149
 1545POPC   C1A23463  10.743  23.782   8.763
 1545POPC   D2A23464  10.531  23.753   8.366
 1545POPC   C3A23465  10.789  23.759   7.971
 1545POPC   C4A23466  11.121  23.970   7.778
 1545POPC   C1B23467  10.334  24.100   8.754
 1545POPC   C2B23468  10.389  24.268   8.353
 1545POPC   C3B23469  10.384  24.042   7.966
 1545POPC   C4B23470  10.647  24.132   7.598
 1546POPC   NC323471  39.188  13.020   9.913
 1546POPC   PO423472  38.847  12.609   9.563
 1546POPC   GL123473  39.128  12.631   9.200
 1546POPC   GL223474  39.034  12.351   8.974
 1546POPC   C1A23475  39.327  12.946   8.856
 1546POPC   D2A23476  39.271  12.807   8.413
 1546POPC   C3A23477  39.425  12.904   8.006
 1546POPC   C4A23478  39.563  12.795   7.587
 1546POPC   C1B23479  38.896  12.743   8.774
 1546POPC   C2B23480  38.812  13.043   8.440
 1546POPC   C3B23481  38.874  12.861   8.034
 1546POPC   C4B23482  39.062  12.917   7.643
 1547POPC   NC323483  28.391  27.904   9.556
 1547POPC   PO423484  28.525  27.292   9.521
 1547POPC   GL123485  28.501  27.577   9.142
 1547POPC   GL223486  28.590  27.936   9.083
 1547POPC   C1A23487  28.364  27.493   8.696
 1547POPC   D2A23488  28.344  27.277   8.279
 1547POPC   C3A23489  28.456  27.517   7.892
 1547POPC   C4A23490  28.612  27.857   7.606
 1547POPC   C1B23491  28.286  28.014   8.755
 1547POPC   C2B23492  28.245  27.837   8.320
 1547POPC   C3B23493  27.995  27.716   7.956
 1547POPC   C4B23494  28.083  27.949   7.604
 1548POPC   NC323495  22.319  17.324   9.568
 1548POPC   PO423496  21.717  17.620   9.489
 1548POPC   GL123497  22.073  17.539   9.161
 1548POPC   GL223498  22.130  17.165   9.136
 1548POPC   C1A23499  22.324  17.715   8.775
 1548POPC   D2A23500  22.343  17.931   8.349
 1548POPC   C3A23501  22.365  17.717   7.923
 1548POPC   C4A23502  22.261  17.782   7.451
 1548POPC   C1B23503  22.028  17.298   8.712
 1548POPC   C2B23504  22.259  17.395   8.344
 1548POPC   C3B23505  22.140  17.253   7.945
 1548POPC   C4B23506  22.271  17.096   7.572
 1549POPC   NC323507   4.483  20.485   9.556
 1549POPC   PO423508   4.331  21.131   9.394
 1549POPC   GL123509   4.342  20.791   9.157
 1549POPC   GL223510   4.003  20.720   9.233
 1549POPC   C1A23511   4.532  20.639   8.774
 1549POPC   D2A23512   4.600  20.448   8.328
 1549POPC   C3A23513   4.489  20.799   8.005
 1549POPC   C4A23514   4.090  20.928   7.789
 1549POPC   C1B23515   3.950  20.621   8.803
 1549POPC   C2B23516   4.132  20.663   8.395
 1549POPC   C3B23517   4.136  20.435   8.003
 1549POPC   C4B23518   3.913  20.441   7.597
 1550POPC   NC323519  15.198  27.660   9.686
 1550POPC   PO423520  15.241  27.094   9.389
 1550POPC   GL123521  14.994  27.389   9.142
 1550POPC   GL223522  15.081  27.740   9.167
 1550POPC   C1A23523  14.909  27.390   8.690
 1550POPC   D2A23524  15.195  27.313   8.369
 1550POPC   C3A23525  15.049  27.329   7.980
 1550POPC   C4A23526  15.076  27.218   7.579
 1550POPC   C1B23527  15.090  27.912   8.720
 1550POPC   C2B23528  15.097  27.814   8.273
 1550POPC   C3B23529  15.088  27.807   7.805
 1550POPC   C4B23530  15.507  27.882   7.614
 1551POPC   NC323531   3.092  14.795   9.356
 1551POPC   PO423532   2.639  14.395   9.652
 1551POPC   GL123533   2.754  14.398   9.196
 1551POPC   GL223534   2.684  14.732   9.013
 1551POPC   C1A23535   2.645  14.305   8.752
 1551POPC   D2A23536   2.523  14.554   8.400
 1551POPC   C3A23537   2.817  14.490   8.074
 1551POPC   C4A23538   2.818  14.313   7.669
 1551POPC   C1B23539   3.071  14.594   8.745
 1551POPC   C2B23540   3.283  14.705   8.362
 1551POPC   C3B23541   3.124  14.934   8.031
 1551POPC   C4B23542   2.886  14.817   7.668
 1552POPC   NC323543  22.567  14.813   9.599
 1552POPC   PO423544  23.284  14.944   9.597
 1552POPC   GL123545  22.910  15.120   9.332
 1552POPC   GL223546  22.836  15.494   9.372
 1552POPC   C1A23547  22.873  15.026   8.875
 1552POPC   D2A23548  23.112  15.087   8.490
 1552POPC   C3A23549  22.891  15.090   8.151
 1552POPC   C4A23550  22.812  14.898   7.791
 1552POPC   C1B23551  22.753  15.519   8.910
 1552POPC   C2B23552  22.593  15.335   8.486
 1552POPC   C3B23553  22.498  15.386   8.004
 1552POPC   C4B23554  22.660  15.352   7.582
 1553POPC   NC323555  44.249   3.249   9.487
 1553POPC   PO423556  43.530   3.196   9.483
 1553POPC   GL123557  43.655   3.221   9.074
 1553POPC   GL223558  43.988   3.432   9.045
 1553POPC   C1A23559  43.701   3.287   8.641
 1553POPC   D2A23560  43.942   3.568   8.386
 1553POPC   C3A23561  43.770   3.697   8.004
 1553POPC   C4A23562  43.882   3.422   7.720
 1553POPC   C1B23563  44.131   3.808   8.785
 1553POPC   C2B23564  44.389   3.863   8.399
 1553POPC   C3B23565  44.295   3.666   8.021
 1553POPC   C4B23566  44.225   3.838   7.646
 1554POPC   NC323567  10.238  16.685   9.790
 1554POPC   PO423568   9.692  16.932   9.518
 1554POPC   GL123569   9.739  16.860   9.130
 1554POPC   GL223570   9.725  16.539   9.165
 1554POPC   C1A23571   9.779  16.849   8.719
 1554POPC   D2A23572   9.751  17.132   8.378
 1554POPC   C3A23573   9.734  16.858   8.073
 1554POPC   C4A23574   9.961  16.912   7.721
 1554POPC   C1B23575   9.936  16.355   8.817
 1554POPC   C2B23576  10.055  16.497   8.422
 1554POPC   C3B23577  10.022  16.436   7.986
 1554POPC   C4B23578   9.742  16.459   7.669
 1555POPC   NC323579   4.977  13.326   9.553
 1555POPC   PO423580   5.534  13.715   9.389
 1555POPC   GL123581   5.238  13.518   9.126
 1555POPC   GL223582   4.855  13.484   9.102
 1555POPC   C1A23583   5.130  13.685   8.731
 1555POPC   D2A23584   5.066  13.970   8.389
 1555POPC   C3A23585   5.217  13.826   7.974
 1555POPC   C4A23586   5.156  13.539   7.616
 1555POPC   C1B23587   4.716  13.397   8.727
 1555POPC   C2B23588   4.947  13.452   8.330
 1555POPC   C3B23589   4.772  13.498   7.951
 1555POPC   C4B23590   4.734  13.243   7.593
 1556POPC   NC323591   8.903  23.943   9.588
 1556POPC   PO423592   9.453  24.335   9.688
 1556POPC   GL123593   9.264  24.082   9.258
 1556POPC   GL223594   9.170  23.679   9.252
 1556POPC   C1A23595   9.048  23.979   8.860
 1556POPC   D2A23596   8.972  23.690   8.496
 1556POPC   C3A23597   8.817  23.800   8.073
 1556POPC   C4A23598   8.926  23.636   7.679
 1556POPC   C1B23599   9.246  23.434   8.882
 1556POPC   C2B23600   9.191  23.226   8.483
 1556POPC   C3B23601   9.074  23.347   8.093
 1556POPC   C4B23602   9.280  23.288   7.709
 1557POPC   NC323603  36.517  39.416   9.537
 1557POPC   PO423604  36.185  38.879   9.630
 1557POPC   GL123605  36.028  39.096   9.230
 1557POPC   GL223606  36.256  39.391   9.107
 1557POPC   C1A23607  36.007  39.090   8.760
 1557POPC   D2A23608  36.301  39.268   8.431
 1557POPC   C3A23609  36.305  39.022   8.037
 1557POPC   C4A23610  35.990  38.931   7.717
 1557POPC   C1B23611  36.003  39.597   8.824
 1557POPC   C2B23612  35.855  39.582   8.415
 1557POPC   C3B23613  35.978  39.420   8.025
 1557POPC   C4B23614  36.342  39.482   7.801
 1558POPC   NC323615  42.110  19.674   9.595
 1558POPC   PO423616  42.422  20.215   9.371
 1558POPC   GL123617  42.272  20.055   9.014
 1558POPC   GL223618  42.216  19.697   9.092
 1558POPC   C1A23619  42.522  19.915   8.708
 1558POPC   D2A23620  42.512  19.705   8.381
 1558POPC   C3A23621  42.426  19.979   8.076
 1558POPC   C4A23622  42.554  19.929   7.685
 1558POPC   C1B23623  41.935  19.444   8.804
 1558POPC   C2B23624  41.926  19.339   8.360
 1558POPC   C3B23625  42.201  19.472   7.994
 1558POPC   C4B23626  42.127  19.629   7.561
 1559POPC   NC323627  36.664  40.188   9.360
 1559POPC   PO423628  37.289  40.323   9.485
 1559POPC   GL123629  37.145  40.180   9.089
 1559POPC   GL223630  37.150  39.823   9.198
 1559POPC   C1A23631  36.786  40.163   8.752
 1559POPC   D2A23632  36.561  40.176   8.352
 1559POPC   C3A23633  36.849  40.253   8.045
 1559POPC   C4A23634  37.017  40.118   7.650
 1559POPC   C1B23635  37.145  39.766   8.764
 1559POPC   C2B23636  37.043  39.931   8.385
 1559POPC   C3B23637  36.986  39.749   8.002
 1559POPC   C4B23638  36.807  39.595   7.644
 1560POPC   NC323639  14.386  44.088   9.487
 1560POPC   PO423640  14.949  43.776   9.513
 1560POPC   GL123641  14.599  43.646   9.191
 1560POPC   GL223642  14.323  43.890   9.035
 1560POPC   C1A23643  14.459  43.466   8.780
 1560POPC   D2A23644  14.436  43.712   8.392
 1560POPC   C3A23645  14.217  43.647   8.002
 1560POPC   C4A23646  14.465  43.673   7.628
 1560POPC   C1B23647  14.713  44.068   8.863
 1560POPC   C2B23648  14.775  44.131   8.432
 1560POPC   C3B23649  14.540  44.059   8.032
 1560POPC   C4B23650  14.557  44.170   7.626
 1561POPC   NC323651   3.042  20.988   9.484
 1561POPC   PO423652   2.812  21.573   9.654
 1561POPC   GL123653   2.720  21.337   9.230
 1561POPC   GL223654   2.673  21.561   8.923
 1561POPC   C1A23655   2.620  21.050   8.832
 1561POPC   D2A23656   2.631  21.276   8.484
 1561POPC   C3A23657   2.830  21.173   8.126
 1561POPC   C4A23658   2.760  21.309   7.754
 1561POPC   C1B23659   3.016  21.624   8.573
 1561POPC   C2B23660   3.159  21.582   8.172
 1561POPC   C3B23661   3.009  21.738   7.780
 1561POPC   C4B23662   2.641  21.715   7.476
 1562POPC   NC323663  14.076   2.428   9.352
 1562POPC   PO423664  14.384   2.816   9.809
 1562POPC   GL123665  14.422   2.817   9.277
 1562POPC   GL223666  14.541   2.534   9.003
 1562POPC   C1A23667  14.270   2.920   8.810
 1562POPC   D2A23668  14.308   2.779   8.379
 1562POPC   C3A23669  14.299   3.101   8.029
 1562POPC   C4A23670  14.397   2.996   7.598
 1562POPC   C1B23671  14.694   2.328   8.608
 1562POPC   C2B23672  14.464   2.326   8.194
 1562POPC   C3B23673  14.382   2.510   7.778
 1562POPC   C4B23674  14.519   2.555   7.345
 1563POPC   NC323675  12.823  19.581   9.522
 1563POPC   PO423676  12.706  20.220   9.693
 1563POPC   GL123677  12.868  19.990   9.241
 1563POPC   GL223678  12.745  19.678   9.050
 1563POPC   C1A23679  12.991  20.012   8.769
 1563POPC   D2A23680  13.152  20.096   8.354
 1563POPC   C3A23681  13.106  19.757   8.082
 1563POPC   C4A23682  12.892  19.709   7.685
 1563POPC   C1B23683  12.521  19.830   8.720
 1563POPC   C2B23684  12.615  19.922   8.305
 1563POPC   C3B23685  12.639  19.524   8.090
 1563POPC   C4B23686  12.719  19.227   7.768
 1564POPC   NC323687  36.685  26.945   9.414
 1564POPC   PO423688  37.261  26.438   9.253
 1564POPC   GL123689  36.988  26.763   9.038
 1564POPC   GL223690  36.593  26.729   8.966
 1564POPC   C1A23691  36.918  26.906   8.604
 1564POPC   D2A23692  37.020  26.713   8.190
 1564POPC   C3A23693  37.254  26.932   7.849
 1564POPC   C4A23694  37.243  26.763   7.394
 1564POPC   C1B23695  36.655  26.463   8.633
 1564POPC   C2B23696  36.545  26.381   8.219
 1564POPC   C3B23697  36.561  26.713   7.981
 1564POPC   C4B23698  36.827  26.716   7.680
 1565POPC   NC323699   8.557  37.300   9.769
 1565POPC   PO423700   8.053  37.436   9.307
 1565POPC   GL123701   8.457  37.537   9.121
 1565POPC   GL223702   8.477  37.932   9.052
 1565POPC   C1A23703   8.467  37.574   8.690
 1565POPC   D2A23704   8.146  37.603   8.400
 1565POPC   C3A23705   8.307  37.614   7.992
 1565POPC   C4A23706   8.055  37.490   7.672
 1565POPC   C1B23707   8.126  38.013   8.790
 1565POPC   C2B23708   7.960  38.090   8.380
 1565POPC   C3B23709   7.850  37.854   8.027
 1565POPC   C4B23710   7.978  38.011   7.641
 1566POPC   NC323711  29.786   4.463   9.442
 1566POPC   PO423712  29.867   3.832   9.586
 1566POPC   GL123713  29.772   4.016   9.201
 1566POPC   GL223714  30.103   4.120   9.120
 1566POPC   C1A23715  29.717   4.269   8.829
 1566POPC   D2A23716  29.693   4.536   8.475
 1566POPC   C3A23717  29.866   4.319   8.144
 1566POPC   C4A23718  29.709   4.143   7.814
 1566POPC   C1B23719  30.200   4.396   8.731
 1566POPC   C2B23720  30.167   4.661   8.358
 1566POPC   C3B23721  30.252   4.583   7.921
 1566POPC   C4B23722  30.195   4.178   7.713
 1567POPC   NC323723  23.528  11.108   9.608
 1567POPC   PO423724  23.769  10.494   9.579
 1567POPC   GL123725  23.664  10.706   9.216
 1567POPC   GL223726  23.284  10.699   9.203
 1567POPC   C1A23727  23.599  10.687   8.773
 1567POPC   D2A23728  23.347  10.557   8.431
 1567POPC   C3A23729  23.443  10.805   8.085
 1567POPC   C4A23730  23.656  10.797   7.703
 1567POPC   C1B23731  23.212  10.332   8.896
 1567POPC   C2B23732  23.012  10.122   8.524
 1567POPC   C3B23733  23.146  10.218   8.109
 1567POPC   C4B23734  23.572  10.282   7.965
 1568POPC   NC323735  20.138  24.387   9.486
 1568POPC   PO423736  19.384  24.677   9.502
 1568POPC   GL123737  19.497  24.495   9.076
 1568POPC   GL223738  19.794  24.519   9.105
 1568POPC   C1A23739  19.564  24.416   8.612
 1568POPC   D2A23740  19.558  24.744   8.342
 1568POPC   C3A23741  19.707  24.686   7.942
 1568POPC   C4A23742  19.777  24.314   7.711
 1568POPC   C1B23743  20.028  24.375   8.777
 1568POPC   C2B23744  20.019  24.527   8.391
 1568POPC   C3B23745  20.174  24.452   8.016
 1568POPC   C4B23746  20.164  24.639   7.605
 1569POPC   NC323747  15.012  42.653   9.717
 1569POPC   PO423748  15.203  42.062   9.458
 1569POPC   GL123749  15.305  42.372   9.171
 1569POPC   GL223750  14.974  42.507   9.207
 1569POPC   C1A23751  15.333  42.397   8.719
 1569POPC   D2A23752  15.317  42.664   8.338
 1569POPC   C3A23753  15.134  42.421   8.012
 1569POPC   C4A23754  15.355  42.251   7.666
 1569POPC   C1B23755  14.908  42.159   8.881
 1569POPC   C2B23756  14.938  42.101   8.448
 1569POPC   C3B23757  14.902  41.942   8.034
 1569POPC   C4B23758  14.836  42.086   7.634
 1570POPC   NC323759  24.837   9.966   9.519
 1570POPC   PO423760  24.203  10.052   9.384
 1570POPC   GL123761  24.517   9.891   9.120
 1570POPC   GL223762  24.568   9.553   9.219
 1570POPC   C1A23763  24.647   9.897   8.702
 1570POPC   D2A23764  24.436  10.069   8.349
 1570POPC   C3A23765  24.492   9.861   7.961
 1570POPC   C4A23766  24.458   9.924   7.520
 1570POPC   C1B23767  24.457   9.434   8.818
 1570POPC   C2B23768  24.405   9.527   8.378
 1570POPC   C3B23769  24.465   9.332   7.952
 1570POPC   C4B23770  24.595   9.440   7.544
 1571POPC   NC323771   3.388  17.169   9.554
 1571POPC   PO423772   2.877  17.643   9.592
 1571POPC   GL123773   2.798  17.545   9.158
 1571POPC   GL223774   2.852  17.194   9.123
 1571POPC   C1A23775   2.728  17.624   8.717
 1571POPC   D2A23776   2.995  17.704   8.336
 1571POPC   C3A23777   2.734  17.685   7.972
 1571POPC   C4A23778   2.564  17.539   7.591
 1571POPC   C1B23779   2.864  17.043   8.723
 1571POPC   C2B23780   2.737  17.253   8.356
 1571POPC   C3B23781   2.548  17.190   7.985
 1571POPC   C4B23782   2.753  17.079   7.626
 1572POPC   NC323783   7.179  11.257   9.132
 1572POPC   PO423784   7.513  11.735   9.503
 1572POPC   GL123785   7.668  11.521   9.129
 1572POPC   GL223786   7.694  11.162   9.181
 1572POPC   C1A23787   7.548  11.515   8.656
 1572POPC   D2A23788   7.146  11.334   8.428
 1572POPC   C3A23789   7.099  11.236   7.963
 1572POPC   C4A23790   7.167  11.393   7.539
 1572POPC   C1B23791   7.680  11.028   8.733
 1572POPC   C2B23792   7.611  11.131   8.287
 1572POPC   C3B23793   7.596  11.377   7.919
 1572POPC   C4B23794   7.871  11.434   7.586
 1573POPC   NC323795   1.104  12.910   9.522
 1573POPC   PO423796   1.778  13.129   9.519
 1573POPC   GL123797   1.548  12.913   9.169
 1573POPC   GL223798   1.643  13.060   8.840
 1573POPC   C1A23799   1.431  12.608   8.833
 1573POPC   D2A23800   1.245  12.563   8.408
 1573POPC   C3A23801   1.411  12.643   8.003
 1573POPC   C4A23802   1.122  12.610   7.654
 1573POPC   C1B23803   1.243  13.079   8.639
 1573POPC   C2B23804   1.083  13.020   8.203
 1573POPC   C3B23805   1.308  13.137   7.851
 1573POPC   C4B23806   1.721  13.053   7.885
 1574POPC   NC323807  20.409  28.515   9.517
 1574POPC   PO423808  20.893  27.978   9.569
 1574POPC   GL123809  20.764  28.292   9.240
 1574POPC   GL223810  20.782  28.701   9.226
 1574POPC   C1A23811  20.530  28.407   8.876
 1574POPC   D2A23812  20.461  28.495   8.464
 1574POPC   C3A23813  20.592  28.337   8.084
 1574POPC   C4A23814  20.525  28.329   7.662
 1574POPC   C1B23815  20.872  28.754   8.784
 1574POPC   C2B23816  20.976  28.549   8.403
 1574POPC   C3B23817  20.946  28.672   7.979
 1574POPC   C4B23818  20.876  28.711   7.558
 1575POPC   NC323819   5.889  22.439   9.503
 1575POPC   PO423820   5.908  23.133   9.492
 1575POPC   GL123821   5.843  22.836   9.174
 1575POPC   GL223822   5.911  23.143   8.984
 1575POPC   C1A23823   5.861  22.692   8.753
 1575POPC   D2A23824   5.781  23.065   8.458
 1575POPC   C3A23825   5.875  23.123   8.009
 1575POPC   C4A23826   5.753  22.825   7.736
 1575POPC   C1B23827   6.253  23.031   8.735
 1575POPC   C2B23828   6.276  23.003   8.309
 1575POPC   C3B23829   6.260  22.756   7.945
 1575POPC   C4B23830   6.223  22.834   7.514
 1576POPC   NC323831  44.061   5.334   9.692
 1576POPC   PO423832  43.825   5.823   9.651
 1576POPC   GL123833  43.825   5.896   9.166
 1576POPC   GL223834  43.520   5.786   8.980
 1576POPC   C1A23835  43.931   5.937   8.696
 1576POPC   D2A23836  43.815   6.054   8.248
 1576POPC   C3A23837  44.037   5.823   7.882
 1576POPC   C4A23838  44.131   5.601   7.453
 1576POPC   C1B23839  43.457   6.122   8.658
 1576POPC   C2B23840  43.415   6.420   8.330
 1576POPC   C3B23841  43.570   6.383   7.908
 1576POPC   C4B23842  43.368   6.313   7.520
 1577POPC   NC323843   7.458  11.305   9.661
 1577POPC   PO423844   8.117  11.386   9.733
 1577POPC   GL123845   8.170  11.399   9.282
 1577POPC   GL223846   8.463  11.548   9.179
 1577POPC   C1A23847   8.092  11.396   8.815
 1577POPC   D2A23848   8.115  11.109   8.438
 1577POPC   C3A23849   8.159  11.241   7.989
 1577POPC   C4A23850   8.131  11.004   7.581
 1577POPC   C1B23851   8.686  11.502   8.785
 1577POPC   C2B23852   8.485  11.470   8.383
 1577POPC   C3B23853   8.647  11.461   7.974
 1577POPC   C4B23854   8.611  11.116   7.729
 1578POPC   NC323855  20.215  27.680   9.675
 1578POPC   PO423856  19.545  27.539   9.577
 1578POPC   GL123857  19.847  27.650   9.301
 1578POPC   GL223858  19.821  27.343   9.130
 1578POPC   C1A23859  19.980  27.790   8.900
 1578POPC   D2A23860  19.864  27.821   8.457
 1578POPC   C3A23861  20.117  27.526   8.195
 1578POPC   C4A23862  20.151  27.500   7.744
 1578POPC   C1B23863  19.683  27.411   8.732
 1578POPC   C2B23864  19.694  27.249   8.323
 1578POPC   C3B23865  19.668  27.298   7.883
 1578POPC   C4B23866  19.555  26.954   7.627
 1579POPC   NC323867   4.960  17.387   9.618
 1579POPC   PO423868   5.338  17.966   9.399
 1579POPC   GL123869   5.071  17.622   9.141
 1579POPC   GL223870   5.015  17.232   9.146
 1579POPC   C1A23871   5.029  17.592   8.688
 1579POPC   D2A23872   4.811  17.700   8.305
 1579POPC   C3A23873   5.136  17.590   8.025
 1579POPC   C4A23874   5.330  17.789   7.703
 1579POPC   C1B23875   4.935  17.075   8.749
 1579POPC   C2B23876   5.081  17.141   8.314
 1579POPC   C3B23877   4.978  17.129   7.857
 1579POPC   C4B23878   5.058  17.084   7.381
 1580POPC   NC323879   2.767  35.383   9.530
 1580POPC   PO423880   3.295  35.142   9.240
 1580POPC   GL123881   2.883  35.243   9.045
 1580POPC   GL223882   2.586  35.019   9.128
 1580POPC   C1A23883   2.709  35.325   8.614
 1580POPC   D2A23884   2.612  35.688   8.328
 1580POPC   C3A23885   2.735  35.583   7.919
 1580POPC   C4A23886   2.912  35.183   7.806
 1580POPC   C1B23887   2.263  35.141   8.789
 1580POPC   C2B23888   2.224  35.277   8.376
 1580POPC   C3B23889   2.463  35.182   8.056
 1580POPC   C4B23890   2.405  35.144   7.622
 1581POPC   NC323891  30.395  44.081   9.432
 1581POPC   PO423892  29.732  44.149   9.562
 1581POPC   GL123893  29.745  43.946   9.165
 1581POPC   GL223894  30.078  43.905   9.074
 1581POPC   C1A23895  29.617  43.918   8.753
 1581POPC   D2A23896  29.819  43.887   8.389
 1581POPC   C3A23897  29.593  43.993   8.098
 1581POPC   C4A23898  29.642  44.014   7.708
 1581POPC   C1B23899  30.057  44.197   8.733
 1581POPC   C2B23900  30.192  44.229   8.312
 1581POPC   C3B23901  30.114  44.020   7.936
 1581POPC   C4B23902  30.107  44.197   7.542
 1582POPC   NC323903  28.669  11.173   9.608
 1582POPC   PO423904  28.259  11.058   9.082
 1582POPC   GL123905  28.401  11.451   8.945
 1582POPC   GL223906  28.657  11.420   9.106
 1582POPC   C1A23907  28.583  11.673   8.604
 1582POPC   D2A23908  28.238  11.643   8.358
 1582POPC   C3A23909  28.371  11.419   8.043
 1582POPC   C4A23910  28.484  11.396   7.660
 1582POPC   C1B23911  28.778  11.195   8.704
 1582POPC   C2B23912  28.532  11.055   8.375
 1582POPC   C3B23913  28.686  10.994   7.972
 1582POPC   C4B23914  28.616  10.918   7.555
 1583POPC   NC323915   0.261  30.417   9.584
 1583POPC   PO423916   0.621  29.864   9.471
 1583POPC   GL123917   0.532  29.967   9.095
 1583POPC   GL223918   0.523  30.326   9.142
 1583POPC   C1A23919   0.579  29.818   8.681
 1583POPC   D2A23920   0.734  29.938   8.296
 1583POPC   C3A23921   0.525  29.834   7.933
 1583POPC   C4A23922   0.801  29.593   7.696
 1583POPC   C1B23923   0.218  30.263   8.799
 1583POPC   C2B23924   0.280  30.207   8.358
 1583POPC   C3B23925   0.590  30.368   8.061
 1583POPC   C4B23926   0.446  30.306   7.659
 1584POPC   NC323927  38.658  31.782   9.234
 1584POPC   PO423928  38.506  32.055   9.758
 1584POPC   GL123929  38.361  32.183   9.288
 1584POPC   GL223930  38.666  32.304   9.112
 1584POPC   C1A23931  38.218  32.388   8.857
 1584POPC   D2A23932  38.409  32.465   8.435
 1584POPC   C3A23933  38.287  32.272   8.047
 1584POPC   C4A23934  38.124  32.478   7.697
 1584POPC   C1B23935  38.583  32.068   8.696
 1584POPC   C2B23936  38.647  31.957   8.280
 1584POPC   C3B23937  38.731  31.998   7.861
 1584POPC   C4B23938  38.803  32.114   7.397
 1585POPC   NC323939  11.048  26.834   9.583
 1585POPC   PO423940  11.551  26.903   9.195
 1585POPC   GL123941  11.121  26.784   9.048
 1585POPC   GL223942  11.061  26.441   9.135
 1585POPC   C1A23943  11.021  26.822   8.602
 1585POPC   D2A23944  11.295  27.057   8.308
 1585POPC   C3A23945  11.289  26.956   7.901
 1585POPC   C4A23946  11.147  26.976   7.497
 1585POPC   C1B23947  11.391  26.424   8.755
 1585POPC   C2B23948  11.529  26.591   8.361
 1585POPC   C3B23949  11.463  26.457   7.935
 1585POPC   C4B23950  11.364  26.522   7.476
 1586POPC   NC323951  32.442  38.720   9.866
 1586POPC   PO423952  32.356  38.144   9.521
 1586POPC   GL123953  32.202  38.269   9.146
 1586POPC   GL223954  32.031  38.574   9.167
 1586POPC   C1A23955  32.462  38.222   8.792
 1586POPC   D2A23956  32.484  38.064   8.378
 1586POPC   C3A23957  32.299  38.234   7.980
 1586POPC   C4A23958  32.375  38.631   7.725
 1586POPC   C1B23959  32.195  38.645   8.777
 1586POPC   C2B23960  32.106  38.459   8.404
 1586POPC   C3B23961  31.971  38.643   8.026
 1586POPC   C4B23962  31.986  39.023   7.824
 1587POPC   NC323963  32.168  11.303   9.510
 1587POPC   PO423964  32.613  11.760   9.243
 1587POPC   GL123965  32.278  11.587   9.121
 1587POPC   GL223966  32.494  11.278   9.105
 1587POPC   C1A23967  32.160  11.446   8.760
 1587POPC   D2A23968  32.364  11.421   8.405
 1587POPC   C3A23969  32.075  11.329   8.135
 1587POPC   C4A23970  32.111  11.426   7.750
 1587POPC   C1B23971  32.444  11.019   8.761
 1587POPC   C2B23972  32.265  10.917   8.406
 1587POPC   C3B23973  32.462  11.021   8.031
 1587POPC   C4B23974  32.646  10.804   7.743
 1588POPC   NC323975  32.491  12.596   9.420
 1588POPC   PO423976  32.344  11.955   9.669
 1588POPC   GL123977  32.260  12.108   9.219
 1588POPC   GL223978  32.081  12.360   9.088
 1588POPC   C1A23979  32.114  11.964   8.775
 1588POPC   D2A23980  31.983  11.787   8.369
 1588POPC   C3A23981  32.215  11.880   7.976
 1588POPC   C4A23982  32.266  12.158   7.588
 1588POPC   C1B23983  32.466  12.332   8.810
 1588POPC   C2B23984  32.518  12.453   8.374
 1588POPC   C3B23985  32.545  12.279   8.013
 1588POPC   C4B23986  32.743  12.369   7.652
 1589POPC   NC323987  43.848  32.569   9.854
 1589POPC   PO423988  43.910  31.893   9.649
 1589POPC   GL123989  43.653  32.051   9.278
 1589POPC   GL223990  43.747  32.381   9.231
 1589POPC   C1A23991  43.605  32.168   8.798
 1589POPC   D2A23992  43.813  32.256   8.390
 1589POPC   C3A23993  43.675  32.048   8.013
 1589POPC   C4A23994  43.744  32.007   7.572
 1589POPC   C1B23995  43.934  32.579   8.830
 1589POPC   C2B23996  44.151  32.633   8.442
 1589POPC   C3B23997  44.219  32.547   8.013
 1589POPC   C4B23998  43.868  32.481   7.766
 1590POPC   NC323999  20.098  33.124   9.672
 1590POPC   PO424000  20.793  33.266   9.547
 1590POPC   GL124001  20.624  33.217   9.164
 1590POPC   GL224002  20.835  33.496   9.085
 1590POPC   C1A24003  20.477  32.918   8.830
 1590POPC   D2A24004  20.382  32.783   8.426
 1590POPC   C3A24005  20.471  32.943   7.991
 1590POPC   C4A24006  20.826  32.789   7.731
 1590POPC   C1B24007  20.809  33.266   8.696
 1590POPC   C2B24008  20.540  33.271   8.386
 1590POPC   C3B24009  20.552  33.504   8.033
 1590POPC   C4B24010  20.696  33.389   7.647
 1591POPC   NC324011  34.090  35.693   9.418
 1591POPC   PO424012  34.170  36.394   9.351
 1591POPC   GL124013  34.009  36.134   9.045
 1591POPC   GL224014  33.706  35.992   9.149
 1591POPC   C1A24015  34.145  36.058   8.627
 1591POPC   D2A24016  34.307  35.955   8.228
 1591POPC   C3A24017  34.121  36.226   7.949
 1591POPC   C4A24018  34.069  36.153   7.541
 1591POPC   C1B24019  33.665  35.869   8.711
 1591POPC   C2B24020  33.739  36.023   8.276
 1591POPC   C3B24021  33.655  36.052   7.836
 1591POPC   C4B24022  33.459  36.078   7.420
 1592POPC   NC324023  16.306  23.214   9.559
 1592POPC   PO424024  15.883  22.771   9.528
 1592POPC   GL124025  16.147  22.828   9.178
 1592POPC   GL224026  16.054  23.140   9.116
 1592POPC   C1A24027  15.900  22.788   8.779
 1592POPC   D2A24028  15.655  22.777   8.388
 1592POPC   C3A24029  15.951  22.691   8.038
 1592POPC   C4A24030  15.874  22.693   7.609
 1592POPC   C1B24031  15.945  23.314   8.718
 1592POPC   C2B24032  16.006  23.142   8.318
 1592POPC   C3B24033  15.947  23.189   7.889
 1592POPC   C4B24034  16.307  23.313   7.767
 1593POPC   NC324035  26.797  21.660   9.458
 1593POPC   PO424036  27.268  21.104   9.492
 1593POPC   GL124037  26.965  20.996   9.172
 1593POPC   GL224038  26.677  21.253   9.157
 1593POPC   C1A24039  26.880  21.062   8.746
 1593POPC   D2A24040  27.053  21.293   8.425
 1593POPC   C3A24041  26.895  21.163   8.026
 1593POPC   C4A24042  26.818  21.504   7.739
 1593POPC   C1B24043  26.805  21.586   8.796
 1593POPC   C2B24044  26.612  21.714   8.382
 1593POPC   C3B24045  26.535  21.855   7.956
 1593POPC   C4B24046  26.322  21.636   7.614
 1594POPC   NC324047   5.522  33.270   9.571
 1594POPC   PO424048   6.157  33.275   9.293
 1594POPC   GL124049   5.910  33.108   9.013
 1594POPC   GL224050   5.653  32.869   9.152
 1594POPC   C1A24051   6.176  33.082   8.648
 1594POPC   D2A24052   6.289  33.435   8.406
 1594POPC   C3A24053   6.110  33.240   8.078
 1594POPC   C4A24054   5.866  33.219   7.723
 1594POPC   C1B24055   5.826  32.695   8.719
 1594POPC   C2B24056   5.893  32.754   8.268
 1594POPC   C3B24057   5.654  32.784   7.889
 1594POPC   C4B24058   5.785  32.761   7.458
 1595POPC   NC324059   7.555  29.313   9.515
 1595POPC   PO424060   7.161  28.859   9.443
 1595POPC   GL124061   7.266  29.200   9.101
 1595POPC   GL224062   7.467  29.551   9.078
 1595POPC   C1A24063   7.489  29.194   8.700
 1595POPC   D2A24064   7.690  28.932   8.381
 1595POPC   C3A24065   7.526  28.975   7.964
 1595POPC   C4A24066   7.398  28.702   7.613
 1595POPC   C1B24067   7.307  29.677   8.672
 1595POPC   C2B24068   7.340  29.446   8.256
 1595POPC   C3B24069   7.493  29.483   7.809
 1595POPC   C4B24070   7.283  29.618   7.398
 1596POPC   NC324071  15.466   2.944   9.438
 1596POPC   PO424072  16.049   2.658   9.651
 1596POPC   GL124073  15.939   2.753   9.225
 1596POPC   GL224074  16.010   3.114   9.140
 1596POPC   C1A24075  15.722   2.748   8.829
 1596POPC   D2A24076  15.629   2.903   8.423
 1596POPC   C3A24077  15.656   2.656   8.059
 1596POPC   C4A24078  15.635   2.878   7.663
 1596POPC   C1B24079  16.210   2.873   8.787
 1596POPC   C2B24080  16.097   2.756   8.374
 1596POPC   C3B24081  16.057   2.931   7.953
 1596POPC   C4B24082  16.077   3.107   7.531
 1597POPC   NC324083  19.720  19.278   9.596
 1597POPC   PO424084  19.720  19.914   9.447
 1597POPC   GL124085  19.851  19.735   9.112
 1597POPC   GL224086  19.677  19.442   9.117
 1597POPC   C1A24087  20.016  19.654   8.719
 1597POPC   D2A24088  20.168  19.494   8.347
 1597POPC   C3A24089  19.929  19.706   8.038
 1597POPC   C4A24090  19.937  19.901   7.630
 1597POPC   C1B24091  19.625  19.249   8.753
 1597POPC   C2B24092  19.649  19.441   8.383
 1597POPC   C3B24093  19.504  19.351   8.021
 1597POPC   C4B24094  19.714  19.444   7.657
 1598POPC   NC324095  17.432  27.858   9.597
 1598POPC   PO424096  17.171  27.196   9.491
 1598POPC   GL124097  17.200  27.393   9.062
 1598POPC   GL224098  17.465  27.671   9.085
 1598POPC   C1A24099  17.399  27.293   8.643
 1598POPC   D2A24100  17.285  27.169   8.203
 1598POPC   C3A24101  17.335  27.345   7.792
 1598POPC   C4A24102  17.460  27.627   7.442
 1598POPC   C1B24103  17.672  27.724   8.662
 1598POPC   C2B24104  17.579  27.650   8.193
 1598POPC   C3B24105  17.669  27.936   7.824
 1598POPC   C4B24106  17.765  28.012   7.368
 1599POPC   NC324107  34.549  37.155   9.512
 1599POPC   PO424108  35.134  37.045   9.559
 1599POPC   GL124109  34.854  36.964   9.159
 1599POPC   GL224110  34.622  36.689   9.119
 1599POPC   C1A24111  34.642  37.119   8.780
 1599POPC   D2A24112  34.781  37.248   8.343
 1599POPC   C3A24113  34.646  36.977   7.987
 1599POPC   C4A24114  34.880  36.989   7.581
 1599POPC   C1B24115  34.518  36.626   8.643
 1599POPC   C2B24116  34.460  36.529   8.190
 1599POPC   C3B24117  34.179  36.742   7.870
 1599POPC   C4B24118  34.363  36.994   7.548
 1600POPC   NC324119   3.995  39.852   9.614
 1600POPC   PO424120   3.482  40.207   9.599
 1600POPC   GL124121   3.529  40.105   9.177
 1600POPC   GL224122   3.806  40.334   9.149
 1600POPC   C1A24123   3.341  39.951   8.766
 1600POPC   D2A24124   3.501  39.834   8.346
 1600POPC   C3A24125   3.315  40.082   7.992
 1600POPC   C4A24126   3.260  40.116   7.557
 1600POPC   C1B24127   3.839  40.082   8.759
 1600POPC   C2B24128   4.002  40.007   8.330
 1600POPC   C3B24129   3.796  39.923   7.920
 1600POPC   C4B24130   3.811  40.030   7.462
 1601POPC   NC324131  36.405  25.298   9.517
 1601POPC   PO424132  35.843  25.596   9.358
 1601POPC   GL124133  36.113  25.341   9.099
 1601POPC   GL224134  36.345  25.632   9.135
 1601POPC   C1A24135  36.334  25.067   8.761
 1601POPC   D2A24136  36.203  24.954   8.324
 1601POPC   C3A24137  36.327  24.858   7.897
 1601POPC   C4A24138  36.337  25.139   7.544
 1601POPC   C1B24139  36.334  25.588   8.710
 1601POPC   C2B24140  36.457  25.415   8.368
 1601POPC   C3B24141  36.322  25.366   7.992
 1601POPC   C4B24142  36.294  25.669   7.679
 1602POPC   NC324143  21.282  15.730   9.802
 1602POPC   PO424144  21.455  15.189   9.570
 1602POPC   GL124145  21.558  15.038   9.118
 1602POPC   GL224146  21.837  14.773   9.071
 1602POPC   C1A24147  21.347  15.145   8.707
 1602POPC   D2A24148  21.031  15.300   8.428
 1602POPC   C3A24149  21.178  15.355   8.034
 1602POPC   C4A24150  21.512  15.289   7.774
 1602POPC   C1B24151  21.736  14.830   8.653
 1602POPC   C2B24152  21.456  14.845   8.279
 1602POPC   C3B24153  21.182  14.861   7.914
 1602POPC   C4B24154  21.005  15.139   7.584
 1603POPC   NC324155  23.486  35.891   9.473
 1603POPC   PO424156  24.025  36.361   9.349
 1603POPC   GL124157  23.738  36.236   9.081
 1603POPC   GL224158  23.402  36.383   9.087
 1603POPC   C1A24159  23.877  36.097   8.708
 1603POPC   D2A24160  23.788  36.212   8.317
 1603POPC   C3A24161  23.950  36.033   7.962
 1603POPC   C4A24162  23.709  36.128   7.614
 1603POPC   C1B24163  23.375  36.165   8.702
 1603POPC   C2B24164  23.496  35.802   8.455
 1603POPC   C3B24165  23.495  35.808   8.008
 1603POPC   C4B24166  23.322  35.813   7.583
 1604POPC   NC324167   4.951  41.835   9.527
 1604POPC   PO424168   4.886  41.097   9.566
 1604POPC   GL124169   4.827  41.395   9.202
 1604POPC   GL224170   5.153  41.531   9.155
 1604POPC   C1A24171   4.792  41.547   8.761
 1604POPC   D2A24172   5.074  41.658   8.410
 1604POPC   C3A24173   4.959  41.600   8.008
 1604POPC   C4A24174   4.867  41.621   7.584
 1604POPC   C1B24175   5.295  41.370   8.769
 1604POPC   C2B24176   5.282  41.173   8.348
 1604POPC   C3B24177   5.310  41.226   7.877
 1604POPC   C4B24178   5.120  41.166   7.464
 1605POPC   NC324179  28.884  19.802   9.408
 1605POPC   PO424180  29.367  20.149   9.401
 1605POPC   GL124181  28.982  20.221   9.092
 1605POPC   GL224182  28.640  20.094   9.038
 1605POPC   C1A24183  28.974  20.114   8.642
 1605POPC   D2A24184  29.249  19.822   8.420
 1605POPC   C3A24185  29.234  19.760   7.987
 1605POPC   C4A24186  29.075  20.060   7.703
 1605POPC   C1B24187  28.617  19.727   8.768
 1605POPC   C2B24188  28.792  19.600   8.355
 1605POPC   C3B24189  28.743  19.671   7.926
 1605POPC   C4B24190  28.825  19.681   7.478
 1606POPC   NC324191  11.488  40.244   9.562
 1606POPC   PO424192  11.088  39.722   9.608
 1606POPC   GL124193  11.259  39.945   9.207
 1606POPC   GL224194  11.641  39.895   9.229
 1606POPC   C1A24195  11.294  39.929   8.727
 1606POPC   D2A24196  11.188  39.631   8.343
 1606POPC   C3A24197  11.260  39.824   7.931
 1606POPC   C4A24198  11.287  40.252   7.951
 1606POPC   C1B24199  11.747  40.156   8.880
 1606POPC   C2B24200  11.869  40.069   8.442
 1606POPC   C3B24201  11.775  39.967   8.017
 1606POPC   C4B24202  11.714  40.205   7.657
 1607POPC   NC324203   5.941  34.792   9.422
 1607POPC   PO424204   5.486  35.245   9.577
 1607POPC   GL124205   5.479  34.873   9.254
 1607POPC   GL224206   5.570  34.494   9.130
 1607POPC   C1A24207   5.645  34.906   8.787
 1607POPC   D2A24208   5.988  34.883   8.451
 1607POPC   C3A24209   5.820  34.742   8.046
 1607POPC   C4A24210   5.451  34.805   7.813
 1607POPC   C1B24211   5.921  34.483   8.796
 1607POPC   C2B24212   6.091  34.362   8.391
 1607POPC   C3B24213   6.264  34.494   7.985
 1607POPC   C4B24214   6.057  34.514   7.591
 1608POPC   NC324215   2.248   6.156   9.387
 1608POPC   PO424216   1.714   5.775   9.612
 1608POPC   GL124217   1.879   5.906   9.148
 1608POPC   GL224218   2.179   5.949   8.930
 1608POPC   C1A24219   1.746   5.795   8.724
 1608POPC   D2A24220   2.051   5.720   8.406
 1608POPC   C3A24221   1.871   5.617   8.015
 1608POPC   C4A24222   2.037   5.746   7.637
 1608POPC   C1B24223   2.445   6.230   8.733
 1608POPC   C2B24224   2.409   6.109   8.297
 1608POPC   C3B24225   2.136   6.091   7.987
 1608POPC   C4B24226   2.107   6.280   7.589
 1609POPC   NC324227   0.166  36.723   9.478
 1609POPC   PO424228  44.626  36.990   9.562
 1609POPC   GL124229  44.595  36.928   9.128
 1609POPC   GL224230  44.575  36.589   9.040
 1609POPC   C1A24231  44.741  36.994   8.712
 1609POPC   D2A24232  44.682  37.204   8.342
 1609POPC   C3A24233  44.425  37.128   7.987
 1609POPC   C4A24234  44.585  36.835   7.733
 1609POPC   C1B24235  44.329  36.714   8.677
 1609POPC   C2B24236  44.521  36.710   8.275
 1609POPC   C3B24237  44.747  36.428   7.997
 1609POPC   C4B24238  44.454  36.339   7.669
 1610POPC   NC324239  39.868  43.809   9.614
 1610POPC   PO424240  40.412  44.264   9.652
 1610POPC   GL124241  40.154  44.073   9.292
 1610POPC   GL224242  40.307  43.759   9.243
 1610POPC   C1A24243  40.125  44.016   8.822
 1610POPC   D2A24244  39.952  44.104   8.366
 1610POPC   C3A24245  40.106  44.024   7.943
 1610POPC   C4A24246  39.972  44.004   7.488
 1610POPC   C1B24247  40.367  43.439   8.910
 1610POPC   C2B24248  40.440  43.383   8.463
 1610POPC   C3B24249  40.383  43.499   8.028
 1610POPC   C4B24250  40.281  43.629   7.628
 1611POPC   NC324251  19.067  21.349   9.537
 1611POPC   PO424252  19.293  20.804   9.283
 1611POPC   GL124253  19.089  21.178   9.048
 1611POPC   GL224254  18.803  21.393   9.116
 1611POPC   C1A24255  18.961  21.319   8.626
 1611POPC   D2A24256  18.793  21.270   8.209
 1611POPC   C3A24257  19.068  21.369   7.870
 1611POPC   C4A24258  19.217  21.191   7.495
 1611POPC   C1B24259  18.871  21.770   8.819
 1611POPC   C2B24260  18.758  21.779   8.358
 1611POPC   C3B24261  18.848  21.839   7.891
 1611POPC   C4B24262  18.809  22.053   7.464
 1612POPC   NC324263  21.040  31.177   9.784
 1612POPC   PO424264  21.336  30.704   9.453
 1612POPC   GL124265  21.443  30.629   9.093
 1612POPC   GL224266  21.738  30.832   9.134
 1612POPC   C1A24267  21.526  30.462   8.711
 1612POPC   D2A24268  21.653  30.620   8.329
 1612POPC   C3A24269  21.304  30.637   8.040
 1612POPC   C4A24270  21.100  30.899   7.736
 1612POPC   C1B24271  21.609  30.981   8.744
 1612POPC   C2B24272  21.771  31.141   8.373
 1612POPC   C3B24273  21.580  31.109   7.998
 1612POPC   C4B24274  21.641  30.821   7.711
 1613POPC   NC324275  15.878  24.105   9.467
 1613POPC   PO424276  16.332  23.644   9.719
 1613POPC   GL124277  15.953  23.594   9.391
 1613POPC   GL224278  16.062  23.637   9.096
 1613POPC   C1A24279  15.599  23.676   9.001
 1613POPC   D2A24280  15.620  23.716   8.518
 1613POPC   C3A24281  15.752  23.862   8.084
 1613POPC   C4A24282  15.643  23.640   7.693
 1613POPC   C1B24283  16.057  23.841   8.730
 1613POPC   C2B24284  16.144  23.658   8.362
 1613POPC   C3B24285  16.325  23.806   8.016
 1613POPC   C4B24286  16.149  23.766   7.628
 1614POPC   NC324287  37.835  44.589   9.622
 1614POPC   PO424288  37.409   0.042   9.454
 1614POPC   GL124289  37.774  44.851   9.194
 1614POPC   GL224290  37.934  44.519   9.136
 1614POPC   C1A24291  37.849  44.853   8.762
 1614POPC   D2A24292  37.603  44.719   8.418
 1614POPC   C3A24293  37.682  44.504   8.042
 1614POPC   C4A24294  37.857  44.711   7.684
 1614POPC   C1B24295  37.604  44.392   8.846
 1614POPC   C2B24296  37.489  44.185   8.466
 1614POPC   C3B24297  37.375  44.040   8.070
 1614POPC   C4B24298  37.487  44.151   7.695
 1615POPC   NC324299  34.712  30.033   9.536
 1615POPC   PO424300  34.773  29.449   9.185
 1615POPC   GL124301  34.617  29.906   9.062
 1615POPC   GL224302  34.798  30.275   9.116
 1615POPC   C1A24303  34.335  30.110   8.787
 1615POPC   D2A24304  34.458  29.993   8.392
 1615POPC   C3A24305  34.281  30.146   8.049
 1615POPC   C4A24306  34.482  29.951   7.720
 1615POPC   C1B24307  34.832  30.254   8.715
 1615POPC   C2B24308  34.761  30.416   8.335
 1615POPC   C3B24309  34.845  30.172   7.987
 1615POPC   C4B24310  34.921  29.724   7.891
 1616POPC   NC324311   5.218  20.281   9.467
 1616POPC   PO424312   4.820  20.797   9.583
 1616POPC   GL124313   4.828  20.527   9.188
 1616POPC   GL224314   5.144  20.597   9.080
 1616POPC   C1A24315   4.882  20.256   8.793
 1616POPC   D2A24316   5.189  20.113   8.476
 1616POPC   C3A24317   5.053  20.286   8.070
 1616POPC   C4A24318   4.968  20.700   7.775
 1616POPC   C1B24319   5.415  20.578   8.748
 1616POPC   C2B24320   5.551  20.799   8.400
 1616POPC   C3B24321   5.421  20.634   8.028
 1616POPC   C4B24322   5.439  20.630   7.606
 1617POPC   NC324323  37.763  15.242   9.630
 1617POPC   PO424324  38.131  15.725   9.422
 1617POPC   GL124325  37.767  15.497   9.169
 1617POPC   GL224326  37.739  15.120   9.133
 1617POPC   C1A24327  37.444  15.371   8.831
 1617POPC   D2A24328  37.265  15.480   8.430
 1617POPC   C3A24329  37.373  15.251   8.045
 1617POPC   C4A24330  37.364  15.164   7.591
 1617POPC   C1B24331  38.044  14.934   8.846
 1617POPC   C2B24332  38.066  15.110   8.432
 1617POPC   C3B24333  37.888  15.193   8.010
 1617POPC   C4B24334  37.853  14.995   7.593
 1618POPC   NC324335  43.157  18.286   9.503
 1618POPC   PO424336  42.890  17.694   9.492
 1618POPC   GL124337  43.008  17.968   9.135
 1618POPC   GL224338  42.809  18.271   9.129
 1618POPC   C1A24339  43.175  18.234   8.777
 1618POPC   D2A24340  43.120  18.510   8.404
 1618POPC   C3A24341  43.308  18.318   8.031
 1618POPC   C4A24342  43.539  18.022   7.747
 1618POPC   C1B24343  42.712  18.457   8.748
 1618POPC   C2B24344  42.646  18.293   8.334
 1618POPC   C3B24345  42.803  18.438   7.973
 1618POPC   C4B24346  42.594  18.758   7.752
 1619POPC   NC324347  28.088   4.935   9.531
 1619POPC   PO424348  28.634   5.311   9.362
 1619POPC   GL124349  28.321   5.106   9.115
 1619POPC   GL224350  27.935   5.182   9.104
 1619POPC   C1A24351  28.298   5.009   8.725
 1619POPC   D2A24352  28.560   4.941   8.350
 1619POPC   C3A24353  28.376   4.875   7.936
 1619POPC   C4A24354  28.614   4.807   7.573
 1619POPC   C1B24355  28.004   5.440   8.745
 1619POPC   C2B24356  28.266   5.386   8.397
 1619POPC   C3B24357  28.425   5.385   8.024
 1619POPC   C4B24358  28.041   5.420   7.842
 1620POPC   NC324359   4.127  43.808   9.735
 1620POPC   PO424360   4.732  44.018   9.409
 1620POPC   GL124361   4.336  43.939   9.211
 1620POPC   GL224362   4.121  44.230   9.315
 1620POPC   C1A24363   4.309  43.715   8.786
 1620POPC   D2A24364   4.605  43.564   8.438
 1620POPC   C3A24365   4.690  43.898   8.118
 1620POPC   C4A24366   4.539  43.807   7.714
 1620POPC   C1B24367   3.997  44.128   8.874
 1620POPC   C2B24368   3.842  43.862   8.508
 1620POPC   C3B24369   3.790  43.889   8.053
 1620POPC   C4B24370   4.073  44.135   7.767
 1621POPC   NC324371  25.827  16.277   9.482
 1621POPC   PO424372  25.374  15.843   9.749
 1621POPC   GL124373  25.465  15.942   9.265
 1621POPC   GL224374  25.379  16.261   9.204
 1621POPC   C1A24375  25.245  15.916   8.873
 1621POPC   D2A24376  25.196  16.058   8.475
 1621POPC   C3A24377  24.957  15.888   8.150
 1621POPC   C4A24378  25.211  15.864   7.787
 1621POPC   C1B24379  25.603  16.283   8.821
 1621POPC   C2B24380  25.511  16.485   8.447
 1621POPC   C3B24381  25.399  16.306   8.058
 1621POPC   C4B24382  25.591  16.301   7.650
 1622POPC   NC324383  27.746  20.949   9.530
 1622POPC   PO424384  27.446  20.310   9.574
 1622POPC   GL124385  27.356  20.374   9.166
 1622POPC   GL224386  27.452  20.741   9.156
 1622POPC   C1A24387  27.569  20.433   8.760
 1622POPC   D2A24388  27.794  20.258   8.404
 1622POPC   C3A24389  27.609  20.443   8.052
 1622POPC   C4A24390  27.767  20.505   7.627
 1622POPC   C1B24391  27.853  20.831   8.894
 1622POPC   C2B24392  27.837  20.798   8.435
 1622POPC   C3B24393  27.801  20.915   7.994
 1622POPC   C4B24394  27.845  21.204   7.666
 1623POPC   NC324395   5.573   5.828   9.679
 1623POPC   PO424396   4.997   5.859   9.255
 1623POPC   GL124397   4.879   5.608   8.943
 1623POPC   GL224398   5.170   5.464   8.852
 1623POPC   C1A24399   4.870   5.653   8.490
 1623POPC   D2A24400   4.931   6.079   8.320
 1623POPC   C3A24401   5.006   6.092   7.903
 1623POPC   C4A24402   4.805   5.718   7.692
 1623POPC   C1B24403   5.303   5.890   8.651
 1623POPC   C2B24404   5.395   5.800   8.280
 1623POPC   C3B24405   5.159   5.604   8.041
 1623POPC   C4B24406   5.340   5.796   7.697
 1624POPC   NC324407  38.761   3.673   9.471
 1624POPC   PO424408  38.223   3.363   9.456
 1624POPC   GL124409  38.305   3.550   9.068
 1624POPC   GL224410  38.673   3.527   8.994
 1624POPC   C1A24411  38.340   3.690   8.636
 1624POPC   D2A24412  38.556   3.713   8.233
 1624POPC   C3A24413  38.278   3.745   7.894
 1624POPC   C4A24414  38.312   3.666   7.443
 1624POPC   C1B24415  38.511   3.222   8.718
 1624POPC   C2B24416  38.340   3.260   8.312
 1624POPC   C3B24417  38.490   3.286   7.874
 1624POPC   C4B24418  38.703   2.999   7.615
 1625POPC   NC324419  12.441   3.566   9.805
 1625POPC   PO424420  13.044   3.379   9.551
 1625POPC   GL124421  12.790   3.433   9.196
 1625POPC   GL224422  12.454   3.593   9.271
 1625POPC   C1A24423  12.800   3.414   8.742
 1625POPC   D2A24424  12.725   3.164   8.373
 1625POPC   C3A24425  12.791   3.387   7.968
 1625POPC   C4A24426  12.735   3.212   7.565
 1625POPC   C1B24427  12.675   3.882   8.987
 1625POPC   C2B24428  12.736   3.942   8.549
 1625POPC   C3B24429  12.816   3.892   8.121
 1625POPC   C4B24430  12.579   3.965   7.780
 1626POPC   NC324431  20.425   7.998   9.531
 1626POPC   PO424432  21.039   8.304   9.560
 1626POPC   GL124433  20.802   8.257   9.169
 1626POPC   GL224434  20.455   8.397   9.187
 1626POPC   C1A24435  20.660   8.105   8.756
 1626POPC   D2A24436  20.404   8.066   8.371
 1626POPC   C3A24437  20.553   8.232   8.003
 1626POPC   C4A24438  20.868   8.103   7.756
 1626POPC   C1B24439  20.189   8.659   8.937
 1626POPC   C2B24440  20.186   8.490   8.541
 1626POPC   C3B24441  20.115   8.522   8.123
 1626POPC   C4B24442  20.220   8.539   7.718
 1627POPC   NC324443  40.977  21.276   9.461
 1627POPC   PO424444  41.619  21.289   9.446
 1627POPC   GL124445  41.601  21.220   9.058
 1627POPC   GL224446  41.267  21.085   9.083
 1627POPC   C1A24447  41.758  21.481   8.754
 1627POPC   D2A24448  41.514  21.651   8.449
 1627POPC   C3A24449  41.694  21.579   8.095
 1627POPC   C4A24450  41.547  21.733   7.728
 1627POPC   C1B24451  41.264  21.259   8.658
 1627POPC   C2B24452  41.181  21.353   8.212
 1627POPC   C3B24453  41.418  21.247   7.853
 1627POPC   C4B24454  41.875  21.098   7.892
 1628POPC   NC324455  31.277  11.115   9.414
 1628POPC   PO424456  31.781  11.552   9.525
 1628POPC   GL124457  31.754  11.381   9.093
 1628POPC   GL224458  31.391  11.392   9.007
 1628POPC   C1A24459  31.681  11.444   8.613
 1628POPC   D2A24460  31.385  11.426   8.301
 1628POPC   C3A24461  31.614  11.429   7.941
 1628POPC   C4A24462  31.722  11.075   7.732
 1628POPC   C1B24463  31.366  11.027   8.723
 1628POPC   C2B24464  31.209  10.932   8.312
 1628POPC   C3B24465  31.216  11.103   7.890
 1628POPC   C4B24466  31.265  10.979   7.457
 1629POPC   NC324467   2.322  23.500   9.244
 1629POPC   PO424468   2.229  22.913   9.501
 1629POPC   GL124469   2.012  22.861   9.120
 1629POPC   GL224470   2.338  22.768   9.001
 1629POPC   C1A24471   1.720  22.991   8.764
 1629POPC   D2A24472   1.566  22.814   8.354
 1629POPC   C3A24473   1.695  23.017   7.960
 1629POPC   C4A24474   1.980  23.323   7.741
 1629POPC   C1B24475   2.175  22.836   8.594
 1629POPC   C2B24476   2.143  23.050   8.206
 1629POPC   C3B24477   2.188  22.867   7.791
 1629POPC   C4B24478   2.324  23.102   7.432
 1630POPC   NC324479  13.382  25.943   9.511
 1630POPC   PO424480  14.042  26.010   9.430
 1630POPC   GL124481  13.750  26.023   9.092
 1630POPC   GL224482  13.515  25.753   9.049
 1630POPC   C1A24483  13.755  25.951   8.642
 1630POPC   D2A24484  13.964  25.993   8.260
 1630POPC   C3A24485  13.667  26.132   7.958
 1630POPC   C4A24486  13.277  26.297   7.791
 1630POPC   C1B24487  13.426  25.551   8.639
 1630POPC   C2B24488  13.465  25.742   8.236
 1630POPC   C3B24489  13.317  25.769   7.808
 1630POPC   C4B24490  13.102  25.697   7.394
 1631POPC   NC324491  33.006  44.081   9.522
 1631POPC   PO424492  32.692  43.525   9.645
 1631POPC   GL124493  32.770  43.702   9.216
 1631POPC   GL224494  33.113  43.866   9.073
 1631POPC   C1A24495  32.801  43.611   8.770
 1631POPC   D2A24496  32.997  43.989   8.555
 1631POPC   C3A24497  32.887  44.163   8.157
 1631POPC   C4A24498  33.051  43.992   7.795
 1631POPC   C1B24499  33.436  44.097   8.790
 1631POPC   C2B24500  33.688  44.122   8.445
 1631POPC   C3B24501  33.482  44.026   8.085
 1631POPC   C4B24502  33.589  43.959   7.686
 1632POPC   NC324503  22.896  44.299   9.575
 1632POPC   PO424504  23.445  43.810   9.510
 1632POPC   GL124505  23.196  43.709   9.155
 1632POPC   GL224506  22.971  43.970   9.154
 1632POPC   C1A24507  22.928  43.631   8.783
 1632POPC   D2A24508  22.782  43.784   8.407
 1632POPC   C3A24509  23.026  44.084   8.180
 1632POPC   C4A24510  22.987  43.803   7.866
 1632POPC   C1B24511  22.928  44.153   8.737
 1632POPC   C2B24512  22.586  44.248   8.415
 1632POPC   C3B24513  22.530  44.053   8.013
 1632POPC   C4B24514  22.716  44.199   7.652
 1633POPC   NC324515  30.813  41.564   9.467
 1633POPC   PO424516  30.514  41.012   9.508
 1633POPC   GL124517  30.560  41.243   9.072
 1633POPC   GL224518  30.583  41.632   9.029
 1633POPC   C1A24519  30.590  41.339   8.608
 1633POPC   D2A24520  30.378  41.654   8.352
 1633POPC   C3A24521  30.485  41.591   7.926
 1633POPC   C4A24522  30.896  41.401   7.773
 1633POPC   C1B24523  30.795  41.819   8.683
 1633POPC   C2B24524  30.908  41.682   8.271
 1633POPC   C3B24525  30.888  41.912   7.887
 1633POPC   C4B24526  30.596  41.963   7.554
 1634POPC   NC324527   0.867  31.059   9.748
 1634POPC   PO424528   1.231  31.465   9.286
 1634POPC   GL124529   1.344  31.580   8.939
 1634POPC   GL224530   1.533  31.831   9.038
 1634POPC   C1A24531   1.218  31.616   8.536
 1634POPC   D2A24532   1.005  31.317   8.299
 1634POPC   C3A24533   1.219  31.221   7.948
 1634POPC   C4A24534   0.894  31.368   7.712
 1634POPC   C1B24535   1.721  31.731   8.623
 1634POPC   C2B24536   1.580  31.775   8.169
 1634POPC   C3B24537   1.399  31.718   7.739
 1634POPC   C4B24538   1.471  31.885   7.303
 1635POPC   NC324539  13.605  28.441   9.655
 1635POPC   PO424540  13.945  27.875   9.531
 1635POPC   GL124541  13.628  28.178   9.222
 1635POPC   GL224542  13.381  28.498   9.193
 1635POPC   C1A24543  13.731  28.477   8.823
 1635POPC   D2A24544  13.789  28.658   8.392
 1635POPC   C3A24545  13.732  28.409   8.018
 1635POPC   C4A24546  14.047  28.202   7.786
 1635POPC   C1B24547  13.240  28.342   8.803
 1635POPC   C2B24548  13.293  28.519   8.417
 1635POPC   C3B24549  13.158  28.519   8.031
 1635POPC   C4B24550  13.309  28.304   7.717
 1636POPC   NC324551   6.455  31.464   9.503
 1636POPC   PO424552   7.053  31.700   9.360
 1636POPC   GL124553   6.878  31.369   9.058
 1636POPC   GL224554   6.531  31.313   9.032
 1636POPC   C1A24555   6.785  31.373   8.594
 1636POPC   D2A24556   6.415  31.223   8.353
 1636POPC   C3A24557   6.536  31.225   7.912
 1636POPC   C4A24558   6.899  31.372   7.735
 1636POPC   C1B24559   6.582  31.757   8.894
 1636POPC   C2B24560   6.425  31.841   8.490
 1636POPC   C3B24561   6.611  31.678   8.149
 1636POPC   C4B24562   6.586  31.852   7.777
 1637POPC   NC324563  14.382   6.498   9.635
 1637POPC   PO424564  14.320   7.098   9.580
 1637POPC   GL124565  14.556   6.804   9.225
 1637POPC   GL224566  14.450   6.407   9.149
 1637POPC   C1A24567  14.730   6.949   8.794
 1637POPC   D2A24568  14.891   7.046   8.359
 1637POPC   C3A24569  14.624   6.949   7.985
 1637POPC   C4A24570  14.528   6.941   7.538
 1637POPC   C1B24571  14.628   6.448   8.785
 1637POPC   C2B24572  14.543   6.646   8.387
 1637POPC   C3B24573  14.401   6.478   7.978
 1637POPC   C4B24574  14.440   6.392   7.544
 1638POPC   NC324575  43.831  43.645   9.856
 1638POPC   PO424576  43.623  44.088   9.439
 1638POPC   GL124577  43.844  43.841   9.167
 1638POPC   GL224578  44.124  44.038   9.167
 1638POPC   C1A24579  43.943  43.905   8.711
 1638POPC   D2A24580  44.185  43.645   8.401
 1638POPC   C3A24581  44.037  43.635   7.979
 1638POPC   C4A24582  43.633  43.759   7.799
 1638POPC   C1B24583  44.218  44.376   8.876
 1638POPC   C2B24584  44.263  44.302   8.472
 1638POPC   C3B24585  43.985  44.096   8.205
 1638POPC   C4B24586  43.870  44.207   7.806
 1639POPC   NC324587  27.409  11.756   9.765
 1639POPC   PO424588  28.026  11.834   9.485
 1639POPC   GL124589  27.932  12.143   9.196
 1639POPC   GL224590  27.602  12.065   9.163
 1639POPC   C1A24591  27.847  12.275   8.778
 1639POPC   D2A24592  27.655  12.205   8.397
 1639POPC   C3A24593  27.908  12.144   8.007
 1639POPC   C4A24594  27.779  11.916   7.608
 1639POPC   C1B24595  27.359  11.960   8.793
 1639POPC   C2B24596  27.239  11.909   8.359
 1639POPC   C3B24597  27.399  11.995   7.966
 1639POPC   C4B24598  27.197  11.841   7.629
 1640POPC   NC324599   8.765  31.939   9.481
 1640POPC   PO424600   9.075  32.587   9.518
 1640POPC   GL124601   9.111  32.255   9.202
 1640POPC   GL224602   8.779  32.312   9.093
 1640POPC   C1A24603   9.118  32.139   8.756
 1640POPC   D2A24604   8.805  32.359   8.510
 1640POPC   C3A24605   8.887  32.460   8.073
 1640POPC   C4A24606   9.031  32.206   7.736
 1640POPC   C1B24607   8.620  31.977   8.808
 1640POPC   C2B24608   8.714  31.872   8.373
 1640POPC   C3B24609   8.622  32.033   7.976
 1640POPC   C4B24610   8.623  31.996   7.525
 1641POPC   NC324611  14.179  30.740   9.813
 1641POPC   PO424612  14.624  30.305   9.713
 1641POPC   GL124613  14.624  30.604   9.277
 1641POPC   GL224614  14.824  30.443   9.007
 1641POPC   C1A24615  14.590  30.858   8.845
 1641POPC   D2A24616  14.708  30.690   8.406
 1641POPC   C3A24617  14.558  30.769   7.934
 1641POPC   C4A24618  14.489  30.607   7.490
 1641POPC   C1B24619  14.396  30.389   8.815
 1641POPC   C2B24620  14.027  30.437   8.580
 1641POPC   C3B24621  14.184  30.469   8.171
 1641POPC   C4B24622  14.085  30.650   7.790
 1642POPC   NC324623  17.646  25.550   9.526
 1642POPC   PO424624  17.649  24.874   9.558
 1642POPC   GL124625  17.526  25.166   9.193
 1642POPC   GL224626  17.315  25.517   9.145
 1642POPC   C1A24627  17.405  25.182   8.767
 1642POPC   D2A24628  17.570  25.333   8.385
 1642POPC   C3A24629  17.394  25.180   8.030
 1642POPC   C4A24630  17.476  25.148   7.642
 1642POPC   C1B24631  17.107  25.582   8.743
 1642POPC   C2B24632  17.045  25.445   8.305
 1642POPC   C3B24633  17.011  25.428   7.822
 1642POPC   C4B24634  17.136  25.466   7.405
 1643POPC   NC324635  15.667   7.460   9.549
 1643POPC   PO424636  16.258   7.124   9.518
 1643POPC   GL124637  16.073   7.292   9.159
 1643POPC   GL224638  15.923   7.593   9.137
 1643POPC   C1A24639  16.005   7.339   8.706
 1643POPC   D2A24640  15.769   7.188   8.388
 1643POPC   C3A24641  15.945   7.244   8.015
 1643POPC   C4A24642  15.989   7.171   7.579
 1643POPC   C1B24643  15.873   7.833   8.741
 1643POPC   C2B24644  15.834   7.703   8.305
 1643POPC   C3B24645  16.083   7.741   7.918
 1643POPC   C4B24646  16.013   7.783   7.463
 1644POPC   NC324647   3.832   8.023   9.504
 1644POPC   PO424648   3.396   8.445   9.227
 1644POPC   GL124649   3.779   8.293   9.054
 1644POPC   GL224650   3.679   7.974   9.029
 1644POPC   C1A24651   3.773   8.182   8.602
 1644POPC   D2A24652   3.360   8.248   8.443
 1644POPC   C3A24653   3.385   8.315   7.995
 1644POPC   C4A24654   3.795   8.297   7.812
 1644POPC   C1B24655   3.524   7.744   8.614
 1644POPC   C2B24656   3.571   7.852   8.200
 1644POPC   C3B24657   3.573   7.815   7.787
 1644POPC   C4B24658   3.634   7.552   7.428
 1645POPC   NC324659   2.413  16.556   9.483
 1645POPC   PO424660   1.771  16.756   9.473
 1645POPC   GL124661   1.875  16.606   9.098
 1645POPC   GL224662   2.082  16.341   9.179
 1645POPC   C1A24663   2.109  16.737   8.753
 1645POPC   D2A24664   2.059  17.006   8.406
 1645POPC   C3A24665   1.724  16.970   8.152
 1645POPC   C4A24666   1.923  16.836   7.788
 1645POPC   C1B24667   2.013  16.216   8.775
 1645POPC   C2B24668   2.275  16.338   8.448
 1645POPC   C3B24669   2.203  16.530   8.097
 1645POPC   C4B24670   2.090  16.334   7.728
 1646POPC   NC324671  36.161  37.286   9.360
 1646POPC   PO424672  36.389  36.645   9.326
 1646POPC   GL124673  36.084  36.848   9.097
 1646POPC   GL224674  35.802  36.618   9.183
 1646POPC   C1A24675  36.004  37.076   8.699
 1646POPC   D2A24676  35.833  37.004   8.278
 1646POPC   C3A24677  35.944  37.295   7.944
 1646POPC   C4A24678  35.918  37.131   7.535
 1646POPC   C1B24679  36.021  36.465   8.785
 1646POPC   C2B24680  36.147  36.394   8.360
 1646POPC   C3B24681  36.067  36.602   7.978
 1646POPC   C4B24682  36.326  36.597   7.627
 1647POPC   NC324683  38.416  40.466   9.418
 1647POPC   PO424684  38.647  41.137   9.507
 1647POPC   GL124685  38.342  40.932   9.182
 1647POPC   GL224686  38.169  40.617   9.007
 1647POPC   C1A24687  38.202  41.068   8.783
 1647POPC   D2A24688  38.056  40.911   8.403
 1647POPC   C3A24689  38.360  40.733   8.147
 1647POPC   C4A24690  38.439  40.862   7.759
 1647POPC   C1B24691  38.444  40.624   8.670
 1647POPC   C2B24692  38.808  40.636   8.405
 1647POPC   C3B24693  38.781  40.370   8.044
 1647POPC   C4B24694  38.434  40.333   7.772
 1648POPC   NC324695  14.964  20.380   9.634
 1648POPC   PO424696  14.406  20.725   9.521
 1648POPC   GL124697  14.576  20.616   9.166
 1648POPC   GL224698  14.555  20.944   9.044
 1648POPC   C1A24699  14.430  20.577   8.729
 1648POPC   D2A24700  14.540  20.728   8.325
 1648POPC   C3A24701  14.493  20.478   7.951
 1648POPC   C4A24702  14.141  20.568   7.676
 1648POPC   C1B24703  14.790  21.007   8.701
 1648POPC   C2B24704  14.969  21.017   8.301
 1648POPC   C3B24705  14.825  20.883   7.910
 1648POPC   C4B24706  14.617  20.746   7.541
 1649POPC   NC324707   3.094  36.327   9.496
 1649POPC   PO424708   2.707  35.810   9.697
 1649POPC   GL124709   2.864  35.882   9.252
 1649POPC   GL224710   3.103  36.134   9.039
 1649POPC   C1A24711   2.880  35.765   8.802
 1649POPC   D2A24712   3.104  36.043   8.504
 1649POPC   C3A24713   2.941  36.053   8.087
 1649POPC   C4A24714   2.489  36.038   7.914
 1649POPC   C1B24715   2.723  36.257   8.776
 1649POPC   C2B24716   2.592  36.301   8.353
 1649POPC   C3B24717   2.689  36.509   7.905
 1649POPC   C4B24718   2.545  36.442   7.423
 1650POPC   NC324719   7.196   0.909   9.527
 1650POPC   PO424720   7.612   1.367   9.525
 1650POPC   GL124721   7.377   1.236   9.153
 1650POPC   GL224722   7.482   0.927   9.102
 1650POPC   C1A24723   7.241   1.437   8.774
 1650POPC   D2A24724   7.324   1.290   8.387
 1650POPC   C3A24725   7.247   1.488   8.006
 1650POPC   C4A24726   7.332   1.353   7.637
 1650POPC   C1B24727   7.500   0.870   8.678
 1650POPC   C2B24728   7.709   0.722   8.331
 1650POPC   C3B24729   7.534   0.645   7.950
 1650POPC   C4B24730   7.587   0.924   7.610
 1651POPC   NC324731  28.744  33.464   9.583
 1651POPC   PO424732  28.276  32.890   9.521
 1651POPC   GL124733  28.508  32.796   9.187
 1651POPC   GL224734  28.704  33.091   9.230
 1651POPC   C1A24735  28.347  32.881   8.786
 1651POPC   D2A24736  28.484  32.770   8.395
 1651POPC   C3A24737  28.231  32.899   8.031
 1651POPC   C4A24738  28.355  33.076   7.605
 1651POPC   C1B24739  28.828  33.057   8.816
 1651POPC   C2B24740  28.822  33.183   8.395
 1651POPC   C3B24741  28.725  33.036   7.981
 1651POPC   C4B24742  28.890  32.975   7.554
 1652POPC   NC324743  22.917  36.711   9.532
 1652POPC   PO424744  22.436  37.203   9.363
 1652POPC   GL124745  22.830  37.030   9.149
 1652POPC   GL224746  23.203  36.930   9.189
 1652POPC   C1A24747  22.944  36.739   8.787
 1652POPC   D2A24748  22.740  36.959   8.457
 1652POPC   C3A24749  22.699  36.902   8.020
 1652POPC   C4A24750  22.966  36.810   7.680
 1652POPC   C1B24751  23.188  37.171   8.825
 1652POPC   C2B24752  23.336  37.131   8.415
 1652POPC   C3B24753  23.168  37.165   7.998
 1652POPC   C4B24754  23.208  37.262   7.542
 1653POPC   NC324755  26.190   4.214   9.572
 1653POPC   PO424756  26.224   3.736   9.255
 1653POPC   GL124757  26.394   4.140   9.068
 1653POPC   GL224758  26.469   4.493   9.173
 1653POPC   C1A24759  26.324   4.304   8.648
 1653POPC   D2A24760  25.980   4.389   8.336
 1653POPC   C3A24761  26.018   4.219   7.909
 1653POPC   C4A24762  26.372   4.086   7.690
 1653POPC   C1B24763  26.526   4.748   8.790
 1653POPC   C2B24764  26.354   4.759   8.357
 1653POPC   C3B24765  26.081   4.740   7.970
 1653POPC   C4B24766  26.151   4.585   7.569
 1654POPC   NC324767  12.021  41.404   9.594
 1654POPC   PO424768  12.295  41.916   9.463
 1654POPC   GL124769  12.150  41.663   9.151
 1654POPC   GL224770  11.809  41.700   9.118
 1654POPC   C1A24771  12.069  41.577   8.723
 1654POPC   D2A24772  12.114  41.300   8.481
 1654POPC   C3A24773  12.151  41.463   8.092
 1654POPC   C4A24774  12.273  41.347   7.708
 1654POPC   C1B24775  11.780  42.007   8.805
 1654POPC   C2B24776  11.893  41.923   8.390
 1654POPC   C3B24777  11.728  42.002   7.973
 1654POPC   C4B24778  11.821  41.662   7.688
 1655POPC   NC324779  22.400  18.981   9.834
 1655POPC   PO424780  21.964  19.435   9.510
 1655POPC   GL124781  22.234  19.135   9.296
 1655POPC   GL224782  21.968  19.154   9.049
 1655POPC   C1A24783  22.394  18.894   8.910
 1655POPC   D2A24784  22.219  18.804   8.481
 1655POPC   C3A24785  22.386  18.947   8.057
 1655POPC   C4A24786  22.459  19.244   7.696
 1655POPC   C1B24787  21.868  18.754   8.862
 1655POPC   C2B24788  21.696  18.681   8.472
 1655POPC   C3B24789  21.866  18.837   8.108
 1655POPC   C4B24790  21.983  19.011   7.716
 1656POPC   NC324791   7.538  35.010   9.473
 1656POPC   PO424792   7.121  35.467   9.683
 1656POPC   GL124793   7.379  35.457   9.271
 1656POPC   GL224794   7.206  35.169   9.112
 1656POPC   C1A24795   7.621  35.595   8.882
 1656POPC   D2A24796   7.585  35.802   8.471
 1656POPC   C3A24797   7.531  35.599   8.060
 1656POPC   C4A24798   7.194  35.474   7.797
 1656POPC   C1B24799   7.327  35.203   8.690
 1656POPC   C2B24800   7.155  35.289   8.284
 1656POPC   C3B24801   7.189  34.984   7.944
 1656POPC   C4B24802   7.210  35.054   7.502
 1657POPC   NC324803  27.973  34.795   9.492
 1657POPC   PO424804  27.888  34.127   9.590
 1657POPC   GL124805  27.820  34.259   9.189
 1657POPC   GL224806  27.657  34.561   9.185
 1657POPC   C1A24807  27.856  34.290   8.747
 1657POPC   D2A24808  28.094  34.405   8.387
 1657POPC   C3A24809  27.840  34.361   8.037
 1657POPC   C4A24810  27.893  34.500   7.621
 1657POPC   C1B24811  27.384  34.558   8.867
 1657POPC   C2B24812  27.446  34.486   8.458
 1657POPC   C3B24813  27.346  34.511   8.058
 1657POPC   C4B24814  27.409  34.701   7.678
 1658POPC   NC324815  28.156   2.543   9.537
 1658POPC   PO424816  28.645   3.035   9.423
 1658POPC   GL124817  28.325   2.875   9.184
 1658POPC   GL224818  28.463   2.544   9.133
 1658POPC   C1A24819  28.248   2.833   8.764
 1658POPC   D2A24820  28.251   3.115   8.452
 1658POPC   C3A24821  28.268   2.956   8.075
 1658POPC   C4A24822  28.291   2.697   7.724
 1658POPC   C1B24823  28.716   2.653   8.804
 1658POPC   C2B24824  28.618   2.751   8.408
 1658POPC   C3B24825  28.588   2.508   8.084
 1658POPC   C4B24826  28.641   2.317   7.692
 1659POPC   NC324827  14.403  14.040   9.575
 1659POPC   PO424828  14.548  14.660   9.450
 1659POPC   GL124829  14.295  14.532   9.058
 1659POPC   GL224830  14.135  14.219   9.107
 1659POPC   C1A24831  14.195  14.539   8.605
 1659POPC   D2A24832  14.021  14.566   8.210
 1659POPC   C3A24833  14.260  14.576   7.875
 1659POPC   C4A24834  14.607  14.304   7.835
 1659POPC   C1B24835  14.446  14.132   8.769
 1659POPC   C2B24836  14.356  14.125   8.317
 1659POPC   C3B24837  14.135  14.097   7.938
 1659POPC   C4B24838  14.193  14.130   7.485
 1660POPC   NC324839  36.842  10.963   9.949
 1660POPC   PO424840  37.242  10.658   9.587
 1660POPC   GL124841  36.963  10.701   9.236
 1660POPC   GL224842  37.231  10.820   9.069
 1660POPC   C1A24843  36.742  10.704   8.807
 1660POPC   D2A24844  36.557  10.658   8.380
 1660POPC   C3A24845  36.707  10.333   8.080
 1660POPC   C4A24846  36.913  10.167   7.673
 1660POPC   C1B24847  37.187  10.897   8.661
 1660POPC   C2B24848  37.055  10.758   8.274
 1660POPC   C3B24849  37.129  10.586   7.866
 1660POPC   C4B24850  37.015  10.630   7.433
 1661POPC   NC324851  41.263  38.068   9.679
 1661POPC   PO424852  41.639  37.528   9.491
 1661POPC   GL124853  41.597  37.701   9.141
 1661POPC   GL224854  41.313  37.876   9.181
 1661POPC   C1A24855  41.699  37.633   8.725
 1661POPC   D2A24856  41.704  37.476   8.307
 1661POPC   C3A24857  41.761  37.817   7.993
 1661POPC   C4A24858  41.730  37.884   7.562
 1661POPC   C1B24859  41.195  37.599   8.826
 1661POPC   C2B24860  41.195  37.439   8.405
 1661POPC   C3B24861  41.298  37.607   7.994
 1661POPC   C4B24862  41.535  37.428   7.676
 1662POPC   NC324863   3.094  32.748   9.370
 1662POPC   PO424864   3.642  33.140   9.586
 1662POPC   GL124865   3.488  33.005   9.173
 1662POPC   GL224866   3.235  33.175   9.127
 1662POPC   C1A24867   3.607  32.904   8.734
 1662POPC   D2A24868   3.653  33.019   8.308
 1662POPC   C3A24869   3.763  32.747   7.979
 1662POPC   C4A24870   3.603  32.597   7.586
 1662POPC   C1B24871   3.112  32.952   8.764
 1662POPC   C2B24872   3.170  32.793   8.372
 1662POPC   C3B24873   3.298  32.938   7.952
 1662POPC   C4B24874   3.290  33.209   7.625
 1663POPC   NC324875  27.670  29.279   9.426
 1663POPC   PO424876  27.388  28.755   9.585
 1663POPC   GL124877  27.484  28.945   9.103
 1663POPC   GL224878  27.828  28.972   9.049
 1663POPC   C1A24879  27.612  29.338   8.792
 1663POPC   D2A24880  27.616  29.496   8.400
 1663POPC   C3A24881  27.689  29.183   8.100
 1663POPC   C4A24882  27.653  29.222   7.677
 1663POPC   C1B24883  27.708  28.866   8.628
 1663POPC   C2B24884  27.672  28.637   8.258
 1663POPC   C3B24885  27.685  28.693   7.822
 1663POPC   C4B24886  27.919  28.716   7.446
 1664POPC   NC324887  33.549  26.628   9.450
 1664POPC   PO424888  33.498  27.304   9.525
 1664POPC   GL124889  33.663  27.040   9.151
 1664POPC   GL224890  33.939  26.731   9.141
 1664POPC   C1A24891  33.691  26.873   8.721
 1664POPC   D2A24892  33.926  27.067   8.372
 1664POPC   C3A24893  33.754  27.151   7.974
 1664POPC   C4A24894  33.579  26.818   7.790
 1664POPC   C1B24895  34.181  26.755   8.763
 1664POPC   C2B24896  34.204  26.626   8.341
 1664POPC   C3B24897  34.105  26.776   7.937
 1664POPC   C4B24898  33.978  26.650   7.552
 1665POPC   NC324899  26.716  34.385   9.677
 1665POPC   PO424900  26.765  34.986   9.440
 1665POPC   GL124901  26.861  34.750   9.122
 1665POPC   GL224902  26.675  34.448   9.185
 1665POPC   C1A24903  26.966  34.817   8.708
 1665POPC   D2A24904  26.897  34.574   8.357
 1665POPC   C3A24905  26.902  34.707   7.934
 1665POPC   C4A24906  26.664  34.715   7.551
 1665POPC   C1B24907  26.893  34.306   8.826
 1665POPC   C2B24908  27.034  34.105   8.452
 1665POPC   C3B24909  26.938  34.197   8.020
 1665POPC   C4B24910  27.043  34.361   7.606
 1666POPC   NC324911   0.340   4.329   9.663
 1666POPC   PO424912  44.665   4.325   9.575
 1666POPC   GL124913  44.660   4.354   9.151
 1666POPC   GL224914  44.903   4.632   9.099
 1666POPC   C1A24915  44.438   4.228   8.789
 1666POPC   D2A24916  44.609   4.330   8.386
 1666POPC   C3A24917  44.423   4.494   8.014
 1666POPC   C4A24918  44.435   4.372   7.587
 1666POPC   C1B24919   0.017   4.439   8.705
 1666POPC   C2B24920   0.085   4.497   8.264
 1666POPC   C3B24921   0.024   4.392   7.853
 1666POPC   C4B24922   0.011   4.247   7.455
 1667POPC   NC324923  40.070  36.712   9.528
 1667POPC   PO424924  39.492  37.003   9.580
 1667POPC   GL124925  39.696  36.905   9.218
 1667POPC   GL224926  40.037  37.056   9.124
 1667POPC   C1A24927  39.651  36.799   8.817
 1667POPC   D2A24928  39.975  36.900   8.529
 1667POPC   C3A24929  39.828  36.956   8.123
 1667POPC   C4A24930  39.851  36.780   7.732
 1667POPC   C1B24931  40.250  36.674   8.915
 1667POPC   C2B24932  40.437  36.551   8.530
 1667POPC   C3B24933  40.385  36.748   8.132
 1667POPC   C4B24934  40.338  36.680   7.728
 1668POPC   NC324935  26.619  31.673   9.775
 1668POPC   PO424936  26.017  31.500   9.527
 1668POPC   GL124937  26.032  31.299   9.143
 1668POPC   GL224938  25.700  31.113   9.229
 1668POPC   C1A24939  26.180  31.444   8.720
 1668POPC   D2A24940  26.292  31.236   8.336
 1668POPC   C3A24941  26.083  31.387   8.006
 1668POPC   C4A24942  25.925  31.647   7.673
 1668POPC   C1B24943  25.690  31.275   8.797
 1668POPC   C2B24944  25.764  31.449   8.408
 1668POPC   C3B24945  25.585  31.369   8.005
 1668POPC   C4B24946  25.753  31.169   7.668
 1669POPC   NC324947  40.382   3.766   9.584
 1669POPC   PO424948  39.792   3.545   9.602
 1669POPC   GL124949  40.030   3.484   9.237
 1669POPC   GL224950  40.356   3.588   9.120
 1669POPC   C1A24951  39.932   3.471   8.788
 1669POPC   D2A24952  39.864   3.170   8.469
 1669POPC   C3A24953  39.645   3.284   8.054
 1669POPC   C4A24954  39.713   3.279   7.616
 1669POPC   C1B24955  40.277   3.869   8.750
 1669POPC   C2B24956  40.196   3.926   8.301
 1669POPC   C3B24957  39.947   3.688   7.977
 1669POPC   C4B24958  39.886   3.740   7.524
 1670POPC   NC324959  42.081  21.675   9.452
 1670POPC   PO424960  42.568  21.304   9.748
 1670POPC   GL124961  42.347  21.196   9.358
 1670POPC   GL224962  42.638  21.212   9.183
 1670POPC   C1A24963  42.189  21.149   8.898
 1670POPC   D2A24964  42.051  21.201   8.418
 1670POPC   C3A24965  42.207  21.506   8.089
 1670POPC   C4A24966  42.026  21.546   7.685
 1670POPC   C1B24967  42.747  20.949   8.819
 1670POPC   C2B24968  42.660  20.795   8.403
 1670POPC   C3B24969  42.495  21.076   8.096
 1670POPC   C4B24970  42.722  21.464   7.947
 1671POPC   NC324971  21.226   7.869   9.415
 1671POPC   PO424972  21.574   7.261   9.332
 1671POPC   GL124973  21.300   7.465   9.070
 1671POPC   GL224974  21.383   7.792   8.935
 1671POPC   C1A24975  21.219   7.235   8.703
 1671POPC   D2A24976  21.089   7.299   8.284
 1671POPC   C3A24977  21.474   7.411   8.094
 1671POPC   C4A24978  21.796   7.270   7.803
 1671POPC   C1B24979  20.975   7.680   8.704
 1671POPC   C2B24980  20.810   7.732   8.273
 1671POPC   C3B24981  21.006   7.628   7.855
 1671POPC   C4B24982  21.414   7.626   7.628
 1672POPC   NC324983  43.523   2.642   9.463
 1672POPC   PO424984  44.251   2.780   9.452
 1672POPC   GL124985  43.953   2.675   9.100
 1672POPC   GL224986  43.687   2.420   9.020
 1672POPC   C1A24987  44.079   2.543   8.671
 1672POPC   D2A24988  44.274   2.697   8.264
 1672POPC   C3A24989  43.919   2.791   7.968
 1672POPC   C4A24990  43.555   2.928   7.702
 1672POPC   C1B24991  43.495   2.289   8.623
 1672POPC   C2B24992  43.606   2.464   8.243
 1672POPC   C3B24993  43.534   2.402   7.820
 1672POPC   C4B24994  43.463   2.503   7.395
 1673POPC   NC324995  39.895  38.684   9.563
 1673POPC   PO424996  40.384  38.523   9.163
 1673POPC   GL124997  40.087  38.239   9.124
 1673POPC   GL224998  39.805  38.455   9.086
 1673POPC   C1A24999  40.140  38.030   8.773
 1673POPC   D2A25000  40.306  38.238   8.418
 1673POPC   C3A25001  40.137  38.306   8.018
 1673POPC   C4A25002  40.136  38.457   7.610
 1673POPC   C1B25003  39.938  38.493   8.675
 1673POPC   C2B25004  39.764  38.539   8.286
 1673POPC   C3B25005  39.687  38.496   7.866
 1673POPC   C4B25006  39.756  38.764   7.557
 1674POPC   NC325007  41.586  24.839   9.474
 1674POPC   PO425008  41.990  24.373   9.540
 1674POPC   GL125009  41.907  24.522   9.176
 1674POPC   GL225010  41.958  24.819   9.128
 1674POPC   C1A25011  41.621  24.437   8.870
 1674POPC   D2A25012  41.469  24.681   8.561
 1674POPC   C3A25013  41.458  24.508   8.171
 1674POPC   C4A25014  41.676  24.299   7.888
 1674POPC   C1B25015  42.010  24.754   8.683
 1674POPC   C2B25016  41.834  24.885   8.289
 1674POPC   C3B25017  41.854  24.813   7.864
 1674POPC   C4B25018  41.862  24.885   7.412
 1675POPC   NC325019   4.486  29.261   9.386
 1675POPC   PO425020   4.062  28.823   9.719
 1675POPC   GL125021   4.098  28.927   9.234
 1675POPC   GL225022   3.986  29.310   9.187
 1675POPC   C1A25023   4.323  28.924   8.782
 1675POPC   D2A25024   4.548  29.208   8.481
 1675POPC   C3A25025   4.414  29.167   8.049
 1675POPC   C4A25026   4.251  28.897   7.767
 1675POPC   C1B25027   4.164  29.424   8.752
 1675POPC   C2B25028   4.122  29.514   8.292
 1675POPC   C3B25029   3.938  29.414   7.885
 1675POPC   C4B25030   4.269  29.375   7.587
 1676POPC   NC325031  20.221  30.888   9.389
 1676POPC   PO425032  19.712  30.457   9.536
 1676POPC   GL125033  19.815  30.440   9.123
 1676POPC   GL225034  19.786  30.790   9.100
 1676POPC   C1A25035  19.550  30.390   8.769
 1676POPC   D2A25036  19.436  30.442   8.318
 1676POPC   C3A25037  19.801  30.607   8.068
 1676POPC   C4A25038  20.079  30.693   7.707
 1676POPC   C1B25039  19.922  30.762   8.681
 1676POPC   C2B25040  20.024  30.998   8.326
 1676POPC   C3B25041  19.828  31.080   7.928
 1676POPC   C4B25042  20.120  31.209   7.644
 1677POPC   NC325043  18.036   8.376   9.484
 1677POPC   PO425044  18.572   8.046   9.526
 1677POPC   GL125045  18.637   8.180   9.091
 1677POPC   GL225046  18.407   8.378   9.138
 1677POPC   C1A25047  18.521   8.366   8.652
 1677POPC   D2A25048  18.552   8.099   8.290
 1677POPC   C3A25049  18.539   8.229   7.885
 1677POPC   C4A25050  18.222   8.114   7.620
 1677POPC   C1B25051  18.053   8.257   8.877
 1677POPC   C2B25052  18.006   8.197   8.461
 1677POPC   C3B25053  18.184   8.443   8.167
 1677POPC   C4B25054  18.120   8.578   7.760
 1678POPC   NC325055  19.493  25.140   9.613
 1678POPC   PO425056  20.170  25.020   9.565
 1678POPC   GL125057  19.811  25.014   9.240
 1678POPC   GL225058  19.651  25.356   9.186
 1678POPC   C1A25059  19.657  24.951   8.808
 1678POPC   D2A25060  19.836  25.188   8.437
 1678POPC   C3A25061  19.702  25.251   8.027
 1678POPC   C4A25062  19.925  25.076   7.688
 1678POPC   C1B25063  19.249  25.202   8.962
 1678POPC   C2B25064  19.271  25.141   8.494
 1678POPC   C3B25065  19.244  24.977   8.034
 1678POPC   C4B25066  19.417  25.034   7.637
 1679POPC   NC325067  17.441  40.362   9.698
 1679POPC   PO425068  18.004  40.120   9.386
 1679POPC   GL125069  17.592  40.182   9.174
 1679POPC   GL225070  17.236  40.171   9.293
 1679POPC   C1A25071  17.535  40.021   8.763
 1679POPC   D2A25072  17.699  39.856   8.391
 1679POPC   C3A25073  17.656  40.063   8.013
 1679POPC   C4A25074  17.483  39.779   7.742
 1679POPC   C1B25075  17.153  40.348   8.881
 1679POPC   C2B25076  17.304  40.374   8.464
 1679POPC   C3B25077  17.172  40.230   8.079
 1679POPC   C4B25078  17.295  40.277   7.678
 1680POPC   NC325079  37.277  41.530   9.347
 1680POPC   PO425080  37.892  41.788   9.436
 1680POPC   GL125081  37.752  41.552   9.138
 1680POPC   GL225082  37.938  41.276   9.145
 1680POPC   C1A25083  37.721  41.651   8.724
 1680POPC   D2A25084  37.829  41.863   8.348
 1680POPC   C3A25085  37.887  41.623   7.974
 1680POPC   C4A25086  37.529  41.475   7.744
 1680POPC   C1B25087  37.696  41.147   8.726
 1680POPC   C2B25088  37.632  41.288   8.293
 1680POPC   C3B25089  37.881  41.103   7.958
 1680POPC   C4B25090  38.138  41.247   7.607
 1681POPC   NC325091  27.357   9.849   9.524
 1681POPC   PO425092  26.724  10.051   9.714
 1681POPC   GL125093  26.872   9.815   9.294
 1681POPC   GL225094  27.196   9.673   9.094
 1681POPC   C1A25095  26.816   9.848   8.830
 1681POPC   D2A25096  26.902   9.844   8.386
 1681POPC   C3A25097  26.700   9.620   8.096
 1681POPC   C4A25098  26.608   9.933   7.791
 1681POPC   C1B25099  27.284   9.689   8.663
 1681POPC   C2B25100  27.285   9.487   8.300
 1681POPC   C3B25101  27.175   9.724   7.940
 1681POPC   C4B25102  26.931   9.535   7.646
 1682POPC   NC325103  34.693  14.985   9.546
 1682POPC   PO425104  34.548  15.636   9.498
 1682POPC   GL125105  34.388  15.275   9.207
 1682POPC   GL225106  34.270  14.906   9.278
 1682POPC   C1A25107  34.644  15.050   8.876
 1682POPC   D2A25108  34.944  15.020   8.538
 1682POPC   C3A25109  34.773  15.098   8.128
 1682POPC   C4A25110  34.642  15.157   7.709
 1682POPC   C1B25111  34.192  14.805   8.843
 1682POPC   C2B25112  34.351  14.905   8.450
 1682POPC   C3B25113  34.257  15.012   8.040
 1682POPC   C4B25114  34.253  14.857   7.610
 1683POPC   NC325115  44.609   3.885   9.418
 1683POPC   PO425116  44.703   3.248   9.598
 1683POPC   GL125117  44.660   3.427   9.184
 1683POPC   GL225118  44.967   3.658   9.085
 1683POPC   C1A25119  44.568   3.552   8.770
 1683POPC   D2A25120  44.914   3.539   8.474
 1683POPC   C3A25121  44.786   3.577   8.057
 1683POPC   C4A25122  44.640   3.514   7.663
 1683POPC   C1B25123  44.867   3.964   8.729
 1683POPC   C2B25124  44.962   4.004   8.253
 1683POPC   C3B25125  44.654   4.030   7.876
 1683POPC   C4B25126  44.637   3.922   7.372
 1684POPC   NC325127   3.364   4.872   9.818
 1684POPC   PO425128   3.243   5.391   9.401
 1684POPC   GL125129   2.909   5.270   9.118
 1684POPC   GL225130   2.788   4.896   9.123
 1684POPC   C1A25131   2.715   5.288   8.718
 1684POPC   D2A25132   2.742   5.409   8.285
 1684POPC   C3A25133   3.080   5.167   8.173
 1684POPC   C4A25134   3.066   4.905   7.838
 1684POPC   C1B25135   2.535   4.809   8.772
 1684POPC   C2B25136   2.470   4.868   8.341
 1684POPC   C3B25137   2.546   5.027   7.944
 1684POPC   C4B25138   2.657   4.888   7.551
 1685POPC   NC325139  27.314  13.026   9.808
 1685POPC   PO425140  27.836  12.539   9.632
 1685POPC   GL125141  27.620  12.867   9.347
 1685POPC   GL225142  27.646  12.604   9.131
 1685POPC   C1A25143  27.600  13.037   8.869
 1685POPC   D2A25144  27.688  13.015   8.426
 1685POPC   C3A25145  27.376  13.065   8.099
 1685POPC   C4A25146  27.412  12.893   7.663
 1685POPC   C1B25147  27.418  12.561   8.773
 1685POPC   C2B25148  27.355  12.625   8.379
 1685POPC   C3B25149  27.555  12.557   8.029
 1685POPC   C4B25150  27.676  12.420   7.643
 1686POPC   NC325151  40.087  27.485   9.645
 1686POPC   PO425152  39.795  27.995   9.328
 1686POPC   GL125153  40.084  27.734   9.131
 1686POPC   GL225154  39.939  27.422   9.158
 1686POPC   C1A25155  40.239  27.760   8.706
 1686POPC   D2A25156  40.448  27.697   8.321
 1686POPC   C3A25157  40.176  27.805   7.978
 1686POPC   C4A25158  40.246  28.164   7.722
 1686POPC   C1B25159  40.057  27.274   8.760
 1686POPC   C2B25160  39.992  27.416   8.327
 1686POPC   C3B25161  39.847  27.210   7.940
 1686POPC   C4B25162  40.077  26.996   7.624
 1687POPC   NC325163  43.666   3.644   9.383
 1687POPC   PO425164  43.089   3.837   9.546
 1687POPC   GL125165  43.072   4.016   9.165
 1687POPC   GL225166  43.421   4.010   9.111
 1687POPC   C1A25167  43.011   4.228   8.768
 1687POPC   D2A25168  43.212   4.344   8.377
 1687POPC   C3A25169  42.942   4.338   8.020
 1687POPC   C4A25170  42.709   4.064   7.761
 1687POPC   C1B25171  43.430   3.928   8.681
 1687POPC   C2B25172  43.631   4.070   8.314
 1687POPC   C3B25173  43.509   4.259   7.929
 1687POPC   C4B25174  43.464   4.077   7.503
 1688POPC   NC325175  31.941  32.055   9.540
 1688POPC   PO425176  32.337  32.523   9.537
 1688POPC   GL125177  32.253  32.356   9.149
 1688POPC   GL225178  32.229  31.988   9.121
 1688POPC   C1A25179  32.419  32.286   8.759
 1688POPC   D2A25180  32.196  32.331   8.420
 1688POPC   C3A25181  32.361  32.524   8.071
 1688POPC   C4A25182  32.182  32.420   7.714
 1688POPC   C1B25183  32.071  31.879   8.709
 1688POPC   C2B25184  31.823  31.992   8.353
 1688POPC   C3B25185  31.911  32.007   7.915
 1688POPC   C4B25186  31.841  31.949   7.480
 1689POPC   NC325187   2.344   4.102   9.754
 1689POPC   PO425188   2.892   4.557   9.552
 1689POPC   GL125189   2.769   4.343   9.180
 1689POPC   GL225190   2.933   4.049   9.037
 1689POPC   C1A25191   2.944   4.492   8.797
 1689POPC   D2A25192   2.972   4.754   8.460
 1689POPC   C3A25193   2.967   4.490   8.115
 1689POPC   C4A25194   2.768   4.415   7.736
 1689POPC   C1B25195   2.986   4.008   8.596
 1689POPC   C2B25196   2.801   4.009   8.198
 1689POPC   C3B25197   2.834   3.912   7.764
 1689POPC   C4B25198   2.943   4.110   7.356
 1690POPC   NC325199  29.606  11.380   9.329
 1690POPC   PO425200  29.053  10.964   9.409
 1690POPC   GL125201  29.129  11.363   9.204
 1690POPC   GL225202  29.251  11.170   8.941
 1690POPC   C1A25203  29.049  11.608   8.804
 1690POPC   D2A25204  29.132  11.399   8.396
 1690POPC   C3A25205  28.939  11.451   7.999
 1690POPC   C4A25206  29.147  11.131   7.746
 1690POPC   C1B25207  29.530  11.484   8.707
 1690POPC   C2B25208  29.578  11.709   8.340
 1690POPC   C3B25209  29.463  11.505   7.950
 1690POPC   C4B25210  29.606  11.479   7.529
 1691POPC   NC325211  25.787   2.616   9.799
 1691POPC   PO425212  26.395   2.566   9.656
 1691POPC   GL125213  26.122   2.783   9.336
 1691POPC   GL225214  25.806   2.610   9.269
 1691POPC   C1A25215  25.978   2.944   8.904
 1691POPC   D2A25216  25.975   2.803   8.461
 1691POPC   C3A25217  26.091   2.948   8.028
 1691POPC   C4A25218  26.126   2.687   7.644
 1691POPC   C1B25219  25.641   2.538   8.829
 1691POPC   C2B25220  25.556   2.530   8.358
 1691POPC   C3B25221  25.710   2.616   7.913
 1691POPC   C4B25222  25.725   2.404   7.466
 1692POPC   NC325223  41.770   4.597   9.510
 1692POPC   PO425224  41.395   5.133   9.509
 1692POPC   GL125225  41.384   5.057   9.106
 1692POPC   GL225226  41.379   4.707   9.181
 1692POPC   C1A25227  41.352   5.204   8.656
 1692POPC   D2A25228  41.408   5.387   8.234
 1692POPC   C3A25229  41.598   5.256   7.863
 1692POPC   C4A25230  41.799   4.950   7.636
 1692POPC   C1B25231  41.622   4.743   8.785
 1692POPC   C2B25232  41.586   4.863   8.348
 1692POPC   C3B25233  41.468   4.740   7.955
 1692POPC   C4B25234  41.309   4.661   7.520
 1693POPC   NC325235  29.444  35.265   9.551
 1693POPC   PO425236  28.907  35.682   9.379
 1693POPC   GL125237  29.232  35.505   9.123
 1693POPC   GL225238  29.240  35.137   9.106
 1693POPC   C1A25239  29.217  35.393   8.678
 1693POPC   D2A25240  29.284  35.347   8.258
 1693POPC   C3A25241  28.972  35.218   7.974
 1693POPC   C4A25242  28.985  35.136   7.524
 1693POPC   C1B25243  29.474  34.956   8.745
 1693POPC   C2B25244  29.542  34.895   8.275
 1693POPC   C3B25245  29.458  35.092   7.843
 1693POPC   C4B25246  29.510  35.108   7.385
 1694POPC   NC325247  43.973  17.707   9.485
 1694POPC   PO425248  43.622  18.353   9.461
 1694POPC   GL125249  43.987  18.359   9.177
 1694POPC   GL225250  44.277  18.278   9.359
 1694POPC   C1A25251  44.041  18.526   8.758
 1694POPC   D2A25252  43.702  18.521   8.421
 1694POPC   C3A25253  43.859  18.285   8.068
 1694POPC   C4A25254  43.930  18.369   7.628
 1694POPC   C1B25255  44.321  18.057   8.961
 1694POPC   C2B25256  44.190  18.054   8.559
 1694POPC   C3B25257  44.221  17.920   8.166
 1694POPC   C4B25258  44.296  18.084   7.789
 1695POPC   NC325259  29.886  23.590   9.577
 1695POPC   PO425260  30.378  24.020   9.324
 1695POPC   GL125261  30.094  23.788   9.086
 1695POPC   GL225262  29.787  23.732   9.108
 1695POPC   C1A25263  30.044  23.630   8.650
 1695POPC   D2A25264  30.110  23.510   8.206
 1695POPC   C3A25265  29.889  23.776   7.920
 1695POPC   C4A25266  30.115  24.165   7.775
 1695POPC   C1B25267  29.543  23.557   8.769
 1695POPC   C2B25268  29.622  23.533   8.331
 1695POPC   C3B25269  29.386  23.412   7.981
 1695POPC   C4B25270  29.500  23.607   7.585
 1696POPC   NC325271  21.424  34.208   9.450
 1696POPC   PO425272  21.871  34.756   9.482
 1696POPC   GL125273  21.602  34.648   9.150
 1696POPC   GL225274  21.514  34.325   8.983
 1696POPC   C1A25275  21.496  34.763   8.759
 1696POPC   D2A25276  21.354  34.522   8.442
 1696POPC   C3A25277  21.508  34.668   8.065
 1696POPC   C4A25278  21.550  34.486   7.674
 1696POPC   C1B25279  21.144  34.199   8.802
 1696POPC   C2B25280  21.162  34.029   8.425
 1696POPC   C3B25281  21.261  34.188   8.043
 1696POPC   C4B25282  21.209  34.095   7.645
 1697POPC   NC325283  12.745  32.788   9.600
 1697POPC   PO425284  13.032  33.296   9.406
 1697POPC   GL125285  12.818  32.994   9.121
 1697POPC   GL225286  12.568  33.168   8.965
 1697POPC   C1A25287  12.736  32.705   8.748
 1697POPC   D2A25288  12.807  32.600   8.370
 1697POPC   C3A25289  12.746  32.968   8.133
 1697POPC   C4A25290  12.755  33.058   7.707
 1697POPC   C1B25291  12.928  33.160   8.641
 1697POPC   C2B25292  13.072  33.356   8.282
 1697POPC   C3B25293  13.165  33.312   7.882
 1697POPC   C4B25294  13.005  33.446   7.492
 1698POPC   NC325295  25.915   8.823   9.646
 1698POPC   PO425296  26.414   9.216   9.800
 1698POPC   GL125297  26.291   9.046   9.371
 1698POPC   GL225298  26.326   9.351   9.181
 1698POPC   C1A25299  26.031   8.975   8.970
 1698POPC   D2A25300  26.029   8.997   8.510
 1698POPC   C3A25301  26.174   8.749   8.168
 1698POPC   C4A25302  26.007   8.892   7.785
 1698POPC   C1B25303  26.403   9.254   8.745
 1698POPC   C2B25304  26.485   9.206   8.308
 1698POPC   C3B25305  26.465   9.138   7.862
 1698POPC   C4B25306  26.357   9.000   7.402
 1699POPC   NC325307  13.528  24.869   9.366
 1699POPC   PO425308  13.684  24.252   9.502
 1699POPC   GL125309  13.682  24.387   9.059
 1699POPC   GL225310  13.959  24.644   9.094
 1699POPC   C1A25311  13.479  24.437   8.600
 1699POPC   D2A25312  13.439  24.743   8.235
 1699POPC   C3A25313  13.709  24.810   7.896
 1699POPC   C4A25314  13.757  24.714   7.462
 1699POPC   C1B25315  13.975  24.490   8.659
 1699POPC   C2B25316  13.874  24.458   8.212
 1699POPC   C3B25317  14.041  24.400   7.793
 1699POPC   C4B25318  14.094  24.313   7.380
 1700POPC   NC325319  14.860   1.171   9.598
 1700POPC   PO425320  15.455   0.961   9.458
 1700POPC   GL125321  15.269   1.093   9.058
 1700POPC   GL225322  15.060   1.394   9.141
 1700POPC   C1A25323  15.351   1.122   8.601
 1700POPC   D2A25324  15.237   1.459   8.290
 1700POPC   C3A25325  15.216   1.301   7.920
 1700POPC   C4A25326  15.540   1.111   7.699
 1700POPC   C1B25327  14.893   1.310   8.716
 1700POPC   C2B25328  14.728   1.415   8.316
 1700POPC   C3B25329  14.696   1.232   7.922
 1700POPC   C4B25330  14.764   1.496   7.631
 1701POPC   NC325331   9.585  26.603   9.491
 1701POPC   PO425332   9.904  27.193   9.666
 1701POPC   GL125333   9.701  27.118   9.240
 1701POPC   GL225334   9.701  26.801   9.058
 1701POPC   C1A25335   9.569  27.193   8.783
 1701POPC   D2A25336   9.521  26.809   8.502
 1701POPC   C3A25337   9.427  26.849   8.048
 1701POPC   C4A25338   9.647  26.921   7.652
 1701POPC   C1B25339  10.000  26.556   8.877
 1701POPC   C2B25340  10.048  26.667   8.465
 1701POPC   C3B25341   9.792  26.486   8.156
 1701POPC   C4B25342   9.819  26.342   7.742
 1702POPC   NC325343  31.041   3.585   9.294
 1702POPC   PO425344  31.734   3.448   9.520
 1702POPC   GL125345  31.520   3.457   9.071
 1702POPC   GL225346  31.183   3.338   8.870
 1702POPC   C1A25347  31.411   3.713   8.679
 1702POPC   D2A25348  31.424   3.952   8.328
 1702POPC   C3A25349  31.482   3.668   7.998
 1702POPC   C4A25350  31.332   3.548   7.594
 1702POPC   C1B25351  31.062   3.130   8.542
 1702POPC   C2B25352  31.095   3.381   8.197
 1702POPC   C3B25353  30.897   3.404   7.838
 1702POPC   C4B25354  31.031   3.168   7.464
 1703POPC   NC325355  43.668   0.365   9.671
 1703POPC   PO425356  43.821   0.894   9.372
 1703POPC   GL125357  43.838   0.457   9.192
 1703POPC   GL225358  43.549   0.224   9.117
 1703POPC   C1A25359  43.880   0.373   8.756
 1703POPC   D2A25360  44.096   0.477   8.384
 1703POPC   C3A25361  43.869   0.676   8.051
 1703POPC   C4A25362  44.201   0.687   7.750
 1703POPC   C1B25363  43.609  44.954   8.723
 1703POPC   C2B25364  43.811   0.052   8.330
 1703POPC   C3B25365  43.973   0.183   7.945
 1703POPC   C4B25366  43.669   0.137   7.631
 1704POPC   NC325367  42.416  28.679   9.393
 1704POPC   PO425368  42.185  28.113   9.746
 1704POPC   GL125369  42.251  28.203   9.204
 1704POPC   GL225370  42.154  28.550   8.992
 1704POPC   C1A25371  42.125  28.084   8.776
 1704POPC   D2A25372  41.968  27.961   8.386
 1704POPC   C3A25373  42.184  28.118   8.019
 1704POPC   C4A25374  42.063  28.205   7.600
 1704POPC   C1B25375  42.544  28.370   8.807
 1704POPC   C2B25376  42.681  28.421   8.399
 1704POPC   C3B25377  42.440  28.566   8.057
 1704POPC   C4B25378  42.527  28.475   7.640
 1705POPC   NC325379  23.958  28.932   9.488
 1705POPC   PO425380  23.361  29.010   9.510
 1705POPC   GL125381  23.578  29.100   9.131
 1705POPC   GL225382  23.581  29.465   9.143
 1705POPC   C1A25383  23.614  29.195   8.674
 1705POPC   D2A25384  23.822  29.278   8.265
 1705POPC   C3A25385  23.766  29.094   7.845
 1705POPC   C4A25386  24.020  29.061   7.416
 1705POPC   C1B25387  23.684  29.695   8.753
 1705POPC   C2B25388  23.486  29.649   8.361
 1705POPC   C3B25389  23.377  29.417   7.983
 1705POPC   C4B25390  23.230  29.033   7.812
 1706POPC   NC325391  32.248  16.877   9.527
 1706POPC   PO425392  32.670  16.374   9.665
 1706POPC   GL125393  32.467  16.485   9.246
 1706POPC   GL225394  32.078  16.502   9.218
 1706POPC   C1A25395  32.467  16.555   8.787
 1706POPC   D2A25396  32.233  16.604   8.402
 1706POPC   C3A25397  32.350  16.554   7.956
 1706POPC   C4A25398  32.319  16.473   7.507
 1706POPC   C1B25399  32.057  16.826   8.871
 1706POPC   C2B25400  31.984  17.053   8.472
 1706POPC   C3B25401  32.207  17.040   8.080
 1706POPC   C4B25402  32.125  16.937   7.657
 1707POPC   NC325403  14.417  27.983   9.508
 1707POPC   PO425404  14.598  28.624   9.644
 1707POPC   GL125405  14.680  28.457   9.248
 1707POPC   GL225406  14.407  28.610   9.020
 1707POPC   C1A25407  14.716  28.229   8.866
 1707POPC   D2A25408  14.708  28.401   8.458
 1707POPC   C3A25409  14.766  28.177   8.094
 1707POPC   C4A25410  14.539  28.027   7.761
 1707POPC   C1B25411  14.244  28.541   8.619
 1707POPC   C2B25412  14.228  28.278   8.273
 1707POPC   C3B25413  14.192  27.852   8.148
 1707POPC   C4B25414  14.130  27.698   7.745
 1708POPC   NC325415  35.913  27.499   9.756
 1708POPC   PO425416  36.568  27.672   9.540
 1708POPC   GL125417  36.291  27.568   9.275
 1708POPC   GL225418  36.004  27.799   9.342
 1708POPC   C1A25419  36.329  27.608   8.834
 1708POPC   D2A25420  36.315  27.850   8.475
 1708POPC   C3A25421  36.381  27.589   8.127
 1708POPC   C4A25422  36.300  27.645   7.697
 1708POPC   C1B25423  35.871  27.474   9.036
 1708POPC   C2B25424  35.898  27.530   8.577
 1708POPC   C3B25425  35.722  27.635   8.206
 1708POPC   C4B25426  35.887  27.376   7.860
 1709POPC   NC325427  22.945  21.163   9.494
 1709POPC   PO425428  23.151  21.810   9.586
 1709POPC   GL125429  23.152  21.542   9.152
 1709POPC   GL225430  22.794  21.429   9.075
 1709POPC   C1A25431  23.076  21.453   8.665
 1709POPC   D2A25432  22.977  21.160   8.326
 1709POPC   C3A25433  23.117  21.303   7.944
 1709POPC   C4A25434  22.962  21.655   7.739
 1709POPC   C1B25435  22.589  21.235   8.680
 1709POPC   C2B25436  22.450  21.173   8.241
 1709POPC   C3B25437  22.622  21.256   7.827
 1709POPC   C4B25438  22.510  21.279   7.405
 1710POPC   NC325439  30.525  15.389   9.648
 1710POPC   PO425440  30.906  15.012   9.295
 1710POPC   GL125441  30.656  15.024   8.996
 1710POPC   GL225442  30.387  15.186   9.124
 1710POPC   C1A25443  30.806  15.007   8.617
 1710POPC   D2A25444  31.109  15.173   8.396
 1710POPC   C3A25445  30.983  15.114   7.979
 1710POPC   C4A25446  30.576  15.133   7.739
 1710POPC   C1B25447  30.445  15.373   8.704
 1710POPC   C2B25448  30.538  15.246   8.262
 1710POPC   C3B25449  30.375  15.534   7.993
 1710POPC   C4B25450  30.245  15.532   7.593
 1711POPC   NC325451  14.518   3.211   9.609
 1711POPC   PO425452  14.514   3.856   9.422
 1711POPC   GL125453  14.246   3.667   9.125
 1711POPC   GL225454  14.271   3.308   9.145
 1711POPC   C1A25455  14.206   3.762   8.723
 1711POPC   D2A25456  14.496   3.712   8.429
 1711POPC   C3A25457  14.380   3.616   8.048
 1711POPC   C4A25458  14.321   3.947   7.817
 1711POPC   C1B25459  14.532   3.382   8.839
 1711POPC   C2B25460  14.550   3.219   8.471
 1711POPC   C3B25461  14.767   3.316   8.168
 1711POPC   C4B25462  14.796   3.234   7.794
 1712POPC   NC325463  32.460  27.437   9.940
 1712POPC   PO425464  31.930  27.759   9.579
 1712POPC   GL125465  32.178  27.577   9.258
 1712POPC   GL225466  31.925  27.479   9.107
 1712POPC   C1A25467  32.351  27.495   8.846
 1712POPC   D2A25468  32.507  27.530   8.422
 1712POPC   C3A25469  32.270  27.484   8.024
 1712POPC   C4A25470  32.429  27.461   7.634
 1712POPC   C1B25471  31.834  27.683   8.755
 1712POPC   C2B25472  32.022  27.714   8.409
 1712POPC   C3B25473  31.965  27.914   8.054
 1712POPC   C4B25474  31.869  27.908   7.622
 1713POPC   NC325475  28.304  43.973   9.567
 1713POPC   PO425476  28.408  43.373   9.412
 1713POPC   GL125477  28.444  43.739   9.133
 1713POPC   GL225478  28.126  43.915   9.104
 1713POPC   C1A25479  28.559  43.792   8.717
 1713POPC   D2A25480  28.746  43.977   8.355
 1713POPC   C3A25481  28.648  43.825   7.974
 1713POPC   C4A25482  28.384  43.849   7.650
 1713POPC   C1B25483  28.134  44.282   8.875
 1713POPC   C2B25484  28.293  44.187   8.493
 1713POPC   C3B25485  28.241  44.156   8.063
 1713POPC   C4B25486  28.022  44.222   7.669
 1714POPC   NC325487  23.483  18.758   9.481
 1714POPC   PO425488  22.838  18.990   9.665
 1714POPC   GL125489  22.849  19.063   9.221
 1714POPC   GL225490  23.209  19.075   9.178
 1714POPC   C1A25491  22.938  19.253   8.793
 1714POPC   D2A25492  23.133  19.190   8.384
 1714POPC   C3A25493  22.872  19.272   8.026
 1714POPC   C4A25494  22.944  19.331   7.570
 1714POPC   C1B25495  23.441  19.055   8.796
 1714POPC   C2B25496  23.373  18.756   8.475
 1714POPC   C3B25497  23.372  18.874   8.052
 1714POPC   C4B25498  23.328  18.612   7.725
 1715POPC   NC325499  29.856  13.247   9.547
 1715POPC   PO425500  29.760  13.898   9.436
 1715POPC   GL125501  29.875  13.716   9.045
 1715POPC   GL225502  30.210  13.717   9.034
 1715POPC   C1A25503  29.826  13.629   8.579
 1715POPC   D2A25504  29.700  13.546   8.130
 1715POPC   C3A25505  29.875  13.770   7.806
 1715POPC   C4A25506  30.269  13.907   7.868
 1715POPC   C1B25507  30.201  13.339   8.789
 1715POPC   C2B25508  30.042  13.225   8.367
 1715POPC   C3B25509  30.111  13.303   7.929
 1715POPC   C4B25510  30.150  13.313   7.498
 1716POPC   NC325511  28.742  35.211   9.261
 1716POPC   PO425512  28.178  35.211   9.623
 1716POPC   GL125513  28.258  35.409   9.210
 1716POPC   GL225514  28.294  35.074   9.044
 1716POPC   C1A25515  28.436  35.528   8.787
 1716POPC   D2A25516  28.756  35.428   8.459
 1716POPC   C3A25517  28.751  35.665   8.081
 1716POPC   C4A25518  28.620  35.470   7.674
 1716POPC   C1B25519  28.320  35.071   8.568
 1716POPC   C2B25520  28.270  35.399   8.220
 1716POPC   C3B25521  28.136  35.298   7.796
 1716POPC   C4B25522  27.804  35.026   7.647
 1717POPC   NC325523  33.870  27.406   9.785
 1717POPC   PO425524  33.568  27.913   9.477
 1717POPC   GL125525  33.639  27.910   9.034
 1717POPC   GL225526  33.674  27.527   8.904
 1717POPC   C1A25527  33.719  27.917   8.585
 1717POPC   D2A25528  33.573  27.517   8.380
 1717POPC   C3A25529  33.535  27.610   7.966
 1717POPC   C4A25530  33.877  27.847   7.787
 1717POPC   C1B25531  34.055  27.509   8.617
 1717POPC   C2B25532  34.095  27.523   8.159
 1717POPC   C3B25533  34.227  27.272   7.801
 1717POPC   C4B25534  34.143  27.091   7.409
 1718POPC   NC325535  17.045   3.520   9.454
 1718POPC   PO425536  16.397   3.469   9.273
 1718POPC   GL125537  16.714   3.613   9.044
 1718POPC   GL225538  16.824   3.302   9.025
 1718POPC   C1A25539  16.815   3.661   8.606
 1718POPC   D2A25540  16.511   3.680   8.262
 1718POPC   C3A25541  16.744   3.649   7.900
 1718POPC   C4A25542  17.179   3.598   7.771
 1718POPC   C1B25543  16.504   3.277   8.669
 1718POPC   C2B25544  16.382   3.165   8.274
 1718POPC   C3B25545  16.523   3.113   7.855
 1718POPC   C4B25546  16.886   3.195   7.682
 1719POPC   NC325547  12.606  22.758   9.491
 1719POPC   PO425548  12.794  22.068   9.371
 1719POPC   GL125549  12.784  22.374   9.087
 1719POPC   GL225550  12.445  22.386   9.160
 1719POPC   C1A25551  12.818  22.325   8.668
 1719POPC   D2A25552  13.010  22.394   8.347
 1719POPC   C3A25553  12.759  22.262   8.073
 1719POPC   C4A25554  12.823  22.235   7.712
 1719POPC   C1B25555  12.378  22.552   8.790
 1719POPC   C2B25556  12.370  22.360   8.395
 1719POPC   C3B25557  12.275  22.485   8.000
 1719POPC   C4B25558  12.475  22.595   7.654
 1720POPC   NC325559   7.291  25.004   9.422
 1720POPC   PO425560   7.763  25.574   9.436
 1720POPC   GL125561   7.488  25.482   9.074
 1720POPC   GL225562   7.472  25.118   8.973
 1720POPC   C1A25563   7.408  25.478   8.600
 1720POPC   D2A25564   7.165  25.210   8.326
 1720POPC   C3A25565   7.235  25.179   7.895
 1720POPC   C4A25566   7.079  25.535   7.729
 1720POPC   C1B25567   7.758  25.079   8.644
 1720POPC   C2B25568   7.644  25.037   8.199
 1720POPC   C3B25569   7.691  25.006   7.755
 1720POPC   C4B25570   7.661  24.824   7.356
 1721POPC   NC325571  31.620   8.679   9.708
 1721POPC   PO425572  31.322   9.260   9.532
 1721POPC   GL125573  31.221   9.118   9.095
 1721POPC   GL225574  30.959   8.860   9.054
 1721POPC   C1A25575  31.236   9.325   8.703
 1721POPC   D2A25576  31.159   9.502   8.328
 1721POPC   C3A25577  31.339   9.205   8.031
 1721POPC   C4A25578  31.214   8.837   7.816
 1721POPC   C1B25579  31.167   8.827   8.621
 1721POPC   C2B25580  31.437   8.709   8.250
 1721POPC   C3B25581  31.663   8.597   7.849
 1721POPC   C4B25582  31.953   8.711   7.510
 1722POPC   NC325583  32.604   7.140   9.520
 1722POPC   PO425584  32.054   7.042   9.515
 1722POPC   GL125585  32.255   7.312   9.149
 1722POPC   GL225586  32.582   7.510   9.135
 1722POPC   C1A25587  32.155   7.498   8.720
 1722POPC   D2A25588  32.076   7.349   8.301
 1722POPC   C3A25589  32.328   7.545   7.976
 1722POPC   C4A25590  32.172   7.723   7.609
 1722POPC   C1B25591  32.623   7.278   8.727
 1722POPC   C2B25592  32.553   7.164   8.298
 1722POPC   C3B25593  32.415   7.058   7.889
 1722POPC   C4B25594  32.503   7.325   7.536
 1723POPC   NC325595   4.691   6.018   9.568
 1723POPC   PO425596   4.317   6.566   9.443
 1723POPC   GL125597   4.159   6.664   9.086
 1723POPC   GL225598   3.860   6.553   8.949
 1723POPC   C1A25599   4.343   6.472   8.764
 1723POPC   D2A25600   4.516   6.388   8.408
 1723POPC   C3A25601   4.248   6.514   8.103
 1723POPC   C4A25602   4.293   6.455   7.672
 1723POPC   C1B25603   3.979   6.832   8.607
 1723POPC   C2B25604   4.006   6.969   8.182
 1723POPC   C3B25605   3.915   6.772   7.788
 1723POPC   C4B25606   3.894   6.610   7.350
 1724POPC   NC325607   6.491  25.599   9.350
 1724POPC   PO425608   6.901  26.079   9.397
 1724POPC   GL125609   6.819  26.001   8.992
 1724POPC   GL225610   6.461  26.042   9.028
 1724POPC   C1A25611   6.712  26.261   8.624
 1724POPC   D2A25612   6.502  26.115   8.255
 1724POPC   C3A25613   6.717  26.192   7.884
 1724POPC   C4A25614   6.871  25.942   7.528
 1724POPC   C1B25615   6.220  26.281   8.704
 1724POPC   C2B25616   6.025  26.288   8.289
 1724POPC   C3B25617   6.188  26.263   7.837
 1724POPC   C4B25618   6.380  25.886   7.658
 1725POPC   NC325619  30.722   6.530   9.557
 1725POPC   PO425620  30.304   7.103   9.637
 1725POPC   GL125621  30.424   6.837   9.273
 1725POPC   GL225622  30.763   6.827   9.130
 1725POPC   C1A25623  30.350   6.689   8.845
 1725POPC   D2A25624  30.372   6.858   8.433
 1725POPC   C3A25625  30.342   6.605   8.053
 1725POPC   C4A25626  30.319   6.703   7.617
 1725POPC   C1B25627  30.878   6.780   8.665
 1725POPC   C2B25628  30.931   6.776   8.196
 1725POPC   C3B25629  31.095   6.999   7.790
 1725POPC   C4B25630  31.221   6.743   7.411
 1726POPC   NC325631  23.874  44.791   9.629
 1726POPC   PO425632  23.221  44.575   9.407
 1726POPC   GL125633  23.580  44.710   9.144
 1726POPC   GL225634  23.926  44.625   9.126
 1726POPC   C1A25635  23.622  44.685   8.692
 1726POPC   D2A25636  23.825  44.659   8.293
 1726POPC   C3A25637  23.544  44.499   7.969
 1726POPC   C4A25638  23.420  44.702   7.610
 1726POPC   C1B25639  24.129  44.614   8.718
 1726POPC   C2B25640  24.214  44.304   8.405
 1726POPC   C3B25641  24.016  44.287   7.999
 1726POPC   C4B25642  23.952  44.710   7.772
 1727POPC   NC325643  16.481  32.659   9.562
 1727POPC   PO425644  16.571  33.256   9.727
 1727POPC   GL125645  16.808  33.136   9.323
 1727POPC   GL225646  16.557  32.956   9.162
 1727POPC   C1A25647  16.963  32.924   8.886
 1727POPC   D2A25648  16.827  32.912   8.460
 1727POPC   C3A25649  16.863  32.790   8.038
 1727POPC   C4A25650  16.868  33.053   7.676
 1727POPC   C1B25651  16.441  33.122   8.781
 1727POPC   C2B25652  16.283  33.161   8.390
 1727POPC   C3B25653  16.457  33.109   8.003
 1727POPC   C4B25654  16.409  32.836   7.676
 1728POPC   NC325655  44.336  43.540   9.415
 1728POPC   PO425656  44.420  44.183   9.552
 1728POPC   GL125657  44.619  43.914   9.196
 1728POPC   GL225658  44.816  43.600   9.233
 1728POPC   C1A25659  44.453  43.908   8.763
 1728POPC   D2A25660  44.608  43.944   8.318
 1728POPC   C3A25661  44.431  44.090   7.907
 1728POPC   C4A25662  44.670  44.074   7.475
 1728POPC   C1B25663  44.868  43.607   8.776
 1728POPC   C2B25664   0.029  43.631   8.340
 1728POPC   C3B25665  44.842  43.701   7.908
 1728POPC   C4B25666  44.446  43.642   7.657
 1729POPC   NC325667  10.534  42.439   9.549
 1729POPC   PO425668  10.646  41.774   9.606
 1729POPC   GL125669  10.676  42.140   9.189
 1729POPC   GL225670  10.344  42.362   9.097
 1729POPC   C1A25671  10.747  42.361   8.791
 1729POPC   D2A25672  10.487  42.373   8.411
 1729POPC   C3A25673  10.654  42.250   8.012
 1729POPC   C4A25674  10.615  42.512   7.636
 1729POPC   C1B25675  10.340  42.051   8.776
 1729POPC   C2B25676  10.441  41.830   8.428
 1729POPC   C3B25677  10.290  41.842   8.026
 1729POPC   C4B25678  10.207  42.178   7.731
 1730POPC   NC325679  40.197  42.407   9.570
 1730POPC   PO425680  39.507  42.497   9.649
 1730POPC   GL125681  39.723  42.319   9.236
 1730POPC   GL225682  40.077  42.222   9.124
 1730POPC   C1A25683  39.733  42.368   8.772
 1730POPC   D2A25684  40.006  42.569   8.462
 1730POPC   C3A25685  39.885  42.540   8.030
 1730POPC   C4A25686  40.154  42.608   7.658
 1730POPC   C1B25687  40.115  42.010   8.762
 1730POPC   C2B25688  39.944  42.039   8.377
 1730POPC   C3B25689  40.128  42.108   8.026
 1730POPC   C4B25690  40.301  42.102   7.655
 1731POPC   NC325691  38.311  38.809   9.694
 1731POPC   PO425692  38.416  38.137   9.614
 1731POPC   GL125693  38.485  38.384   9.254
 1731POPC   GL225694  38.273  38.722   9.206
 1731POPC   C1A25695  38.576  38.206   8.846
 1731POPC   D2A25696  38.380  38.347   8.478
 1731POPC   C3A25697  38.407  38.197   8.057
 1731POPC   C4A25698  38.356  38.156   7.607
 1731POPC   C1B25699  38.518  38.725   8.859
 1731POPC   C2B25700  38.524  38.882   8.472
 1731POPC   C3B25701  38.635  38.720   8.111
 1731POPC   C4B25702  38.515  38.624   7.737
 1732POPC   NC325703   2.138   3.510   9.521
 1732POPC   PO425704   1.641   3.926   9.397
 1732POPC   GL125705   2.020   3.756   9.095
 1732POPC   GL225706   2.274   3.430   9.052
 1732POPC   C1A25707   2.056   3.695   8.660
 1732POPC   D2A25708   1.796   3.700   8.357
 1732POPC   C3A25709   1.959   3.818   7.969
 1732POPC   C4A25710   1.814   3.702   7.558
 1732POPC   C1B25711   2.045   3.196   8.737
 1732POPC   C2B25712   2.068   3.279   8.294
 1732POPC   C3B25713   2.109   3.338   7.883
 1732POPC   C4B25714   2.350   3.642   7.691
 1733POPC   NC325715  20.956  25.880   9.541
 1733POPC   PO425716  21.544  25.819   9.627
 1733POPC   GL125717  21.560  26.025   9.202
 1733POPC   GL225718  21.222  26.117   9.140
 1733POPC   C1A25719  21.565  26.092   8.721
 1733POPC   D2A25720  21.486  25.886   8.299
 1733POPC   C3A25721  21.524  26.013   7.846
 1733POPC   C4A25722  21.567  25.786   7.420
 1733POPC   C1B25723  21.046  26.117   8.711
 1733POPC   C2B25724  20.950  25.991   8.280
 1733POPC   C3B25725  21.062  26.229   7.920
 1733POPC   C4B25726  21.336  26.582   7.764
 1734POPC   NC325727   7.398  12.195   9.401
 1734POPC   PO425728   6.984  11.660   9.195
 1734POPC   GL125729   7.357  11.906   8.979
 1734POPC   GL225730   7.628  12.193   8.964
 1734POPC   C1A25731   7.419  12.012   8.536
 1734POPC   D2A25732   7.109  11.840   8.254
 1734POPC   C3A25733   7.264  11.779   7.865
 1734POPC   C4A25734   7.520  11.757   7.486
 1734POPC   C1B25735   7.398  12.519   8.715
 1734POPC   C2B25736   7.521  12.559   8.282
 1734POPC   C3B25737   7.369  12.569   7.888
 1734POPC   C4B25738   7.456  12.225   7.642
 1735POPC   NC325739  28.142  25.891   9.465
 1735POPC   PO425740  28.820  25.809   9.326
 1735POPC   GL125741  28.550  26.034   9.080
 1735POPC   GL225742  28.286  25.825   8.961
 1735POPC   C1A25743  28.663  25.967   8.645
 1735POPC   D2A25744  28.671  25.819   8.262
 1735POPC   C3A25745  28.368  26.022   8.041
 1735POPC   C4A25746  28.207  26.172   7.695
 1735POPC   C1B25747  28.178  25.920   8.499
 1735POPC   C2B25748  27.940  25.754   8.126
 1735POPC   C3B25749  27.795  25.886   7.718
 1735POPC   C4B25750  27.903  26.011   7.284
 1736POPC   NC325751  13.659  16.418   9.412
 1736POPC   PO425752  13.661  15.782   9.554
 1736POPC   GL125753  13.468  15.964   9.201
 1736POPC   GL225754  13.755  15.880   8.986
 1736POPC   C1A25755  13.261  16.084   8.808
 1736POPC   D2A25756  13.407  15.967   8.393
 1736POPC   C3A25757  13.216  16.057   7.997
 1736POPC   C4A25758  13.299  16.007   7.516
 1736POPC   C1B25759  13.893  15.535   8.684
 1736POPC   C2B25760  13.998  15.525   8.265
 1736POPC   C3B25761  13.990  15.727   7.895
 1736POPC   C4B25762  13.992  15.420   7.602
 1737POPC   NC325763  30.864   9.272   9.430
 1737POPC   PO425764  30.470   8.690   9.438
 1737POPC   GL125765  30.450   8.809   9.015
 1737POPC   GL225766  30.212   8.541   8.951
 1737POPC   C1A25767  30.676   8.986   8.627
 1737POPC   D2A25768  30.873   9.064   8.228
 1737POPC   C3A25769  30.720   8.858   7.852
 1737POPC   C4A25770  30.934   8.895   7.407
 1737POPC   C1B25771  30.221   8.759   8.573
 1737POPC   C2B25772  30.331   8.960   8.201
 1737POPC   C3B25773  30.217   8.743   7.801
 1737POPC   C4B25774  30.505   8.589   7.478
 1738POPC   NC325775   9.837   2.042   9.612
 1738POPC   PO425776   9.398   1.693   9.255
 1738POPC   GL125777   9.705   1.899   9.126
 1738POPC   GL225778   9.997   1.716   9.193
 1738POPC   C1A25779   9.629   2.114   8.765
 1738POPC   D2A25780   9.792   2.184   8.375
 1738POPC   C3A25781   9.451   2.147   8.114
 1738POPC   C4A25782   9.398   1.901   7.765
 1738POPC   C1B25783  10.075   1.884   8.770
 1738POPC   C2B25784  10.011   1.679   8.378
 1738POPC   C3B25785   9.828   1.786   8.035
 1738POPC   C4B25786   9.943   1.940   7.696
 1739POPC   NC325787  36.254  33.428   9.498
 1739POPC   PO425788  36.553  34.030   9.504
 1739POPC   GL125789  36.219  33.947   9.158
 1739POPC   GL225790  36.054  33.627   9.079
 1739POPC   C1A25791  36.305  33.910   8.696
 1739POPC   D2A25792  36.511  34.034   8.289
 1739POPC   C3A25793  36.244  33.996   7.929
 1739POPC   C4A25794  36.024  33.703   7.725
 1739POPC   C1B25795  36.111  33.435   8.665
 1739POPC   C2B25796  36.079  33.505   8.224
 1739POPC   C3B25797  36.155  33.242   7.822
 1739POPC   C4B25798  36.288  33.390   7.415
 1740POPC   NC325799   5.346  35.653   9.361
 1740POPC   PO425800   4.842  35.337   9.770
 1740POPC   GL125801   5.010  35.252   9.283
 1740POPC   GL225802   5.043  35.510   8.980
 1740POPC   C1A25803   5.180  35.048   8.919
 1740POPC   D2A25804   5.084  35.145   8.513
 1740POPC   C3A25805   5.123  35.052   8.108
 1740POPC   C4A25806   5.065  35.150   7.705
 1740POPC   C1B25807   4.933  35.623   8.582
 1740POPC   C2B25808   5.173  35.561   8.194
 1740POPC   C3B25809   5.100  35.656   7.777
 1740POPC   C4B25810   5.289  35.553   7.393
 1741POPC   NC325811  24.718  32.041   9.265
 1741POPC   PO425812  24.393  32.446   9.743
 1741POPC   GL125813  24.315  32.425   9.278
 1741POPC   GL225814  24.209  32.108   9.168
 1741POPC   C1A25815  24.413  32.394   8.795
 1741POPC   D2A25816  24.257  32.238   8.380
 1741POPC   C3A25817  24.416  32.244   7.930
 1741POPC   C4A25818  24.520  32.351   7.491
 1741POPC   C1B25819  24.093  31.915   8.780
 1741POPC   C2B25820  23.892  31.846   8.374
 1741POPC   C3B25821  23.949  32.012   7.944
 1741POPC   C4B25822  24.177  31.993   7.535
 1742POPC   NC325823  38.100  37.770   9.607
 1742POPC   PO425824  38.739  37.462   9.632
 1742POPC   GL125825  38.603  37.725   9.249
 1742POPC   GL225826  38.281  37.906   9.152
 1742POPC   C1A25827  38.661  37.673   8.814
 1742POPC   D2A25828  38.614  37.890   8.433
 1742POPC   C3A25829  38.582  37.638   8.093
 1742POPC   C4A25830  38.636  37.756   7.728
 1742POPC   C1B25831  38.177  37.909   8.706
 1742POPC   C2B25832  38.117  37.684   8.318
 1742POPC   C3B25833  38.151  37.772   7.880
 1742POPC   C4B25834  38.082  37.761   7.434
 1743POPC   NC325835  33.527   1.280   9.681
 1743POPC   PO425836  34.030   0.928   9.510
 1743POPC   GL125837  33.680   1.097   9.235
 1743POPC   GL225838  33.967   1.099   9.034
 1743POPC   C1A25839  33.577   1.326   8.844
 1743POPC   D2A25840  33.842   1.150   8.504
 1743POPC   C3A25841  33.769   1.168   8.084
 1743POPC   C4A25842  33.735   1.354   7.674
 1743POPC   C1B25843  34.107   0.782   8.795
 1743POPC   C2B25844  34.264   0.779   8.403
 1743POPC   C3B25845  34.103   0.784   7.996
 1743POPC   C4B25846  34.139   1.010   7.640
 1744POPC   NC325847  11.442  23.879   9.323
 1744POPC   PO425848  11.573  24.387   9.759
 1744POPC   GL125849  11.384  24.433   9.306
 1744POPC   GL225850  11.654  24.679   9.183
 1744POPC   C1A25851  11.184  24.546   8.885
 1744POPC   D2A25852  11.162  24.572   8.392
 1744POPC   C3A25853  11.391  24.334   8.040
 1744POPC   C4A25854  11.619  24.557   7.684
 1744POPC   C1B25855  11.577  24.883   8.816
 1744POPC   C2B25856  11.622  24.997   8.405
 1744POPC   C3B25857  11.435  24.860   8.040
 1744POPC   C4B25858  11.067  24.981   7.839
 1745POPC   NC325859   6.997  26.519   9.555
 1745POPC   PO425860   6.427  26.850   9.712
 1745POPC   GL125861   6.570  26.761   9.260
 1745POPC   GL225862   6.779  26.500   9.107
 1745POPC   C1A25863   6.460  26.768   8.816
 1745POPC   D2A25864   6.633  26.819   8.402
 1745POPC   C3A25865   6.471  26.605   8.097
 1745POPC   C4A25866   6.532  26.631   7.679
 1745POPC   C1B25867   6.972  26.683   8.756
 1745POPC   C2B25868   7.056  26.525   8.339
 1745POPC   C3B25869   6.975  26.688   7.947
 1745POPC   C4B25870   7.018  26.456   7.582
 1746POPC   NC325871  30.718   7.307   9.663
 1746POPC   PO425872  30.461   7.919   9.674
 1746POPC   GL125873  30.761   7.661   9.279
 1746POPC   GL225874  30.557   7.353   9.184
 1746POPC   C1A25875  30.718   7.644   8.737
 1746POPC   D2A25876  30.604   7.785   8.262
 1746POPC   C3A25877  30.805   7.512   7.920
 1746POPC   C4A25878  31.128   7.491   7.589
 1746POPC   C1B25879  30.577   7.158   8.800
 1746POPC   C2B25880  30.735   7.224   8.377
 1746POPC   C3B25881  30.567   7.059   7.984
 1746POPC   C4B25882  30.619   7.127   7.572
 1747POPC   NC325883  21.526  42.718   9.501
 1747POPC   PO425884  21.056  43.180   9.612
 1747POPC   GL125885  21.326  43.184   9.207
 1747POPC   GL225886  21.657  43.019   9.144
 1747POPC   C1A25887  21.483  43.249   8.758
 1747POPC   D2A25888  21.336  43.167   8.382
 1747POPC   C3A25889  21.423  42.935   8.048
 1747POPC   C4A25890  21.571  43.041   7.693
 1747POPC   C1B25891  21.691  42.770   8.721
 1747POPC   C2B25892  21.787  42.626   8.268
 1747POPC   C3B25893  21.796  42.580   7.800
 1747POPC   C4B25894  21.760  42.745   7.335
 1748POPC   NC325895  34.681  25.347   9.720
 1748POPC   PO425896  34.659  26.124   9.550
 1748POPC   GL125897  34.683  26.193   9.142
 1748POPC   GL225898  34.414  26.446   9.135
 1748POPC   C1A25899  34.864  25.992   8.773
 1748POPC   D2A25900  34.918  26.182   8.391
 1748POPC   C3A25901  34.757  25.975   8.051
 1748POPC   C4A25902  34.793  25.997   7.636
 1748POPC   C1B25903  34.478  26.348   8.693
 1748POPC   C2B25904  34.373  26.086   8.375
 1748POPC   C3B25905  34.259  25.938   7.972
 1748POPC   C4B25906  34.280  26.293   7.750
 1749POPC   NC325907  26.315   7.293   9.382
 1749POPC   PO425908  25.885   7.744   9.563
 1749POPC   GL125909  26.033   7.658   9.132
 1749POPC   GL225910  25.870   7.372   9.098
 1749POPC   C1A25911  26.231   7.478   8.729
 1749POPC   D2A25912  26.102   7.272   8.325
 1749POPC   C3A25913  26.202   7.527   7.967
 1749POPC   C4A25914  25.948   7.638   7.590
 1749POPC   C1B25915  25.757   7.255   8.720
 1749POPC   C2B25916  25.517   7.304   8.350
 1749POPC   C3B25917  25.701   7.335   7.960
 1749POPC   C4B25918  26.008   7.143   7.676
 1750POPC   NC325919  26.677   0.507   9.451
 1750POPC   PO425920  27.074  44.921   9.565
 1750POPC   GL125921  27.004   0.146   9.175
 1750POPC   GL225922  26.702   0.254   9.000
 1750POPC   C1A25923  27.137   0.340   8.797
 1750POPC   D2A25924  26.836   0.395   8.483
 1750POPC   C3A25925  26.960   0.449   8.064
 1750POPC   C4A25926  26.890   0.174   7.718
 1750POPC   C1B25927  26.502   0.600   8.819
 1750POPC   C2B25928  26.383   0.642   8.386
 1750POPC   C3B25929  26.464   0.793   7.986
 1750POPC   C4B25930  26.731   0.651   7.654
 1751POPC   NC325931  41.591  30.194   9.811
 1751POPC   PO425932  41.680  30.813   9.497
 1751POPC   GL125933  41.566  30.610   9.138
 1751POPC   GL225934  41.199  30.566   9.199
 1751POPC   C1A25935  41.722  30.669   8.706
 1751POPC   D2A25936  41.905  30.535   8.297
 1751POPC   C3A25937  41.783  30.816   7.970
 1751POPC   C4A25938  41.552  30.994   7.619
 1751POPC   C1B25939  41.222  30.820   8.796
 1751POPC   C2B25940  41.418  30.903   8.364
 1751POPC   C3B25941  41.224  30.822   7.971
 1751POPC   C4B25942  41.177  30.630   7.544
 1752POPC   NC325943   1.815  35.079   9.499
 1752POPC   PO425944   2.350  35.450   9.349
 1752POPC   GL125945   2.003  35.502   9.046
 1752POPC   GL225946   1.683  35.358   9.096
 1752POPC   C1A25947   1.868  35.563   8.603
 1752POPC   D2A25948   1.848  35.604   8.123
 1752POPC   C3A25949   2.197  35.590   7.847
 1752POPC   C4A25950   2.174  35.527   7.401
 1752POPC   C1B25951   1.741  35.078   8.778
 1752POPC   C2B25952   1.695  35.128   8.357
 1752POPC   C3B25953   1.895  35.117   7.982
 1752POPC   C4B25954   1.747  35.331   7.623
 1753POPC   NC325955  43.356  42.392   9.333
 1753POPC   PO425956  43.329  41.811   9.696
 1753POPC   GL125957  42.991  42.011   9.263
 1753POPC   GL225958  42.863  42.322   9.173
 1753POPC   C1A25959  43.087  42.103   8.748
 1753POPC   D2A25960  43.424  42.264   8.395
 1753POPC   C3A25961  43.281  42.393   7.960
 1753POPC   C4A25962  42.964  42.099   7.838
 1753POPC   C1B25963  42.898  42.570   8.784
 1753POPC   C2B25964  42.928  42.455   8.366
 1753POPC   C3B25965  42.846  42.687   8.030
 1753POPC   C4B25966  42.853  42.562   7.632
 1754POPC   NC325967  39.313  40.077   9.628
 1754POPC   PO425968  39.297  39.685   9.098
 1754POPC   GL125969  39.034  40.051   9.139
 1754POPC   GL225970  39.296  40.304   9.131
 1754POPC   C1A25971  38.937  40.280   8.750
 1754POPC   D2A25972  39.203  40.320   8.349
 1754POPC   C3A25973  39.179  40.007   7.986
 1754POPC   C4A25974  38.809  39.893   7.731
 1754POPC   C1B25975  39.353  40.612   8.760
 1754POPC   C2B25976  39.642  40.594   8.380
 1754POPC   C3B25977  39.495  40.423   7.924
 1754POPC   C4B25978  39.543  40.445   7.460
 1755POPC   NC325979  10.804  25.523   9.339
 1755POPC   PO425980  10.168  25.679   9.598
 1755POPC   GL125981  10.287  25.422   9.236
 1755POPC   GL225982  10.050  25.539   9.040
 1755POPC   C1A25983  10.486  25.241   8.821
 1755POPC   D2A25984  10.688  25.438   8.453
 1755POPC   C3A25985  10.667  25.242   8.037
 1755POPC   C4A25986  10.620  25.086   7.624
 1755POPC   C1B25987   9.998  25.248   8.695
 1755POPC   C2B25988  10.247  25.123   8.329
 1755POPC   C3B25989  10.166  25.002   7.891
 1755POPC   C4B25990  10.149  25.036   7.434
 1756POPC   NC325991  42.349  15.825   9.862
 1756POPC   PO425992  42.044  15.834   9.500
 1756POPC   GL125993  42.141  15.982   9.081
 1756POPC   GL225994  42.433  15.726   8.988
 1756POPC   C1A25995  42.033  16.328   8.736
 1756POPC   D2A25996  42.282  16.273   8.321
 1756POPC   C3A25997  42.047  16.160   7.907
 1756POPC   C4A25998  41.882  15.883   7.575
 1756POPC   C1B25999  42.603  15.698   8.520
 1756POPC   C2B26000  42.345  15.815   8.122
 1756POPC   C3B26001  42.358  15.760   7.688
 1756POPC   C4B26002  42.305  15.888   7.264
 1757POPC   NC326003  38.551  18.051   9.601
 1757POPC   PO426004  38.170  18.598   9.673
 1757POPC   GL126005  38.368  18.529   9.206
 1757POPC   GL226006  38.505  18.219   9.119
 1757POPC   C1A26007  38.307  18.487   8.723
 1757POPC   D2A26008  38.200  18.595   8.271
 1757POPC   C3A26009  38.311  18.430   7.854
 1757POPC   C4A26010  38.407  18.038   7.626
 1757POPC   C1B26011  38.701  18.183   8.712
 1757POPC   C2B26012  38.494  18.133   8.324
 1757POPC   C3B26013  38.749  18.173   7.975
 1757POPC   C4B26014  38.828  18.305   7.560
 1758POPC   NC326015  13.139   3.852   9.472
 1758POPC   PO426016  13.171   4.636   9.591
 1758POPC   GL126017  12.931   4.436   9.237
 1758POPC   GL226018  13.123   4.169   9.100
 1758POPC   C1A26019  12.744   4.371   8.839
 1758POPC   D2A26020  12.545   4.409   8.431
 1758POPC   C3A26021  12.745   4.407   8.072
 1758POPC   C4A26022  12.899   4.383   7.682
 1758POPC   C1B26023  13.245   4.031   8.712
 1758POPC   C2B26024  13.148   4.234   8.341
 1758POPC   C3B26025  13.242   4.112   7.930
 1758POPC   C4B26026  13.061   3.922   7.559
 1759POPC   NC326027  14.868  32.028   9.657
 1759POPC   PO426028  15.306  32.479   9.345
 1759POPC   GL126029  15.338  32.161   9.064
 1759POPC   GL226030  15.559  31.897   9.146
 1759POPC   C1A26031  15.181  32.247   8.647
 1759POPC   D2A26032  14.964  32.214   8.243
 1759POPC   C3A26033  14.979  32.464   7.869
 1759POPC   C4A26034  15.325  32.612   7.652
 1759POPC   C1B26035  15.661  31.905   8.753
 1759POPC   C2B26036  15.624  32.084   8.407
 1759POPC   C3B26037  15.479  32.050   8.039
 1759POPC   C4B26038  15.628  32.171   7.659
 1760POPC   NC326039   7.725  44.403   9.373
 1760POPC   PO426040   7.059  44.595   9.535
 1760POPC   GL126041   7.342  44.652   9.174
 1760POPC   GL226042   7.269  44.997   9.200
 1760POPC   C1A26043   7.478  44.351   8.799
 1760POPC   D2A26044   7.306  44.308   8.394
 1760POPC   C3A26045   7.620  44.282   8.081
 1760POPC   C4A26046   7.508  44.399   7.668
 1760POPC   C1B26047   7.281  44.959   8.762
 1760POPC   C2B26048   7.555  44.748   8.476
 1760POPC   C3B26049   7.502  44.776   8.039
 1760POPC   C4B26050   7.384  44.886   7.635
 1761POPC   NC326051  17.347  29.828   9.506
 1761POPC   PO426052  17.991  30.114   9.561
 1761POPC   GL126053  17.790  29.875   9.277
 1761POPC   GL226054  17.591  30.144   9.157
 1761POPC   C1A26055  17.765  29.712   8.872
 1761POPC   D2A26056  17.698  29.961   8.517
 1761POPC   C3A26057  17.841  29.768   8.164
 1761POPC   C4A26058  17.549  29.657   7.842
 1761POPC   C1B26059  17.313  29.959   8.857
 1761POPC   C2B26060  17.202  30.116   8.448
 1761POPC   C3B26061  17.372  30.081   8.079
 1761POPC   C4B26062  17.248  30.064   7.675
 1762POPC   NC326063  27.763  19.951   9.579
 1762POPC   PO426064  28.439  19.983   9.479
 1762POPC   GL126065  28.145  19.932   9.157
 1762POPC   GL226066  28.150  20.306   9.088
 1762POPC   C1A26067  28.039  19.638   8.795
 1762POPC   D2A26068  27.836  19.702   8.371
 1762POPC   C3A26069  28.151  19.846   8.062
 1762POPC   C4A26070  28.330  19.681   7.665
 1762POPC   C1B26071  28.223  20.107   8.688
 1762POPC   C2B26072  28.528  20.059   8.395
 1762POPC   C3B26073  28.840  20.118   8.137
 1762POPC   C4B26074  28.556  20.120   7.797
 1763POPC   NC326075  43.266  28.527   9.501
 1763POPC   PO426076  42.649  28.281   9.492
 1763POPC   GL126077  42.911  28.421   9.154
 1763POPC   GL226078  43.249  28.238   9.077
 1763POPC   C1A26079  43.038  28.587   8.746
 1763POPC   D2A26080  43.226  28.508   8.324
 1763POPC   C3A26081  42.961  28.454   7.946
 1763POPC   C4A26082  42.998  28.308   7.511
 1763POPC   C1B26083  42.978  28.077   8.746
 1763POPC   C2B26084  43.002  28.018   8.306
 1763POPC   C3B26085  43.119  27.908   7.906
 1763POPC   C4B26086  43.065  27.813   7.459
 1764POPC   NC326087  30.900  17.087   9.428
 1764POPC   PO426088  30.377  16.664   9.488
 1764POPC   GL126089  30.556  16.635   9.128
 1764POPC   GL226090  30.374  16.328   9.004
 1764POPC   C1A26091  30.844  16.809   8.831
 1764POPC   D2A26092  30.863  17.004   8.445
 1764POPC   C3A26093  30.593  16.910   8.109
 1764POPC   C4A26094  30.678  16.838   7.690
 1764POPC   C1B26095  30.775  16.309   8.822
 1764POPC   C2B26096  30.798  16.502   8.421
 1764POPC   C3B26097  30.777  16.453   8.019
 1764POPC   C4B26098  30.461  16.354   7.719
 1765POPC   NC326099  42.159  23.935   9.476
 1765POPC   PO426100  42.734  23.568   9.730
 1765POPC   GL126101  42.494  23.577   9.326
 1765POPC   GL226102  42.668  23.389   9.110
 1765POPC   C1A26103  42.446  23.824   8.889
 1765POPC   D2A26104  42.389  23.723   8.433
 1765POPC   C3A26105  42.210  23.904   8.045
 1765POPC   C4A26106  42.338  23.904   7.577
 1765POPC   C1B26107  42.780  23.492   8.684
 1765POPC   C2B26108  42.920  23.390   8.262
 1765POPC   C3B26109  42.747  23.624   7.918
 1765POPC   C4B26110  42.830  23.838   7.544
 1766POPC   NC326111  23.617  21.920   9.545
 1766POPC   PO426112  23.970  21.276   9.576
 1766POPC   GL126113  23.635  21.359   9.266
 1766POPC   GL226114  23.702  21.677   9.090
 1766POPC   C1A26115  23.529  21.250   8.820
 1766POPC   D2A26116  23.538  20.995   8.409
 1766POPC   C3A26117  23.631  21.287   8.070
 1766POPC   C4A26118  23.476  21.667   7.862
 1766POPC   C1B26119  23.957  21.881   8.741
 1766POPC   C2B26120  23.863  21.712   8.298
 1766POPC   C3B26121  23.961  21.803   7.866
 1766POPC   C4B26122  23.771  21.834   7.404
 1767POPC   NC326123  17.128   7.964   9.400
 1767POPC   PO426124  16.494   8.014   9.574
 1767POPC   GL126125  16.698   8.163   9.204
 1767POPC   GL226126  16.598   8.504   9.219
 1767POPC   C1A26127  16.669   7.873   8.843
 1767POPC   D2A26128  16.750   7.751   8.419
 1767POPC   C3A26129  16.554   7.951   8.074
 1767POPC   C4A26130  16.766   8.062   7.695
 1767POPC   C1B26131  16.768   8.486   8.798
 1767POPC   C2B26132  16.607   8.354   8.417
 1767POPC   C3B26133  16.582   8.462   8.005
 1767POPC   C4B26134  16.901   8.547   7.699
 1768POPC   NC326135   7.242  35.884   9.558
 1768POPC   PO426136   7.653  36.314   9.657
 1768POPC   GL126137   7.550  36.189   9.249
 1768POPC   GL226138   7.746  35.896   9.271
 1768POPC   C1A26139   7.386  36.141   8.814
 1768POPC   D2A26140   7.483  36.309   8.383
 1768POPC   C3A26141   7.227  36.263   7.987
 1768POPC   C4A26142   7.345  35.930   7.671
 1768POPC   C1B26143   7.908  36.122   8.894
 1768POPC   C2B26144   8.033  36.054   8.491
 1768POPC   C3B26145   7.954  35.879   8.124
 1768POPC   C4B26146   7.711  36.146   7.948
 1769POPC   NC326147  17.140  44.223   9.504
 1769POPC   PO426148  16.574  43.847   9.448
 1769POPC   GL126149  16.841  43.870   9.119
 1769POPC   GL226150  16.819  44.180   9.123
 1769POPC   C1A26151  16.677  43.774   8.721
 1769POPC   D2A26152  16.531  43.491   8.381
 1769POPC   C3A26153  16.512  43.749   8.007
 1769POPC   C4A26154  16.550  43.950   7.610
 1769POPC   C1B26155  16.963  44.291   8.732
 1769POPC   C2B26156  16.833  44.113   8.353
 1769POPC   C3B26157  16.788  44.219   7.954
 1769POPC   C4B26158  16.998  44.200   7.537
 1770POPC   NC326159  37.537   1.115   9.273
 1770POPC   PO426160  38.054   1.545   9.340
 1770POPC   GL126161  37.933   1.326   8.982
 1770POPC   GL226162  37.987   0.996   9.051
 1770POPC   C1A26163  37.600   1.296   8.634
 1770POPC   D2A26164  37.744   1.250   8.189
 1770POPC   C3A26165  37.475   1.318   7.856
 1770POPC   C4A26166  37.835   1.332   7.626
 1770POPC   C1B26167  37.956   0.958   8.593
 1770POPC   C2B26168  37.587   0.803   8.350
 1770POPC   C3B26169  37.611   0.825   7.904
 1770POPC   C4B26170  37.821   0.833   7.518
 1771POPC   NC326171  14.281  26.403   9.518
 1771POPC   PO426172  14.496  25.742   9.516
 1771POPC   GL126173  14.449  26.060   9.144
 1771POPC   GL226174  14.704  26.300   9.119
 1771POPC   C1A26175  14.282  26.005   8.712
 1771POPC   D2A26176  14.458  25.776   8.378
 1771POPC   C3A26177  14.340  25.845   7.947
 1771POPC   C4A26178  14.498  25.959   7.550
 1771POPC   C1B26179  14.599  26.448   8.690
 1771POPC   C2B26180  14.380  26.305   8.313
 1771POPC   C3B26181  14.427  26.345   7.882
 1771POPC   C4B26182  14.769  26.462   7.616
 1772POPC   NC326183  23.228  20.194   9.511
 1772POPC   PO426184  22.892  20.753   9.685
 1772POPC   GL126185  22.841  20.646   9.244
 1772POPC   GL226186  23.188  20.607   9.195
 1772POPC   C1A26187  22.746  20.559   8.783
 1772POPC   D2A26188  22.551  20.326   8.421
 1772POPC   C3A26189  22.678  20.487   8.010
 1772POPC   C4A26190  22.898  20.832   7.850
 1772POPC   C1B26191  23.285  20.575   8.752
 1772POPC   C2B26192  23.127  20.671   8.337
 1772POPC   C3B26193  23.365  20.669   7.946
 1772POPC   C4B26194  23.228  20.651   7.482
 1773POPC   NC326195  34.911  27.674   9.598
 1773POPC   PO426196  35.605  27.861   9.689
 1773POPC   GL126197  35.484  27.787   9.195
 1773POPC   GL226198  35.175  27.610   9.169
 1773POPC   C1A26199  35.442  27.456   8.776
 1773POPC   D2A26200  35.478  27.227   8.350
 1773POPC   C3A26201  35.357  27.407   7.934
 1773POPC   C4A26202  35.134  27.527   7.564
 1773POPC   C1B26203  35.140  27.857   8.772
 1773POPC   C2B26204  35.202  27.698   8.365
 1773POPC   C3B26205  35.015  27.804   7.988
 1773POPC   C4B26206  35.148  28.037   7.636
 1774POPC   NC326207  11.054  13.487   9.456
 1774POPC   PO426208  11.698  13.248   9.649
 1774POPC   GL126209  11.495  13.390   9.157
 1774POPC   GL226210  11.159  13.377   8.952
 1774POPC   C1A26211  11.553  13.670   8.793
 1774POPC   D2A26212  11.370  13.818   8.417
 1774POPC   C3A26213  11.520  13.682   8.023
 1774POPC   C4A26214  11.370  13.668   7.592
 1774POPC   C1B26215  10.995  13.795   8.806
 1774POPC   C2B26216  10.923  14.106   8.466
 1774POPC   C3B26217  11.055  13.997   8.032
 1774POPC   C4B26218  10.813  13.720   7.773
 1775POPC   NC326219   2.302  14.871   9.395
 1775POPC   PO426220   2.261  15.474   9.648
 1775POPC   GL126221   2.246  15.341   9.196
 1775POPC   GL226222   1.960  15.101   9.099
 1775POPC   C1A26223   2.173  15.348   8.727
 1775POPC   D2A26224   1.886  15.386   8.377
 1775POPC   C3A26225   2.150  15.424   8.033
 1775POPC   C4A26226   2.392  15.242   7.707
 1775POPC   C1B26227   2.179  14.836   8.736
 1775POPC   C2B26228   2.138  14.923   8.273
 1775POPC   C3B26229   1.995  14.943   7.835
 1775POPC   C4B26230   1.752  15.036   7.438
 1776POPC   NC326231  24.440  11.516   9.564
 1776POPC   PO426232  24.600  10.970   9.382
 1776POPC   GL126233  24.321  11.255   9.135
 1776POPC   GL226234  24.100  11.618   9.193
 1776POPC   C1A26235  24.484  11.151   8.727
 1776POPC   D2A26236  24.662  10.933   8.379
 1776POPC   C3A26237  24.528  11.125   8.005
 1776POPC   C4A26238  24.743  11.385   7.723
 1776POPC   C1B26239  24.215  11.581   8.762
 1776POPC   C2B26240  24.380  11.493   8.350
 1776POPC   C3B26241  24.222  11.607   7.948
 1776POPC   C4B26242  24.089  12.071   7.845
 1777POPC   NC326243  16.782  27.482   9.359
 1777POPC   PO426244  16.148  27.725   9.304
 1777POPC   GL126245  16.395  27.620   8.986
 1777POPC   GL226246  16.764  27.695   8.907
 1777POPC   C1A26247  16.478  27.300   8.749
 1777POPC   D2A26248  16.890  27.276   8.601
 1777POPC   C3A26249  16.874  27.454   8.187
 1777POPC   C4A26250  16.862  27.141   7.838
 1777POPC   C1B26251  17.144  27.758   8.675
 1777POPC   C2B26252  17.224  27.982   8.309
 1777POPC   C3B26253  17.177  27.823   7.899
 1777POPC   C4B26254  16.851  27.639   7.701
 1778POPC   NC326255  15.567   9.109   9.610
 1778POPC   PO426256  16.172   8.776   9.620
 1778POPC   GL126257  15.936   8.815   9.270
 1778POPC   GL226258  15.854   9.169   9.212
 1778POPC   C1A26259  15.987   8.828   8.840
 1778POPC   D2A26260  16.112   8.584   8.486
 1778POPC   C3A26261  16.139   8.770   8.090
 1778POPC   C4A26262  16.033   8.643   7.685
 1778POPC   C1B26263  16.059   9.338   8.906
 1778POPC   C2B26264  16.143   9.183   8.500
 1778POPC   C3B26265  16.014   9.288   8.121
 1778POPC   C4B26266  16.100   9.166   7.724
 1779POPC   NC326267  34.997   3.363   9.440
 1779POPC   PO426268  35.480   2.919   9.779
 1779POPC   GL126269  35.520   3.019   9.303
 1779POPC   GL226270  35.179   2.988   9.142
 1779POPC   C1A26271  35.576   2.779   8.893
 1779POPC   D2A26272  35.285   2.699   8.540
 1779POPC   C3A26273  35.455   2.676   8.110
 1779POPC   C4A26274  35.349   2.550   7.690
 1779POPC   C1B26275  35.276   3.177   8.730
 1779POPC   C2B26276  35.149   3.108   8.265
 1779POPC   C3B26277  34.994   2.850   7.895
 1779POPC   C4B26278  34.897   2.950   7.431
 1780POPC   NC326279   2.759  41.101   9.463
 1780POPC   PO426280   2.667  40.390   9.373
 1780POPC   GL126281   2.877  40.696   9.101
 1780POPC   GL226282   3.067  41.035   9.078
 1780POPC   C1A26283   2.784  40.835   8.699
 1780POPC   D2A26284   2.634  40.855   8.296
 1780POPC   C3A26285   2.679  40.513   7.995
 1780POPC   C4A26286   2.637  40.584   7.548
 1780POPC   C1B26287   3.325  40.972   8.744
 1780POPC   C2B26288   3.215  40.745   8.403
 1780POPC   C3B26289   3.078  40.822   8.006
 1780POPC   C4B26290   3.130  40.605   7.623
 1781POPC   NC326291  33.250   0.564   9.321
 1781POPC   PO426292  32.750   0.127   9.559
 1781POPC   GL126293  32.886   0.213   9.158
 1781POPC   GL226294  32.739   0.556   9.193
 1781POPC   C1A26295  33.106   0.225   8.738
 1781POPC   D2A26296  33.371   0.162   8.353
 1781POPC   C3A26297  33.203   0.353   7.966
 1781POPC   C4A26298  33.096   0.307   7.519
 1781POPC   C1B26299  32.645   0.469   8.765
 1781POPC   C2B26300  32.849   0.472   8.345
 1781POPC   C3B26301  32.655   0.473   7.947
 1781POPC   C4B26302  32.609   0.467   7.504
 1782POPC   NC326303   8.481  14.339   9.485
 1782POPC   PO426304   9.103  14.320   9.509
 1782POPC   GL126305   9.039  14.639   9.186
 1782POPC   GL226306   8.671  14.699   9.052
 1782POPC   C1A26307   9.128  14.574   8.786
 1782POPC   D2A26308   9.147  14.187   8.549
 1782POPC   C3A26309   9.288  14.282   8.177
 1782POPC   C4A26310   9.092  14.322   7.798
 1782POPC   C1B26311   8.645  14.619   8.601
 1782POPC   C2B26312   8.823  14.551   8.187
 1782POPC   C3B26313   8.746  14.680   7.730
 1782POPC   C4B26314   8.769  14.749   7.270
 1783POPC   NC326315  26.867  35.795   9.477
 1783POPC   PO426316  26.430  36.315   9.497
 1783POPC   GL126317  26.633  36.395   9.093
 1783POPC   GL226318  27.028  36.425   9.101
 1783POPC   C1A26319  26.511  36.262   8.672
 1783POPC   D2A26320  26.438  36.085   8.267
 1783POPC   C3A26321  26.730  36.263   8.016
 1783POPC   C4A26322  26.724  36.449   7.608
 1783POPC   C1B26323  26.961  36.075   8.837
 1783POPC   C2B26324  27.012  35.979   8.408
 1783POPC   C3B26325  27.160  35.977   7.980
 1783POPC   C4B26326  27.001  36.024   7.557
 1784POPC   NC326327  33.659  17.940   9.748
 1784POPC   PO426328  33.851  18.507   9.633
 1784POPC   GL126329  33.739  18.260   9.247
 1784POPC   GL226330  34.022  18.083   9.139
 1784POPC   C1A26331  33.631  18.203   8.767
 1784POPC   D2A26332  33.514  18.342   8.328
 1784POPC   C3A26333  33.573  18.088   7.938
 1784POPC   C4A26334  33.596  17.941   7.491
 1784POPC   C1B26335  34.036  18.500   8.878
 1784POPC   C2B26336  33.966  18.553   8.440
 1784POPC   C3B26337  34.033  18.332   8.055
 1784POPC   C4B26338  33.885  18.358   7.624
 1785POPC   NC326339   0.760   4.170   9.287
 1785POPC   PO426340   0.364   4.708   9.410
 1785POPC   GL126341   0.376   4.440   9.083
 1785POPC   GL226342   0.143   4.165   9.139
 1785POPC   C1A26343   0.611   4.480   8.706
 1785POPC   D2A26344   0.822   4.532   8.332
 1785POPC   C3A26345   0.515   4.540   7.972
 1785POPC   C4A26346   0.509   4.375   7.542
 1785POPC   C1B26347   0.372   4.022   8.751
 1785POPC   C2B26348   0.459   4.156   8.321
 1785POPC   C3B26349   0.407   4.005   7.905
 1785POPC   C4B26350   0.066   3.808   7.687
 1786POPC   NC326351  43.635  36.789   9.327
 1786POPC   PO426352  43.088  37.071   9.557
 1786POPC   GL126353  43.074  37.023   9.154
 1786POPC   GL226354  43.392  37.195   9.137
 1786POPC   C1A26355  42.896  36.878   8.755
 1786POPC   D2A26356  43.104  36.783   8.363
 1786POPC   C3A26357  42.863  36.709   8.024
 1786POPC   C4A26358  42.792  36.975   7.699
 1786POPC   C1B26359  43.416  36.969   8.745
 1786POPC   C2B26360  43.608  36.944   8.367
 1786POPC   C3B26361  43.610  36.749   7.969
 1786POPC   C4B26362  43.285  36.808   7.730
 1787POPC   NC326363  38.869  37.986   9.591
 1787POPC   PO426364  39.455  38.480   9.530
 1787POPC   GL126365  39.313  38.353   9.123
 1787POPC   GL226366  38.985  38.252   9.166
 1787POPC   C1A26367  39.441  38.341   8.674
 1787POPC   D2A26368  39.278  38.653   8.363
 1787POPC   C3A26369  39.102  38.557   7.961
 1787POPC   C4A26370  39.277  38.615   7.587
 1787POPC   C1B26371  38.974  38.514   8.776
 1787POPC   C2B26372  38.883  38.333   8.384
 1787POPC   C3B26373  38.897  38.098   8.019
 1787POPC   C4B26374  38.863  38.211   7.591
 1788POPC   NC326375  28.282  19.517   9.439
 1788POPC   PO426376  28.214  18.835   9.508
 1788POPC   GL126377  28.282  19.072   9.181
 1788POPC   GL226378  27.993  19.242   9.147
 1788POPC   C1A26379  28.410  19.255   8.777
 1788POPC   D2A26380  28.305  19.458   8.386
 1788POPC   C3A26381  28.515  19.231   8.055
 1788POPC   C4A26382  28.593  19.225   7.616
 1788POPC   C1B26383  27.937  19.078   8.775
 1788POPC   C2B26384  27.858  19.182   8.349
 1788POPC   C3B26385  28.028  19.340   7.941
 1788POPC   C4B26386  28.058  19.334   7.446
 1789POPC   NC326387  44.894   0.975   9.506
 1789POPC   PO426388  44.447   1.566   9.470
 1789POPC   GL126389  44.563   1.295   9.121
 1789POPC   GL226390  44.872   1.140   9.017
 1789POPC   C1A26391  44.470   1.214   8.686
 1789POPC   D2A26392  44.544   0.834   8.408
 1789POPC   C3A26393  44.614   0.931   7.959
 1789POPC   C4A26394  44.377   1.183   7.647
 1789POPC   C1B26395   0.009   1.102   8.586
 1789POPC   C2B26396  44.769   1.305   8.279
 1789POPC   C3B26397  44.637   1.485   7.940
 1789POPC   C4B26398  44.855   1.331   7.610
 1790POPC   NC326399   6.796  14.011   9.472
 1790POPC   PO426400   7.368  14.304   9.482
 1790POPC   GL126401   7.290  14.512   9.113
 1790POPC   GL226402   6.960  14.360   9.124
 1790POPC   C1A26403   7.319  14.592   8.664
 1790POPC   D2A26404   7.644  14.494   8.317
 1790POPC   C3A26405   7.481  14.303   7.919
 1790POPC   C4A26406   7.495  13.859   7.868
 1790POPC   C1B26407   7.069  14.115   8.812
 1790POPC   C2B26408   7.204  14.171   8.382
 1790POPC   C3B26409   7.114  14.566   8.166
 1790POPC   C4B26410   6.949  14.672   7.764
 1791POPC   NC326411  19.363  40.260   9.563
 1791POPC   PO426412  18.753  40.210   9.693
 1791POPC   GL126413  18.985  40.120   9.259
 1791POPC   GL226414  19.196  39.794   9.267
 1791POPC   C1A26415  19.254  40.100   8.857
 1791POPC   D2A26416  19.264  39.842   8.463
 1791POPC   C3A26417  19.299  39.972   8.024
 1791POPC   C4A26418  19.003  39.951   7.680
 1791POPC   C1B26419  19.177  39.538   8.877
 1791POPC   C2B26420  18.936  39.417   8.488
 1791POPC   C3B26421  18.939  39.612   8.068
 1791POPC   C4B26422  19.263  39.526   7.723
 1792POPC   NC326423  28.862  12.017   9.530
 1792POPC   PO426424  29.569  12.244   9.612
 1792POPC   GL126425  29.267  12.238   9.169
 1792POPC   GL226426  28.976  12.033   9.048
 1792POPC   C1A26427  29.349  12.017   8.713
 1792POPC   D2A26428  29.097  11.895   8.331
 1792POPC   C3A26429  29.277  11.967   7.940
 1792POPC   C4A26430  29.293  11.900   7.493
 1792POPC   C1B26431  28.862  12.216   8.632
 1792POPC   C2B26432  29.011  12.401   8.187
 1792POPC   C3B26433  28.992  12.310   7.707
 1792POPC   C4B26434  28.646  12.253   7.387
 1793POPC   NC326435  11.444  32.026   9.391
 1793POPC   PO426436  11.362  32.710   9.556
 1793POPC   GL126437  11.356  32.485   9.147
 1793POPC   GL226438  11.080  32.215   9.087
 1793POPC   C1A26439  11.504  32.380   8.713
 1793POPC   D2A26440  11.395  32.527   8.293
 1793POPC   C3A26441  11.510  32.312   7.869
 1793POPC   C4A26442  11.600  32.378   7.400
 1793POPC   C1B26443  11.036  32.195   8.616
 1793POPC   C2B26444  10.999  32.244   8.148
 1793POPC   C3B26445  10.857  32.158   7.726
 1793POPC   C4B26446  10.947  32.110   7.283
 1794POPC   NC326447  27.374   6.851   9.528
 1794POPC   PO426448  27.797   6.365   9.504
 1794POPC   GL126449  27.714   6.670   9.176
 1794POPC   GL226450  27.330   6.664   9.059
 1794POPC   C1A26451  27.706   6.819   8.760
 1794POPC   D2A26452  27.407   6.672   8.455
 1794POPC   C3A26453  27.638   6.552   8.104
 1794POPC   C4A26454  27.764   6.602   7.662
 1794POPC   C1B26455  27.303   7.104   8.882
 1794POPC   C2B26456  27.401   7.178   8.450
 1794POPC   C3B26457  27.465   7.014   8.017
 1794POPC   C4B26458  27.265   6.608   7.787
 1795POPC   NC326459  15.389   6.697   9.466
 1795POPC   PO426460  14.809   6.406   9.501
 1795POPC   GL126461  15.018   6.582   9.086
 1795POPC   GL226462  15.145   6.931   9.081
 1795POPC   C1A26463  15.060   6.604   8.595
 1795POPC   D2A26464  14.952   6.423   8.160
 1795POPC   C3A26465  14.877   6.583   7.739
 1795POPC   C4A26466  15.029   6.923   7.450
 1795POPC   C1B26467  15.404   6.966   8.707
 1795POPC   C2B26468  15.377   6.865   8.286
 1795POPC   C3B26469  15.189   6.938   7.945
 1795POPC   C4B26470  15.503   7.031   7.670
 1796POPC   NC326471  31.205  37.400   9.514
 1796POPC   PO426472  31.359  38.097   9.572
 1796POPC   GL126473  31.393  37.792   9.203
 1796POPC   GL226474  31.612  37.496   9.211
 1796POPC   C1A26475  31.579  37.712   8.766
 1796POPC   D2A26476  31.614  37.465   8.415
 1796POPC   C3A26477  31.543  37.715   8.076
 1796POPC   C4A26478  31.392  37.635   7.690
 1796POPC   C1B26479  31.275  37.334   8.883
 1796POPC   C2B26480  31.188  37.130   8.516
 1796POPC   C3B26481  31.136  37.345   8.159
 1796POPC   C4B26482  31.041  37.272   7.763
 1797POPC   NC326483  13.839  23.052   9.556
 1797POPC   PO426484  13.193  22.808   9.481
 1797POPC   GL126485  13.408  22.674   9.126
 1797POPC   GL226486  13.585  22.992   9.122
 1797POPC   C1A26487  13.583  22.654   8.707
 1797POPC   D2A26488  13.665  22.545   8.303
 1797POPC   C3A26489  13.603  22.781   7.958
 1797POPC   C4A26490  13.877  23.025   7.783
 1797POPC   C1B26491  13.443  23.127   8.737
 1797POPC   C2B26492  13.639  23.118   8.334
 1797POPC   C3B26493  13.465  23.284   7.932
 1797POPC   C4B26494  13.281  23.035   7.617
 1798POPC   NC326495   2.401  27.781   9.310
 1798POPC   PO426496   3.028  27.790   9.541
 1798POPC   GL126497   2.892  27.730   9.135
 1798POPC   GL226498   2.783  27.406   9.201
 1798POPC   C1A26499   3.020  27.616   8.730
 1798POPC   D2A26500   3.000  27.807   8.307
 1798POPC   C3A26501   2.898  27.645   7.901
 1798POPC   C4A26502   2.490  27.699   7.662
 1798POPC   C1B26503   2.703  27.211   8.808
 1798POPC   C2B26504   2.761  27.332   8.388
 1798POPC   C3B26505   2.484  27.427   8.088
 1798POPC   C4B26506   2.671  27.218   7.707
 1799POPC   NC326507  19.997  42.650   9.289
 1799POPC   PO426508  19.747  43.247   9.494
 1799POPC   GL126509  19.924  43.173   9.130
 1799POPC   GL226510  19.574  43.111   8.979
 1799POPC   C1A26511  20.007  43.116   8.702
 1799POPC   D2A26512  19.764  43.101   8.338
 1799POPC   C3A26513  19.951  42.882   7.994
 1799POPC   C4A26514  20.093  43.092   7.665
 1799POPC   C1B26515  19.669  43.517   8.777
 1799POPC   C2B26516  19.682  43.654   8.342
 1799POPC   C3B26517  19.804  43.445   7.961
 1799POPC   C4B26518  19.626  43.309   7.620
 1800POPC   NC326519  15.704   0.489   9.673
 1800POPC   PO426520  16.303   0.324   9.833
 1800POPC   GL126521  16.171   0.342   9.357
 1800POPC   GL226522  15.878   0.544   9.205
 1800POPC   C1A26523  15.994   0.139   8.940
 1800POPC   D2A26524  15.883   0.361   8.556
 1800POPC   C3A26525  15.747   0.264   8.144
 1800POPC   C4A26526  15.912   0.208   7.713
 1800POPC   C1B26527  15.580   0.670   8.873
 1800POPC   C2B26528  15.419   0.617   8.470
 1800POPC   C3B26529  15.434   0.827   8.120
 1800POPC   C4B26530  15.548   0.610   7.772
 1801POPC   NC326531  37.574  39.933   9.493
 1801POPC   PO426532  37.967  40.407   9.432
 1801POPC   GL126533  37.690  40.251   9.101
 1801POPC   GL226534  37.772  39.870   9.049
 1801POPC   C1A26535  37.519  40.120   8.696
 1801POPC   D2A26536  37.691  39.989   8.328
 1801POPC   C3A26537  37.452  39.983   7.949
 1801POPC   C4A26538  37.533  40.264   7.639
 1801POPC   C1B26539  38.104  39.677   8.828
 1801POPC   C2B26540  38.097  39.679   8.405
 1801POPC   C3B26541  37.877  39.501   8.054
 1801POPC   C4B26542  37.803  39.698   7.681
 1802POPC   NC326543  20.118  11.105   9.552
 1802POPC   PO426544  19.653  11.616   9.528
 1802POPC   GL126545  19.782  11.337   9.231
 1802POPC   GL226546  20.120  11.294   9.062
 1802POPC   C1A26547  19.662  11.210   8.852
 1802POPC   D2A26548  19.934  11.227   8.518
 1802POPC   C3A26549  19.785  11.053   8.163
 1802POPC   C4A26550  19.701  11.255   7.806
 1802POPC   C1B26551  20.254  10.927   8.791
 1802POPC   C2B26552  20.247  10.804   8.333
 1802POPC   C3B26553  20.205  11.010   7.902
 1802POPC   C4B26554  20.168  11.450   7.738
 1803POPC   NC326555  33.179  16.247   9.732
 1803POPC   PO426556  33.249  15.657   9.276
 1803POPC   GL126557  33.195  16.003   9.032
 1803POPC   GL226558  32.834  15.998   8.967
 1803POPC   C1A26559  33.155  16.129   8.593
 1803POPC   D2A26560  33.139  15.852   8.281
 1803POPC   C3A26561  33.254  16.000   7.894
 1803POPC   C4A26562  32.971  15.767   7.693
 1803POPC   C1B26563  32.641  16.130   8.586
 1803POPC   C2B26564  32.756  16.293   8.187
 1803POPC   C3B26565  32.701  16.202   7.753
 1803POPC   C4B26566  32.895  16.127   7.346
 1804POPC   NC326567  42.594  22.376   9.531
 1804POPC   PO426568  42.488  21.740   9.242
 1804POPC   GL126569  42.385  22.173   9.110
 1804POPC   GL226570  42.077  22.341   9.194
 1804POPC   C1A26571  42.351  22.321   8.694
 1804POPC   D2A26572  42.426  22.065   8.361
 1804POPC   C3A26573  42.499  22.149   7.964
 1804POPC   C4A26574  42.456  21.832   7.675
 1804POPC   C1B26575  41.963  22.021   8.857
 1804POPC   C2B26576  41.973  21.856   8.434
 1804POPC   C3B26577  41.999  21.981   7.996
 1804POPC   C4B26578  42.102  22.194   7.642
 1805POPC   NC326579  28.758  15.669   9.527
 1805POPC   PO426580  29.380  15.802   9.485
 1805POPC   GL126581  29.257  15.884   9.095
 1805POPC   GL226582  28.907  15.998   9.145
 1805POPC   C1A26583  29.275  15.653   8.707
 1805POPC   D2A26584  29.066  15.711   8.331
 1805POPC   C3A26585  29.136  16.060   8.070
 1805POPC   C4A26586  29.202  15.962   7.633
 1805POPC   C1B26587  28.836  15.910   8.748
 1805POPC   C2B26588  28.632  15.979   8.344
 1805POPC   C3B26589  28.655  16.108   7.933
 1805POPC   C4B26590  28.763  16.204   7.518
 1806POPC   NC326591  22.817  32.016   9.656
 1806POPC   PO426592  23.083  32.567   9.673
 1806POPC   GL126593  22.913  32.368   9.290
 1806POPC   GL226594  22.841  31.996   9.152
 1806POPC   C1A26595  22.837  32.424   8.892
 1806POPC   D2A26596  23.040  32.231   8.565
 1806POPC   C3A26597  23.089  32.416   8.156
 1806POPC   C4A26598  22.991  32.464   7.756
 1806POPC   C1B26599  22.787  31.795   8.737
 1806POPC   C2B26600  22.953  31.789   8.319
 1806POPC   C3B26601  23.021  31.959   7.908
 1806POPC   C4B26602  22.737  32.056   7.564
 1807POPC   NC326603   4.813  16.553   9.509
 1807POPC   PO426604   5.234  16.988   9.582
 1807POPC   GL126605   5.170  16.706   9.180
 1807POPC   GL226606   5.482  16.526   9.060
 1807POPC   C1A26607   4.859  16.554   8.844
 1807POPC   D2A26608   4.676  16.749   8.466
 1807POPC   C3A26609   4.879  16.716   8.099
 1807POPC   C4A26610   5.177  16.672   7.735
 1807POPC   C1B26611   5.324  16.731   8.682
 1807POPC   C2B26612   5.382  16.698   8.253
 1807POPC   C3B26613   5.494  17.012   7.990
 1807POPC   C4B26614   5.417  17.269   7.675
 1808POPC   NC326615  38.504  28.193   9.702
 1808POPC   PO426616  38.013  28.524   9.468
 1808POPC   GL126617  38.434  28.521   9.203
 1808POPC   GL226618  38.555  28.204   9.196
 1808POPC   C1A26619  38.758  28.513   8.837
 1808POPC   D2A26620  38.873  28.246   8.480
 1808POPC   C3A26621  38.689  28.365   8.090
 1808POPC   C4A26622  38.397  28.380   7.733
 1808POPC   C1B26623  38.482  28.050   8.778
 1808POPC   C2B26624  38.348  28.063   8.352
 1808POPC   C3B26625  38.455  27.916   7.943
 1808POPC   C4B26626  38.250  27.893   7.535
 1809POPC   NC326627  15.992   9.998   9.782
 1809POPC   PO426628  15.525   9.499   9.867
 1809POPC   GL126629  15.744   9.646   9.398
 1809POPC   GL226630  16.031   9.894   9.289
 1809POPC   C1A26631  15.702   9.773   8.932
 1809POPC   D2A26632  15.895   9.636   8.524
 1809POPC   C3A26633  15.877   9.784   8.108
 1809POPC   C4A26634  15.807   9.611   7.712
 1809POPC   C1B26635  16.192   9.842   8.869
 1809POPC   C2B26636  16.192  10.062   8.462
 1809POPC   C3B26637  16.276  10.100   8.027
 1809POPC   C4B26638  16.209  10.010   7.579
 1810POPC   NC326639  37.140  25.136   9.623
 1810POPC   PO426640  36.733  25.650   9.490
 1810POPC   GL126641  36.798  25.321   9.176
 1810POPC   GL226642  37.094  25.105   9.120
 1810POPC   C1A26643  36.801  25.303   8.740
 1810POPC   D2A26644  36.968  25.374   8.345
 1810POPC   C3A26645  36.759  25.100   8.096
 1810POPC   C4A26646  36.804  25.066   7.690
 1810POPC   C1B26647  37.280  25.024   8.719
 1810POPC   C2B26648  37.206  24.915   8.269
 1810POPC   C3B26649  37.257  25.159   7.890
 1810POPC   C4B26650  37.279  25.046   7.406
 1811POPC   NC326651  24.787  12.491   9.466
 1811POPC   PO426652  24.389  11.970   9.504
 1811POPC   GL126653  24.502  11.924   9.101
 1811POPC   GL226654  24.689  12.206   9.051
 1811POPC   C1A26655  24.677  11.806   8.702
 1811POPC   D2A26656  24.961  11.643   8.414
 1811POPC   C3A26657  24.732  11.752   8.064
 1811POPC   C4A26658  24.556  11.881   7.685
 1811POPC   C1B26659  24.385  12.236   8.698
 1811POPC   C2B26660  24.500  12.193   8.257
 1811POPC   C3B26661  24.513  12.386   7.853
 1811POPC   C4B26662  24.264  12.502   7.464
 1812POPC   NC326663  17.892  21.986   9.564
 1812POPC   PO426664  17.327  22.344   9.701
 1812POPC   GL126665  17.438  22.213   9.276
 1812POPC   GL226666  17.093  22.182   9.190
 1812POPC   C1A26667  17.606  22.336   8.834
 1812POPC   D2A26668  17.681  22.105   8.436
 1812POPC   C3A26669  17.884  22.200   8.051
 1812POPC   C4A26670  17.695  22.293   7.660
 1812POPC   C1B26671  17.190  22.038   8.808
 1812POPC   C2B26672  17.175  22.239   8.424
 1812POPC   C3B26673  17.351  22.197   8.044
 1812POPC   C4B26674  17.185  22.179   7.665
 1813POPC   NC326675  24.168  36.747   9.534
 1813POPC   PO426676  24.784  36.476   9.578
 1813POPC   GL126677  24.567  36.645   9.226
 1813POPC   GL226678  24.745  36.953   9.257
 1813POPC   C1A26679  24.366  36.942   8.923
 1813POPC   D2A26680  24.384  36.957   8.504
 1813POPC   C3A26681  24.212  37.092   8.138
 1813POPC   C4A26682  24.303  36.875   7.798
 1813POPC   C1B26683  24.874  36.934   8.850
 1813POPC   C2B26684  24.841  37.130   8.447
 1813POPC   C3B26685  24.762  36.977   8.030
 1813POPC   C4B26686  24.722  37.165   7.628
 1814POPC   NC326687   3.781  42.957   9.339
 1814POPC   PO426688   4.228  43.247   9.794
 1814POPC   GL126689   4.310  43.134   9.316
 1814POPC   GL226690   4.515  42.808   9.214
 1814POPC   C1A26691   4.510  43.244   8.908
 1814POPC   D2A26692   4.665  43.027   8.547
 1814POPC   C3A26693   4.499  43.124   8.144
 1814POPC   C4A26694   4.430  43.297   7.738
 1814POPC   C1B26695   4.232  42.809   8.857
 1814POPC   C2B26696   4.095  42.956   8.451
 1814POPC   C3B26697   4.005  42.985   8.016
 1814POPC   C4B26698   4.156  42.884   7.612
 1815POPC   NC326699  36.189  40.919   9.574
 1815POPC   PO426700  35.650  40.484   9.761
 1815POPC   GL126701  35.983  40.552   9.296
 1815POPC   GL226702  35.886  40.906   9.165
 1815POPC   C1A26703  35.959  40.509   8.799
 1815POPC   D2A26704  36.101  40.458   8.338
 1815POPC   C3A26705  35.976  40.723   8.020
 1815POPC   C4A26706  36.179  40.755   7.658
 1815POPC   C1B26707  36.168  40.975   8.853
 1815POPC   C2B26708  36.272  40.943   8.416
 1815POPC   C3B26709  36.339  41.095   8.000
 1815POPC   C4B26710  36.029  41.240   7.744
 1816POPC   NC326711  44.556  40.235   9.659
 1816POPC   PO426712  44.512  39.593   9.785
 1816POPC   GL126713  44.710  39.838   9.348
 1816POPC   GL226714  44.777  40.233   9.211
 1816POPC   C1A26715  44.728  39.846   8.887
 1816POPC   D2A26716  44.517  39.769   8.493
 1816POPC   C3A26717  44.716  39.794   8.072
 1816POPC   C4A26718  44.704  39.906   7.645
 1816POPC   C1B26719  44.895  40.314   8.772
 1816POPC   C2B26720  44.739  40.278   8.351
 1816POPC   C3B26721  44.862  40.311   7.890
 1816POPC   C4B26722  44.670  40.386   7.420
 1817POPC   NC326723   1.131  37.509   9.610
 1817POPC   PO426724   1.256  38.010   9.233
 1817POPC   GL126725   1.159  37.612   9.113
 1817POPC   GL226726   1.484  37.427   9.251
 1817POPC   C1A26727   0.872  37.720   8.776
 1817POPC   D2A26728   1.151  37.887   8.452
 1817POPC   C3A26729   1.130  37.702   8.046
 1817POPC   C4A26730   1.173  37.805   7.629
 1817POPC   C1B26731   1.504  37.265   8.864
 1817POPC   C2B26732   1.429  37.389   8.426
 1817POPC   C3B26733   1.300  37.227   8.012
 1817POPC   C4B26734   1.296  37.289   7.539
 1818POPC   NC326735  13.216  30.535   9.638
 1818POPC   PO426736  13.764  30.806   9.613
 1818POPC   GL126737  13.567  30.721   9.220
 1818POPC   GL226738  13.288  30.490   9.145
 1818POPC   C1A26739  13.643  30.752   8.788
 1818POPC   D2A26740  13.499  30.838   8.376
 1818POPC   C3A26741  13.717  30.939   7.968
 1818POPC   C4A26742  13.640  30.727   7.516
 1818POPC   C1B26743  13.151  30.534   8.725
 1818POPC   C2B26744  13.292  30.385   8.320
 1818POPC   C3B26745  13.347  30.597   7.923
 1818POPC   C4B26746  13.182  30.451   7.550
 1819POPC   NC326747  40.719   2.852   9.693
 1819POPC   PO426748  41.161   2.604   9.244
 1819POPC   GL126749  40.844   2.546   8.997
 1819POPC   GL226750  40.591   2.675   9.208
 1819POPC   C1A26751  40.926   2.548   8.584
 1819POPC   D2A26752  40.962   2.803   8.252
 1819POPC   C3A26753  40.914   2.569   7.876
 1819POPC   C4A26754  40.744   2.786   7.516
 1819POPC   C1B26755  40.391   2.682   8.798
 1819POPC   C2B26756  40.461   2.867   8.394
 1819POPC   C3B26757  40.431   2.736   7.951
 1819POPC   C4B26758  40.251   2.624   7.562
 1820POPC   NC326759   0.649  23.441   9.464
 1820POPC   PO426760   0.087  23.776   9.498
 1820POPC   GL126761   0.433  23.847   9.141
 1820POPC   GL226762   0.688  23.586   8.991
 1820POPC   C1A26763   0.631  23.980   8.700
 1820POPC   D2A26764   0.727  23.734   8.323
 1820POPC   C3A26765   0.594  23.883   7.881
 1820POPC   C4A26766   0.285  23.649   7.584
 1820POPC   C1B26767   0.317  23.583   8.717
 1820POPC   C2B26768   0.202  23.457   8.367
 1820POPC   C3B26769   0.405  23.426   8.021
 1820POPC   C4B26770   0.768  23.422   7.768
 1821POPC   NC326771  35.174  17.045   9.396
 1821POPC   PO426772  35.107  16.380   9.461
 1821POPC   GL126773  35.187  16.535   9.086
 1821POPC   GL226774  35.476  16.698   9.116
 1821POPC   C1A26775  35.315  16.476   8.669
 1821POPC   D2A26776  35.108  16.608   8.309
 1821POPC   C3A26777  35.274  16.634   7.917
 1821POPC   C4A26778  35.020  16.970   7.789
 1821POPC   C1B26779  35.478  16.974   8.765
 1821POPC   C2B26780  35.549  16.958   8.314
 1821POPC   C3B26781  35.497  17.085   7.876
 1821POPC   C4B26782  35.598  16.942   7.470
 1822POPC   NC326783  18.491   5.060   9.437
 1822POPC   PO426784  17.891   4.981   9.712
 1822POPC   GL126785  18.028   5.042   9.227
 1822POPC   GL226786  18.209   5.354   9.111
 1822POPC   C1A26787  18.042   4.986   8.738
 1822POPC   D2A26788  18.066   4.702   8.348
 1822POPC   C3A26789  18.039   4.759   7.894
 1822POPC   C4A26790  17.774   5.041   7.619
 1822POPC   C1B26791  18.371   5.392   8.677
 1822POPC   C2B26792  18.348   5.173   8.287
 1822POPC   C3B26793  18.224   5.251   7.878
 1822POPC   C4B26794  18.339   5.018   7.541
 1823POPC   NC326795  15.476   4.597   9.437
 1823POPC   PO426796  15.131   4.083   9.718
 1823POPC   GL126797  15.136   4.021   9.234
 1823POPC   GL226798  15.177   4.329   9.051
 1823POPC   C1A26799  15.246   3.927   8.776
 1823POPC   D2A26800  15.175   4.225   8.426
 1823POPC   C3A26801  15.306   4.149   8.010
 1823POPC   C4A26802  15.294   3.853   7.683
 1823POPC   C1B26803  14.913   4.535   8.738
 1823POPC   C2B26804  14.884   4.658   8.309
 1823POPC   C3B26805  14.986   4.666   7.865
 1823POPC   C4B26806  15.041   4.590   7.406
 1824POPC   NC326807   4.340  11.847   9.539
 1824POPC   PO426808   4.725  12.423   9.409
 1824POPC   GL126809   4.479  12.372   9.081
 1824POPC   GL226810   4.470  12.036   9.103
 1824POPC   C1A26811   4.244  12.450   8.724
 1824POPC   D2A26812   4.358  12.584   8.318
 1824POPC   C3A26813   4.058  12.407   8.026
 1824POPC   C4A26814   4.103  12.163   7.645
 1824POPC   C1B26815   4.265  11.924   8.755
 1824POPC   C2B26816   4.273  12.075   8.351
 1824POPC   C3B26817   4.407  11.856   7.990
 1824POPC   C4B26818   4.543  11.832   7.556
 1825POPC   NC326819   3.631  15.478   9.848
 1825POPC   PO426820   3.308  15.937   9.411
 1825POPC   GL126821   3.457  15.837   8.987
 1825POPC   GL226822   3.794  15.852   8.971
 1825POPC   C1A26823   3.567  16.082   8.603
 1825POPC   D2A26824   3.486  16.422   8.390
 1825POPC   C3A26825   3.530  16.245   8.017
 1825POPC   C4A26826   3.631  16.373   7.609
 1825POPC   C1B26827   3.896  15.618   8.669
 1825POPC   C2B26828   3.897  15.820   8.281
 1825POPC   C3B26829   3.674  15.756   7.934
 1825POPC   C4B26830   3.796  15.852   7.521
 1826POPC   NC326831  19.075   9.037   9.418
 1826POPC   PO426832  19.436   8.559   9.395
 1826POPC   GL126833  19.320   8.821   9.017
 1826POPC   GL226834  18.987   8.847   8.967
 1826POPC   C1A26835  19.249   8.963   8.565
 1826POPC   D2A26836  19.098   8.829   8.163
 1826POPC   C3A26837  19.333   9.019   7.852
 1826POPC   C4A26838  19.710   9.276   7.911
 1826POPC   C1B26839  18.831   9.200   8.808
 1826POPC   C2B26840  18.704   9.008   8.449
 1826POPC   C3B26841  18.758   9.216   8.067
 1826POPC   C4B26842  18.866   9.138   7.685
 1827POPC   NC326843  29.343  40.137   9.586
 1827POPC   PO426844  28.748  40.303   9.396
 1827POPC   GL126845  29.162  40.397   9.129
 1827POPC   GL226846  29.423  40.675   9.165
 1827POPC   C1A26847  29.333  40.508   8.677
 1827POPC   D2A26848  29.466  40.612   8.217
 1827POPC   C3A26849  29.147  40.778   7.897
 1827POPC   C4A26850  29.038  40.957   7.473
 1827POPC   C1B26851  29.686  40.868   8.789
 1827POPC   C2B26852  29.717  41.043   8.332
 1827POPC   C3B26853  29.626  40.985   7.869
 1827POPC   C4B26854  29.868  40.951   7.453
 1828POPC   NC326855  31.142  28.959   9.600
 1828POPC   PO426856  31.695  29.330   9.537
 1828POPC   GL126857  31.409  29.221   9.215
 1828POPC   GL226858  31.403  28.872   9.133
 1828POPC   C1A26859  31.172  29.278   8.848
 1828POPC   D2A26860  31.155  29.446   8.402
 1828POPC   C3A26861  31.299  29.259   8.012
 1828POPC   C4A26862  31.739  29.331   7.841
 1828POPC   C1B26863  31.606  29.054   8.744
 1828POPC   C2B26864  31.709  29.089   8.303
 1828POPC   C3B26865  31.597  28.845   7.896
 1828POPC   C4B26866  31.823  28.936   7.496
 1829POPC   NC326867   7.236  27.677   9.450
 1829POPC   PO426868   7.726  27.262   9.446
 1829POPC   GL126869   7.462  27.389   9.087
 1829POPC   GL226870   7.055  27.354   9.117
 1829POPC   C1A26871   7.496  27.758   8.797
 1829POPC   D2A26872   7.223  28.037   8.522
 1829POPC   C3A26873   7.328  27.953   8.081
 1829POPC   C4A26874   7.278  27.777   7.626
 1829POPC   C1B26875   7.007  27.637   8.793
 1829POPC   C2B26876   7.181  27.547   8.407
 1829POPC   C3B26877   7.031  27.529   8.009
 1829POPC   C4B26878   7.094  27.182   7.811
 1830POPC   NC326879   0.790  13.797   9.526
 1830POPC   PO426880   0.200  13.953   9.485
 1830POPC   GL126881   0.475  13.776   9.109
 1830POPC   GL226882   0.683  13.465   9.112
 1830POPC   C1A26883   0.591  13.713   8.641
 1830POPC   D2A26884   0.685  13.767   8.184
 1830POPC   C3A26885   0.398  13.583   7.868
 1830POPC   C4A26886   0.348  13.615   7.414
 1830POPC   C1B26887   0.739  13.227   8.698
 1830POPC   C2B26888   0.626  13.255   8.232
 1830POPC   C3B26889   0.808  13.277   7.800
 1830POPC   C4B26890   0.795  13.399   7.346
 1831POPC   NC326891  30.878   2.588   9.389
 1831POPC   PO426892  31.168   3.140   9.304
 1831POPC   GL126893  30.885   2.929   9.003
 1831POPC   GL226894  30.528   2.833   9.084
 1831POPC   C1A26895  30.744   2.725   8.619
 1831POPC   D2A26896  31.005   2.655   8.264
 1831POPC   C3A26897  30.978   2.896   7.924
 1831POPC   C4A26898  30.818   2.617   7.657
 1831POPC   C1B26899  30.216   2.845   8.719
 1831POPC   C2B26900  30.150   2.945   8.263
 1831POPC   C3B26901  30.394   2.817   7.911
 1831POPC   C4B26902  30.573   3.086   7.626
 1832POPC   NC326903  44.974  39.556   9.664
 1832POPC   PO426904  44.424  39.399   9.277
 1832POPC   GL126905  44.710  39.199   9.050
 1832POPC   GL226906  44.727  38.844   9.029
 1832POPC   C1A26907  44.567  39.148   8.641
 1832POPC   D2A26908  44.445  39.098   8.240
 1832POPC   C3A26909  44.627  39.310   7.886
 1832POPC   C4A26910  44.539  39.459   7.471
 1832POPC   C1B26911   0.010  38.931   8.677
 1832POPC   C2B26912  44.956  38.939   8.264
 1832POPC   C3B26913  44.765  38.817   7.931
 1832POPC   C4B26914   0.045  39.019   7.693
 1833POPC   NC326915   9.302  16.500   9.490
 1833POPC   PO426916   8.612  16.439   9.286
 1833POPC   GL126917   8.900  16.724   9.041
 1833POPC   GL226918   9.231  16.895   9.131
 1833POPC   C1A26919   8.719  16.900   8.667
 1833POPC   D2A26920   8.940  16.977   8.283
 1833POPC   C3A26921   9.181  16.638   8.098
 1833POPC   C4A26922   8.819  16.417   7.949
 1833POPC   C1B26923   9.124  17.162   8.772
 1833POPC   C2B26924   9.279  17.350   8.388
 1833POPC   C3B26925   9.232  17.224   7.945
 1833POPC   C4B26926   8.930  16.913   7.759
 1834POPC   NC326927  15.647  44.777   9.604
 1834POPC   PO426928  16.254  44.794   9.455
 1834POPC   GL126929  16.004  44.569   9.164
 1834POPC   GL226930  15.679  44.409   9.234
 1834POPC   C1A26931  16.114  44.675   8.742
 1834POPC   D2A26932  16.244  44.976   8.447
 1834POPC   C3A26933  16.070  44.839   8.058
 1834POPC   C4A26934  16.051  44.693   7.643
 1834POPC   C1B26935  15.612  44.652   8.839
 1834POPC   C2B26936  15.731  44.621   8.391
 1834POPC   C3B26937  15.543  44.673   7.969
 1834POPC   C4B26938  15.558  44.673   7.503
 1835POPC   NC326939   4.109  25.635   9.481
 1835POPC   PO426940   4.597  25.107   9.496
 1835POPC   GL126941   4.489  25.355   9.160
 1835POPC   GL226942   4.127  25.374   9.050
 1835POPC   C1A26943   4.564  25.553   8.768
 1835POPC   D2A26944   4.357  25.685   8.409
 1835POPC   C3A26945   4.354  25.507   8.013
 1835POPC   C4A26946   4.348  25.338   7.593
 1835POPC   C1B26947   4.337  25.087   8.760
 1835POPC   C2B26948   4.533  25.056   8.367
 1835POPC   C3B26949   4.235  24.995   8.040
 1835POPC   C4B26950   3.943  25.050   7.695
 1836POPC   NC326951  24.877  13.469   9.281
 1836POPC   PO426952  24.323  13.715   9.512
 1836POPC   GL126953  24.383  13.429   9.097
 1836POPC   GL226954  24.674  13.190   8.920
 1836POPC   C1A26955  24.406  13.506   8.642
 1836POPC   D2A26956  24.264  13.829   8.379
 1836POPC   C3A26957  24.590  13.867   8.120
 1836POPC   C4A26958  24.499  13.782   7.720
 1836POPC   C1B26959  24.706  13.128   8.480
 1836POPC   C2B26960  24.862  13.330   8.107
 1836POPC   C3B26961  25.007  13.145   7.739
 1836POPC   C4B26962  24.900  13.118   7.288
 1837POPC   NC326963   4.893  12.646   9.770
 1837POPC   PO426964   5.352  13.012   9.540
 1837POPC   GL126965   5.145  13.024   9.175
 1837POPC   GL226966   4.982  12.780   9.157
 1837POPC   C1A26967   5.132  13.127   8.763
 1837POPC   D2A26968   5.292  13.055   8.384
 1837POPC   C3A26969   5.063  13.067   7.996
 1837POPC   C4A26970   5.251  12.920   7.615
 1837POPC   C1B26971   4.977  12.619   8.759
 1837POPC   C2B26972   4.891  12.707   8.338
 1837POPC   C3B26973   5.017  12.558   7.932
 1837POPC   C4B26974   5.183  12.409   7.550
 1838POPC   NC326975  44.129  39.657   9.510
 1838POPC   PO426976  44.092  40.270   9.647
 1838POPC   GL126977  43.955  40.066   9.245
 1838POPC   GL226978  44.289  40.036   9.180
 1838POPC   C1A26979  43.994  39.845   8.807
 1838POPC   D2A26980  43.801  39.753   8.370
 1838POPC   C3A26981  43.942  39.956   7.984
 1838POPC   C4A26982  43.964  40.441   7.938
 1838POPC   C1B26983  44.368  40.210   8.778
 1838POPC   C2B26984  44.167  40.128   8.400
 1838POPC   C3B26985  44.385  40.165   8.012
 1838POPC   C4B26986  44.265  40.173   7.605
 1839POPC   NC326987   7.574  15.585   9.186
 1839POPC   PO426988   7.622  14.999   9.482
 1839POPC   GL126989   7.479  15.014   9.090
 1839POPC   GL226990   7.173  15.244   9.139
 1839POPC   C1A26991   7.681  14.960   8.691
 1839POPC   D2A26992   7.470  14.970   8.290
 1839POPC   C3A26993   7.766  15.110   7.995
 1839POPC   C4A26994   7.638  15.304   7.632
 1839POPC   C1B26995   7.283  15.291   8.681
 1839POPC   C2B26996   7.100  15.353   8.286
 1839POPC   C3B26997   7.280  15.523   7.901
 1839POPC   C4B26998   7.288  15.544   7.387
 1840POPC   NC326999  14.033  23.786   9.520
 1840POPC   PO427000  14.561  23.561   9.900
 1840POPC   GL127001  14.488  23.529   9.328
 1840POPC   GL227002  14.254  23.743   9.080
 1840POPC   C1A27003  14.708  23.789   8.926
 1840POPC   D2A27004  14.735  23.848   8.481
 1840POPC   C3A27005  14.762  23.891   8.033
 1840POPC   C4A27006  14.659  23.619   7.717
 1840POPC   C1B27007  13.976  24.008   8.877
 1840POPC   C2B27008  13.869  24.027   8.467
 1840POPC   C3B27009  13.876  23.982   8.031
 1840POPC   C4B27010  14.240  23.905   7.792
 1841POPC   NC327011   0.111  25.991   9.712
 1841POPC   PO427012  44.477  25.926   9.457
 1841POPC   GL127013  44.538  26.040   9.022
 1841POPC   GL227014  44.227  26.202   8.997
 1841POPC   C1A27015  44.848  26.005   8.665
 1841POPC   D2A27016   0.053  26.179   8.283
 1841POPC   C3A27017   0.158  25.879   7.935
 1841POPC   C4A27018  44.956  25.943   7.534
 1841POPC   C1B27019  44.386  26.428   8.657
 1841POPC   C2B27020  44.509  26.196   8.325
 1841POPC   C3B27021  44.662  26.013   7.973
 1841POPC   C4B27022  44.659  25.620   7.782
 1842POPC   NC327023  12.419  23.711   9.457
 1842POPC   PO427024  11.753  23.533   9.424
 1842POPC   GL127025  11.939  23.712   9.066
 1842POPC   GL227026  12.225  23.949   9.075
 1842POPC   C1A27027  11.913  23.605   8.632
 1842POPC   D2A27028  11.863  23.428   8.219
 1842POPC   C3A27029  12.071  23.624   7.885
 1842POPC   C4A27030  11.916  23.693   7.453
 1842POPC   C1B27031  12.074  24.086   8.713
 1842POPC   C2B27032  12.158  23.938   8.319
 1842POPC   C3B27033  12.402  24.076   8.019
 1842POPC   C4B27034  12.298  24.005   7.618
 1843POPC   NC327035  38.188  39.652   9.554
 1843POPC   PO427036  38.673  39.102   9.564
 1843POPC   GL127037  38.650  39.148   9.120
 1843POPC   GL227038  38.386  39.384   9.149
 1843POPC   C1A27039  38.670  39.342   8.687
 1843POPC   D2A27040  38.504  39.425   8.252
 1843POPC   C3A27041  38.675  39.336   7.841
 1843POPC   C4A27042  38.936  38.990   7.726
 1843POPC   C1B27043  38.209  39.150   8.815
 1843POPC   C2B27044  38.087  39.140   8.376
 1843POPC   C3B27045  38.233  39.089   7.941
 1843POPC   C4B27046  38.164  39.336   7.569
 1844POPC   NC327047  25.065  23.227   9.389
 1844POPC   PO427048  24.941  22.634   9.609
 1844POPC   GL127049  25.002  22.739   9.141
 1844POPC   GL227050  25.318  22.811   9.017
 1844POPC   C1A27051  25.000  22.786   8.638
 1844POPC   D2A27052  25.205  22.970   8.258
 1844POPC   C3A27053  25.350  22.692   7.938
 1844POPC   C4A27054  25.288  22.539   7.511
 1844POPC   C1B27055  25.485  23.069   8.678
 1844POPC   C2B27056  25.557  23.338   8.307
 1844POPC   C3B27057  25.498  23.191   7.866
 1844POPC   C4B27058  25.474  23.047   7.440
 1845POPC   NC327059  22.315  34.407   9.580
 1845POPC   PO427060  22.697  34.848   9.150
 1845POPC   GL127061  22.302  34.582   9.086
 1845POPC   GL227062  22.016  34.324   9.176
 1845POPC   C1A27063  22.001  34.724   8.816
 1845POPC   D2A27064  21.877  34.621   8.407
 1845POPC   C3A27065  22.054  34.737   8.001
 1845POPC   C4A27066  21.787  34.949   7.730
 1845POPC   C1B27067  21.929  34.219   8.738
 1845POPC   C2B27068  21.691  34.157   8.326
 1845POPC   C3B27069  21.897  34.250   7.974
 1845POPC   C4B27070  22.169  34.342   7.620
 1846POPC   NC327071   5.607  38.391   9.495
 1846POPC   PO427072   6.274  38.295   9.266
 1846POPC   GL127073   6.012  38.536   9.047
 1846POPC   GL227074   5.688  38.400   9.014
 1846POPC   C1A27075   5.956  38.492   8.599
 1846POPC   D2A27076   6.040  38.189   8.320
 1846POPC   C3A27077   5.899  38.301   7.935
 1846POPC   C4A27078   6.138  38.310   7.539
 1846POPC   C1B27079   5.452  38.458   8.683
 1846POPC   C2B27080   5.454  38.622   8.311
 1846POPC   C3B27081   5.538  38.667   7.888
 1846POPC   C4B27082   5.676  38.516   7.490
 1847POPC   NC327083  38.477  44.327   9.445
 1847POPC   PO427084  38.161  44.953   9.537
 1847POPC   GL127085  38.336  44.836   9.167
 1847POPC   GL227086  38.648  44.777   9.210
 1847POPC   C1A27087  38.376  44.826   8.720
 1847POPC   D2A27088  38.157  44.747   8.314
 1847POPC   C3A27089  38.366  44.881   7.913
 1847POPC   C4A27090  38.221   0.039   7.497
 1847POPC   C1B27091  38.737  44.456   8.857
 1847POPC   C2B27092  38.590  44.412   8.417
 1847POPC   C3B27093  38.801  44.498   7.998
 1847POPC   C4B27094  38.752  44.704   7.596
 1848POPC   NC327095  21.629   9.933   9.497
 1848POPC   PO427096  20.982   9.862   9.503
 1848POPC   GL127097  21.246   9.908   9.149
 1848POPC   GL227098  21.416   9.582   9.196
 1848POPC   C1A27099  21.563   9.877   8.796
 1848POPC   D2A27100  21.575   9.617   8.404
 1848POPC   C3A27101  21.524   9.850   8.015
 1848POPC   C4A27102  21.506  10.032   7.576
 1848POPC   C1B27103  21.133   9.534   8.818
 1848POPC   C2B27104  21.021   9.528   8.381
 1848POPC   C3B27105  21.257   9.414   8.020
 1848POPC   C4B27106  21.698   9.287   7.941
 1849POPC   NC327107  30.813  34.987   9.547
 1849POPC   PO427108  30.465  35.541   9.398
 1849POPC   GL127109  30.808  35.359   9.178
 1849POPC   GL227110  30.567  35.118   9.108
 1849POPC   C1A27111  30.975  35.206   8.774
 1849POPC   D2A27112  31.129  35.396   8.380
 1849POPC   C3A27113  30.911  35.417   7.972
 1849POPC   C4A27114  30.663  35.740   7.749
 1849POPC   C1B27115  30.486  35.409   8.769
 1849POPC   C2B27116  30.494  35.254   8.385
 1849POPC   C3B27117  30.384  35.341   7.993
 1849POPC   C4B27118  30.560  35.160   7.652
 1850POPC   NC327119  36.380  31.806   9.408
 1850POPC   PO427120  35.811  31.490   9.321
 1850POPC   GL127121  36.139  31.553   9.040
 1850POPC   GL227122  36.439  31.347   9.139
 1850POPC   C1A27123  36.151  31.755   8.662
 1850POPC   D2A27124  35.910  31.665   8.294
 1850POPC   C3A27125  36.073  31.741   7.888
 1850POPC   C4A27126  35.989  31.466   7.540
 1850POPC   C1B27127  36.500  31.364   8.681
 1850POPC   C2B27128  36.412  31.497   8.235
 1850POPC   C3B27129  36.435  31.373   7.782
 1850POPC   C4B27130  36.401  31.237   7.307
 1851POPC   NC327131  42.561  28.553   9.859
 1851POPC   PO427132  42.247  29.101   9.567
 1851POPC   GL127133  42.096  29.175   9.140
 1851POPC   GL227134  42.401  29.041   9.032
 1851POPC   C1A27135  42.139  29.286   8.664
 1851POPC   D2A27136  42.245  29.013   8.307
 1851POPC   C3A27137  42.281  29.276   7.965
 1851POPC   C4A27138  42.130  29.653   8.145
 1851POPC   C1B27139  42.588  28.869   8.680
 1851POPC   C2B27140  42.753  28.933   8.263
 1851POPC   C3B27141  42.660  28.957   7.811
 1851POPC   C4B27142  42.590  28.905   7.365
 1852POPC   NC327143   6.349  43.469   9.515
 1852POPC   PO427144   6.850  42.881   9.534
 1852POPC   GL127145   6.801  43.002   9.124
 1852POPC   GL227146   6.466  42.874   9.003
 1852POPC   C1A27147   6.874  42.950   8.699
 1852POPC   D2A27148   6.566  42.984   8.398
 1852POPC   C3A27149   6.737  43.029   8.003
 1852POPC   C4A27150   6.608  42.930   7.601
 1852POPC   C1B27151   6.479  43.296   8.834
 1852POPC   C2B27152   6.305  43.455   8.482
 1852POPC   C3B27153   6.491  43.445   8.116
 1852POPC   C4B27154   6.427  43.369   7.729
 1853POPC   NC327155   7.441   9.453   9.429
 1853POPC   PO427156   7.690  10.092   9.632
 1853POPC   GL127157   7.406  10.000   9.284
 1853POPC   GL227158   7.480   9.750   9.022
 1853POPC   C1A27159   7.324  10.213   8.885
 1853POPC   D2A27160   7.352  10.153   8.432
 1853POPC   C3A27161   7.422  10.255   8.007
 1853POPC   C4A27162   7.389   9.937   7.676
 1853POPC   C1B27163   7.558   9.627   8.579
 1853POPC   C2B27164   7.502   9.719   8.135
 1853POPC   C3B27165   7.268   9.471   7.806
 1853POPC   C4B27166   7.392   9.211   7.429
 1854POPC   NC327167   4.840  39.481   9.636
 1854POPC   PO427168   5.291  39.011   9.597
 1854POPC   GL127169   5.014  39.223   9.216
 1854POPC   GL227170   4.768  39.549   9.138
 1854POPC   C1A27171   5.110  39.353   8.776
 1854POPC   D2A27172   5.336  39.108   8.473
 1854POPC   C3A27173   5.131  38.969   8.092
 1854POPC   C4A27174   5.236  39.116   7.698
 1854POPC   C1B27175   4.603  39.395   8.751
 1854POPC   C2B27176   4.764  39.193   8.371
 1854POPC   C3B27177   4.831  39.370   7.922
 1854POPC   C4B27178   4.965  39.461   7.454
 1855POPC   NC327179  26.572   5.654   9.376
 1855POPC   PO427180  27.028   6.110   9.487
 1855POPC   GL127181  26.801   6.103   9.113
 1855POPC   GL227182  26.944   5.817   9.047
 1855POPC   C1A27183  26.981   6.147   8.657
 1855POPC   D2A27184  27.164   5.776   8.427
 1855POPC   C3A27185  27.123   5.793   7.988
 1855POPC   C4A27186  26.715   5.882   7.841
 1855POPC   C1B27187  26.580   5.847   8.741
 1855POPC   C2B27188  26.626   5.745   8.327
 1855POPC   C3B27189  26.807   5.421   8.090
 1855POPC   C4B27190  26.803   5.310   7.665
 1856POPC   NC327191  31.017  28.097   9.574
 1856POPC   PO427192  30.349  27.878   9.406
 1856POPC   GL127193  30.701  27.640   9.199
 1856POPC   GL227194  30.996  27.829   9.146
 1856POPC   C1A27195  30.853  27.360   8.838
 1856POPC   D2A27196  30.636  27.254   8.433
 1856POPC   C3A27197  30.580  27.583   8.155
 1856POPC   C4A27198  30.635  27.529   7.731
 1856POPC   C1B27199  30.988  28.116   8.783
 1856POPC   C2B27200  30.876  28.000   8.365
 1856POPC   C3B27201  30.969  27.851   7.950
 1856POPC   C4B27202  30.850  27.966   7.562
 1857POPC   NC327203  17.782  33.828   9.446
 1857POPC   PO427204  17.223  33.459   9.530
 1857POPC   GL127205  17.207  33.701   9.112
 1857POPC   GL227206  17.356  34.043   9.187
 1857POPC   C1A27207  17.213  33.646   8.613
 1857POPC   D2A27208  17.633  33.530   8.370
 1857POPC   C3A27209  17.618  33.587   7.927
 1857POPC   C4A27210  17.410  33.612   7.525
 1857POPC   C1B27211  17.583  33.921   8.787
 1857POPC   C2B27212  17.485  34.006   8.312
 1857POPC   C3B27213  17.501  34.085   7.839
 1857POPC   C4B27214  17.781  34.318   7.544
 1858POPC   NC327215   8.960  40.617   9.594
 1858POPC   PO427216   8.800  39.933   9.497
 1858POPC   GL127217   8.793  40.078   9.076
 1858POPC   GL227218   8.612  40.390   9.110
 1858POPC   C1A27219   8.742  39.862   8.663
 1858POPC   D2A27220   8.724  39.561   8.309
 1858POPC   C3A27221   9.073  39.598   8.028
 1858POPC   C4A27222   9.104  39.624   7.598
 1858POPC   C1B27223   8.750  40.379   8.639
 1858POPC   C2B27224   9.017  40.178   8.307
 1858POPC   C3B27225   8.965  40.074   7.856
 1858POPC   C4B27226   8.637  39.838   7.710
 1859POPC   NC327227  40.244  23.120   9.379
 1859POPC   PO427228  39.603  23.195   9.189
 1859POPC   GL127229  39.908  22.894   9.043
 1859POPC   GL227230  39.653  22.742   8.836
 1859POPC   C1A27231  40.235  22.869   8.724
 1859POPC   D2A27232  40.104  22.787   8.302
 1859POPC   C3A27233  40.243  23.061   8.049
 1859POPC   C4A27234  40.351  22.802   7.721
 1859POPC   C1B27235  39.809  23.102   8.569
 1859POPC   C2B27236  39.662  23.229   8.166
 1859POPC   C3B27237  39.814  23.029   7.778
 1859POPC   C4B27238  39.809  23.187   7.361
 1860POPC   NC327239   2.311  28.615   9.551
 1860POPC   PO427240   1.974  27.972   9.403
 1860POPC   GL127241   1.904  28.407   9.192
 1860POPC   GL227242   2.196  28.619   9.072
 1860POPC   C1A27243   1.756  28.472   8.759
 1860POPC   D2A27244   1.778  28.108   8.442
 1860POPC   C3A27245   1.828  28.251   8.033
 1860POPC   C4A27246   1.867  28.704   7.968
 1860POPC   C1B27247   2.244  28.319   8.764
 1860POPC   C2B27248   2.150  28.444   8.357
 1860POPC   C3B27249   2.306  28.443   7.918
 1860POPC   C4B27250   2.451  28.522   7.497
 1861POPC   NC327251  40.833  33.373   9.299
 1861POPC   PO427252  40.667  32.731   9.510
 1861POPC   GL127253  40.853  32.872   9.135
 1861POPC   GL227254  40.555  33.029   9.032
 1861POPC   C1A27255  40.877  32.766   8.711
 1861POPC   D2A27256  40.632  32.894   8.351
 1861POPC   C3A27257  40.928  32.947   8.034
 1861POPC   C4A27258  41.158  33.321   7.921
 1861POPC   C1B27259  40.618  33.315   8.675
 1861POPC   C2B27260  40.354  33.351   8.320
 1861POPC   C3B27261  40.444  33.163   7.915
 1861POPC   C4B27262  40.381  33.307   7.495
 1862POPC   NC327263  30.449  31.645   9.398
 1862POPC   PO427264  30.965  31.383   9.680
 1862POPC   GL127265  30.917  31.397   9.223
 1862POPC   GL227266  30.654  31.131   9.197
 1862POPC   C1A27267  30.699  31.489   8.808
 1862POPC   D2A27268  30.544  31.744   8.457
 1862POPC   C3A27269  30.694  31.605   8.047
 1862POPC   C4A27270  30.620  31.715   7.589
 1862POPC   C1B27271  30.549  31.007   8.771
 1862POPC   C2B27272  30.400  31.236   8.423
 1862POPC   C3B27273  30.351  31.230   8.017
 1862POPC   C4B27274  30.638  31.218   7.658
 1863POPC   NC327275  34.676  16.520   9.272
 1863POPC   PO427276  34.259  16.947   9.549
 1863POPC   GL127277  34.305  16.840   9.088
 1863POPC   GL227278  34.310  16.484   8.934
 1863POPC   C1A27279  34.363  16.926   8.636
 1863POPC   D2A27280  34.667  16.915   8.287
 1863POPC   C3A27281  34.494  16.944   7.861
 1863POPC   C4A27282  34.224  17.044   7.479
 1863POPC   C1B27283  34.673  16.504   8.614
 1863POPC   C2B27284  34.646  16.417   8.174
 1863POPC   C3B27285  34.784  16.515   7.787
 1863POPC   C4B27286  34.722  16.397   7.397
 1864POPC   NC327287  10.593  36.840   9.648
 1864POPC   PO427288  10.064  37.203   9.507
 1864POPC   GL127289  10.414  37.013   9.219
 1864POPC   GL227290  10.315  36.710   9.214
 1864POPC   C1A27291  10.516  36.767   8.759
 1864POPC   D2A27292  10.493  36.611   8.303
 1864POPC   C3A27293  10.686  36.824   7.871
 1864POPC   C4A27294  10.875  36.866   7.400
 1864POPC   C1B27295  10.099  37.027   8.848
 1864POPC   C2B27296  10.092  36.935   8.425
 1864POPC   C3B27297  10.175  36.862   7.996
 1864POPC   C4B27298  10.140  37.068   7.636
 1865POPC   NC327299  33.569  31.931   9.552
 1865POPC   PO427300  33.750  32.526   9.734
 1865POPC   GL127301  33.871  32.396   9.298
 1865POPC   GL227302  33.681  32.176   9.129
 1865POPC   C1A27303  33.926  32.523   8.835
 1865POPC   D2A27304  33.981  32.386   8.369
 1865POPC   C3A27305  34.012  32.061   8.014
 1865POPC   C4A27306  33.960  32.330   7.685
 1865POPC   C1B27307  33.807  31.997   8.758
 1865POPC   C2B27308  33.648  31.963   8.348
 1865POPC   C3B27309  33.519  32.178   7.955
 1865POPC   C4B27310  33.577  32.053   7.515
 1866POPC   NC327311  10.910   2.004   9.822
 1866POPC   PO427312  10.291   1.973   9.590
 1866POPC   GL127313  10.374   2.052   9.171
 1866POPC   GL227314  10.473   1.693   9.029
 1866POPC   C1A27315  10.511   2.151   8.756
 1866POPC   D2A27316  10.441   1.919   8.395
 1866POPC   C3A27317  10.278   2.118   8.046
 1866POPC   C4A27318  10.598   2.300   7.769
 1866POPC   C1B27319  10.306   1.435   8.723
 1866POPC   C2B27320  10.452   1.401   8.326
 1866POPC   C3B27321  10.290   1.556   7.939
 1866POPC   C4B27322  10.456   1.816   7.650
 1867POPC   NC327323  16.200  34.225   9.497
 1867POPC   PO427324  15.582  34.404   9.488
 1867POPC   GL127325  15.814  34.238   9.160
 1867POPC   GL227326  15.579  34.068   9.004
 1867POPC   C1A27327  15.945  34.264   8.711
 1867POPC   D2A27328  15.686  34.207   8.320
 1867POPC   C3A27329  15.854  34.486   7.975
 1867POPC   C4A27330  16.088  34.686   7.605
 1867POPC   C1B27331  15.521  34.513   8.826
 1867POPC   C2B27332  15.485  34.683   8.409
 1867POPC   C3B27333  15.475  34.836   7.974
 1867POPC   C4B27334  15.580  34.714   7.545
 1868POPC   NC327335  36.457  16.467   9.463
 1868POPC   PO427336  35.816  16.767   9.475
 1868POPC   GL127337  36.004  16.630   9.144
 1868POPC   GL227338  36.325  16.804   9.075
 1868POPC   C1A27339  35.836  16.575   8.741
 1868POPC   D2A27340  36.017  16.713   8.345
 1868POPC   C3A27341  35.813  16.675   7.979
 1868POPC   C4A27342  36.036  16.770   7.654
 1868POPC   C1B27343  36.346  16.602   8.704
 1868POPC   C2B27344  36.469  16.432   8.302
 1868POPC   C3B27345  36.368  16.414   7.860
 1868POPC   C4B27346  36.183  16.361   7.427
 1869POPC   NC327347  20.314  18.603  10.034
 1869POPC   PO427348  20.686  18.501   9.465
 1869POPC   GL127349  20.525  18.225   9.177
 1869POPC   GL227350  20.737  17.961   9.061
 1869POPC   C1A27351  20.583  18.292   8.718
 1869POPC   D2A27352  20.733  18.197   8.317
 1869POPC   C3A27353  20.468  18.104   7.994
 1869POPC   C4A27354  20.301  17.979   7.622
 1869POPC   C1B27355  20.841  17.787   8.630
 1869POPC   C2B27356  20.739  17.701   8.167
 1869POPC   C3B27357  20.729  17.717   7.689
 1869POPC   C4B27358  20.560  17.839   7.218
 1870POPC   NC327359  21.321  17.381   9.525
 1870POPC   PO427360  20.814  17.731   9.520
 1870POPC   GL127361  21.194  17.765   9.189
 1870POPC   GL227362  21.485  18.009   9.197
 1870POPC   C1A27363  21.341  17.765   8.743
 1870POPC   D2A27364  21.408  17.507   8.356
 1870POPC   C3A27365  21.192  17.533   7.935
 1870POPC   C4A27366  21.319  17.349   7.493
 1870POPC   C1B27367  21.823  17.861   8.846
 1870POPC   C2B27368  21.875  17.730   8.404
 1870POPC   C3B27369  21.633  17.839   8.011
 1870POPC   C4B27370  21.424  17.829   7.602
 1871POPC   NC327371   0.126  31.793   9.794
 1871POPC   PO427372   0.467  31.237   9.584
 1871POPC   GL127373   0.702  31.351   9.201
 1871POPC   GL227374   0.361  31.465   9.117
 1871POPC   C1A27375   0.720  31.476   8.734
 1871POPC   D2A27376   0.479  31.253   8.389
 1871POPC   C3A27377   0.429  31.384   7.983
 1871POPC   C4A27378   0.427  31.132   7.646
 1871POPC   C1B27379   0.154  31.479   8.720
 1871POPC   C2B27380   0.230  31.712   8.330
 1871POPC   C3B27381   0.062  31.896   7.963
 1871POPC   C4B27382   0.095  31.748   7.546
 1872POPC   NC327383   7.771  29.884   9.418
 1872POPC   PO427384   7.141  29.656   9.462
 1872POPC   GL127385   7.121  29.951   9.110
 1872POPC   GL227386   7.491  30.086   9.038
 1872POPC   C1A27387   7.117  30.172   8.713
 1872POPC   D2A27388   7.425  30.142   8.409
 1872POPC   C3A27389   7.320  29.930   8.038
 1872POPC   C4A27390   7.145  30.008   7.665
 1872POPC   C1B27391   7.871  30.274   8.820
 1872POPC   C2B27392   7.867  30.394   8.385
 1872POPC   C3B27393   7.758  30.195   7.994
 1872POPC   C4B27394   7.644  29.944   7.640
 1873POPC   NC327395   3.910  14.845   9.578
 1873POPC   PO427396   3.329  14.435   9.574
 1873POPC   GL127397   3.461  14.475   9.138
 1873POPC   GL227398   3.830  14.515   9.165
 1873POPC   C1A27399   3.633  14.528   8.700
 1873POPC   D2A27400   3.851  14.417   8.308
 1873POPC   C3A27401   3.656  14.620   7.985
 1873POPC   C4A27402   3.276  14.478   7.804
 1873POPC   C1B27403   3.899  14.118   8.887
 1873POPC   C2B27404   4.027  13.946   8.460
 1873POPC   C3B27405   3.866  13.961   8.042
 1873POPC   C4B27406   3.752  14.234   7.690
 1874POPC   NC327407   1.239   3.894   9.620
 1874POPC   PO427408   0.865   3.392   9.874
 1874POPC   GL127409   1.014   3.497   9.380
 1874POPC   GL227410   1.350   3.542   9.247
 1874POPC   C1A27411   0.996   3.718   8.918
 1874POPC   D2A27412   0.881   3.937   8.496
 1874POPC   C3A27413   0.875   3.745   8.034
 1874POPC   C4A27414   1.277   3.576   7.793
 1874POPC   C1B27415   1.619   3.488   8.879
 1874POPC   C2B27416   1.553   3.258   8.521
 1874POPC   C3B27417   1.588   3.275   8.088
 1874POPC   C4B27418   1.658   3.230   7.668
 1875POPC   NC327419   0.395   3.331   9.691
 1875POPC   PO427420   0.435   3.918   9.474
 1875POPC   GL127421   0.535   3.583   9.193
 1875POPC   GL227422   0.619   3.212   9.264
 1875POPC   C1A27423   0.559   3.523   8.756
 1875POPC   D2A27424   0.424   3.640   8.368
 1875POPC   C3A27425   0.537   3.339   8.082
 1875POPC   C4A27426   0.461   3.507   7.688
 1875POPC   C1B27427   0.245   3.207   8.991
 1875POPC   C2B27428   0.266   3.145   8.522
 1875POPC   C3B27429   0.052   3.177   8.141
 1875POPC   C4B27430   0.046   3.193   7.687
 1876POPC   NC327431  41.812  28.935   9.553
 1876POPC   PO427432  41.211  29.174   9.478
 1876POPC   GL127433  41.510  29.131   9.122
 1876POPC   GL227434  41.688  28.793   9.088
 1876POPC   C1A27435  41.432  29.360   8.712
 1876POPC   D2A27436  41.225  29.379   8.289
 1876POPC   C3A27437  41.505  29.445   7.954
 1876POPC   C4A27438  41.496  29.568   7.525
 1876POPC   C1B27439  41.809  28.923   8.725
 1876POPC   C2B27440  41.679  29.061   8.348
 1876POPC   C3B27441  41.427  28.931   8.033
 1876POPC   C4B27442  41.517  29.043   7.636
 1877POPC   NC327443  23.435  32.866   9.611
 1877POPC   PO427444  23.962  33.356   9.516
 1877POPC   GL127445  23.679  33.112   9.202
 1877POPC   GL227446  23.320  32.987   9.140
 1877POPC   C1A27447  23.729  32.887   8.820
 1877POPC   D2A27448  24.008  32.814   8.480
 1877POPC   C3A27449  23.882  33.072   8.145
 1877POPC   C4A27450  23.788  33.005   7.727
 1877POPC   C1B27451  23.323  32.592   8.918
 1877POPC   C2B27452  23.384  32.651   8.482
 1877POPC   C3B27453  23.525  32.698   8.038
 1877POPC   C4B27454  23.473  32.623   7.569
 1878POPC   NC327455  19.964  42.230   9.768
 1878POPC   PO427456  19.568  42.535   9.413
 1878POPC   GL127457  19.743  42.256   9.092
 1878POPC   GL227458  20.077  42.126   9.164
 1878POPC   C1A27459  19.701  42.198   8.638
 1878POPC   D2A27460  19.646  42.010   8.208
 1878POPC   C3A27461  19.654  42.332   7.837
 1878POPC   C4A27462  19.560  42.774   7.655
 1878POPC   C1B27463  20.062  41.881   8.785
 1878POPC   C2B27464  20.156  41.732   8.374
 1878POPC   C3B27465  20.108  41.985   7.985
 1878POPC   C4B27466  20.055  42.174   7.555
 1879POPC   NC327467  31.890  31.248   9.446
 1879POPC   PO427468  32.510  31.683   9.452
 1879POPC   GL127469  32.253  31.462   9.058
 1879POPC   GL227470  31.899  31.302   8.960
 1879POPC   C1A27471  32.195  31.388   8.578
 1879POPC   D2A27472  32.229  31.634   8.188
 1879POPC   C3A27473  32.342  31.451   7.771
 1879POPC   C4A27474  32.173  31.574   7.385
 1879POPC   C1B27475  31.665  31.535   8.648
 1879POPC   C2B27476  31.717  31.520   8.213
 1879POPC   C3B27477  31.847  31.505   7.812
 1879POPC   C4B27478  31.982  31.090   7.824
 1880POPC   NC327479   9.950   4.102   9.468
 1880POPC   PO427480  10.536   4.340   9.575
 1880POPC   GL127481  10.617   4.196   9.111
 1880POPC   GL227482  10.924   4.000   9.008
 1880POPC   C1A27483  10.394   4.309   8.715
 1880POPC   D2A27484  10.095   4.488   8.410
 1880POPC   C3A27485  10.277   4.493   8.018
 1880POPC   C4A27486  10.509   4.353   7.659
 1880POPC   C1B27487  10.792   3.999   8.589
 1880POPC   C2B27488  10.640   4.055   8.174
 1880POPC   C3B27489  10.906   4.116   7.842
 1880POPC   C4B27490  10.934   4.054   7.409
 1881POPC   NC327491  28.586  25.000   9.368
 1881POPC   PO427492  28.108  25.434   9.546
 1881POPC   GL127493  28.278  25.325   9.119
 1881POPC   GL227494  28.658  25.400   9.061
 1881POPC   C1A27495  28.227  25.086   8.726
 1881POPC   D2A27496  28.522  25.002   8.388
 1881POPC   C3A27497  28.456  25.057   7.962
 1881POPC   C4A27498  28.683  25.177   7.625
 1881POPC   C1B27499  28.535  25.479   8.650
 1881POPC   C2B27500  28.331  25.458   8.272
 1881POPC   C3B27501  28.444  25.564   7.859
 1881POPC   C4B27502  28.207  25.670   7.526
 1882POPC   NC327503   0.301   5.547  10.090
 1882POPC   PO427504   0.781   5.592   9.617
 1882POPC   GL127505   0.607   5.660   9.185
 1882POPC   GL227506   0.582   6.001   9.027
 1882POPC   C1A27507   0.774   5.627   8.751
 1882POPC   D2A27508   0.829   5.857   8.343
 1882POPC   C3A27509   0.481   6.008   8.105
 1882POPC   C4A27510   0.379   6.071   7.682
 1882POPC   C1B27511   0.361   5.894   8.614
 1882POPC   C2B27512   0.111   5.715   8.275
 1882POPC   C3B27513  44.956   5.860   7.869
 1882POPC   C4B27514  44.913   6.101   7.452
 1883POPC   NC327515  41.669  40.493   9.398
 1883POPC   PO427516  41.208  40.976   9.228
 1883POPC   GL127517  41.559  40.929   9.016
 1883POPC   GL227518  41.834  40.727   8.989
 1883POPC   C1A27519  41.504  40.708   8.619
 1883POPC   D2A27520  41.312  40.505   8.279
 1883POPC   C3A27521  41.423  40.718   7.891
 1883POPC   C4A27522  41.842  40.920   7.787
 1883POPC   C1B27523  41.992  40.365   8.821
 1883POPC   C2B27524  41.848  40.358   8.461
 1883POPC   C3B27525  41.838  40.497   8.083
 1883POPC   C4B27526  41.716  40.345   7.698
 1884POPC   NC327527  12.579  42.058   9.787
 1884POPC   PO427528  12.968  42.512   9.468
 1884POPC   GL127529  12.900  42.354   9.073
 1884POPC   GL227530  12.613  42.186   9.183
 1884POPC   C1A27531  12.832  42.076   8.736
 1884POPC   D2A27532  13.050  42.254   8.425
 1884POPC   C3A27533  12.931  42.588   8.135
 1884POPC   C4A27534  12.991  42.427   7.710
 1884POPC   C1B27535  12.490  42.491   8.851
 1884POPC   C2B27536  12.518  42.357   8.421
 1884POPC   C3B27537  12.697  42.146   8.062
 1884POPC   C4B27538  12.501  42.366   7.717
 1885POPC   NC327539   7.247   1.638   9.419
 1885POPC   PO427540   7.724   2.136   9.465
 1885POPC   GL127541   7.321   2.197   9.217
 1885POPC   GL227542   7.382   1.895   9.010
 1885POPC   C1A27543   7.161   2.294   8.817
 1885POPC   D2A27544   7.339   2.029   8.497
 1885POPC   C3A27545   7.250   1.993   8.079
 1885POPC   C4A27546   7.312   2.127   7.682
 1885POPC   C1B27547   7.698   1.759   8.702
 1885POPC   C2B27548   7.653   1.689   8.243
 1885POPC   C3B27549   7.636   1.743   7.773
 1885POPC   C4B27550   7.494   1.712   7.317
 1886POPC   NC327551  27.515  16.967   9.770
 1886POPC   PO427552  27.916  16.449   9.620
 1886POPC   GL127553  27.821  16.548   9.181
 1886POPC   GL227554  27.832  16.888   9.127
 1886POPC   C1A27555  27.553  16.625   8.772
 1886POPC   D2A27556  27.257  16.601   8.431
 1886POPC   C3A27557  27.415  16.472   8.053
 1886POPC   C4A27558  27.508  16.717   7.705
 1886POPC   C1B27559  28.009  17.076   8.804
 1886POPC   C2B27560  27.903  16.963   8.403
 1886POPC   C3B27561  27.878  17.108   8.000
 1886POPC   C4B27562  27.991  16.928   7.620
 1887POPC   NC327563  10.579  11.733   9.409
 1887POPC   PO427564  10.246  12.195   9.554
 1887POPC   GL127565  10.481  12.323   9.194
 1887POPC   GL227566  10.385  12.016   9.008
 1887POPC   C1A27567  10.495  12.442   8.753
 1887POPC   D2A27568  10.264  12.358   8.378
 1887POPC   C3A27569  10.483  12.335   7.990
 1887POPC   C4A27570  10.794  12.356   7.692
 1887POPC   C1B27571  10.599  11.980   8.569
 1887POPC   C2B27572  10.781  11.901   8.121
 1887POPC   C3B27573  10.647  11.563   7.817
 1887POPC   C4B27574  10.505  11.527   7.362
 1888POPC   NC327575   7.105  17.855   9.510
 1888POPC   PO427576   6.800  18.493   9.465
 1888POPC   GL127577   6.558  18.286   9.153
 1888POPC   GL227578   6.731  18.005   9.180
 1888POPC   C1A27579   6.587  18.361   8.716
 1888POPC   D2A27580   6.630  18.638   8.382
 1888POPC   C3A27581   6.643  18.383   8.041
 1888POPC   C4A27582   6.585  18.521   7.663
 1888POPC   C1B27583   6.947  17.996   8.791
 1888POPC   C2B27584   6.869  18.061   8.396
 1888POPC   C3B27585   6.994  18.001   8.005
 1888POPC   C4B27586   6.817  18.050   7.621
 1889POPC   NC327587   4.803   4.309   9.414
 1889POPC   PO427588   5.461   4.569   9.483
 1889POPC   GL127589   5.131   4.593   9.111
 1889POPC   GL227590   4.740   4.636   9.042
 1889POPC   C1A27591   5.182   4.405   8.703
 1889POPC   D2A27592   5.249   4.075   8.361
 1889POPC   C3A27593   5.171   4.155   7.971
 1889POPC   C4A27594   4.921   3.938   7.690
 1889POPC   C1B27595   4.764   4.681   8.607
 1889POPC   C2B27596   5.054   4.638   8.274
 1889POPC   C3B27597   4.947   4.719   7.891
 1889POPC   C4B27598   5.002   4.442   7.577
 1890POPC   NC327599  31.364  41.878   9.493
 1890POPC   PO427600  31.942  41.558   9.375
 1890POPC   GL127601  31.540  41.560   9.093
 1890POPC   GL227602  31.136  41.690   9.084
 1890POPC   C1A27603  31.668  41.298   8.744
 1890POPC   D2A27604  31.839  41.214   8.316
 1890POPC   C3A27605  31.692  41.470   7.966
 1890POPC   C4A27606  31.818  41.881   7.772
 1890POPC   C1B27607  31.148  41.431   8.740
 1890POPC   C2B27608  31.398  41.553   8.400
 1890POPC   C3B27609  31.381  41.859   8.108
 1890POPC   C4B27610  31.319  41.736   7.737
 1891POPC   NC327611  16.708  18.914   9.583
 1891POPC   PO427612  16.598  18.293   9.599
 1891POPC   GL127613  16.632  18.508   9.239
 1891POPC   GL227614  16.995  18.605   9.290
 1891POPC   C1A27615  16.532  18.290   8.846
 1891POPC   D2A27616  16.706  18.132   8.459
 1891POPC   C3A27617  16.532  18.222   8.045
 1891POPC   C4A27618  16.489  17.955   7.683
 1891POPC   C1B27619  16.934  18.584   8.827
 1891POPC   C2B27620  17.030  18.522   8.391
 1891POPC   C3B27621  17.035  18.360   7.993
 1891POPC   C4B27622  16.803  18.406   7.596
 1892POPC   NC327623  19.131  20.373   9.331
 1892POPC   PO427624  18.644  20.892   9.395
 1892POPC   GL127625  18.841  20.722   9.049
 1892POPC   GL227626  18.887  20.412   8.901
 1892POPC   C1A27627  19.030  20.814   8.644
 1892POPC   D2A27628  19.068  20.592   8.281
 1892POPC   C3A27629  19.017  20.836   7.930
 1892POPC   C4A27630  19.281  20.713   7.628
 1892POPC   C1B27631  18.706  20.298   8.527
 1892POPC   C2B27632  18.882  20.119   8.178
 1892POPC   C3B27633  19.117  20.272   7.869
 1892POPC   C4B27634  18.888  20.418   7.543
 1893POPC   NC327635  42.363  29.605   9.570
 1893POPC   PO427636  42.434  30.294   9.676
 1893POPC   GL127637  42.371  30.046   9.245
 1893POPC   GL227638  42.130  29.766   9.140
 1893POPC   C1A27639  42.416  29.994   8.760
 1893POPC   D2A27640  42.179  30.097   8.363
 1893POPC   C3A27641  42.484  30.082   8.056
 1893POPC   C4A27642  42.456  29.785   7.772
 1893POPC   C1B27643  42.477  29.536   8.946
 1893POPC   C2B27644  42.646  29.382   8.579
 1893POPC   C3B27645  42.668  29.612   8.225
 1893POPC   C4B27646  42.798  29.439   7.858
 1894POPC   NC327647  30.998  11.959   9.502
 1894POPC   PO427648  30.297  11.845   9.612
 1894POPC   GL127649  30.548  11.972   9.270
 1894POPC   GL227650  30.596  11.657   9.143
 1894POPC   C1A27651  30.759  12.247   8.931
 1894POPC   D2A27652  30.700  12.513   8.554
 1894POPC   C3A27653  30.671  12.469   8.095
 1894POPC   C4A27654  30.674  12.330   7.688
 1894POPC   C1B27655  30.457  11.869   8.773
 1894POPC   C2B27656  30.558  12.043   8.402
 1894POPC   C3B27657  30.506  11.942   7.983
 1894POPC   C4B27658  30.820  11.851   7.670
 1895POPC   NC327659  16.417  26.703   9.697
 1895POPC   PO427660  15.819  26.464   9.534
 1895POPC   GL127661  15.850  26.787   9.208
 1895POPC   GL227662  16.225  26.819   9.144
 1895POPC   C1A27663  15.580  26.886   8.840
 1895POPC   D2A27664  15.702  26.973   8.407
 1895POPC   C3A27665  15.493  27.041   8.031
 1895POPC   C4A27666  15.697  26.896   7.673
 1895POPC   C1B27667  16.107  26.913   8.721
 1895POPC   C2B27668  16.138  26.700   8.306
 1895POPC   C3B27669  16.140  26.718   7.849
 1895POPC   C4B27670  16.123  26.674   7.389
 1896POPC   NC327671  18.555  21.822   9.929
 1896POPC   PO427672  18.308  22.311   9.585
 1896POPC   GL127673  18.434  22.244   9.193
 1896POPC   GL227674  18.496  22.602   9.115
 1896POPC   C1A27675  18.407  22.057   8.768
 1896POPC   D2A27676  18.188  21.950   8.413
 1896POPC   C3A27677  18.439  22.096   8.086
 1896POPC   C4A27678  18.688  22.385   7.853
 1896POPC   C1B27679  18.119  22.489   8.860
 1896POPC   C2B27680  18.057  22.522   8.424
 1896POPC   C3B27681  18.227  22.570   8.002
 1896POPC   C4B27682  18.217  22.265   7.652
 1897POPC   NC327683   2.307  43.517   9.461
 1897POPC   PO427684   1.860  44.012   9.537
 1897POPC   GL127685   2.070  43.909   9.187
 1897POPC   GL227686   2.419  44.039   9.268
 1897POPC   C1A27687   1.973  43.708   8.769
 1897POPC   D2A27688   2.160  43.459   8.404
 1897POPC   C3A27689   2.215  43.675   8.027
 1897POPC   C4A27690   1.926  44.010   7.959
 1897POPC   C1B27691   2.408  43.989   8.810
 1897POPC   C2B27692   2.187  44.089   8.426
 1897POPC   C3B27693   2.404  44.182   8.054
 1897POPC   C4B27694   2.473  43.990   7.673
 1898POPC   NC327695  14.866  44.944   9.678
 1898POPC   PO427696  15.330  44.466   9.696
 1898POPC   GL127697  15.220  44.652   9.305
 1898POPC   GL227698  15.170  44.302   9.167
 1898POPC   C1A27699  15.122  44.808   8.878
 1898POPC   D2A27700  15.271  44.817   8.411
 1898POPC   C3A27701  15.025  44.829   8.014
 1898POPC   C4A27702  15.056  44.678   7.559
 1898POPC   C1B27703  15.366  44.202   8.772
 1898POPC   C2B27704  15.271  44.295   8.341
 1898POPC   C3B27705  15.005  44.307   7.990
 1898POPC   C4B27706  15.310  44.271   7.725
 1899POPC   NC327707  27.483   6.038   9.436
 1899POPC   PO427708  27.840   5.453   9.538
 1899POPC   GL127709  27.788   5.711   9.152
 1899POPC   GL227710  27.898   6.070   9.107
 1899POPC   C1A27711  27.570   5.772   8.768
 1899POPC   D2A27712  27.742   5.679   8.370
 1899POPC   C3A27713  27.571   5.557   7.984
 1899POPC   C4A27714  27.708   5.720   7.585
 1899POPC   C1B27715  27.605   6.291   8.812
 1899POPC   C2B27716  27.509   6.156   8.404
 1899POPC   C3B27717  27.692   6.052   8.013
 1899POPC   C4B27718  27.421   6.119   7.709
 1900POPC   NC327719  38.617  26.713   9.697
 1900POPC   PO427720  38.100  26.959   9.411
 1900POPC   GL127721  38.335  26.687   9.217
 1900POPC   GL227722  38.658  26.858   9.182
 1900POPC   C1A27723  38.367  26.627   8.783
 1900POPC   D2A27724  38.405  26.889   8.413
 1900POPC   C3A27725  38.212  26.718   8.041
 1900POPC   C4A27726  38.313  26.612   7.614
 1900POPC   C1B27727  38.786  27.019   8.748
 1900POPC   C2B27728  38.867  27.076   8.267
 1900POPC   C3B27729  38.665  26.899   7.868
 1900POPC   C4B27730  38.538  27.037   7.413
 1901POPC   NC327731  26.748   8.905   9.661
 1901POPC   PO427732  27.184   9.237   9.359
 1901POPC   GL127733  26.841   9.317   9.100
 1901POPC   GL227734  26.749   9.020   9.165
 1901POPC   C1A27735  26.896   9.336   8.661
 1901POPC   D2A27736  27.063   9.021   8.400
 1901POPC   C3A27737  26.998   9.163   7.984
 1901POPC   C4A27738  26.857   9.022   7.566
 1901POPC   C1B27739  26.525   8.803   8.924
 1901POPC   C2B27740  26.534   8.735   8.529
 1901POPC   C3B27741  26.713   8.759   8.140
 1901POPC   C4B27742  26.521   8.649   7.783
 1902POPC   NC327743  44.384  37.399   9.587
 1902POPC   PO427744  44.926  37.805   9.483
 1902POPC   GL127745  44.603  37.702   9.174
 1902POPC   GL227746  44.354  37.972   9.063
 1902POPC   C1A27747  44.708  37.519   8.762
 1902POPC   D2A27748  44.520  37.683   8.364
 1902POPC   C3A27749  44.706  37.579   8.006
 1902POPC   C4A27750  44.897  37.219   7.870
 1902POPC   C1B27751  44.644  38.016   8.708
 1902POPC   C2B27752  44.976  37.927   8.380
 1902POPC   C3B27753  44.868  38.062   7.943
 1902POPC   C4B27754  44.450  37.955   7.779
 1903POPC   NC327755  31.243   3.268   9.733
 1903POPC   PO427756  31.261   2.581   9.678
 1903POPC   GL127757  31.306   2.654   9.147
 1903POPC   GL227758  31.512   2.943   8.986
 1903POPC   C1A27759  31.281   2.632   8.685
 1903POPC   D2A27760  31.505   2.445   8.334
 1903POPC   C3A27761  31.407   2.555   7.916
 1903POPC   C4A27762  31.496   2.304   7.569
 1903POPC   C1B27763  31.569   3.114   8.603
 1903POPC   C2B27764  31.426   2.973   8.209
 1903POPC   C3B27765  31.442   3.074   7.770
 1903POPC   C4B27766  31.555   3.162   7.330
 1904POPC   NC327767   4.524  31.536   9.587
 1904POPC   PO427768   5.167  31.275   9.439
 1904POPC   GL127769   5.037  31.521   9.121
 1904POPC   GL227770   4.858  31.816   9.231
 1904POPC   C1A27771   5.106  31.657   8.729
 1904POPC   D2A27772   4.963  31.504   8.353
 1904POPC   C3A27773   5.162  31.359   8.042
 1904POPC   C4A27774   5.071  31.492   7.696
 1904POPC   C1B27775   4.604  31.838   8.838
 1904POPC   C2B27776   4.524  31.738   8.394
 1904POPC   C3B27777   4.673  31.722   7.966
 1904POPC   C4B27778   4.664  31.713   7.513
 1905POPC   NC327779  19.247   7.244   9.164
 1905POPC   PO427780  19.200   7.819   9.570
 1905POPC   GL127781  18.905   7.643   9.124
 1905POPC   GL227782  19.113   7.528   8.761
 1905POPC   C1A27783  18.630   7.457   8.795
 1905POPC   D2A27784  18.783   7.288   8.415
 1905POPC   C3A27785  18.761   7.420   8.004
 1905POPC   C4A27786  18.781   7.131   7.680
 1905POPC   C1B27787  19.414   7.198   8.540
 1905POPC   C2B27788  19.511   7.178   8.102
 1905POPC   C3B27789  19.287   7.513   7.932
 1905POPC   C4B27790  19.037   7.552   7.601
 1906POPC   NC327791   7.975  19.284   9.548
 1906POPC   PO427792   8.616  19.023   9.466
 1906POPC   GL127793   8.217  18.922   9.249
 1906POPC   GL227794   8.205  19.252   9.086
 1906POPC   C1A27795   8.153  18.795   8.819
 1906POPC   D2A27796   8.391  18.996   8.510
 1906POPC   C3A27797   8.291  18.962   8.095
 1906POPC   C4A27798   7.936  18.865   7.840
 1906POPC   C1B27799   7.975  19.276   8.688
 1906POPC   C2B27800   7.851  19.213   8.262
 1906POPC   C3B27801   8.062  19.378   7.914
 1906POPC   C4B27802   8.391  19.205   7.654
 1907POPC   NC327803  39.863  41.319   9.426
 1907POPC   PO427804  40.160  41.934   9.529
 1907POPC   GL127805  39.823  41.784   9.230
 1907POPC   GL227806  40.097  41.597   9.051
 1907POPC   C1A27807  39.630  41.509   8.867
 1907POPC   D2A27808  39.909  41.525   8.534
 1907POPC   C3A27809  39.737  41.619   8.140
 1907POPC   C4A27810  39.934  41.732   7.765
 1907POPC   C1B27811  40.398  41.587   8.676
 1907POPC   C2B27812  40.304  41.650   8.203
 1907POPC   C3B27813  40.431  41.591   7.749
 1907POPC   C4B27814  40.450  41.767   7.306
 1908POPC   NC327815   4.503  37.095   9.500
 1908POPC   PO427816   3.845  36.708   9.472
 1908POPC   GL127817   4.218  36.701   9.291
 1908POPC   GL227818   4.113  37.009   9.142
 1908POPC   C1A27819   4.460  36.712   8.913
 1908POPC   D2A27820   4.238  36.794   8.531
 1908POPC   C3A27821   4.528  36.840   8.238
 1908POPC   C4A27822   4.532  36.750   7.844
 1908POPC   C1B27823   4.315  37.220   8.823
 1908POPC   C2B27824   4.430  37.350   8.410
 1908POPC   C3B27825   4.409  37.270   7.978
 1908POPC   C4B27826   4.751  37.219   7.725
 1909POPC   NC327827   6.834  36.568   9.407
 1909POPC   PO427828   6.748  35.930   9.475
 1909POPC   GL127829   6.665  36.167   9.112
 1909POPC   GL227830   6.345  36.278   9.005
 1909POPC   C1A27831   6.769  35.979   8.719
 1909POPC   D2A27832   7.079  35.977   8.399
 1909POPC   C3A27833   6.910  35.858   8.005
 1909POPC   C4A27834   6.884  36.098   7.623
 1909POPC   C1B27835   6.582  36.447   8.676
 1909POPC   C2B27836   6.611  36.239   8.293
 1909POPC   C3B27837   6.714  36.413   7.950
 1909POPC   C4B27838   6.581  36.704   7.682
 1910POPC   NC327839  31.112  33.081   9.988
 1910POPC   PO427840  31.533  33.129   9.478
 1910POPC   GL127841  31.411  33.044   9.050
 1910POPC   GL227842  31.603  32.762   8.978
 1910POPC   C1A27843  31.309  32.897   8.615
 1910POPC   D2A27844  31.571  32.929   8.259
 1910POPC   C3A27845  31.311  33.051   7.915
 1910POPC   C4A27846  31.222  32.720   7.622
 1910POPC   C1B27847  31.801  33.102   8.738
 1910POPC   C2B27848  31.904  33.310   8.361
 1910POPC   C3B27849  31.753  33.330   7.982
 1910POPC   C4B27850  31.690  33.170   7.589
 1911POPC   NC327851  28.945  26.245   9.391
 1911POPC   PO427852  29.064  26.820   9.609
 1911POPC   GL127853  29.214  26.895   9.191
 1911POPC   GL227854  29.218  26.539   9.062
 1911POPC   C1A27855  29.521  26.872   8.852
 1911POPC   D2A27856  29.451  26.645   8.456
 1911POPC   C3A27857  29.376  26.862   8.081
 1911POPC   C4A27858  29.478  26.756   7.666
 1911POPC   C1B27859  29.019  26.841   8.728
 1911POPC   C2B27860  28.844  26.734   8.308
 1911POPC   C3B27861  28.959  26.638   7.868
 1911POPC   C4B27862  29.027  26.910   7.501
 1912POPC   NC327863  11.695  17.843   9.453
 1912POPC   PO427864  12.124  17.339   9.489
 1912POPC   GL127865  12.029  17.264   9.115
 1912POPC   GL227866  11.687  17.364   9.198
 1912POPC   C1A27867  12.200  17.321   8.706
 1912POPC   D2A27868  12.079  17.675   8.419
 1912POPC   C3A27869  12.073  17.532   7.991
 1912POPC   C4A27870  12.140  17.715   7.575
 1912POPC   C1B27871  11.745  17.541   8.795
 1912POPC   C2B27872  11.776  17.242   8.425
 1912POPC   C3B27873  11.646  17.214   8.001
 1912POPC   C4B27874  11.749  17.372   7.568
 1913POPC   NC327875  26.340  13.225   9.688
 1913POPC   PO427876  26.014  13.806   9.490
 1913POPC   GL127877  26.286  13.542   9.222
 1913POPC   GL227878  26.081  13.282   9.172
 1913POPC   C1A27879  26.376  13.377   8.758
 1913POPC   D2A27880  26.106  13.374   8.430
 1913POPC   C3A27881  26.313  13.536   8.078
 1913POPC   C4A27882  26.262  13.371   7.668
 1913POPC   C1B27883  25.979  13.653   8.857
 1913POPC   C2B27884  25.797  13.792   8.496
 1913POPC   C3B27885  25.827  13.678   8.083
 1913POPC   C4B27886  26.051  13.831   7.721
 1914POPC   NC327887  24.790  13.043   9.797
 1914POPC   PO427888  24.302  12.642   9.574
 1914POPC   GL127889  24.419  12.636   9.139
 1914POPC   GL227890  24.300  12.917   9.114
 1914POPC   C1A27891  24.598  12.698   8.751
 1914POPC   D2A27892  24.382  12.713   8.368
 1914POPC   C3A27893  24.599  12.888   8.038
 1914POPC   C4A27894  24.640  12.813   7.611
 1914POPC   C1B27895  24.172  13.032   8.732
 1914POPC   C2B27896  24.057  13.174   8.348
 1914POPC   C3B27897  24.348  13.353   8.118
 1914POPC   C4B27898  24.508  13.280   7.731
 1915POPC   NC327899  43.459  43.209   9.556
 1915POPC   PO427900  43.049  42.743   9.381
 1915POPC   GL127901  43.351  42.908   9.165
 1915POPC   GL227902  43.180  43.218   9.121
 1915POPC   C1A27903  43.499  42.939   8.801
 1915POPC   D2A27904  43.197  42.884   8.483
 1915POPC   C3A27905  43.321  42.889   8.090
 1915POPC   C4A27906  43.102  43.079   7.810
 1915POPC   C1B27907  43.258  43.359   8.675
 1915POPC   C2B27908  43.250  43.393   8.223
 1915POPC   C3B27909  43.171  43.569   7.817
 1915POPC   C4B27910  42.725  43.546   7.753
 1916POPC   NC327911  26.106   8.103   9.404
 1916POPC   PO427912  26.473   8.551   9.518
 1916POPC   GL127913  26.149   8.509   9.117
 1916POPC   GL227914  25.825   8.239   9.006
 1916POPC   C1A27915  26.049   8.522   8.664
 1916POPC   D2A27916  25.896   8.273   8.281
 1916POPC   C3A27917  26.168   8.288   7.902
 1916POPC   C4A27918  26.153   8.503   7.482
 1916POPC   C1B27919  26.016   7.961   8.711
 1916POPC   C2B27920  25.869   7.720   8.354
 1916POPC   C3B27921  25.700   7.863   7.971
 1916POPC   C4B27922  25.768   8.129   7.611
 1917POPC   NC327923  43.127  33.623   9.475
 1917POPC   PO427924  42.619  33.986   9.597
 1917POPC   GL127925  42.800  33.830   9.178
 1917POPC   GL227926  42.792  34.032   8.970
 1917POPC   C1A27927  43.186  33.716   8.847
 1917POPC   D2A27928  43.414  33.923   8.507
 1917POPC   C3A27929  43.308  33.752   8.084
 1917POPC   C4A27930  43.144  33.866   7.654
 1917POPC   C1B27931  42.701  33.657   8.696
 1917POPC   C2B27932  42.834  33.614   8.267
 1917POPC   C3B27933  42.725  33.945   7.941
 1917POPC   C4B27934  42.642  33.922   7.467
 1918POPC   NC327935  16.252  43.489   9.470
 1918POPC   PO427936  15.901  44.076   9.559
 1918POPC   GL127937  16.085  43.873   9.200
 1918POPC   GL227938  16.330  44.036   9.035
 1918POPC   C1A27939  16.154  43.627   8.803
 1918POPC   D2A27940  16.224  43.882   8.453
 1918POPC   C3A27941  15.995  43.753   8.093
 1918POPC   C4A27942  16.059  43.792   7.662
 1918POPC   C1B27943  15.944  44.178   8.818
 1918POPC   C2B27944  15.751  44.100   8.436
 1918POPC   C3B27945  15.766  44.227   8.027
 1918POPC   C4B27946  15.807  44.243   7.613
 1919POPC   NC327947  28.939   0.161   9.506
 1919POPC   PO427948  29.383   0.703   9.398
 1919POPC   GL127949  29.281   0.382   9.145
 1919POPC   GL227950  28.950   0.485   9.114
 1919POPC   C1A27951  29.265   0.465   8.714
 1919POPC   D2A27952  29.329   0.305   8.319
 1919POPC   C3A27953  29.363   0.593   8.008
 1919POPC   C4A27954  29.245   0.479   7.649
 1919POPC   C1B27955  28.788   0.236   8.818
 1919POPC   C2B27956  28.820   0.438   8.402
 1919POPC   C3B27957  28.907   0.295   8.001
 1919POPC   C4B27958  28.705   0.065   7.700
 1920POPC   NC327959  15.086   5.265   9.484
 1920POPC   PO427960  15.004   4.664   9.376
 1920POPC   GL127961  15.263   4.849   9.043
 1920POPC   GL227962  15.288   5.220   8.989
 1920POPC   C1A27963  15.351   4.789   8.618
 1920POPC   D2A27964  15.494   5.133   8.377
 1920POPC   C3A27965  15.286   5.155   7.980
 1920POPC   C4A27966  15.256   4.998   7.578
 1920POPC   C1B27967  15.539   5.516   8.747
 1920POPC   C2B27968  15.639   5.723   8.394
 1920POPC   C3B27969  15.677   5.504   8.036
 1920POPC   C4B27970  15.667   5.276   7.629
 1921POPC   NC327971  43.820  41.964   9.466
 1921POPC   PO427972  43.682  42.684   9.491
 1921POPC   GL127973  43.805  42.582   9.098
 1921POPC   GL227974  43.778  42.239   9.045
 1921POPC   C1A27975  43.770  42.547   8.650
 1921POPC   D2A27976  44.056  42.583   8.349
 1921POPC   C3A27977  43.875  42.439   7.973
 1921POPC   C4A27978  43.706  42.783   7.781
 1921POPC   C1B27979  44.154  42.227   8.750
 1921POPC   C2B27980  44.103  42.082   8.331
 1921POPC   C3B27981  44.111  41.906   7.952
 1921POPC   C4B27982  44.028  42.084   7.591
 1922POPC   NC327983  15.103  25.377   9.457
 1922POPC   PO427984  15.619  24.954   9.387
 1922POPC   GL127985  15.312  25.094   9.078
 1922POPC   GL227986  15.346  25.478   9.043
 1922POPC   C1A27987  15.267  25.187   8.637
 1922POPC   D2A27988  15.289  25.539   8.324
 1922POPC   C3A27989  15.191  25.267   7.977
 1922POPC   C4A27990  15.467  25.114   7.680
 1922POPC   C1B27991  14.946  25.505   8.815
 1922POPC   C2B27992  14.840  25.394   8.427
 1922POPC   C3B27993  14.763  25.544   8.042
 1922POPC   C4B27994  14.829  25.535   7.635
 1923POPC   NC327995   3.858  42.965   9.853
 1923POPC   PO427996   3.480  43.343   9.417
 1923POPC   GL127997   3.391  43.097   9.053
 1923POPC   GL227998   3.675  43.058   8.844
 1923POPC   C1A27999   3.303  42.737   8.726
 1923POPC   D2A28000   3.588  42.757   8.389
 1923POPC   C3A28001   3.472  42.981   8.029
 1923POPC   C4A28002   3.646  43.094   7.662
 1923POPC   C1B28003   3.923  43.381   8.671
 1923POPC   C2B28004   4.098  43.469   8.243
 1923POPC   C3B28005   3.973  43.474   7.789
 1923POPC   C4B28006   3.997  43.281   7.352
 1924POPC   NC328007  19.510  33.453   9.365
 1924POPC   PO428008  19.744  32.811   9.607
 1924POPC   GL128009  19.956  32.878   9.207
 1924POPC   GL228010  19.909  33.211   9.152
 1924POPC   C1A28011  19.989  32.943   8.747
 1924POPC   D2A28012  20.006  33.109   8.383
 1924POPC   C3A28013  19.959  32.832   8.080
 1924POPC   C4A28014  19.985  32.966   7.713
 1924POPC   C1B28015  19.854  33.456   8.781
 1924POPC   C2B28016  19.611  33.423   8.403
 1924POPC   C3B28017  19.618  33.221   8.020
 1924POPC   C4B28018  19.703  33.376   7.593
 1925POPC   NC328019   7.034   7.241   9.386
 1925POPC   PO428020   6.353   7.267   9.640
 1925POPC   GL128021   6.518   7.327   9.157
 1925POPC   GL228022   6.325   7.621   8.958
 1925POPC   C1A28023   6.483   7.243   8.681
 1925POPC   D2A28024   6.489   7.413   8.228
 1925POPC   C3A28025   6.757   7.167   7.949
 1925POPC   C4A28026   7.000   7.079   7.575
 1925POPC   C1B28027   6.363   7.893   8.567
 1925POPC   C2B28028   6.617   7.942   8.177
 1925POPC   C3B28029   6.758   7.693   7.811
 1925POPC   C4B28030   6.630   7.674   7.342
 1926POPC   NC328031  29.701  14.830   9.555
 1926POPC   PO428032  30.177  14.437   9.430
 1926POPC   GL128033  29.965  14.242   9.118
 1926POPC   GL228034  29.647  14.412   9.165
 1926POPC   C1A28035  29.847  14.122   8.715
 1926POPC   D2A28036  29.863  14.050   8.264
 1926POPC   C3A28037  30.044  14.354   7.986
 1926POPC   C4A28038  29.995  14.272   7.570
 1926POPC   C1B28039  29.882  14.626   8.824
 1926POPC   C2B28040  29.828  14.681   8.407
 1926POPC   C3B28041  29.605  14.610   8.039
 1926POPC   C4B28042  29.835  14.759   7.690
 1927POPC   NC328043  15.274   3.666   9.596
 1927POPC   PO428044  15.036   3.089   9.654
 1927POPC   GL128045  15.182   3.298   9.193
 1927POPC   GL228046  14.962   3.563   9.068
 1927POPC   C1A28047  15.416   3.425   8.773
 1927POPC   D2A28048  15.413   3.644   8.349
 1927POPC   C3A28049  15.227   3.447   7.980
 1927POPC   C4A28050  15.195   3.373   7.521
 1927POPC   C1B28051  14.949   3.558   8.599
 1927POPC   C2B28052  14.942   3.811   8.211
 1927POPC   C3B28053  14.808   3.732   7.797
 1927POPC   C4B28054  14.900   3.763   7.341
 1928POPC   NC328055  17.679   3.886   9.528
 1928POPC   PO428056  17.428   3.313   9.641
 1928POPC   GL128057  17.580   3.403   9.230
 1928POPC   GL228058  17.333   3.328   8.979
 1928POPC   C1A28059  17.799   3.586   8.885
 1928POPC   D2A28060  17.658   3.796   8.542
 1928POPC   C3A28061  17.848   3.759   8.139
 1928POPC   C4A28062  17.672   3.527   7.789
 1928POPC   C1B28063  17.067   3.196   8.607
 1928POPC   C2B28064  17.017   3.298   8.193
 1928POPC   C3B28065  17.334   3.121   7.916
 1928POPC   C4B28066  17.395   3.189   7.496
 1929POPC   NC328067  10.666  21.821   9.376
 1929POPC   PO428068  10.875  21.277   9.800
 1929POPC   GL128069  10.686  21.322   9.330
 1929POPC   GL228070  10.385  21.129   9.229
 1929POPC   C1A28071  10.758  21.367   8.866
 1929POPC   D2A28072  10.601  21.474   8.441
 1929POPC   C3A28073  10.791  21.428   8.014
 1929POPC   C4A28074  10.847  21.086   7.711
 1929POPC   C1B28075  10.264  21.302   8.833
 1929POPC   C2B28076  10.185  21.159   8.418
 1929POPC   C3B28077  10.260  21.373   8.023
 1929POPC   C4B28078  10.033  21.637   7.755
 1930POPC   NC328079  43.830  21.459   9.689
 1930POPC   PO428080  44.369  21.103   9.522
 1930POPC   GL128081  44.151  21.385   9.245
 1930POPC   GL228082  43.870  21.247   9.180
 1930POPC   C1A28083  44.020  21.552   8.799
 1930POPC   D2A28084  44.298  21.794   8.489
 1930POPC   C3A28085  44.098  21.752   8.083
 1930POPC   C4A28086  43.883  21.432   7.825
 1930POPC   C1B28087  43.783  21.032   8.805
 1930POPC   C2B28088  43.658  21.028   8.373
 1930POPC   C3B28089  43.501  21.108   7.945
 1930POPC   C4B28090  43.682  21.105   7.506
 1931POPC   NC328091  42.974  40.532   9.408
 1931POPC   PO428092  42.855  41.180   9.536
 1931POPC   GL128093  43.088  41.065   9.137
 1931POPC   GL228094  43.240  40.726   9.021
 1931POPC   C1A28095  43.266  41.129   8.718
 1931POPC   D2A28096  43.303  40.838   8.377
 1931POPC   C3A28097  43.168  40.920   7.997
 1931POPC   C4A28098  42.886  40.783   7.721
 1931POPC   C1B28099  43.183  40.450   8.661
 1931POPC   C2B28100  43.133  40.373   8.234
 1931POPC   C3B28101  43.062  40.328   7.811
 1931POPC   C4B28102  42.789  40.224   7.488
 1932POPC   NC328103   3.868  33.620   9.674
 1932POPC   PO428104   4.356  34.065   9.409
 1932POPC   GL128105   4.427  33.953   9.003
 1932POPC   GL228106   4.141  34.206   8.885
 1932POPC   C1A28107   4.385  33.776   8.592
 1932POPC   D2A28108   4.499  33.968   8.197
 1932POPC   C3A28109   4.564  33.837   7.777
 1932POPC   C4A28110   4.470  33.949   7.359
 1932POPC   C1B28111   3.893  33.967   8.559
 1932POPC   C2B28112   4.030  33.722   8.196
 1932POPC   C3B28113   4.004  33.782   7.764
 1932POPC   C4B28114   4.170  33.486   7.513
 1933POPC   NC328115   6.051   7.410   9.316
 1933POPC   PO428116   5.494   7.704   9.372
 1933POPC   GL128117   5.674   7.450   8.984
 1933POPC   GL228118   5.994   7.232   8.857
 1933POPC   C1A28119   5.575   7.283   8.583
 1933POPC   D2A28120   5.854   7.084   8.284
 1933POPC   C3A28121   6.027   7.330   8.015
 1933POPC   C4A28122   5.911   7.267   7.647
 1933POPC   C1B28123   6.055   7.494   8.502
 1933POPC   C2B28124   6.091   7.823   8.160
 1933POPC   C3B28125   6.251   7.769   7.759
 1933POPC   C4B28126   6.411   7.348   7.649
 1934POPC   NC328127   4.874  18.000   9.412
 1934POPC   PO428128   4.889  18.653   9.451
 1934POPC   GL128129   4.941  18.560   9.064
 1934POPC   GL228130   5.092  18.249   9.022
 1934POPC   C1A28131   5.256  18.670   8.754
 1934POPC   D2A28132   5.458  18.616   8.361
 1934POPC   C3A28133   5.186  18.505   8.034
 1934POPC   C4A28134   5.261  18.298   7.654
 1934POPC   C1B28135   4.766  18.260   8.672
 1934POPC   C2B28136   4.772  18.233   8.209
 1934POPC   C3B28137   4.884  18.013   7.823
 1934POPC   C4B28138   4.949  17.986   7.336
 1935POPC   NC328139   3.547  35.511   9.403
 1935POPC   PO428140   3.993  34.961   9.475
 1935POPC   GL128141   3.784  35.113   9.110
 1935POPC   GL228142   3.769  35.485   8.963
 1935POPC   C1A28143   3.711  35.080   8.679
 1935POPC   D2A28144   3.873  35.446   8.458
 1935POPC   C3A28145   3.700  35.474   8.062
 1935POPC   C4A28146   3.438  35.200   7.847
 1935POPC   C1B28147   3.364  35.573   8.728
 1935POPC   C2B28148   3.122  35.566   8.314
 1935POPC   C3B28149   3.240  35.677   7.883
 1935POPC   C4B28150   3.593  35.638   7.599
 1936POPC   NC328151   4.829  29.877   9.463
 1936POPC   PO428152   5.502  29.894   9.384
 1936POPC   GL128153   5.214  29.872   9.029
 1936POPC   GL228154   4.824  29.926   8.966
 1936POPC   C1A28155   5.122  29.717   8.622
 1936POPC   D2A28156   4.962  29.925   8.283
 1936POPC   C3A28157   5.083  29.730   7.934
 1936POPC   C4A28158   5.310  30.023   7.750
 1936POPC   C1B28159   5.011  30.249   8.694
 1936POPC   C2B28160   4.937  30.449   8.291
 1936POPC   C3B28161   4.840  30.259   7.892
 1936POPC   C4B28162   4.715  29.906   7.628
 1937POPC   NC328163  17.173  22.655   9.377
 1937POPC   PO428164  16.757  23.145   9.634
 1937POPC   GL128165  16.713  22.922   9.251
 1937POPC   GL228166  16.565  23.167   9.125
 1937POPC   C1A28167  16.548  22.771   8.837
 1937POPC   D2A28168  16.291  22.717   8.455
 1937POPC   C3A28169  16.461  22.913   8.096
 1937POPC   C4A28170  16.390  22.777   7.698
 1937POPC   C1B28171  16.869  23.182   8.795
 1937POPC   C2B28172  17.017  23.096   8.387
 1937POPC   C3B28173  16.983  22.971   7.969
 1937POPC   C4B28174  16.747  23.142   7.628
 1938POPC   NC328175  27.647  36.371   9.386
 1938POPC   PO428176  27.333  35.714   9.443
 1938POPC   GL128177  27.421  35.993   9.111
 1938POPC   GL228178  27.737  35.872   8.966
 1938POPC   C1A28179  27.432  36.205   8.701
 1938POPC   D2A28180  27.546  35.971   8.340
 1938POPC   C3A28181  27.646  36.177   8.006
 1938POPC   C4A28182  27.404  36.318   7.633
 1938POPC   C1B28183  27.954  36.110   8.640
 1938POPC   C2B28184  28.084  35.943   8.250
 1938POPC   C3B28185  27.921  35.754   7.900
 1938POPC   C4B28186  27.729  35.933   7.544
 1939POPC   NC328187  18.617  28.628   9.600
 1939POPC   PO428188  18.336  28.083   9.305
 1939POPC   GL128189  18.305  28.468   9.074
 1939POPC   GL228190  18.582  28.697   9.079
 1939POPC   C1A28191  18.165  28.354   8.697
 1939POPC   D2A28192  18.155  28.530   8.337
 1939POPC   C3A28193  18.220  28.246   8.017
 1939POPC   C4A28194  18.327  28.585   7.740
 1939POPC   C1B28195  18.572  28.680   8.647
 1939POPC   C2B28196  18.620  28.316   8.387
 1939POPC   C3B28197  18.724  28.299   7.955
 1939POPC   C4B28198  18.501  28.142   7.576
 1940POPC   NC328199  38.306   1.178   9.485
 1940POPC   PO428200  38.597   1.751   9.627
 1940POPC   GL128201  38.531   1.466   9.133
 1940POPC   GL228202  38.500   1.080   9.046
 1940POPC   C1A28203  38.591   1.362   8.648
 1940POPC   D2A28204  38.198   1.383   8.403
 1940POPC   C3A28205  38.209   1.496   7.957
 1940POPC   C4A28206  38.605   1.344   7.741
 1940POPC   C1B28207  38.792   0.806   8.826
 1940POPC   C2B28208  38.847   0.884   8.395
 1940POPC   C3B28209  38.513   1.033   8.124
 1940POPC   C4B28210  38.199   1.018   7.800
 1941POPC   NC328211  35.410  41.032   9.324
 1941POPC   PO428212  35.295  41.747   9.475
 1941POPC   GL128213  35.364  41.559   9.114
 1941POPC   GL228214  35.663  41.449   9.169
 1941POPC   C1A28215  35.253  41.478   8.712
 1941POPC   D2A28216  35.029  41.256   8.412
 1941POPC   C3A28217  35.179  41.380   8.038
 1941POPC   C4A28218  35.070  41.409   7.658
 1941POPC   C1B28219  35.735  41.244   8.768
 1941POPC   C2B28220  35.579  41.315   8.348
 1941POPC   C3B28221  35.659  41.543   7.940
 1941POPC   C4B28222  35.634  41.393   7.485
 1942POPC   NC328223  14.776  26.113   9.586
 1942POPC   PO428224  15.367  25.809   9.482
 1942POPC   GL128225  15.179  25.973   9.135
 1942POPC   GL228226  14.894  25.809   9.191
 1942POPC   C1A28227  15.298  25.868   8.725
 1942POPC   D2A28228  15.676  25.840   8.503
 1942POPC   C3A28229  15.546  25.978   8.112
 1942POPC   C4A28230  15.262  25.763   7.839
 1942POPC   C1B28231  14.788  25.965   8.759
 1942POPC   C2B28232  14.945  25.930   8.344
 1942POPC   C3B28233  14.847  26.042   7.918
 1942POPC   C4B28234  14.986  25.988   7.462
 1943POPC   NC328235  10.176  41.516   9.411
 1943POPC   PO428236   9.650  41.845   9.663
 1943POPC   GL128237   9.780  41.713   9.185
 1943POPC   GL228238  10.013  41.773   9.011
 1943POPC   C1A28239   9.652  41.530   8.721
 1943POPC   D2A28240   9.533  41.700   8.335
 1943POPC   C3A28241   9.363  41.521   7.973
 1943POPC   C4A28242   9.562  41.288   7.627
 1943POPC   C1B28243  10.155  41.542   8.731
 1943POPC   C2B28244  10.012  41.446   8.365
 1943POPC   C3B28245   9.868  41.424   8.014
 1943POPC   C4B28246   9.935  41.633   7.674
 1944POPC   NC328247  41.883   0.282   9.497
 1944POPC   PO428248  42.253   0.813   9.685
 1944POPC   GL128249  42.078   0.737   9.277
 1944POPC   GL228250  42.285   0.447   9.208
 1944POPC   C1A28251  42.159   0.807   8.832
 1944POPC   D2A28252  42.319   0.634   8.442
 1944POPC   C3A28253  42.088   0.519   8.063
 1944POPC   C4A28254  42.375   0.543   7.696
 1944POPC   C1B28255  42.223   0.262   8.808
 1944POPC   C2B28256  42.210   0.122   8.388
 1944POPC   C3B28257  42.396   0.096   7.988
 1944POPC   C4B28258  42.169   0.098   7.622
 1945POPC   NC328259  41.564  20.827   9.562
 1945POPC   PO428260  41.492  20.193   9.340
 1945POPC   GL128261  41.666  20.387   9.008
 1945POPC   GL228262  41.658  20.714   9.074
 1945POPC   C1A28263  41.719  20.402   8.571
 1945POPC   D2A28264  41.856  20.718   8.284
 1945POPC   C3A28265  41.736  20.562   7.879
 1945POPC   C4A28266  41.374  20.250   7.797
 1945POPC   C1B28267  41.329  20.714   8.754
 1945POPC   C2B28268  41.360  20.850   8.333
 1945POPC   C3B28269  41.262  20.772   7.926
 1945POPC   C4B28270  41.077  20.987   7.549
 1946POPC   NC328271  40.605  34.639   9.424
 1946POPC   PO428272  41.239  34.427   9.532
 1946POPC   GL128273  41.075  34.608   9.165
 1946POPC   GL228274  41.276  34.457   8.949
 1946POPC   C1A28275  40.787  34.500   8.799
 1946POPC   D2A28276  40.472  34.374   8.486
 1946POPC   C3A28277  40.688  34.547   8.121
 1946POPC   C4A28278  40.587  34.600   7.703
 1946POPC   C1B28279  41.313  34.527   8.543
 1946POPC   C2B28280  41.276  34.260   8.197
 1946POPC   C3B28281  41.040  34.298   7.826
 1946POPC   C4B28282  41.073  34.717   7.724
 1947POPC   NC328283  44.949  38.240   9.620
 1947POPC   PO428284   0.506  38.633   9.456
 1947POPC   GL128285   0.298  38.434   9.175
 1947POPC   GL228286   0.349  38.119   9.302
 1947POPC   C1A28287   0.379  38.618   8.801
 1947POPC   D2A28288   0.419  38.731   8.402
 1947POPC   C3A28289   0.691  38.521   8.148
 1947POPC   C4A28290   0.666  38.354   7.737
 1947POPC   C1B28291   0.570  38.139   8.877
 1947POPC   C2B28292   0.428  38.210   8.485
 1947POPC   C3B28293   0.369  38.114   8.066
 1947POPC   C4B28294   0.264  38.027   7.615
 1948POPC   NC328295  12.512  27.266   9.587
 1948POPC   PO428296  12.958  27.726   9.460
 1948POPC   GL128297  12.757  27.737   9.073
 1948POPC   GL228298  12.504  27.483   9.105
 1948POPC   C1A28299  12.878  27.652   8.653
 1948POPC   D2A28300  13.025  27.569   8.252
 1948POPC   C3A28301  12.699  27.582   7.966
 1948POPC   C4A28302  12.606  27.748   7.560
 1948POPC   C1B28303  12.909  27.256   8.977
 1948POPC   C2B28304  13.175  27.192   8.591
 1948POPC   C3B28305  13.370  27.193   8.141
 1948POPC   C4B28306  13.125  27.374   7.783
 1949POPC   NC328307   6.395   0.874   9.568
 1949POPC   PO428308   6.935   1.293   9.446
 1949POPC   GL128309   6.688   1.369   9.117
 1949POPC   GL228310   6.630   1.013   9.098
 1949POPC   C1A28311   6.700   1.381   8.679
 1949POPC   D2A28312   6.503   1.524   8.294
 1949POPC   C3A28313   6.753   1.377   7.957
 1949POPC   C4A28314   6.663   0.995   7.753
 1949POPC   C1B28315   6.999   0.979   8.822
 1949POPC   C2B28316   6.917   1.000   8.360
 1949POPC   C3B28317   7.147   0.981   7.965
 1949POPC   C4B28318   7.099   0.848   7.527
 1950POPC   NC328319  21.840  14.940   9.548
 1950POPC   PO428320  22.400  15.240   9.725
 1950POPC   GL128321  22.390  15.225   9.273
 1950POPC   GL228322  22.039  15.258   9.173
 1950POPC   C1A28323  22.360  15.022   8.866
 1950POPC   D2A28324  22.160  15.063   8.472
 1950POPC   C3A28325  22.386  14.917   8.144
 1950POPC   C4A28326  22.325  14.984   7.709
 1950POPC   C1B28327  21.827  15.328   8.760
 1950POPC   C2B28328  21.716  15.269   8.302
 1950POPC   C3B28329  21.871  14.998   7.950
 1950POPC   C4B28330  21.904  15.146   7.465
 1951POPC   NC328331   6.969  20.311   9.540
 1951POPC   PO428332   6.295  20.349   9.452
 1951POPC   GL128333   6.646  20.538   9.215
 1951POPC   GL228334   6.527  20.835   9.209
 1951POPC   C1A28335   6.784  20.761   8.795
 1951POPC   D2A28336   6.997  20.883   8.421
 1951POPC   C3A28337   6.794  20.874   7.996
 1951POPC   C4A28338   6.906  20.693   7.580
 1951POPC   C1B28339   6.334  20.555   8.821
 1951POPC   C2B28340   6.548  20.522   8.402
 1951POPC   C3B28341   6.356  20.583   7.981
 1951POPC   C4B28342   6.413  20.833   7.613
 1952POPC   NC328343   2.452  38.869   9.552
 1952POPC   PO428344   2.797  39.459   9.712
 1952POPC   GL128345   2.639  39.194   9.240
 1952POPC   GL228346   2.763  38.887   9.122
 1952POPC   C1A28347   2.527  39.264   8.758
 1952POPC   D2A28348   2.732  39.325   8.330
 1952POPC   C3A28349   2.609  39.420   7.872
 1952POPC   C4A28350   2.706  39.222   7.460
 1952POPC   C1B28351   2.554  38.760   8.712
 1952POPC   C2B28352   2.491  38.878   8.232
 1952POPC   C3B28353   2.374  38.947   7.779
 1952POPC   C4B28354   2.404  38.847   7.300
 1953POPC   NC328355  12.853  26.347   9.387
 1953POPC   PO428356  12.419  26.790   9.679
 1953POPC   GL128357  12.668  26.811   9.284
 1953POPC   GL228358  12.444  26.545   9.169
 1953POPC   C1A28359  12.938  26.749   8.869
 1953POPC   D2A28360  13.074  26.723   8.423
 1953POPC   C3A28361  12.894  27.054   8.147
 1953POPC   C4A28362  12.767  27.009   7.710
 1953POPC   C1B28363  12.519  26.440   8.778
 1953POPC   C2B28364  12.739  26.348   8.432
 1953POPC   C3B28365  12.751  26.550   8.050
 1953POPC   C4B28366  12.788  26.498   7.649
 1954POPC   NC328367   3.827   6.344   9.413
 1954POPC   PO428368   3.742   6.973   9.352
 1954POPC   GL128369   3.439   6.663   9.231
 1954POPC   GL228370   3.147   6.889   9.125
 1954POPC   C1A28371   3.379   6.311   8.905
 1954POPC   D2A28372   3.332   6.357   8.456
 1954POPC   C3A28373   3.641   6.464   8.119
 1954POPC   C4A28374   3.467   6.546   7.702
 1954POPC   C1B28375   3.415   6.788   8.745
 1954POPC   C2B28376   3.488   6.894   8.339
 1954POPC   C3B28377   3.260   6.938   7.962
 1954POPC   C4B28378   3.533   7.078   7.625
 1955POPC   NC328379   8.541  16.015   9.487
 1955POPC   PO428380   7.915  15.740   9.448
 1955POPC   GL128381   8.150  16.019   9.181
 1955POPC   GL228382   8.323  15.726   9.095
 1955POPC   C1A28383   8.380  16.141   8.769
 1955POPC   D2A28384   8.201  16.190   8.338
 1955POPC   C3A28385   8.254  15.871   8.005
 1955POPC   C4A28386   8.418  15.673   7.612
 1955POPC   C1B28387   8.005  15.813   8.751
 1955POPC   C2B28388   7.897  15.719   8.366
 1955POPC   C3B28389   7.768  15.640   7.992
 1955POPC   C4B28390   7.926  15.738   7.607
 1956POPC   NC328391   6.765  29.038   9.337
 1956POPC   PO428392   6.243  29.272   9.386
 1956POPC   GL128393   6.493  29.265   8.988
 1956POPC   GL228394   6.839  29.477   9.072
 1956POPC   C1A28395   6.434  29.107   8.562
 1956POPC   D2A28396   6.641  28.842   8.263
 1956POPC   C3A28397   6.602  28.995   7.877
 1956POPC   C4A28398   6.239  29.087   7.645
 1956POPC   C1B28399   6.921  29.325   8.667
 1956POPC   C2B28400   6.794  29.347   8.240
 1956POPC   C3B28401   6.991  29.482   7.870
 1956POPC   C4B28402   7.103  29.104   7.717
 1957POPC   NC328403  43.506  22.400   9.591
 1957POPC   PO428404  42.943  22.057   9.579
 1957POPC   GL128405  43.124  22.298   9.243
 1957POPC   GL228406  42.846  22.419   9.092
 1957POPC   C1A28407  43.319  22.351   8.821
 1957POPC   D2A28408  43.325  22.070   8.446
 1957POPC   C3A28409  43.227  22.202   8.029
 1957POPC   C4A28410  42.937  22.031   7.703
 1957POPC   C1B28411  42.828  22.511   8.686
 1957POPC   C2B28412  42.835  22.378   8.286
 1957POPC   C3B28413  42.856  22.533   7.865
 1957POPC   C4B28414  43.044  22.505   7.438
 1958POPC   NC328415   6.728  44.337   9.331
 1958POPC   PO428416   6.878  43.733   9.551
 1958POPC   GL128417   6.748  43.836   9.148
 1958POPC   GL228418   6.389  43.939   9.177
 1958POPC   C1A28419   6.625  43.791   8.709
 1958POPC   D2A28420   6.510  43.919   8.306
 1958POPC   C3A28421   6.664  43.873   7.901
 1958POPC   C4A28422   6.724  43.718   7.508
 1958POPC   C1B28423   6.338  44.232   8.800
 1958POPC   C2B28424   6.284  44.392   8.378
 1958POPC   C3B28425   6.241  44.197   7.968
 1958POPC   C4B28426   6.478  44.230   7.567
 1959POPC   NC328427  25.016  10.839   9.199
 1959POPC   PO428428  25.177  11.344   9.632
 1959POPC   GL128429  25.352  11.327   9.157
 1959POPC   GL228430  25.639  11.552   9.109
 1959POPC   C1A28431  25.417  11.086   8.711
 1959POPC   D2A28432  25.192  10.926   8.323
 1959POPC   C3A28433  25.306  11.033   7.876
 1959POPC   C4A28434  25.284  11.084   7.400
 1959POPC   C1B28435  25.516  11.582   8.691
 1959POPC   C2B28436  25.407  11.400   8.283
 1959POPC   C3B28437  25.221  11.575   7.914
 1959POPC   C4B28438  25.469  11.920   7.800
 1960POPC   NC328439  20.160  39.794   9.603
 1960POPC   PO428440  19.744  40.257   9.818
 1960POPC   GL128441  19.812  40.200   9.299
 1960POPC   GL228442  20.150  40.258   9.185
 1960POPC   C1A28443  19.780  40.193   8.810
 1960POPC   D2A28444  19.931  40.335   8.373
 1960POPC   C3A28445  19.811  40.050   8.031
 1960POPC   C4A28446  19.632  40.032   7.615
 1960POPC   C1B28447  20.161  39.879   8.892
 1960POPC   C2B28448  20.033  39.809   8.449
 1960POPC   C3B28449  20.185  39.726   8.014
 1960POPC   C4B28450  20.061  39.750   7.589
 1961POPC   NC328451  21.290  22.924   9.602
 1961POPC   PO428452  21.048  23.378   9.212
 1961POPC   GL128453  21.168  22.915   9.075
 1961POPC   GL228454  21.470  22.721   9.138
 1961POPC   C1A28455  21.160  22.750   8.642
 1961POPC   D2A28456  20.913  22.924   8.284
 1961POPC   C3A28457  21.083  23.074   7.873
 1961POPC   C4A28458  21.528  23.129   7.724
 1961POPC   C1B28459  21.675  22.721   8.719
 1961POPC   C2B28460  21.587  22.829   8.269
 1961POPC   C3B28461  21.395  22.659   7.875
 1961POPC   C4B28462  21.595  22.687   7.475
 1962POPC   NC328463  28.288  23.154   9.369
 1962POPC   PO428464  28.467  23.722   9.472
 1962POPC   GL128465  28.644  23.742   9.048
 1962POPC   GL228466  28.320  23.819   8.955
 1962POPC   C1A28467  28.661  23.788   8.564
 1962POPC   D2A28468  28.488  24.070   8.228
 1962POPC   C3A28469  28.459  23.851   7.837
 1962POPC   C4A28470  28.528  23.390   7.767
 1962POPC   C1B28471  28.159  23.798   8.547
 1962POPC   C2B28472  28.275  23.548   8.199
 1962POPC   C3B28473  28.026  23.522   7.814
 1962POPC   C4B28474  27.924  23.922   7.592
 1963POPC   NC328475  29.526  25.085   9.824
 1963POPC   PO428476  29.040  25.096   9.413
 1963POPC   GL128477  29.302  25.131   9.076
 1963POPC   GL228478  29.558  25.019   9.279
 1963POPC   C1A28479  29.301  25.126   8.621
 1963POPC   D2A28480  29.030  24.978   8.290
 1963POPC   C3A28481  28.834  25.346   8.143
 1963POPC   C4A28482  28.974  25.627   7.827
 1963POPC   C1B28483  29.729  24.964   8.847
 1963POPC   C2B28484  29.803  25.116   8.420
 1963POPC   C3B28485  29.464  25.289   8.153
 1963POPC   C4B28486  29.191  25.150   7.835
 1964POPC   NC328487  36.743  13.377   9.530
 1964POPC   PO428488  37.140  13.920   9.537
 1964POPC   GL128489  37.104  13.608   9.207
 1964POPC   GL228490  37.362  13.799   9.062
 1964POPC   C1A28491  36.800  13.434   8.884
 1964POPC   D2A28492  36.529  13.537   8.541
 1964POPC   C3A28493  36.795  13.480   8.197
 1964POPC   C4A28494  36.885  13.472   7.795
 1964POPC   C1B28495  37.093  13.813   8.691
 1964POPC   C2B28496  37.212  13.846   8.279
 1964POPC   C3B28497  37.084  13.927   7.893
 1964POPC   C4B28498  36.826  13.906   7.544
 1965POPC   NC328499  20.583  24.968   9.372
 1965POPC   PO428500  20.588  25.636   9.398
 1965POPC   GL128501  20.538  25.372   9.063
 1965POPC   GL228502  20.237  25.242   9.076
 1965POPC   C1A28503  20.615  25.070   8.717
 1965POPC   D2A28504  20.812  24.960   8.328
 1965POPC   C3A28505  20.795  25.271   8.002
 1965POPC   C4A28506  20.857  25.376   7.564
 1965POPC   C1B28507  20.257  25.443   8.643
 1965POPC   C2B28508  20.298  25.426   8.185
 1965POPC   C3B28509  20.361  25.306   7.741
 1965POPC   C4B28510  20.251  25.230   7.276
 1966POPC   NC328511  22.683  32.772   9.542
 1966POPC   PO428512  23.146  33.249   9.558
 1966POPC   GL128513  23.043  33.416   9.160
 1966POPC   GL228514  22.763  33.170   9.181
 1966POPC   C1A28515  23.070  33.228   8.742
 1966POPC   D2A28516  22.866  33.150   8.323
 1966POPC   C3A28517  23.092  32.926   7.988
 1966POPC   C4A28518  23.298  33.093   7.578
 1966POPC   C1B28519  22.685  32.907   8.830
 1966POPC   C2B28520  22.741  32.652   8.459
 1966POPC   C3B28521  22.654  32.689   8.053
 1966POPC   C4B28522  22.693  32.938   7.684
 1967POPC   NC328523  26.859  30.511   9.592
 1967POPC   PO428524  26.568  31.132   9.498
 1967POPC   GL128525  26.742  30.792   9.173
 1967POPC   GL228526  26.989  30.482   9.107
 1967POPC   C1A28527  26.562  30.593   8.797
 1967POPC   D2A28528  26.634  30.324   8.418
 1967POPC   C3A28529  26.913  30.524   8.109
 1967POPC   C4A28530  26.785  30.758   7.729
 1967POPC   C1B28531  27.045  30.585   8.670
 1967POPC   C2B28532  27.263  30.848   8.423
 1967POPC   C3B28533  27.183  30.970   8.010
 1967POPC   C4B28534  27.297  30.692   7.667
 1968POPC   NC328535   2.385   2.420   9.468
 1968POPC   PO428536   2.160   3.054   9.613
 1968POPC   GL128537   2.046   2.750   9.237
 1968POPC   GL228538   1.709   2.594   9.179
 1968POPC   C1A28539   2.083   2.682   8.793
 1968POPC   D2A28540   1.870   2.831   8.399
 1968POPC   C3A28541   2.095   2.799   8.030
 1968POPC   C4A28542   2.025   2.886   7.645
 1968POPC   C1B28543   1.576   2.620   8.747
 1968POPC   C2B28544   1.663   2.372   8.342
 1968POPC   C3B28545   1.752   2.449   7.893
 1968POPC   C4B28546   1.539   2.742   7.666
 1969POPC   NC328547  20.213  18.671   9.423
 1969POPC   PO428548  19.495  18.941   9.392
 1969POPC   GL128549  19.847  18.923   9.144
 1969POPC   GL228550  20.106  19.167   9.231
 1969POPC   C1A28551  19.804  18.719   8.741
 1969POPC   D2A28552  19.507  18.814   8.387
 1969POPC   C3A28553  19.675  18.772   7.967
 1969POPC   C4A28554  19.508  18.988   7.656
 1969POPC   C1B28555  20.110  19.149   8.773
 1969POPC   C2B28556  19.963  19.029   8.367
 1969POPC   C3B28557  19.997  19.182   7.979
 1969POPC   C4B28558  20.231  19.455   7.706
 1970POPC   NC328559  37.496  35.144   9.484
 1970POPC   PO428560  37.931  35.418   9.838
 1970POPC   GL128561  37.887  35.399   9.317
 1970POPC   GL228562  38.131  35.515   9.145
 1970POPC   C1A28563  37.695  35.294   8.887
 1970POPC   D2A28564  37.505  35.389   8.474
 1970POPC   C3A28565  37.701  35.266   8.079
 1970POPC   C4A28566  37.444  35.239   7.735
 1970POPC   C1B28567  37.973  35.719   8.781
 1970POPC   C2B28568  38.016  35.834   8.338
 1970POPC   C3B28569  38.044  35.646   7.928
 1970POPC   C4B28570  37.837  35.497   7.549
 1971POPC   NC328571  42.757  32.901   9.560
 1971POPC   PO428572  43.457  32.644   9.633
 1971POPC   GL128573  43.173  32.821   9.268
 1971POPC   GL228574  42.852  32.687   9.119
 1971POPC   C1A28575  43.125  33.077   8.866
 1971POPC   D2A28576  43.291  32.984   8.464
 1971POPC   C3A28577  43.182  33.229   8.113
 1971POPC   C4A28578  43.176  33.137   7.693
 1971POPC   C1B28579  42.715  32.808   8.693
 1971POPC   C2B28580  42.850  32.817   8.254
 1971POPC   C3B28581  42.714  33.066   7.911
 1971POPC   C4B28582  42.803  33.483   7.749
 1972POPC   NC328583  15.793  42.756   9.476
 1972POPC   PO428584  16.083  42.122   9.438
 1972POPC   GL128585  16.142  42.175   9.021
 1972POPC   GL228586  15.814  42.373   8.939
 1972POPC   C1A28587  16.125  42.181   8.568
 1972POPC   D2A28588  15.714  42.282   8.410
 1972POPC   C3A28589  15.716  42.384   8.004
 1972POPC   C4A28590  16.121  42.297   7.849
 1972POPC   C1B28591  15.994  42.656   8.592
 1972POPC   C2B28592  16.397  42.593   8.359
 1972POPC   C3B28593  16.414  42.728   7.940
 1972POPC   C4B28594  15.992  42.816   7.818
 1973POPC   NC328595  34.086  39.675   9.566
 1973POPC   PO428596  33.708  40.180   9.676
 1973POPC   GL128597  33.644  39.878   9.285
 1973POPC   GL228598  33.970  39.850   9.107
 1973POPC   C1A28599  33.579  39.860   8.789
 1973POPC   D2A28600  33.870  39.960   8.461
 1973POPC   C3A28601  33.767  39.893   8.035
 1973POPC   C4A28602  33.633  40.267   7.803
 1973POPC   C1B28603  34.124  39.626   8.756
 1973POPC   C2B28604  34.315  39.691   8.369
 1973POPC   C3B28605  34.257  40.056   8.132
 1973POPC   C4B28606  34.135  40.202   7.748
 1974POPC   NC328607  36.637   3.361   9.433
 1974POPC   PO428608  37.208   3.732   9.478
 1974POPC   GL128609  37.055   3.452   9.134
 1974POPC   GL228610  37.248   3.149   9.068
 1974POPC   C1A28611  36.801   3.385   8.761
 1974POPC   D2A28612  36.647   3.293   8.374
 1974POPC   C3A28613  36.712   3.532   8.038
 1974POPC   C4A28614  37.037   3.442   7.813
 1974POPC   C1B28615  37.303   3.391   8.696
 1974POPC   C2B28616  37.120   3.641   8.365
 1974POPC   C3B28617  37.203   3.882   7.990
 1974POPC   C4B28618  37.015   3.886   7.575
 1975POPC   NC328619  31.620   9.620   9.539
 1975POPC   PO428620  31.065  10.007   9.622
 1975POPC   GL128621  31.287   9.901   9.225
 1975POPC   GL228622  31.409   9.599   9.097
 1975POPC   C1A28623  31.102   9.829   8.777
 1975POPC   D2A28624  31.094  10.031   8.383
 1975POPC   C3A28625  30.978   9.830   7.983
 1975POPC   C4A28626  31.376   9.688   7.862
 1975POPC   C1B28627  31.636   9.666   8.713
 1975POPC   C2B28628  31.662   9.562   8.268
 1975POPC   C3B28629  31.868   9.589   7.869
 1975POPC   C4B28630  32.076   9.820   7.553
 1976POPC   NC328631  29.867   2.737   9.591
 1976POPC   PO428632  30.491   2.448   9.583
 1976POPC   GL128633  30.131   2.518   9.207
 1976POPC   GL228634  29.869   2.833   9.106
 1976POPC   C1A28635  29.942   2.419   8.793
 1976POPC   D2A28636  29.886   2.543   8.401
 1976POPC   C3A28637  30.075   2.420   8.026
 1976POPC   C4A28638  29.977   2.596   7.636
 1976POPC   C1B28639  29.587   2.799   8.748
 1976POPC   C2B28640  29.616   2.961   8.334
 1976POPC   C3B28641  29.605   2.856   7.872
 1976POPC   C4B28642  29.638   2.949   7.377
 1977POPC   NC328643   3.974   2.238   9.845
 1977POPC   PO428644   3.432   1.998   9.516
 1977POPC   GL128645   3.439   1.911   9.088
 1977POPC   GL228646   3.208   1.653   9.069
 1977POPC   C1A28647   3.534   2.034   8.646
 1977POPC   D2A28648   3.275   2.219   8.298
 1977POPC   C3A28649   3.586   2.368   8.003
 1977POPC   C4A28650   3.797   2.129   7.732
 1977POPC   C1B28651   3.516   1.506   8.761
 1977POPC   C2B28652   3.673   1.601   8.383
 1977POPC   C3B28653   3.550   1.840   8.088
 1977POPC   C4B28654   3.592   1.670   7.709
 1978POPC   NC328655   5.496  35.638   9.840
 1978POPC   PO428656   6.138  35.614   9.572
 1978POPC   GL128657   5.940  35.317   9.269
 1978POPC   GL228658   5.622  35.349   9.084
 1978POPC   C1A28659   6.051  35.235   8.833
 1978POPC   D2A28660   5.978  35.432   8.443
 1978POPC   C3A28661   6.040  35.226   8.051
 1978POPC   C4A28662   6.138  35.477   7.713
 1978POPC   C1B28663   5.494  35.400   8.668
 1978POPC   C2B28664   5.571  35.166   8.284
 1978POPC   C3B28665   5.549  35.313   7.849
 1978POPC   C4B28666   5.612  35.735   7.745
 1979POPC   NC328667  21.497  43.320   9.692
 1979POPC   PO428668  21.686  43.930   9.561
 1979POPC   GL128669  21.469  43.885   9.189
 1979POPC   GL228670  21.654  43.574   9.144
 1979POPC   C1A28671  21.161  44.054   8.826
 1979POPC   D2A28672  20.954  44.060   8.386
 1979POPC   C3A28673  21.206  43.997   7.983
 1979POPC   C4A28674  21.638  43.903   7.799
 1979POPC   C1B28675  21.536  43.742   8.713
 1979POPC   C2B28676  21.290  43.666   8.357
 1979POPC   C3B28677  21.394  43.476   7.951
 1979POPC   C4B28678  21.286  43.398   7.515
 1980POPC   NC328679  34.611  36.262   9.416
 1980POPC   PO428680  34.560  35.613   9.423
 1980POPC   GL128681  34.441  35.856   9.061
 1980POPC   GL228682  34.529  36.204   8.934
 1980POPC   C1A28683  34.599  35.801   8.641
 1980POPC   D2A28684  34.732  36.157   8.441
 1980POPC   C3A28685  34.876  36.085   8.059
 1980POPC   C4A28686  34.567  36.066   7.759
 1980POPC   C1B28687  34.944  36.423   8.821
 1980POPC   C2B28688  34.996  36.606   8.391
 1980POPC   C3B28689  34.939  36.557   7.931
 1980POPC   C4B28690  34.605  36.549   7.635
 1981POPC   NC328691  28.941  15.046   9.422
 1981POPC   PO428692  29.531  15.268   9.468
 1981POPC   GL128693  29.245  15.304   9.094
 1981POPC   GL228694  28.954  15.480   9.093
 1981POPC   C1A28695  29.040  14.985   8.776
 1981POPC   D2A28696  29.191  14.861   8.358
 1981POPC   C3A28697  29.122  15.242   8.140
 1981POPC   C4A28698  29.395  15.564   7.939
 1981POPC   C1B28699  28.782  15.409   8.688
 1981POPC   C2B28700  28.619  15.473   8.301
 1981POPC   C3B28701  28.673  15.298   7.894
 1981POPC   C4B28702  28.921  14.993   7.735
 1982POPC   NC328703  26.470  31.542   9.299
 1982POPC   PO428704  26.844  32.062   9.718
 1982POPC   GL128705  26.903  31.786   9.281
 1982POPC   GL228706  26.956  31.356   9.225
 1982POPC   C1A28707  26.964  31.636   8.822
 1982POPC   D2A28708  26.747  31.480   8.433
 1982POPC   C3A28709  26.783  31.689   8.014
 1982POPC   C4A28710  26.896  31.590   7.544
 1982POPC   C1B28711  26.835  31.116   8.801
 1982POPC   C2B28712  26.754  30.963   8.357
 1982POPC   C3B28713  26.663  31.205   7.953
 1982POPC   C4B28714  26.423  31.556   7.691
 1983POPC   NC328715   8.631  22.815   9.515
 1983POPC   PO428716   9.263  22.809   9.585
 1983POPC   GL128717   9.189  22.992   9.184
 1983POPC   GL228718   8.870  23.192   9.189
 1983POPC   C1A28719   8.998  22.849   8.795
 1983POPC   D2A28720   8.811  22.903   8.389
 1983POPC   C3A28721   9.022  22.845   8.000
 1983POPC   C4A28722   8.849  22.612   7.667
 1983POPC   C1B28723   8.741  23.303   8.757
 1983POPC   C2B28724   8.589  23.354   8.326
 1983POPC   C3B28725   8.612  23.271   7.877
 1983POPC   C4B28726   8.854  23.099   7.556
 1984POPC   NC328727  24.061  32.125   9.672
 1984POPC   PO428728  23.863  32.732   9.498
 1984POPC   GL128729  23.792  32.468   9.163
 1984POPC   GL228730  23.692  32.110   9.179
 1984POPC   C1A28731  23.890  32.388   8.751
 1984POPC   D2A28732  23.776  32.364   8.333
 1984POPC   C3A28733  24.016  32.562   8.024
 1984POPC   C4A28734  23.961  32.462   7.623
 1984POPC   C1B28735  23.528  32.019   8.732
 1984POPC   C2B28736  23.410  32.036   8.278
 1984POPC   C3B28737  23.481  32.206   7.882
 1984POPC   C4B28738  23.472  31.833   7.692
 1985POPC   NC328739  34.961  22.630   9.410
 1985POPC   PO428740  34.850  23.216   9.520
 1985POPC   GL128741  34.747  23.089   9.103
 1985POPC   GL228742  34.402  23.050   9.037
 1985POPC   C1A28743  34.716  23.263   8.670
 1985POPC   D2A28744  34.844  23.455   8.258
 1985POPC   C3A28745  34.825  23.222   7.835
 1985POPC   C4A28746  35.109  22.945   7.567
 1985POPC   C1B28747  34.296  22.975   8.599
 1985POPC   C2B28748  34.481  23.056   8.197
 1985POPC   C3B28749  34.308  23.082   7.772
 1985POPC   C4B28750  34.116  23.046   7.342
 1986POPC   NC328751   3.687  41.384   9.488
 1986POPC   PO428752   3.309  41.848   9.455
 1986POPC   GL128753   3.585  41.739   9.107
 1986POPC   GL228754   3.496  41.389   9.026
 1986POPC   C1A28755   3.546  41.748   8.654
 1986POPC   D2A28756   3.353  41.576   8.332
 1986POPC   C3A28757   3.510  41.567   7.935
 1986POPC   C4A28758   3.722  41.783   7.621
 1986POPC   C1B28759   3.131  41.462   8.797
 1986POPC   C2B28760   2.993  41.232   8.423
 1986POPC   C3B28761   3.040  41.336   7.989
 1986POPC   C4B28762   3.150  41.519   7.587
 1987POPC   NC328763  25.805  17.767   9.887
 1987POPC   PO428764  26.225  17.357   9.515
 1987POPC   GL128765  26.083  17.459   9.116
 1987POPC   GL228766  26.227  17.792   9.026
 1987POPC   C1A28767  26.118  17.251   8.713
 1987POPC   D2A28768  26.376  17.187   8.354
 1987POPC   C3A28769  26.179  17.215   7.986
 1987POPC   C4A28770  25.765  17.114   7.921
 1987POPC   C1B28771  25.896  17.715   8.696
 1987POPC   C2B28772  25.927  17.561   8.285
 1987POPC   C3B28773  25.865  17.612   7.854
 1987POPC   C4B28774  25.781  17.800   7.481
 1988POPC   NC328775   9.726  38.166   9.517
 1988POPC   PO428776   9.675  37.588   9.758
 1988POPC   GL128777   9.769  37.591   9.308
 1988POPC   GL228778   9.984  37.902   9.172
 1988POPC   C1A28779   9.772  37.408   8.900
 1988POPC   D2A28780  10.114  37.438   8.543
 1988POPC   C3A28781   9.998  37.360   8.116
 1988POPC   C4A28782   9.809  37.576   7.782
 1988POPC   C1B28783   9.905  37.862   8.720
 1988POPC   C2B28784   9.908  37.886   8.264
 1988POPC   C3B28785   9.947  38.078   7.840
 1988POPC   C4B28786   9.586  38.146   7.606
 1989POPC   NC328787  10.682  29.207   9.456
 1989POPC   PO428788  10.259  28.763   9.152
 1989POPC   GL128789  10.501  29.085   9.002
 1989POPC   GL228790  10.821  28.922   9.067
 1989POPC   C1A28791  10.645  29.381   8.657
 1989POPC   D2A28792  10.803  29.527   8.215
 1989POPC   C3A28793  10.707  29.310   7.875
 1989POPC   C4A28794  10.377  29.064   7.741
 1989POPC   C1B28795  10.757  28.834   8.656
 1989POPC   C2B28796  10.582  28.987   8.294
 1989POPC   C3B28797  10.820  28.837   7.989
 1989POPC   C4B28798  10.736  28.708   7.616
 1990POPC   NC328799   4.095  32.091   9.720
 1990POPC   PO428800   3.703  32.552   9.407
 1990POPC   GL128801   4.092  32.339   9.206
 1990POPC   GL228802   4.222  31.976   9.192
 1990POPC   C1A28803   4.364  32.317   8.826
 1990POPC   D2A28804   4.571  32.450   8.484
 1990POPC   C3A28805   4.383  32.386   8.097
 1990POPC   C4A28806   4.544  32.193   7.733
 1990POPC   C1B28807   4.001  31.975   8.795
 1990POPC   C2B28808   4.145  32.063   8.399
 1990POPC   C3B28809   4.173  31.898   7.972
 1990POPC   C4B28810   3.805  31.833   7.684
 1991POPC   NC328811  39.365  28.688   9.719
 1991POPC   PO428812  38.937  28.231   9.564
 1991POPC   GL128813  39.103  28.401   9.188
 1991POPC   GL228814  39.280  28.703   9.214
 1991POPC   C1A28815  39.271  28.414   8.758
 1991POPC   D2A28816  39.193  28.663   8.384
 1991POPC   C3A28817  39.163  28.525   7.943
 1991POPC   C4A28818  38.883  28.380   7.604
 1991POPC   C1B28819  39.556  28.839   8.871
 1991POPC   C2B28820  39.711  28.631   8.507
 1991POPC   C3B28821  39.633  28.724   8.078
 1991POPC   C4B28822  39.627  28.514   7.676
 1992POPC   NC328823   5.238  11.703   9.675
 1992POPC   PO428824   5.311  11.022   9.484
 1992POPC   GL128825   5.151  11.363   9.224
 1992POPC   GL228826   4.769  11.433   9.169
 1992POPC   C1A28827   5.144  11.450   8.789
 1992POPC   D2A28828   5.084  11.273   8.395
 1992POPC   C3A28829   5.331  11.413   8.064
 1992POPC   C4A28830   5.385  11.279   7.656
 1992POPC   C1B28831   4.715  11.698   8.821
 1992POPC   C2B28832   4.951  11.797   8.456
 1992POPC   C3B28833   4.859  11.632   8.069
 1992POPC   C4B28834   4.965  11.547   7.643
 1993POPC   NC328835  32.005  10.512   9.425
 1993POPC   PO428836  32.548  10.987   9.528
 1993POPC   GL128837  32.376  10.770   9.186
 1993POPC   GL228838  32.073  10.958   9.143
 1993POPC   C1A28839  32.173  10.573   8.796
 1993POPC   D2A28840  32.077  10.407   8.383
 1993POPC   C3A28841  32.403  10.460   8.062
 1993POPC   C4A28842  32.228  10.354   7.669
 1993POPC   C1B28843  31.884  11.002   8.749
 1993POPC   C2B28844  31.740  10.983   8.308
 1993POPC   C3B28845  32.005  10.773   8.001
 1993POPC   C4B28846  32.156  10.858   7.572
 1994POPC   NC328847  34.007   1.432   9.431
 1994POPC   PO428848  34.708   1.254   9.531
 1994POPC   GL128849  34.553   1.083   9.142
 1994POPC   GL228850  34.405   1.386   9.110
 1994POPC   C1A28851  34.694   1.122   8.716
 1994POPC   D2A28852  34.512   1.214   8.314
 1994POPC   C3A28853  34.578   0.993   7.947
 1994POPC   C4A28854  34.695   1.038   7.527
 1994POPC   C1B28855  34.236   1.372   8.716
 1994POPC   C2B28856  34.131   1.589   8.342
 1994POPC   C3B28857  34.214   1.396   7.952
 1994POPC   C4B28858  34.538   1.506   7.645
 1995POPC   NC328859  27.933  28.629   9.644
 1995POPC   PO428860  27.542  28.073   9.823
 1995POPC   GL128861  27.621  28.179   9.346
 1995POPC   GL228862  27.675  28.503   9.242
 1995POPC   C1A28863  27.352  28.280   8.934
 1995POPC   D2A28864  27.260  28.599   8.616
 1995POPC   C3A28865  27.174  28.483   8.175
 1995POPC   C4A28866  27.145  28.435   7.723
 1995POPC   C1B28867  27.857  28.412   8.861
 1995POPC   C2B28868  27.883  28.200   8.475
 1995POPC   C3B28869  27.911  28.217   8.034
 1995POPC   C4B28870  27.625  28.184   7.690
 1996POPC   NC328871  33.741  10.958   9.717
 1996POPC   PO428872  33.388  10.506   9.550
 1996POPC   GL128873  33.634  10.675   9.225
 1996POPC   GL228874  33.734  10.323   9.164
 1996POPC   C1A28875  33.679  10.741   8.760
 1996POPC   D2A28876  33.844  10.938   8.384
 1996POPC   C3A28877  33.857  10.675   8.012
 1996POPC   C4A28878  33.964  10.573   7.598
 1996POPC   C1B28879  33.644  10.242   8.727
 1996POPC   C2B28880  33.662  10.124   8.278
 1996POPC   C3B28881  33.896  10.134   7.880
 1996POPC   C4B28882  33.725  10.149   7.449
 1997POPC   NC328883  12.098  25.601   9.486
 1997POPC   PO428884  11.899  24.997   9.577
 1997POPC   GL128885  12.197  25.104   9.255
 1997POPC   GL228886  12.545  25.235   9.366
 1997POPC   C1A28887  12.197  25.126   8.811
 1997POPC   D2A28888  12.035  25.316   8.454
 1997POPC   C3A28889  12.040  25.102   8.118
 1997POPC   C4A28890  11.882  24.977   7.774
 1997POPC   C1B28891  12.547  25.481   8.983
 1997POPC   C2B28892  12.526  25.436   8.527
 1997POPC   C3B28893  12.414  25.436   8.091
 1997POPC   C4B28894  12.161  25.384   7.695
 1998POPC   NC328895  37.206  26.754   9.566
 1998POPC   PO428896  37.773  26.843   9.850
 1998POPC   GL128897  37.637  26.789   9.323
 1998POPC   GL228898  37.556  27.093   9.123
 1998POPC   C1A28899  37.789  26.703   8.889
 1998POPC   D2A28900  37.925  26.711   8.464
 1998POPC   C3A28901  37.656  26.616   8.082
 1998POPC   C4A28902  37.316  26.426   7.803
 1998POPC   C1B28903  37.878  27.217   8.825
 1998POPC   C2B28904  37.973  27.228   8.403
 1998POPC   C3B28905  37.853  27.121   7.998
 1998POPC   C4B28906  38.120  27.088   7.684
 1999POPC   NC328907  30.920  34.059   9.902
 1999POPC   PO428908  30.447  33.777   9.493
 1999POPC   GL128909  30.672  33.595   9.168
 1999POPC   GL228910  30.801  33.917   9.122
 1999POPC   C1A28911  30.562  33.517   8.740
 1999POPC   D2A28912  30.611  33.663   8.331
 1999POPC   C3A28913  30.374  33.517   7.984
 1999POPC   C4A28914  30.509  33.730   7.658
 1999POPC   C1B28915  31.025  33.791   8.793
 1999POPC   C2B28916  31.153  33.921   8.419
 1999POPC   C3B28917  30.968  33.913   8.032
 1999POPC   C4B28918  30.931  34.000   7.626
 2000POPC   NC328919  40.006  20.128   9.803
 2000POPC   PO428920  40.034  20.718   9.519
 2000POPC   GL128921  40.096  20.569   9.104
 2000POPC   GL228922  40.431  20.462   9.120
 2000POPC   C1A28923  39.867  20.462   8.693
 2000POPC   D2A28924  39.742  20.350   8.253
 2000POPC   C3A28925  39.634  20.668   7.969
 2000POPC   C4A28926  39.813  20.969   7.739
 2000POPC   C1B28927  40.377  20.373   8.691
 2000POPC   C2B28928  40.232  20.552   8.304
 2000POPC   C3B28929  40.151  20.581   7.867
 2000POPC   C4B28930  40.444  20.430   7.570
 2001POPC   NC328931  11.666  11.949   9.505
 2001POPC   PO428932  11.228  12.379   9.499
 2001POPC   GL128933  11.177  12.293   9.084
 2001POPC   GL228934  10.908  12.051   9.008
 2001POPC   C1A28935  11.008  12.469   8.732
 2001POPC   D2A28936  10.858  12.370   8.345
 2001POPC   C3A28937  11.153  12.356   8.054
 2001POPC   C4A28938  11.244  12.103   7.704
 2001POPC   C1B28939  11.128  11.995   8.576
 2001POPC   C2B28940  11.319  11.888   8.166
 2001POPC   C3B28941  11.182  11.611   7.809
 2001POPC   C4B28942  10.993  11.381   7.437
 2002POPC   NC328943  15.468  19.923   9.544
 2002POPC   PO428944  14.770  19.979   9.519
 2002POPC   GL128945  15.078  19.769   9.235
 2002POPC   GL228946  15.403  19.532   9.200
 2002POPC   C1A28947  15.325  20.004   8.906
 2002POPC   D2A28948  15.300  20.208   8.486
 2002POPC   C3A28949  15.066  19.933   8.205
 2002POPC   C4A28950  14.971  19.910   7.767
 2002POPC   C1B28951  15.132  19.503   8.813
 2002POPC   C2B28952  15.033  19.421   8.369
 2002POPC   C3B28953  15.208  19.486   7.944
 2002POPC   C4B28954  15.231  19.515   7.461
 2003POPC   NC328955   0.708  39.809   9.540
 2003POPC   PO428956   0.073  40.080   9.616
 2003POPC   GL128957   0.260  40.010   9.225
 2003POPC   GL228958   0.383  39.676   9.165
 2003POPC   C1A28959   0.296  40.006   8.784
 2003POPC   D2A28960   0.046  39.889   8.471
 2003POPC   C3A28961   0.205  39.950   8.095
 2003POPC   C4A28962   0.231  39.959   7.691
 2003POPC   C1B28963   0.540  39.572   8.758
 2003POPC   C2B28964   0.614  39.749   8.344
 2003POPC   C3B28965   0.710  39.931   7.933
 2003POPC   C4B28966   0.787  39.698   7.532
 2004POPC   NC328967  15.913  20.471   9.738
 2004POPC   PO428968  16.151  21.087   9.788
 2004POPC   GL128969  15.976  20.779   9.343
 2004POPC   GL228970  15.683  20.871   9.124
 2004POPC   C1A28971  16.017  20.604   8.856
 2004POPC   D2A28972  15.797  20.379   8.454
 2004POPC   C3A28973  15.917  20.486   8.015
 2004POPC   C4A28974  16.291  20.741   7.872
 2004POPC   C1B28975  15.761  21.045   8.684
 2004POPC   C2B28976  15.858  20.988   8.228
 2004POPC   C3B28977  15.822  20.933   7.776
 2004POPC   C4B28978  15.656  21.026   7.356
 2005POPC   NC328979   5.815  30.248   9.409
 2005POPC   PO428980   6.185  29.767   9.650
 2005POPC   GL128981   5.968  29.853   9.163
 2005POPC   GL228982   6.119  30.154   9.021
 2005POPC   C1A28983   5.750  29.938   8.744
 2005POPC   D2A28984   5.488  29.975   8.355
 2005POPC   C3A28985   5.768  30.037   8.013
 2005POPC   C4A28986   5.843  30.125   7.596
 2005POPC   C1B28987   6.254  30.113   8.606
 2005POPC   C2B28988   6.282  30.183   8.181
 2005POPC   C3B28989   6.242  29.917   7.829
 2005POPC   C4B28990   6.010  29.558   7.751
 2006POPC   NC328991  40.222   4.585   9.272
 2006POPC   PO428992  39.897   5.051   9.740
 2006POPC   GL128993  39.890   5.034   9.270
 2006POPC   GL228994  40.016   5.321   9.073
 2006POPC   C1A28995  39.867   4.916   8.831
 2006POPC   D2A28996  40.131   4.899   8.498
 2006POPC   C3A28997  39.930   5.017   8.124
 2006POPC   C4A28998  39.757   5.099   7.731
 2006POPC   C1B28999  40.140   5.385   8.653
 2006POPC   C2B29000  40.345   5.292   8.249
 2006POPC   C3B29001  40.200   5.353   7.815
 2006POPC   C4B29002  40.407   5.398   7.392
 2007POPC   NC329003   1.984  41.273   9.605
 2007POPC   PO429004   1.736  41.863   9.599
 2007POPC   GL129005   1.975  41.616   9.247
 2007POPC   GL229006   1.708  41.339   9.182
 2007POPC   C1A29007   2.201  41.737   8.851
 2007POPC   D2A29008   2.348  41.911   8.438
 2007POPC   C3A29009   2.007  41.936   8.124
 2007POPC   C4A29010   1.827  41.732   7.734
 2007POPC   C1B29011   1.924  41.304   8.790
 2007POPC   C2B29012   2.022  41.509   8.407
 2007POPC   C3B29013   2.154  41.446   7.986
 2007POPC   C4B29014   1.934  41.165   7.769
 2008POPC   NC329015  20.149  11.769   9.556
 2008POPC   PO429016  20.400  12.375   9.477
 2008POPC   GL129017  20.260  12.097   9.093
 2008POPC   GL229018  20.032  11.797   9.071
 2008POPC   C1A29019  19.972  12.140   8.700
 2008POPC   D2A29020  19.716  11.976   8.333
 2008POPC   C3A29021  19.710  12.243   7.944
 2008POPC   C4A29022  19.963  12.477   7.650
 2008POPC   C1B29023  20.210  11.669   8.660
 2008POPC   C2B29024  20.075  11.612   8.209
 2008POPC   C3B29025  19.782  11.751   7.859
 2008POPC   C4B29026  19.775  11.611   7.428
 2009POPC   NC329027  35.735  38.181   9.492
 2009POPC   PO429028  36.391  38.277   9.755
 2009POPC   GL129029  36.285  38.275   9.290
 2009POPC   GL229030  36.026  38.525   9.221
 2009POPC   C1A29031  36.367  38.412   8.830
 2009POPC   D2A29032  36.458  38.544   8.397
 2009POPC   C3A29033  36.428  38.297   8.012
 2009POPC   C4A29034  36.495  38.654   7.737
 2009POPC   C1B29035  35.889  38.238   8.859
 2009POPC   C2B29036  35.980  38.287   8.434
 2009POPC   C3B29037  36.026  38.585   8.102
 2009POPC   C4B29038  36.018  38.427   7.696
 2010POPC   NC329039  14.060  29.999   9.615
 2010POPC   PO429040  13.438  29.773   9.531
 2010POPC   GL129041  13.728  29.861   9.200
 2010POPC   GL229042  13.753  30.228   9.243
 2010POPC   C1A29043  13.579  29.711   8.785
 2010POPC   D2A29044  13.379  29.586   8.383
 2010POPC   C3A29045  13.586  29.771   8.016
 2010POPC   C4A29046  13.407  30.047   7.741
 2010POPC   C1B29047  13.589  30.227   8.826
 2010POPC   C2B29048  13.688  30.068   8.428
 2010POPC   C3B29049  13.729  30.291   8.064
 2010POPC   C4B29050  13.872  30.230   7.670
 2011POPC   NC329051  18.244  35.688   9.734
 2011POPC   PO429052  18.316  35.086   9.638
 2011POPC   GL129053  18.278  35.371   9.268
 2011POPC   GL229054  18.009  35.570   9.187
 2011POPC   C1A29055  18.340  35.279   8.832
 2011POPC   D2A29056  18.085  35.224   8.463
 2011POPC   C3A29057  18.306  35.346   8.094
 2011POPC   C4A29058  18.280  35.215   7.694
 2011POPC   C1B29059  18.072  35.720   8.730
 2011POPC   C2B29060  17.960  35.698   8.256
 2011POPC   C3B29061  17.864  35.508   7.818
 2011POPC   C4B29062  17.974  35.484   7.356
 2012POPC   NC329063  13.224   2.132   9.781
 2012POPC   PO429064  12.759   1.758   9.318
 2012POPC   GL129065  12.809   2.089   9.020
 2012POPC   GL229066  13.093   1.931   8.843
 2012POPC   C1A29067  12.780   2.285   8.659
 2012POPC   D2A29068  12.880   1.938   8.385
 2012POPC   C3A29069  12.894   2.132   8.044
 2012POPC   C4A29070  12.795   2.134   7.639
 2012POPC   C1B29071  13.506   1.726   8.814
 2012POPC   C2B29072  13.423   1.811   8.411
 2012POPC   C3B29073  13.207   1.701   8.042
 2012POPC   C4B29074  13.252   1.915   7.669
 2013POPC   NC329075  17.245   9.055   9.481
 2013POPC   PO429076  17.902   8.812   9.542
 2013POPC   GL129077  17.695   9.063   9.186
 2013POPC   GL229078  17.374   8.928   9.017
 2013POPC   C1A29079  17.755   9.088   8.724
 2013POPC   D2A29080  17.397   8.984   8.452
 2013POPC   C3A29081  17.433   9.048   7.996
 2013POPC   C4A29082  17.488   9.167   7.561
 2013POPC   C1B29083  17.617   8.597   8.824
 2013POPC   C2B29084  17.492   8.432   8.426
 2013POPC   C3B29085  17.361   8.545   8.004
 2013POPC   C4B29086  17.631   8.655   7.656
 2014POPC   NC329087  16.819  40.079   9.654
 2014POPC   PO429088  16.239  39.845   9.502
 2014POPC   GL129089  16.460  39.896   9.111
 2014POPC   GL229090  16.758  40.073   9.156
 2014POPC   C1A29091  16.647  39.860   8.680
 2014POPC   D2A29092  16.811  40.203   8.464
 2014POPC   C3A29093  16.659  40.294   8.053
 2014POPC   C4A29094  16.838  40.498   7.716
 2014POPC   C1B29095  17.084  39.846   8.923
 2014POPC   C2B29096  17.155  39.839   8.455
 2014POPC   C3B29097  16.871  39.819   8.069
 2014POPC   C4B29098  16.993  39.785   7.628
 2015POPC   NC329099   5.175  12.366   9.357
 2015POPC   PO429100   4.812  11.871   9.652
 2015POPC   GL129101   5.027  11.883   9.216
 2015POPC   GL229102   4.945  12.143   8.980
 2015POPC   C1A29103   5.375  11.914   8.866
 2015POPC   D2A29104   5.506  11.874   8.420
 2015POPC   C3A29105   5.241  12.131   8.148
 2015POPC   C4A29106   4.934  12.053   7.809
 2015POPC   C1B29107   4.691  12.207   8.644
 2015POPC   C2B29108   4.736  12.228   8.234
 2015POPC   C3B29109   4.542  12.335   7.865
 2015POPC   C4B29110   4.578  12.308   7.401
 2016POPC   NC329111  30.048  38.331   9.471
 2016POPC   PO429112  29.537  38.852   9.568
 2016POPC   GL129113  29.854  38.847   9.189
 2016POPC   GL229114  30.187  38.691   9.090
 2016POPC   C1A29115  29.828  38.697   8.722
 2016POPC   D2A29116  30.040  38.762   8.288
 2016POPC   C3A29117  29.746  38.640   7.933
 2016POPC   C4A29118  29.558  38.189   7.866
 2016POPC   C1B29119  30.244  38.283   8.816
 2016POPC   C2B29120  30.186  38.079   8.376
 2016POPC   C3B29121  30.099  38.280   7.949
 2016POPC   C4B29122  30.201  38.624   7.648
 2017POPC   NC329123   0.885  38.223   9.412
 2017POPC   PO429124   1.232  38.733   9.533
 2017POPC   GL129125   0.951  38.661   9.168
 2017POPC   GL229126   1.258  38.495   9.029
 2017POPC   C1A29127   0.864  38.542   8.737
 2017POPC   D2A29128   1.204  38.514   8.499
 2017POPC   C3A29129   1.109  38.797   8.226
 2017POPC   C4A29130   1.130  38.564   7.823
 2017POPC   C1B29131   1.583  38.271   8.748
 2017POPC   C2B29132   1.655  38.111   8.338
 2017POPC   C3B29133   1.552  38.081   7.886
 2017POPC   C4B29134   1.667  37.960   7.450
 2018POPC   NC329135   5.332  15.698   9.483
 2018POPC   PO429136   4.767  16.104   9.575
 2018POPC   GL129137   4.930  15.899   9.211
 2018POPC   GL229138   5.183  16.110   9.147
 2018POPC   C1A29139   5.040  15.739   8.794
 2018POPC   D2A29140   4.870  15.832   8.390
 2018POPC   C3A29141   5.012  15.743   7.978
 2018POPC   C4A29142   4.724  15.760   7.646
 2018POPC   C1B29143   5.244  16.216   8.725
 2018POPC   C2B29144   5.021  16.325   8.374
 2018POPC   C3B29145   4.891  16.222   7.946
 2018POPC   C4B29146   5.102  16.184   7.550
 2019POPC   NC329147  14.266   0.876   9.297
 2019POPC   PO429148  14.613   1.497   9.405
 2019POPC   GL129149  14.519   1.278   9.081
 2019POPC   GL229150  14.741   0.997   9.077
 2019POPC   C1A29151  14.389   1.420   8.695
 2019POPC   D2A29152  14.138   1.450   8.348
 2019POPC   C3A29153  14.287   1.561   7.969
 2019POPC   C4A29154  14.236   1.317   7.616
 2019POPC   C1B29155  14.530   0.922   8.691
 2019POPC   C2B29156  14.419   1.012   8.292
 2019POPC   C3B29157  14.297   0.882   7.887
 2019POPC   C4B29158  14.166   0.836   7.427
 2020POPC   NC329159   5.834   4.871   9.549
 2020POPC   PO429160   5.886   5.534   9.417
 2020POPC   GL129161   5.791   5.211   9.138
 2020POPC   GL229162   6.112   5.024   9.118
 2020POPC   C1A29163   5.648   4.869   8.886
 2020POPC   D2A29164   5.553   4.729   8.454
 2020POPC   C3A29165   5.750   5.002   8.163
 2020POPC   C4A29166   5.699   5.006   7.700
 2020POPC   C1B29167   6.052   5.112   8.667
 2020POPC   C2B29168   6.241   5.199   8.262
 2020POPC   C3B29169   6.169   5.061   7.845
 2020POPC   C4B29170   6.178   4.724   7.545
 2021POPC   NC329171  38.289  10.723   9.751
 2021POPC   PO429172  38.812  10.378   9.606
 2021POPC   GL129173  38.452  10.427   9.326
 2021POPC   GL229174  38.220  10.741   9.261
 2021POPC   C1A29175  38.441  10.497   8.888
 2021POPC   D2A29176  38.593  10.649   8.530
 2021POPC   C3A29177  38.458  10.593   8.099
 2021POPC   C4A29178  38.433  10.443   7.649
 2021POPC   C1B29179  38.146  10.909   8.847
 2021POPC   C2B29180  38.085  10.695   8.451
 2021POPC   C3B29181  38.014  10.830   8.025
 2021POPC   C4B29182  37.966  10.681   7.624
 2022POPC   NC329183  35.983  26.031   9.317
 2022POPC   PO429184  36.329  26.605   9.400
 2022POPC   GL129185  36.101  26.447   9.002
 2022POPC   GL229186  35.859  26.134   8.853
 2022POPC   C1A29187  36.154  26.396   8.556
 2022POPC   D2A29188  36.103  25.971   8.368
 2022POPC   C3A29189  36.047  26.045   7.943
 2022POPC   C4A29190  36.200  26.432   7.778
 2022POPC   C1B29191  35.838  25.696   8.712
 2022POPC   C2B29192  35.939  25.447   8.348
 2022POPC   C3B29193  35.862  25.563   7.920
 2022POPC   C4B29194  35.829  25.798   7.483
 2023POPC   NC329195  37.980  42.236   9.423
 2023POPC   PO429196  37.455  42.600   9.588
 2023POPC   GL129197  37.552  42.415   9.174
 2023POPC   GL229198  37.528  42.044   9.186
 2023POPC   C1A29199  37.829  42.352   8.782
 2023POPC   D2A29200  38.037  42.348   8.378
 2023POPC   C3A29201  37.774  42.457   8.008
 2023POPC   C4A29202  37.593  42.522   7.599
 2023POPC   C1B29203  37.397  42.078   8.769
 2023POPC   C2B29204  37.482  42.236   8.367
 2023POPC   C3B29205  37.488  41.979   7.976
 2023POPC   C4B29206  37.697  41.941   7.592
 2024POPC   NC329207  40.733  14.334   9.671
 2024POPC   PO429208  40.237  14.158   9.512
 2024POPC   GL129209  40.561  14.230   9.179
 2024POPC   GL229210  40.722  14.543   9.203
 2024POPC   C1A29211  40.523  14.373   8.734
 2024POPC   D2A29212  40.221  14.208   8.419
 2024POPC   C3A29213  40.224  14.146   7.964
 2024POPC   C4A29214  40.473  14.334   7.604
 2024POPC   C1B29215  41.023  14.374   8.902
 2024POPC   C2B29216  40.967  14.339   8.445
 2024POPC   C3B29217  40.584  14.449   8.133
 2024POPC   C4B29218  40.653  14.771   7.770
 2025POPC   NC329219   6.142  41.245   9.271
 2025POPC   PO429220   5.555  41.583   9.470
 2025POPC   GL129221   5.709  41.501   9.094
 2025POPC   GL229222   5.654  41.138   9.080
 2025POPC   C1A29223   5.994  41.701   8.795
 2025POPC   D2A29224   6.159  41.551   8.389
 2025POPC   C3A29225   6.052  41.811   8.025
 2025POPC   C4A29226   5.722  41.952   7.711
 2025POPC   C1B29227   5.774  41.251   8.637
 2025POPC   C2B29228   5.988  41.079   8.279
 2025POPC   C3B29229   6.130  41.253   7.923
 2025POPC   C4B29230   5.817  41.458   7.716
 2026POPC   NC329231   7.179   3.746   9.550
 2026POPC   PO429232   7.761   3.449   9.408
 2026POPC   GL129233   7.652   3.654   9.039
 2026POPC   GL229234   7.310   3.614   9.074
 2026POPC   C1A29235   7.523   3.596   8.600
 2026POPC   D2A29236   7.224   3.707   8.300
 2026POPC   C3A29237   7.466   3.599   7.959
 2026POPC   C4A29238   7.451   3.819   7.588
 2026POPC   C1B29239   7.213   3.239   8.812
 2026POPC   C2B29240   7.270   3.158   8.357
 2026POPC   C3B29241   7.058   3.281   7.976
 2026POPC   C4B29242   7.234   3.348   7.577
 2027POPC   NC329243  19.344  24.168   9.432
 2027POPC   PO429244  19.307  23.426   9.395
 2027POPC   GL129245  19.040  23.491   9.044
 2027POPC   GL229246  18.973  23.818   9.145
 2027POPC   C1A29247  19.080  23.680   8.620
 2027POPC   D2A29248  19.412  23.788   8.300
 2027POPC   C3A29249  19.378  23.561   7.912
 2027POPC   C4A29250  19.049  23.619   7.607
 2027POPC   C1B29251  18.702  24.024   8.855
 2027POPC   C2B29252  18.643  23.881   8.445
 2027POPC   C3B29253  18.906  23.815   8.079
 2027POPC   C4B29254  18.820  24.055   7.739
 2028POPC   NC329255  40.613  36.465   9.472
 2028POPC   PO429256  41.128  36.013   9.358
 2028POPC   GL129257  40.823  36.022   9.032
 2028POPC   GL229258  40.703  36.378   8.985
 2028POPC   C1A29259  40.720  36.059   8.588
 2028POPC   D2A29260  40.694  35.817   8.233
 2028POPC   C3A29261  41.003  35.934   7.894
 2028POPC   C4A29262  40.952  36.030   7.449
 2028POPC   C1B29263  40.310  36.154   8.881
 2028POPC   C2B29264  40.219  36.055   8.449
 2028POPC   C3B29265  40.420  36.226   8.093
 2028POPC   C4B29266  40.523  36.026   7.729
 2029POPC   NC329267  37.910  28.060   9.406
 2029POPC   PO429268  37.309  28.280   9.257
 2029POPC   GL129269  37.729  28.479   9.056
 2029POPC   GL229270  38.050  28.278   8.981
 2029POPC   C1A29271  37.872  28.622   8.649
 2029POPC   D2A29272  37.504  28.585   8.451
 2029POPC   C3A29273  37.426  28.452   8.033
 2029POPC   C4A29274  37.662  28.485   7.667
 2029POPC   C1B29275  37.740  28.126   8.686
 2029POPC   C2B29276  37.849  28.256   8.282
 2029POPC   C3B29277  37.991  28.153   7.927
 2029POPC   C4B29278  37.737  27.988   7.654
 2030POPC   NC329279  39.381  28.115   9.504
 2030POPC   PO429280  39.185  27.402   9.435
 2030POPC   GL129281  39.426  27.650   9.193
 2030POPC   GL229282  39.466  27.391   8.945
 2030POPC   C1A29283  39.277  27.887   8.850
 2030POPC   D2A29284  39.266  27.696   8.447
 2030POPC   C3A29285  39.239  28.033   8.150
 2030POPC   C4A29286  39.237  28.043   7.714
 2030POPC   C1B29287  39.733  27.684   8.727
 2030POPC   C2B29288  39.733  27.860   8.311
 2030POPC   C3B29289  39.520  27.627   7.970
 2030POPC   C4B29290  39.723  27.576   7.587
 2031POPC   NC329291  24.173  18.868   9.483
 2031POPC   PO429292  23.621  19.211   9.438
 2031POPC   GL129293  23.864  19.067   9.116
 2031POPC   GL229294  23.863  18.748   9.111
 2031POPC   C1A29295  23.979  19.199   8.718
 2031POPC   D2A29296  23.761  19.077   8.372
 2031POPC   C3A29297  23.747  19.261   8.017
 2031POPC   C4A29298  23.353  19.390   7.893
 2031POPC   C1B29299  23.834  18.684   8.695
 2031POPC   C2B29300  23.844  18.602   8.259
 2031POPC   C3B29301  23.816  18.743   7.836
 2031POPC   C4B29302  23.869  18.680   7.387
 2032POPC   NC329303  43.570  37.509   9.550
 2032POPC   PO429304  44.186  37.834   9.623
 2032POPC   GL129305  44.092  37.564   9.230
 2032POPC   GL229306  43.809  37.481   9.102
 2032POPC   C1A29307  44.201  37.542   8.797
 2032POPC   D2A29308  44.034  37.723   8.454
 2032POPC   C3A29309  44.141  37.596   8.038
 2032POPC   C4A29310  44.004  37.703   7.647
 2032POPC   C1B29311  43.578  37.452   8.730
 2032POPC   C2B29312  43.657  37.446   8.312
 2032POPC   C3B29313  43.605  37.697   7.984
 2032POPC   C4B29314  43.401  37.725   7.604
 2033POPC   NC329315  37.902  22.154   9.687
 2033POPC   PO429316  37.373  22.353   9.374
 2033POPC   GL129317  37.693  22.065   9.222
 2033POPC   GL229318  37.940  22.319   9.194
 2033POPC   C1A29319  37.899  21.933   8.843
 2033POPC   D2A29320  37.692  22.043   8.462
 2033POPC   C3A29321  37.688  21.863   8.071
 2033POPC   C4A29322  37.585  21.846   7.659
 2033POPC   C1B29323  37.682  22.429   8.819
 2033POPC   C2B29324  37.646  22.557   8.405
 2033POPC   C3B29325  37.592  22.390   7.997
 2033POPC   C4B29326  37.934  22.252   7.761
 2034POPC   NC329327  10.075  29.013   9.483
 2034POPC   PO429328   9.601  29.518   9.654
 2034POPC   GL129329   9.641  29.199   9.240
 2034POPC   GL229330   9.957  29.284   9.076
 2034POPC   C1A29331   9.691  28.977   8.790
 2034POPC   D2A29332   9.755  29.134   8.343
 2034POPC   C3A29333   9.964  28.923   8.007
 2034POPC   C4A29334   9.912  28.906   7.553
 2034POPC   C1B29335  10.150  29.241   8.664
 2034POPC   C2B29336  10.293  29.434   8.274
 2034POPC   C3B29337  10.041  29.444   7.950
 2034POPC   C4B29338   9.654  29.279   7.785
 2035POPC   NC329339  36.645  43.337   9.895
 2035POPC   PO429340  36.801  42.861   9.464
 2035POPC   GL129341  37.084  42.871   9.118
 2035POPC   GL229342  36.843  42.925   8.875
 2035POPC   C1A29343  37.285  43.219   8.871
 2035POPC   D2A29344  37.406  43.151   8.437
 2035POPC   C3A29345  37.026  43.010   8.197
 2035POPC   C4A29346  36.820  43.073   7.780
 2035POPC   C1B29347  36.469  43.033   8.632
 2035POPC   C2B29348  36.510  43.113   8.199
 2035POPC   C3B29349  36.431  43.379   7.867
 2035POPC   C4B29350  36.277  43.294   7.444
 2036POPC   NC329351  42.450  34.900   9.748
 2036POPC   PO429352  42.380  35.610   9.653
 2036POPC   GL129353  42.411  35.499   9.239
 2036POPC   GL229354  42.526  35.175   9.304
 2036POPC   C1A29355  42.212  35.315   8.843
 2036POPC   D2A29356  42.298  35.451   8.405
 2036POPC   C3A29357  42.155  35.301   7.989
 2036POPC   C4A29358  42.160  35.526   7.592
 2036POPC   C1B29359  42.712  35.238   8.905
 2036POPC   C2B29360  42.766  35.174   8.470
 2036POPC   C3B29361  42.754  35.372   8.071
 2036POPC   C4B29362  42.599  35.284   7.666
 2037POPC   NC329363  27.934  18.471   9.433
 2037POPC   PO429364  28.354  18.017   9.491
 2037POPC   GL129365  28.335  18.247   9.141
 2037POPC   GL229366  28.499  18.546   9.153
 2037POPC   C1A29367  28.404  18.219   8.722
 2037POPC   D2A29368  28.176  18.048   8.398
 2037POPC   C3A29369  28.317  18.148   7.970
 2037POPC   C4A29370  28.313  18.137   7.494
 2037POPC   C1B29371  28.289  18.715   8.821
 2037POPC   C2B29372  28.018  18.679   8.468
 2037POPC   C3B29373  28.033  18.563   8.042
 2037POPC   C4B29374  28.397  18.597   7.716
 2038POPC   NC329375  33.315  39.077   9.787
 2038POPC   PO429376  32.642  39.034   9.582
 2038POPC   GL129377  32.860  38.990   9.159
 2038POPC   GL229378  33.061  39.264   9.086
 2038POPC   C1A29379  32.913  39.000   8.689
 2038POPC   D2A29380  32.822  39.199   8.319
 2038POPC   C3A29381  33.033  39.037   7.969
 2038POPC   C4A29382  33.326  38.995   7.627
 2038POPC   C1B29383  33.143  39.564   8.754
 2038POPC   C2B29384  33.280  39.564   8.342
 2038POPC   C3B29385  33.394  39.424   7.928
 2038POPC   C4B29386  33.067  39.420   7.605
 2039POPC   NC329387  18.572  30.232   9.329
 2039POPC   PO429388  18.091  30.756   9.542
 2039POPC   GL129389  18.326  30.671   9.132
 2039POPC   GL229390  18.520  30.933   8.991
 2039POPC   C1A29391  18.481  30.480   8.727
 2039POPC   D2A29392  18.625  30.669   8.332
 2039POPC   C3A29393  18.580  30.468   7.964
 2039POPC   C4A29394  18.170  30.500   7.832
 2039POPC   C1B29395  18.172  30.897   8.706
 2039POPC   C2B29396  18.208  31.055   8.315
 2039POPC   C3B29397  18.402  30.967   7.948
 2039POPC   C4B29398  18.467  31.107   7.553
 2040POPC   NC329399  10.075  22.397   9.530
 2040POPC   PO429400   9.550  21.993   9.656
 2040POPC   GL129401   9.804  21.989   9.291
 2040POPC   GL229402   9.747  22.308   9.120
 2040POPC   C1A29403   9.916  21.842   8.872
 2040POPC   D2A29404  10.043  22.073   8.491
 2040POPC   C3A29405   9.861  22.024   8.079
 2040POPC   C4A29406   9.605  21.952   7.722
 2040POPC   C1B29407   9.405  22.528   8.873
 2040POPC   C2B29408   9.328  22.700   8.422
 2040POPC   C3B29409   9.505  22.625   7.996
 2040POPC   C4B29410   9.823  22.431   7.738
 2041POPC   NC329411  25.538  31.439   9.645
 2041POPC   PO429412  25.065  31.783   9.412
 2041POPC   GL129413  25.311  31.482   9.163
 2041POPC   GL229414  25.638  31.633   9.193
 2041POPC   C1A29415  25.275  31.556   8.716
 2041POPC   D2A29416  24.935  31.580   8.415
 2041POPC   C3A29417  25.070  31.389   8.038
 2041POPC   C4A29418  25.234  31.328   7.620
 2041POPC   C1B29419  25.762  31.805   8.827
 2041POPC   C2B29420  25.555  31.917   8.472
 2041POPC   C3B29421  25.746  31.869   8.090
 2041POPC   C4B29422  25.438  31.800   7.780
 2042POPC   NC329423  14.265  31.565   9.521
 2042POPC   PO429424  14.396  32.162   9.602
 2042POPC   GL129425  14.298  32.183   9.159
 2042POPC   GL229426  14.140  31.867   9.125
 2042POPC   C1A29427  14.371  32.342   8.738
 2042POPC   D2A29428  14.298  32.679   8.415
 2042POPC   C3A29429  14.459  32.500   8.025
 2042POPC   C4A29430  14.644  32.065   7.869
 2042POPC   C1B29431  13.959  32.007   8.733
 2042POPC   C2B29432  14.074  32.231   8.341
 2042POPC   C3B29433  14.154  32.069   7.989
 2042POPC   C4B29434  13.958  31.903   7.653
 2043POPC   NC329435   9.134   3.662   9.429
 2043POPC   PO429436   9.898   3.578   9.462
 2043POPC   GL129437   9.724   3.506   9.092
 2043POPC   GL229438   9.557   3.811   9.138
 2043POPC   C1A29439   9.846   3.465   8.671
 2043POPC   D2A29440   9.793   3.633   8.287
 2043POPC   C3A29441   9.888   3.374   8.007
 2043POPC   C4A29442   9.813   3.249   7.634
 2043POPC   C1B29443   9.887   3.957   8.812
 2043POPC   C2B29444  10.176   3.936   8.443
 2043POPC   C3B29445  10.195   3.802   8.005
 2043POPC   C4B29446   9.833   3.787   7.714
 2044POPC   NC329447  32.551  26.584   9.427
 2044POPC   PO429448  32.201  27.041   9.821
 2044POPC   GL129449  32.373  27.085   9.280
 2044POPC   GL229450  32.312  26.805   9.047
 2044POPC   C1A29451  32.571  27.046   8.737
 2044POPC   D2A29452  32.433  26.717   8.393
 2044POPC   C3A29453  32.454  26.925   7.971
 2044POPC   C4A29454  32.263  27.009   7.553
 2044POPC   C1B29455  32.051  26.607   8.736
 2044POPC   C2B29456  31.891  26.686   8.359
 2044POPC   C3B29457  31.792  26.531   7.981
 2044POPC   C4B29458  32.148  26.553   7.725
 2045POPC   NC329459  10.006  30.914   9.489
 2045POPC   PO429460   9.758  30.232   9.503
 2045POPC   GL129461   9.796  30.535   9.199
 2045POPC   GL229462  10.130  30.496   9.176
 2045POPC   C1A29463   9.760  30.748   8.804
 2045POPC   D2A29464   9.590  30.854   8.406
 2045POPC   C3A29465   9.711  30.748   8.025
 2045POPC   C4A29466   9.558  30.703   7.641
 2045POPC   C1B29467  10.093  30.357   8.741
 2045POPC   C2B29468   9.857  30.382   8.363
 2045POPC   C3B29469  10.030  30.362   7.968
 2045POPC   C4B29470  10.055  30.599   7.647
 2046POPC   NC329471  32.385  39.540   9.495
 2046POPC   PO429472  32.078  38.791   9.599
 2046POPC   GL129473  32.263  39.034   9.163
 2046POPC   GL229474  32.297  39.373   9.044
 2046POPC   C1A29475  32.405  39.080   8.663
 2046POPC   D2A29476  32.356  38.926   8.218
 2046POPC   C3A29477  32.529  39.115   7.882
 2046POPC   C4A29478  32.542  39.455   7.584
 2046POPC   C1B29479  32.067  39.480   8.692
 2046POPC   C2B29480  31.941  39.526   8.312
 2046POPC   C3B29481  32.197  39.490   7.990
 2046POPC   C4B29482  31.962  39.493   7.639
 2047POPC   NC329483   8.165  26.312   9.601
 2047POPC   PO429484   8.497  26.968   9.490
 2047POPC   GL129485   8.454  26.841   9.075
 2047POPC   GL229486   8.075  26.775   9.117
 2047POPC   C1A29487   8.286  26.937   8.649
 2047POPC   D2A29488   7.932  26.877   8.332
 2047POPC   C3A29489   8.129  26.984   7.969
 2047POPC   C4A29490   8.485  26.832   7.786
 2047POPC   C1B29491   7.993  26.540   8.711
 2047POPC   C2B29492   8.047  26.385   8.289
 2047POPC   C3B29493   7.939  26.530   7.880
 2047POPC   C4B29494   8.084  26.750   7.491
 2048POPC   NC329495  13.070  11.500   9.379
 2048POPC   PO429496  13.503  11.088   9.703
 2048POPC   GL129497  13.499  11.266   9.227
 2048POPC   GL229498  13.788  11.476   9.168
 2048POPC   C1A29499  13.480  11.398   8.762
 2048POPC   D2A29500  13.624  11.562   8.352
 2048POPC   C3A29501  13.757  11.311   8.038
 2048POPC   C4A29502  13.499  11.405   7.740
 2048POPC   C1B29503  13.951  11.573   8.746
 2048POPC   C2B29504  14.151  11.695   8.345
 2048POPC   C3B29505  14.051  11.687   7.919
 2048POPC   C4B29506  13.910  11.801   7.530
 2049POPC   NC329507  30.080  17.659   9.392
 2049POPC   PO429508  29.699  17.206   9.413
 2049POPC   GL129509  29.648  17.431   9.081
 2049POPC   GL229510  29.934  17.268   8.935
 2049POPC   C1A29511  29.666  17.634   8.700
 2049POPC   D2A29512  29.933  17.481   8.387
 2049POPC   C3A29513  29.807  17.481   7.966
 2049POPC   C4A29514  29.912  17.214   7.617
 2049POPC   C1B29515  30.243  17.571   8.788
 2049POPC   C2B29516  30.425  17.711   8.410
 2049POPC   C3B29517  30.164  17.842   8.095
 2049POPC   C4B29518  30.158  17.697   7.692
 2050POPC   NC329519   2.521  22.537   9.429
 2050POPC   PO429520   2.962  23.112   9.599
 2050POPC   GL129521   2.667  23.100   9.267
 2050POPC   GL229522   2.848  22.844   9.153
 2050POPC   C1A29523   2.631  23.128   8.791
 2050POPC   D2A29524   2.638  22.917   8.387
 2050POPC   C3A29525   2.601  23.119   7.964
 2050POPC   C4A29526   2.867  23.307   7.674
 2050POPC   C1B29527   3.082  22.847   8.777
 2050POPC   C2B29528   3.035  22.594   8.423
 2050POPC   C3B29529   3.099  22.589   8.021
 2050POPC   C4B29530   3.039  22.825   7.681
 2051POPC   NC329531  31.439  16.289   9.556
 2051POPC   PO429532  31.336  16.944   9.541
 2051POPC   GL129533  31.247  16.781   9.154
 2051POPC   GL229534  31.139  16.433   9.133
 2051POPC   C1A29535  31.557  16.819   8.839
 2051POPC   D2A29536  31.732  16.590   8.504
 2051POPC   C3A29537  31.757  16.765   8.086
 2051POPC   C4A29538  31.844  16.519   7.733
 2051POPC   C1B29539  31.244  16.472   8.685
 2051POPC   C2B29540  31.263  16.690   8.284
 2051POPC   C3B29541  31.238  16.630   7.838
 2051POPC   C4B29542  30.957  16.357   7.563
 2052POPC   NC329543  28.875  13.249   9.352
 2052POPC   PO429544  28.858  13.936   9.428
 2052POPC   GL129545  29.122  13.688   9.171
 2052POPC   GL229546  28.838  13.643   9.006
 2052POPC   C1A29547  29.400  13.793   8.834
 2052POPC   D2A29548  29.380  13.827   8.402
 2052POPC   C3A29549  29.192  13.491   8.153
 2052POPC   C4A29550  29.331  13.599   7.755
 2052POPC   C1B29551  28.944  13.678   8.600
 2052POPC   C2B29552  28.860  13.893   8.238
 2052POPC   C3B29553  28.835  13.701   7.850
 2052POPC   C4B29554  28.865  13.305   7.777
 2053POPC   NC329555  10.703   1.566   9.460
 2053POPC   PO429556  10.128   1.229   9.487
 2053POPC   GL129557  10.298   1.115   9.105
 2053POPC   GL229558  10.650   1.139   9.117
 2053POPC   C1A29559  10.397   0.926   8.683
 2053POPC   D2A29560  10.208   0.925   8.293
 2053POPC   C3A29561  10.458   1.073   7.955
 2053POPC   C4A29562  10.456   1.171   7.493
 2053POPC   C1B29563  10.784   1.233   8.689
 2053POPC   C2B29564  10.803   0.965   8.362
 2053POPC   C3B29565  10.919   1.214   8.082
 2053POPC   C4B29566  10.789   1.434   7.754
 2054POPC   NC329567  44.428  11.263   9.623
 2054POPC   PO429568  44.724  11.743   9.685
 2054POPC   GL129569  44.708  11.537   9.223
 2054POPC   GL229570  44.553  11.216   9.121
 2054POPC   C1A29571  44.614  11.527   8.741
 2054POPC   D2A29572  44.648  11.188   8.410
 2054POPC   C3A29573  44.748  11.384   8.011
 2054POPC   C4A29574   0.004  11.757   7.876
 2054POPC   C1B29575  44.969  11.189   8.867
 2054POPC   C2B29576   0.164  11.044   8.462
 2054POPC   C3B29577  44.980  10.923   8.065
 2054POPC   C4B29578  44.647  10.928   7.748
 2055POPC   NC329579   7.633   4.852   9.805
 2055POPC   PO429580   7.176   5.122   9.408
 2055POPC   GL129581   7.431   5.258   9.085
 2055POPC   GL229582   7.300   5.002   8.903
 2055POPC   C1A29583   7.677   5.239   8.698
 2055POPC   D2A29584   7.501   5.368   8.300
 2055POPC   C3A29585   7.517   5.086   7.974
 2055POPC   C4A29586   7.642   4.990   7.551
 2055POPC   C1B29587   7.110   5.260   8.634
 2055POPC   C2B29588   7.044   5.034   8.305
 2055POPC   C3B29589   7.009   5.114   7.912
 2055POPC   C4B29590   7.143   4.789   7.705
 2056POPC   NC329591   9.478  42.961   9.446
 2056POPC   PO429592  10.138  42.718   9.642
 2056POPC   GL129593   9.986  43.032   9.279
 2056POPC   GL229594   9.734  43.343   9.226
 2056POPC   C1A29595   9.823  42.998   8.846
 2056POPC   D2A29596   9.900  42.846   8.428
 2056POPC   C3A29597   9.796  42.963   8.049
 2056POPC   C4A29598   9.435  42.985   7.802
 2056POPC   C1B29599   9.481  43.417   8.829
 2056POPC   C2B29600   9.479  43.289   8.386
 2056POPC   C3B29601   9.632  43.434   8.004
 2056POPC   C4B29602   9.901  43.296   7.683
 2057POPC   NC329603  25.626   5.885   9.602
 2057POPC   PO429604  26.283   6.059   9.432
 2057POPC   GL129605  26.152   5.952   9.074
 2057POPC   GL229606  25.775   5.943   9.064
 2057POPC   C1A29607  26.129   6.103   8.674
 2057POPC   D2A29608  25.919   5.889   8.353
 2057POPC   C3A29609  26.201   5.879   8.024
 2057POPC   C4A29610  26.366   5.518   7.801
 2057POPC   C1B29611  25.661   6.276   8.721
 2057POPC   C2B29612  25.845   6.378   8.313
 2057POPC   C3B29613  25.626   6.354   7.941
 2057POPC   C4B29614  25.813   6.032   7.685
 2058POPC   NC329615  28.927   5.633   9.553
 2058POPC   PO429616  29.555   5.775   9.396
 2058POPC   GL129617  29.216   5.871   9.151
 2058POPC   GL229618  29.328   6.228   9.131
 2058POPC   C1A29619  29.072   5.717   8.746
 2058POPC   D2A29620  29.094   5.838   8.307
 2058POPC   C3A29621  28.867   5.644   7.920
 2058POPC   C4A29622  29.160   5.557   7.569
 2058POPC   C1B29623  29.152   6.211   8.687
 2058POPC   C2B29624  29.287   6.304   8.224
 2058POPC   C3B29625  29.108   6.080   7.839
 2058POPC   C4B29626  29.158   6.031   7.381
 2059POPC   NC329627   4.235  30.445   9.524
 2059POPC   PO429628   4.260  29.739   9.382
 2059POPC   GL129629   4.045  29.857   9.004
 2059POPC   GL229630   4.129  30.198   9.066
 2059POPC   C1A29631   4.156  29.913   8.607
 2059POPC   D2A29632   4.559  29.735   8.523
 2059POPC   C3A29633   4.576  29.661   8.088
 2059POPC   C4A29634   4.251  29.822   7.841
 2059POPC   C1B29635   4.493  30.258   8.742
 2059POPC   C2B29636   4.465  30.208   8.278
 2059POPC   C3B29637   4.299  30.334   7.861
 2059POPC   C4B29638   4.461  30.296   7.433
 2060POPC   NC329639  36.978  23.467   9.520
 2060POPC   PO429640  36.404  23.915   9.690
 2060POPC   GL129641  36.568  23.630   9.272
 2060POPC   GL229642  36.922  23.741   9.090
 2060POPC   C1A29643  36.609  23.540   8.775
 2060POPC   D2A29644  36.941  23.613   8.452
 2060POPC   C3A29645  36.780  23.571   8.037
 2060POPC   C4A29646  36.430  23.762   7.882
 2060POPC   C1B29647  37.260  23.937   8.809
 2060POPC   C2B29648  37.241  24.053   8.352
 2060POPC   C3B29649  37.203  23.841   7.947
 2060POPC   C4B29650  37.223  23.923   7.470
 2061POPC   NC329651  19.800  38.255   9.369
 2061POPC   PO429652  19.543  38.846   9.405
 2061POPC   GL129653  19.748  38.659   9.054
 2061POPC   GL229654  20.102  38.703   8.973
 2061POPC   C1A29655  19.802  38.463   8.663
 2061POPC   D2A29656  19.763  38.598   8.278
 2061POPC   C3A29657  19.852  38.382   7.960
 2061POPC   C4A29658  19.638  38.284   7.609
 2061POPC   C1B29659  20.246  38.277   8.796
 2061POPC   C2B29660  20.082  38.112   8.384
 2061POPC   C3B29661  20.218  38.050   7.971
 2061POPC   C4B29662  20.147  38.238   7.534
 2062POPC   NC329663  40.178   5.370   9.543
 2062POPC   PO429664  39.949   5.949   9.421
 2062POPC   GL129665  39.703   5.739   9.127
 2062POPC   GL229666  39.628   5.464   9.383
 2062POPC   C1A29667  39.690   5.735   8.645
 2062POPC   D2A29668  39.933   5.613   8.220
 2062POPC   C3A29669  39.981   5.840   7.789
 2062POPC   C4A29670  40.138   5.922   7.347
 2062POPC   C1B29671  39.503   5.315   8.958
 2062POPC   C2B29672  39.656   5.254   8.518
 2062POPC   C3B29673  39.526   5.344   8.115
 2062POPC   C4B29674  39.544   5.578   7.779
 2063POPC   NC329675  12.549   0.438   9.461
 2063POPC   PO429676  13.066   0.810   9.388
 2063POPC   GL129677  12.882   0.580   9.073
 2063POPC   GL229678  12.637   0.786   8.952
 2063POPC   C1A29679  12.829   0.366   8.664
 2063POPC   D2A29680  12.841   0.467   8.247
 2063POPC   C3A29681  12.782   0.190   7.911
 2063POPC   C4A29682  12.692   0.210   7.486
 2063POPC   C1B29683  13.018   0.848   8.644
 2063POPC   C2B29684  13.076   0.902   8.191
 2063POPC   C3B29685  12.978   0.692   7.784
 2063POPC   C4B29686  13.137   0.674   7.368
 2064POPC   NC329687   2.261  30.151   9.356
 2064POPC   PO429688   1.655  29.810   9.429
 2064POPC   GL129689   1.898  29.740   9.043
 2064POPC   GL229690   2.246  29.664   9.078
 2064POPC   C1A29691   2.077  30.020   8.716
 2064POPC   D2A29692   1.912  30.206   8.338
 2064POPC   C3A29693   2.108  30.070   7.954
 2064POPC   C4A29694   1.968  30.236   7.531
 2064POPC   C1B29695   2.214  29.499   8.666
 2064POPC   C2B29696   1.965  29.661   8.314
 2064POPC   C3B29697   1.671  29.840   8.012
 2064POPC   C4B29698   1.866  29.747   7.618
 2065POPC   NC329699   9.179  36.337   9.309
 2065POPC   PO429700   8.916  35.940   9.695
 2065POPC   GL129701   8.822  36.022   9.172
 2065POPC   GL229702   8.754  36.411   9.017
 2065POPC   C1A29703   8.983  36.124   8.702
 2065POPC   D2A29704   8.899  36.218   8.261
 2065POPC   C3A29705   9.166  36.028   7.963
 2065POPC   C4A29706   9.357  35.924   7.570
 2065POPC   C1B29707   8.811  36.650   8.618
 2065POPC   C2B29708   8.970  36.779   8.210
 2065POPC   C3B29709   8.952  36.509   7.833
 2065POPC   C4B29710   8.701  36.135   7.708
 2066POPC   NC329711   1.567  22.115   9.968
 2066POPC   PO429712   1.427  22.327   9.390
 2066POPC   GL129713   1.375  22.076   9.040
 2066POPC   GL229714   1.036  21.950   8.997
 2066POPC   C1A29715   1.325  22.170   8.609
 2066POPC   D2A29716   1.376  22.332   8.187
 2066POPC   C3A29717   1.527  22.061   7.894
 2066POPC   C4A29718   1.326  22.257   7.602
 2066POPC   C1B29719   0.792  21.967   8.657
 2066POPC   C2B29720   0.890  22.190   8.295
 2066POPC   C3B29721   1.007  22.019   7.905
 2066POPC   C4B29722   1.030  21.874   7.470
 2067POPC   NC329723  11.499   1.220   9.626
 2067POPC   PO429724  11.058   1.462   9.201
 2067POPC   GL129725  11.518   1.477   9.162
 2067POPC   GL229726  11.577   1.097   9.138
 2067POPC   C1A29727  11.561   1.600   8.744
 2067POPC   D2A29728  11.228   1.437   8.466
 2067POPC   C3A29729  11.309   1.517   8.035
 2067POPC   C4A29730  11.271   1.211   7.701
 2067POPC   C1B29731  11.688   1.087   8.711
 2067POPC   C2B29732  11.716   1.311   8.334
 2067POPC   C3B29733  11.648   1.040   8.012
 2067POPC   C4B29734  11.715   0.946   7.609
 2068POPC   NC329735  37.712  34.306   9.454
 2068POPC   PO429736  37.928  34.924   9.465
 2068POPC   GL129737  37.696  34.740   9.123
 2068POPC   GL229738  37.762  34.353   8.967
 2068POPC   C1A29739  37.561  34.729   8.693
 2068POPC   D2A29740  37.697  34.385   8.420
 2068POPC   C3A29741  37.610  34.389   7.994
 2068POPC   C4A29742  37.496  34.743   7.754
 2068POPC   C1B29743  38.055  34.570   8.800
 2068POPC   C2B29744  38.059  34.798   8.444
 2068POPC   C3B29745  37.940  34.783   8.026
 2068POPC   C4B29746  38.149  34.620   7.685
 2069POPC   NC329747  14.212   4.884   9.785
 2069POPC   PO429748  14.643   5.426   9.607
 2069POPC   GL129749  14.550   5.053   9.304
 2069POPC   GL229750  14.813   5.092   9.098
 2069POPC   C1A29751  14.504   4.814   8.855
 2069POPC   D2A29752  14.365   4.638   8.441
 2069POPC   C3A29753  14.473   4.812   8.008
 2069POPC   C4A29754  14.253   5.099   7.710
 2069POPC   C1B29755  14.920   5.080   8.647
 2069POPC   C2B29756  14.810   5.159   8.208
 2069POPC   C3B29757  14.790   5.146   7.767
 2069POPC   C4B29758  14.638   4.854   7.495
 2070POPC   NC329759  11.688  27.956   9.919
 2070POPC   PO429760  12.174  27.621   9.504
 2070POPC   GL129761  12.019  27.684   9.110
 2070POPC   GL229762  12.258  27.961   9.080
 2070POPC   C1A29763  11.975  27.465   8.719
 2070POPC   D2A29764  12.157  27.473   8.311
 2070POPC   C3A29765  12.015  27.239   7.947
 2070POPC   C4A29766  12.375  27.308   7.688
 2070POPC   C1B29767  12.377  27.800   8.697
 2070POPC   C2B29768  12.460  27.937   8.285
 2070POPC   C3B29769  12.223  27.803   7.917
 2070POPC   C4B29770  11.784  27.672   7.828
 2071POPC   NC329771   1.653  31.616   9.485
 2071POPC   PO429772   2.324  31.656   9.713
 2071POPC   GL129773   2.051  31.292   9.316
 2071POPC   GL229774   1.811  31.392   9.076
 2071POPC   C1A29775   2.167  31.271   8.774
 2071POPC   D2A29776   2.130  31.197   8.298
 2071POPC   C3A29777   2.190  31.539   7.954
 2071POPC   C4A29778   2.046  31.511   7.543
 2071POPC   C1B29779   1.692  31.141   8.714
 2071POPC   C2B29780   1.598  31.298   8.336
 2071POPC   C3B29781   1.730  31.355   7.941
 2071POPC   C4B29782   1.610  31.228   7.576
 2072POPC   NC329783  13.766  20.692   9.366
 2072POPC   PO429784  13.222  20.308   9.460
 2072POPC   GL129785  13.296  20.684   9.175
 2072POPC   GL229786  13.507  20.424   9.020
 2072POPC   C1A29787  13.538  20.874   8.779
 2072POPC   D2A29788  13.960  20.791   8.532
 2072POPC   C3A29789  13.843  20.750   8.075
 2072POPC   C4A29790  13.552  20.828   7.721
 2072POPC   C1B29791  13.191  20.477   8.722
 2072POPC   C2B29792  13.211  20.733   8.377
 2072POPC   C3B29793  13.324  20.491   8.032
 2072POPC   C4B29794  13.690  20.335   7.796
 2073POPC   NC329795   6.804  30.395   9.394
 2073POPC   PO429796   6.670  31.063   9.502
 2073POPC   GL129797   6.747  30.850   9.131
 2073POPC   GL229798   6.461  30.604   9.079
 2073POPC   C1A29799   6.615  30.903   8.711
 2073POPC   D2A29800   6.374  30.673   8.406
 2073POPC   C3A29801   6.558  30.705   8.040
 2073POPC   C4A29802   6.774  30.798   7.685
 2073POPC   C1B29803   6.652  30.387   8.756
 2073POPC   C2B29804   6.758  30.292   8.352
 2073POPC   C3B29805   6.976  30.395   7.985
 2073POPC   C4B29806   6.745  30.293   7.608
 2074POPC   NC329807   4.148  30.956   9.374
 2074POPC   PO429808   4.664  30.404   9.403
 2074POPC   GL129809   4.386  30.639   9.066
 2074POPC   GL229810   4.341  30.979   8.919
 2074POPC   C1A29811   4.094  30.573   8.714
 2074POPC   D2A29812   4.145  30.662   8.279
 2074POPC   C3A29813   4.531  30.728   8.103
 2074POPC   C4A29814   4.674  30.700   7.695
 2074POPC   C1B29815   4.055  31.074   8.591
 2074POPC   C2B29816   3.850  31.074   8.195
 2074POPC   C3B29817   4.031  30.901   7.814
 2074POPC   C4B29818   4.333  31.045   7.509
 2075POPC   NC329819  29.606  30.288   9.235
 2075POPC   PO429820  30.181  30.005   9.474
 2075POPC   GL129821  29.907  29.869   9.140
 2075POPC   GL229822  30.057  30.195   9.015
 2075POPC   C1A29823  29.724  29.604   8.781
 2075POPC   D2A29824  29.894  29.509   8.369
 2075POPC   C3A29825  29.924  29.778   7.993
 2075POPC   C4A29826  29.558  30.026   7.878
 2075POPC   C1B29827  29.993  30.011   8.631
 2075POPC   C2B29828  29.960  30.217   8.255
 2075POPC   C3B29829  30.146  30.254   7.885
 2075POPC   C4B29830  29.904  30.203   7.552
 2076POPC   NC329831  19.842   0.256   9.414
 2076POPC   PO429832  19.987   0.773   9.297
 2076POPC   GL129833  19.681   0.554   9.016
 2076POPC   GL229834  19.647   0.164   8.947
 2076POPC   C1A29835  19.648   0.519   8.580
 2076POPC   D2A29836  19.733   0.123   8.411
 2076POPC   C3A29837  19.764   0.208   7.999
 2076POPC   C4A29838  19.717   0.663   7.853
 2076POPC   C1B29839  20.076   0.288   8.762
 2076POPC   C2B29840  20.206   0.488   8.362
 2076POPC   C3B29841  20.227   0.498   7.905
 2076POPC   C4B29842  19.999   0.328   7.564
 2077POPC   NC329843  13.196   0.249   9.359
 2077POPC   PO429844  13.861   0.260   9.644
 2077POPC   GL129845  13.780   0.495   9.243
 2077POPC   GL229846  13.549   0.787   9.195
 2077POPC   C1A29847  13.907   0.574   8.800
 2077POPC   D2A29848  13.704   0.554   8.385
 2077POPC   C3A29849  13.963   0.501   8.011
 2077POPC   C4A29850  13.834   0.272   7.672
 2077POPC   C1B29851  13.391   0.551   8.825
 2077POPC   C2B29852  13.343   0.204   8.534
 2077POPC   C3B29853  13.378   0.212   8.084
 2077POPC   C4B29854  13.477   0.612   7.868
 2078POPC   NC329855  31.497  10.185   9.707
 2078POPC   PO429856  31.645  10.800   9.436
 2078POPC   GL129857  31.682  10.615   9.039
 2078POPC   GL229858  31.530  10.349   9.209
 2078POPC   C1A29859  31.626  10.574   8.597
 2078POPC   D2A29860  31.338  10.456   8.269
 2078POPC   C3A29861  31.489  10.662   7.937
 2078POPC   C4A29862  31.753  10.531   7.643
 2078POPC   C1B29863  31.490  10.148   8.821
 2078POPC   C2B29864  31.646  10.077   8.403
 2078POPC   C3B29865  31.680  10.118   7.973
 2078POPC   C4B29866  31.305  10.197   7.787
 2079POPC   NC329867  31.606  35.819   9.334
 2079POPC   PO429868  31.123  36.275   9.229
 2079POPC   GL129869  31.450  36.161   8.992
 2079POPC   GL229870  31.262  35.859   8.947
 2079POPC   C1A29871  31.700  36.011   8.674
 2079POPC   D2A29872  31.659  36.132   8.278
 2079POPC   C3A29873  31.630  35.971   7.889
 2079POPC   C4A29874  31.734  36.239   7.612
 2079POPC   C1B29875  31.162  36.061   8.568
 2079POPC   C2B29876  31.166  35.885   8.171
 2079POPC   C3B29877  31.153  35.894   7.744
 2079POPC   C4B29878  31.214  36.306   7.585
 2080POPC   NC329879  37.758  27.211   9.577
 2080POPC   PO429880  37.561  27.789   9.554
 2080POPC   GL129881  37.663  27.609   9.162
 2080POPC   GL229882  38.004  27.503   9.223
 2080POPC   C1A29883  37.563  27.623   8.701
 2080POPC   D2A29884  37.429  27.890   8.293
 2080POPC   C3A29885  37.404  27.661   7.866
 2080POPC   C4A29886  37.400  27.662   7.392
 2080POPC   C1B29887  38.058  27.737   8.820
 2080POPC   C2B29888  37.938  27.754   8.374
 2080POPC   C3B29889  38.029  27.629   7.966
 2080POPC   C4B29890  37.845  27.507   7.602
 2081POPC   NC329891   3.095  42.230   9.356
 2081POPC   PO429892   3.337  42.837   9.603
 2081POPC   GL129893   3.450  42.595   9.197
 2081POPC   GL229894   3.589  42.258   9.233
 2081POPC   C1A29895   3.767  42.554   8.834
 2081POPC   D2A29896   4.050  42.458   8.527
 2081POPC   C3A29897   3.936  42.484   8.128
 2081POPC   C4A29898   3.767  42.548   7.751
 2081POPC   C1B29899   3.407  42.207   8.818
 2081POPC   C2B29900   3.590  42.236   8.435
 2081POPC   C3B29901   3.589  42.070   8.049
 2081POPC   C4B29902   3.347  42.195   7.716
 2082POPC   NC329903   3.992  22.438   9.439
 2082POPC   PO429904   3.340  22.319   9.586
 2082POPC   GL129905   3.609  22.200   9.208
 2082POPC   GL229906   3.338  22.106   9.075
 2082POPC   C1A29907   3.695  22.048   8.758
 2082POPC   D2A29908   3.516  21.902   8.382
 2082POPC   C3A29909   3.825  22.103   8.070
 2082POPC   C4A29910   3.838  21.986   7.633
 2082POPC   C1B29911   3.141  22.140   8.659
 2082POPC   C2B29912   3.028  22.092   8.221
 2082POPC   C3B29913   3.337  22.100   7.891
 2082POPC   C4B29914   3.432  22.231   7.491
 2083POPC   NC329915  22.934  10.547   9.618
 2083POPC   PO429916  23.113  11.213   9.439
 2083POPC   GL129917  22.835  10.960   9.148
 2083POPC   GL229918  22.753  10.574   9.156
 2083POPC   C1A29919  22.976  10.782   8.751
 2083POPC   D2A29920  22.970  10.961   8.354
 2083POPC   C3A29921  22.967  10.703   7.993
 2083POPC   C4A29922  23.223  10.533   7.693
 2083POPC   C1B29923  22.639  10.307   8.805
 2083POPC   C2B29924  22.688  10.492   8.393
 2083POPC   C3B29925  22.653  10.322   8.010
 2083POPC   C4B29926  22.778  10.309   7.649
 2084POPC   NC329927  32.219  25.976   9.503
 2084POPC   PO429928  32.066  26.612   9.422
 2084POPC   GL129929  32.226  26.315   9.118
 2084POPC   GL229930  32.215  25.960   9.010
 2084POPC   C1A29931  32.453  26.324   8.751
 2084POPC   D2A29932  32.238  26.111   8.471
 2084POPC   C3A29933  32.338  26.258   8.101
 2084POPC   C4A29934  32.041  26.068   7.847
 2084POPC   C1B29935  32.562  25.810   8.753
 2084POPC   C2B29936  32.689  25.895   8.323
 2084POPC   C3B29937  32.481  25.787   7.916
 2084POPC   C4B29938  32.486  25.695   7.458
 2085POPC   NC329939  34.789  33.383   9.314
 2085POPC   PO429940  34.448  33.775   9.742
 2085POPC   GL129941  34.502  33.904   9.286
 2085POPC   GL229942  34.193  34.102   9.215
 2085POPC   C1A29943  34.754  33.847   8.861
 2085POPC   D2A29944  34.834  34.055   8.459
 2085POPC   C3A29945  34.741  33.823   8.082
 2085POPC   C4A29946  34.574  33.947   7.719
 2085POPC   C1B29947  34.233  33.788   8.867
 2085POPC   C2B29948  34.438  33.685   8.469
 2085POPC   C3B29949  34.328  33.497   8.035
 2085POPC   C4B29950  34.246  33.577   7.580
 2086POPC   NC329951  15.488  29.531   9.835
 2086POPC   PO429952  15.112  29.890   9.414
 2086POPC   GL129953  15.114  30.032   9.048
 2086POPC   GL229954  15.444  29.984   8.998
 2086POPC   C1A29955  14.931  30.011   8.656
 2086POPC   D2A29956  14.923  29.648   8.397
 2086POPC   C3A29957  15.193  29.653   8.046
 2086POPC   C4A29958  14.972  29.850   7.707
 2086POPC   C1B29959  15.422  29.783   8.594
 2086POPC   C2B29960  15.685  29.843   8.247
 2086POPC   C3B29961  15.750  30.092   7.884
 2086POPC   C4B29962  15.477  29.850   7.653
 2087POPC   NC329963  38.106   9.856   9.609
 2087POPC   PO429964  37.471   9.800   9.485
 2087POPC   GL129965  37.831   9.747   9.175
 2087POPC   GL229966  38.094   9.470   9.210
 2087POPC   C1A29967  37.980   9.877   8.733
 2087POPC   D2A29968  37.805   9.734   8.323
 2087POPC   C3A29969  37.693   9.924   7.903
 2087POPC   C4A29970  37.496   9.945   7.464
 2087POPC   C1B29971  37.980   9.363   8.723
 2087POPC   C2B29972  37.996   9.271   8.250
 2087POPC   C3B29973  37.741   9.394   7.892
 2087POPC   C4B29974  37.463   9.438   7.527
 2088POPC   NC329975  41.798  27.908   9.906
 2088POPC   PO429976  41.926  28.488   9.462
 2088POPC   GL129977  41.514  28.341   9.237
 2088POPC   GL229978  41.735  28.260   9.015
 2088POPC   C1A29979  41.314  28.226   8.790
 2088POPC   D2A29980  41.457  28.149   8.335
 2088POPC   C3A29981  41.583  28.411   7.976
 2088POPC   C4A29982  41.464  28.266   7.558
 2088POPC   C1B29983  41.766  28.427   8.641
 2088POPC   C2B29984  41.968  28.578   8.305
 2088POPC   C3B29985  41.945  28.813   7.928
 2088POPC   C4B29986  41.815  28.637   7.549
 2089POPC   NC329987  32.379  32.974   9.573
 2089POPC   PO429988  32.145  33.544   9.646
 2089POPC   GL129989  32.029  33.234   9.244
 2089POPC   GL229990  32.064  32.872   9.193
 2089POPC   C1A29991  32.308  33.161   8.848
 2089POPC   D2A29992  32.566  33.240   8.477
 2089POPC   C3A29993  32.344  33.236   8.084
 2089POPC   C4A29994  32.183  33.304   7.676
 2089POPC   C1B29995  32.095  32.690   8.784
 2089POPC   C2B29996  32.087  32.842   8.365
 2089POPC   C3B29997  32.003  32.886   7.916
 2089POPC   C4B29998  32.052  32.842   7.473
 2090POPC   NC329999  32.797  15.572   9.251
 2090POPC   PO430000  33.107  15.005   9.562
 2090POPC   GL130001  33.192  14.883   9.112
 2090POPC   GL230002  33.102  15.208   9.073
 2090POPC   C1A30003  33.225  14.937   8.671
 2090POPC   D2A30004  33.009  14.825   8.298
 2090POPC   C3A30005  33.148  15.052   7.920
 2090POPC   C4A30006  33.106  14.917   7.511
 2090POPC   C1B30007  33.173  15.452   8.696
 2090POPC   C2B30008  33.094  15.336   8.336
 2090POPC   C3B30009  32.813  15.444   8.056
 2090POPC   C4B30010  32.743  15.279   7.662
 2091POPC   NC330011   0.805  34.241   9.358
 2091POPC   PO430012   0.554  34.715   9.740
 2091POPC   GL130013   0.324  34.710   9.262
 2091POPC   GL230014   0.441  34.426   9.051
 2091POPC   C1A30015   0.319  34.825   8.783
 2091POPC   D2A30016   0.403  34.516   8.456
 2091POPC   C3A30017   0.639  34.647   8.093
 2091POPC   C4A30018   0.320  34.594   7.816
 2091POPC   C1B30019   0.820  34.400   8.725
 2091POPC   C2B30020   0.820  34.211   8.364
 2091POPC   C3B30021   0.546  34.136   8.043
 2091POPC   C4B30022   0.738  34.227   7.677
 2092POPC   NC330023  24.076   9.258   9.488
 2092POPC   PO430024  23.724   8.621   9.494
 2092POPC   GL130025  23.691   8.973   9.210
 2092POPC   GL230026  23.992   9.036   9.049
 2092POPC   C1A30027  23.584   8.999   8.766
 2092POPC   D2A30028  23.741   8.793   8.387
 2092POPC   C3A30029  23.450   8.629   8.087
 2092POPC   C4A30030  23.423   8.902   7.750
 2092POPC   C1B30031  23.962   9.339   8.681
 2092POPC   C2B30032  23.715   9.366   8.285
 2092POPC   C3B30033  23.807   9.232   7.840
 2092POPC   C4B30034  23.731   9.431   7.386
 2093POPC   NC330035   2.917  29.475   9.593
 2093POPC   PO430036   2.597  30.059   9.655
 2093POPC   GL130037   2.695  29.878   9.259
 2093POPC   GL230038   3.036  29.841   9.244
 2093POPC   C1A30039   2.634  29.839   8.800
 2093POPC   D2A30040   2.440  29.877   8.382
 2093POPC   C3A30041   2.625  30.051   8.036
 2093POPC   C4A30042   2.493  29.893   7.674
 2093POPC   C1B30043   3.057  30.134   8.878
 2093POPC   C2B30044   3.301  30.106   8.486
 2093POPC   C3B30045   3.192  30.008   8.064
 2093POPC   C4B30046   2.999  29.981   7.663
 2094POPC   NC330047   4.463  35.146   9.555
 2094POPC   PO430048   4.059  35.732   9.503
 2094POPC   GL130049   4.197  35.419   9.231
 2094POPC   GL230050   4.546  35.429   9.137
 2094POPC   C1A30051   4.193  35.228   8.823
 2094POPC   D2A30052   4.394  35.392   8.445
 2094POPC   C3A30053   4.175  35.305   8.045
 2094POPC   C4A30054   4.045  35.370   7.625
 2094POPC   C1B30055   4.680  35.105   8.840
 2094POPC   C2B30056   4.638  34.940   8.401
 2094POPC   C3B30057   4.657  35.198   8.021
 2094POPC   C4B30058   4.548  35.232   7.579
 2095POPC   NC330059   3.425  11.960   9.549
 2095POPC   PO430060   4.027  12.179   9.346
 2095POPC   GL130061   3.734  12.025   9.064
 2095POPC   GL230062   3.403  12.149   9.085
 2095POPC   C1A30063   3.792  12.009   8.624
 2095POPC   D2A30064   3.999  11.666   8.372
 2095POPC   C3A30065   3.899  11.912   8.023
 2095POPC   C4A30066   3.498  12.069   7.892
 2095POPC   C1B30067   3.277  11.956   8.722
 2095POPC   C2B30068   3.159  12.121   8.306
 2095POPC   C3B30069   3.017  11.872   7.965
 2095POPC   C4B30070   3.243  11.628   7.718
 2096POPC   NC330071  30.217  37.554   9.532
 2096POPC   PO430072  29.709  37.997   9.471
 2096POPC   GL130073  30.011  37.879   9.122
 2096POPC   GL230074  30.210  37.570   9.042
 2096POPC   C1A30075  29.894  37.765   8.703
 2096POPC   D2A30076  29.726  37.571   8.368
 2096POPC   C3A30077  29.850  37.794   8.028
 2096POPC   C4A30078  29.779  37.497   7.701
 2096POPC   C1B30079  30.407  37.735   8.721
 2096POPC   C2B30080  30.249  37.508   8.367
 2096POPC   C3B30081  30.244  37.507   7.915
 2096POPC   C4B30082  30.222  37.878   7.680
 2097POPC   NC330083  34.214  12.477   9.491
 2097POPC   PO430084  34.647  12.966   9.403
 2097POPC   GL130085  34.553  12.890   9.041
 2097POPC   GL230086  34.535  12.559   9.090
 2097POPC   C1A30087  34.438  13.003   8.636
 2097POPC   D2A30088  34.607  13.263   8.363
 2097POPC   C3A30089  34.592  13.055   8.008
 2097POPC   C4A30090  34.426  13.023   7.618
 2097POPC   C1B30091  34.769  12.600   8.697
 2097POPC   C2B30092  34.575  12.587   8.289
 2097POPC   C3B30093  34.640  12.590   7.838
 2097POPC   C4B30094  34.838  12.754   7.427
 2098POPC   NC330095   1.327  44.629   9.513
 2098POPC   PO430096   0.801   0.075   9.251
 2098POPC   GL130097   1.095  44.750   9.085
 2098POPC   GL230098   1.477  44.787   9.077
 2098POPC   C1A30099   1.233  44.533   8.709
 2098POPC   D2A30100   1.037  44.792   8.440
 2098POPC   C3A30101   1.108  44.771   8.033
 2098POPC   C4A30102   1.038   0.078   7.727
 2098POPC   C1B30103   1.456   0.005   8.760
 2098POPC   C2B30104   1.527  44.868   8.358
 2098POPC   C3B30105   1.520   0.055   7.971
 2098POPC   C4B30106   1.477  44.738   7.665
 2099POPC   NC330107  37.242  16.653   9.471
 2099POPC   PO430108  36.629  16.983   9.471
 2099POPC   GL130109  36.865  16.747   9.165
 2099POPC   GL230110  36.726  16.490   9.013
 2099POPC   C1A30111  37.176  16.571   8.825
 2099POPC   D2A30112  37.240  16.486   8.411
 2099POPC   C3A30113  36.925  16.635   8.124
 2099POPC   C4A30114  37.082  16.616   7.718
 2099POPC   C1B30115  36.775  16.852   8.695
 2099POPC   C2B30116  36.541  16.945   8.352
 2099POPC   C3B30117  36.434  16.906   7.947
 2099POPC   C4B30118  36.478  17.014   7.494
 2100POPC   NC330119  33.237  25.857   9.471
 2100POPC   PO430120  32.632  26.126   9.357
 2100POPC   GL130121  33.040  26.247   9.174
 2100POPC   GL230122  33.005  25.933   8.997
 2100POPC   C1A30123  33.394  26.248   8.847
 2100POPC   D2A30124  33.349  25.977   8.475
 2100POPC   C3A30125  33.366  26.065   8.060
 2100POPC   C4A30126  33.307  26.407   7.830
 2100POPC   C1B30127  32.927  26.217   8.669
 2100POPC   C2B30128  32.831  26.393   8.293
 2100POPC   C3B30129  32.867  26.169   7.927
 2100POPC   C4B30130  32.956  25.778   7.743
 2101POPC   NC330131  36.392  30.338   9.552
 2101POPC   PO430132  35.802  30.638   9.564
 2101POPC   GL130133  36.068  30.678   9.211
 2101POPC   GL230134  36.002  30.349   9.180
 2101POPC   C1A30135  36.007  30.738   8.734
 2101POPC   D2A30136  36.206  31.030   8.408
 2101POPC   C3A30137  36.038  31.142   8.031
 2101POPC   C4A30138  36.185  30.954   7.669
 2101POPC   C1B30139  36.334  30.366   8.902
 2101POPC   C2B30140  36.330  30.350   8.479
 2101POPC   C3B30141  36.204  30.602   8.103
 2101POPC   C4B30142  36.198  30.437   7.682
 2102POPC   NC330143  14.818  21.796   9.557
 2102POPC   PO430144  15.139  22.325   9.506
 2102POPC   GL130145  15.113  22.236   9.117
 2102POPC   GL230146  15.183  21.871   9.200
 2102POPC   C1A30147  14.974  22.372   8.685
 2102POPC   D2A30148  15.142  22.407   8.251
 2102POPC   C3A30149  14.977  22.294   7.835
 2102POPC   C4A30150  15.161  22.166   7.425
 2102POPC   C1B30151  15.305  21.905   8.774
 2102POPC   C2B30152  15.252  21.829   8.348
 2102POPC   C3B30153  15.182  21.828   7.914
 2102POPC   C4B30154  15.445  21.796   7.560
 2103POPC   NC330155  32.050  14.120   9.530
 2103POPC   PO430156  32.561  14.503   9.728
 2103POPC   GL130157  32.426  14.449   9.271
 2103POPC   GL230158  32.192  14.694   9.106
 2103POPC   C1A30159  32.374  14.302   8.821
 2103POPC   D2A30160  32.148  14.418   8.440
 2103POPC   C3A30161  32.346  14.525   8.058
 2103POPC   C4A30162  32.229  14.432   7.667
 2103POPC   C1B30163  32.347  14.818   8.672
 2103POPC   C2B30164  32.045  14.891   8.321
 2103POPC   C3B30165  31.848  14.646   7.987
 2103POPC   C4B30166  31.815  14.736   7.552
 2104POPC   NC330167  16.654   5.993   9.460
 2104POPC   PO430168  17.049   6.504   9.229
 2104POPC   GL130169  17.018   6.029   9.064
 2104POPC   GL230170  16.855   5.683   9.112
 2104POPC   C1A30171  16.853   5.883   8.657
 2104POPC   D2A30172  16.671   5.852   8.251
 2104POPC   C3A30173  16.833   6.059   7.890
 2104POPC   C4A30174  16.487   6.285   7.723
 2104POPC   C1B30175  16.584   5.471   8.791
 2104POPC   C2B30176  16.521   5.371   8.375
 2104POPC   C3B30177  16.450   5.464   7.954
 2104POPC   C4B30178  16.596   5.670   7.594
 2105POPC   NC330179  35.419  37.455   9.465
 2105POPC   PO430180  35.377  38.053   9.745
 2105POPC   GL130181  35.325  38.010   9.254
 2105POPC   GL230182  35.614  37.875   9.084
 2105POPC   C1A30183  35.183  37.975   8.806
 2105POPC   D2A30184  35.489  37.997   8.463
 2105POPC   C3A30185  35.354  37.858   8.065
 2105POPC   C4A30186  35.629  37.720   7.726
 2105POPC   C1B30187  35.494  37.547   8.808
 2105POPC   C2B30188  35.275  37.490   8.444
 2105POPC   C3B30189  35.455  37.371   8.064
 2105POPC   C4B30190  35.139  37.451   7.767
 2106POPC   NC330191  11.096  19.006   9.552
 2106POPC   PO430192  11.465  19.494   9.449
 2106POPC   GL130193  11.314  19.202   9.140
 2106POPC   GL230194  10.997  19.167   9.073
 2106POPC   C1A30195  11.368  18.950   8.746
 2106POPC   D2A30196  11.385  19.123   8.346
 2106POPC   C3A30197  11.351  19.013   7.932
 2106POPC   C4A30198  11.535  18.791   7.610
 2106POPC   C1B30199  10.863  19.019   8.673
 2106POPC   C2B30200  10.908  18.949   8.215
 2106POPC   C3B30201  10.816  19.176   7.831
 2106POPC   C4B30202  10.753  19.346   7.384
 2107POPC   NC330203   5.435   8.176   9.500
 2107POPC   PO430204   6.148   8.063   9.671
 2107POPC   GL130205   5.888   8.202   9.293
 2107POPC   GL230206   5.938   7.898   9.167
 2107POPC   C1A30207   5.679   8.337   8.905
 2107POPC   D2A30208   5.820   8.279   8.469
 2107POPC   C3A30209   5.705   8.195   8.076
 2107POPC   C4A30210   5.892   8.153   7.689
 2107POPC   C1B30211   5.843   7.870   8.752
 2107POPC   C2B30212   5.628   7.771   8.353
 2107POPC   C3B30213   5.689   7.708   7.876
 2107POPC   C4B30214   5.853   7.724   7.425
 2108POPC   NC330215  37.999  32.551   9.443
 2108POPC   PO430216  37.600  33.133   9.602
 2108POPC   GL130217  37.727  32.970   9.248
 2108POPC   GL230218  37.973  33.238   9.194
 2108POPC   C1A30219  37.584  32.805   8.862
 2108POPC   D2A30220  37.544  32.974   8.457
 2108POPC   C3A30221  37.363  32.882   8.071
 2108POPC   C4A30222  37.492  33.059   7.708
 2108POPC   C1B30223  38.080  32.906   8.874
 2108POPC   C2B30224  37.942  32.663   8.483
 2108POPC   C3B30225  37.900  32.829   8.053
 2108POPC   C4B30226  37.989  32.963   7.631
 2109POPC   NC330227  35.114  29.199   9.382
 2109POPC   PO430228  35.749  29.061   9.417
 2109POPC   GL130229  35.594  29.156   9.021
 2109POPC   GL230230  35.251  29.128   8.896
 2109POPC   C1A30231  35.724  29.135   8.600
 2109POPC   D2A30232  35.353  28.989   8.370
 2109POPC   C3A30233  35.141  29.317   8.184
 2109POPC   C4A30234  35.377  29.474   7.865
 2109POPC   C1B30235  35.068  28.732   8.769
 2109POPC   C2B30236  34.952  28.653   8.375
 2109POPC   C3B30237  34.911  28.857   7.973
 2109POPC   C4B30238  34.945  29.235   7.702
 2110POPC   NC330239  22.332  22.967   9.493
 2110POPC   PO430240  21.719  22.672   9.616
 2110POPC   GL130241  21.998  22.605   9.272
 2110POPC   GL230242  21.968  22.905   9.107
 2110POPC   C1A30243  22.234  22.509   8.898
 2110POPC   D2A30244  22.468  22.644   8.539
 2110POPC   C3A30245  22.179  22.823   8.255
 2110POPC   C4A30246  22.192  22.785   7.822
 2110POPC   C1B30247  22.308  23.031   8.828
 2110POPC   C2B30248  22.400  23.260   8.444
 2110POPC   C3B30249  22.418  23.223   7.999
 2110POPC   C4B30250  22.006  23.272   7.868
 2111POPC   NC330251  39.646  20.376   9.380
 2111POPC   PO430252  39.172  20.771   9.688
 2111POPC   GL130253  39.103  20.820   9.234
 2111POPC   GL230254  39.198  20.507   9.075
 2111POPC   C1A30255  39.051  20.892   8.772
 2111POPC   D2A30256  39.329  20.823   8.395
 2111POPC   C3A30257  39.115  20.669   8.016
 2111POPC   C4A30258  39.240  20.685   7.587
 2111POPC   C1B30259  39.339  20.364   8.649
 2111POPC   C2B30260  39.275  20.147   8.233
 2111POPC   C3B30261  39.376  20.254   7.829
 2111POPC   C4B30262  39.391  20.212   7.391
 2112POPC   NC330263  14.062  16.973   9.484
 2112POPC   PO430264  14.433  16.411   9.651
 2112POPC   GL130265  14.374  16.640   9.197
 2112POPC   GL230266  14.075  16.792   9.024
 2112POPC   C1A30267  14.446  16.566   8.745
 2112POPC   D2A30268  14.211  16.468   8.353
 2112POPC   C3A30269  14.391  16.621   7.954
 2112POPC   C4A30270  14.627  17.040   7.874
 2112POPC   C1B30271  14.120  16.955   8.625
 2112POPC   C2B30272  14.243  17.067   8.208
 2112POPC   C3B30273  14.133  17.006   7.766
 2112POPC   C4B30274  14.119  17.067   7.327
 2113POPC   NC330275  27.076   4.678   9.563
 2113POPC   PO430276  26.643   4.185   9.545
 2113POPC   GL130277  26.910   4.209   9.151
 2113POPC   GL230278  26.978   4.551   9.077
 2113POPC   C1A30279  26.782   4.036   8.733
 2113POPC   D2A30280  26.848   3.847   8.318
 2113POPC   C3A30281  27.014   4.126   7.992
 2113POPC   C4A30282  26.858   4.236   7.585
 2113POPC   C1B30283  26.926   4.499   8.628
 2113POPC   C2B30284  26.702   4.377   8.302
 2113POPC   C3B30285  26.558   4.513   7.916
 2113POPC   C4B30286  26.644   4.759   7.559
 2114POPC   NC330287  41.849  38.772   9.832
 2114POPC   PO430288  41.422  39.076   9.361
 2114POPC   GL130289  41.492  39.258   9.004
 2114POPC   GL230290  41.838  39.155   8.912
 2114POPC   C1A30291  41.509  39.490   8.627
 2114POPC   D2A30292  41.730  39.488   8.235
 2114POPC   C3A30293  41.581  39.252   7.885
 2114POPC   C4A30294  41.168  39.180   7.754
 2114POPC   C1B30295  41.529  38.924   8.644
 2114POPC   C2B30296  41.260  38.987   8.295
 2114POPC   C3B30297  41.422  38.764   7.950
 2114POPC   C4B30298  41.735  38.751   7.694
 2115POPC   NC330299   5.340  22.013   9.622
 2115POPC   PO430300   4.835  21.680   9.312
 2115POPC   GL130301   5.203  21.911   9.108
 2115POPC   GL230302   5.228  22.267   9.040
 2115POPC   C1A30303   5.202  21.974   8.655
 2115POPC   D2A30304   5.047  22.238   8.383
 2115POPC   C3A30305   5.260  22.302   8.022
 2115POPC   C4A30306   5.189  22.028   7.672
 2115POPC   C1B30307   4.932  22.515   8.816
 2115POPC   C2B30308   4.900  22.728   8.436
 2115POPC   C3B30309   4.776  22.550   8.100
 2115POPC   C4B30310   4.770  22.316   7.771
 2116POPC   NC330311  38.596  15.571   9.548
 2116POPC   PO430312  38.582  14.834   9.448
 2116POPC   GL130313  38.541  15.185   9.165
 2116POPC   GL230314  38.228  15.286   9.174
 2116POPC   C1A30315  38.537  15.261   8.730
 2116POPC   D2A30316  38.548  14.950   8.388
 2116POPC   C3A30317  38.629  14.824   7.972
 2116POPC   C4A30318  38.580  14.845   7.523
 2116POPC   C1B30319  38.112  15.534   8.772
 2116POPC   C2B30320  38.330  15.548   8.342
 2116POPC   C3B30321  38.395  15.284   7.979
 2116POPC   C4B30322  38.142  15.456   7.637
 2117POPC   NC330323  18.503   0.727   9.539
 2117POPC   PO430324  18.037   0.192   9.513
 2117POPC   GL130325  18.275   0.328   9.190
 2117POPC   GL230326  18.146   0.637   9.136
 2117POPC   C1A30327  18.179   0.217   8.785
 2117POPC   D2A30328  18.015   0.362   8.397
 2117POPC   C3A30329  18.334   0.261   8.082
 2117POPC   C4A30330  18.468   0.258   7.675
 2117POPC   C1B30331  18.231   0.720   8.716
 2117POPC   C2B30332  18.374   0.722   8.283
 2117POPC   C3B30333  18.344   0.745   7.824
 2117POPC   C4B30334  18.372   0.805   7.376
 2118POPC   NC330335  10.830  35.894   9.620
 2118POPC   PO430336  10.386  36.356   9.604
 2118POPC   GL130337  10.236  36.203   9.142
 2118POPC   GL230338   9.978  35.932   9.182
 2118POPC   C1A30339  10.352  36.218   8.657
 2118POPC   D2A30340  10.507  35.877   8.316
 2118POPC   C3A30341  10.699  35.939   7.875
 2118POPC   C4A30342  10.901  35.771   7.473
 2118POPC   C1B30343   9.865  36.054   8.737
 2118POPC   C2B30344  10.010  36.005   8.325
 2118POPC   C3B30345  10.184  36.012   7.921
 2118POPC   C4B30346  10.404  36.379   7.856
 2119POPC   NC330347  17.209  41.915   9.450
 2119POPC   PO430348  17.684  42.355   9.450
 2119POPC   GL130349  17.514  42.195   9.119
 2119POPC   GL230350  17.834  42.028   9.078
 2119POPC   C1A30351  17.382  42.466   8.802
 2119POPC   D2A30352  17.549  42.616   8.453
 2119POPC   C3A30353  17.485  42.353   8.133
 2119POPC   C4A30354  17.412  42.601   7.790
 2119POPC   C1B30355  17.694  42.081   8.651
 2119POPC   C2B30356  17.689  41.858   8.297
 2119POPC   C3B30357  17.813  41.970   7.929
 2119POPC   C4B30358  17.545  42.138   7.641
 2120POPC   NC330359  34.393  17.365   9.385
 2120POPC   PO430360  34.848  16.928   9.100
 2120POPC   GL130361  34.730  17.306   9.013
 2120POPC   GL230362  34.959  17.552   9.084
 2120POPC   C1A30363  34.471  17.461   8.726
 2120POPC   D2A30364  34.510  17.539   8.306
 2120POPC   C3A30365  34.797  17.345   8.056
 2120POPC   C4A30366  34.727  17.345   7.613
 2120POPC   C1B30367  34.995  17.530   8.599
 2120POPC   C2B30368  34.952  17.813   8.214
 2120POPC   C3B30369  34.669  17.793   7.843
 2120POPC   C4B30370  34.230  17.948   7.758
 2121POPC   NC330371  10.369  35.048   9.477
 2121POPC   PO430372  10.835  35.472   9.470
 2121POPC   GL130373  10.559  35.351   9.089
 2121POPC   GL230374  10.183  35.369   9.128
 2121POPC   C1A30375  10.659  35.325   8.625
 2121POPC   D2A30376  10.710  35.352   8.171
 2121POPC   C3A30377  10.388  35.539   7.924
 2121POPC   C4A30378  10.372  35.697   7.496
 2121POPC   C1B30379  10.189  35.160   8.722
 2121POPC   C2B30380  10.416  34.923   8.384
 2121POPC   C3B30381  10.391  35.018   7.941
 2121POPC   C4B30382  10.360  34.860   7.532
 2122POPC   NC330383  12.306  40.526   9.471
 2122POPC   PO430384  11.857  40.988   9.503
 2122POPC   GL130385  11.966  40.828   9.129
 2122POPC   GL230386  11.926  41.176   9.011
 2122POPC   C1A30387  11.911  40.710   8.694
 2122POPC   D2A30388  11.842  40.917   8.314
 2122POPC   C3A30389  12.086  40.829   7.957
 2122POPC   C4A30390  12.047  40.861   7.496
 2122POPC   C1B30391  11.641  41.291   8.685
 2122POPC   C2B30392  11.669  41.404   8.233
 2122POPC   C3B30393  11.765  41.183   7.801
 2122POPC   C4B30394  11.591  41.024   7.337
 2123POPC   NC330395  37.240  12.724   9.873
 2123POPC   PO430396  37.888  12.762   9.802
 2123POPC   GL130397  37.795  12.914   9.352
 2123POPC   GL230398  37.796  12.637   9.116
 2123POPC   C1A30399  37.929  13.092   8.917
 2123POPC   D2A30400  37.789  12.999   8.534
 2123POPC   C3A30401  37.854  13.264   8.221
 2123POPC   C4A30402  37.959  13.113   7.825
 2123POPC   C1B30403  37.444  12.849   8.886
 2123POPC   C2B30404  37.332  12.868   8.434
 2123POPC   C3B30405  37.533  12.904   8.025
 2123POPC   C4B30406  37.564  12.768   7.580
 2124POPC   NC330407  44.936  22.232   9.739
 2124POPC   PO430408  44.408  22.434   9.373
 2124POPC   GL130409  44.650  22.172   9.136
 2124POPC   GL230410  44.971  22.099   9.202
 2124POPC   C1A30411  44.684  21.896   8.818
 2124POPC   D2A30412  44.858  21.909   8.440
 2124POPC   C3A30413  44.630  21.801   8.094
 2124POPC   C4A30414  44.661  21.876   7.698
 2124POPC   C1B30415  44.954  22.354   8.784
 2124POPC   C2B30416   0.016  22.425   8.351
 2124POPC   C3B30417  44.834  22.282   7.968
 2124POPC   C4B30418  44.556  22.557   7.708
 2125POPC   NC330419  10.337  43.225   9.606
 2125POPC   PO430420  10.804  42.747   9.339
 2125POPC   GL130421  10.589  43.057   9.218
 2125POPC   GL230422  10.844  43.267   9.209
 2125POPC   C1A30423  10.328  43.135   8.887
 2125POPC   D2A30424  10.401  42.898   8.518
 2125POPC   C3A30425  10.308  43.094   8.119
 2125POPC   C4A30426  10.222  42.869   7.727
 2125POPC   C1B30427  10.835  43.136   8.782
 2125POPC   C2B30428  10.740  43.271   8.403
 2125POPC   C3B30429  10.823  43.102   8.048
 2125POPC   C4B30430  10.725  43.001   7.668
 2126POPC   NC330431  10.488  26.008   9.650
 2126POPC   PO430432  10.010  26.455   9.648
 2126POPC   GL130433  10.312  26.347   9.275
 2126POPC   GL230434  10.318  25.967   9.196
 2126POPC   C1A30435  10.428  26.270   8.817
 2126POPC   D2A30436  10.555  26.038   8.440
 2126POPC   C3A30437  10.619  26.185   8.065
 2126POPC   C4A30438  10.700  25.840   7.734
 2126POPC   C1B30439  10.438  25.757   8.837
 2126POPC   C2B30440  10.197  25.663   8.482
 2126POPC   C3B30441  10.388  25.665   8.092
 2126POPC   C4B30442  10.317  25.497   7.696
 2127POPC   NC330443  12.005  24.585   9.753
 2127POPC   PO430444  12.517  24.245   9.461
 2127POPC   GL130445  12.113  24.435   9.253
 2127POPC   GL230446  11.832  24.207   9.246
 2127POPC   C1A30447  12.081  24.600   8.809
 2127POPC   D2A30448  12.315  24.437   8.411
 2127POPC   C3A30449  12.150  24.617   8.019
 2127POPC   C4A30450  12.278  24.696   7.573
 2127POPC   C1B30451  11.643  24.329   8.813
 2127POPC   C2B30452  11.802  24.386   8.354
 2127POPC   C3B30453  11.912  24.202   7.900
 2127POPC   C4B30454  11.976  24.319   7.408
 2128POPC   NC330455  18.047   6.779   9.472
 2128POPC   PO430456  18.643   6.298   9.525
 2128POPC   GL130457  18.404   6.498   9.199
 2128POPC   GL230458  18.191   6.255   9.063
 2128POPC   C1A30459  18.403   6.883   8.925
 2128POPC   D2A30460  18.374   6.980   8.499
 2128POPC   C3A30461  18.116   6.760   8.187
 2128POPC   C4A30462  18.337   6.748   7.766
 2128POPC   C1B30463  18.255   6.453   8.687
 2128POPC   C2B30464  18.496   6.475   8.345
 2128POPC   C3B30465  18.544   6.298   7.952
 2128POPC   C4B30466  18.204   6.271   7.702
 2129POPC   NC330467  11.862  28.063   9.414
 2129POPC   PO430468  12.502  28.487   9.416
 2129POPC   GL130469  12.309  28.474   9.036
 2129POPC   GL230470  11.938  28.383   9.013
 2129POPC   C1A30471  12.278  28.313   8.630
 2129POPC   D2A30472  12.051  28.522   8.332
 2129POPC   C3A30473  12.151  28.447   7.926
 2129POPC   C4A30474  11.894  28.517   7.521
 2129POPC   C1B30475  11.885  28.009   8.727
 2129POPC   C2B30476  11.899  27.956   8.283
 2129POPC   C3B30477  11.736  28.164   7.883
 2129POPC   C4B30478  11.732  28.030   7.426
 2130POPC   NC330479  31.867  27.294   9.567
 2130POPC   PO430480  31.236  27.667   9.574
 2130POPC   GL130481  31.427  27.458   9.255
 2130POPC   GL230482  31.524  27.785   9.148
 2130POPC   C1A30483  31.522  27.284   8.847
 2130POPC   D2A30484  31.671  27.190   8.430
 2130POPC   C3A30485  31.697  27.451   8.088
 2130POPC   C4A30486  31.377  27.426   7.768
 2130POPC   C1B30487  31.264  27.687   8.747
 2130POPC   C2B30488  31.284  27.652   8.308
 2130POPC   C3B30489  31.467  27.893   7.957
 2130POPC   C4B30490  31.338  27.904   7.562
 2131POPC   NC330491  15.249   8.018   9.547
 2131POPC   PO430492  15.051   8.623   9.777
 2131POPC   GL130493  15.136   8.488   9.342
 2131POPC   GL230494  15.473   8.355   9.239
 2131POPC   C1A30495  15.154   8.470   8.882
 2131POPC   D2A30496  15.202   8.488   8.430
 2131POPC   C3A30497  15.090   8.210   8.135
 2131POPC   C4A30498  15.221   8.314   7.756
 2131POPC   C1B30499  15.403   8.023   8.874
 2131POPC   C2B30500  15.338   7.874   8.436
 2131POPC   C3B30501  15.468   7.905   7.994
 2131POPC   C4B30502  15.387   7.888   7.516
 2132POPC   NC330503   3.779  11.028   9.469
 2132POPC   PO430504   3.847  11.637   9.770
 2132POPC   GL130505   3.690  11.533   9.277
 2132POPC   GL230506   3.432  11.256   9.156
 2132POPC   C1A30507   3.618  11.563   8.778
 2132POPC   D2A30508   3.504  11.710   8.315
 2132POPC   C3A30509   3.682  11.477   7.969
 2132POPC   C4A30510   3.543  11.244   7.630
 2132POPC   C1B30511   3.748  11.074   8.830
 2132POPC   C2B30512   3.834  11.173   8.405
 2132POPC   C3B30513   3.758  10.990   8.016
 2132POPC   C4B30514   4.013  11.055   7.685
 2133POPC   NC330515  42.684  38.246   9.585
 2133POPC   PO430516  42.031  38.446   9.545
 2133POPC   GL130517  42.275  38.301   9.240
 2133POPC   GL230518  42.542  38.576   9.232
 2133POPC   C1A30519  42.118  38.177   8.855
 2133POPC   D2A30520  41.985  38.429   8.535
 2133POPC   C3A30521  42.238  38.427   8.166
 2133POPC   C4A30522  42.227  38.690   7.801
 2133POPC   C1B30523  42.456  38.568   8.806
 2133POPC   C2B30524  42.638  38.302   8.501
 2133POPC   C3B30525  42.697  38.163   8.106
 2133POPC   C4B30526  42.469  38.229   7.741
 2134POPC   NC330527   3.659  37.140   9.355
 2134POPC   PO430528   3.484  37.892   9.446
 2134POPC   GL130529   3.468  37.569   9.155
 2134POPC   GL230530   3.184  37.611   8.997
 2134POPC   C1A30531   3.594  37.391   8.748
 2134POPC   D2A30532   3.923  37.268   8.472
 2134POPC   C3A30533   3.894  37.458   8.063
 2134POPC   C4A30534   4.042  37.409   7.639
 2134POPC   C1B30535   3.273  37.991   8.746
 2134POPC   C2B30536   3.174  38.033   8.305
 2134POPC   C3B30537   3.414  37.870   7.948
 2134POPC   C4B30538   3.520  37.506   7.684
 2135POPC   NC330539   2.789  11.166   9.474
 2135POPC   PO430540   2.990  11.789   9.462
 2135POPC   GL130541   2.802  11.550   9.122
 2135POPC   GL230542   2.652  11.209   8.999
 2135POPC   C1A30543   3.061  11.422   8.791
 2135POPC   D2A30544   3.029  11.601   8.410
 2135POPC   C3A30545   2.978  11.344   8.052
 2135POPC   C4A30546   2.722  11.392   7.683
 2135POPC   C1B30547   2.570  11.296   8.552
 2135POPC   C2B30548   2.490  11.212   8.092
 2135POPC   C3B30549   2.645  10.891   7.781
 2135POPC   C4B30550   2.666  10.870   7.310
 2136POPC   NC330551  44.762  32.924   9.614
 2136POPC   PO430552  44.375  33.533   9.511
 2136POPC   GL130553  44.511  33.080   9.217
 2136POPC   GL230554  44.812  32.778   9.125
 2136POPC   C1A30555  44.434  32.825   8.821
 2136POPC   D2A30556  44.527  32.986   8.430
 2136POPC   C3A30557  44.927  32.931   8.215
 2136POPC   C4A30558  44.897  32.922   7.781
 2136POPC   C1B30559  44.918  33.046   8.727
 2136POPC   C2B30560  44.847  33.402   8.424
 2136POPC   C3B30561  44.610  33.335   8.056
 2136POPC   C4B30562  44.552  33.468   7.664
 2137POPC   NC330563   1.713   4.389   9.303
 2137POPC   PO430564   1.095   4.328   9.579
 2137POPC   GL130565   1.194   4.448   9.173
 2137POPC   GL230566   1.273   4.109   9.099
 2137POPC   C1A30567   1.207   4.433   8.707
 2137POPC   D2A30568   1.436   4.296   8.330
 2137POPC   C3A30569   1.103   4.223   8.053
 2137POPC   C4A30570   0.988   4.566   7.824
 2137POPC   C1B30571   1.415   3.921   8.695
 2137POPC   C2B30572   1.325   3.787   8.259
 2137POPC   C3B30573   1.509   4.013   7.871
 2137POPC   C4B30574   1.404   4.358   7.583
 2138POPC   NC330575  18.256   6.029   9.510
 2138POPC   PO430576  18.691   5.492   9.396
 2138POPC   GL130577  18.485   5.794   9.114
 2138POPC   GL230578  18.674   6.086   9.000
 2138POPC   C1A30579  18.240   5.887   8.735
 2138POPC   D2A30580  18.414   5.973   8.338
 2138POPC   C3A30581  18.262   5.798   7.965
 2138POPC   C4A30582  18.093   5.803   7.563
 2138POPC   C1B30583  18.745   5.776   8.673
 2138POPC   C2B30584  18.721   5.573   8.279
 2138POPC   C3B30585  18.748   5.649   7.867
 2138POPC   C4B30586  18.501   5.498   7.526
 2139POPC   NC330587  19.963   9.480   9.539
 2139POPC   PO430588  19.700  10.066   9.600
 2139POPC   GL130589  19.788   9.982   9.179
 2139POPC   GL230590  19.803   9.639   9.098
 2139POPC   C1A30591  19.949  10.011   8.762
 2139POPC   D2A30592  19.775   9.912   8.371
 2139POPC   C3A30593  19.980  10.004   8.047
 2139POPC   C4A30594  19.972   9.907   7.608
 2139POPC   C1B30595  19.807   9.489   8.696
 2139POPC   C2B30596  20.072   9.463   8.335
 2139POPC   C3B30597  20.183   9.532   7.925
 2139POPC   C4B30598  20.269   9.506   7.493
 2140POPC   NC330599  33.306  36.156   9.482
 2140POPC   PO430600  32.807  35.738   9.552
 2140POPC   GL130601  32.860  35.958   9.183
 2140POPC   GL230602  33.188  35.983   9.032
 2140POPC   C1A30603  32.825  36.333   8.932
 2140POPC   D2A30604  32.749  36.258   8.504
 2140POPC   C3A30605  32.905  36.365   8.133
 2140POPC   C4A30606  32.649  36.065   7.835
 2140POPC   C1B30607  33.265  36.215   8.679
 2140POPC   C2B30608  33.216  35.994   8.322
 2140POPC   C3B30609  33.162  35.988   7.900
 2140POPC   C4B30610  33.285  36.426   7.805
 2141POPC   NC330611   1.550  23.848   9.611
 2141POPC   PO430612   1.060  23.449   9.668
 2141POPC   GL130613   1.151  23.656   9.223
 2141POPC   GL230614   1.387  23.946   9.141
 2141POPC   C1A30615   1.103  23.761   8.750
 2141POPC   D2A30616   1.279  23.693   8.333
 2141POPC   C3A30617   1.099  23.826   7.984
 2141POPC   C4A30618   1.177  23.689   7.620
 2141POPC   C1B30619   1.551  24.017   8.725
 2141POPC   C2B30620   1.717  23.951   8.345
 2141POPC   C3B30621   1.566  24.054   7.984
 2141POPC   C4B30622   1.496  24.128   7.567
 2142POPC   NC330623  35.633  31.889   9.466
 2142POPC   PO430624  35.206  31.304   9.504
 2142POPC   GL130625  35.264  31.349   9.124
 2142POPC   GL230626  35.322  31.695   9.118
 2142POPC   C1A30627  35.211  31.150   8.752
 2142POPC   D2A30628  35.459  31.051   8.403
 2142POPC   C3A30629  35.543  31.339   8.100
 2142POPC   C4A30630  35.627  31.178   7.727
 2142POPC   C1B30631  35.490  31.578   8.707
 2142POPC   C2B30632  35.175  31.559   8.390
 2142POPC   C3B30633  35.211  31.752   7.989
 2142POPC   C4B30634  35.575  31.708   7.724
 2143POPC   NC330635  44.788  42.179   9.332
 2143POPC   PO430636  44.153  42.298   9.405
 2143POPC   GL130637  44.371  42.581   9.071
 2143POPC   GL230638  44.713  42.430   8.914
 2143POPC   C1A30639  44.451  42.737   8.645
 2143POPC   D2A30640  44.542  42.387   8.396
 2143POPC   C3A30641  44.389  42.389   7.977
 2143POPC   C4A30642  44.538  42.105   7.691
 2143POPC   C1B30643  44.975  42.120   8.671
 2143POPC   C2B30644   0.051  41.775   8.346
 2143POPC   C3B30645   0.020  41.898   7.914
 2143POPC   C4B30646   0.016  42.270   7.645
 2144POPC   NC330647  12.993  28.651   9.525
 2144POPC   PO430648  12.667  29.307   9.381
 2144POPC   GL130649  12.785  29.099   9.042
 2144POPC   GL230650  13.123  29.002   9.164
 2144POPC   C1A30651  12.576  29.144   8.649
 2144POPC   D2A30652  12.443  28.895   8.301
 2144POPC   C3A30653  12.588  29.060   7.943
 2144POPC   C4A30654  12.675  29.125   7.528
 2144POPC   C1B30655  13.120  28.856   8.751
 2144POPC   C2B30656  12.950  28.896   8.316
 2144POPC   C3B30657  13.114  29.115   7.943
 2144POPC   C4B30658  13.166  29.562   7.844
 2145POPC   NC330659  35.527  39.101   9.444
 2145POPC   PO430660  34.790  39.136   9.501
 2145POPC   GL130661  35.150  39.254   9.117
 2145POPC   GL230662  35.543  39.307   8.987
 2145POPC   C1A30663  35.174  39.554   8.755
 2145POPC   D2A30664  35.352  39.618   8.361
 2145POPC   C3A30665  35.235  39.362   8.010
 2145POPC   C4A30666  35.556  39.186   7.759
 2145POPC   C1B30667  35.341  38.974   8.719
 2145POPC   C2B30668  35.167  38.909   8.281
 2145POPC   C3B30669  35.324  38.727   7.886
 2145POPC   C4B30670  35.223  38.637   7.456
 2146POPC   NC330671   3.871   4.144   9.358
 2146POPC   PO430672   3.722   4.794   9.493
 2146POPC   GL130673   3.529   4.517   9.188
 2146POPC   GL230674   3.406   4.728   8.873
 2146POPC   C1A30675   3.390   4.212   8.874
 2146POPC   D2A30676   3.354   4.367   8.463
 2146POPC   C3A30677   3.311   4.088   8.150
 2146POPC   C4A30678   3.291   4.165   7.725
 2146POPC   C1B30679   3.779   4.519   8.753
 2146POPC   C2B30680   3.893   4.527   8.364
 2146POPC   C3B30681   3.793   4.276   8.063
 2146POPC   C4B30682   3.843   4.164   7.687
 2147POPC   NC330683  40.525  32.266   9.572
 2147POPC   PO430684  41.153  32.237   9.421
 2147POPC   GL130685  40.773  32.235   9.115
 2147POPC   GL230686  40.496  32.491   9.113
 2147POPC   C1A30687  40.718  32.274   8.656
 2147POPC   D2A30688  40.903  32.444   8.259
 2147POPC   C3A30689  40.889  32.153   7.896
 2147POPC   C4A30690  41.003  32.108   7.441
 2147POPC   C1B30691  40.368  32.653   8.735
 2147POPC   C2B30692  40.356  32.464   8.324
 2147POPC   C3B30693  40.510  32.596   7.919
 2147POPC   C4B30694  40.512  32.310   7.549
 2148POPC   NC330695  38.250  41.614   9.629
 2148POPC   PO430696  38.874  41.984   9.453
 2148POPC   GL130697  38.567  41.908   9.038
 2148POPC   GL230698  38.270  41.727   9.127
 2148POPC   C1A30699  38.485  41.563   8.711
 2148POPC   D2A30700  38.130  41.444   8.443
 2148POPC   C3A30701  38.324  41.290   8.087
 2148POPC   C4A30702  38.608  41.359   7.758
 2148POPC   C1B30703  38.138  41.938   8.758
 2148POPC   C2B30704  38.337  41.927   8.349
 2148POPC   C3B30705  38.374  41.786   7.900
 2148POPC   C4B30706  38.175  41.770   7.486
 2149POPC   NC330707  41.423  23.259   9.433
 2149POPC   PO430708  40.728  23.072   9.476
 2149POPC   GL130709  40.603  22.924   9.083
 2149POPC   GL230710  40.538  23.243   8.955
 2149POPC   C1A30711  40.740  22.736   8.716
 2149POPC   D2A30712  40.658  22.930   8.343
 2149POPC   C3A30713  40.710  22.655   8.026
 2149POPC   C4A30714  40.951  22.725   7.612
 2149POPC   C1B30715  41.014  23.143   8.850
 2149POPC   C2B30716  41.186  23.084   8.449
 2149POPC   C3B30717  41.106  22.962   8.044
 2149POPC   C4B30718  41.178  23.199   7.644
 2150POPC   NC330719  28.099  15.420   9.410
 2150POPC   PO430720  27.630  15.035   9.626
 2150POPC   GL130721  27.598  15.253   9.229
 2150POPC   GL230722  27.810  15.021   9.145
 2150POPC   C1A30723  27.403  15.196   8.812
 2150POPC   D2A30724  27.423  14.974   8.398
 2150POPC   C3A30725  27.466  15.185   7.979
 2150POPC   C4A30726  27.801  15.519   7.865
 2150POPC   C1B30727  27.873  14.951   8.717
 2150POPC   C2B30728  27.946  14.814   8.301
 2150POPC   C3B30729  27.897  14.926   7.863
 2150POPC   C4B30730  27.971  14.795   7.455
 2151POPC   NC330731  16.334  44.288   9.465
 2151POPC   PO430732  16.993  44.661   9.540
 2151POPC   GL130733  16.848  44.685   9.109
 2151POPC   GL230734  16.505  44.560   9.061
 2151POPC   C1A30735  16.728  44.750   8.655
 2151POPC   D2A30736  16.599  44.617   8.260
 2151POPC   C3A30737  16.570  44.865   7.916
 2151POPC   C4A30738  16.960  44.667   7.810
 2151POPC   C1B30739  16.454  44.316   8.659
 2151POPC   C2B30740  16.174  44.365   8.311
 2151POPC   C3B30741  16.268  44.291   7.883
 2151POPC   C4B30742  16.548  44.480   7.570
 2152POPC   NC330743  29.376  33.652   9.469
 2152POPC   PO430744  29.669  34.246   9.508
 2152POPC   GL130745  29.386  34.085   9.138
 2152POPC   GL230746  29.025  34.232   9.063
 2152POPC   C1A30747  29.184  33.784   8.821
 2152POPC   D2A30748  29.008  33.752   8.377
 2152POPC   C3A30749  29.377  33.826   8.101
 2152POPC   C4A30750  29.524  33.819   7.663
 2152POPC   C1B30751  28.766  34.073   8.740
 2152POPC   C2B30752  28.542  34.096   8.350
 2152POPC   C3B30753  28.657  33.882   7.977
 2152POPC   C4B30754  29.019  33.829   7.741
 2153POPC   NC330755  40.406  26.669   9.388
 2153POPC   PO430756  41.111  26.912   9.507
 2153POPC   GL130757  40.776  27.057   9.227
 2153POPC   GL230758  40.461  27.271   9.319
 2153POPC   C1A30759  40.795  26.947   8.793
 2153POPC   D2A30760  41.030  26.846   8.438
 2153POPC   C3A30761  40.861  26.829   8.041
 2153POPC   C4A30762  40.919  26.731   7.617
 2153POPC   C1B30763  40.554  27.395   8.889
 2153POPC   C2B30764  40.485  27.200   8.468
 2153POPC   C3B30765  40.371  27.167   8.042
 2153POPC   C4B30766  40.582  27.107   7.661
 2154POPC   NC330767  11.244  18.203  10.129
 2154POPC   PO430768  11.385  18.650   9.682
 2154POPC   GL130769  11.464  18.473   9.289
 2154POPC   GL230770  11.217  18.666   9.132
 2154POPC   C1A30771  11.362  18.158   8.959
 2154POPC   D2A30772  11.369  18.156   8.509
 2154POPC   C3A30773  11.205  17.984   8.117
 2154POPC   C4A30774  11.209  18.157   7.702
 2154POPC   C1B30775  11.047  18.527   8.714
 2154POPC   C2B30776  11.012  18.444   8.255
 2154POPC   C3B30777  11.041  18.621   7.823
 2154POPC   C4B30778  11.071  18.522   7.368
 2155POPC   NC330779  37.569  17.921   9.466
 2155POPC   PO430780  37.356  17.212   9.516
 2155POPC   GL130781  37.376  17.517   9.184
 2155POPC   GL230782  37.730  17.553   9.164
 2155POPC   C1A30783  37.467  17.572   8.728
 2155POPC   D2A30784  37.558  17.319   8.347
 2155POPC   C3A30785  37.329  17.414   7.970
 2155POPC   C4A30786  37.329  17.522   7.540
 2155POPC   C1B30787  37.976  17.439   8.833
 2155POPC   C2B30788  37.942  17.642   8.443
 2155POPC   C3B30789  37.989  17.489   8.069
 2155POPC   C4B30790  37.986  17.634   7.672
 2156POPC   NC330791  24.292  32.901   9.545
 2156POPC   PO430792  24.821  32.461   9.403
 2156POPC   GL130793  24.674  32.801   9.124
 2156POPC   GL230794  24.614  33.157   9.237
 2156POPC   C1A30795  24.539  32.877   8.678
 2156POPC   D2A30796  24.472  32.696   8.252
 2156POPC   C3A30797  24.313  32.995   7.902
 2156POPC   C4A30798  24.164  33.271   7.518
 2156POPC   C1B30799  24.824  33.261   8.875
 2156POPC   C2B30800  24.772  33.291   8.431
 2156POPC   C3B30801  24.789  33.061   8.063
 2156POPC   C4B30802  24.732  32.683   7.809
 2157POPC   NC330803   3.095   9.562   9.587
 2157POPC   PO430804   3.448  10.064   9.519
 2157POPC   GL130805   3.428   9.732   9.234
 2157POPC   GL230806   3.733   9.811   9.068
 2157POPC   C1A30807   3.286   9.642   8.835
 2157POPC   D2A30808   3.559   9.794   8.510
 2157POPC   C3A30809   3.467   9.733   8.109
 2157POPC   C4A30810   3.630   9.639   7.729
 2157POPC   C1B30811   3.766   9.447   8.806
 2157POPC   C2B30812   3.774   9.343   8.373
 2157POPC   C3B30813   3.989   9.626   8.088
 2157POPC   C4B30814   4.133   9.568   7.652
 2158POPC   NC330815  26.693  17.508   9.508
 2158POPC   PO430816  27.058  16.969   9.733
 2158POPC   GL130817  26.889  17.049   9.252
 2158POPC   GL230818  27.018  17.385   9.077
 2158POPC   C1A30819  26.654  17.175   8.815
 2158POPC   D2A30820  26.824  17.417   8.439
 2158POPC   C3A30821  26.809  17.316   8.004
 2158POPC   C4A30822  27.057  17.621   7.779
 2158POPC   C1B30823  26.708  17.672   8.858
 2158POPC   C2B30824  26.393  17.685   8.534
 2158POPC   C3B30825  26.411  17.664   8.079
 2158POPC   C4B30826  26.615  17.910   7.753
 2159POPC   NC330827   8.681  19.482   9.455
 2159POPC   PO430828   8.097  19.741   9.704
 2159POPC   GL130829   8.123  19.986   9.241
 2159POPC   GL230830   8.377  19.762   9.153
 2159POPC   C1A30831   8.099  19.930   8.759
 2159POPC   D2A30832   8.001  19.705   8.377
 2159POPC   C3A30833   8.148  19.926   8.043
 2159POPC   C4A30834   8.059  20.226   7.753
 2159POPC   C1B30835   8.472  19.547   8.747
 2159POPC   C2B30836   8.435  19.450   8.292
 2159POPC   C3B30837   8.514  19.624   7.886
 2159POPC   C4B30838   8.276  19.679   7.498
 2160POPC   NC330839   1.384  42.102   9.418
 2160POPC   PO430840   1.104  42.675   9.612
 2160POPC   GL130841   1.296  42.536   9.175
 2160POPC   GL230842   1.015  42.414   9.065
 2160POPC   C1A30843   1.438  42.276   8.773
 2160POPC   D2A30844   1.569  42.365   8.327
 2160POPC   C3A30845   1.293  42.669   8.096
 2160POPC   C4A30846   1.285  42.716   7.653
 2160POPC   C1B30847   0.934  42.316   8.652
 2160POPC   C2B30848   1.106  42.187   8.270
 2160POPC   C3B30849   1.172  42.242   7.849
 2160POPC   C4B30850   0.905  42.138   7.572
 2161POPC   NC330851  21.694  39.243   9.359
 2161POPC   PO430852  21.027  39.479   9.360
 2161POPC   GL130853  21.270  39.277   9.071
 2161POPC   GL230854  21.370  38.929   9.144
 2161POPC   C1A30855  21.456  39.364   8.687
 2161POPC   D2A30856  21.314  39.274   8.303
 2161POPC   C3A30857  21.528  39.437   7.922
 2161POPC   C4A30858  21.320  39.174   7.602
 2161POPC   C1B30859  21.606  38.880   8.776
 2161POPC   C2B30860  21.730  39.015   8.364
 2161POPC   C3B30861  21.565  38.946   7.999
 2161POPC   C4B30862  21.593  38.749   7.636
 2162POPC   NC330863   6.687  34.496   9.360
 2162POPC   PO430864   5.976  34.321   9.423
 2162POPC   GL130865   6.326  34.238   9.090
 2162POPC   GL230866   6.389  34.584   8.944
 2162POPC   C1A30867   6.642  34.214   8.727
 2162POPC   D2A30868   6.623  34.414   8.339
 2162POPC   C3A30869   6.714  34.250   7.905
 2162POPC   C4A30870   6.551  34.397   7.496
 2162POPC   C1B30871   6.763  34.767   8.754
 2162POPC   C2B30872   6.830  34.901   8.339
 2162POPC   C3B30873   6.747  34.748   7.933
 2162POPC   C4B30874   7.065  34.548   7.688
 2163POPC   NC330875  22.396  13.247   9.422
 2163POPC   PO430876  21.973  12.776   9.523
 2163POPC   GL130877  22.101  12.876   9.115
 2163POPC   GL230878  21.984  13.213   9.116
 2163POPC   C1A30879  22.084  12.721   8.676
 2163POPC   D2A30880  21.992  12.574   8.236
 2163POPC   C3A30881  22.287  12.674   7.929
 2163POPC   C4A30882  22.406  12.539   7.563
 2163POPC   C1B30883  22.122  13.239   8.697
 2163POPC   C2B30884  22.180  13.055   8.288
 2163POPC   C3B30885  21.950  13.031   7.897
 2163POPC   C4B30886  22.154  13.010   7.512
 2164POPC   NC330887  20.506  21.099   9.482
 2164POPC   PO430888  20.899  21.564   9.483
 2164POPC   GL130889  20.687  21.637   9.133
 2164POPC   GL230890  20.358  21.775   9.270
 2164POPC   C1A30891  20.776  21.427   8.737
 2164POPC   D2A30892  20.896  21.136   8.403
 2164POPC   C3A30893  20.722  21.274   8.042
 2164POPC   C4A30894  20.908  21.534   7.803
 2164POPC   C1B30895  20.296  21.693   8.815
 2164POPC   C2B30896  20.432  21.655   8.372
 2164POPC   C3B30897  20.267  21.488   7.969
 2164POPC   C4B30898  20.383  21.245   7.604
 2165POPC   NC330899  28.605  21.152   9.475
 2165POPC   PO430900  27.933  21.397   9.587
 2165POPC   GL130901  28.149  21.274   9.170
 2165POPC   GL230902  28.466  21.328   9.042
 2165POPC   C1A30903  28.057  21.428   8.745
 2165POPC   D2A30904  28.068  21.726   8.385
 2165POPC   C3A30905  28.287  21.522   8.048
 2165POPC   C4A30906  28.518  21.348   7.701
 2165POPC   C1B30907  28.702  21.309   8.669
 2165POPC   C2B30908  28.794  21.338   8.221
 2165POPC   C3B30909  28.509  21.026   8.123
 2165POPC   C4B30910  28.259  20.933   7.772
 2166POPC   NC330911  11.280  21.449   9.593
 2166POPC   PO430912  11.723  21.879   9.248
 2166POPC   GL130913  11.516  21.452   9.142
 2166POPC   GL230914  11.795  21.195   9.153
 2166POPC   C1A30915  11.254  21.291   8.756
 2166POPC   D2A30916  11.023  21.109   8.391
 2166POPC   C3A30917  11.264  21.197   7.993
 2166POPC   C4A30918  11.278  21.607   7.861
 2166POPC   C1B30919  11.753  21.414   8.712
 2166POPC   C2B30920  11.606  21.490   8.289
 2166POPC   C3B30921  11.764  21.715   7.917
 2166POPC   C4B30922  11.694  21.514   7.473
 2167POPC   NC330923  36.037  28.839   9.150
 2167POPC   PO430924  36.517  29.203   9.423
 2167POPC   GL130925  36.379  29.242   9.045
 2167POPC   GL230926  36.057  29.347   9.072
 2167POPC   C1A30927  36.313  29.078   8.647
 2167POPC   D2A30928  36.152  28.783   8.424
 2167POPC   C3A30929  36.186  28.927   8.042
 2167POPC   C4A30930  35.897  28.810   7.746
 2167POPC   C1B30931  36.144  29.542   8.714
 2167POPC   C2B30932  36.071  29.403   8.317
 2167POPC   C3B30933  35.770  29.216   8.068
 2167POPC   C4B30934  36.023  29.304   7.716
 2168POPC   NC330935  16.291  21.157   9.346
 2168POPC   PO430936  16.752  21.445   9.782
 2168POPC   GL130937  16.713  21.468   9.304
 2168POPC   GL230938  16.868  21.721   9.124
 2168POPC   C1A30939  16.688  21.309   8.827
 2168POPC   D2A30940  16.891  21.308   8.369
 2168POPC   C3A30941  16.636  21.207   7.982
 2168POPC   C4A30942  16.530  21.515   7.640
 2168POPC   C1B30943  17.121  21.544   8.767
 2168POPC   C2B30944  17.263  21.727   8.379
 2168POPC   C3B30945  17.098  21.734   7.974
 2168POPC   C4B30946  17.038  21.363   7.727
 2169POPC   NC330947  31.530  43.416   9.438
 2169POPC   PO430948  31.580  44.114   9.467
 2169POPC   GL130949  31.403  44.050   9.063
 2169POPC   GL230950  31.224  43.728   9.102
 2169POPC   C1A30951  31.556  44.114   8.634
 2169POPC   D2A30952  31.882  44.192   8.316
 2169POPC   C3A30953  31.727  44.066   7.917
 2169POPC   C4A30954  31.412  44.121   7.576
 2169POPC   C1B30955  31.463  43.606   8.713
 2169POPC   C2B30956  31.556  43.744   8.283
 2169POPC   C3B30957  31.249  43.819   7.989
 2169POPC   C4B30958  31.206  43.655   7.590
 2170POPC   NC330959   9.072  15.454   9.471
 2170POPC   PO430960   9.229  16.050   9.612
 2170POPC   GL130961   8.947  15.871   9.219
 2170POPC   GL230962   9.163  15.721   9.015
 2170POPC   C1A30963   8.704  15.708   8.783
 2170POPC   D2A30964   8.652  15.915   8.372
 2170POPC   C3A30965   8.726  15.665   8.010
 2170POPC   C4A30966   8.922  15.600   7.599
 2170POPC   C1B30967   8.977  16.118   8.777
 2170POPC   C2B30968   9.095  16.171   8.345
 2170POPC   C3B30969   9.115  15.998   7.925
 2170POPC   C4B30970   9.221  16.354   7.616
 2171POPC   NC330971   5.340  40.350   9.452
 2171POPC   PO430972   5.087  39.806   9.444
 2171POPC   GL130973   5.065  40.122   9.091
 2171POPC   GL230974   4.770  40.325   8.970
 2171POPC   C1A30975   5.199  40.278   8.723
 2171POPC   D2A30976   5.138  40.090   8.359
 2171POPC   C3A30977   5.049  40.308   8.004
 2171POPC   C4A30978   5.455  40.212   7.803
 2171POPC   C1B30979   4.769  39.893   8.742
 2171POPC   C2B30980   4.887  39.671   8.363
 2171POPC   C3B30981   5.061  39.809   7.926
 2171POPC   C4B30982   4.769  39.901   7.601
 2172POPC   NC330983  17.054  34.511   9.386
 2172POPC   PO430984  17.665  34.356   9.509
 2172POPC   GL130985  17.808  34.432   9.137
 2172POPC   GL230986  17.472  34.558   9.056
 2172POPC   C1A30987  17.792  34.375   8.721
 2172POPC   D2A30988  17.556  34.503   8.392
 2172POPC   C3A30989  17.734  34.504   8.010
 2172POPC   C4A30990  17.599  34.826   7.737
 2172POPC   C1B30991  17.245  34.294   8.754
 2172POPC   C2B30992  17.065  34.310   8.349
 2172POPC   C3B30993  17.073  34.396   7.899
 2172POPC   C4B30994  16.801  34.448   7.517
 2173POPC   NC330995  42.851  30.357   9.484
 2173POPC   PO430996  43.238  30.979   9.596
 2173POPC   GL130997  43.136  30.922   9.150
 2173POPC   GL230998  43.074  30.568   9.050
 2173POPC   C1A30999  43.120  30.943   8.704
 2173POPC   D2A31000  43.003  30.638   8.394
 2173POPC   C3A31001  42.939  30.817   7.991
 2173POPC   C4A31002  43.358  30.870   7.778
 2173POPC   C1B31003  42.832  30.304   8.763
 2173POPC   C2B31004  42.915  30.135   8.355
 2173POPC   C3B31005  43.172  30.316   8.008
 2173POPC   C4B31006  43.024  30.489   7.626
 2174POPC   NC331007  16.282  22.489   9.572
 2174POPC   PO431008  16.012  21.855   9.634
 2174POPC   GL131009  15.983  22.030   9.195
 2174POPC   GL231010  15.946  22.361   9.191
 2174POPC   C1A31011  15.968  21.971   8.735
 2174POPC   D2A31012  15.921  22.318   8.417
 2174POPC   C3A31013  15.817  22.183   7.996
 2174POPC   C4A31014  15.629  22.258   7.600
 2174POPC   C1B31015  16.234  22.382   8.847
 2174POPC   C2B31016  16.411  22.196   8.451
 2174POPC   C3B31017  16.376  22.366   8.049
 2174POPC   C4B31018  16.200  22.285   7.659
 2175POPC   NC331019   9.256  37.533   9.521
 2175POPC   PO431020   8.650  37.742   9.654
 2175POPC   GL131021   8.904  37.754   9.241
 2175POPC   GL231022   9.010  37.428   9.066
 2175POPC   C1A31023   8.903  37.834   8.783
 2175POPC   D2A31024   8.888  37.671   8.383
 2175POPC   C3A31025   8.800  37.764   7.961
 2175POPC   C4A31026   8.872  37.480   7.621
 2175POPC   C1B31027   9.318  37.559   8.696
 2175POPC   C2B31028   9.382  37.782   8.274
 2175POPC   C3B31029   9.309  37.674   7.823
 2175POPC   C4B31030   9.448  37.730   7.370
 2176POPC   NC331031   5.375  10.811   9.890
 2176POPC   PO431032   5.917  10.465   9.707
 2176POPC   GL131033   5.853  10.440   9.242
 2176POPC   GL231034   5.548  10.667   9.164
 2176POPC   C1A31035   6.012  10.397   8.796
 2176POPC   D2A31036   5.835  10.549   8.388
 2176POPC   C3A31037   6.040  10.640   8.002
 2176POPC   C4A31038   5.809  10.565   7.668
 2176POPC   C1B31039   5.510  10.502   8.774
 2176POPC   C2B31040   5.376  10.292   8.420
 2176POPC   C3B31041   5.435  10.429   8.021
 2176POPC   C4B31042   5.197  10.337   7.666
 2177POPC   NC331043  20.914  42.048   9.516
 2177POPC   PO431044  20.330  42.416   9.543
 2177POPC   GL131045  20.577  42.262   9.195
 2177POPC   GL231046  20.822  42.510   9.173
 2177POPC   C1A31047  20.572  42.131   8.761
 2177POPC   D2A31048  20.312  42.219   8.422
 2177POPC   C3A31049  20.508  42.289   8.030
 2177POPC   C4A31050  20.366  42.554   7.746
 2177POPC   C1B31051  20.665  42.622   8.778
 2177POPC   C2B31052  20.814  42.447   8.397
 2177POPC   C3B31053  20.900  42.630   7.981
 2177POPC   C4B31054  20.830  42.490   7.549
 2178POPC   NC331055  24.637   7.614   9.546
 2178POPC   PO431056  24.715   6.953   9.558
 2178POPC   GL131057  24.532   7.233   9.250
 2178POPC   GL231058  24.857   7.348   9.153
 2178POPC   C1A31059  24.446   7.456   8.856
 2178POPC   D2A31060  24.436   7.653   8.443
 2178POPC   C3A31061  24.670   7.534   8.050
 2178POPC   C4A31062  24.496   7.311   7.691
 2178POPC   C1B31063  24.747   7.065   8.809
 2178POPC   C2B31064  24.577   7.166   8.401
 2178POPC   C3B31065  24.623   6.982   8.016
 2178POPC   C4B31066  24.898   6.967   7.611
 2179POPC   NC331067  34.876  39.584   9.395
 2179POPC   PO431068  34.698  40.260   9.554
 2179POPC   GL131069  34.438  40.048   9.248
 2179POPC   GL231070  34.729  39.975   9.075
 2179POPC   C1A31071  34.335  40.092   8.782
 2179POPC   D2A31072  34.654  40.086   8.456
 2179POPC   C3A31073  34.709  40.320   8.095
 2179POPC   C4A31074  34.755  40.229   7.669
 2179POPC   C1B31075  34.680  39.674   8.731
 2179POPC   C2B31076  34.835  39.599   8.307
 2179POPC   C3B31077  34.965  39.787   7.902
 2179POPC   C4B31078  34.839  39.756   7.436
 2180POPC   NC331079  39.644  32.956   9.514
 2180POPC   PO431080  39.031  32.919   9.753
 2180POPC   GL131081  39.125  33.078   9.301
 2180POPC   GL231082  39.399  33.313   9.263
 2180POPC   C1A31083  39.248  33.075   8.827
 2180POPC   D2A31084  39.004  32.913   8.473
 2180POPC   C3A31085  38.903  33.027   8.053
 2180POPC   C4A31086  39.047  32.789   7.745
 2180POPC   C1B31087  39.659  33.378   8.905
 2180POPC   C2B31088  39.667  33.264   8.487
 2180POPC   C3B31089  39.329  33.312   8.187
 2180POPC   C4B31090  39.174  33.367   7.770
 2181POPC   NC331091   2.275   8.087   9.402
 2181POPC   PO431092   1.730   8.359   9.521
 2181POPC   GL131093   1.882   8.227   9.117
 2181POPC   GL231094   2.196   8.389   8.988
 2181POPC   C1A31095   1.734   8.124   8.731
 2181POPC   D2A31096   1.573   8.230   8.324
 2181POPC   C3A31097   1.877   8.296   8.027
 2181POPC   C4A31098   1.870   8.036   7.667
 2181POPC   C1B31099   2.221   7.987   8.757
 2181POPC   C2B31100   2.017   7.900   8.365
 2181POPC   C3B31101   2.224   7.915   8.003
 2181POPC   C4B31102   2.336   8.255   7.754
 2182POPC   NC331103   1.084  22.012   9.494
 2182POPC   PO431104   0.337  22.109   9.548
 2182POPC   GL131105   0.530  22.082   9.153
 2182POPC   GL231106   0.418  21.739   9.094
 2182POPC   C1A31107   0.509  22.371   8.761
 2182POPC   D2A31108   0.531  22.549   8.318
 2182POPC   C3A31109   0.503  22.248   7.960
 2182POPC   C4A31110   0.663  22.219   7.547
 2182POPC   C1B31111   0.231  21.927   8.784
 2182POPC   C2B31112   0.343  22.036   8.396
 2182POPC   C3B31113   0.166  21.848   8.030
 2182POPC   C4B31114   0.169  22.010   7.625
 2183POPC   NC331115   0.992   2.925   9.586
 2183POPC   PO431116   0.403   2.881   9.625
 2183POPC   GL131117   0.375   2.749   9.214
 2183POPC   GL231118   0.737   2.702   9.189
 2183POPC   C1A31119   0.198   2.712   8.800
 2183POPC   D2A31120   0.332   2.564   8.396
 2183POPC   C3A31121   0.340   2.793   8.037
 2183POPC   C4A31122   0.266   2.713   7.615
 2183POPC   C1B31123   0.672   2.987   8.825
 2183POPC   C2B31124   0.730   2.944   8.393
 2183POPC   C3B31125   0.839   2.820   7.990
 2183POPC   C4B31126   0.653   3.042   7.665
 2184POPC   NC331127  10.165  26.850   9.834
 2184POPC   PO431128  10.679  27.201   9.585
 2184POPC   GL131129  10.537  26.851   9.323
 2184POPC   GL231130  10.166  26.869   9.285
 2184POPC   C1A31131  10.513  26.758   8.868
 2184POPC   D2A31132  10.555  26.598   8.423
 2184POPC   C3A31133  10.796  26.835   8.106
 2184POPC   C4A31134  10.955  26.580   7.768
 2184POPC   C1B31135  10.077  27.077   8.850
 2184POPC   C2B31136   9.925  27.176   8.401
 2184POPC   C3B31137   9.997  26.937   8.012
 2184POPC   C4B31138  10.286  26.571   7.954
 2185POPC   NC331139   3.600  16.252   9.215
 2185POPC   PO431140   3.732  16.818   9.530
 2185POPC   GL131141   3.610  16.793   9.104
 2185POPC   GL231142   3.301  16.972   9.054
 2185POPC   C1A31143   3.813  16.710   8.696
 2185POPC   D2A31144   3.690  16.924   8.290
 2185POPC   C3A31145   3.833  16.699   7.955
 2185POPC   C4A31146   4.140  16.607   7.647
 2185POPC   C1B31147   3.325  16.851   8.643
 2185POPC   C2B31148   3.172  16.785   8.220
 2185POPC   C3B31149   3.318  16.827   7.808
 2185POPC   C4B31150   3.209  17.055   7.442
 2186POPC   NC331151  22.633  16.457   9.651
 2186POPC   PO431152  23.364  16.595   9.471
 2186POPC   GL131153  22.995  16.837   9.238
 2186POPC   GL231154  22.645  17.029   9.238
 2186POPC   C1A31155  22.888  16.842   8.805
 2186POPC   D2A31156  23.133  16.842   8.424
 2186POPC   C3A31157  23.016  16.772   8.024
 2186POPC   C4A31158  23.258  16.580   7.732
 2186POPC   C1B31159  22.525  17.196   8.814
 2186POPC   C2B31160  22.696  17.140   8.408
 2186POPC   C3B31161  22.666  17.279   7.993
 2186POPC   C4B31162  22.777  17.021   7.629
 2187POPC   NC331163   3.145  39.307   9.470
 2187POPC   PO431164   3.681  39.004   9.605
 2187POPC   GL131165   3.695  39.256   9.201
 2187POPC   GL231166   3.388  39.163   9.050
 2187POPC   C1A31167   3.689  39.531   8.810
 2187POPC   D2A31168   3.884  39.499   8.397
 2187POPC   C3A31169   3.643  39.435   8.030
 2187POPC   C4A31170   3.670  39.148   7.705
 2187POPC   C1B31171   3.224  39.322   8.685
 2187POPC   C2B31172   3.250  39.270   8.307
 2187POPC   C3B31173   3.041  39.107   7.957
 2187POPC   C4B31174   3.192  39.234   7.596
 2188POPC   NC331175   1.357  18.873   9.418
 2188POPC   PO431176   0.760  19.309   9.541
 2188POPC   GL131177   1.066  19.243   9.200
 2188POPC   GL231178   0.898  18.961   9.107
 2188POPC   C1A31179   1.331  19.169   8.796
 2188POPC   D2A31180   1.525  18.996   8.395
 2188POPC   C3A31181   1.442  19.299   8.061
 2188POPC   C4A31182   1.034  19.430   7.902
 2188POPC   C1B31183   0.918  18.877   8.701
 2188POPC   C2B31184   1.025  19.095   8.313
 2188POPC   C3B31185   1.178  18.901   7.909
 2188POPC   C4B31186   0.934  18.646   7.624
 2189POPC   NC331187  12.858  26.423   9.999
 2189POPC   PO431188  12.895  25.904   9.541
 2189POPC   GL131189  13.051  25.964   9.137
 2189POPC   GL231190  12.770  26.054   8.992
 2189POPC   C1A31191  13.268  26.114   8.792
 2189POPC   D2A31192  13.347  26.250   8.382
 2189POPC   C3A31193  13.039  26.054   8.146
 2189POPC   C4A31194  12.848  25.995   7.749
 2189POPC   C1B31195  12.519  25.940   8.658
 2189POPC   C2B31196  12.563  25.892   8.234
 2189POPC   C3B31197  12.366  25.900   7.860
 2189POPC   C4B31198  12.326  26.273   7.652
 2190POPC   NC331199  42.277  33.663   9.644
 2190POPC   PO431200  42.778  33.328   9.364
 2190POPC   GL131201  42.372  33.565   9.159
 2190POPC   GL231202  42.297  33.972   9.184
 2190POPC   C1A31203  42.206  33.705   8.770
 2190POPC   D2A31204  42.113  33.510   8.429
 2190POPC   C3A31205  42.353  33.626   8.109
 2190POPC   C4A31206  42.310  33.602   7.702
 2190POPC   C1B31207  42.099  34.200   8.786
 2190POPC   C2B31208  42.112  34.024   8.338
 2190POPC   C3B31209  42.238  34.106   7.880
 2190POPC   C4B31210  42.381  34.377   7.519
 2191POPC   NC331211  43.114  29.395   9.546
 2191POPC   PO431212  42.872  28.788   9.590
 2191POPC   GL131213  42.914  28.977   9.136
 2191POPC   GL231214  42.920  29.367   9.082
 2191POPC   C1A31215  43.064  29.096   8.683
 2191POPC   D2A31216  43.122  29.294   8.277
 2191POPC   C3A31217  43.174  28.952   7.966
 2191POPC   C4A31218  43.071  28.822   7.538
 2191POPC   C1B31219  43.348  29.467   8.897
 2191POPC   C2B31220  43.602  29.341   8.521
 2191POPC   C3B31221  43.585  29.500   8.096
 2191POPC   C4B31222  43.283  29.405   7.749
 2192POPC   NC331223   3.953  32.918   9.313
 2192POPC   PO431224   4.261  33.475   9.385
 2192POPC   GL131225   4.252  33.209   9.003
 2192POPC   GL231226   4.254  32.800   8.936
 2192POPC   C1A31227   4.055  33.137   8.617
 2192POPC   D2A31228   4.125  32.781   8.349
 2192POPC   C3A31229   4.177  33.040   7.984
 2192POPC   C4A31230   4.485  33.355   7.930
 2192POPC   C1B31231   4.657  32.928   8.814
 2192POPC   C2B31232   4.926  32.816   8.507
 2192POPC   C3B31233   4.647  32.852   8.159
 2192POPC   C4B31234   4.514  32.741   7.758
 2193POPC   NC331235  13.892  41.831   9.493
 2193POPC   PO431236  13.250  41.618   9.472
 2193POPC   GL131237  13.528  41.635   9.112
 2193POPC   GL231238  13.616  41.956   9.108
 2193POPC   C1A31239  13.757  41.690   8.693
 2193POPC   D2A31240  13.961  41.649   8.277
 2193POPC   C3A31241  13.699  41.443   7.933
 2193POPC   C4A31242  13.782  41.095   7.646
 2193POPC   C1B31243  13.372  42.046   8.767
 2193POPC   C2B31244  13.465  41.910   8.338
 2193POPC   C3B31245  13.690  41.950   7.956
 2193POPC   C4B31246  13.500  41.790   7.586
 2194POPC   NC331247  42.017  22.992   9.522
 2194POPC   PO431248  41.394  22.752   9.482
 2194POPC   GL131249  41.398  22.876   9.100
 2194POPC   GL231250  41.749  22.907   9.092
 2194POPC   C1A31251  41.335  22.702   8.742
 2194POPC   D2A31252  41.509  22.615   8.377
 2194POPC   C3A31253  41.580  22.905   8.128
 2194POPC   C4A31254  41.449  22.752   7.726
 2194POPC   C1B31255  41.645  23.155   8.730
 2194POPC   C2B31256  41.926  23.200   8.395
 2194POPC   C3B31257  42.063  22.979   8.052
 2194POPC   C4B31258  41.768  23.148   7.720
 2195POPC   NC331259  17.246  32.993   9.570
 2195POPC   PO431260  17.877  32.874   9.474
 2195POPC   GL131261  17.544  32.884   9.149
 2195POPC   GL231262  17.318  33.186   9.120
 2195POPC   C1A31263  17.425  32.719   8.753
 2195POPC   D2A31264  17.282  32.702   8.324
 2195POPC   C3A31265  17.601  32.874   8.074
 2195POPC   C4A31266  17.787  32.748   7.694
 2195POPC   C1B31267  17.546  33.290   8.816
 2195POPC   C2B31268  17.299  33.164   8.495
 2195POPC   C3B31269  17.197  33.189   8.087
 2195POPC   C4B31270  17.371  33.123   7.689
 2196POPC   NC331271  32.221   3.343   9.529
 2196POPC   PO431272  32.316   3.947   9.494
 2196POPC   GL131273  32.391   3.678   9.154
 2196POPC   GL231274  32.045   3.630   9.145
 2196POPC   C1A31275  32.410   3.437   8.745
 2196POPC   D2A31276  32.284   3.333   8.304
 2196POPC   C3A31277  32.145   3.634   7.982
 2196POPC   C4A31278  32.196   3.753   7.545
 2196POPC   C1B31279  31.916   3.546   8.767
 2196POPC   C2B31280  31.795   3.519   8.384
 2196POPC   C3B31281  31.819   3.262   8.063
 2196POPC   C4B31282  31.818   3.429   7.660
 2197POPC   NC331283  17.447  24.077   9.712
 2197POPC   PO431284  17.411  23.323   9.710
 2197POPC   GL131285  17.475  23.591   9.300
 2197POPC   GL231286  17.269  23.872   9.267
 2197POPC   C1A31287  17.719  23.702   8.917
 2197POPC   D2A31288  17.640  23.666   8.468
 2197POPC   C3A31289  17.831  23.725   8.055
 2197POPC   C4A31290  17.865  23.456   7.642
 2197POPC   C1B31291  17.319  23.983   8.816
 2197POPC   C2B31292  17.150  23.864   8.432
 2197POPC   C3B31293  17.257  23.698   8.056
 2197POPC   C4B31294  17.477  23.787   7.679
 2198POPC   NC331295  33.555  40.608   9.795
 2198POPC   PO431296  34.030  40.955   9.500
 2198POPC   GL131297  33.909  40.763   9.141
 2198POPC   GL231298  33.545  40.829   9.087
 2198POPC   C1A31299  33.920  40.867   8.714
 2198POPC   D2A31300  33.810  40.768   8.303
 2198POPC   C3A31301  34.007  40.905   7.930
 2198POPC   C4A31302  33.932  40.645   7.570
 2198POPC   C1B31303  33.465  40.584   8.685
 2198POPC   C2B31304  33.330  40.580   8.248
 2198POPC   C3B31305  33.515  40.757   7.877
 2198POPC   C4B31306  33.632  41.074   7.616
 2199POPC   NC331307   1.332  14.685   9.548
 2199POPC   PO431308   1.197  14.019   9.532
 2199POPC   GL131309   1.198  14.328   9.209
 2199POPC   GL231310   1.542  14.313   9.204
 2199POPC   C1A31311   1.283  14.499   8.775
 2199POPC   D2A31312   1.457  14.464   8.352
 2199POPC   C3A31313   1.178  14.487   7.934
 2199POPC   C4A31314   1.099  14.212   7.556
 2199POPC   C1B31315   1.393  14.008   8.874
 2199POPC   C2B31316   1.362  13.910   8.429
 2199POPC   C3B31317   1.410  14.058   8.030
 2199POPC   C4B31318   1.493  13.921   7.662
 2200POPC   NC331319  16.239  21.541   9.888
 2200POPC   PO431320  15.851  21.291   9.376
 2200POPC   GL131321  15.927  21.488   9.082
 2200POPC   GL231322  16.237  21.611   9.176
 2200POPC   C1A31323  15.681  21.547   8.745
 2200POPC   D2A31324  15.868  21.546   8.369
 2200POPC   C3A31325  15.673  21.675   8.022
 2200POPC   C4A31326  15.695  21.404   7.702
 2200POPC   C1B31327  16.250  21.524   8.715
 2200POPC   C2B31328  16.308  21.254   8.371
 2200POPC   C3B31329  16.147  21.371   7.965
 2200POPC   C4B31330  16.179  21.823   7.887
 2201POPC   NC331331   9.737  24.142   9.379
 2201POPC   PO431332   9.804  24.785   9.551
 2201POPC   GL131333   9.621  24.606   9.189
 2201POPC   GL231334   9.900  24.477   9.042
 2201POPC   C1A31335   9.384  24.453   8.849
 2201POPC   D2A31336   9.297  24.647   8.446
 2201POPC   C3A31337   9.406  24.421   8.094
 2201POPC   C4A31338   9.676  24.485   7.793
 2201POPC   C1B31339   9.836  24.245   8.690
 2201POPC   C2B31340   9.877  24.433   8.298
 2201POPC   C3B31341  10.134  24.473   7.957
 2201POPC   C4B31342  10.145  24.189   7.559
 2202POPC   NC331343   8.527   0.509   9.862
 2202POPC   PO431344   8.165   0.026   9.566
 2202POPC   GL131345   8.046   0.260   9.140
 2202POPC   GL231346   8.036   0.630   9.152
 2202POPC   C1A31347   8.214   0.365   8.744
 2202POPC   D2A31348   8.121   0.379   8.314
 2202POPC   C3A31349   8.399   0.491   8.001
 2202POPC   C4A31350   8.283   0.414   7.605
 2202POPC   C1B31351   8.055   0.849   8.726
 2202POPC   C2B31352   8.200   0.894   8.275
 2202POPC   C3B31353   8.008   0.793   7.866
 2202POPC   C4B31354   8.045   0.844   7.391
 2203POPC   NC331355   0.685   1.192   9.525
 2203POPC   PO431356   0.028   1.393   9.444
 2203POPC   GL131357   0.341   1.243   9.166
 2203POPC   GL231358   0.281   1.511   8.998
 2203POPC   C1A31359   0.513   1.101   8.756
 2203POPC   D2A31360   0.481   0.948   8.308
 2203POPC   C3A31361   0.138   1.032   7.972
 2203POPC   C4A31362   0.224   1.030   7.498
 2203POPC   C1B31363   0.602   1.613   8.717
 2203POPC   C2B31364   0.685   1.429   8.349
 2203POPC   C3B31365   0.527   1.351   7.939
 2203POPC   C4B31366   0.548   1.430   7.490
 2204POPC   NC331367  11.959   0.469   9.516
 2204POPC   PO431368  12.519   0.029   9.689
 2204POPC   GL131369  12.265   0.097   9.224
 2204POPC   GL231370  12.224   0.479   9.077
 2204POPC   C1A31371  12.358   0.122   8.756
 2204POPC   D2A31372  12.329   0.500   8.506
 2204POPC   C3A31373  12.355   0.365   8.110
 2204POPC   C4A31374  12.270   0.114   7.755
 2204POPC   C1B31375  11.873   0.489   8.779
 2204POPC   C2B31376  11.776   0.618   8.352
 2204POPC   C3B31377  11.979   0.634   7.927
 2204POPC   C4B31378  12.365   0.582   7.633
 2205POPC   NC331379  26.254  20.223   9.315
 2205POPC   PO431380  25.697  20.598   9.476
 2205POPC   GL131381  25.815  20.371   9.109
 2205POPC   GL231382  25.998  20.691   9.063
 2205POPC   C1A31383  26.062  20.367   8.699
 2205POPC   D2A31384  26.300  20.276   8.345
 2205POPC   C3A31385  26.096  20.405   7.984
 2205POPC   C4A31386  25.989  20.153   7.588
 2205POPC   C1B31387  26.215  20.860   8.685
 2205POPC   C2B31388  26.089  21.080   8.325
 2205POPC   C3B31389  26.021  20.941   7.922
 2205POPC   C4B31390  26.136  20.642   7.554
 2206POPC   NC331391  40.534  44.636   9.409
 2206POPC   PO431392  41.144  44.362   9.491
 2206POPC   GL131393  40.912  44.392   9.108
 2206POPC   GL231394  40.642  44.185   9.189
 2206POPC   C1A31395  40.860  44.744   8.781
 2206POPC   D2A31396  40.897   0.002   8.382
 2206POPC   C3A31397  40.831  44.812   7.975
 2206POPC   C4A31398  40.842  44.984   7.546
 2206POPC   C1B31399  40.504  44.359   8.782
 2206POPC   C2B31400  40.648  44.482   8.380
 2206POPC   C3B31401  40.443  44.443   7.993
 2206POPC   C4B31402  40.465  44.653   7.607
 2207POPC   NC331403  38.899  32.506   9.606
 2207POPC   PO431404  39.696  32.494   9.469
 2207POPC   GL131405  39.325  32.374   9.293
 2207POPC   GL231406  39.381  32.671   9.116
 2207POPC   C1A31407  39.273  32.157   8.896
 2207POPC   D2A31408  39.456  32.199   8.484
 2207POPC   C3A31409  39.155  32.129   8.170
 2207POPC   C4A31410  39.148  32.273   7.747
 2207POPC   C1B31411  39.019  32.613   8.904
 2207POPC   C2B31412  38.922  32.408   8.530
 2207POPC   C3B31413  38.795  32.494   8.100
 2207POPC   C4B31414  38.638  32.473   7.688
 2208POPC   NC331415  27.600  10.810   9.559
 2208POPC   PO431416  27.750  10.128   9.644
 2208POPC   GL131417  27.771  10.474   9.230
 2208POPC   GL231418  27.818  10.813   9.107
 2208POPC   C1A31419  27.462  10.602   8.821
 2208POPC   D2A31420  27.589  10.508   8.362
 2208POPC   C3A31421  27.356  10.527   7.954
 2208POPC   C4A31422  27.231  10.265   7.605
 2208POPC   C1B31423  27.953  10.640   8.704
 2208POPC   C2B31424  28.133  10.705   8.291
 2208POPC   C3B31425  27.915  10.550   7.961
 2208POPC   C4B31426  27.763  10.528   7.596
 2209POPC   NC331427  37.364  11.761   9.646
 2209POPC   PO431428  37.844  11.257   9.489
 2209POPC   GL131429  37.615  11.495   9.182
 2209POPC   GL231430  37.248  11.515   9.189
 2209POPC   C1A31431  37.726  11.328   8.775
 2209POPC   D2A31432  37.856  11.161   8.394
 2209POPC   C3A31433  37.726  11.469   8.115
 2209POPC   C4A31434  37.693  11.644   7.749
 2209POPC   C1B31435  37.226  11.445   8.720
 2209POPC   C2B31436  37.329  11.223   8.314
 2209POPC   C3B31437  37.530  11.024   7.947
 2209POPC   C4B31438  37.286  11.010   7.619
 2210POPC   NC331439  10.009  11.837   9.712
 2210POPC   PO431440   9.553  12.141   9.417
 2210POPC   GL131441   9.846  12.002   9.137
 2210POPC   GL231442   9.563  11.785   9.016
 2210POPC   C1A31443   9.982  12.049   8.704
 2210POPC   D2A31444   9.827  11.913   8.292
 2210POPC   C3A31445   9.983  12.186   7.972
 2210POPC   C4A31446  10.122  12.419   7.611
 2210POPC   C1B31447   9.488  12.159   8.734
 2210POPC   C2B31448   9.512  12.325   8.307
 2210POPC   C3B31449   9.466  12.088   7.919
 2210POPC   C4B31450   9.680  12.096   7.520
 2211POPC   NC331451  16.605   0.063   9.597
 2211POPC   PO431452  16.826   0.604   9.323
 2211POPC   GL131453  16.871   0.215   9.168
 2211POPC   GL231454  16.529   0.077   9.086
 2211POPC   C1A31455  16.949   0.180   8.745
 2211POPC   D2A31456  16.713   0.191   8.358
 2211POPC   C3A31457  16.935   0.226   7.963
 2211POPC   C4A31458  16.881   0.070   7.538
 2211POPC   C1B31459  16.436   0.377   8.799
 2211POPC   C2B31460  16.327   0.548   8.402
 2211POPC   C3B31461  16.295   0.327   8.047
 2211POPC   C4B31462  16.507   0.362   7.682
 2212POPC   NC331463  29.806   9.942   9.474
 2212POPC   PO431464  30.435   9.507   9.487
 2212POPC   GL131465  30.085   9.625   9.149
 2212POPC   GL231466  30.035  10.030   9.030
 2212POPC   C1A31467  29.936   9.665   8.712
 2212POPC   D2A31468  30.061   9.918   8.348
 2212POPC   C3A31469  29.891   9.721   7.972
 2212POPC   C4A31470  29.720   9.487   7.590
 2212POPC   C1B31471  29.623  10.065   8.820
 2212POPC   C2B31472  29.556  10.032   8.377
 2212POPC   C3B31473  29.695  10.189   7.965
 2212POPC   C4B31474  29.816  10.018   7.548
 2213POPC   NC331475  29.724  42.874   9.545
 2213POPC   PO431476  30.381  42.861   9.376
 2213POPC   GL131477  30.000  43.062   9.150
 2213POPC   GL231478  29.854  43.428   9.151
 2213POPC   C1A31479  29.923  43.055   8.710
 2213POPC   D2A31480  30.242  43.047   8.364
 2213POPC   C3A31481  30.053  43.087   7.953
 2213POPC   C4A31482  29.708  43.068   7.694
 2213POPC   C1B31483  30.009  43.551   8.726
 2213POPC   C2B31484  29.879  43.400   8.302
 2213POPC   C3B31485  29.753  43.539   7.869
 2213POPC   C4B31486  29.603  43.454   7.392
 2214POPC   NC331487  12.927  41.304   9.568
 2214POPC   PO431488  12.778  40.606   9.580
 2214POPC   GL131489  12.702  40.962   9.226
 2214POPC   GL231490  12.397  41.195   9.246
 2214POPC   C1A31491  12.848  41.137   8.778
 2214POPC   D2A31492  13.085  41.237   8.351
 2214POPC   C3A31493  13.072  41.010   7.936
 2214POPC   C4A31494  12.927  40.904   7.501
 2214POPC   C1B31495  12.358  40.975   8.831
 2214POPC   C2B31496  12.421  40.913   8.391
 2214POPC   C3B31497  12.558  41.016   7.979
 2214POPC   C4B31498  12.502  40.670   7.677
 2215POPC   NC331499  10.789  22.626   9.667
 2215POPC   PO431500  10.428  23.201   9.789
 2215POPC   GL131501  10.528  23.086   9.308
 2215POPC   GL231502  10.719  23.358   9.108
 2215POPC   C1A31503  10.500  22.859   8.876
 2215POPC   D2A31504  10.390  22.842   8.428
 2215POPC   C3A31505  10.725  22.815   8.100
 2215POPC   C4A31506  10.680  22.775   7.646
 2215POPC   C1B31507  10.641  23.295   8.646
 2215POPC   C2B31508  10.833  23.319   8.237
 2215POPC   C3B31509  10.653  23.282   7.870
 2215POPC   C4B31510  10.242  23.180   7.801
 2216POPC   NC331511   6.421  17.110   9.335
 2216POPC   PO431512   7.092  17.315   9.493
 2216POPC   GL131513   6.740  17.495   9.236
 2216POPC   GL231514   6.988  17.558   9.031
 2216POPC   C1A31515   6.522  17.697   8.828
 2216POPC   D2A31516   6.619  17.591   8.383
 2216POPC   C3A31517   6.538  17.791   7.992
 2216POPC   C4A31518   6.622  17.589   7.581
 2216POPC   C1B31519   6.790  17.269   8.746
 2216POPC   C2B31520   6.817  17.085   8.357
 2216POPC   C3B31521   6.769  17.285   7.967
 2216POPC   C4B31522   7.045  17.295   7.608
 2217POPC   NC331523   5.093  34.954   9.667
 2217POPC   PO431524   5.282  34.347   9.543
 2217POPC   GL131525   5.048  34.585   9.207
 2217POPC   GL231526   5.031  34.274   9.052
 2217POPC   C1A31527   4.934  34.655   8.742
 2217POPC   D2A31528   5.219  34.632   8.377
 2217POPC   C3A31529   4.993  34.585   7.978
 2217POPC   C4A31530   4.677  34.763   7.731
 2217POPC   C1B31531   5.206  34.204   8.682
 2217POPC   C2B31532   4.971  34.158   8.336
 2217POPC   C3B31533   4.998  34.075   7.955
 2217POPC   C4B31534   5.340  34.299   7.741
 2218POPC   NC331535  11.559  22.265   9.454
 2218POPC   PO431536  11.017  21.867   9.670
 2218POPC   GL131537  11.183  21.852   9.240
 2218POPC   GL231538  11.321  22.133   9.030
 2218POPC   C1A31539  11.053  21.766   8.808
 2218POPC   D2A31540  11.119  21.634   8.384
 2218POPC   C3A31541  11.375  21.967   8.206
 2218POPC   C4A31542  11.200  22.115   7.842
 2218POPC   C1B31543  10.896  22.266   8.895
 2218POPC   C2B31544  10.851  22.557   8.555
 2218POPC   C3B31545  11.139  22.516   8.216
 2218POPC   C4B31546  11.124  22.606   7.792
 2219POPC   NC331547  15.572  19.161   9.539
 2219POPC   PO431548  16.247  18.918   9.536
 2219POPC   GL131549  16.263  19.143   9.174
 2219POPC   GL231550  15.919  19.256   9.161
 2219POPC   C1A31551  16.328  19.323   8.775
 2219POPC   D2A31552  16.013  19.369   8.455
 2219POPC   C3A31553  16.179  19.381   8.031
 2219POPC   C4A31554  16.054  19.239   7.593
 2219POPC   C1B31555  15.977  18.967   8.794
 2219POPC   C2B31556  15.847  18.837   8.402
 2219POPC   C3B31557  15.667  18.779   8.012
 2219POPC   C4B31558  15.896  18.754   7.643
 2220POPC   NC331559   8.898  18.270   9.574
 2220POPC   PO431560   9.318  17.737   9.498
 2220POPC   GL131561   9.061  17.976   9.201
 2220POPC   GL231562   9.115  18.379   9.112
 2220POPC   C1A31563   8.823  18.045   8.857
 2220POPC   D2A31564   8.960  18.330   8.556
 2220POPC   C3A31565   8.995  18.224   8.136
 2220POPC   C4A31566   8.775  18.306   7.781
 2220POPC   C1B31567   9.296  18.658   8.764
 2220POPC   C2B31568   9.178  18.757   8.333
 2220POPC   C3B31569   9.124  18.674   7.915
 2220POPC   C4B31570   9.324  18.384   7.660
 2221POPC   NC331571  42.406  44.446   9.330
 2221POPC   PO431572  41.953  44.861   9.635
 2221POPC   GL131573  42.146  44.913   9.181
 2221POPC   GL231574  42.532  44.929   9.138
 2221POPC   C1A31575  42.236  44.730   8.727
 2221POPC   D2A31576  42.203  44.404   8.374
 2221POPC   C3A31577  41.995  44.433   7.963
 2221POPC   C4A31578  42.050  44.395   7.500
 2221POPC   C1B31579  42.746  44.736   8.760
 2221POPC   C2B31580  42.583  44.755   8.347
 2221POPC   C3B31581  42.528  44.583   7.945
 2221POPC   C4B31582  42.617  44.834   7.590
 2222POPC   NC331583   8.047  42.823   9.345
 2222POPC   PO431584   8.340  43.421   9.505
 2222POPC   GL131585   8.074  43.464   9.118
 2222POPC   GL231586   8.194  43.179   9.008
 2222POPC   C1A31587   7.947  43.517   8.662
 2222POPC   D2A31588   8.174  43.493   8.254
 2222POPC   C3A31589   7.977  43.366   7.854
 2222POPC   C4A31590   7.648  43.109   7.757
 2222POPC   C1B31591   8.354  43.171   8.617
 2222POPC   C2B31592   8.399  42.867   8.295
 2222POPC   C3B31593   8.070  42.817   8.007
 2222POPC   C4B31594   8.097  42.905   7.589
 2223POPC   NC331595   7.622   2.992   9.384
 2223POPC   PO431596   8.264   2.800   9.409
 2223POPC   GL131597   8.013   2.835   9.064
 2223POPC   GL231598   8.034   3.188   9.029
 2223POPC   C1A31599   8.135   2.865   8.639
 2223POPC   D2A31600   8.458   3.117   8.465
 2223POPC   C3A31601   8.464   3.049   8.023
 2223POPC   C4A31602   8.199   2.691   7.871
 2223POPC   C1B31603   7.709   3.156   8.772
 2223POPC   C2B31604   7.620   2.821   8.564
 2223POPC   C3B31605   7.808   2.727   8.211
 2223POPC   C4B31606   7.742   3.057   7.914
 2224POPC   NC331607  36.576   2.369   9.322
 2224POPC   PO431608  36.949   2.997   9.453
 2224POPC   GL131609  36.828   2.873   9.058
 2224POPC   GL231610  36.533   3.054   9.028
 2224POPC   C1A31611  37.056   2.917   8.646
 2224POPC   D2A31612  37.131   3.147   8.257
 2224POPC   C3A31613  37.088   2.939   7.885
 2224POPC   C4A31614  37.080   2.482   7.804
 2224POPC   C1B31615  36.558   2.841   8.624
 2224POPC   C2B31616  36.684   2.829   8.184
 2224POPC   C3B31617  36.604   2.645   7.795
 2224POPC   C4B31618  36.577   2.557   7.356
 2225POPC   NC331619  27.531   3.324   9.540
 2225POPC   PO431620  27.846   3.872   9.476
 2225POPC   GL131621  27.780   3.568   9.164
 2225POPC   GL231622  28.047   3.323   9.246
 2225POPC   C1A31623  27.476   3.454   8.835
 2225POPC   D2A31624  27.382   3.659   8.422
 2225POPC   C3A31625  27.616   3.638   8.053
 2225POPC   C4A31626  27.518   3.409   7.720
 2225POPC   C1B31627  27.879   3.154   8.870
 2225POPC   C2B31628  27.809   3.361   8.457
 2225POPC   C3B31629  27.787   3.163   8.052
 2225POPC   C4B31630  27.923   3.048   7.637
 2226POPC   NC331631  11.723  16.035   9.422
 2226POPC   PO431632  12.397  16.033   9.540
 2226POPC   GL131633  12.287  15.722   9.198
 2226POPC   GL231634  12.035  15.926   9.034
 2226POPC   C1A31635  12.386  15.777   8.707
 2226POPC   D2A31636  12.118  15.993   8.389
 2226POPC   C3A31637  12.237  15.898   7.948
 2226POPC   C4A31638  12.092  15.703   7.573
 2226POPC   C1B31639  11.741  16.199   8.798
 2226POPC   C2B31640  11.714  16.349   8.395
 2226POPC   C3B31641  11.773  16.179   8.000
 2226POPC   C4B31642  11.959  16.189   7.583
 2227POPC   NC331643   8.782  27.366   9.394
 2227POPC   PO431644   9.200  27.898   9.576
 2227POPC   GL131645   9.162  27.795   9.177
 2227POPC   GL231646   8.826  27.795   9.100
 2227POPC   C1A31647   9.159  27.509   8.836
 2227POPC   D2A31648   8.857  27.498   8.517
 2227POPC   C3A31649   9.029  27.448   8.137
 2227POPC   C4A31650   8.995  27.503   7.729
 2227POPC   C1B31651   8.504  27.744   8.793
 2227POPC   C2B31652   8.423  27.776   8.360
 2227POPC   C3B31653   8.605  27.749   7.952
 2227POPC   C4B31654   8.662  27.778   7.473
 2228POPC   NC331655   0.760  16.661   9.588
 2228POPC   PO431656   0.338  17.139   9.608
 2228POPC   GL131657   0.370  16.822   9.265
 2228POPC   GL231658   0.032  16.960   9.218
 2228POPC   C1A31659   0.529  16.728   8.792
 2228POPC   D2A31660   0.502  16.868   8.289
 2228POPC   C3A31661   0.744  16.660   7.922
 2228POPC   C4A31662   0.766  16.637   7.428
 2228POPC   C1B31663   0.090  17.052   8.782
 2228POPC   C2B31664   0.052  17.088   8.325
 2228POPC   C3B31665   0.105  16.816   7.920
 2228POPC   C4B31666   0.217  16.642   7.466
 2229POPC   NC331667  26.315  34.967   9.380
 2229POPC   PO431668  26.286  34.223   9.530
 2229POPC   GL131669  26.164  34.503   9.176
 2229POPC   GL231670  25.795  34.518   9.101
 2229POPC   C1A31671  26.443  34.659   8.803
 2229POPC   D2A31672  26.432  34.802   8.390
 2229POPC   C3A31673  26.410  34.566   8.016
 2229POPC   C4A31674  26.224  34.884   7.797
 2229POPC   C1B31675  25.984  34.468   8.680
 2229POPC   C2B31676  25.987  34.298   8.257
 2229POPC   C3B31677  25.871  34.465   7.863
 2229POPC   C4B31678  25.709  34.326   7.472
 2230POPC   NC331679  37.812   0.309   9.451
 2230POPC   PO431680  37.338   0.712   9.192
 2230POPC   GL131681  37.676   0.578   9.038
 2230POPC   GL231682  37.538   0.248   9.002
 2230POPC   C1A31683  37.832   0.476   8.658
 2230POPC   D2A31684  37.876   0.192   8.387
 2230POPC   C3A31685  37.637   0.345   8.106
 2230POPC   C4A31686  37.761   0.372   7.722
 2230POPC   C1B31687  37.348   0.256   8.606
 2230POPC   C2B31688  37.258   0.043   8.237
 2230POPC   C3B31689  37.435  44.972   7.808
 2230POPC   C4B31690  37.621   0.062   7.370
 2231POPC   NC331691  17.088  18.133   9.589
 2231POPC   PO431692  17.459  18.741   9.581
 2231POPC   GL131693  17.508  18.623   9.143
 2231POPC   GL231694  17.360  18.298   9.132
 2231POPC   C1A31695  17.433  18.557   8.713
 2231POPC   D2A31696  17.480  18.281   8.386
 2231POPC   C3A31697  17.566  18.537   8.096
 2231POPC   C4A31698  17.591  18.638   7.703
 2231POPC   C1B31699  17.135  18.126   8.747
 2231POPC   C2B31700  17.157  17.892   8.352
 2231POPC   C3B31701  17.383  17.994   7.957
 2231POPC   C4B31702  17.309  18.224   7.583
 2232POPC   NC331703  38.929  39.519   9.355
 2232POPC   PO431704  38.482  40.025   9.552
 2232POPC   GL131705  38.507  39.883   9.179
 2232POPC   GL231706  38.237  40.099   9.089
 2232POPC   C1A31707  38.583  39.881   8.759
 2232POPC   D2A31708  38.507  40.173   8.439
 2232POPC   C3A31709  38.440  39.940   8.100
 2232POPC   C4A31710  38.309  39.784   7.734
 2232POPC   C1B31711  38.048  40.184   8.705
 2232POPC   C2B31712  38.033  40.370   8.306
 2232POPC   C3B31713  37.970  40.137   7.928
 2232POPC   C4B31714  38.025  40.165   7.495
 2233POPC   NC331715   7.957  18.460   9.347
 2233POPC   PO431716   8.448  18.054   9.521
 2233POPC   GL131717   8.364  18.234   9.088
 2233POPC   GL231718   8.017  18.257   8.902
 2233POPC   C1A31719   8.447  18.379   8.654
 2233POPC   D2A31720   8.160  18.527   8.341
 2233POPC   C3A31721   8.261  18.457   7.890
 2233POPC   C4A31722   8.044  18.406   7.467
 2233POPC   C1B31723   7.898  18.092   8.534
 2233POPC   C2B31724   8.137  18.015   8.185
 2233POPC   C3B31725   7.994  18.034   7.790
 2233POPC   C4B31726   7.702  17.986   7.470
 2234POPC   NC331727  37.027   1.865   9.590
 2234POPC   PO431728  36.987   2.377   9.117
 2234POPC   GL131729  36.997   1.944   9.068
 2234POPC   GL231730  36.686   1.968   8.923
 2234POPC   C1A31731  37.213   1.749   8.710
 2234POPC   D2A31732  37.219   2.013   8.332
 2234POPC   C3A31733  37.202   1.790   7.937
 2234POPC   C4A31734  37.153   2.020   7.549
 2234POPC   C1B31735  36.513   2.302   8.673
 2234POPC   C2B31736  36.830   2.388   8.391
 2234POPC   C3B31737  36.805   2.124   8.049
 2234POPC   C4B31738  36.686   2.168   7.653
 2235POPC   NC331739   3.424  13.976   9.541
 2235POPC   PO431740   3.837  13.575   9.919
 2235POPC   GL131741   3.743  13.573   9.362
 2235POPC   GL231742   3.475  13.794   9.076
 2235POPC   C1A31743   3.852  13.585   8.870
 2235POPC   D2A31744   3.539  13.808   8.547
 2235POPC   C3A31745   3.463  13.657   8.096
 2235POPC   C4A31746   3.607  13.732   7.637
 2235POPC   C1B31747   3.151  13.547   8.792
 2235POPC   C2B31748   3.112  13.302   8.417
 2235POPC   C3B31749   3.018  13.429   8.036
 2235POPC   C4B31750   3.231  13.394   7.695
 2236POPC   NC331751   5.377  18.610   9.395
 2236POPC   PO431752   6.018  18.385   9.442
 2236POPC   GL131753   5.864  18.519   9.105
 2236POPC   GL231754   6.177  18.629   8.951
 2236POPC   C1A31755   5.653  18.327   8.772
 2236POPC   D2A31756   5.842  18.275   8.373
 2236POPC   C3A31757   5.561  18.109   8.055
 2236POPC   C4A31758   5.739  18.095   7.658
 2236POPC   C1B31759   6.144  18.169   8.824
 2236POPC   C2B31760   6.268  17.967   8.440
 2236POPC   C3B31761   6.056  17.939   8.042
 2236POPC   C4B31762   6.181  18.272   7.803
 2237POPC   NC331763   1.778  24.994   9.537
 2237POPC   PO431764   1.983  25.646   9.501
 2237POPC   GL131765   1.909  25.335   9.188
 2237POPC   GL231766   2.229  25.166   9.117
 2237POPC   C1A31767   1.740  25.263   8.789
 2237POPC   D2A31768   2.007  25.401   8.445
 2237POPC   C3A31769   1.885  25.311   8.045
 2237POPC   C4A31770   1.806  25.391   7.629
 2237POPC   C1B31771   2.207  24.961   8.697
 2237POPC   C2B31772   2.123  24.895   8.256
 2237POPC   C3B31773   2.317  25.089   7.866
 2237POPC   C4B31774   2.287  25.540   7.798
 2238POPC   NC331775  32.239  15.906   9.765
 2238POPC   PO431776  32.879  15.937   9.511
 2238POPC   GL131777  32.445  15.970   9.300
 2238POPC   GL231778  32.120  15.747   9.277
 2238POPC   C1A31779  32.229  16.130   8.937
 2238POPC   D2A31780  32.120  16.086   8.520
 2238POPC   C3A31781  31.968  16.253   8.156
 2238POPC   C4A31782  32.174  16.096   7.807
 2238POPC   C1B31783  32.225  15.644   8.818
 2238POPC   C2B31784  31.949  15.624   8.409
 2238POPC   C3B31785  32.006  15.589   7.953
 2238POPC   C4B31786  31.992  15.718   7.507
 2239POPC   NC331787  39.013  11.523   9.515
 2239POPC   PO431788  39.445  11.029   9.566
 2239POPC   GL131789  39.359  11.345   9.205
 2239POPC   GL231790  39.038  11.175   9.127
 2239POPC   C1A31791  39.202  11.456   8.742
 2239POPC   D2A31792  39.174  11.344   8.272
 2239POPC   C3A31793  39.511  11.503   7.956
 2239POPC   C4A31794  39.528  11.602   7.486
 2239POPC   C1B31795  39.065  10.903   8.752
 2239POPC   C2B31796  39.012  10.780   8.308
 2239POPC   C3B31797  39.276  10.907   7.997
 2239POPC   C4B31798  39.135  11.240   7.740
 2240POPC   NC331799  19.076  18.855   9.603
 2240POPC   PO431800  19.362  19.402   9.851
 2240POPC   GL131801  19.234  19.399   9.366
 2240POPC   GL231802  18.977  19.173   9.224
 2240POPC   C1A31803  19.173  19.454   8.868
 2240POPC   D2A31804  19.199  19.222   8.462
 2240POPC   C3A31805  18.978  19.261   8.065
 2240POPC   C4A31806  19.149  19.360   7.652
 2240POPC   C1B31807  18.823  19.049   8.789
 2240POPC   C2B31808  18.880  18.838   8.362
 2240POPC   C3B31809  19.118  18.794   7.962
 2240POPC   C4B31810  18.883  18.935   7.566
 2241POPC   NC331811  29.703   0.285   9.460
 2241POPC   PO431812  29.978   0.802   9.670
 2241POPC   GL131813  30.044   0.579   9.226
 2241POPC   GL231814  29.840   0.274   8.996
 2241POPC   C1A31815  30.047   0.659   8.795
 2241POPC   D2A31816  29.717   0.633   8.485
 2241POPC   C3A31817  29.856   0.700   8.075
 2241POPC   C4A31818  29.765   0.616   7.644
 2241POPC   C1B31819  30.011   0.205   8.577
 2241POPC   C2B31820  30.244   0.398   8.266
 2241POPC   C3B31821  30.125   0.307   7.869
 2241POPC   C4B31822  29.674   0.204   7.930
 2242POPC   NC331823   9.777  17.795   9.535
 2242POPC   PO431824   9.373  18.429   9.591
 2242POPC   GL131825   9.542  18.152   9.256
 2242POPC   GL231826   9.857  18.229   9.102
 2242POPC   C1A31827   9.446  18.121   8.811
 2242POPC   D2A31828   9.460  18.315   8.409
 2242POPC   C3A31829   9.480  18.057   8.063
 2242POPC   C4A31830   9.755  18.075   7.739
 2242POPC   C1B31831   9.968  18.195   8.650
 2242POPC   C2B31832  10.073  18.446   8.250
 2242POPC   C3B31833  10.121  18.440   7.779
 2242POPC   C4B31834  10.197  18.171   7.375
 2243POPC   NC331835  23.210  31.706   9.924
 2243POPC   PO431836  22.697  31.586   9.478
 2243POPC   GL131837  22.784  31.452   9.134
 2243POPC   GL231838  23.074  31.248   9.183
 2243POPC   C1A31839  22.682  31.280   8.781
 2243POPC   D2A31840  22.964  31.272   8.473
 2243POPC   C3A31841  22.754  31.370   8.118
 2243POPC   C4A31842  22.772  31.558   7.724
 2243POPC   C1B31843  23.232  31.597   8.902
 2243POPC   C2B31844  23.399  31.568   8.472
 2243POPC   C3B31845  23.263  31.465   8.048
 2243POPC   C4B31846  23.369  31.349   7.625
 2244POPC   NC331847  31.008   2.332   9.995
 2244POPC   PO431848  30.892   1.948   9.440
 2244POPC   GL131849  30.670   1.914   9.083
 2244POPC   GL231850  30.599   2.291   9.055
 2244POPC   C1A31851  30.551   1.920   8.654
 2244POPC   D2A31852  30.526   2.221   8.333
 2244POPC   C3A31853  30.636   1.956   8.013
 2244POPC   C4A31854  30.782   1.901   7.576
 2244POPC   C1B31855  30.937   2.254   8.737
 2244POPC   C2B31856  31.055   2.143   8.302
 2244POPC   C3B31857  31.060   2.212   7.839
 2244POPC   C4B31858  31.056   2.273   7.343
 2245POPC   NC331859   3.119  37.605   9.523
 2245POPC   PO431860   2.401  37.592   9.516
 2245POPC   GL131861   2.707  37.665   9.221
 2245POPC   GL231862   2.814  37.305   9.183
 2245POPC   C1A31863   2.767  37.875   8.805
 2245POPC   D2A31864   2.666  37.924   8.347
 2245POPC   C3A31865   2.871  37.640   8.060
 2245POPC   C4A31866   3.025  37.670   7.647
 2245POPC   C1B31867   2.487  37.402   8.863
 2245POPC   C2B31868   2.484  37.452   8.430
 2245POPC   C3B31869   2.345  37.586   8.041
 2245POPC   C4B31870   2.544  37.395   7.712
 2246POPC   NC331871  12.743  13.233   9.566
 2246POPC   PO431872  12.918  12.590   9.503
 2246POPC   GL131873  12.776  12.662   9.126
 2246POPC   GL231874  12.548  12.934   9.169
 2246POPC   C1A31875  12.932  12.863   8.752
 2246POPC   D2A31876  13.115  12.991   8.358
 2246POPC   C3A31877  13.136  12.780   7.971
 2246POPC   C4A31878  12.948  13.029   7.658
 2246POPC   C1B31879  12.504  13.219   8.824
 2246POPC   C2B31880  12.512  13.326   8.378
 2246POPC   C3B31881  12.501  13.177   7.949
 2246POPC   C4B31882  12.536  12.779   7.735
 2247POPC   NC331883   2.981  42.591   9.806
 2247POPC   PO431884   2.720  42.031   9.548
 2247POPC   GL131885   2.624  42.267   9.178
 2247POPC   GL231886   2.324  42.147   9.121
 2247POPC   C1A31887   2.872  42.413   8.789
 2247POPC   D2A31888   3.082  42.257   8.429
 2247POPC   C3A31889   3.223  42.509   8.107
 2247POPC   C4A31890   2.896  42.460   7.821
 2247POPC   C1B31891   2.351  42.419   8.747
 2247POPC   C2B31892   2.581  42.416   8.345
 2247POPC   C3B31893   2.593  42.114   8.042
 2247POPC   C4B31894   2.343  41.882   7.737
 2248POPC   NC331895  27.408  31.161   9.435
 2248POPC   PO431896  27.356  30.516   9.521
 2248POPC   GL131897  27.501  30.679   9.157
 2248POPC   GL231898  27.262  30.918   9.004
 2248POPC   C1A31899  27.531  30.448   8.769
 2248POPC   D2A31900  27.410  30.325   8.352
 2248POPC   C3A31901  27.586  30.631   8.089
 2248POPC   C4A31902  27.792  30.640   7.715
 2248POPC   C1B31903  27.656  30.960   8.759
 2248POPC   C2B31904  27.829  31.012   8.335
 2248POPC   C3B31905  27.677  31.137   7.933
 2248POPC   C4B31906  27.634  31.095   7.480
 2249POPC   NC331907   1.774   9.769   9.377
 2249POPC   PO431908   2.419   9.886   9.254
 2249POPC   GL131909   2.458   9.789   8.882
 2249POPC   GL231910   2.319   9.463   8.854
 2249POPC   C1A31911   2.466   9.836   8.459
 2249POPC   D2A31912   2.140   9.648   8.248
 2249POPC   C3A31913   1.923   9.731   7.910
 2249POPC   C4A31914   1.774   9.345   7.722
 2249POPC   C1B31915   1.972   9.764   8.715
 2249POPC   C2B31916   1.678   9.869   8.365
 2249POPC   C3B31917   1.437   9.640   8.026
 2249POPC   C4B31918   1.366   9.593   7.585
 2250POPC   NC331919  32.064  42.047   9.397
 2250POPC   PO431920  32.283  42.692   9.577
 2250POPC   GL131921  32.229  42.494   9.186
 2250POPC   GL231922  31.895  42.531   9.113
 2250POPC   C1A31923  32.399  42.270   8.803
 2250POPC   D2A31924  32.175  42.236   8.396
 2250POPC   C3A31925  32.355  42.227   8.003
 2250POPC   C4A31926  32.238  42.399   7.599
 2250POPC   C1B31927  32.031  42.607   8.735
 2250POPC   C2B31928  32.262  42.767   8.405
 2250POPC   C3B31929  32.187  42.757   7.977
 2250POPC   C4B31930  32.247  42.909   7.532
 2251POPC   NC331931  26.442  19.772   9.754
 2251POPC   PO431932  27.006  19.494   9.565
 2251POPC   GL131933  26.836  19.584   9.180
 2251POPC   GL231934  26.892  19.929   9.111
 2251POPC   C1A31935  26.591  19.635   8.799
 2251POPC   D2A31936  26.431  19.739   8.400
 2251POPC   C3A31937  26.595  19.818   8.036
 2251POPC   C4A31938  26.497  20.172   7.761
 2251POPC   C1B31939  26.922  20.121   8.720
 2251POPC   C2B31940  26.802  20.189   8.309
 2251POPC   C3B31941  26.984  20.153   7.916
 2251POPC   C4B31942  27.305  20.263   7.671
 2252POPC   NC331943  16.816  25.786   9.670
 2252POPC   PO431944  16.771  26.448   9.840
 2252POPC   GL131945  16.867  26.283   9.363
 2252POPC   GL231946  16.929  25.927   9.175
 2252POPC   C1A31947  16.635  26.317   8.937
 2252POPC   D2A31948  16.702  26.395   8.461
 2252POPC   C3A31949  16.484  26.185   8.098
 2252POPC   C4A31950  16.416  26.325   7.668
 2252POPC   C1B31951  17.051  26.079   8.738
 2252POPC   C2B31952  16.962  25.978   8.284
 2252POPC   C3B31953  16.897  25.930   7.837
 2252POPC   C4B31954  16.686  25.677   7.520
 2253POPC   NC331955   6.310   6.790   9.640
 2253POPC   PO431956   6.916   6.799   9.458
 2253POPC   GL131957   6.542   6.637   9.220
 2253POPC   GL231958   6.252   6.883   9.149
 2253POPC   C1A31959   6.553   6.342   8.900
 2253POPC   D2A31960   6.831   6.397   8.550
 2253POPC   C3A31961   6.677   6.544   8.149
 2253POPC   C4A31962   6.384   6.401   7.831
 2253POPC   C1B31963   6.264   6.750   8.732
 2253POPC   C2B31964   6.326   6.905   8.317
 2253POPC   C3B31965   6.315   6.911   7.884
 2253POPC   C4B31966   6.597   6.787   7.551
 2254POPC   NC331967   8.844  33.716   9.322
 2254POPC   PO431968   9.312  34.192   9.277
 2254POPC   GL131969   9.181  33.898   8.973
 2254POPC   GL231970   9.317  33.593   9.155
 2254POPC   C1A31971   8.810  33.811   8.691
 2254POPC   D2A31972   8.591  33.583   8.378
 2254POPC   C3A31973   8.676  33.774   8.000
 2254POPC   C4A31974   9.073  33.837   7.813
 2254POPC   C1B31975   9.426  33.506   8.743
 2254POPC   C2B31976   9.148  33.558   8.401
 2254POPC   C3B31977   8.959  33.340   8.074
 2254POPC   C4B31978   9.218  33.314   7.730
 2255POPC   NC331979  21.583   5.965   9.653
 2255POPC   PO431980  20.957   5.820   9.635
 2255POPC   GL131981  21.245   5.940   9.249
 2255POPC   GL231982  21.523   5.708   9.180
 2255POPC   C1A31983  21.323   6.111   8.810
 2255POPC   D2A31984  21.218   6.346   8.397
 2255POPC   C3A31985  21.192   6.056   8.017
 2255POPC   C4A31986  21.051   5.746   7.675
 2255POPC   C1B31987  21.708   5.702   8.745
 2255POPC   C2B31988  21.608   5.500   8.363
 2255POPC   C3B31989  21.494   5.609   7.933
 2255POPC   C4B31990  21.523   5.437   7.489
 2256POPC   NC331991  21.603  28.984   9.527
 2256POPC   PO431992  21.259  29.530   9.266
 2256POPC   GL131993  21.563  29.301   9.112
 2256POPC   GL231994  21.347  29.011   9.067
 2256POPC   C1A31995  21.569  29.317   8.676
 2256POPC   D2A31996  21.381  29.445   8.337
 2256POPC   C3A31997  21.545  29.336   7.992
 2256POPC   C4A31998  21.325  29.423   7.643
 2256POPC   C1B31999  21.366  28.822   8.659
 2256POPC   C2B32000  21.275  28.953   8.242
 2256POPC   C3B32001  21.419  28.848   7.839
 2256POPC   C4B32002  21.741  28.539   7.800
 2257POPC   NC332003  25.785  12.419   9.481
 2257POPC   PO432004  25.932  11.751   9.480
 2257POPC   GL132005  26.100  11.944   9.117
 2257POPC   GL232006  25.996  12.274   9.037
 2257POPC   C1A32007  26.344  11.935   8.731
 2257POPC   D2A32008  26.230  12.134   8.348
 2257POPC   C3A32009  26.339  11.973   7.989
 2257POPC   C4A32010  26.294  11.963   7.568
 2257POPC   C1B32011  25.820  12.015   8.690
 2257POPC   C2B32012  25.742  12.054   8.240
 2257POPC   C3B32013  25.904  12.182   7.851
 2257POPC   C4B32014  26.035  12.416   7.503
 2258POPC   NC332015  32.532  38.641   9.345
 2258POPC   PO432016  33.215  38.681   9.536
 2258POPC   GL132017  33.173  38.562   9.119
 2258POPC   GL232018  33.062  38.182   9.135
 2258POPC   C1A32019  32.881  38.514   8.796
 2258POPC   D2A32020  32.619  38.601   8.487
 2258POPC   C3A32021  32.738  38.568   8.082
 2258POPC   C4A32022  32.963  38.601   7.716
 2258POPC   C1B32023  32.922  38.008   8.732
 2258POPC   C2B32024  32.982  38.160   8.308
 2258POPC   C3B32025  33.184  38.201   7.905
 2258POPC   C4B32026  33.114  38.182   7.410
 2259POPC   NC332027  27.262  12.350   9.381
 2259POPC   PO432028  27.023  12.975   9.439
 2259POPC   GL132029  27.153  12.921   9.051
 2259POPC   GL232030  26.929  12.690   8.944
 2259POPC   C1A32031  27.125  13.024   8.597
 2259POPC   D2A32032  26.875  12.800   8.266
 2259POPC   C3A32033  26.939  12.859   7.845
 2259POPC   C4A32034  26.963  13.124   7.475
 2259POPC   C1B32035  26.599  12.897   8.675
 2259POPC   C2B32036  26.300  12.879   8.359
 2259POPC   C3B32037  26.397  13.018   7.997
 2259POPC   C4B32038  26.500  12.921   7.589
 2260POPC   NC332039   8.382  20.097   9.650
 2260POPC   PO432040   8.333  20.760   9.554
 2260POPC   GL132041   8.382  20.463   9.240
 2260POPC   GL232042   8.606  20.224   9.216
 2260POPC   C1A32043   8.235  20.417   8.848
 2260POPC   D2A32044   8.060  20.713   8.585
 2260POPC   C3A32045   8.085  20.564   8.170
 2260POPC   C4A32046   8.146  20.737   7.783
 2260POPC   C1B32047   8.628  20.080   8.815
 2260POPC   C2B32048   8.520  19.956   8.415
 2260POPC   C3B32049   8.653  20.112   8.036
 2260POPC   C4B32050   8.562  20.420   7.730
 2261POPC   NC332051   5.900  10.004   9.620
 2261POPC   PO432052   6.253   9.392   9.534
 2261POPC   GL132053   6.011   9.663   9.226
 2261POPC   GL232054   5.707   9.893   9.175
 2261POPC   C1A32055   6.073   9.803   8.814
 2261POPC   D2A32056   6.152   9.608   8.405
 2261POPC   C3A32057   5.871   9.646   8.041
 2261POPC   C4A32058   6.102   9.590   7.635
 2261POPC   C1B32059   5.583   9.989   8.789
 2261POPC   C2B32060   5.838  10.044   8.438
 2261POPC   C3B32061   5.858  10.155   8.052
 2261POPC   C4B32062   5.534   9.982   7.783
 2262POPC   NC332063  44.221   4.436   9.636
 2262POPC   PO432064  44.131   3.773   9.430
 2262POPC   GL132065  43.952   4.109   9.184
 2262POPC   GL232066  44.126   4.446   9.127
 2262POPC   C1A32067  43.838   4.220   8.763
 2262POPC   D2A32068  44.101   4.323   8.417
 2262POPC   C3A32069  44.065   4.124   8.040
 2262POPC   C4A32070  43.924   4.231   7.638
 2262POPC   C1B32071  43.946   4.709   8.768
 2262POPC   C2B32072  43.691   4.613   8.378
 2262POPC   C3B32073  43.901   4.615   7.969
 2262POPC   C4B32074  44.069   4.720   7.534
 2263POPC   NC332075  18.305  19.485   9.513
 2263POPC   PO432076  18.561  20.001   9.841
 2263POPC   GL132077  18.299  19.965   9.355
 2263POPC   GL232078  17.974  20.119   9.216
 2263POPC   C1A32079  18.356  19.828   8.849
 2263POPC   D2A32080  18.546  19.794   8.413
 2263POPC   C3A32081  18.383  20.003   8.017
 2263POPC   C4A32082  18.547  20.036   7.587
 2263POPC   C1B32083  17.872  19.962   8.800
 2263POPC   C2B32084  18.033  19.877   8.385
 2263POPC   C3B32085  17.866  19.734   7.989
 2263POPC   C4B32086  17.963  19.931   7.607
 2264POPC   NC332087  33.475  12.336   9.443
 2264POPC   PO432088  33.924  12.845   9.536
 2264POPC   GL132089  34.061  12.852   9.156
 2264POPC   GL232090  33.918  12.509   9.082
 2264POPC   C1A32091  33.969  13.106   8.808
 2264POPC   D2A32092  33.689  12.938   8.505
 2264POPC   C3A32093  33.710  13.054   8.086
 2264POPC   C4A32094  33.621  12.779   7.749
 2264POPC   C1B32095  34.161  12.586   8.729
 2264POPC   C2B32096  34.055  12.575   8.313
 2264POPC   C3B32097  34.130  12.797   7.954
 2264POPC   C4B32098  34.050  12.664   7.536
 2265POPC   NC332099  41.722   0.951   9.584
 2265POPC   PO432100  41.416   0.323   9.539
 2265POPC   GL132101  41.578   0.522   9.170
 2265POPC   GL232102  41.553   0.197   9.069
 2265POPC   C1A32103  41.755   0.506   8.731
 2265POPC   D2A32104  41.552   0.633   8.378
 2265POPC   C3A32105  41.546   0.602   7.952
 2265POPC   C4A32106  41.734   0.396   7.636
 2265POPC   C1B32107  41.308  44.996   8.729
 2265POPC   C2B32108  41.389   0.139   8.308
 2265POPC   C3B32109  41.206   0.196   7.893
 2265POPC   C4B32110  41.365   0.081   7.479
 2266POPC   NC332111  31.081  40.139   9.427
 2266POPC   PO432112  31.558  39.781   9.689
 2266POPC   GL132113  31.467  39.804   9.214
 2266POPC   GL232114  31.286  39.553   9.045
 2266POPC   C1A32115  31.385  40.023   8.826
 2266POPC   D2A32116  31.201  40.144   8.441
 2266POPC   C3A32117  31.508  40.412   8.187
 2266POPC   C4A32118  31.738  40.363   7.768
 2266POPC   C1B32119  31.546  39.502   8.714
 2266POPC   C2B32120  31.434  39.689   8.354
 2266POPC   C3B32121  31.323  39.929   7.997
 2266POPC   C4B32122  31.591  39.860   7.704
 2267POPC   NC332123   2.240  41.947   9.589
 2267POPC   PO432124   1.789  42.503   9.388
 2267POPC   GL132125   1.870  42.355   9.029
 2267POPC   GL232126   1.800  42.060   9.116
 2267POPC   C1A32127   1.929  42.149   8.623
 2267POPC   D2A32128   2.073  42.426   8.291
 2267POPC   C3A32129   2.179  42.364   7.882
 2267POPC   C4A32130   2.089  42.566   7.524
 2267POPC   C1B32131   1.639  41.759   8.866
 2267POPC   C2B32132   1.590  41.755   8.441
 2267POPC   C3B32133   1.487  41.910   8.077
 2267POPC   C4B32134   1.684  42.215   7.820
 2268POPC   NC332135  38.229  16.494   9.430
 2268POPC   PO432136  38.677  16.075   9.624
 2268POPC   GL132137  38.493  16.053   9.195
 2268POPC   GL232138  38.505  15.710   9.076
 2268POPC   C1A32139  38.145  16.122   8.838
 2268POPC   D2A32140  37.966  15.994   8.421
 2268POPC   C3A32141  38.144  15.930   8.023
 2268POPC   C4A32142  38.336  16.292   7.857
 2268POPC   C1B32143  38.535  15.848   8.697
 2268POPC   C2B32144  38.516  16.099   8.355
 2268POPC   C3B32145  38.756  15.995   8.024
 2268POPC   C4B32146  38.551  15.725   7.811
 2269POPC   NC332147  13.149   2.919   9.521
 2269POPC   PO432148  12.876   2.281   9.501
 2269POPC   GL132149  12.911   2.598   9.170
 2269POPC   GL232150  12.705   2.902   9.211
 2269POPC   C1A32151  12.916   2.823   8.753
 2269POPC   D2A32152  12.920   2.676   8.330
 2269POPC   C3A32153  12.980   2.894   7.950
 2269POPC   C4A32154  13.104   2.512   7.787
 2269POPC   C1B32155  12.461   2.625   8.885
 2269POPC   C2B32156  12.421   2.685   8.418
 2269POPC   C3B32157  12.562   2.553   7.977
 2269POPC   C4B32158  12.677   2.655   7.542
 2270POPC   NC332159  39.731   8.395   9.555
 2270POPC   PO432160  39.918   7.727   9.396
 2270POPC   GL132161  39.746   7.983   9.060
 2270POPC   GL232162  39.625   8.331   9.038
 2270POPC   C1A32163  39.766   8.052   8.621
 2270POPC   D2A32164  39.781   7.926   8.205
 2270POPC   C3A32165  39.699   8.156   7.811
 2270POPC   C4A32166  39.814   8.010   7.422
 2270POPC   C1B32167  39.647   8.555   8.635
 2270POPC   C2B32168  39.779   8.470   8.200
 2270POPC   C3B32169  39.826   8.686   7.782
 2270POPC   C4B32170  40.074   8.793   7.389
 2271POPC   NC332171  38.963   9.033   9.486
 2271POPC   PO432172  39.297   8.511   9.384
 2271POPC   GL132173  39.107   8.742   9.071
 2271POPC   GL232174  38.769   8.730   9.111
 2271POPC   C1A32175  39.205   8.812   8.642
 2271POPC   D2A32176  39.339   8.724   8.211
 2271POPC   C3A32177  39.379   9.024   7.855
 2271POPC   C4A32178  39.454   8.968   7.385
 2271POPC   C1B32179  38.699   8.696   8.691
 2271POPC   C2B32180  38.894   8.508   8.352
 2271POPC   C3B32181  38.898   8.675   7.957
 2271POPC   C4B32182  38.982   8.850   7.575
 2272POPC   NC332183   9.251  22.352   9.639
 2272POPC   PO432184   8.824  21.911   9.619
 2272POPC   GL132185   8.921  22.148   9.237
 2272POPC   GL232186   9.276  22.083   9.206
 2272POPC   C1A32187   8.937  22.308   8.769
 2272POPC   D2A32188   8.909  22.408   8.292
 2272POPC   C3A32189   8.795  22.156   7.898
 2272POPC   C4A32190   8.831  22.157   7.408
 2272POPC   C1B32191   9.435  22.024   8.818
 2272POPC   C2B32192   9.536  22.229   8.446
 2272POPC   C3B32193   9.320  22.163   8.076
 2272POPC   C4B32194   9.252  22.313   7.668
 2273POPC   NC332195  12.094  13.228   9.878
 2273POPC   PO432196  12.180  12.571   9.736
 2273POPC   GL132197  12.097  12.710   9.324
 2273POPC   GL232198  12.226  12.505   9.111
 2273POPC   C1A32199  12.097  12.914   8.878
 2273POPC   D2A32200  12.084  13.056   8.454
 2273POPC   C3A32201  11.978  12.904   8.045
 2273POPC   C4A32202  12.127  13.031   7.628
 2273POPC   C1B32203  11.988  12.461   8.707
 2273POPC   C2B32204  12.189  12.391   8.294
 2273POPC   C3B32205  12.143  12.467   7.861
 2273POPC   C4B32206  11.834  12.612   7.595
 2274POPC   NC332207  18.803  31.884   9.419
 2274POPC   PO432208  19.164  31.291   9.476
 2274POPC   GL132209  19.225  31.422   9.072
 2274POPC   GL232210  18.900  31.536   9.036
 2274POPC   C1A32211  19.206  31.358   8.621
 2274POPC   D2A32212  19.151  31.576   8.246
 2274POPC   C3A32213  19.365  31.326   7.968
 2274POPC   C4A32214  19.285  31.159   7.563
 2274POPC   C1B32215  18.779  31.645   8.616
 2274POPC   C2B32216  18.644  31.353   8.287
 2274POPC   C3B32217  18.806  31.411   7.890
 2274POPC   C4B32218  18.864  31.868   7.761
 2275POPC   NC332219  11.351  23.969   9.845
 2275POPC   PO432220  11.182  23.512   9.366
 2275POPC   GL132221  11.173  23.634   8.977
 2275POPC   GL232222  11.169  24.024   8.925
 2275POPC   C1A32223  11.121  23.481   8.620
 2275POPC   D2A32224  11.360  23.475   8.308
 2275POPC   C3A32225  11.225  23.497   7.931
 2275POPC   C4A32226  11.554  23.352   7.684
 2275POPC   C1B32227  11.477  23.874   8.646
 2275POPC   C2B32228  11.652  23.903   8.264
 2275POPC   C3B32229  11.599  23.823   7.857
 2275POPC   C4B32230  11.542  24.092   7.521
 2276POPC   NC332231  22.002   7.497   9.424
 2276POPC   PO432232  22.491   7.048   9.626
 2276POPC   GL132233  22.314   7.187   9.178
 2276POPC   GL232234  22.359   7.495   8.974
 2276POPC   C1A32235  22.026   7.187   8.779
 2276POPC   D2A32236  21.962   7.401   8.365
 2276POPC   C3A32237  22.274   7.283   8.041
 2276POPC   C4A32238  22.255   7.193   7.554
 2276POPC   C1B32239  21.985   7.736   8.792
 2276POPC   C2B32240  21.863   7.944   8.394
 2276POPC   C3B32241  21.852   7.756   7.999
 2276POPC   C4B32242  22.195   7.672   7.738
 2277POPC   NC332243  26.422  14.026   9.584
 2277POPC   PO432244  27.049  14.407   9.500
 2277POPC   GL132245  26.851  14.482   9.132
 2277POPC   GL232246  26.548  14.344   9.210
 2277POPC   C1A32247  26.729  14.333   8.728
 2277POPC   D2A32248  26.823  14.549   8.352
 2277POPC   C3A32249  26.902  14.308   7.997
 2277POPC   C4A32250  26.778  14.535   7.666
 2277POPC   C1B32251  26.385  13.992   8.931
 2277POPC   C2B32252  26.284  13.923   8.502
 2277POPC   C3B32253  26.469  14.036   8.111
 2277POPC   C4B32254  26.401  14.199   7.702
 2278POPC   NC332255  25.081  44.858   9.876
 2278POPC   PO432256  25.496   0.300   9.508
 2278POPC   GL132257  25.579   0.384   9.071
 2278POPC   GL232258  25.357   0.128   8.937
 2278POPC   C1A32259  25.524   0.454   8.587
 2278POPC   D2A32260  25.191   0.445   8.264
 2278POPC   C3A32261  25.271   0.471   7.814
 2278POPC   C4A32262  25.439   0.453   7.389
 2278POPC   C1B32263  24.978   0.250   8.695
 2278POPC   C2B32264  24.854   0.053   8.290
 2278POPC   C3B32265  24.946   0.032   7.842
 2278POPC   C4B32266  24.991   0.208   7.418
 2279POPC   NC332267   9.271  30.201   9.493
 2279POPC   PO432268   8.914  30.768   9.537
 2279POPC   GL132269   9.018  30.589   9.180
 2279POPC   GL232270   9.329  30.793   9.131
 2279POPC   C1A32271   8.783  30.498   8.813
 2279POPC   D2A32272   8.713  30.389   8.386
 2279POPC   C3A32273   8.942  30.651   8.092
 2279POPC   C4A32274   9.137  30.482   7.756
 2279POPC   C1B32275   9.058  30.945   8.787
 2279POPC   C2B32276   9.141  31.068   8.366
 2279POPC   C3B32277   9.287  31.044   7.935
 2279POPC   C4B32278   9.091  30.918   7.520
 2280POPC   NC332279  40.143  17.874   9.478
 2280POPC   PO432280  39.818  17.335   9.679
 2280POPC   GL132281  39.836  17.586   9.229
 2280POPC   GL232282  40.165  17.448   9.192
 2280POPC   C1A32283  39.889  17.543   8.750
 2280POPC   D2A32284  39.701  17.216   8.462
 2280POPC   C3A32285  39.879  17.257   8.042
 2280POPC   C4A32286  39.976  17.618   7.804
 2280POPC   C1B32287  40.416  17.480   8.833
 2280POPC   C2B32288  40.299  17.507   8.394
 2280POPC   C3B32289  40.433  17.665   8.018
 2280POPC   C4B32290  40.447  17.487   7.615
 2281POPC   NC332291   8.943   5.396   9.613
 2281POPC   PO432292   8.715   4.773   9.419
 2281POPC   GL132293   8.935   5.048   9.226
 2281POPC   GL232294   8.713   5.300   9.089
 2281POPC   C1A32295   9.083   4.984   8.850
 2281POPC   D2A32296   8.993   4.843   8.437
 2281POPC   C3A32297   9.169   4.981   8.050
 2281POPC   C4A32298   8.907   4.958   7.680
 2281POPC   C1B32299   8.785   5.335   8.648
 2281POPC   C2B32300   8.825   5.314   8.201
 2281POPC   C3B32301   8.989   5.441   7.809
 2281POPC   C4B32302   9.341   5.476   7.515
 2282POPC   NC332303  39.676   4.076   9.458
 2282POPC   PO432304  39.046   3.954   9.713
 2282POPC   GL132305  39.248   4.350   9.340
 2282POPC   GL232306  39.448   4.214   9.047
 2282POPC   C1A32307  39.107   4.477   8.833
 2282POPC   D2A32308  39.288   4.163   8.504
 2282POPC   C3A32309  39.286   4.277   8.063
 2282POPC   C4A32310  39.098   4.064   7.700
 2282POPC   C1B32311  39.636   4.478   8.740
 2282POPC   C2B32312  39.800   4.562   8.339
 2282POPC   C3B32313  39.661   4.625   7.902
 2282POPC   C4B32314  39.378   4.474   7.589
 2283POPC   NC332315   3.187   8.104   8.993
 2283POPC   PO432316   2.715   8.218   9.423
 2283POPC   GL132317   2.661   8.158   9.023
 2283POPC   GL232318   2.605   7.829   9.073
 2283POPC   C1A32319   2.604   8.323   8.605
 2283POPC   D2A32320   2.655   8.114   8.184
 2283POPC   C3A32321   2.827   8.348   7.831
 2283POPC   C4A32322   3.094   8.390   7.502
 2283POPC   C1B32323   2.691   7.813   8.617
 2283POPC   C2B32324   3.057   7.827   8.370
 2283POPC   C3B32325   3.085   7.913   7.946
 2283POPC   C4B32326   3.104   7.833   7.510
 2284POPC   NC332327   3.098  44.965   9.356
 2284POPC   PO432328   2.511  44.639   9.474
 2284POPC   GL132329   2.685  44.742   9.074
 2284POPC   GL232330   2.588  44.427   8.948
 2284POPC   C1A32331   2.891  44.706   8.667
 2284POPC   D2A32332   2.798  44.924   8.284
 2284POPC   C3A32333   3.027  44.888   7.899
 2284POPC   C4A32334   2.958  44.737   7.453
 2284POPC   C1B32335   2.349  44.557   8.624
 2284POPC   C2B32336   2.331  44.673   8.200
 2284POPC   C3B32337   2.571  44.627   7.813
 2284POPC   C4B32338   2.524  44.457   7.364
 2285POPC   NC332339  17.859  23.363   9.544
 2285POPC   PO432340  17.959  24.051   9.470
 2285POPC   GL132341  18.115  23.650   9.214
 2285POPC   GL232342  18.474  23.628   9.119
 2285POPC   C1A32343  18.112  23.404   8.776
 2285POPC   D2A32344  18.230  23.541   8.393
 2285POPC   C3A32345  18.243  23.416   7.990
 2285POPC   C4A32346  18.570  23.544   7.732
 2285POPC   C1B32347  18.224  23.890   8.795
 2285POPC   C2B32348  18.151  24.040   8.392
 2285POPC   C3B32349  18.352  23.934   8.023
 2285POPC   C4B32350  18.124  23.941   7.684
 2286POPC   NC332351  17.977  25.037   9.846
 2286POPC   PO432352  18.220  25.677  10.003
 2286POPC   GL132353  18.288  25.311   9.529
 2286POPC   GL232354  18.018  25.192   9.342
 2286POPC   C1A32355  18.361  25.374   8.996
 2286POPC   D2A32356  18.453  25.450   8.521
 2286POPC   C3A32357  18.361  25.217   8.111
 2286POPC   C4A32358  18.444  25.294   7.673
 2286POPC   C1B32359  17.914  25.168   8.878
 2286POPC   C2B32360  18.032  25.051   8.464
 2286POPC   C3B32361  17.884  25.086   8.032
 2286POPC   C4B32362  17.794  25.498   7.839
 2287POPC   NC332363   4.743  18.940   9.783
 2287POPC   PO432364   5.316  19.096   9.475
 2287POPC   GL132365   5.135  19.037   9.122
 2287POPC   GL232366   4.794  19.098   9.162
 2287POPC   C1A32367   5.308  19.197   8.747
 2287POPC   D2A32368   5.551  19.184   8.367
 2287POPC   C3A32369   5.421  18.974   8.001
 2287POPC   C4A32370   5.244  18.812   7.618
 2287POPC   C1B32371   4.801  18.921   8.741
 2287POPC   C2B32372   5.049  18.957   8.373
 2287POPC   C3B32373   4.918  18.996   7.984
 2287POPC   C4B32374   4.776  18.665   7.736
 2288POPC   NC332375  44.628   0.086   9.645
 2288POPC   PO432376  44.496   0.746   9.607
 2288POPC   GL132377  44.404   0.417   9.275
 2288POPC   GL232378  44.712   0.218   9.168
 2288POPC   C1A32379  44.385   0.406   8.823
 2288POPC   D2A32380  44.535   0.211   8.465
 2288POPC   C3A32381  44.770   0.433   8.163
 2288POPC   C4A32382  44.639   0.418   7.760
 2288POPC   C1B32383  44.897   0.074   8.791
 2288POPC   C2B32384  44.971  44.947   8.366
 2288POPC   C3B32385   0.112   0.096   7.988
 2288POPC   C4B32386  44.971   0.017   7.614
 2289POPC   NC332387   8.395  13.475   9.440
 2289POPC   PO432388   8.055  14.098   9.464
 2289POPC   GL132389   8.133  13.808   9.130
 2289POPC   GL232390   8.051  13.439   9.063
 2289POPC   C1A32391   8.412  13.784   8.795
 2289POPC   D2A32392   8.196  13.853   8.415
 2289POPC   C3A32393   8.398  13.807   8.035
 2289POPC   C4A32394   8.244  13.782   7.643
 2289POPC   C1B32395   8.209  13.338   8.655
 2289POPC   C2B32396   8.243  13.366   8.216
 2289POPC   C3B32397   8.161  13.294   7.803
 2289POPC   C4B32398   8.212  13.350   7.352
 2290POPC   NC332399  12.691   4.613   9.652
 2290POPC   PO432400  12.803   5.241   9.407
 2290POPC   GL132401  12.808   4.919   9.095
 2290POPC   GL232402  13.111   4.972   9.006
 2290POPC   C1A32403  12.826   4.821   8.619
 2290POPC   D2A32404  12.641   4.928   8.249
 2290POPC   C3A32405  12.729   4.839   7.805
 2290POPC   C4A32406  13.072   4.827   7.494
 2290POPC   C1B32407  12.911   5.306   8.743
 2290POPC   C2B32408  12.954   5.336   8.281
 2290POPC   C3B32409  13.056   5.220   7.847
 2290POPC   C4B32410  13.199   5.388   7.455
 2291POPC   NC332411   8.159  27.309   9.562
 2291POPC   PO432412   8.466  27.823   9.441
 2291POPC   GL132413   8.155  27.623   9.146
 2291POPC   GL232414   8.205  27.279   9.052
 2291POPC   C1A32415   7.993  27.603   8.720
 2291POPC   D2A32416   8.130  27.342   8.388
 2291POPC   C3A32417   8.182  27.480   7.979
 2291POPC   C4A32418   8.505  27.327   7.680
 2291POPC   C1B32419   7.829  27.113   8.801
 2291POPC   C2B32420   7.615  27.269   8.433
 2291POPC   C3B32421   7.544  27.399   8.009
 2291POPC   C4B32422   7.755  27.738   7.820
 2292POPC   NC332423  30.698  39.035   9.489
 2292POPC   PO432424  31.011  39.665   9.440
 2292POPC   GL132425  30.688  39.512   9.169
 2292POPC   GL232426  30.857  39.246   9.065
 2292POPC   C1A32427  30.529  39.434   8.717
 2292POPC   D2A32428  30.491  39.134   8.352
 2292POPC   C3A32429  30.644  39.314   7.999
 2292POPC   C4A32430  30.615  39.312   7.593
 2292POPC   C1B32431  30.624  38.940   8.796
 2292POPC   C2B32432  30.755  38.693   8.417
 2292POPC   C3B32433  30.735  38.805   7.983
 2292POPC   C4B32434  31.037  39.037   7.752
 2293POPC   NC332435  31.071  36.653   9.468
 2293POPC   PO432436  31.558  37.117   9.548
 2293POPC   GL132437  31.530  36.985   9.153
 2293POPC   GL232438  31.515  36.639   9.176
 2293POPC   C1A32439  31.699  37.069   8.735
 2293POPC   D2A32440  31.603  36.934   8.312
 2293POPC   C3A32441  31.561  37.196   7.971
 2293POPC   C4A32442  31.702  37.230   7.583
 2293POPC   C1B32443  31.317  36.702   8.769
 2293POPC   C2B32444  31.357  36.505   8.389
 2293POPC   C3B32445  31.474  36.531   7.964
 2293POPC   C4B32446  31.348  36.830   7.637
 2294POPC   NC332447  40.970  31.409   9.378
 2294POPC   PO432448  40.422  31.806   9.498
 2294POPC   GL132449  40.621  31.685   9.104
 2294POPC   GL232450  40.504  31.334   9.066
 2294POPC   C1A32451  40.756  31.758   8.664
 2294POPC   D2A32452  40.476  31.926   8.314
 2294POPC   C3A32453  40.541  31.686   7.934
 2294POPC   C4A32454  40.958  31.647   7.767
 2294POPC   C1B32455  40.845  31.235   8.762
 2294POPC   C2B32456  40.907  31.015   8.376
 2294POPC   C3B32457  40.863  31.188   7.977
 2294POPC   C4B32458  41.056  31.142   7.594
 2295POPC   NC332459   4.723  44.467   9.283
 2295POPC   PO432460   5.239  44.880   9.434
 2295POPC   GL132461   5.119  44.714   9.072
 2295POPC   GL232462   5.220  44.409   9.181
 2295POPC   C1A32463   4.919  44.570   8.694
 2295POPC   D2A32464   4.954  44.273   8.405
 2295POPC   C3A32465   4.931  44.460   8.015
 2295POPC   C4A32466   4.795  44.754   7.666
 2295POPC   C1B32467   5.357  44.340   8.794
 2295POPC   C2B32468   5.384  44.606   8.433
 2295POPC   C3B32469   5.440  44.470   8.009
 2295POPC   C4B32470   5.219  44.410   7.597
 2296POPC   NC332471  37.373  39.000   9.844
 2296POPC   PO432472  37.746  39.471   9.486
 2296POPC   GL132473  37.803  39.347   9.081
 2296POPC   GL232474  37.444  39.413   9.019
 2296POPC   C1A32475  37.713  39.063   8.734
 2296POPC   D2A32476  37.576  39.137   8.337
 2296POPC   C3A32477  37.735  38.949   7.978
 2296POPC   C4A32478  37.678  39.187   7.633
 2296POPC   C1B32479  37.621  39.576   8.644
 2296POPC   C2B32480  37.400  39.589   8.277
 2296POPC   C3B32481  37.284  39.331   7.955
 2296POPC   C4B32482  37.312  39.576   7.624
 2297POPC   NC332483   5.826  17.933   9.430
 2297POPC   PO432484   6.145  17.401   9.568
 2297POPC   GL132485   6.160  17.499   9.132
 2297POPC   GL232486   6.039  17.179   9.005
 2297POPC   C1A32487   5.978  17.678   8.755
 2297POPC   D2A32488   5.693  17.760   8.409
 2297POPC   C3A32489   5.696  17.539   8.007
 2297POPC   C4A32490   5.774  17.595   7.560
 2297POPC   C1B32491   6.263  17.273   8.632
 2297POPC   C2B32492   6.137  17.493   8.277
 2297POPC   C3B32493   6.185  17.462   7.831
 2297POPC   C4B32494   6.213  17.385   7.365
 2298POPC   NC332495  43.878  18.753   9.467
 2298POPC   PO432496  43.500  19.345   9.424
 2298POPC   GL132497  43.774  19.209   9.105
 2298POPC   GL232498  43.867  19.556   9.026
 2298POPC   C1A32499  43.814  19.007   8.675
 2298POPC   D2A32500  44.084  18.849   8.339
 2298POPC   C3A32501  43.920  18.773   7.955
 2298POPC   C4A32502  44.064  18.846   7.534
 2298POPC   C1B32503  44.034  19.473   8.621
 2298POPC   C2B32504  43.975  19.337   8.208
 2298POPC   C3B32505  43.877  19.238   7.778
 2298POPC   C4B32506  43.799  19.215   7.301
 2299POPC   NC332507   1.420  34.494   9.574
 2299POPC   PO432508   0.832  34.698   9.266
 2299POPC   GL132509   1.236  34.503   9.098
 2299POPC   GL232510   1.572  34.716   9.148
 2299POPC   C1A32511   1.349  34.223   8.751
 2299POPC   D2A32512   1.363  34.160   8.299
 2299POPC   C3A32513   1.147  34.487   8.055
 2299POPC   C4A32514   1.152  34.595   7.616
 2299POPC   C1B32515   1.721  34.567   8.758
 2299POPC   C2B32516   1.611  34.612   8.302
 2299POPC   C3B32517   1.635  34.566   7.851
 2299POPC   C4B32518   1.586  34.852   7.465
 2300POPC   NC332519  35.429  36.630   9.542
 2300POPC   PO432520  35.727  37.159   9.299
 2300POPC   GL132521  35.365  37.061   9.106
 2300POPC   GL232522  35.284  36.710   9.075
 2300POPC   C1A32523  35.148  37.069   8.732
 2300POPC   D2A32524  35.338  36.974   8.378
 2300POPC   C3A32525  35.142  36.993   8.041
 2300POPC   C4A32526  35.385  36.981   7.707
 2300POPC   C1B32527  35.596  36.764   8.754
 2300POPC   C2B32528  35.646  36.509   8.411
 2300POPC   C3B32529  35.518  36.602   8.032
 2300POPC   C4B32530  35.675  36.569   7.628
 2301POPC   NC332531  21.275  21.282   9.502
 2301POPC   PO432532  21.636  21.846   9.518
 2301POPC   GL132533  21.561  21.510   9.157
 2301POPC   GL232534  21.199  21.517   9.056
 2301POPC   C1A32535  21.516  21.261   8.730
 2301POPC   D2A32536  21.665  21.115   8.312
 2301POPC   C3A32537  21.650  21.413   7.972
 2301POPC   C4A32538  21.389  21.678   7.784
 2301POPC   C1B32539  21.224  21.705   8.647
 2301POPC   C2B32540  21.230  21.502   8.259
 2301POPC   C3B32541  21.220  21.136   7.991
 2301POPC   C4B32542  21.230  21.209   7.564
 2302POPC   NC332543  22.107   6.352   9.495
 2302POPC   PO432544  21.943   5.724   9.494
 2302POPC   GL132545  22.036   5.809   9.103
 2302POPC   GL232546  21.850   6.096   9.098
 2302POPC   C1A32547  22.220   5.888   8.701
 2302POPC   D2A32548  22.149   6.074   8.298
 2302POPC   C3A32549  22.390   5.916   7.943
 2302POPC   C4A32550  22.432   5.886   7.491
 2302POPC   C1B32551  21.804   6.203   8.667
 2302POPC   C2B32552  21.639   6.015   8.286
 2302POPC   C3B32553  21.867   5.974   7.895
 2302POPC   C4B32554  21.954   6.173   7.469
 2303POPC   NC332555  21.657  29.707   9.438
 2303POPC   PO432556  21.038  29.807   9.706
 2303POPC   GL132557  21.292  30.065   9.320
 2303POPC   GL232558  21.656  30.167   9.176
 2303POPC   C1A32559  21.295  30.025   8.834
 2303POPC   D2A32560  21.589  29.863   8.488
 2303POPC   C3A32561  21.449  29.859   8.022
 2303POPC   C4A32562  21.127  30.173   7.900
 2303POPC   C1B32563  21.919  30.140   8.764
 2303POPC   C2B32564  21.933  30.175   8.283
 2303POPC   C3B32565  21.690  30.295   7.916
 2303POPC   C4B32566  21.696  30.020   7.560
 2304POPC   NC332567  27.167  19.933   9.543
 2304POPC   PO432568  27.741  19.492   9.527
 2304POPC   GL132569  27.684  19.684   9.156
 2304POPC   GL232570  27.351  19.673   9.158
 2304POPC   C1A32571  27.594  19.929   8.776
 2304POPC   D2A32572  27.345  19.986   8.381
 2304POPC   C3A32573  27.565  19.932   7.981
 2304POPC   C4A32574  27.791  19.695   7.680
 2304POPC   C1B32575  27.140  19.664   8.768
 2304POPC   C2B32576  26.938  19.677   8.394
 2304POPC   C3B32577  27.101  19.675   7.990
 2304POPC   C4B32578  27.280  19.730   7.564
 2305POPC   NC332579  37.257  15.038   9.405
 2305POPC   PO432580  36.598  15.371   9.548
 2305POPC   GL132581  36.848  15.298   9.211
 2305POPC   GL232582  36.766  14.951   9.121
 2305POPC   C1A32583  36.967  15.546   8.867
 2305POPC   D2A32584  36.793  15.651   8.482
 2305POPC   C3A32585  36.847  15.332   8.157
 2305POPC   C4A32586  36.899  15.382   7.701
 2305POPC   C1B32587  37.020  14.775   8.749
 2305POPC   C2B32588  37.138  14.873   8.320
 2305POPC   C3B32589  37.017  14.902   7.883
 2305POPC   C4B32590  36.942  14.851   7.441
 2306POPC   NC332591  31.314   0.291   9.472
 2306POPC   PO432592  31.867   0.650   9.567
 2306POPC   GL132593  31.771   0.668   9.098
 2306POPC   GL232594  31.648   0.352   9.093
 2306POPC   C1A32595  31.711   0.500   8.628
 2306POPC   D2A32596  31.630   0.473   8.190
 2306POPC   C3A32597  31.215   0.490   8.047
 2306POPC   C4A32598  31.113   0.724   7.693
 2306POPC   C1B32599  31.291   0.237   8.802
 2306POPC   C2B32600  31.343   0.096   8.384
 2306POPC   C3B32601  31.502   0.032   7.971
 2306POPC   C4B32602  31.378   0.277   7.610
 2307POPC   NC332603   1.384  35.827   9.498
 2307POPC   PO432604   1.170  36.457   9.736
 2307POPC   GL132605   1.183  36.294   9.280
 2307POPC   GL232606   0.964  36.441   9.020
 2307POPC   C1A32607   1.121  35.955   8.924
 2307POPC   D2A32608   0.961  35.778   8.520
 2307POPC   C3A32609   1.051  35.899   8.084
 2307POPC   C4A32610   1.443  35.971   7.846
 2307POPC   C1B32611   0.887  36.308   8.619
 2307POPC   C2B32612   0.976  36.386   8.212
 2307POPC   C3B32613   0.871  36.377   7.802
 2307POPC   C4B32614   0.992  36.480   7.367
 2308POPC   NC332615   4.825  34.215   9.507
 2308POPC   PO432616   5.243  33.641   9.471
 2308POPC   GL132617   5.085  33.764   9.104
 2308POPC   GL232618   5.387  33.899   9.053
 2308POPC   C1A32619   4.890  33.801   8.700
 2308POPC   D2A32620   4.795  33.555   8.307
 2308POPC   C3A32621   5.011  33.567   7.892
 2308POPC   C4A32622   5.038  33.813   7.496
 2308POPC   C1B32623   5.390  33.636   8.693
 2308POPC   C2B32624   5.283  33.751   8.320
 2308POPC   C3B32625   5.455  33.858   7.961
 2308POPC   C4B32626   5.515  33.641   7.625
 2309POPC   NC332627  38.856   8.300   9.441
 2309POPC   PO432628  39.452   8.082   9.778
 2309POPC   GL132629  39.289   8.027   9.281
 2309POPC   GL232630  39.010   7.898   9.130
 2309POPC   C1A32631  39.152   8.300   8.811
 2309POPC   D2A32632  39.345   8.220   8.395
 2309POPC   C3A32633  39.212   8.259   7.988
 2309POPC   C4A32634  39.350   8.545   7.710
 2309POPC   C1B32635  39.319   7.843   8.790
 2309POPC   C2B32636  39.315   7.706   8.369
 2309POPC   C3B32637  39.391   7.767   7.939
 2309POPC   C4B32638  39.031   7.831   7.743
 2310POPC   NC332639  29.817  26.001   9.625
 2310POPC   PO432640  30.412  25.899   9.478
 2310POPC   GL132641  30.064  25.862   9.171
 2310POPC   GL232642  29.818  26.122   9.143
 2310POPC   C1A32643  30.018  25.939   8.725
 2310POPC   D2A32644  30.203  26.005   8.343
 2310POPC   C3A32645  29.954  25.954   7.993
 2310POPC   C4A32646  30.079  25.917   7.587
 2310POPC   C1B32647  29.720  26.376   8.806
 2310POPC   C2B32648  29.917  26.439   8.388
 2310POPC   C3B32649  29.725  26.428   7.983
 2310POPC   C4B32650  29.744  26.315   7.574
 2311POPC   NC332651   4.048  36.205   9.467
 2311POPC   PO432652   3.391  35.956   9.441
 2311POPC   GL132653   3.716  35.987   9.144
 2311POPC   GL232654   3.795  36.353   9.052
 2311POPC   C1A32655   3.756  35.938   8.725
 2311POPC   D2A32656   3.561  35.861   8.352
 2311POPC   C3A32657   3.644  36.012   7.967
 2311POPC   C4A32658   3.326  36.179   7.721
 2311POPC   C1B32659   3.461  36.370   8.732
 2311POPC   C2B32660   3.446  36.372   8.280
 2311POPC   C3B32661   3.636  36.542   7.913
 2311POPC   C4B32662   3.907  36.322   7.654
 2312POPC   NC332663   5.374  41.031   9.515
 2312POPC   PO432664   4.891  40.477   9.442
 2312POPC   GL132665   5.164  40.676   9.111
 2312POPC   GL232666   5.138  41.010   9.082
 2312POPC   C1A32667   5.334  40.775   8.686
 2312POPC   D2A32668   5.006  40.650   8.420
 2312POPC   C3A32669   5.013  40.820   8.050
 2312POPC   C4A32670   5.288  40.708   7.758
 2312POPC   C1B32671   4.889  41.045   8.713
 2312POPC   C2B32672   4.766  41.218   8.304
 2312POPC   C3B32673   4.739  41.183   7.824
 2312POPC   C4B32674   4.620  41.195   7.353
 2313POPC   NC332675  21.629  20.603   9.459
 2313POPC   PO432676  20.973  20.915   9.498
 2313POPC   GL132677  21.193  20.678   9.186
 2313POPC   GL232678  21.496  20.871   9.051
 2313POPC   C1A32679  21.208  20.530   8.768
 2313POPC   D2A32680  21.249  20.756   8.379
 2313POPC   C3A32681  21.130  20.458   8.071
 2313POPC   C4A32682  21.234  20.696   7.711
 2313POPC   C1B32683  21.694  20.702   8.653
 2313POPC   C2B32684  21.540  20.344   8.374
 2313POPC   C3B32685  21.585  20.307   7.935
 2313POPC   C4B32686  21.932  20.270   7.740
 2314POPC   NC332687   5.470  31.616   9.421
 2314POPC   PO432688   6.074  31.699   9.596
 2314POPC   GL132689   6.053  31.543   9.195
 2314POPC   GL232690   5.798  31.321   9.143
 2314POPC   C1A32691   6.134  31.554   8.785
 2314POPC   D2A32692   5.951  31.482   8.412
 2314POPC   C3A32693   6.122  31.531   8.024
 2314POPC   C4A32694   6.047  31.338   7.631
 2314POPC   C1B32695   5.618  31.588   8.799
 2314POPC   C2B32696   5.459  31.350   8.461
 2314POPC   C3B32697   5.648  31.228   8.065
 2314POPC   C4B32698   5.565  31.444   7.695
 2315POPC   NC332699  42.621   0.758   9.975
 2315POPC   PO432700  43.213   0.536   9.646
 2315POPC   GL132701  43.304   0.654   9.215
 2315POPC   GL232702  43.012   0.487   9.082
 2315POPC   C1A32703  43.389   0.560   8.751
 2315POPC   D2A32704  43.359   0.310   8.356
 2315POPC   C3A32705  43.194   0.411   7.933
 2315POPC   C4A32706  42.831   0.290   7.673
 2315POPC   C1B32707  42.778   0.446   8.665
 2315POPC   C2B32708  42.735   0.433   8.196
 2315POPC   C3B32709  42.800   0.756   7.862
 2315POPC   C4B32710  42.810   0.678   7.359
 2316POPC   NC332711  11.463   3.585   9.602
 2316POPC   PO432712  10.814   3.733   9.432
 2316POPC   GL132713  11.192   3.571   9.168
 2316POPC   GL232714  11.533   3.668   9.111
 2316POPC   C1A32715  11.316   3.293   8.792
 2316POPC   D2A32716  11.504   3.244   8.385
 2316POPC   C3A32717  11.284   3.275   7.995
 2316POPC   C4A32718  11.397   3.373   7.567
 2316POPC   C1B32719  11.329   3.808   8.745
 2316POPC   C2B32720  11.508   3.924   8.376
 2316POPC   C3B32721  11.538   3.717   8.033
 2316POPC   C4B32722  11.298   3.832   7.734
 2317POPC   NC332723  35.052  23.577   9.720
 2317POPC   PO432724  35.590  23.890   9.560
 2317POPC   GL132725  35.412  23.846   9.169
 2317POPC   GL232726  35.603  24.129   9.075
 2317POPC   C1A32727  35.486  23.711   8.760
 2317POPC   D2A32728  35.341  23.515   8.385
 2317POPC   C3A32729  35.249  23.572   7.934
 2317POPC   C4A32730  35.452  23.644   7.550
 2317POPC   C1B32731  35.832  24.116   8.703
 2317POPC   C2B32732  35.650  23.974   8.348
 2317POPC   C3B32733  35.617  24.103   7.930
 2317POPC   C4B32734  35.567  24.120   7.470
 2318POPC   NC332735  39.680  38.068   9.366
 2318POPC   PO432736  39.224  37.651   9.524
 2318POPC   GL132737  39.109  37.608   9.109
 2318POPC   GL232738  39.327  37.854   9.062
 2318POPC   C1A32739  39.264  37.517   8.687
 2318POPC   D2A32740  38.972  37.540   8.382
 2318POPC   C3A32741  39.093  37.645   7.970
 2318POPC   C4A32742  39.499  37.659   7.808
 2318POPC   C1B32743  39.061  37.985   8.740
 2318POPC   C2B32744  39.262  37.949   8.382
 2318POPC   C3B32745  39.401  38.174   8.116
 2318POPC   C4B32746  39.374  38.129   7.704
 2319POPC   NC332747  29.246  12.589   9.712
 2319POPC   PO432748  29.275  13.054   9.205
 2319POPC   GL132749  28.955  12.847   9.021
 2319POPC   GL232750  28.910  13.176   8.828
 2319POPC   C1A32751  28.891  12.721   8.618
 2319POPC   D2A32752  28.986  13.034   8.339
 2319POPC   C3A32753  29.142  12.940   7.983
 2319POPC   C4A32754  28.892  12.797   7.690
 2319POPC   C1B32755  29.319  13.318   8.614
 2319POPC   C2B32756  29.545  13.087   8.281
 2319POPC   C3B32757  29.603  13.125   7.819
 2319POPC   C4B32758  29.270  13.157   7.483
 2320POPC   NC332759  29.919  27.741   9.494
 2320POPC   PO432760  29.521  27.217   9.479
 2320POPC   GL132761  29.796  27.371   9.182
 2320POPC   GL232762  30.174  27.347   9.263
 2320POPC   C1A32763  29.859  27.629   8.841
 2320POPC   D2A32764  29.668  27.661   8.455
 2320POPC   C3A32765  29.874  27.761   8.099
 2320POPC   C4A32766  29.637  27.718   7.731
 2320POPC   C1B32767  30.344  27.434   8.856
 2320POPC   C2B32768  30.150  27.443   8.455
 2320POPC   C3B32769  30.151  27.328   8.049
 2320POPC   C4B32770  30.124  27.543   7.650
 2321POPC   NC332771  42.519   1.044   9.376
 2321POPC   PO432772  41.953   1.327   9.387
 2321POPC   GL132773  42.263   1.402   9.068
 2321POPC   GL232774  42.627   1.501   9.120
 2321POPC   C1A32775  42.216   1.312   8.630
 2321POPC   D2A32776  42.222   1.385   8.195
 2321POPC   C3A32777  42.294   0.995   7.986
 2321POPC   C4A32778  41.982   0.857   7.690
 2321POPC   C1B32779  42.631   1.591   8.676
 2321POPC   C2B32780  42.701   1.296   8.297
 2321POPC   C3B32781  42.604   1.396   7.848
 2321POPC   C4B32782  42.569   1.505   7.396
 2322POPC   NC332783   2.584  30.490   9.793
 2322POPC   PO432784   2.938  30.992   9.534
 2322POPC   GL132785   2.686  30.733   9.224
 2322POPC   GL232786   2.428  30.955   9.082
 2322POPC   C1A32787   2.819  30.603   8.788
 2322POPC   D2A32788   2.837  30.301   8.427
 2322POPC   C3A32789   2.933  30.452   7.979
 2322POPC   C4A32790   2.693  30.387   7.575
 2322POPC   C1B32791   2.561  31.017   8.637
 2322POPC   C2B32792   2.726  30.805   8.302
 2322POPC   C3B32793   2.523  30.768   7.899
 2322POPC   C4B32794   2.151  31.054   7.773
 2323POPC   NC332795  15.722  41.132   9.522
 2323POPC   PO432796  15.846  40.553   9.776
 2323POPC   GL132797  16.012  40.768   9.304
 2323POPC   GL232798  15.822  41.044   9.039
 2323POPC   C1A32799  16.158  40.739   8.829
 2323POPC   D2A32800  15.916  40.736   8.395
 2323POPC   C3A32801  15.948  40.915   7.958
 2323POPC   C4A32802  16.315  41.101   7.808
 2323POPC   C1B32803  15.757  41.345   8.661
 2323POPC   C2B32804  15.490  41.459   8.282
 2323POPC   C3B32805  15.482  41.166   7.957
 2323POPC   C4B32806  15.436  40.741   7.800
 2324POPC   NC332807   4.376   1.038   9.510
 2324POPC   PO432808   4.071   1.609   9.343
 2324POPC   GL132809   4.320   1.254   9.066
 2324POPC   GL232810   4.669   1.274   9.145
 2324POPC   C1A32811   4.505   1.328   8.634
 2324POPC   D2A32812   4.618   1.554   8.260
 2324POPC   C3A32813   4.481   1.353   7.877
 2324POPC   C4A32814   4.297   0.942   7.785
 2324POPC   C1B32815   4.776   0.956   8.842
 2324POPC   C2B32816   4.665   0.784   8.424
 2324POPC   C3B32817   4.764   0.851   8.006
 2324POPC   C4B32818   4.782   1.032   7.585
 2325POPC   NC332819  13.078  25.486   9.649
 2325POPC   PO432820  12.888  24.851   9.591
 2325POPC   GL132821  13.027  25.078   9.202
 2325POPC   GL232822  13.050  25.456   9.147
 2325POPC   C1A32823  12.929  25.152   8.753
 2325POPC   D2A32824  13.136  25.122   8.362
 2325POPC   C3A32825  12.952  24.973   8.003
 2325POPC   C4A32826  12.568  25.059   7.798
 2325POPC   C1B32827  12.955  25.667   8.742
 2325POPC   C2B32828  12.976  25.590   8.326
 2325POPC   C3B32829  12.899  25.493   7.918
 2325POPC   C4B32830  12.631  25.551   7.570
 2326POPC   NC332831  26.092  18.649   9.515
 2326POPC   PO432832  26.015  19.366   9.534
 2326POPC   GL132833  25.908  19.052   9.219
 2326POPC   GL232834  26.206  18.956   9.128
 2326POPC   C1A32835  25.795  18.974   8.768
 2326POPC   D2A32836  25.729  18.836   8.320
 2326POPC   C3A32837  25.878  19.067   7.933
 2326POPC   C4A32838  25.886  19.158   7.449
 2326POPC   C1B32839  26.337  19.140   8.786
 2326POPC   C2B32840  26.116  19.252   8.438
 2326POPC   C3B32841  26.240  19.403   8.056
 2326POPC   C4B32842  26.338  19.204   7.668
 2327POPC   NC332843  13.303  32.000   9.336
 2327POPC   PO432844  13.344  32.494   9.671
 2327POPC   GL132845  13.468  32.431   9.166
 2327POPC   GL232846  13.788  32.281   9.119
 2327POPC   C1A32847  13.426  32.273   8.724
 2327POPC   D2A32848  13.616  32.050   8.364
 2327POPC   C3A32849  13.636  32.155   7.973
 2327POPC   C4A32850  13.460  32.518   7.838
 2327POPC   C1B32851  13.865  32.514   8.704
 2327POPC   C2B32852  13.669  32.590   8.336
 2327POPC   C3B32853  13.931  32.611   8.024
 2327POPC   C4B32854  13.992  32.424   7.700
 2328POPC   NC332855   3.978  33.860   9.218
 2328POPC   PO432856   3.418  33.946   9.643
 2328POPC   GL132857   3.375  33.828   9.208
 2328POPC   GL232858   3.546  33.545   9.273
 2328POPC   C1A32859   3.404  33.905   8.755
 2328POPC   D2A32860   3.217  33.808   8.341
 2328POPC   C3A32861   3.558  33.903   8.058
 2328POPC   C4A32862   3.729  34.272   7.881
 2328POPC   C1B32863   3.654  33.409   8.858
 2328POPC   C2B32864   3.622  33.510   8.417
 2328POPC   C3B32865   3.654  33.402   7.939
 2328POPC   C4B32866   3.663  33.488   7.451
 2329POPC   NC332867  31.089  44.312   9.471
 2329POPC   PO432868  30.667  43.732   9.322
 2329POPC   GL132869  30.810  44.076   9.091
 2329POPC   GL232870  30.504  44.214   8.957
 2329POPC   C1A32871  31.003  43.991   8.703
 2329POPC   D2A32872  30.856  43.735   8.357
 2329POPC   C3A32873  30.634  43.987   8.051
 2329POPC   C4A32874  30.901  44.102   7.701
 2329POPC   C1B32875  30.461  43.879   8.666
 2329POPC   C2B32876  30.302  43.673   8.302
 2329POPC   C3B32877  30.285  43.554   7.871
 2329POPC   C4B32878  30.484  43.818   7.559
 2330POPC   NC332879  23.066  43.569   9.631
 2330POPC   PO432880  22.927  42.967   9.750
 2330POPC   GL132881  22.853  43.107   9.293
 2330POPC   GL232882  22.736  43.452   9.252
 2330POPC   C1A32883  22.904  43.123   8.810
 2330POPC   D2A32884  22.927  43.295   8.363
 2330POPC   C3A32885  22.975  43.051   7.961
 2330POPC   C4A32886  23.364  43.058   7.684
 2330POPC   C1B32887  22.468  43.408   8.911
 2330POPC   C2B32888  22.426  43.368   8.471
 2330POPC   C3B32889  22.569  43.502   8.047
 2330POPC   C4B32890  22.522  43.678   7.663
 2331POPC   NC332891  17.637   2.159   9.444
 2331POPC   PO432892  17.233   1.689   9.351
 2331POPC   GL132893  17.407   1.941   9.040
 2331POPC   GL232894  17.712   1.797   9.005
 2331POPC   C1A32895  17.513   2.310   8.776
 2331POPC   D2A32896  17.758   2.325   8.379
 2331POPC   C3A32897  17.639   2.077   8.057
 2331POPC   C4A32898  17.398   2.101   7.743
 2331POPC   C1B32899  17.585   1.860   8.551
 2331POPC   C2B32900  17.301   1.710   8.209
 2331POPC   C3B32901  17.489   1.599   7.853
 2331POPC   C4B32902  17.901   1.678   7.729
 2332POPC   NC332903   7.181  22.708   9.202
 2332POPC   PO432904   7.601  23.174   9.464
 2332POPC   GL132905   7.457  23.170   9.043
 2332POPC   GL232906   7.796  23.293   8.971
 2332POPC   C1A32907   7.307  22.944   8.633
 2332POPC   D2A32908   7.349  22.705   8.264
 2332POPC   C3A32909   7.258  22.887   7.875
 2332POPC   C4A32910   7.398  22.805   7.442
 2332POPC   C1B32911   7.594  23.362   8.559
 2332POPC   C2B32912   7.634  23.252   8.122
 2332POPC   C3B32913   7.727  23.034   7.752
 2332POPC   C4B32914   7.857  22.989   7.297
 2333POPC   NC332915  31.843   3.977   9.498
 2333POPC   PO432916  31.255   4.310   9.441
 2333POPC   GL132917  31.560   4.327   9.157
 2333POPC   GL232918  31.587   3.983   9.063
 2333POPC   C1A32919  31.479   4.399   8.723
 2333POPC   D2A32920  31.700   4.450   8.320
 2333POPC   C3A32921  31.457   4.308   7.970
 2333POPC   C4A32922  31.142   4.367   7.656
 2333POPC   C1B32923  31.805   4.033   8.667
 2333POPC   C2B32924  31.964   3.999   8.281
 2333POPC   C3B32925  31.928   4.096   7.858
 2333POPC   C4B32926  31.589   3.981   7.622
 2334POPC   NC332927  39.970  35.405   9.521
 2334POPC   PO432928  39.482  35.010   9.180
 2334POPC   GL132929  39.920  35.135   9.064
 2334POPC   GL232930  40.061  35.502   9.045
 2334POPC   C1A32931  40.062  35.183   8.636
 2334POPC   D2A32932  39.982  35.032   8.207
 2334POPC   C3A32933  39.942  35.335   7.897
 2334POPC   C4A32934  39.581  35.532   7.771
 2334POPC   C1B32935  40.303  35.636   8.720
 2334POPC   C2B32936  40.278  35.509   8.300
 2334POPC   C3B32937  40.392  35.560   7.894
 2334POPC   C4B32938  40.279  35.349   7.502
 2335POPC   NC332939   4.554  42.904   9.725
 2335POPC   PO432940   5.197  43.179   9.556
 2335POPC   GL132941   4.986  43.201   9.151
 2335POPC   GL232942   5.109  42.959   8.920
 2335POPC   C1A32943   5.007  43.401   8.724
 2335POPC   D2A32944   5.115  43.284   8.269
 2335POPC   C3A32945   4.889  43.470   7.924
 2335POPC   C4A32946   4.831  43.414   7.455
 2335POPC   C1B32947   5.126  42.815   8.474
 2335POPC   C2B32948   4.812  42.685   8.142
 2335POPC   C3B32949   4.793  42.926   7.762
 2335POPC   C4B32950   5.183  43.131   7.690
 2336POPC   NC332951  15.247  31.266   9.609
 2336POPC   PO432952  15.294  31.954   9.805
 2336POPC   GL132953  15.128  31.711   9.350
 2336POPC   GL232954  15.266  31.406   9.122
 2336POPC   C1A32955  15.023  31.773   8.882
 2336POPC   D2A32956  15.171  31.785   8.447
 2336POPC   C3A32957  15.062  31.744   7.995
 2336POPC   C4A32958  15.402  31.707   7.656
 2336POPC   C1B32959  15.314  31.338   8.683
 2336POPC   C2B32960  15.174  31.278   8.259
 2336POPC   C3B32961  15.164  31.281   7.819
 2336POPC   C4B32962  15.433  31.154   7.536
 2337POPC   NC332963  13.399  27.789   9.576
 2337POPC   PO432964  13.649  27.251   9.818
 2337POPC   GL132965  13.649  27.418   9.316
 2337POPC   GL232966  13.367  27.669   9.097
 2337POPC   C1A32967  13.621  27.322   8.848
 2337POPC   D2A32968  13.511  27.561   8.466
 2337POPC   C3A32969  13.765  27.550   8.098
 2337POPC   C4A32970  13.614  27.404   7.715
 2337POPC   C1B32971  13.575  27.946   8.790
 2337POPC   C2B32972  13.546  28.078   8.375
 2337POPC   C3B32973  13.373  27.885   8.026
 2337POPC   C4B32974  13.634  27.912   7.682
 2338POPC   NC332975   7.224   6.426   9.482
 2338POPC   PO432976   7.503   7.073   9.459
 2338POPC   GL132977   7.264   6.811   9.081
 2338POPC   GL232978   7.016   6.500   9.038
 2338POPC   C1A32979   7.255   6.659   8.617
 2338POPC   D2A32980   7.250   6.383   8.225
 2338POPC   C3A32981   7.535   6.611   7.917
 2338POPC   C4A32982   7.721   7.051   7.796
 2338POPC   C1B32983   6.783   6.834   8.821
 2338POPC   C2B32984   6.840   6.970   8.421
 2338POPC   C3B32985   7.123   6.864   8.103
 2338POPC   C4B32986   7.027   6.598   7.778
 2339POPC   NC332987   9.170   4.658   9.511
 2339POPC   PO432988   9.814   4.545   9.524
 2339POPC   GL132989   9.501   4.329   9.257
 2339POPC   GL232990   9.398   4.595   9.068
 2339POPC   C1A32991   9.405   4.158   8.830
 2339POPC   D2A32992   9.545   4.046   8.426
 2339POPC   C3A32993   9.817   4.150   8.112
 2339POPC   C4A32994   9.524   4.187   7.781
 2339POPC   C1B32995   9.666   4.564   8.711
 2339POPC   C2B32996   9.536   4.595   8.283
 2339POPC   C3B32997   9.761   4.610   7.911
 2339POPC   C4B32998   9.992   4.353   7.619
 2340POPC   NC332999  31.618   6.973   9.560
 2340POPC   PO433000  30.982   6.942   9.599
 2340POPC   GL133001  31.059   7.228   9.255
 2340POPC   GL233002  31.414   7.282   9.183
 2340POPC   C1A33003  31.073   7.263   8.794
 2340POPC   D2A33004  31.262   7.108   8.404
 2340POPC   C3A33005  31.336   7.373   8.044
 2340POPC   C4A33006  31.322   7.813   7.942
 2340POPC   C1B33007  31.590   7.389   8.750
 2340POPC   C2B33008  31.631   7.655   8.368
 2340POPC   C3B33009  31.796   7.606   7.955
 2340POPC   C4B33010  31.936   7.234   7.798
 2341POPC   NC333011   6.469   1.595   9.552
 2341POPC   PO433012   6.922   2.090   9.567
 2341POPC   GL133013   6.833   1.872   9.200
 2341POPC   GL233014   6.479   1.932   9.161
 2341POPC   C1A33015   6.917   1.851   8.771
 2341POPC   D2A33016   6.968   1.695   8.367
 2341POPC   C3A33017   6.746   1.900   7.996
 2341POPC   C4A33018   6.308   1.893   7.840
 2341POPC   C1B33019   6.413   1.812   8.744
 2341POPC   C2B33020   6.395   2.023   8.362
 2341POPC   C3B33021   6.480   2.365   8.078
 2341POPC   C4B33022   6.310   2.392   7.676
 2342POPC   NC333023  27.548  33.836   9.765
 2342POPC   PO433024  28.296  33.659   9.604
 2342POPC   GL133025  28.000  33.765   9.228
 2342POPC   GL233026  27.626  33.794   9.265
 2342POPC   C1A33027  27.790  33.663   8.809
 2342POPC   D2A33028  27.655  33.453   8.409
 2342POPC   C3A33029  27.425  33.489   8.039
 2342POPC   C4A33030  27.708  33.698   7.817
 2342POPC   C1B33031  27.430  34.028   8.912
 2342POPC   C2B33032  27.535  33.977   8.482
 2342POPC   C3B33033  27.399  33.996   8.094
 2342POPC   C4B33034  27.482  34.156   7.709
 2343POPC   NC333035  40.361  22.058   9.404
 2343POPC   PO433036  39.903  22.509   9.422
 2343POPC   GL133037  39.867  22.343   9.070
 2343POPC   GL233038  39.943  22.033   9.125
 2343POPC   C1A33039  40.011  22.425   8.662
 2343POPC   D2A33040  40.425  22.418   8.440
 2343POPC   C3A33041  40.283  22.338   8.032
 2343POPC   C4A33042  39.941  22.522   7.847
 2343POPC   C1B33043  40.151  21.959   8.742
 2343POPC   C2B33044  39.983  22.012   8.339
 2343POPC   C3B33045  40.021  21.838   7.955
 2343POPC   C4B33046  40.394  21.885   7.728
 2344POPC   NC333047   3.067  10.326   9.490
 2344POPC   PO433048   2.547  10.749   9.450
 2344POPC   GL133049   2.916  10.767   9.165
 2344POPC   GL233050   3.035  10.464   9.013
 2344POPC   C1A33051   2.941  10.891   8.725
 2344POPC   D2A33052   2.701  10.812   8.339
 2344POPC   C3A33053   2.936  10.535   8.032
 2344POPC   C4A33054   3.042  10.618   7.583
 2344POPC   C1B33055   2.661  10.445   8.792
 2344POPC   C2B33056   2.575  10.320   8.378
 2344POPC   C3B33057   2.428  10.474   8.005
 2344POPC   C4B33058   2.630  10.319   7.653
 2345POPC   NC333059  14.046  27.420   9.679
 2345POPC   PO433060  14.668  27.578   9.612
 2345POPC   GL133061  14.480  27.421   9.237
 2345POPC   GL233062  14.151  27.226   9.226
 2345POPC   C1A33063  14.573  27.703   8.889
 2345POPC   D2A33064  14.607  27.886   8.479
 2345POPC   C3A33065  14.657  27.646   8.093
 2345POPC   C4A33066  14.649  27.496   7.680
 2345POPC   C1B33067  14.148  27.419   8.837
 2345POPC   C2B33068  14.397  27.377   8.445
 2345POPC   C3B33069  14.299  27.271   7.992
 2345POPC   C4B33070  14.054  27.233   7.576
 2346POPC   NC333071  10.894  12.681   9.369
 2346POPC   PO433072  10.212  12.828   9.290
 2346POPC   GL133073  10.516  12.855   9.052
 2346POPC   GL233074  10.728  13.110   9.104
 2346POPC   C1A33075  10.403  12.934   8.667
 2346POPC   D2A33076  10.580  12.777   8.336
 2346POPC   C3A33077  10.363  12.831   8.014
 2346POPC   C4A33078  10.484  12.785   7.629
 2346POPC   C1B33079  10.926  12.971   8.722
 2346POPC   C2B33080  10.959  13.109   8.301
 2346POPC   C3B33081  10.931  12.820   7.905
 2346POPC   C4B33082  10.945  12.773   7.414
 2347POPC   NC333083   4.502   3.766   9.629
 2347POPC   PO433084   4.232   3.202   9.598
 2347POPC   GL133085   4.113   3.418   9.179
 2347POPC   GL233086   4.192   3.790   9.160
 2347POPC   C1A33087   4.168   3.403   8.693
 2347POPC   D2A33088   4.465   3.455   8.316
 2347POPC   C3A33089   4.307   3.325   7.894
 2347POPC   C4A33090   4.088   2.988   7.673
 2347POPC   C1B33091   4.141   4.043   8.754
 2347POPC   C2B33092   4.228   3.939   8.326
 2347POPC   C3B33093   4.440   3.825   7.953
 2347POPC   C4B33094   4.148   3.752   7.635
 2348POPC   NC333095  30.651  28.720   9.438
 2348POPC   PO433096  30.931  29.371   9.491
 2348POPC   GL133097  30.729  29.113   9.121
 2348POPC   GL233098  30.682  29.394   8.924
 2348POPC   C1A33099  30.420  28.851   8.802
 2348POPC   D2A33100  30.390  28.864   8.321
 2348POPC   C3A33101  30.583  28.794   7.918
 2348POPC   C4A33102  30.870  29.110   7.682
 2348POPC   C1B33103  30.800  29.081   8.587
 2348POPC   C2B33104  30.807  29.151   8.190
 2348POPC   C3B33105  30.835  29.527   7.971
 2348POPC   C4B33106  30.990  29.589   7.583
 2349POPC   NC333107  32.883  29.566   9.450
 2349POPC   PO433108  33.483  29.649   9.742
 2349POPC   GL133109  33.316  29.777   9.284
 2349POPC   GL233110  33.056  30.054   9.190
 2349POPC   C1A33111  33.193  29.732   8.825
 2349POPC   D2A33112  33.276  29.975   8.463
 2349POPC   C3A33113  33.126  29.770   8.126
 2349POPC   C4A33114  33.304  29.877   7.774
 2349POPC   C1B33115  32.911  30.206   8.750
 2349POPC   C2B33116  32.867  30.238   8.252
 2349POPC   C3B33117  32.850  30.099   7.782
 2349POPC   C4B33118  32.652  30.136   7.342
 2350POPC   NC333119  29.196  28.258   9.529
 2350POPC   PO433120  29.077  28.919   9.351
 2350POPC   GL133121  29.186  28.576   9.059
 2350POPC   GL233122  29.493  28.407   9.137
 2350POPC   C1A33123  29.155  28.383   8.635
 2350POPC   D2A33124  28.987  28.425   8.197
 2350POPC   C3A33125  29.171  28.648   7.846
 2350POPC   C4A33126  29.186  28.589   7.367
 2350POPC   C1B33127  29.562  28.108   8.795
 2350POPC   C2B33128  29.666  28.175   8.375
 2350POPC   C3B33129  29.420  28.100   8.049
 2350POPC   C4B33130  29.372  28.214   7.665
 2351POPC   NC333131   7.293  25.847   9.450
 2351POPC   PO433132   7.412  26.458   9.744
 2351POPC   GL133133   7.322  26.320   9.226
 2351POPC   GL233134   7.566  26.027   9.077
 2351POPC   C1A33135   7.219  26.246   8.771
 2351POPC   D2A33136   7.076  25.950   8.440
 2351POPC   C3A33137   7.190  26.041   8.009
 2351POPC   C4A33138   7.354  26.038   7.601
 2351POPC   C1B33139   7.701  26.118   8.677
 2351POPC   C2B33140   7.571  25.893   8.332
 2351POPC   C3B33141   7.489  25.596   8.051
 2351POPC   C4B33142   7.567  25.579   7.637
 2352POPC   NC333143  29.188  34.358   9.532
 2352POPC   PO433144  29.015  35.030   9.595
 2352POPC   GL133145  28.971  34.727   9.261
 2352POPC   GL233146  29.344  34.639   9.152
 2352POPC   C1A33147  28.942  34.739   8.832
 2352POPC   D2A33148  29.039  34.942   8.449
 2352POPC   C3A33149  29.103  34.725   8.062
 2352POPC   C4A33150  28.763  34.758   7.801
 2352POPC   C1B33151  29.366  34.459   8.749
 2352POPC   C2B33152  29.034  34.396   8.466
 2352POPC   C3B33153  29.005  34.221   8.102
 2352POPC   C4B33154  29.330  34.271   7.810
 2353POPC   NC333155  44.715  29.180   9.752
 2353POPC   PO433156  44.405  28.720   9.368
 2353POPC   GL133157  44.789  28.959   9.202
 2353POPC   GL233158  44.968  29.287   9.175
 2353POPC   C1A33159  44.896  29.012   8.768
 2353POPC   D2A33160  44.922  29.278   8.407
 2353POPC   C3A33161  44.802  29.151   7.985
 2353POPC   C4A33162   0.127  28.999   7.763
 2353POPC   C1B33163  44.667  29.459   8.842
 2353POPC   C2B33164  44.493  29.562   8.431
 2353POPC   C3B33165  44.479  29.558   7.964
 2353POPC   C4B33166  44.689  29.572   7.522
 2354POPC   NC333167  20.068  35.939   9.614
 2354POPC   PO433168  19.419  36.125   9.578
 2354POPC   GL133169  19.764  36.225   9.278
 2354POPC   GL233170  19.890  35.903   9.132
 2354POPC   C1A33171  19.855  36.339   8.843
 2354POPC   D2A33172  19.902  36.116   8.422
 2354POPC   C3A33173  19.927  36.354   8.025
 2354POPC   C4A33174  19.739  36.154   7.660
 2354POPC   C1B33175  19.506  35.970   8.883
 2354POPC   C2B33176  19.406  36.003   8.451
 2354POPC   C3B33177  19.598  35.877   8.068
 2354POPC   C4B33178  19.310  35.894   7.742
 2355POPC   NC333179  43.695  35.125   9.848
 2355POPC   PO433180  44.249  35.407   9.573
 2355POPC   GL133181  43.970  35.246   9.227
 2355POPC   GL233182  43.607  35.222   9.158
 2355POPC   C1A33183  43.985  35.214   8.773
 2355POPC   D2A33184  43.828  35.323   8.357
 2355POPC   C3A33185  44.158  35.193   8.074
 2355POPC   C4A33186  44.122  35.025   7.640
 2355POPC   C1B33187  43.547  35.531   8.773
 2355POPC   C2B33188  43.574  35.776   8.375
 2355POPC   C3B33189  43.599  35.644   7.978
 2355POPC   C4B33190  43.876  35.461   7.748
 2356POPC   NC333191   7.601  40.542   9.444
 2356POPC   PO433192   6.959  40.934   9.339
 2356POPC   GL133193   7.224  40.681   9.125
 2356POPC   GL233194   7.454  40.918   9.096
 2356POPC   C1A33195   7.479  40.552   8.760
 2356POPC   D2A33196   7.463  40.761   8.365
 2356POPC   C3A33197   7.564  40.641   7.954
 2356POPC   C4A33198   7.340  40.534   7.591
 2356POPC   C1B33199   7.698  41.018   8.742
 2356POPC   C2B33200   7.916  40.941   8.330
 2356POPC   C3B33201   7.919  41.020   7.884
 2356POPC   C4B33202   7.605  40.968   7.533
 2357POPC   NC333203   1.538  32.609   9.518
 2357POPC   PO433204   1.083  33.112   9.511
 2357POPC   GL133205   1.318  33.032   9.138
 2357POPC   GL233206   1.135  32.765   9.066
 2357POPC   C1A33207   1.335  33.032   8.676
 2357POPC   D2A33208   1.157  32.930   8.318
 2357POPC   C3A33209   1.293  33.080   7.943
 2357POPC   C4A33210   0.998  33.258   7.684
 2357POPC   C1B33211   1.088  32.554   8.664
 2357POPC   C2B33212   0.929  32.476   8.259
 2357POPC   C3B33213   1.183  32.580   7.942
 2357POPC   C4B33214   1.150  32.780   7.560
 2358POPC   NC333215  44.143  39.059   9.413
 2358POPC   PO433216  43.632  39.542   9.349
 2358POPC   GL133217  43.940  39.363   9.033
 2358POPC   GL233218  43.843  38.993   8.998
 2358POPC   C1A33219  44.126  39.397   8.584
 2358POPC   D2A33220  44.219  39.546   8.133
 2358POPC   C3A33221  43.942  39.315   7.838
 2358POPC   C4A33222  43.788  38.911   7.628
 2358POPC   C1B33223  44.124  38.864   8.656
 2358POPC   C2B33224  44.103  38.715   8.212
 2358POPC   C3B33225  44.266  38.915   7.796
 2358POPC   C4B33226  44.160  39.167   7.365
 2359POPC   NC333227  27.722  37.155   9.462
 2359POPC   PO433228  27.262  36.685   9.468
 2359POPC   GL133229  27.480  36.790   9.124
 2359POPC   GL233230  27.516  37.138   9.004
 2359POPC   C1A33231  27.340  36.726   8.743
 2359POPC   D2A33232  27.543  36.805   8.401
 2359POPC   C3A33233  27.438  36.641   8.054
 2359POPC   C4A33234  27.648  36.855   7.752
 2359POPC   C1B33235  27.858  36.941   8.787
 2359POPC   C2B33236  27.996  37.072   8.366
 2359POPC   C3B33237  27.898  37.261   7.950
 2359POPC   C4B33238  27.911  37.184   7.463
 2360POPC   NC333239  19.976  44.318   9.735
 2360POPC   PO433240  19.608  44.870   9.503
 2360POPC   GL133241  19.756  44.675   9.095
 2360POPC   GL233242  20.032  44.426   9.016
 2360POPC   C1A33243  19.688  44.579   8.649
 2360POPC   D2A33244  19.856  44.670   8.243
 2360POPC   C3A33245  19.688  44.460   7.900
 2360POPC   C4A33246  19.662  44.332   7.469
 2360POPC   C1B33247  20.166  44.770   8.741
 2360POPC   C2B33248  20.260  44.984   8.349
 2360POPC   C3B33249  20.220  44.987   7.900
 2360POPC   C4B33250  19.950  44.797   7.566
 2361POPC   NC333251   2.418  20.369   9.466
 2361POPC   PO433252   3.064  20.075   9.447
 2361POPC   GL133253   2.977  20.352   9.082
 2361POPC   GL233254   2.603  20.405   9.009
 2361POPC   C1A33255   2.898  20.542   8.641
 2361POPC   D2A33256   2.636  20.339   8.320
 2361POPC   C3A33257   2.813  20.475   7.940
 2361POPC   C4A33258   3.057  20.828   7.779
 2361POPC   C1B33259   2.365  20.610   8.674
 2361POPC   C2B33260   2.428  20.827   8.268
 2361POPC   C3B33261   2.530  20.871   7.815
 2361POPC   C4B33262   2.332  20.778   7.426
 2362POPC   NC333263  12.350   5.258   9.352
 2362POPC   PO433264  12.228   4.709   9.656
 2362POPC   GL133265  12.359   4.744   9.249
 2362POPC   GL233266  12.038   4.875   9.147
 2362POPC   C1A33267  12.356   4.697   8.800
 2362POPC   D2A33268  12.121   4.688   8.399
 2362POPC   C3A33269  12.253   4.791   7.978
 2362POPC   C4A33270  12.274   4.911   7.539
 2362POPC   C1B33271  12.051   5.099   8.738
 2362POPC   C2B33272  12.184   5.192   8.305
 2362POPC   C3B33273  12.009   5.225   7.876
 2362POPC   C4B33274  11.901   5.486   7.511
 2363POPC   NC333275  16.886  20.374   9.529
 2363POPC   PO433276  16.683  19.692   9.465
 2363POPC   GL133277  16.704  19.735   9.055
 2363POPC   GL233278  17.043  19.763   9.055
 2363POPC   C1A33279  16.503  19.795   8.661
 2363POPC   D2A33280  16.605  19.541   8.308
 2363POPC   C3A33281  16.836  19.736   7.930
 2363POPC   C4A33282  16.614  19.877   7.542
 2363POPC   C1B33283  16.897  20.132   8.798
 2363POPC   C2B33284  17.018  20.275   8.359
 2363POPC   C3B33285  16.998  20.238   7.897
 2363POPC   C4B33286  17.087  20.044   7.516
 2364POPC   NC333287  15.762   5.816   9.442
 2364POPC   PO433288  16.439   5.552   9.415
 2364POPC   GL133289  16.355   5.825   9.074
 2364POPC   GL233290  16.174   6.079   9.167
 2364POPC   C1A33291  16.340   5.936   8.650
 2364POPC   D2A33292  16.160   5.727   8.316
 2364POPC   C3A33293  16.201   5.903   7.925
 2364POPC   C4A33294  15.885   5.774   7.660
 2364POPC   C1B33295  15.865   6.008   8.810
 2364POPC   C2B33296  15.910   6.167   8.383
 2364POPC   C3B33297  15.758   6.165   7.969
 2364POPC   C4B33298  15.541   6.119   7.542
 2365POPC   NC333299  34.408  29.212   9.375
 2365POPC   PO433300  34.908  28.773   9.421
 2365POPC   GL133301  34.703  28.978   9.014
 2365POPC   GL233302  34.282  29.020   8.940
 2365POPC   C1A33303  34.815  29.146   8.579
 2365POPC   D2A33304  34.632  29.483   8.281
 2365POPC   C3A33305  34.508  29.440   7.830
 2365POPC   C4A33306  34.743  29.646   7.429
 2365POPC   C1B33307  34.288  29.145   8.533
 2365POPC   C2B33308  34.492  28.980   8.226
 2365POPC   C3B33309  34.387  28.787   7.915
 2365POPC   C4B33310  34.516  28.969   7.611
 2366POPC   NC333311  18.347  29.378   9.415
 2366POPC   PO433312  18.147  28.675   9.536
 2366POPC   GL133313  18.140  28.956   9.167
 2366POPC   GL233314  18.406  29.155   8.959
 2366POPC   C1A33315  18.029  28.839   8.748
 2366POPC   D2A33316  17.711  28.838   8.403
 2366POPC   C3A33317  17.949  28.963   8.020
 2366POPC   C4A33318  18.059  29.392   7.835
 2366POPC   C1B33319  18.580  29.549   8.746
 2366POPC   C2B33320  18.608  29.736   8.321
 2366POPC   C3B33321  18.607  29.488   7.939
 2366POPC   C4B33322  18.462  29.144   7.611
 2367POPC   NC333323  30.562  18.087   9.665
 2367POPC   PO433324  30.889  17.524   9.564
 2367POPC   GL133325  30.600  17.435   9.200
 2367POPC   GL233326  30.325  17.162   9.294
 2367POPC   C1A33327  30.756  17.439   8.758
 2367POPC   D2A33328  31.042  17.458   8.402
 2367POPC   C3A33329  30.804  17.430   8.048
 2367POPC   C4A33330  30.618  17.802   7.867
 2367POPC   C1B33331  30.412  17.082   8.875
 2367POPC   C2B33332  30.370  17.201   8.454
 2367POPC   C3B33333  30.291  17.318   8.020
 2367POPC   C4B33334  30.512  17.335   7.628
 2368POPC   NC333335  17.865  18.886   9.424
 2368POPC   PO433336  18.506  19.084   9.443
 2368POPC   GL133337  18.167  19.188   9.099
 2368POPC   GL233338  18.024  19.548   9.102
 2368POPC   C1A33339  18.182  19.010   8.652
 2368POPC   D2A33340  18.084  18.913   8.186
 2368POPC   C3A33341  18.439  18.886   7.859
 2368POPC   C4A33342  18.413  19.031   7.386
 2368POPC   C1B33343  17.944  19.473   8.700
 2368POPC   C2B33344  18.173  19.404   8.318
 2368POPC   C3B33345  18.209  19.349   7.894
 2368POPC   C4B33346  18.624  19.344   7.722
 2369POPC   NC333347  11.854  16.972   9.521
 2369POPC   PO433348  11.438  16.413   9.457
 2369POPC   GL133349  11.817  16.539   9.189
 2369POPC   GL233350  12.146  16.387   9.250
 2369POPC   C1A33351  11.938  16.849   8.849
 2369POPC   D2A33352  12.000  16.767   8.415
 2369POPC   C3A33353  12.069  16.954   8.006
 2369POPC   C4A33354  12.054  16.697   7.652
 2369POPC   C1B33355  12.223  16.376   8.803
 2369POPC   C2B33356  12.424  16.461   8.421
 2369POPC   C3B33357  12.214  16.420   8.061
 2369POPC   C4B33358  12.418  16.350   7.694
 2370POPC   NC333359  19.029  32.660   9.357
 2370POPC   PO433360  19.240  32.021   9.531
 2370POPC   GL133361  19.225  31.950   9.127
 2370POPC   GL233362  18.914  32.068   8.950
 2370POPC   C1A33363  19.368  32.205   8.825
 2370POPC   D2A33364  19.429  32.291   8.427
 2370POPC   C3A33365  19.114  32.162   8.159
 2370POPC   C4A33366  19.254  32.224   7.747
 2370POPC   C1B33367  18.952  32.484   8.703
 2370POPC   C2B33368  18.912  32.629   8.272
 2370POPC   C3B33369  18.688  32.383   7.953
 2370POPC   C4B33370  18.820  32.319   7.498
 2371POPC   NC333371  42.379   1.633   9.555
 2371POPC   PO433372  42.068   2.300   9.508
 2371POPC   GL133373  42.183   2.220   9.130
 2371POPC   GL233374  42.327   1.921   9.132
 2371POPC   C1A33375  42.062   2.142   8.716
 2371POPC   D2A33376  42.190   1.863   8.416
 2371POPC   C3A33377  42.226   2.088   8.044
 2371POPC   C4A33378  42.336   1.832   7.721
 2371POPC   C1B33379  42.559   2.107   8.781
 2371POPC   C2B33380  42.651   2.090   8.354
 2371POPC   C3B33381  42.673   2.346   8.010
 2371POPC   C4B33382  42.551   2.277   7.624
 2372POPC   NC333383  19.507  18.109   9.702
 2372POPC   PO433384  20.175  18.290   9.729
 2372POPC   GL133385  20.006  18.210   9.308
 2372POPC   GL233386  19.689  18.109   9.143
 2372POPC   C1A33387  20.089  18.265   8.856
 2372POPC   D2A33388  20.078  18.140   8.402
 2372POPC   C3A33389  19.954  18.100   7.969
 2372POPC   C4A33390  20.105  18.438   7.752
 2372POPC   C1B33391  19.617  18.221   8.663
 2372POPC   C2B33392  19.581  18.329   8.206
 2372POPC   C3B33393  19.505  18.241   7.733
 2372POPC   C4B33394  19.426  18.248   7.214
 2373POPC   NC333395  16.061  27.277   9.358
 2373POPC   PO433396  15.657  27.587   9.762
 2373POPC   GL133397  15.576  27.561   9.263
 2373POPC   GL233398  15.853  27.517   8.961
 2373POPC   C1A33399  15.393  27.502   8.816
 2373POPC   D2A33400  15.668  27.473   8.449
 2373POPC   C3A33401  15.525  27.566   8.034
 2373POPC   C4A33402  15.926  27.565   7.801
 2373POPC   C1B33403  16.038  27.794   8.633
 2373POPC   C2B33404  16.353  27.618   8.343
 2373POPC   C3B33405  16.421  27.451   7.920
 2373POPC   C4B33406  16.357  27.718   7.557
 2374POPC   NC333407  23.516  33.525   9.450
 2374POPC   PO433408  23.722  34.195   9.563
 2374POPC   GL133409  23.750  34.012   9.153
 2374POPC   GL233410  23.863  33.657   9.104
 2374POPC   C1A33411  23.704  33.918   8.711
 2374POPC   D2A33412  23.670  33.678   8.322
 2374POPC   C3A33413  23.694  33.984   7.999
 2374POPC   C4A33414  23.447  34.067   7.650
 2374POPC   C1B33415  23.552  33.425   8.807
 2374POPC   C2B33416  23.472  33.162   8.443
 2374POPC   C3B33417  23.427  33.287   8.041
 2374POPC   C4B33418  23.623  33.528   7.772
 2375POPC   NC333419  23.403  17.072   9.480
 2375POPC   PO433420  24.058  16.952   9.551
 2375POPC   GL133421  24.035  16.996   9.139
 2375POPC   GL233422  23.722  16.849   9.136
 2375POPC   C1A33423  24.061  16.856   8.699
 2375POPC   D2A33424  24.005  16.502   8.439
 2375POPC   C3A33425  23.970  16.626   8.038
 2375POPC   C4A33426  24.028  17.067   7.927
 2375POPC   C1B33427  23.496  16.803   8.789
 2375POPC   C2B33428  23.631  16.951   8.398
 2375POPC   C3B33429  23.538  16.900   7.989
 2375POPC   C4B33430  23.744  16.788   7.593
 2376POPC   NC333431  19.002  34.677   9.648
 2376POPC   PO433432  19.057  34.049   9.678
 2376POPC   GL133433  19.172  34.351   9.285
 2376POPC   GL233434  19.018  34.698   9.138
 2376POPC   C1A33435  19.299  34.416   8.843
 2376POPC   D2A33436  19.032  34.591   8.511
 2376POPC   C3A33437  19.178  34.585   8.122
 2376POPC   C4A33438  19.275  34.408   7.756
 2376POPC   C1B33439  18.654  34.722   8.817
 2376POPC   C2B33440  18.503  34.933   8.451
 2376POPC   C3B33441  18.570  34.879   8.011
 2376POPC   C4B33442  18.761  34.553   7.779
 2377POPC   NC333443   9.461  27.488   9.539
 2377POPC   PO433444   9.955  27.916   9.524
 2377POPC   GL133445   9.959  27.579   9.209
 2377POPC   GL233446   9.644  27.610   9.098
 2377POPC   C1A33447  10.014  27.601   8.749
 2377POPC   D2A33448   9.893  27.949   8.460
 2377POPC   C3A33449   9.779  27.840   8.050
 2377POPC   C4A33450   9.985  27.499   7.808
 2377POPC   C1B33451   9.532  27.888   8.820
 2377POPC   C2B33452   9.418  27.694   8.419
 2377POPC   C3B33453   9.535  27.383   8.084
 2377POPC   C4B33454   9.491  27.556   7.670
 2378POPC   NC333455  30.919  40.762   9.548
 2378POPC   PO433456  31.234  41.377   9.477
 2378POPC   GL133457  31.028  41.071   9.156
 2378POPC   GL233458  30.986  40.635   9.085
 2378POPC   C1A33459  30.935  40.959   8.725
 2378POPC   D2A33460  30.608  40.825   8.477
 2378POPC   C3A33461  30.673  41.081   8.123
 2378POPC   C4A33462  30.467  41.109   7.728
 2378POPC   C1B33463  30.820  40.372   8.738
 2378POPC   C2B33464  30.714  40.240   8.299
 2378POPC   C3B33465  30.587  40.581   8.018
 2378POPC   C4B33466  30.856  40.788   7.714
 2379POPC   NC333467  28.073  14.997   9.764
 2379POPC   PO433468  28.545  15.283   9.306
 2379POPC   GL133469  28.309  15.127   9.009
 2379POPC   GL233470  28.105  15.375   8.927
 2379POPC   C1A33471  28.363  15.102   8.582
 2379POPC   D2A33472  28.685  14.978   8.316
 2379POPC   C3A33473  28.436  14.812   7.982
 2379POPC   C4A33474  28.462  14.882   7.578
 2379POPC   C1B33475  27.820  15.497   8.691
 2379POPC   C2B33476  27.824  15.319   8.335
 2379POPC   C3B33477  28.190  15.248   8.113
 2379POPC   C4B33478  28.219  15.295   7.673
 2380POPC   NC333479  29.289  10.413   9.636
 2380POPC   PO433480  28.656  10.528   9.549
 2380POPC   GL133481  28.971  10.389   9.232
 2380POPC   GL233482  29.300  10.579   9.159
 2380POPC   C1A33483  28.896  10.397   8.811
 2380POPC   D2A33484  28.895  10.699   8.474
 2380POPC   C3A33485  28.933  10.552   8.078
 2380POPC   C4A33486  29.001  10.629   7.682
 2380POPC   C1B33487  29.347  10.599   8.732
 2380POPC   C2B33488  29.425  10.523   8.321
 2380POPC   C3B33489  29.441  10.665   7.929
 2380POPC   C4B33490  29.443  10.809   7.508
 2381POPC   NC333491  44.654  23.317   9.561
 2381POPC   PO433492  44.877  22.670   9.604
 2381POPC   GL133493  44.794  22.703   9.136
 2381POPC   GL233494  44.844  23.045   9.153
 2381POPC   C1A33495  44.578  22.767   8.686
 2381POPC   D2A33496  44.315  23.002   8.322
 2381POPC   C3A33497  44.495  23.026   7.903
 2381POPC   C4A33498  44.370  23.007   7.460
 2381POPC   C1B33499  44.930  23.199   8.749
 2381POPC   C2B33500  44.788  23.175   8.334
 2381POPC   C3B33501  44.906  23.342   7.941
 2381POPC   C4B33502  44.712  23.351   7.546
 2382POPC   NC333503   7.430  21.706   9.460
 2382POPC   PO433504   7.329  22.357   9.459
 2382POPC   GL133505   7.563  22.347   9.099
 2382POPC   GL233506   7.504  21.986   9.021
 2382POPC   C1A33507   7.416  22.342   8.675
 2382POPC   D2A33508   7.415  21.984   8.418
 2382POPC   C3A33509   7.432  22.235   8.038
 2382POPC   C4A33510   7.534  22.355   7.647
 2382POPC   C1B33511   7.071  21.946   8.852
 2382POPC   C2B33512   6.921  21.832   8.413
 2382POPC   C3B33513   7.128  21.819   8.017
 2382POPC   C4B33514   7.138  22.018   7.639
 2383POPC   NC333515  38.127  11.590   9.280
 2383POPC   PO433516  38.470  11.170   9.736
 2383POPC   GL133517  38.523  11.161   9.252
 2383POPC   GL233518  38.584  11.456   9.088
 2383POPC   C1A33519  38.598  11.106   8.756
 2383POPC   D2A33520  38.391  11.090   8.341
 2383POPC   C3A33521  38.661  11.220   8.011
 2383POPC   C4A33522  38.608  11.453   7.633
 2383POPC   C1B33523  38.450  11.686   8.713
 2383POPC   C2B33524  38.425  11.630   8.270
 2383POPC   C3B33525  38.186  11.540   7.900
 2383POPC   C4B33526  38.132  11.694   7.461
 2384POPC   NC333527  17.780  37.555   9.503
 2384POPC   PO433528  18.490  37.557   9.536
 2384POPC   GL133529  18.312  37.558   9.103
 2384POPC   GL233530  18.084  37.805   9.084
 2384POPC   C1A33531  18.338  37.653   8.627
 2384POPC   D2A33532  18.670  37.622   8.276
 2384POPC   C3A33533  18.496  37.543   7.854
 2384POPC   C4A33534  18.190  37.589   7.494
 2384POPC   C1B33535  17.837  37.709   8.719
 2384POPC   C2B33536  17.944  37.433   8.354
 2384POPC   C3B33537  18.014  37.629   7.969
 2384POPC   C4B33538  17.707  37.773   7.671
 2385POPC   NC333539  32.920  14.594   9.421
 2385POPC   PO433540  32.940  13.957   9.331
 2385POPC   GL133541  32.847  14.246   9.053
 2385POPC   GL233542  33.150  14.355   9.017
 2385POPC   C1A33543  32.800  14.602   8.764
 2385POPC   D2A33544  32.697  14.404   8.397
 2385POPC   C3A33545  33.065  14.292   8.167
 2385POPC   C4A33546  33.122  14.555   7.852
 2385POPC   C1B33547  33.295  14.439   8.633
 2385POPC   C2B33548  33.578  14.184   8.466
 2385POPC   C3B33549  33.526  14.003   8.097
 2385POPC   C4B33550  33.297  14.089   7.724
 2386POPC   NC333551   5.812  10.890   9.523
 2386POPC   PO433552   5.516  11.367   9.868
 2386POPC   GL133553   5.672  11.368   9.377
 2386POPC   GL233554   5.942  11.164   9.140
 2386POPC   C1A33555   5.629  11.478   8.932
 2386POPC   D2A33556   5.590  11.334   8.509
 2386POPC   C3A33557   5.834  11.527   8.169
 2386POPC   C4A33558   5.782  11.561   7.739
 2386POPC   C1B33559   5.845  10.923   8.771
 2386POPC   C2B33560   5.989  11.030   8.353
 2386POPC   C3B33561   5.745  11.061   7.981
 2386POPC   C4B33562   5.849  11.065   7.554
 2387POPC   NC333563  23.977  13.076   9.466
 2387POPC   PO433564  23.690  12.482   9.461
 2387POPC   GL133565  23.536  12.767   9.183
 2387POPC   GL233566  23.801  12.863   9.045
 2387POPC   C1A33567  23.418  12.691   8.728
 2387POPC   D2A33568  23.130  12.690   8.369
 2387POPC   C3A33569  23.330  12.629   7.953
 2387POPC   C4A33570  23.343  12.920   7.601
 2387POPC   C1B33571  23.658  13.133   8.729
 2387POPC   C2B33572  23.511  13.076   8.312
 2387POPC   C3B33573  23.745  12.980   7.946
 2387POPC   C4B33574  24.166  12.889   7.784
 2388POPC   NC333575  10.649  40.445   9.505
 2388POPC   PO433576  10.259  41.054   9.610
 2388POPC   GL133577  10.395  40.953   9.179
 2388POPC   GL233578  10.258  40.632   9.210
 2388POPC   C1A33579  10.725  40.951   8.817
 2388POPC   D2A33580  10.871  40.940   8.356
 2388POPC   C3A33581  10.545  40.844   8.050
 2388POPC   C4A33582  10.434  40.627   7.693
 2388POPC   C1B33583  10.464  40.520   8.855
 2388POPC   C2B33584  10.581  40.468   8.447
 2388POPC   C3B33585  10.805  40.416   8.089
 2388POPC   C4B33586  10.873  40.379   7.663
 2389POPC   NC333587  39.510  43.059   9.289
 2389POPC   PO433588  40.180  42.900   9.360
 2389POPC   GL133589  39.990  43.125   9.066
 2389POPC   GL233590  39.890  43.456   9.155
 2389POPC   C1A33591  40.091  43.052   8.668
 2389POPC   D2A33592  39.852  43.049   8.327
 2389POPC   C3A33593  40.092  42.995   8.015
 2389POPC   C4A33594  40.288  43.101   7.671
 2389POPC   C1B33595  39.898  43.536   8.681
 2389POPC   C2B33596  39.922  43.595   8.209
 2389POPC   C3B33597  39.832  43.377   7.785
 2389POPC   C4B33598  39.619  43.260   7.365
 2390POPC   NC333599  39.569  16.806   9.498
 2390POPC   PO433600  38.929  16.989   9.476
 2390POPC   GL133601  39.174  16.959   9.169
 2390POPC   GL233602  39.189  16.627   9.181
 2390POPC   C1A33603  39.235  17.084   8.773
 2390POPC   D2A33604  39.257  16.861   8.418
 2390POPC   C3A33605  39.094  16.944   8.047
 2390POPC   C4A33606  39.421  16.888   7.767
 2390POPC   C1B33607  39.429  16.606   8.843
 2390POPC   C2B33608  39.462  16.400   8.465
 2390POPC   C3B33609  39.306  16.469   8.071
 2390POPC   C4B33610  39.630  16.388   7.816
 2391POPC   NC333611  10.225  19.330   9.487
 2391POPC   PO433612  10.750  18.805   9.329
 2391POPC   GL133613  10.486  19.125   9.106
 2391POPC   GL233614  10.091  19.086   9.043
 2391POPC   C1A33615  10.432  19.328   8.731
 2391POPC   D2A33616  10.477  19.214   8.310
 2391POPC   C3A33617  10.208  18.948   8.085
 2391POPC   C4A33618  10.397  18.915   7.712
 2391POPC   C1B33619   9.977  19.530   8.872
 2391POPC   C2B33620  10.060  19.722   8.458
 2391POPC   C3B33621  10.144  19.551   8.068
 2391POPC   C4B33622  10.364  19.437   7.703
 2392POPC   NC333623  20.487  33.646   9.453
 2392POPC   PO433624  20.967  34.111   9.498
 2392POPC   GL133625  20.774  34.002   9.133
 2392POPC   GL233626  20.418  33.976   9.077
 2392POPC   C1A33627  20.779  33.841   8.724
 2392POPC   D2A33628  20.546  33.910   8.390
 2392POPC   C3A33629  20.744  34.007   8.014
 2392POPC   C4A33630  20.504  33.877   7.688
 2392POPC   C1B33631  20.362  33.566   8.803
 2392POPC   C2B33632  20.143  33.592   8.385
 2392POPC   C3B33633  20.055  33.446   7.992
 2392POPC   C4B33634  20.214  33.419   7.599
 2393POPC   NC333635  11.021  42.032   9.540
 2393POPC   PO433636  11.607  41.612   9.559
 2393POPC   GL133637  11.330  41.549   9.223
 2393POPC   GL233638  11.316  41.889   9.149
 2393POPC   C1A33639  11.117  41.318   8.859
 2393POPC   D2A33640  11.174  41.374   8.420
 2393POPC   C3A33641  10.973  41.314   8.008
 2393POPC   C4A33642  11.297  41.280   7.666
 2393POPC   C1B33643  11.384  41.724   8.752
 2393POPC   C2B33644  11.395  41.854   8.371
 2393POPC   C3B33645  11.333  41.679   7.982
 2393POPC   C4B33646  11.357  41.856   7.599
 2394POPC   NC333647  18.909  24.804   9.569
 2394POPC   PO433648  18.877  24.149   9.518
 2394POPC   GL133649  18.986  24.361   9.138
 2394POPC   GL233650  19.040  24.716   9.106
 2394POPC   C1A33651  19.179  24.169   8.800
 2394POPC   D2A33652  19.080  24.191   8.390
 2394POPC   C3A33653  19.401  24.265   8.087
 2394POPC   C4A33654  19.345  24.030   7.699
 2394POPC   C1B33655  19.158  24.696   8.718
 2394POPC   C2B33656  18.963  24.679   8.340
 2394POPC   C3B33657  18.979  24.495   7.939
 2394POPC   C4B33658  19.304  24.534   7.629
 2395POPC   NC333659  33.472  38.277   9.424
 2395POPC   PO433660  33.869  38.827   9.265
 2395POPC   GL133661  33.648  38.700   8.928
 2395POPC   GL233662  33.706  38.319   8.959
 2395POPC   C1A33663  33.697  38.643   8.492
 2395POPC   D2A33664  33.657  38.240   8.287
 2395POPC   C3A33665  33.804  38.303   7.904
 2395POPC   C4A33666  33.953  38.670   7.669
 2395POPC   C1B33667  33.338  38.330   8.691
 2395POPC   C2B33668  33.175  38.626   8.384
 2395POPC   C3B33669  33.401  38.645   8.011
 2395POPC   C4B33670  33.458  38.506   7.604
 2396POPC   NC333671  22.443  14.047   9.275
 2396POPC   PO433672  22.161  14.599   9.478
 2396POPC   GL133673  22.261  14.487   9.060
 2396POPC   GL233674  22.002  14.253   9.083
 2396POPC   C1A33675  22.265  14.582   8.610
 2396POPC   D2A33676  21.979  14.620   8.281
 2396POPC   C3A33677  22.129  14.519   7.949
 2396POPC   C4A33678  21.948  14.637   7.604
 2396POPC   C1B33679  21.848  14.303   8.669
 2396POPC   C2B33680  21.961  14.113   8.255
 2396POPC   C3B33681  21.874  14.096   7.799
 2396POPC   C4B33682  21.629  14.292   7.458
 2397POPC   NC333683   4.639  14.963   9.382
 2397POPC   PO433684   4.002  15.306   9.584
 2397POPC   GL133685   4.035  15.248   9.141
 2397POPC   GL233686   4.206  15.579   9.103
 2397POPC   C1A33687   4.171  15.176   8.691
 2397POPC   D2A33688   4.104  15.358   8.267
 2397POPC   C3A33689   4.193  15.094   7.948
 2397POPC   C4A33690   4.594  14.908   7.868
 2397POPC   C1B33691   4.586  15.437   8.872
 2397POPC   C2B33692   4.668  15.308   8.448
 2397POPC   C3B33693   4.594  15.418   8.023
 2397POPC   C4B33694   4.435  15.345   7.586
 2398POPC   NC333695  33.256  40.054   9.582
 2398POPC   PO433696  33.325  39.437   9.496
 2398POPC   GL133697  32.960  39.702   9.315
 2398POPC   GL233698  33.131  39.936   9.099
 2398POPC   C1A33699  32.691  39.715   8.912
 2398POPC   D2A33700  32.801  39.837   8.453
 2398POPC   C3A33701  32.863  39.624   8.033
 2398POPC   C4A33702  32.841  39.878   7.641
 2398POPC   C1B33703  33.151  40.134   8.682
 2398POPC   C2B33704  33.337  40.067   8.277
 2398POPC   C3B33705  33.283  39.909   7.857
 2398POPC   C4B33706  33.287  40.077   7.420
 2399POPC   NC333707   8.490   0.311   9.364
 2399POPC   PO433708   8.923   0.728   9.742
 2399POPC   GL133709   8.875   0.663   9.298
 2399POPC   GL233710   9.048   0.359   9.264
 2399POPC   C1A33711   8.625   0.705   8.875
 2399POPC   D2A33712   8.639   0.476   8.490
 2399POPC   C3A33713   8.774   0.745   8.198
 2399POPC   C4A33714   8.873   0.657   7.768
 2399POPC   C1B33715   9.095   0.428   8.820
 2399POPC   C2B33716   9.129   0.302   8.378
 2399POPC   C3B33717   8.849   0.220   8.059
 2399POPC   C4B33718   8.882   0.075   7.666
 2400POPC   NC333719   0.030  10.480   9.487
 2400POPC   PO433720  44.839  11.074   9.533
 2400POPC   GL133721  44.813  10.785   9.133
 2400POPC   GL233722  44.585  10.497   9.076
 2400POPC   C1A33723  44.794  10.754   8.661
 2400POPC   D2A33724  44.799  10.385   8.387
 2400POPC   C3A33725  44.795  10.458   7.935
 2400POPC   C4A33726  44.656  10.441   7.515
 2400POPC   C1B33727  44.358  10.523   8.651
 2400POPC   C2B33728  44.459  10.723   8.222
 2400POPC   C3B33729  44.269  10.594   7.825
 2400POPC   C4B33730  44.155  10.567   7.367
 2401POPC   NC333731   5.071  32.404   9.534
 2401POPC   PO433732   4.531  32.030   9.610
 2401POPC   GL133733   4.655  32.292   9.232
 2401POPC   GL233734   4.836  32.632   9.159
 2401POPC   C1A33735   4.910  32.247   8.844
 2401POPC   D2A33736   4.933  32.051   8.453
 2401POPC   C3A33737   4.903  32.272   8.082
 2401POPC   C4A33738   5.075  32.026   7.721
 2401POPC   C1B33739   5.246  32.639   8.885
 2401POPC   C2B33740   5.398  32.592   8.442
 2401POPC   C3B33741   5.402  32.353   8.040
 2401POPC   C4B33742   5.433  32.386   7.593
 2402POPC   NC333743  41.100  29.628   9.441
 2402POPC   PO433744  41.809  29.845   9.569
 2402POPC   GL133745  41.740  30.110   9.200
 2402POPC   GL233746  41.363  30.070   9.208
 2402POPC   C1A33747  41.833  29.987   8.747
 2402POPC   D2A33748  41.651  29.725   8.384
 2402POPC   C3A33749  41.720  29.916   7.966
 2402POPC   C4A33750  42.034  30.168   7.803
 2402POPC   C1B33751  41.402  30.264   8.803
 2402POPC   C2B33752  41.516  30.231   8.396
 2402POPC   C3B33753  41.492  30.376   8.001
 2402POPC   C4B33754  41.339  30.134   7.657
 2403POPC   NC333755  37.076  26.038   9.467
 2403POPC   PO433756  36.805  26.614   9.747
 2403POPC   GL133757  36.757  26.366   9.279
 2403POPC   GL233758  36.510  26.111   9.296
 2403POPC   C1A33759  36.928  26.094   8.850
 2403POPC   D2A33760  37.078  26.262   8.435
 2403POPC   C3A33761  36.968  26.102   8.035
 2403POPC   C4A33762  36.652  26.197   7.706
 2403POPC   C1B33763  36.422  26.068   8.853
 2403POPC   C2B33764  36.623  25.945   8.474
 2403POPC   C3B33765  36.529  25.849   8.085
 2403POPC   C4B33766  36.776  25.572   7.847
 2404POPC   NC333767   1.950  37.452   9.598
 2404POPC   PO433768   1.786  38.016   9.616
 2404POPC   GL133769   1.767  37.855   9.196
 2404POPC   GL233770   2.076  37.674   9.125
 2404POPC   C1A33771   1.712  37.739   8.749
 2404POPC   D2A33772   1.971  37.555   8.422
 2404POPC   C3A33773   1.830  37.359   8.079
 2404POPC   C4A33774   1.622  37.573   7.782
 2404POPC   C1B33775   2.251  37.849   8.728
 2404POPC   C2B33776   2.153  38.022   8.300
 2404POPC   C3B33777   2.128  38.006   7.841
 2404POPC   C4B33778   2.525  37.882   7.605
 2405POPC   NC333779   3.259  27.421   9.679
 2405POPC   PO433780   3.554  27.961   9.447
 2405POPC   GL133781   3.429  27.785   9.073
 2405POPC   GL233782   3.329  27.441   9.135
 2405POPC   C1A33783   3.431  27.906   8.628
 2405POPC   D2A33784   3.565  27.933   8.197
 2405POPC   C3A33785   3.433  27.636   7.853
 2405POPC   C4A33786   3.468  27.760   7.371
 2405POPC   C1B33787   3.652  27.454   8.770
 2405POPC   C2B33788   3.643  27.358   8.321
 2405POPC   C3B33789   3.702  27.180   7.922
 2405POPC   C4B33790   3.575  27.284   7.503
 2406POPC   NC333791  19.766  23.459   9.465
 2406POPC   PO433792  19.795  24.089   9.363
 2406POPC   GL133793  19.808  23.827   9.042
 2406POPC   GL233794  19.603  23.522   8.979
 2406POPC   C1A33795  19.802  23.922   8.616
 2406POPC   D2A33796  19.855  24.088   8.225
 2406POPC   C3A33797  19.802  23.843   7.903
 2406POPC   C4A33798  19.765  23.839   7.472
 2406POPC   C1B33799  19.990  23.453   8.741
 2406POPC   C2B33800  20.072  23.574   8.300
 2406POPC   C3B33801  19.936  23.358   7.907
 2406POPC   C4B33802  19.853  23.332   7.426
 2407POPC   NC333803  29.647   1.106   9.526
 2407POPC   PO433804  29.906   1.668   9.365
 2407POPC   GL133805  29.839   1.339   9.105
 2407POPC   GL233806  30.090   1.110   9.205
 2407POPC   C1A33807  29.856   1.121   8.725
 2407POPC   D2A33808  29.643   1.122   8.352
 2407POPC   C3A33809  29.678   1.464   8.041
 2407POPC   C4A33810  29.819   1.602   7.625
 2407POPC   C1B33811  30.356   1.045   8.839
 2407POPC   C2B33812  30.266   0.908   8.412
 2407POPC   C3B33813  30.091   1.144   8.123
 2407POPC   C4B33814  29.883   1.108   7.729
 2408POPC   NC333815  15.117   0.681   9.356
 2408POPC   PO433816  15.338   0.131   9.628
 2408POPC   GL133817  15.411   0.256   9.190
 2408POPC   GL233818  15.060   0.326   9.005
 2408POPC   C1A33819  15.447   0.176   8.740
 2408POPC   D2A33820  15.045   0.264   8.488
 2408POPC   C3A33821  15.177   0.347   8.069
 2408POPC   C4A33822  15.406   0.120   7.776
 2408POPC   C1B33823  15.007   0.730   8.736
 2408POPC   C2B33824  14.954   0.934   8.334
 2408POPC   C3B33825  14.963   0.792   7.916
 2408POPC   C4B33826  14.683   0.776   7.589
 2409POPC   NC333827  13.347  31.140   9.429
 2409POPC   PO433828  13.974  31.292   9.315
 2409POPC   GL133829  13.639  31.365   9.061
 2409POPC   GL233830  13.649  31.724   9.067
 2409POPC   C1A33831  13.671  31.298   8.635
 2409POPC   D2A33832  13.810  31.586   8.316
 2409POPC   C3A33833  13.758  31.481   7.887
 2409POPC   C4A33834  13.672  31.244   7.539
 2409POPC   C1B33835  13.420  31.748   8.699
 2409POPC   C2B33836  13.197  31.765   8.294
 2409POPC   C3B33837  13.274  31.656   7.882
 2409POPC   C4B33838  13.482  31.721   7.482
 2410POPC   NC333839  19.132  27.289   9.501
 2410POPC   PO433840  18.921  27.913   9.443
 2410POPC   GL133841  18.931  27.678   9.098
 2410POPC   GL233842  19.307  27.582   9.104
 2410POPC   C1A33843  18.755  27.812   8.690
 2410POPC   D2A33844  18.820  27.636   8.306
 2410POPC   C3A33845  18.589  27.839   8.055
 2410POPC   C4A33846  18.709  27.698   7.708
 2410POPC   C1B33847  19.177  27.518   8.674
 2410POPC   C2B33848  19.321  27.581   8.235
 2410POPC   C3B33849  19.170  27.472   7.819
 2410POPC   C4B33850  19.128  27.769   7.443
 2411POPC   NC333851  26.586   5.233  10.236
 2411POPC   PO433852  26.940   5.132   9.672
 2411POPC   GL133853  26.968   5.324   9.235
 2411POPC   GL233854  26.790   5.036   9.126
 2411POPC   C1A33855  26.914   5.424   8.756
 2411POPC   D2A33856  26.678   5.157   8.508
 2411POPC   C3A33857  26.831   4.909   8.185
 2411POPC   C4A33858  26.487   5.034   7.941
 2411POPC   C1B33859  27.058   4.951   8.780
 2411POPC   C2B33860  27.336   4.776   8.512
 2411POPC   C3B33861  27.207   4.560   8.175
 2411POPC   C4B33862  27.097   4.671   7.766
 2412POPC   NC333863   1.145  15.612   9.638
 2412POPC   PO433864   0.987  16.264   9.546
 2412POPC   GL133865   1.285  16.002   9.273
 2412POPC   GL233866   1.622  16.128   9.167
 2412POPC   C1A33867   1.316  15.909   8.823
 2412POPC   D2A33868   1.085  15.945   8.435
 2412POPC   C3A33869   1.280  15.824   8.060
 2412POPC   C4A33870   1.088  15.640   7.706
 2412POPC   C1B33871   1.453  16.410   8.848
 2412POPC   C2B33872   1.327  16.386   8.424
 2412POPC   C3B33873   1.132  16.307   8.036
 2412POPC   C4B33874   1.348  16.147   7.666
 2413POPC   NC333875   3.108  14.720   9.876
 2413POPC   PO433876   2.720  15.088   9.382
 2413POPC   GL133877   2.905  15.233   9.071
 2413POPC   GL233878   3.011  15.589   9.094
 2413POPC   C1A33879   2.945  15.084   8.685
 2413POPC   D2A33880   2.572  15.105   8.465
 2413POPC   C3A33881   2.598  14.956   8.059
 2413POPC   C4A33882   2.403  14.631   7.774
 2413POPC   C1B33883   2.702  15.572   8.761
 2413POPC   C2B33884   2.896  15.497   8.395
 2413POPC   C3B33885   2.706  15.490   8.040
 2413POPC   C4B33886   2.897  15.309   7.723
 2414POPC   NC333887   4.305   2.761   9.657
 2414POPC   PO433888   4.729   2.361   9.382
 2414POPC   GL133889   4.473   2.555   9.075
 2414POPC   GL233890   4.146   2.559   9.166
 2414POPC   C1A33891   4.354   2.829   8.700
 2414POPC   D2A33892   4.246   2.959   8.266
 2414POPC   C3A33893   4.533   2.854   7.906
 2414POPC   C4A33894   4.646   3.049   7.493
 2414POPC   C1B33895   4.147   2.353   8.724
 2414POPC   C2B33896   4.323   2.443   8.316
 2414POPC   C3B33897   4.093   2.543   7.939
 2414POPC   C4B33898   3.984   2.521   7.493
 2415POPC   NC333899  33.442  42.703   9.542
 2415POPC   PO433900  34.130  42.653   9.474
 2415POPC   GL133901  34.007  42.452   9.110
 2415POPC   GL233902  33.720  42.257   9.237
 2415POPC   C1A33903  33.654  42.530   8.806
 2415POPC   D2A33904  33.474  42.314   8.456
 2415POPC   C3A33905  33.467  42.502   8.062
 2415POPC   C4A33906  33.801  42.391   7.860
 2415POPC   C1B33907  33.513  42.011   8.891
 2415POPC   C2B33908  33.340  41.806   8.498
 2415POPC   C3B33909  33.521  41.927   8.075
 2415POPC   C4B33910  33.951  41.896   7.809
 2416POPC   NC333911   7.040  39.052   9.644
 2416POPC   PO433912   6.859  39.581   9.321
 2416POPC   GL133913   6.648  39.301   9.080
 2416POPC   GL233914   6.897  39.077   9.162
 2416POPC   C1A33915   6.549  39.386   8.656
 2416POPC   D2A33916   6.679  39.573   8.256
 2416POPC   C3A33917   6.678  39.312   7.893
 2416POPC   C4A33918   6.803  39.260   7.472
 2416POPC   C1B33919   6.829  38.917   8.759
 2416POPC   C2B33920   6.655  38.978   8.342
 2416POPC   C3B33921   6.815  38.809   7.989
 2416POPC   C4B33922   7.058  38.830   7.620
 2417POPC   NC333923  39.783  14.152   9.418
 2417POPC   PO433924  39.396  14.684   9.391
 2417POPC   GL133925  39.714  14.570   9.080
 2417POPC   GL233926  40.085  14.447   9.098
 2417POPC   C1A33927  39.899  14.691   8.678
 2417POPC   D2A33928  39.845  14.514   8.298
 2417POPC   C3A33929  40.066  14.620   7.943
 2417POPC   C4A33930  39.908  14.908   7.689
 2417POPC   C1B33931  39.864  14.176   8.777
 2417POPC   C2B33932  39.670  14.043   8.380
 2417POPC   C3B33933  39.702  14.166   7.951
 2417POPC   C4B33934  39.561  14.416   7.655
 2418POPC   NC333935  26.610  14.767   9.515
 2418POPC   PO433936  26.745  15.476   9.477
 2418POPC   GL133937  27.003  15.311   9.149
 2418POPC   GL233938  27.163  14.945   9.235
 2418POPC   C1A33939  26.958  15.503   8.751
 2418POPC   D2A33940  26.886  15.749   8.378
 2418POPC   C3A33941  26.846  15.481   8.020
 2418POPC   C4A33942  26.547  15.443   7.694
 2418POPC   C1B33943  26.910  14.924   8.839
 2418POPC   C2B33944  26.909  15.079   8.417
 2418POPC   C3B33945  26.789  14.953   8.009
 2418POPC   C4B33946  27.031  15.098   7.671
 2419POPC   NC333947   2.404  24.306   9.627
 2419POPC   PO433948   2.998  24.652   9.466
 2419POPC   GL133949   2.795  24.599   9.106
 2419POPC   GL233950   2.527  24.408   9.142
 2419POPC   C1A33951   2.703  24.733   8.712
 2419POPC   D2A33952   2.538  24.555   8.351
 2419POPC   C3A33953   2.740  24.463   8.007
 2419POPC   C4A33954   2.641  24.726   7.676
 2419POPC   C1B33955   2.696  24.216   8.754
 2419POPC   C2B33956   2.677  24.059   8.332
 2419POPC   C3B33957   2.458  24.058   7.902
 2419POPC   C4B33958   2.473  24.008   7.443
 2420POPC   NC333959  21.974  38.376   9.436
 2420POPC   PO433960  22.509  38.803   9.482
 2420POPC   GL133961  22.342  38.532   9.120
 2420POPC   GL233962  22.373  38.172   9.170
 2420POPC   C1A33963  21.979  38.521   8.790
 2420POPC   D2A33964  22.087  38.671   8.383
 2420POPC   C3A33965  21.906  38.571   7.992
 2420POPC   C4A33966  22.079  38.700   7.539
 2420POPC   C1B33967  22.255  38.108   8.723
 2420POPC   C2B33968  22.248  38.201   8.266
 2420POPC   C3B33969  22.395  38.483   7.955
 2420POPC   C4B33970  22.360  38.274   7.588
 2421POPC   NC333971   7.966  43.688   9.563
 2421POPC   PO433972   8.569  44.114   9.494
 2421POPC   GL133973   8.354  43.881   9.225
 2421POPC   GL233974   8.055  44.045   9.207
 2421POPC   C1A33975   8.373  43.768   8.805
 2421POPC   D2A33976   8.591  43.967   8.472
 2421POPC   C3A33977   8.448  44.064   8.060
 2421POPC   C4A33978   8.347  43.702   7.808
 2421POPC   C1B33979   7.906  44.048   8.807
 2421POPC   C2B33980   8.071  43.969   8.426
 2421POPC   C3B33981   7.951  43.901   8.040
 2421POPC   C4B33982   8.063  44.172   7.727
 2422POPC   NC333983  22.631  31.054   9.456
 2422POPC   PO433984  22.975  30.419   9.549
 2422POPC   GL133985  23.005  30.714   9.246
 2422POPC   GL233986  22.701  30.620   9.136
 2422POPC   C1A33987  23.003  30.878   8.825
 2422POPC   D2A33988  22.932  30.747   8.415
 2422POPC   C3A33989  23.060  30.965   8.046
 2422POPC   C4A33990  23.160  30.891   7.634
 2422POPC   C1B33991  22.493  30.793   8.790
 2422POPC   C2B33992  22.488  30.995   8.391
 2422POPC   C3B33993  22.549  30.722   8.046
 2422POPC   C4B33994  22.610  30.575   7.634
 2423POPC   NC333995  18.331  30.361   9.742
 2423POPC   PO433996  18.606  29.769   9.370
 2423POPC   GL133997  18.271  29.870   9.084
 2423POPC   GL233998  18.116  30.213   9.060
 2423POPC   C1A33999  18.213  29.928   8.640
 2423POPC   D2A34000  18.333  30.188   8.302
 2423POPC   C3A34001  18.333  30.011   7.869
 2423POPC   C4A34002  18.594  30.109   7.467
 2423POPC   C1B34003  17.977  30.403   8.649
 2423POPC   C2B34004  17.847  30.334   8.198
 2423POPC   C3B34005  17.807  30.097   7.797
 2423POPC   C4B34006  17.892  29.752   7.477
 2424POPC   NC334007  32.601  44.690   9.445
 2424POPC   PO434008  33.188  44.485   9.674
 2424POPC   GL134009  33.098  44.638   9.269
 2424POPC   GL234010  33.284  44.374   9.165
 2424POPC   C1A34011  32.872  44.546   8.855
 2424POPC   D2A34012  32.940  44.816   8.470
 2424POPC   C3A34013  32.779  44.687   8.080
 2424POPC   C4A34014  32.796  44.460   7.699
 2424POPC   C1B34015  33.346  44.646   8.780
 2424POPC   C2B34016  33.283  44.429   8.401
 2424POPC   C3B34017  33.260  44.489   7.984
 2424POPC   C4B34018  33.205  44.873   7.793
 2425POPC   NC334019  11.496  28.899   9.645
 2425POPC   PO434020  11.098  29.409   9.520
 2425POPC   GL134021  11.438  29.344   9.251
 2425POPC   GL234022  11.485  29.025   9.128
 2425POPC   C1A34023  11.600  29.469   8.857
 2425POPC   D2A34024  11.555  29.230   8.497
 2425POPC   C3A34025  11.698  29.419   8.097
 2425POPC   C4A34026  11.607  29.284   7.697
 2425POPC   C1B34027  11.152  29.212   8.853
 2425POPC   C2B34028  11.058  29.168   8.438
 2425POPC   C3B34029  11.234  29.154   8.059
 2425POPC   C4B34030  11.122  29.097   7.649
 2426POPC   NC334031  33.962  33.801   9.689
 2426POPC   PO434032  33.653  33.403   9.262
 2426POPC   GL134033  33.792  33.785   9.160
 2426POPC   GL234034  33.627  34.070   9.337
 2426POPC   C1A34035  33.741  33.786   8.709
 2426POPC   D2A34036  33.946  33.638   8.374
 2426POPC   C3A34037  33.785  33.789   8.014
 2426POPC   C4A34038  33.748  33.603   7.647
 2426POPC   C1B34039  33.753  34.236   8.923
 2426POPC   C2B34040  34.077  34.167   8.555
 2426POPC   C3B34041  34.235  34.022   8.133
 2426POPC   C4B34042  34.085  34.078   7.696
 2427POPC   NC334043   0.101  24.862   9.477
 2427POPC   PO434044   0.339  25.563   9.546
 2427POPC   GL134045   0.474  25.382   9.159
 2427POPC   GL234046   0.431  25.042   9.137
 2427POPC   C1A34047   0.252  25.486   8.799
 2427POPC   D2A34048   0.220  25.708   8.425
 2427POPC   C3A34049   0.529  25.562   8.150
 2427POPC   C4A34050   0.625  25.359   7.786
 2427POPC   C1B34051   0.391  24.876   8.739
 2427POPC   C2B34052   0.627  24.756   8.389
 2427POPC   C3B34053   0.521  24.939   8.061
 2427POPC   C4B34054   0.387  24.818   7.691
 2428POPC   NC334055   1.017  31.862   9.346
 2428POPC   PO434056   1.623  32.154   9.498
 2428POPC   GL134057   1.416  32.314   9.125
 2428POPC   GL234058   1.061  32.268   9.070
 2428POPC   C1A34059   1.482  32.207   8.713
 2428POPC   D2A34060   1.315  32.167   8.333
 2428POPC   C3A34061   1.581  32.261   8.005
 2428POPC   C4A34062   1.452  32.307   7.617
 2428POPC   C1B34063   0.954  32.038   8.691
 2428POPC   C2B34064   0.874  31.898   8.257
 2428POPC   C3B34065   1.011  32.108   7.872
 2428POPC   C4B34066   0.773  32.424   7.613
 2429POPC   NC334067  35.553  28.309   9.505
 2429POPC   PO434068  35.023  28.055   9.366
 2429POPC   GL134069  35.237  28.346   9.105
 2429POPC   GL234070  35.383  28.699   9.193
 2429POPC   C1A34071  35.510  28.196   8.803
 2429POPC   D2A34072  35.319  28.247   8.425
 2429POPC   C3A34073  35.471  28.091   8.061
 2429POPC   C4A34074  35.746  28.328   7.792
 2429POPC   C1B34075  35.565  28.686   8.760
 2429POPC   C2B34076  35.685  28.581   8.330
 2429POPC   C3B34077  35.382  28.607   8.010
 2429POPC   C4B34078  35.379  28.978   7.800
 2430POPC   NC334079  39.938   2.233   9.609
 2430POPC   PO434080  40.276   1.692   9.778
 2430POPC   GL134081  40.066   1.854   9.299
 2430POPC   GL234082  39.887   1.541   9.213
 2430POPC   C1A34083  40.057   2.171   8.864
 2430POPC   D2A34084  40.155   2.103   8.380
 2430POPC   C3A34085  40.040   2.303   7.948
 2430POPC   C4A34086  40.111   2.146   7.493
 2430POPC   C1B34087  40.048   1.651   8.796
 2430POPC   C2B34088  40.441   1.699   8.608
 2430POPC   C3B34089  40.426   1.696   8.196
 2430POPC   C4B34090  40.186   1.805   7.849
 2431POPC   NC334091  15.490  21.081   9.546
 2431POPC   PO434092  15.440  20.400   9.640
 2431POPC   GL134093  15.243  20.576   9.236
 2431POPC   GL234094  15.039  20.883   9.238
 2431POPC   C1A34095  14.964  20.499   8.855
 2431POPC   D2A34096  14.781  20.295   8.477
 2431POPC   C3A34097  14.995  20.446   8.115
 2431POPC   C4A34098  15.358  20.287   7.902
 2431POPC   C1B34099  15.274  20.915   8.831
 2431POPC   C2B34100  15.396  20.743   8.416
 2431POPC   C3B34101  15.356  20.816   7.964
 2431POPC   C4B34102  15.170  20.898   7.545
 2432POPC   NC334103   4.333  27.025   9.696
 2432POPC   PO434104   3.732  27.081   9.571
 2432POPC   GL134105   4.057  27.143   9.231
 2432POPC   GL234106   4.440  27.083   9.181
 2432POPC   C1A34107   4.088  27.144   8.780
 2432POPC   D2A34108   4.176  26.938   8.390
 2432POPC   C3A34109   4.227  27.177   8.006
 2432POPC   C4A34110   4.452  26.901   7.765
 2432POPC   C1B34111   4.449  26.746   8.844
 2432POPC   C2B34112   4.490  26.519   8.433
 2432POPC   C3B34113   4.658  26.506   7.999
 2432POPC   C4B34114   4.704  26.532   7.515
 2433POPC   NC334115  15.010  30.338   9.486
 2433POPC   PO434116  15.490  30.796   9.603
 2433POPC   GL134117  15.176  30.810   9.276
 2433POPC   GL234118  15.339  30.513   9.131
 2433POPC   C1A34119  15.102  30.879   8.837
 2433POPC   D2A34120  15.266  30.794   8.425
 2433POPC   C3A34121  15.053  30.800   8.035
 2433POPC   C4A34122  14.985  30.853   7.604
 2433POPC   C1B34123  15.311  30.380   8.712
 2433POPC   C2B34124  15.461  30.311   8.286
 2433POPC   C3B34125  15.265  30.270   7.878
 2433POPC   C4B34126  14.867  30.375   7.742
 2434POPC   NC334127   2.446   4.696   9.463
 2434POPC   PO434128   1.936   4.312   9.714
 2434POPC   GL134129   2.175   4.217   9.267
 2434POPC   GL234130   2.293   4.458   9.042
 2434POPC   C1A34131   1.982   4.178   8.785
 2434POPC   D2A34132   2.017   4.170   8.346
 2434POPC   C3A34133   1.850   4.388   7.977
 2434POPC   C4A34134   1.903   4.216   7.549
 2434POPC   C1B34135   2.474   4.315   8.618
 2434POPC   C2B34136   2.445   4.387   8.147
 2434POPC   C3B34137   2.279   4.568   7.745
 2434POPC   C4B34138   2.184   4.563   7.302
 2435POPC   NC334139  11.920  19.590   9.415
 2435POPC   PO434140  12.307  19.019   9.564
 2435POPC   GL134141  12.074  19.051   9.171
 2435POPC   GL234142  11.724  18.920   9.149
 2435POPC   C1A34143  12.033  18.904   8.740
 2435POPC   D2A34144  11.889  19.110   8.390
 2435POPC   C3A34145  11.846  18.862   8.050
 2435POPC   C4A34146  12.031  18.650   7.708
 2435POPC   C1B34147  11.709  19.312   8.839
 2435POPC   C2B34148  11.638  19.555   8.429
 2435POPC   C3B34149  11.671  19.419   8.015
 2435POPC   C4B34150  11.844  19.187   7.674
 2436POPC   NC334151  29.472  29.843   9.596
 2436POPC   PO434152  28.751  29.708   9.489
 2436POPC   GL134153  28.965  29.812   9.097
 2436POPC   GL234154  29.378  29.856   9.049
 2436POPC   C1A34155  29.008  29.830   8.679
 2436POPC   D2A34156  29.344  29.683   8.432
 2436POPC   C3A34157  29.178  29.678   8.046
 2436POPC   C4A34158  29.075  29.974   7.702
 2436POPC   C1B34159  29.420  30.136   8.649
 2436POPC   C2B34160  29.171  30.153   8.246
 2436POPC   C3B34161  29.204  30.417   7.877
 2436POPC   C4B34162  28.961  30.510   7.492
 2437POPC   NC334163  22.340  34.968   9.417
 2437POPC   PO434164  22.338  35.639   9.432
 2437POPC   GL134165  22.254  35.344   9.109
 2437POPC   GL234166  21.903  35.212   9.113
 2437POPC   C1A34167  22.236  35.168   8.700
 2437POPC   D2A34168  21.967  35.140   8.321
 2437POPC   C3A34169  22.153  35.251   7.922
 2437POPC   C4A34170  22.455  35.367   7.628
 2437POPC   C1B34171  21.977  35.629   8.835
 2437POPC   C2B34172  22.192  35.607   8.453
 2437POPC   C3B34173  22.183  35.742   8.038
 2437POPC   C4B34174  22.025  35.698   7.621
 2438POPC   NC334175  43.032  27.063   9.448
 2438POPC   PO434176  43.556  26.704   9.456
 2438POPC   GL134177  43.190  26.654   9.165
 2438POPC   GL234178  43.299  26.355   8.996
 2438POPC   C1A34179  42.966  26.913   8.812
 2438POPC   D2A34180  43.136  26.892   8.401
 2438POPC   C3A34181  42.947  26.970   8.029
 2438POPC   C4A34182  43.032  27.019   7.630
 2438POPC   C1B34183  42.972  26.421   8.676
 2438POPC   C2B34184  43.001  26.437   8.218
 2438POPC   C3B34185  43.325  26.606   7.898
 2438POPC   C4B34186  43.300  26.614   7.416
 2439POPC   NC334187  43.247  32.224   9.594
 2439POPC   PO434188  42.620  32.419   9.537
 2439POPC   GL134189  42.894  32.146   9.228
 2439POPC   GL234190  43.216  32.321   9.114
 2439POPC   C1A34191  43.095  31.936   8.819
 2439POPC   D2A34192  43.307  31.995   8.416
 2439POPC   C3A34193  43.188  32.157   7.998
 2439POPC   C4A34194  43.254  31.855   7.692
 2439POPC   C1B34195  43.202  32.549   8.755
 2439POPC   C2B34196  43.358  32.499   8.355
 2439POPC   C3B34197  43.261  32.686   7.979
 2439POPC   C4B34198  43.450  32.726   7.594
 2440POPC   NC334199  21.611  22.287   9.360
 2440POPC   PO434200  22.172  21.962   9.635
 2440POPC   GL134201  22.118  22.095   9.210
 2440POPC   GL234202  21.876  21.907   9.098
 2440POPC   C1A34203  22.180  22.028   8.736
 2440POPC   D2A34204  22.377  22.026   8.362
 2440POPC   C3A34205  22.343  22.353   8.100
 2440POPC   C4A34206  22.307  22.215   7.698
 2440POPC   C1B34207  21.744  21.716   8.730
 2440POPC   C2B34208  21.638  21.861   8.336
 2440POPC   C3B34209  21.941  21.972   8.044
 2440POPC   C4B34210  21.962  21.746   7.681
 2441POPC   NC334211  39.289  44.004   9.528
 2441POPC   PO434212  39.582  43.509   9.791
 2441POPC   GL134213  39.641  43.902   9.201
 2441POPC   GL234214  39.255  43.924   9.037
 2441POPC   C1A34215  39.633  43.987   8.740
 2441POPC   D2A34216  39.435  44.138   8.357
 2441POPC   C3A34217  39.408  43.831   8.028
 2441POPC   C4A34218  39.519  43.745   7.587
 2441POPC   C1B34219  39.183  43.752   8.614
 2441POPC   C2B34220  38.968  43.532   8.261
 2441POPC   C3B34221  38.644  43.585   7.988
 2441POPC   C4B34222  38.706  43.632   7.564
 2442POPC   NC334223  17.423  38.479   9.367
 2442POPC   PO434224  17.820  38.014   9.459
 2442POPC   GL134225  17.707  38.165   9.041
 2442POPC   GL234226  17.762  38.527   8.969
 2442POPC   C1A34227  17.648  38.199   8.588
 2442POPC   D2A34228  17.638  38.422   8.191
 2442POPC   C3A34229  17.519  38.221   7.812
 2442POPC   C4A34230  17.606  38.197   7.383
 2442POPC   C1B34231  17.950  38.638   8.565
 2442POPC   C2B34232  17.994  38.798   8.162
 2442POPC   C3B34233  17.835  38.627   7.756
 2442POPC   C4B34234  17.962  38.592   7.343
 2443POPC   NC334235   8.750  39.488   9.638
 2443POPC   PO434236   8.828  38.850   9.403
 2443POPC   GL134237   8.876  39.275   9.164
 2443POPC   GL234238   8.664  39.571   9.136
 2443POPC   C1A34239   9.071  39.459   8.783
 2443POPC   D2A34240   9.325  39.279   8.451
 2443POPC   C3A34241   9.053  39.114   8.163
 2443POPC   C4A34242   9.054  39.086   7.739
 2443POPC   C1B34243   8.554  39.376   8.763
 2443POPC   C2B34244   8.574  39.062   8.448
 2443POPC   C3B34245   8.556  39.108   8.015
 2443POPC   C4B34246   8.643  39.325   7.610
 2444POPC   NC334247  15.424  22.689   9.493
 2444POPC   PO434248  14.974  23.198   9.518
 2444POPC   GL134249  15.174  23.014   9.155
 2444POPC   GL234250  15.540  23.073   9.131
 2444POPC   C1A34251  15.141  22.851   8.731
 2444POPC   D2A34252  15.157  22.931   8.277
 2444POPC   C3A34253  15.034  22.807   7.849
 2444POPC   C4A34254  15.348  22.693   7.563
 2444POPC   C1B34255  15.434  23.271   8.724
 2444POPC   C2B34256  15.517  23.292   8.277
 2444POPC   C3B34257  15.435  23.142   7.887
 2444POPC   C4B34258  15.606  23.137   7.486
 2445POPC   NC334259  12.389  28.936   9.324
 2445POPC   PO434260  11.828  29.217   9.529
 2445POPC   GL134261  11.984  29.168   9.106
 2445POPC   GL234262  12.249  29.418   9.101
 2445POPC   C1A34263  12.108  28.903   8.721
 2445POPC   D2A34264  11.977  29.049   8.305
 2445POPC   C3A34265  11.891  28.892   7.898
 2445POPC   C4A34266  12.046  29.014   7.486
 2445POPC   C1B34267  12.126  29.435   8.672
 2445POPC   C2B34268  12.315  29.434   8.271
 2445POPC   C3B34269  12.172  29.353   7.848
 2445POPC   C4B34270  12.312  29.462   7.418
 2446POPC   NC334271  29.425  36.999   9.618
 2446POPC   PO434272  28.915  36.418   9.536
 2446POPC   GL134273  28.843  36.664   9.086
 2446POPC   GL234274  29.029  37.003   9.076
 2446POPC   C1A34275  28.932  36.829   8.625
 2446POPC   D2A34276  29.354  36.734   8.449
 2446POPC   C3A34277  29.394  36.697   8.020
 2446POPC   C4A34278  29.028  36.827   7.778
 2446POPC   C1B34279  29.363  37.104   8.800
 2446POPC   C2B34280  29.302  37.268   8.387
 2446POPC   C3B34281  29.361  37.201   7.940
 2446POPC   C4B34282  28.959  37.359   7.839
 2447POPC   NC334283  11.513  34.597   9.425
 2447POPC   PO434284  10.890  34.475   9.414
 2447POPC   GL134285  11.114  34.289   9.077
 2447POPC   GL234286  11.449  34.203   9.131
 2447POPC   C1A34287  11.036  34.287   8.638
 2447POPC   D2A34288  11.255  34.537   8.303
 2447POPC   C3A34289  11.438  34.342   7.952
 2447POPC   C4A34290  11.056  34.384   7.746
 2447POPC   C1B34291  11.523  34.409   8.755
 2447POPC   C2B34292  11.767  34.537   8.404
 2447POPC   C3B34293  11.691  34.786   8.047
 2447POPC   C4B34294  11.316  34.837   7.828
 2448POPC   NC334295  37.702  29.531   9.274
 2448POPC   PO434296  37.330  29.085   9.686
 2448POPC   GL134297  37.631  29.020   9.282
 2448POPC   GL234298  38.006  28.957   9.135
 2448POPC   C1A34299  37.563  28.942   8.861
 2448POPC   D2A34300  37.501  29.152   8.487
 2448POPC   C3A34301  37.644  28.959   8.120
 2448POPC   C4A34302  37.396  28.925   7.758
 2448POPC   C1B34303  38.006  29.165   8.682
 2448POPC   C2B34304  38.150  29.119   8.222
 2448POPC   C3B34305  37.968  29.182   7.777
 2448POPC   C4B34306  38.075  29.218   7.302
 2449POPC   NC334307  36.876  33.663   9.574
 2449POPC   PO434308  37.308  34.079   9.466
 2449POPC   GL134309  36.972  33.937   9.138
 2449POPC   GL234310  36.659  33.691   9.128
 2449POPC   C1A34311  36.813  34.032   8.734
 2449POPC   D2A34312  36.943  33.767   8.389
 2449POPC   C3A34313  37.013  33.906   7.992
 2449POPC   C4A34314  37.366  34.006   7.751
 2449POPC   C1B34315  36.790  33.465   8.788
 2449POPC   C2B34316  36.574  33.409   8.421
 2449POPC   C3B34317  36.538  33.563   8.022
 2449POPC   C4B34318  36.698  33.656   7.669
 2450POPC   NC334319  35.128   0.137   9.417
 2450POPC   PO434320  35.631   0.600   9.434
 2450POPC   GL134321  35.292   0.664   9.158
 2450POPC   GL234322  35.401   0.328   9.032
 2450POPC   C1A34323  35.124   0.633   8.746
 2450POPC   D2A34324  35.296   0.338   8.450
 2450POPC   C3A34325  35.066   0.393   8.078
 2450POPC   C4A34326  34.914   0.621   7.746
 2450POPC   C1B34327  35.742   0.281   8.753
 2450POPC   C2B34328  35.850   0.402   8.332
 2450POPC   C3B34329  35.555   0.399   7.991
 2450POPC   C4B34330  35.617   0.333   7.533
 2451POPC   NC334331  22.379  28.361   9.631
 2451POPC   PO434332  21.793  28.342   9.619
 2451POPC   GL134333  22.011  28.502   9.235
 2451POPC   GL234334  22.238  28.250   9.115
 2451POPC   C1A34335  22.227  28.661   8.816
 2451POPC   D2A34336  22.345  28.483   8.411
 2451POPC   C3A34337  22.204  28.524   8.000
 2451POPC   C4A34338  22.343  28.405   7.564
 2451POPC   C1B34339  22.033  28.184   8.684
 2451POPC   C2B34340  21.859  28.241   8.243
 2451POPC   C3B34341  22.013  28.084   7.821
 2451POPC   C4B34342  22.206  27.888   7.438
 2452POPC   NC334343  19.315  19.824   9.665
 2452POPC   PO434344  18.789  20.055   9.275
 2452POPC   GL134345  19.053  19.934   9.012
 2452POPC   GL234346  19.337  19.855   9.140
 2452POPC   C1A34347  19.036  19.893   8.599
 2452POPC   D2A34348  19.159  19.690   8.225
 2452POPC   C3A34349  18.901  19.757   7.827
 2452POPC   C4A34350  18.813  19.630   7.347
 2452POPC   C1B34351  19.517  19.805   8.715
 2452POPC   C2B34352  19.563  19.979   8.274
 2452POPC   C3B34353  19.444  19.854   7.823
 2452POPC   C4B34354  19.184  19.975   7.460
 2453POPC   NC334355   6.288  13.456   9.567
 2453POPC   PO434356   6.455  14.037   9.174
 2453POPC   GL134357   6.730  13.731   9.043
 2453POPC   GL234358   6.491  13.481   9.108
 2453POPC   C1A34359   6.781  13.627   8.623
 2453POPC   D2A34360   6.461  13.632   8.294
 2453POPC   C3A34361   6.595  13.905   7.956
 2453POPC   C4A34362   6.940  13.927   7.656
 2453POPC   C1B34363   6.372  13.327   8.718
 2453POPC   C2B34364   6.708  13.123   8.533
 2453POPC   C3B34365   6.735  13.180   8.136
 2453POPC   C4B34366   6.440  13.386   7.850
 2454POPC   NC334367  37.776  16.007   9.384
 2454POPC   PO434368  37.368  15.484   9.515
 2454POPC   GL134369  37.360  15.803   9.147
 2454POPC   GL234370  37.370  16.210   9.147
 2454POPC   C1A34371  37.641  15.815   8.760
 2454POPC   D2A34372  37.764  15.532   8.389
 2454POPC   C3A34373  37.672  15.680   7.961
 2454POPC   C4A34374  37.791  15.888   7.584
 2454POPC   C1B34375  37.623  16.321   8.748
 2454POPC   C2B34376  37.750  16.451   8.329
 2454POPC   C3B34377  37.729  16.221   7.973
 2454POPC   C4B34378  37.362  16.137   7.752
 2455POPC   NC334379  18.295   9.149   9.479
 2455POPC   PO434380  18.778   8.664   9.372
 2455POPC   GL134381  18.487   8.883   9.087
 2455POPC   GL234382  18.117   8.786   9.076
 2455POPC   C1A34383  18.310   9.157   8.790
 2455POPC   D2A34384  18.187   9.132   8.383
 2455POPC   C3A34385  18.364   8.917   8.062
 2455POPC   C4A34386  18.367   9.194   7.709
 2455POPC   C1B34387  18.088   8.696   8.623
 2455POPC   C2B34388  17.829   8.795   8.242
 2455POPC   C3B34389  17.913   9.018   7.855
 2455POPC   C4B34390  17.976   8.934   7.367
 2456POPC   NC334391  30.455  16.207   9.482
 2456POPC   PO434392  31.105  15.973   9.487
 2456POPC   GL134393  30.781  15.908   9.202
 2456POPC   GL234394  30.713  15.558   9.206
 2456POPC   C1A34395  30.557  15.858   8.829
 2456POPC   D2A34396  30.471  16.099   8.489
 2456POPC   C3A34397  30.571  16.001   8.088
 2456POPC   C4A34398  30.638  15.859   7.650
 2456POPC   C1B34399  30.926  15.505   8.809
 2456POPC   C2B34400  30.796  15.637   8.422
 2456POPC   C3B34401  30.884  15.613   8.018
 2456POPC   C4B34402  31.040  15.477   7.629
 2457POPC   NC334403   3.740  40.619   9.592
 2457POPC   PO434404   3.252  41.184   9.536
 2457POPC   GL134405   3.535  40.930   9.253
 2457POPC   GL234406   3.365  40.605   9.234
 2457POPC   C1A34407   3.821  40.912   8.889
 2457POPC   D2A34408   3.763  40.830   8.446
 2457POPC   C3A34409   3.510  41.104   8.187
 2457POPC   C4A34410   3.431  41.087   7.746
 2457POPC   C1B34411   3.429  40.465   8.806
 2457POPC   C2B34412   3.552  40.347   8.385
 2457POPC   C3B34413   3.535  40.563   7.970
 2457POPC   C4B34414   3.616  40.494   7.508
 2458POPC   NC334415  39.418   5.023   9.646
 2458POPC   PO434416  39.764   4.549   9.387
 2458POPC   GL134417  39.448   4.794   9.140
 2458POPC   GL234418  39.117   4.974   9.220
 2458POPC   C1A34419  39.351   4.900   8.719
 2458POPC   D2A34420  39.417   4.869   8.286
 2458POPC   C3A34421  39.144   4.754   7.975
 2458POPC   C4A34422  39.274   4.998   7.633
 2458POPC   C1B34423  38.974   5.215   8.855
 2458POPC   C2B34424  38.951   5.017   8.429
 2458POPC   C3B34425  39.048   5.237   8.074
 2458POPC   C4B34426  39.047   5.444   7.727
 2459POPC   NC334427  35.956   1.854   9.554
 2459POPC   PO434428  36.592   1.886   9.437
 2459POPC   GL134429  36.280   1.807   9.169
 2459POPC   GL234430  36.199   2.128   9.060
 2459POPC   C1A34431  36.273   1.726   8.735
 2459POPC   D2A34432  36.333   1.925   8.357
 2459POPC   C3A34433  36.194   1.667   8.045
 2459POPC   C4A34434  36.275   1.902   7.707
 2459POPC   C1B34435  35.840   1.988   8.820
 2459POPC   C2B34436  35.816   1.884   8.374
 2459POPC   C3B34437  35.955   2.135   8.012
 2459POPC   C4B34438  35.783   2.078   7.571
 2460POPC   NC334439   0.813  36.635   9.975
 2460POPC   PO434440   0.527  37.023   9.468
 2460POPC   GL134441   0.510  36.882   9.091
 2460POPC   GL234442   0.168  37.036   9.052
 2460POPC   C1A34443   0.721  36.795   8.719
 2460POPC   D2A34444   0.549  36.615   8.339
 2460POPC   C3A34445   0.628  36.812   7.979
 2460POPC   C4A34446   0.626  36.768   7.565
 2460POPC   C1B34447   0.210  36.837   8.640
 2460POPC   C2B34448   0.025  36.786   8.219
 2460POPC   C3B34449   0.107  36.767   7.757
 2460POPC   C4B34450   0.195  36.702   7.312
 2461POPC   NC334451  18.059  32.155   9.476
 2461POPC   PO434452  18.708  32.333   9.349
 2461POPC   GL134453  18.413  32.134   9.108
 2461POPC   GL234454  18.469  31.821   8.990
 2461POPC   C1A34455  18.238  32.312   8.752
 2461POPC   D2A34456  18.390  32.555   8.407
 2461POPC   C3A34457  18.107  32.702   8.108
 2461POPC   C4A34458  18.290  32.606   7.716
 2461POPC   C1B34459  18.058  31.839   8.808
 2461POPC   C2B34460  17.898  32.039   8.432
 2461POPC   C3B34461  18.087  32.184   8.012
 2461POPC   C4B34462  18.383  32.099   7.664
 2462POPC   NC334463  18.637  41.412   9.219
 2462POPC   PO434464  18.147  41.702   9.617
 2462POPC   GL134465  18.139  41.627   9.185
 2462POPC   GL234466  18.105  41.300   9.110
 2462POPC   C1A34467  17.957  41.647   8.761
 2462POPC   D2A34468  18.169  41.706   8.369
 2462POPC   C3A34469  18.064  41.512   7.985
 2462POPC   C4A34470  18.196  41.626   7.573
 2462POPC   C1B34471  18.267  41.268   8.688
 2462POPC   C2B34472  18.422  41.263   8.298
 2462POPC   C3B34473  18.656  41.179   7.955
 2462POPC   C4B34474  18.500  41.207   7.574
 2463POPC   NC334475   0.967   8.263   9.394
 2463POPC   PO434476   1.182   7.708   9.478
 2463POPC   GL134477   0.933   7.849   9.089
 2463POPC   GL234478   0.585   7.999   9.094
 2463POPC   C1A34479   0.867   8.048   8.675
 2463POPC   D2A34480   0.706   7.944   8.249
 2463POPC   C3A34481   0.690   8.263   7.927
 2463POPC   C4A34482   0.738   8.454   7.495
 2463POPC   C1B34483   0.358   8.062   8.656
 2463POPC   C2B34484   0.235   8.135   8.191
 2463POPC   C3B34485   0.012   8.051   7.801
 2463POPC   C4B34486  44.782   8.185   7.426
 2464POPC   NC334487  18.800  42.632   9.485
 2464POPC   PO434488  18.128  42.824   9.449
 2464POPC   GL134489  18.049  43.118   9.136
 2464POPC   GL234490  18.341  43.333   9.128
 2464POPC   C1A34491  18.199  42.968   8.751
 2464POPC   D2A34492  18.334  43.128   8.379
 2464POPC   C3A34493  18.203  42.875   8.032
 2464POPC   C4A34494  18.132  42.879   7.574
 2464POPC   C1B34495  18.576  43.566   8.843
 2464POPC   C2B34496  18.769  43.429   8.455
 2464POPC   C3B34497  18.596  43.397   8.047
 2464POPC   C4B34498  18.579  43.073   7.749
 2465POPC   NC334499  16.228  31.429   9.717
 2465POPC   PO434500  15.598  31.533   9.485
 2465POPC   GL134501  15.796  31.357   9.137
 2465POPC   GL234502  16.143  31.399   9.212
 2465POPC   C1A34503  15.810  31.427   8.705
 2465POPC   D2A34504  15.598  31.575   8.325
 2465POPC   C3A34505  15.699  31.423   7.953
 2465POPC   C4A34506  15.899  31.741   7.768
 2465POPC   C1B34507  16.265  31.215   8.821
 2465POPC   C2B34508  16.161  31.235   8.389
 2465POPC   C3B34509  16.192  31.277   7.969
 2465POPC   C4B34510  16.406  31.007   7.725
 2466POPC   NC334511  28.301  21.659   9.462
 2466POPC   PO434512  28.435  22.328   9.471
 2466POPC   GL134513  28.424  22.089   9.147
 2466POPC   GL234514  28.123  22.065   9.107
 2466POPC   C1A34515  28.456  21.776   8.833
 2466POPC   D2A34516  28.574  21.754   8.447
 2466POPC   C3A34517  28.411  22.083   8.202
 2466POPC   C4A34518  28.115  22.014   7.890
 2466POPC   C1B34519  28.226  22.212   8.682
 2466POPC   C2B34520  27.941  22.302   8.340
 2466POPC   C3B34521  28.033  22.513   7.976
 2466POPC   C4B34522  28.429  22.417   7.779
 2467POPC   NC334523   3.801  36.953   9.853
 2467POPC   PO434524   3.223  37.158   9.518
 2467POPC   GL134525   3.275  37.079   9.049
 2467POPC   GL234526   3.463  36.750   9.111
 2467POPC   C1A34527   3.306  36.987   8.607
 2467POPC   D2A34528   3.421  37.263   8.253
 2467POPC   C3A34529   3.571  37.054   7.902
 2467POPC   C4A34530   3.474  37.024   7.493
 2467POPC   C1B34531   3.767  36.814   8.779
 2467POPC   C2B34532   3.742  36.816   8.336
 2467POPC   C3B34533   4.041  36.894   7.997
 2467POPC   C4B34534   3.937  36.810   7.558
 2468POPC   NC334535  26.242  28.593   9.597
 2468POPC   PO434536  25.927  28.073   9.347
 2468POPC   GL134537  26.246  28.222   9.052
 2468POPC   GL234538  26.315  28.579   9.077
 2468POPC   C1A34539  26.235  28.221   8.598
 2468POPC   D2A34540  25.967  28.124   8.210
 2468POPC   C3A34541  26.081  28.243   7.838
 2468POPC   C4A34542  26.293  28.595   7.844
 2468POPC   C1B34543  25.955  28.593   8.763
 2468POPC   C2B34544  26.021  28.627   8.308
 2468POPC   C3B34545  25.752  28.608   7.944
 2468POPC   C4B34546  25.827  28.651   7.497
 2469POPC   NC334547  12.651  42.950   9.342
 2469POPC   PO434548  13.129  43.495   9.383
 2469POPC   GL134549  12.997  43.211   9.075
 2469POPC   GL234550  13.118  42.852   9.100
 2469POPC   C1A34551  12.820  43.217   8.682
 2469POPC   D2A34552  12.650  43.438   8.348
 2469POPC   C3A34553  12.862  43.359   7.991
 2469POPC   C4A34554  12.658  43.392   7.632
 2469POPC   C1B34555  12.920  42.712   8.683
 2469POPC   C2B34556  12.559  42.870   8.387
 2469POPC   C3B34557  12.547  42.909   7.923
 2469POPC   C4B34558  12.922  42.922   7.656
 2470POPC   NC334559  26.197  21.946   9.512
 2470POPC   PO434560  25.599  22.159   9.402
 2470POPC   GL134561  25.904  22.028   9.089
 2470POPC   GL234562  26.246  22.200   9.084
 2470POPC   C1A34563  25.835  22.051   8.654
 2470POPC   D2A34564  25.665  21.945   8.245
 2470POPC   C3A34565  25.605  22.244   7.880
 2470POPC   C4A34566  25.712  22.224   7.429
 2470POPC   C1B34567  26.307  21.882   8.774
 2470POPC   C2B34568  26.234  22.053   8.327
 2470POPC   C3B34569  26.042  21.968   7.905
 2470POPC   C4B34570  26.212  22.110   7.520
 2471POPC   NC334571   3.456   0.644   9.500
 2471POPC   PO434572   3.542  44.935   9.518
 2471POPC   GL134573   3.486   0.238   9.159
 2471POPC   GL234574   3.737   0.468   9.132
 2471POPC   C1A34575   3.292   0.528   8.825
 2471POPC   D2A34576   3.479   0.589   8.395
 2471POPC   C3A34577   3.396   0.509   7.968
 2471POPC   C4A34578   3.694   0.838   7.892
 2471POPC   C1B34579   3.850   0.576   8.764
 2471POPC   C2B34580   3.985   0.405   8.425
 2471POPC   C3B34581   3.840   0.271   8.073
 2471POPC   C4B34582   3.914   0.441   7.677
 2472POPC   NC334583  27.860  22.302   9.470
 2472POPC   PO434584  27.251  21.944   9.425
 2472POPC   GL134585  27.570  22.103   9.104
 2472POPC   GL234586  27.754  22.395   8.977
 2472POPC   C1A34587  27.783  21.974   8.721
 2472POPC   D2A34588  27.586  21.917   8.308
 2472POPC   C3A34589  27.628  22.068   7.842
 2472POPC   C4A34590  27.836  22.040   7.439
 2472POPC   C1B34591  27.486  22.366   8.604
 2472POPC   C2B34592  27.431  22.390   8.154
 2472POPC   C3B34593  27.568  22.574   7.770
 2472POPC   C4B34594  27.472  22.394   7.406
 2473POPC   NC334595   0.244  37.457   9.466
 2473POPC   PO434596   0.803  37.837   9.648
 2473POPC   GL134597   0.643  37.725   9.228
 2473POPC   GL234598   0.663  37.403   9.149
 2473POPC   C1A34599   0.304  37.724   8.854
 2473POPC   D2A34600   0.462  37.695   8.406
 2473POPC   C3A34601   0.240  37.643   7.997
 2473POPC   C4A34602   0.641  37.686   7.768
 2473POPC   C1B34603   0.508  37.278   8.757
 2473POPC   C2B34604   0.144  37.325   8.525
 2473POPC   C3B34605   0.308  37.179   8.161
 2473POPC   C4B34606   0.357  37.227   7.702
 2474POPC   NC334607   5.738  13.277   9.440
 2474POPC   PO434608   6.075  13.810   9.761
 2474POPC   GL134609   6.022  13.750   9.246
 2474POPC   GL234610   5.965  13.421   9.021
 2474POPC   C1A34611   5.900  13.841   8.807
 2474POPC   D2A34612   5.978  13.562   8.483
 2474POPC   C3A34613   5.877  13.657   8.089
 2474POPC   C4A34614   6.117  13.808   7.798
 2474POPC   C1B34615   5.577  13.410   8.759
 2474POPC   C2B34616   5.450  13.542   8.344
 2474POPC   C3B34617   5.481  13.340   7.922
 2474POPC   C4B34618   5.579  13.264   7.441
 2475POPC   NC334619   2.277  13.094   9.520
 2475POPC   PO434620   2.174  13.856   9.620
 2475POPC   GL134621   2.013  13.633   9.255
 2475POPC   GL234622   1.813  13.880   9.104
 2475POPC   C1A34623   2.078  13.559   8.801
 2475POPC   D2A34624   2.019  13.530   8.382
 2475POPC   C3A34625   2.235  13.665   8.025
 2475POPC   C4A34626   2.120  13.554   7.596
 2475POPC   C1B34627   1.839  13.973   8.631
 2475POPC   C2B34628   1.876  13.990   8.184
 2475POPC   C3B34629   1.966  14.043   7.735
 2475POPC   C4B34630   1.867  13.876   7.307
 2476POPC   NC334631  27.736   7.909   9.392
 2476POPC   PO434632  27.705   7.176   9.480
 2476POPC   GL134633  27.764   7.419   9.134
 2476POPC   GL234634  27.465   7.595   9.089
 2476POPC   C1A34635  27.780   7.460   8.697
 2476POPC   D2A34636  27.644   7.597   8.308
 2476POPC   C3A34637  27.880   7.443   7.943
 2476POPC   C4A34638  27.937   7.621   7.508
 2476POPC   C1B34639  27.267   7.600   8.699
 2476POPC   C2B34640  27.082   7.545   8.308
 2476POPC   C3B34641  27.250   7.525   7.939
 2476POPC   C4B34642  27.489   7.371   7.633
 2477POPC   NC334643  40.258   1.309   9.527
 2477POPC   PO434644  39.778   0.820   9.509
 2477POPC   GL134645  40.023   1.017   9.151
 2477POPC   GL234646  40.277   1.254   9.044
 2477POPC   C1A34647  39.918   1.152   8.722
 2477POPC   D2A34648  39.742   0.936   8.407
 2477POPC   C3A34649  39.698   1.031   7.980
 2477POPC   C4A34650  39.958   0.938   7.613
 2477POPC   C1B34651  40.449   1.184   8.695
 2477POPC   C2B34652  40.265   1.213   8.333
 2477POPC   C3B34653  40.166   1.282   7.940
 2477POPC   C4B34654  39.874   1.447   7.680
 2478POPC   NC334655  31.758  34.297   9.623
 2478POPC   PO434656  31.196  34.724   9.516
 2478POPC   GL134657  31.537  34.682   9.211
 2478POPC   GL234658  31.490  34.360   9.179
 2478POPC   C1A34659  31.787  34.525   8.814
 2478POPC   D2A34660  31.633  34.335   8.447
 2478POPC   C3A34661  31.598  34.596   8.132
 2478POPC   C4A34662  31.717  34.394   7.778
 2478POPC   C1B34663  31.276  34.461   8.782
 2478POPC   C2B34664  31.113  34.425   8.350
 2478POPC   C3B34665  31.178  34.378   7.916
 2478POPC   C4B34666  31.330  34.701   7.695
 2479POPC   NC334667  32.029  43.976   9.410
 2479POPC   PO434668  32.139  44.741   9.493
 2479POPC   GL134669  32.106  44.436   9.165
 2479POPC   GL234670  32.378  44.545   8.994
 2479POPC   C1A34671  31.919  44.477   8.772
 2479POPC   D2A34672  32.162  44.732   8.519
 2479POPC   C3A34673  32.272  44.565   8.132
 2479POPC   C4A34674  32.283  44.614   7.674
 2479POPC   C1B34675  32.549  44.952   8.819
 2479POPC   C2B34676  32.511   0.098   8.382
 2479POPC   C3B34677  32.410   0.033   7.961
 2479POPC   C4B34678  32.705  44.972   7.643
 2480POPC   NC334679  37.228  32.048   9.525
 2480POPC   PO434680  36.758  32.540   9.591
 2480POPC   GL134681  36.683  32.263   9.224
 2480POPC   GL234682  37.024  32.287   9.128
 2480POPC   C1A34683  36.718  32.076   8.783
 2480POPC   D2A34684  36.875  32.283   8.387
 2480POPC   C3A34685  36.791  32.075   7.985
 2480POPC   C4A34686  36.938  32.120   7.577
 2480POPC   C1B34687  37.190  32.510   8.785
 2480POPC   C2B34688  37.361  32.473   8.384
 2480POPC   C3B34689  37.210  32.395   7.963
 2480POPC   C4B34690  37.101  32.670   7.666
 2481POPC   NC334691  35.656  33.473   9.511
 2481POPC   PO434692  35.073  33.148   9.597
 2481POPC   GL134693  35.220  33.061   9.187
 2481POPC   GL234694  35.557  33.110   9.176
 2481POPC   C1A34695  35.361  32.902   8.773
 2481POPC   D2A34696  35.145  33.033   8.394
 2481POPC   C3A34697  35.311  33.068   7.994
 2481POPC   C4A34698  35.252  33.340   7.645
 2481POPC   C1B34699  35.648  33.340   8.830
 2481POPC   C2B34700  35.564  33.429   8.389
 2481POPC   C3B34701  35.675  33.397   7.946
 2481POPC   C4B34702  35.747  33.322   7.501
 2482POPC   NC334703   9.949  36.435   9.492
 2482POPC   PO434704   9.461  35.960   9.428
 2482POPC   GL134705   9.477  35.996   9.061
 2482POPC   GL234706   9.645  36.322   9.110
 2482POPC   C1A34707   9.379  35.814   8.689
 2482POPC   D2A34708   9.587  35.740   8.334
 2482POPC   C3A34709   9.673  35.962   7.953
 2482POPC   C4A34710   9.860  35.751   7.585
 2482POPC   C1B34711   9.461  36.384   8.734
 2482POPC   C2B34712   9.419  36.223   8.374
 2482POPC   C3B34713   9.393  36.496   8.085
 2482POPC   C4B34714   9.473  36.433   7.694
 2483POPC   NC334715  42.584  25.497   9.477
 2483POPC   PO434716  41.916  25.161   9.587
 2483POPC   GL134717  42.241  25.175   9.315
 2483POPC   GL234718  42.136  25.480   9.208
 2483POPC   C1A34719  42.340  25.108   8.878
 2483POPC   D2A34720  42.474  25.265   8.464
 2483POPC   C3A34721  42.322  25.037   8.100
 2483POPC   C4A34722  42.338  24.814   7.685
 2483POPC   C1B34723  42.341  25.618   8.837
 2483POPC   C2B34724  42.246  25.748   8.444
 2483POPC   C3B34725  42.378  25.577   8.061
 2483POPC   C4B34726  42.552  25.432   7.682
 2484POPC   NC334727  29.120   7.081   9.507
 2484POPC   PO434728  28.847   7.703   9.482
 2484POPC   GL134729  29.021   7.457   9.126
 2484POPC   GL234730  29.320   7.264   9.092
 2484POPC   C1A34731  29.127   7.529   8.697
 2484POPC   D2A34732  28.928   7.492   8.300
 2484POPC   C3A34733  29.234   7.624   8.026
 2484POPC   C4A34734  29.314   7.482   7.665
 2484POPC   C1B34735  29.396   7.084   8.721
 2484POPC   C2B34736  29.360   7.208   8.308
 2484POPC   C3B34737  29.554   7.084   7.931
 2484POPC   C4B34738  29.560   7.084   7.474
 2485POPC   NC334739   2.480  39.642   9.432
 2485POPC   PO434740   1.868  40.174   9.403
 2485POPC   GL134741   1.927  39.899   9.086
 2485POPC   GL234742   2.090  40.125   8.893
 2485POPC   C1A34743   1.693  39.871   8.706
 2485POPC   D2A34744   1.957  40.056   8.387
 2485POPC   C3A34745   1.942  39.929   7.969
 2485POPC   C4A34746   2.236  39.868   7.665
 2485POPC   C1B34747   2.373  40.332   8.614
 2485POPC   C2B34748   2.208  40.494   8.240
 2485POPC   C3B34749   2.188  40.365   7.807
 2485POPC   C4B34750   2.162  40.568   7.419
 2486POPC   NC334751  10.210  13.977   9.671
 2486POPC   PO434752  10.580  13.422   9.478
 2486POPC   GL134753  10.592  13.619   9.100
 2486POPC   GL234754  10.291  13.853   9.144
 2486POPC   C1A34755  10.637  13.405   8.683
 2486POPC   D2A34756  10.402  13.273   8.299
 2486POPC   C3A34757  10.652  13.254   7.937
 2486POPC   C4A34758  10.809  13.237   7.544
 2486POPC   C1B34759  10.415  13.863   8.691
 2486POPC   C2B34760  10.587  13.749   8.276
 2486POPC   C3B34761  10.316  13.633   7.934
 2486POPC   C4B34762  10.231  13.767   7.556
 2487POPC   NC334763  43.356  38.481   9.454
 2487POPC   PO434764  43.014  38.032   9.824
 2487POPC   GL134765  43.065  38.109   9.285
 2487POPC   GL234766  43.372  38.199   9.062
 2487POPC   C1A34767  42.928  38.383   8.917
 2487POPC   D2A34768  42.964  38.706   8.580
 2487POPC   C3A34769  43.092  38.638   8.141
 2487POPC   C4A34770  42.924  38.452   7.751
 2487POPC   C1B34771  43.378  38.364   8.661
 2487POPC   C2B34772  43.149  38.171   8.335
 2487POPC   C3B34773  43.248  38.103   7.914
 2487POPC   C4B34774  43.238  38.189   7.428
 2488POPC   NC334775  29.938  16.822   9.499
 2488POPC   PO434776  29.377  16.669   9.484
 2488POPC   GL134777  29.629  16.819   9.074
 2488POPC   GL234778  30.040  16.748   9.011
 2488POPC   C1A34779  29.742  16.902   8.625
 2488POPC   D2A34780  29.956  16.968   8.239
 2488POPC   C3A34781  29.666  16.886   7.914
 2488POPC   C4A34782  29.691  16.757   7.490
 2488POPC   C1B34783  30.331  16.657   8.619
 2488POPC   C2B34784  30.288  16.477   8.206
 2488POPC   C3B34785  29.972  16.456   7.895
 2488POPC   C4B34786  30.171  16.822   7.785
 2489POPC   NC334787  34.118  43.757   9.340
 2489POPC   PO434788  33.448  43.910   9.462
 2489POPC   GL134789  33.645  43.762   9.108
 2489POPC   GL234790  33.828  44.098   9.095
 2489POPC   C1A34791  33.850  43.705   8.691
 2489POPC   D2A34792  34.179  43.837   8.344
 2489POPC   C3A34793  34.039  43.808   7.911
 2489POPC   C4A34794  34.110  43.704   7.479
 2489POPC   C1B34795  34.149  44.127   8.760
 2489POPC   C2B34796  34.123  44.374   8.356
 2489POPC   C3B34797  34.072  44.326   7.959
 2489POPC   C4B34798  34.101  44.207   7.535
 2490POPC   NC334799   7.000  28.416   9.449
 2490POPC   PO434800   7.573  27.984   9.465
 2490POPC   GL134801   7.619  28.281   9.152
 2490POPC   GL234802   7.331  28.530   9.067
 2490POPC   C1A34803   7.622  28.290   8.724
 2490POPC   D2A34804   7.389  28.520   8.439
 2490POPC   C3A34805   7.560  28.473   8.052
 2490POPC   C4A34806   7.577  28.207   7.711
 2490POPC   C1B34807   7.110  28.824   8.772
 2490POPC   C2B34808   7.148  28.972   8.354
 2490POPC   C3B34809   7.092  28.696   8.039
 2490POPC   C4B34810   6.889  28.632   7.683
 2491POPC   NC334811   9.713  31.907   9.519
 2491POPC   PO434812   9.660  31.217   9.435
 2491POPC   GL134813   9.429  31.461   9.129
 2491POPC   GL234814   9.482  31.858   9.061
 2491POPC   C1A34815   9.493  31.233   8.746
 2491POPC   D2A34816   9.908  31.233   8.550
 2491POPC   C3A34817   9.837  31.247   8.123
 2491POPC   C4A34818   9.631  31.451   7.805
 2491POPC   C1B34819   9.756  31.674   8.765
 2491POPC   C2B34820   9.850  31.741   8.338
 2491POPC   C3B34821   9.625  31.926   8.008
 2491POPC   C4B34822   9.434  31.873   7.609
 2492POPC   NC334823  37.978   6.934   9.816
 2492POPC   PO434824  37.672   6.422   9.566
 2492POPC   GL134825  37.708   6.478   9.131
 2492POPC   GL234826  37.833   6.803   9.131
 2492POPC   C1A34827  37.934   6.484   8.706
 2492POPC   D2A34828  37.922   6.718   8.303
 2492POPC   C3A34829  37.750   6.575   7.872
 2492POPC   C4A34830  37.374   6.471   7.635
 2492POPC   C1B34831  37.683   6.952   8.711
 2492POPC   C2B34832  37.833   7.208   8.336
 2492POPC   C3B34833  37.751   7.075   7.928
 2492POPC   C4B34834  37.327   6.990   7.765
 2493POPC   NC334835   9.020  38.445   9.520
 2493POPC   PO434836   9.392  37.918   9.316
 2493POPC   GL134837   9.135  38.194   9.065
 2493POPC   GL234838   9.100  38.552   9.043
 2493POPC   C1A34839   9.198  38.251   8.628
 2493POPC   D2A34840   8.941  38.178   8.275
 2493POPC   C3A34841   9.164  38.146   7.915
 2493POPC   C4A34842   9.117  38.359   7.550
 2493POPC   C1B34843   8.869  38.761   8.755
 2493POPC   C2B34844   9.038  38.675   8.394
 2493POPC   C3B34845   8.976  38.627   7.980
 2493POPC   C4B34846   8.679  38.735   7.694
 2494POPC   NC334847  12.303  32.160   9.887
 2494POPC   PO434848  11.910  31.913   9.367
 2494POPC   GL134849  11.858  32.242   9.107
 2494POPC   GL234850  11.872  32.519   9.338
 2494POPC   C1A34851  12.064  32.331   8.710
 2494POPC   D2A34852  11.896  32.298   8.301
 2494POPC   C3A34853  12.074  32.018   8.028
 2494POPC   C4A34854  12.378  31.961   7.742
 2494POPC   C1B34855  11.798  32.717   8.942
 2494POPC   C2B34856  11.816  32.783   8.485
 2494POPC   C3B34857  11.802  32.711   8.035
 2494POPC   C4B34858  12.019  32.457   7.739
 2495POPC   NC334859  38.768  18.917   9.588
 2495POPC   PO434860  38.069  19.172   9.532
 2495POPC   GL134861  38.341  19.065   9.151
 2495POPC   GL234862  38.692  19.077   9.126
 2495POPC   C1A34863  38.360  19.268   8.736
 2495POPC   D2A34864  38.312  19.543   8.337
 2495POPC   C3A34865  38.350  19.316   7.931
 2495POPC   C4A34866  38.546  18.903   7.958
 2495POPC   C1B34867  38.703  18.830   8.754
 2495POPC   C2B34868  38.740  18.607   8.346
 2495POPC   C3B34869  38.990  18.636   7.935
 2495POPC   C4B34870  38.947  18.999   7.627
 2496POPC   NC334871  23.445  30.523   9.587
 2496POPC   PO434872  23.990  30.878   9.573
 2496POPC   GL134873  23.864  30.728   9.194
 2496POPC   GL234874  23.509  30.726   9.104
 2496POPC   C1A34875  23.888  30.941   8.806
 2496POPC   D2A34876  23.843  30.754   8.419
 2496POPC   C3A34877  24.104  30.776   8.079
 2496POPC   C4A34878  23.992  30.552   7.736
 2496POPC   C1B34879  23.395  30.588   8.683
 2496POPC   C2B34880  23.395  30.582   8.235
 2496POPC   C3B34881  23.483  30.556   7.832
 2496POPC   C4B34882  23.613  30.241   7.639
 2497POPC   NC334883   8.748   1.128   9.534
 2497POPC   PO434884   9.275   1.524   9.711
 2497POPC   GL134885   9.107   1.317   9.256
 2497POPC   GL234886   8.798   1.343   9.074
 2497POPC   C1A34887   9.201   1.380   8.742
 2497POPC   D2A34888   9.014   1.412   8.361
 2497POPC   C3A34889   8.961   1.162   7.985
 2497POPC   C4A34890   8.777   1.319   7.591
 2497POPC   C1B34891   9.070   0.945   8.937
 2497POPC   C2B34892   9.169   0.856   8.521
 2497POPC   C3B34893   9.276   0.759   8.109
 2497POPC   C4B34894   9.372   0.844   7.700
 2498POPC   NC334895  24.927   2.421   9.852
 2498POPC   PO434896  24.625   2.847   9.524
 2498POPC   GL134897  24.672   2.720   9.095
 2498POPC   GL234898  24.332   2.620   9.102
 2498POPC   C1A34899  24.616   2.772   8.620
 2498POPC   D2A34900  24.743   2.952   8.187
 2498POPC   C3A34901  24.803   2.766   7.763
 2498POPC   C4A34902  24.963   2.888   7.356
 2498POPC   C1B34903  24.288   3.040   8.930
 2498POPC   C2B34904  24.066   3.057   8.551
 2498POPC   C3B34905  23.954   2.902   8.143
 2498POPC   C4B34906  24.307   2.796   7.898
 2499POPC   NC334907  30.965  27.277   9.489
 2499POPC   PO434908  30.486  26.876   9.413
 2499POPC   GL134909  30.597  26.683   9.075
 2499POPC   GL234910  30.905  26.501   9.085
 2499POPC   C1A34911  30.639  26.825   8.687
 2499POPC   D2A34912  30.854  26.767   8.308
 2499POPC   C3A34913  30.546  26.895   8.018
 2499POPC   C4A34914  30.373  27.080   7.678
 2499POPC   C1B34915  31.107  26.872   8.844
 2499POPC   C2B34916  31.155  27.164   8.465
 2499POPC   C3B34917  30.974  27.229   8.030
 2499POPC   C4B34918  30.873  27.079   7.596
 2500POPC   NC334919   9.978  39.627   9.399
 2500POPC   PO434920  10.234  40.241   9.579
 2500POPC   GL134921  10.383  40.114   9.191
 2500POPC   GL234922  10.715  39.974   9.248
 2500POPC   C1A34923  10.302  40.047   8.766
 2500POPC   D2A34924  10.397  39.984   8.347
 2500POPC   C3A34925  10.331  40.212   7.982
 2500POPC   C4A34926  10.349  39.903   7.640
 2500POPC   C1B34927  10.820  40.145   8.844
 2500POPC   C2B34928  10.899  40.044   8.409
 2500POPC   C3B34929  10.762  39.917   7.970
 2500POPC   C4B34930  10.838  39.885   7.524
 2501POPC   NC334931  35.914  12.340   9.322
 2501POPC   PO434932  36.305  11.887   9.525
 2501POPC   GL134933  36.167  11.932   9.097
 2501POPC   GL234934  35.821  11.888   9.124
 2501POPC   C1A34935  36.048  12.153   8.679
 2501POPC   D2A34936  35.959  12.353   8.259
 2501POPC   C3A34937  36.238  12.275   7.947
 2501POPC   C4A34938  36.416  11.895   7.797
 2501POPC   C1B34939  35.655  11.849   8.727
 2501POPC   C2B34940  35.855  11.758   8.355
 2501POPC   C3B34941  35.708  11.764   7.945
 2501POPC   C4B34942  35.911  11.987   7.666
 2502POPC   NC334943  25.580  19.416   9.393
 2502POPC   PO434944  25.547  18.688   9.415
 2502POPC   GL134945  25.398  18.989   9.143
 2502POPC   GL234946  25.068  19.088   9.249
 2502POPC   C1A34947  25.291  19.204   8.771
 2502POPC   D2A34948  25.078  19.251   8.373
 2502POPC   C3A34949  25.325  19.112   8.004
 2502POPC   C4A34950  25.416  19.274   7.608
 2502POPC   C1B34951  25.000  18.783   8.879
 2502POPC   C2B34952  24.838  18.761   8.438
 2502POPC   C3B34953  24.972  18.730   7.962
 2502POPC   C4B34954  24.880  18.775   7.470
 2503POPC   NC334955  18.918   4.282   9.427
 2503POPC   PO434956  19.559   4.012   9.486
 2503POPC   GL134957  19.256   4.084   9.085
 2503POPC   GL234958  19.154   4.470   9.023
 2503POPC   C1A34959  19.226   4.181   8.611
 2503POPC   D2A34960  19.037   4.548   8.353
 2503POPC   C3A34961  19.183   4.525   7.928
 2503POPC   C4A34962  19.425   4.190   7.701
 2503POPC   C1B34963  18.771   4.350   8.791
 2503POPC   C2B34964  18.753   4.130   8.412
 2503POPC   C3B34965  19.031   4.055   8.094
 2503POPC   C4B34966  18.861   4.185   7.726
 2504POPC   NC334967  13.735  29.421   9.502
 2504POPC   PO434968  13.423  28.847   9.563
 2504POPC   GL134969  13.654  28.977   9.198
 2504POPC   GL234970  14.020  29.052   9.255
 2504POPC   C1A34971  13.548  29.181   8.808
 2504POPC   D2A34972  13.438  29.036   8.403
 2504POPC   C3A34973  13.618  29.216   8.104
 2504POPC   C4A34974  13.586  29.312   7.717
 2504POPC   C1B34975  14.011  28.948   8.806
 2504POPC   C2B34976  14.065  29.086   8.358
 2504POPC   C3B34977  13.997  28.878   7.947
 2504POPC   C4B34978  13.958  29.014   7.510
 2505POPC   NC334979  22.557  29.272   9.439
 2505POPC   PO434980  21.910  29.334   9.578
 2505POPC   GL134981  22.093  29.347   9.217
 2505POPC   GL234982  22.109  28.999   9.229
 2505POPC   C1A34983  22.245  29.244   8.808
 2505POPC   D2A34984  22.016  29.228   8.452
 2505POPC   C3A34985  22.255  29.287   8.121
 2505POPC   C4A34986  22.174  29.367   7.737
 2505POPC   C1B34987  21.828  28.940   8.877
 2505POPC   C2B34988  21.832  28.746   8.436
 2505POPC   C3B34989  21.900  28.953   8.021
 2505POPC   C4B34990  22.123  28.860   7.627
 2506POPC   NC334991  35.675  17.872   9.648
 2506POPC   PO434992  35.114  17.457   9.650
 2506POPC   GL134993  35.424  17.556   9.322
 2506POPC   GL234994  35.318  17.898   9.262
 2506POPC   C1A34995  35.588  17.620   8.900
 2506POPC   D2A34996  35.639  17.414   8.516
 2506POPC   C3A34997  35.595  17.537   8.071
 2506POPC   C4A34998  35.194  17.563   7.820
 2506POPC   C1B34999  35.203  17.950   8.818
 2506POPC   C2B35000  35.434  17.890   8.421
 2506POPC   C3B35001  35.473  18.020   7.969
 2506POPC   C4B35002  35.425  17.936   7.525
 2507POPC   NC335003  24.898   8.898   9.378
 2507POPC   PO435004  25.410   9.152   9.775
 2507POPC   GL135005  25.314   9.195   9.254
 2507POPC   GL235006  24.969   9.232   9.022
 2507POPC   C1A35007  25.537   9.162   8.810
 2507POPC   D2A35008  25.567   9.138   8.326
 2507POPC   C3A35009  25.647   8.728   8.147
 2507POPC   C4A35010  25.566   8.587   7.726
 2507POPC   C1B35011  25.074   9.187   8.601
 2507POPC   C2B35012  25.159   8.837   8.354
 2507POPC   C3B35013  25.187   8.882   7.952
 2507POPC   C4B35014  24.980   9.240   7.816
 2508POPC   NC335015  44.123  25.567   9.450
 2508POPC   PO435016  43.673  25.065   9.565
 2508POPC   GL135017  43.728  25.295   9.193
 2508POPC   GL235018  44.054  25.164   9.095
 2508POPC   C1A35019  43.774  25.425   8.779
 2508POPC   D2A35020  44.139  25.441   8.498
 2508POPC   C3A35021  44.045  25.558   8.066
 2508POPC   C4A35022  44.102  25.429   7.626
 2508POPC   C1B35023  43.959  24.968   8.711
 2508POPC   C2B35024  43.791  25.124   8.301
 2508POPC   C3B35025  43.857  25.049   7.867
 2508POPC   C4B35026  43.684  24.843   7.495
 2509POPC   NC335027  10.963  33.266   9.522
 2509POPC   PO435028  11.719  33.401   9.465
 2509POPC   GL135029  11.511  33.051   9.162
 2509POPC   GL235030  11.153  32.972   9.168
 2509POPC   C1A35031  11.369  32.893   8.705
 2509POPC   D2A35032  11.434  33.045   8.252
 2509POPC   C3A35033  11.313  32.824   7.862
 2509POPC   C4A35034  11.509  32.895   7.470
 2509POPC   C1B35035  10.939  33.152   8.825
 2509POPC   C2B35036  10.971  33.174   8.412
 2509POPC   C3B35037  11.056  33.265   7.960
 2509POPC   C4B35038  11.042  33.163   7.495
 2510POPC   NC335039  28.842  43.457   9.327
 2510POPC   PO435040  29.472  43.266   9.477
 2510POPC   GL135041  29.472  43.085   9.078
 2510POPC   GL235042  29.124  43.138   9.022
 2510POPC   C1A35043  29.429  42.937   8.643
 2510POPC   D2A35044  29.659  42.884   8.252
 2510POPC   C3A35045  29.306  42.897   7.923
 2510POPC   C4A35046  29.247  43.094   7.499
 2510POPC   C1B35047  29.003  43.363   8.644
 2510POPC   C2B35048  28.910  43.188   8.230
 2510POPC   C3B35049  28.831  43.094   7.799
 2510POPC   C4B35050  28.750  43.091   7.346
 2511POPC   NC335051   6.930  16.250   9.306
 2511POPC   PO435052   6.478  15.798   9.491
 2511POPC   GL135053   6.499  16.045   9.114
 2511POPC   GL235054   6.782  15.842   9.050
 2511POPC   C1A35055   6.671  16.176   8.692
 2511POPC   D2A35056   6.410  16.125   8.341
 2511POPC   C3A35057   6.590  16.100   7.962
 2511POPC   C4A35058   6.373  15.783   7.738
 2511POPC   C1B35059   6.915  15.654   8.707
 2511POPC   C2B35060   6.855  15.820   8.319
 2511POPC   C3B35061   6.798  15.621   7.947
 2511POPC   C4B35062   6.905  15.815   7.560
 2512POPC   NC335063  17.041  41.017   9.387
 2512POPC   PO435064  17.720  40.798   9.575
 2512POPC   GL135065  17.412  40.673   9.253
 2512POPC   GL235066  17.719  40.669   9.090
 2512POPC   C1A35067  17.331  40.818   8.800
 2512POPC   D2A35068  17.561  40.824   8.393
 2512POPC   C3A35069  17.338  40.710   8.004
 2512POPC   C4A35070  17.209  40.846   7.586
 2512POPC   C1B35071  17.736  40.484   8.752
 2512POPC   C2B35072  17.831  40.369   8.371
 2512POPC   C3B35073  17.848  40.582   8.007
 2512POPC   C4B35074  17.693  40.663   7.630
 2513POPC   NC335075  33.727  30.035   9.711
 2513POPC   PO435076  34.091  29.521   9.503
 2513POPC   GL135077  33.805  29.687   9.174
 2513POPC   GL235078  33.595  29.430   8.992
 2513POPC   C1A35079  33.673  29.897   8.785
 2513POPC   D2A35080  33.883  30.062   8.404
 2513POPC   C3A35081  33.746  30.061   7.954
 2513POPC   C4A35082  34.037  30.151   7.588
 2513POPC   C1B35083  33.954  29.475   8.719
 2513POPC   C2B35084  34.114  29.599   8.305
 2513POPC   C3B35085  34.070  29.690   7.872
 2513POPC   C4B35086  33.760  29.705   7.536
 2514POPC   NC335087  29.668  28.888   9.372
 2514POPC   PO435088  29.737  28.192   9.525
 2514POPC   GL135089  29.939  28.092   9.115
 2514POPC   GL235090  30.015  28.455   9.007
 2514POPC   C1A35091  30.070  28.074   8.680
 2514POPC   D2A35092  30.104  28.476   8.462
 2514POPC   C3A35093  30.170  28.440   8.031
 2514POPC   C4A35094  29.894  28.166   7.791
 2514POPC   C1B35095  29.687  28.599   8.723
 2514POPC   C2B35096  29.470  28.655   8.338
 2514POPC   C3B35097  29.659  28.554   7.989
 2514POPC   C4B35098  29.657  28.647   7.577
 2515POPC   NC335099  39.710  30.255   9.864
 2515POPC   PO435100  39.919  29.767   9.424
 2515POPC   GL135101  39.831  29.859   9.038
 2515POPC   GL235102  40.084  30.082   8.982
 2515POPC   C1A35103  39.705  30.007   8.637
 2515POPC   D2A35104  39.682  29.642   8.376
 2515POPC   C3A35105  39.774  29.697   7.976
 2515POPC   C4A35106  39.578  29.472   7.678
 2515POPC   C1B35107  40.144  29.745   8.649
 2515POPC   C2B35108  40.199  29.560   8.249
 2515POPC   C3B35109  40.228  29.927   7.998
 2515POPC   C4B35110  40.150  30.053   7.594
 2516POPC   NC335111  29.732  39.274   9.580
 2516POPC   PO435112  30.377  39.373   9.594
 2516POPC   GL135113  30.257  39.215   9.177
 2516POPC   GL235114  29.919  39.370   9.110
 2516POPC   C1A35115  30.133  39.092   8.742
 2516POPC   D2A35116  29.756  39.162   8.478
 2516POPC   C3A35117  29.828  39.155   8.035
 2516POPC   C4A35118  30.203  39.110   7.820
 2516POPC   C1B35119  30.027  39.584   8.705
 2516POPC   C2B35120  30.146  39.478   8.263
 2516POPC   C3B35121  30.278  39.633   7.828
 2516POPC   C4B35122  30.239  39.579   7.358
 2517POPC   NC335123   3.696  15.586   9.351
 2517POPC   PO435124   3.415  15.054   9.687
 2517POPC   GL135125   3.562  15.000   9.248
 2517POPC   GL235126   3.394  15.252   9.147
 2517POPC   C1A35127   3.675  15.050   8.787
 2517POPC   D2A35128   3.807  14.939   8.369
 2517POPC   C3A35129   3.682  15.124   7.967
 2517POPC   C4A35130   3.435  14.929   7.629
 2517POPC   C1B35131   3.327  15.432   8.735
 2517POPC   C2B35132   3.528  15.423   8.370
 2517POPC   C3B35133   3.280  15.420   8.044
 2517POPC   C4B35134   3.395  15.442   7.654
 2518POPC   NC335135  37.869  25.574   9.514
 2518POPC   PO435136  37.531  24.998   9.444
 2518POPC   GL135137  37.534  25.363   9.192
 2518POPC   GL235138  37.254  25.559   9.325
 2518POPC   C1A35139  37.646  25.394   8.767
 2518POPC   D2A35140  37.485  25.339   8.363
 2518POPC   C3A35141  37.785  25.427   8.109
 2518POPC   C4A35142  38.012  25.268   7.788
 2518POPC   C1B35143  37.185  25.614   8.877
 2518POPC   C2B35144  37.249  25.786   8.441
 2518POPC   C3B35145  37.271  25.659   7.989
 2518POPC   C4B35146  37.568  25.480   7.658
 2519POPC   NC335147   6.372  40.780   9.608
 2519POPC   PO435148   5.672  40.653   9.498
 2519POPC   GL135149   5.672  40.619   9.024
 2519POPC   GL235150   5.923  40.802   8.775
 2519POPC   C1A35151   5.688  40.376   8.632
 2519POPC   D2A35152   5.457  40.464   8.275
 2519POPC   C3A35153   5.589  40.817   8.135
 2519POPC   C4A35154   5.748  40.956   7.750
 2519POPC   C1B35155   6.312  41.087   8.656
 2519POPC   C2B35156   6.512  40.977   8.272
 2519POPC   C3B35157   6.253  40.747   7.986
 2519POPC   C4B35158   6.235  40.865   7.604
 2520POPC   NC335159  23.235  19.435   9.581
 2520POPC   PO435160  22.785  19.925   9.358
 2520POPC   GL135161  22.979  20.156   9.033
 2520POPC   GL235162  23.357  20.149   9.019
 2520POPC   C1A35163  22.842  19.985   8.647
 2520POPC   D2A35164  23.005  19.679   8.347
 2520POPC   C3A35165  23.000  19.764   7.894
 2520POPC   C4A35166  22.850  19.883   7.495
 2520POPC   C1B35167  23.337  20.051   8.589
 2520POPC   C2B35168  23.083  20.182   8.220
 2520POPC   C3B35169  23.104  20.254   7.777
 2520POPC   C4B35170  23.302  20.153   7.371
 2521POPC   NC335171  44.360  36.610   9.506
 2521POPC   PO435172  43.884  37.134   9.491
 2521POPC   GL135173  44.082  37.004   9.145
 2521POPC   GL235174  44.056  36.634   9.098
 2521POPC   C1A35175  43.946  37.085   8.748
 2521POPC   D2A35176  44.139  37.198   8.391
 2521POPC   C3A35177  43.920  37.141   7.996
 2521POPC   C4A35178  43.679  37.291   7.669
 2521POPC   C1B35179  43.819  36.591   8.713
 2521POPC   C2B35180  43.998  36.637   8.292
 2521POPC   C3B35181  44.134  36.682   7.888
 2521POPC   C4B35182  44.185  36.695   7.422
 2522POPC   NC335183  20.863  12.339   9.437
 2522POPC   PO435184  20.543  11.694   9.310
 2522POPC   GL135185  20.873  11.795   9.069
 2522POPC   GL235186  20.794  12.115   8.970
 2522POPC   C1A35187  20.843  11.682   8.635
 2522POPC   D2A35188  20.576  11.756   8.274
 2522POPC   C3A35189  20.676  12.100   7.980
 2522POPC   C4A35190  20.814  12.056   7.549
 2522POPC   C1B35191  20.490  12.114   8.621
 2522POPC   C2B35192  20.206  12.108   8.228
 2522POPC   C3B35193  20.213  12.018   7.773
 2522POPC   C4B35194  20.385  12.275   7.408
 2523POPC   NC335195  39.065  24.391   9.448
 2523POPC   PO435196  39.682  24.333   9.386
 2523POPC   GL135197  39.413  24.456   9.059
 2523POPC   GL235198  39.121  24.255   8.975
 2523POPC   C1A35199  39.317  24.620   8.653
 2523POPC   D2A35200  39.404  24.712   8.211
 2523POPC   C3A35201  39.019  24.727   7.940
 2523POPC   C4A35202  39.112  24.767   7.497
 2523POPC   C1B35203  38.918  23.971   8.721
 2523POPC   C2B35204  39.115  23.900   8.342
 2523POPC   C3B35205  39.121  24.046   7.938
 2523POPC   C4B35206  39.376  24.386   7.801
 2524POPC   NC335207  37.792  36.728   9.410
 2524POPC   PO435208  37.844  37.325   9.733
 2524POPC   GL135209  37.800  37.279   9.229
 2524POPC   GL235210  37.449  37.411   9.052
 2524POPC   C1A35211  37.826  37.103   8.805
 2524POPC   D2A35212  37.880  37.208   8.388
 2524POPC   C3A35213  37.782  36.857   8.134
 2524POPC   C4A35214  37.577  36.759   7.767
 2524POPC   C1B35215  37.318  37.400   8.652
 2524POPC   C2B35216  37.336  37.107   8.374
 2524POPC   C3B35217  37.392  37.174   7.996
 2524POPC   C4B35218  37.233  37.138   7.614
 2525POPC   NC335219  38.683  44.206  10.066
 2525POPC   PO435220  38.261  43.966   9.669
 2525POPC   GL135221  38.452  43.826   9.283
 2525POPC   GL235222  38.755  44.005   9.151
 2525POPC   C1A35223  38.424  43.576   8.910
 2525POPC   D2A35224  38.378  43.565   8.458
 2525POPC   C3A35225  38.377  43.949   8.214
 2525POPC   C4A35226  38.327  43.927   7.754
 2525POPC   C1B35227  38.697  43.960   8.679
 2525POPC   C2B35228  38.919  44.044   8.279
 2525POPC   C3B35229  38.950  44.007   7.838
 2525POPC   C4B35230  38.692  44.170   7.507
 2526POPC   NC335231  38.976  19.770   9.264
 2526POPC   PO435232  39.259  19.164   9.558
 2526POPC   GL135233  39.164  18.850   9.230
 2526POPC   GL235234  39.203  19.140   9.015
 2526POPC   C1A35235  39.204  18.681   8.785
 2526POPC   D2A35236  39.172  19.010   8.477
 2526POPC   C3A35237  39.254  19.066   8.052
 2526POPC   C4A35238  39.456  18.940   7.702
 2526POPC   C1B35239  38.895  19.340   8.750
 2526POPC   C2B35240  38.710  19.214   8.361
 2526POPC   C3B35241  38.844  19.345   7.977
 2526POPC   C4B35242  38.727  19.466   7.577
 2527POPC   NC335243  31.624  30.411   9.482
 2527POPC   PO435244  31.447  31.098   9.441
 2527POPC   GL135245  31.623  30.879   9.147
 2527POPC   GL235246  31.412  30.587   9.071
 2527POPC   C1A35247  31.605  30.942   8.745
 2527POPC   D2A35248  31.402  30.676   8.494
 2527POPC   C3A35249  31.589  30.729   8.103
 2527POPC   C4A35250  31.608  30.766   7.690
 2527POPC   C1B35251  31.761  30.453   8.806
 2527POPC   C2B35252  31.734  30.291   8.384
 2527POPC   C3B35253  31.540  30.231   7.991
 2527POPC   C4B35254  31.907  30.328   7.785
 2528POPC   NC335255  23.466  37.350   9.639
 2528POPC   PO435256  23.890  37.860   9.576
 2528POPC   GL135257  23.863  37.481   9.265
 2528POPC   GL235258  23.610  37.250   9.153
 2528POPC   C1A35259  24.033  37.375   8.821
 2528POPC   D2A35260  23.850  37.457   8.374
 2528POPC   C3A35261  24.040  37.586   7.981
 2528POPC   C4A35262  24.205  37.336   7.638
 2528POPC   C1B35263  23.546  37.504   8.806
 2528POPC   C2B35264  23.383  37.633   8.428
 2528POPC   C3B35265  23.469  37.577   8.013
 2528POPC   C4B35266  23.636  37.845   7.719
 2529POPC   NC335267   1.059  22.986   9.717
 2529POPC   PO435268   1.473  22.566   9.892
 2529POPC   GL135269   1.418  22.834   9.391
 2529POPC   GL235270   1.201  23.135   9.263
 2529POPC   C1A35271   1.289  22.762   8.916
 2529POPC   D2A35272   0.953  22.779   8.592
 2529POPC   C3A35273   1.073  22.766   8.158
 2529POPC   C4A35274   0.925  22.532   7.833
 2529POPC   C1B35275   1.099  23.251   8.846
 2529POPC   C2B35276   1.244  23.193   8.422
 2529POPC   C3B35277   1.209  23.244   7.971
 2529POPC   C4B35278   1.427  23.243   7.565
 2530POPC   NC335279  23.230  28.572   9.557
 2530POPC   PO435280  23.907  28.521   9.685
 2530POPC   GL135281  23.656  28.589   9.268
 2530POPC   GL235282  23.463  28.304   9.174
 2530POPC   C1A35283  23.599  28.692   8.808
 2530POPC   D2A35284  23.543  28.823   8.344
 2530POPC   C3A35285  23.859  28.643   8.077
 2530POPC   C4A35286  23.851  28.629   7.629
 2530POPC   C1B35287  23.400  28.224   8.726
 2530POPC   C2B35288  23.527  28.309   8.290
 2530POPC   C3B35289  23.618  28.212   7.844
 2530POPC   C4B35290  23.596  27.845   7.551
 2531POPC   NC335291  13.038  42.032   9.423
 2531POPC   PO435292  12.613  41.599   9.741
 2531POPC   GL135293  12.670  41.646   9.263
 2531POPC   GL235294  12.955  41.688   9.081
 2531POPC   C1A35295  12.564  41.559   8.808
 2531POPC   D2A35296  12.600  41.390   8.382
 2531POPC   C3A35297  12.636  41.615   7.986
 2531POPC   C4A35298  12.797  41.369   7.672
 2531POPC   C1B35299  13.102  41.609   8.720
 2531POPC   C2B35300  12.975  41.742   8.352
 2531POPC   C3B35301  13.169  41.623   7.985
 2531POPC   C4B35302  13.053  41.935   7.751
 2532POPC   NC335303  40.389  19.715   9.477
 2532POPC   PO435304  39.742  19.769   9.638
 2532POPC   GL135305  39.811  19.925   9.199
 2532POPC   GL235306  40.149  20.032   9.140
 2532POPC   C1A35307  39.761  19.939   8.717
 2532POPC   D2A35308  39.876  19.612   8.401
 2532POPC   C3A35309  40.078  19.687   7.969
 2532POPC   C4A35310  40.205  19.350   7.677
 2532POPC   C1B35311  40.264  19.876   8.727
 2532POPC   C2B35312  40.141  20.048   8.341
 2532POPC   C3B35313  40.355  20.122   7.960
 2532POPC   C4B35314  40.458  19.909   7.572
 2533POPC   NC335315  21.414  44.316   9.516
 2533POPC   PO435316  21.682  44.919   9.415
 2533POPC   GL135317  21.441  44.645   9.109
 2533POPC   GL235318  21.637  44.347   9.055
 2533POPC   C1A35319  21.214  44.586   8.719
 2533POPC   D2A35320  21.182  44.923   8.418
 2533POPC   C3A35321  21.175  44.862   8.002
 2533POPC   C4A35322  21.082  44.482   7.847
 2533POPC   C1B35323  21.593  44.248   8.622
 2533POPC   C2B35324  21.378  44.395   8.258
 2533POPC   C3B35325  21.594  44.420   7.852
 2533POPC   C4B35326  21.731  44.363   7.410
 2534POPC   NC335327  15.750  11.783   9.751
 2534POPC   PO435328  16.087  11.740   9.209
 2534POPC   GL135329  15.807  11.933   8.992
 2534POPC   GL235330  15.826  12.258   9.133
 2534POPC   C1A35331  15.882  11.836   8.572
 2534POPC   D2A35332  16.238  11.790   8.318
 2534POPC   C3A35333  16.081  11.880   7.925
 2534POPC   C4A35334  15.764  12.175   7.769
 2534POPC   C1B35335  15.656  12.309   8.700
 2534POPC   C2B35336  15.801  12.253   8.273
 2534POPC   C3B35337  16.025  12.542   7.979
 2534POPC   C4B35338  15.925  12.657   7.530
 2535POPC   NC335339  37.103  20.943   9.600
 2535POPC   PO435340  36.653  20.459   9.512
 2535POPC   GL135341  36.980  20.545   9.242
 2535POPC   GL235342  36.968  20.866   9.106
 2535POPC   C1A35343  37.022  20.449   8.816
 2535POPC   D2A35344  36.875  20.589   8.432
 2535POPC   C3A35345  37.039  20.373   8.084
 2535POPC   C4A35346  36.737  20.229   7.785
 2535POPC   C1B35347  36.756  21.014   8.716
 2535POPC   C2B35348  36.631  21.000   8.244
 2535POPC   C3B35349  36.696  20.731   7.879
 2535POPC   C4B35350  36.773  20.855   7.436
 2536POPC   NC335351  21.947  26.010   9.566
 2536POPC   PO435352  22.413  26.253   9.390
 2536POPC   GL135353  22.083  26.127   9.078
 2536POPC   GL235354  22.000  25.770   9.107
 2536POPC   C1A35355  22.062  26.091   8.620
 2536POPC   D2A35356  22.021  25.845   8.241
 2536POPC   C3A35357  22.028  26.053   7.845
 2536POPC   C4A35358  22.069  25.885   7.494
 2536POPC   C1B35359  22.388  25.769   8.846
 2536POPC   C2B35360  22.518  25.896   8.415
 2536POPC   C3B35361  22.487  25.855   7.959
 2536POPC   C4B35362  22.715  25.974   7.563
 2537POPC   NC335363  39.659  19.341   9.421
 2537POPC   PO435364  40.232  18.983   9.393
 2537POPC   GL135365  40.094  18.874   9.006
 2537POPC   GL235366  39.750  18.756   9.076
 2537POPC   C1A35367  40.144  19.133   8.624
 2537POPC   D2A35368  40.177  19.235   8.190
 2537POPC   C3A35369  39.999  18.906   7.913
 2537POPC   C4A35370  40.092  18.874   7.470
 2537POPC   C1B35371  39.635  19.049   8.745
 2537POPC   C2B35372  39.683  19.142   8.304
 2537POPC   C3B35373  39.724  19.327   7.884
 2537POPC   C4B35374  39.758  19.290   7.427
 2538POPC   NC335375  18.016  34.727   9.553
 2538POPC   PO435376  18.640  34.511   9.435
 2538POPC   GL135377  18.327  34.510   9.173
 2538POPC   GL235378  18.339  34.872   9.173
 2538POPC   C1A35379  18.299  34.344   8.760
 2538POPC   D2A35380  18.509  34.423   8.376
 2538POPC   C3A35381  18.294  34.410   7.979
 2538POPC   C4A35382  18.261  34.242   7.543
 2538POPC   C1B35383  18.090  34.810   8.817
 2538POPC   C2B35384  18.057  34.682   8.399
 2538POPC   C3B35385  18.054  34.895   8.029
 2538POPC   C4B35386  18.097  34.728   7.628
 2539POPC   NC335387   7.178  23.401   9.505
 2539POPC   PO435388   7.652  23.898   9.615
 2539POPC   GL135389   7.577  23.677   9.228
 2539POPC   GL235390   7.246  23.646   9.070
 2539POPC   C1A35391   7.722  23.781   8.812
 2539POPC   D2A35392   7.878  23.793   8.339
 2539POPC   C3A35393   7.794  23.722   7.856
 2539POPC   C4A35394   7.727  24.035   7.485
 2539POPC   C1B35395   7.101  23.404   8.724
 2539POPC   C2B35396   7.138  23.298   8.295
 2539POPC   C3B35397   7.286  23.583   7.990
 2539POPC   C4B35398   7.311  23.790   7.614
 2540POPC   NC335399  27.383   0.305   9.470
 2540POPC   PO435400  27.784   0.827   9.218
 2540POPC   GL135401  27.508   0.598   9.055
 2540POPC   GL235402  27.784   0.325   9.142
 2540POPC   C1A35403  27.397   0.726   8.623
 2540POPC   D2A35404  27.422   0.751   8.170
 2540POPC   C3A35405  27.449   0.363   7.939
 2540POPC   C4A35406  27.335   0.339   7.512
 2540POPC   C1B35407  27.706   0.251   8.746
 2540POPC   C2B35408  27.776   0.435   8.364
 2540POPC   C3B35409  27.900   0.598   7.974
 2540POPC   C4B35410  27.834   0.495   7.551
 2541POPC   NC335411  29.166  22.818   9.461
 2541POPC   PO435412  29.485  23.398   9.423
 2541POPC   GL135413  29.076  23.322   9.157
 2541POPC   GL235414  29.011  22.945   9.001
 2541POPC   C1A35415  28.861  23.338   8.738
 2541POPC   D2A35416  29.076  23.098   8.393
 2541POPC   C3A35417  28.957  23.086   7.951
 2541POPC   C4A35418  28.821  22.943   7.542
 2541POPC   C1B35419  29.041  22.621   8.646
 2541POPC   C2B35420  29.028  22.599   8.169
 2541POPC   C3B35421  29.250  22.655   7.766
 2541POPC   C4B35422  29.634  22.729   7.493
 2542POPC   NC335423  32.530  36.144   9.535
 2542POPC   PO435424  32.048  35.713   9.395
 2542POPC   GL135425  32.218  36.032   9.163
 2542POPC   GL235426  31.994  36.263   9.025
 2542POPC   C1A35427  32.418  36.033   8.799
 2542POPC   D2A35428  32.160  36.182   8.477
 2542POPC   C3A35429  32.107  36.026   8.052
 2542POPC   C4A35430  32.177  35.969   7.607
 2542POPC   C1B35431  32.349  36.530   8.815
 2542POPC   C2B35432  32.503  36.705   8.444
 2542POPC   C3B35433  32.415  36.435   8.113
 2542POPC   C4B35434  32.187  36.448   7.744
 2543POPC   NC335435   8.300   3.259   9.438
 2543POPC   PO435436   8.367   3.917   9.542
 2543POPC   GL135437   8.163   3.671   9.173
 2543POPC   GL235438   8.408   3.572   9.062
 2543POPC   C1A35439   8.038   3.565   8.702
 2543POPC   D2A35440   7.972   3.266   8.335
 2543POPC   C3A35441   8.112   3.435   7.919
 2543POPC   C4A35442   8.011   3.823   7.690
 2543POPC   C1B35443   8.513   3.750   8.701
 2543POPC   C2B35444   8.474   3.597   8.282
 2543POPC   C3B35445   8.513   3.796   7.889
 2543POPC   C4B35446   8.478   3.885   7.454
 2544POPC   NC335447  36.212  44.416   9.494
 2544POPC   PO435448  35.752  44.900   9.542
 2544POPC   GL135449  35.960  44.789   9.165
 2544POPC   GL235450  35.793  44.455   9.182
 2544POPC   C1A35451  36.167  44.853   8.724
 2544POPC   D2A35452  36.169  44.968   8.267
 2544POPC   C3A35453  36.170  44.666   7.924
 2544POPC   C4A35454  36.324  44.606   7.483
 2544POPC   C1B35455  35.751  44.546   8.760
 2544POPC   C2B35456  35.937  44.497   8.345
 2544POPC   C3B35457  35.722  44.439   7.931
 2544POPC   C4B35458  35.805  44.472   7.473
 2545POPC   NC335459  38.483  28.938   9.474
 2545POPC   PO435460  38.171  29.477   9.332
 2545POPC   GL135461  38.401  29.287   8.997
 2545POPC   GL235462  38.604  28.993   8.988
 2545POPC   C1A35463  38.522  29.274   8.563
 2545POPC   D2A35464  38.734  28.918   8.361
 2545POPC   C3A35465  38.559  28.856   7.946
 2545POPC   C4A35466  38.466  29.157   7.633
 2545POPC   C1B35467  38.344  28.780   8.725
 2545POPC   C2B35468  38.271  28.592   8.319
 2545POPC   C3B35469  38.044  28.681   7.948
 2545POPC   C4B35470  38.154  28.764   7.515
 2546POPC   NC335471  40.557  21.820   9.917
 2546POPC   PO435472  40.526  21.190   9.590
 2546POPC   GL135473  40.560  21.467   9.234
 2546POPC   GL235474  40.776  21.713   9.225
 2546POPC   C1A35475  40.477  21.564   8.811
 2546POPC   D2A35476  40.720  21.478   8.440
 2546POPC   C3A35477  40.500  21.490   8.070
 2546POPC   C4A35478  40.698  21.455   7.701
 2546POPC   C1B35479  41.006  21.697   8.815
 2546POPC   C2B35480  41.058  21.883   8.375
 2546POPC   C3B35481  41.072  21.754   7.904
 2546POPC   C4B35482  41.154  21.508   7.482
 2547POPC   NC335483  11.456  44.608   9.434
 2547POPC   PO435484  10.939  44.939   9.305
 2547POPC   GL135485  11.260  44.962   8.993
 2547POPC   GL235486  11.451  44.664   8.938
 2547POPC   C1A35487  11.181  44.861   8.547
 2547POPC   D2A35488  11.050   0.003   8.144
 2547POPC   C3A35489  11.394  44.934   7.844
 2547POPC   C4A35490  11.401  44.786   7.430
 2547POPC   C1B35491  11.058  44.445   8.835
 2547POPC   C2B35492  11.021  44.306   8.425
 2547POPC   C3B35493  11.183  44.501   8.054
 2547POPC   C4B35494  11.328  44.337   7.644
 2548POPC   NC335495  22.788  22.145   9.599
 2548POPC   PO435496  23.422  22.345   9.399
 2548POPC   GL135497  23.000  22.288   9.153
 2548POPC   GL235498  22.845  21.945   9.139
 2548POPC   C1A35499  22.673  22.245   8.780
 2548POPC   D2A35500  22.816  22.312   8.336
 2548POPC   C3A35501  22.740  22.055   7.977
 2548POPC   C4A35502  22.807  22.088   7.515
 2548POPC   C1B35503  23.098  21.959   8.742
 2548POPC   C2B35504  23.143  21.876   8.273
 2548POPC   C3B35505  23.226  22.111   7.871
 2548POPC   C4B35506  23.291  21.989   7.439
 2549POPC   NC335507   0.633  28.574   9.462
 2549POPC   PO435508   0.199  28.113   9.414
 2549POPC   GL135509   0.321  28.357   9.085
 2549POPC   GL235510   0.663  28.368   9.019
 2549POPC   C1A35511   0.138  28.580   8.778
 2549POPC   D2A35512   0.207  28.834   8.414
 2549POPC   C3A35513   0.312  28.545   8.138
 2549POPC   C4A35514   0.222  28.500   7.722
 2549POPC   C1B35515   0.563  28.377   8.608
 2549POPC   C2B35516   0.289  28.141   8.447
 2549POPC   C3B35517   0.409  28.028   8.082
 2549POPC   C4B35518   0.591  28.166   7.728
 2550POPC   NC335519  14.653  21.138   9.489
 2550POPC   PO435520  14.341  21.723   9.521
 2550POPC   GL135521  14.319  21.416   9.190
 2550POPC   GL235522  14.390  21.690   8.996
 2550POPC   C1A35523  14.288  21.241   8.743
 2550POPC   D2A35524  14.426  21.242   8.314
 2550POPC   C3A35525  14.288  21.000   7.958
 2550POPC   C4A35526  14.255  21.176   7.554
 2550POPC   C1B35527  14.121  21.767   8.653
 2550POPC   C2B35528  13.960  21.578   8.285
 2550POPC   C3B35529  14.158  21.538   7.883
 2550POPC   C4B35530  13.978  21.621   7.469
 2551POPC   NC335531  27.260  15.527   9.521
 2551POPC   PO435532  26.958  16.165   9.602
 2551POPC   GL135533  27.024  15.954   9.230
 2551POPC   GL235534  26.719  15.829   9.111
 2551POPC   C1A35535  27.023  16.061   8.783
 2551POPC   D2A35536  27.281  16.086   8.432
 2551POPC   C3A35537  27.064  16.101   8.046
 2551POPC   C4A35538  27.062  16.369   7.698
 2551POPC   C1B35539  26.493  15.857   8.710
 2551POPC   C2B35540  26.438  16.021   8.281
 2551POPC   C3B35541  26.540  15.932   7.823
 2551POPC   C4B35542  26.613  15.875   7.338
 2552POPC   NC335543  40.895  38.997   9.633
 2552POPC   PO435544  40.427  39.417   9.359
 2552POPC   GL135545  40.662  39.273   9.057
 2552POPC   GL235546  40.977  39.210   9.161
 2552POPC   C1A35547  40.558  39.214   8.659
 2552POPC   D2A35548  40.577  39.437   8.292
 2552POPC   C3A35549  40.729  39.111   8.008
 2552POPC   C4A35550  40.529  38.727   7.850
 2552POPC   C1B35551  41.014  39.453   8.756
 2552POPC   C2B35552  41.093  39.479   8.303
 2552POPC   C3B35553  41.105  39.673   7.905
 2552POPC   C4B35554  40.983  39.597   7.469
 2553POPC   NC335555  34.486  24.329   9.862
 2553POPC   PO435556  34.424  24.933   9.610
 2553POPC   GL135557  34.420  24.785   9.203
 2553POPC   GL235558  34.754  24.591   9.161
 2553POPC   C1A35559  34.462  24.830   8.762
 2553POPC   D2A35560  34.377  24.497   8.478
 2553POPC   C3A35561  34.417  24.577   8.060
 2553POPC   C4A35562  34.475  24.310   7.702
 2553POPC   C1B35563  34.948  24.638   8.733
 2553POPC   C2B35564  34.876  24.407   8.365
 2553POPC   C3B35565  34.908  24.453   7.953
 2553POPC   C4B35566  34.735  24.765   7.703
 2554POPC   NC335567   6.657  35.472   9.577
 2554POPC   PO435568   6.387  34.868   9.364
 2554POPC   GL135569   6.665  35.153   9.162
 2554POPC   GL235570   6.432  35.453   9.131
 2554POPC   C1A35571   6.756  35.292   8.746
 2554POPC   D2A35572   6.436  35.226   8.440
 2554POPC   C3A35573   6.545  35.376   8.041
 2554POPC   C4A35574   6.773  35.224   7.719
 2554POPC   C1B35575   6.335  35.679   8.771
 2554POPC   C2B35576   6.371  35.779   8.341
 2554POPC   C3B35577   6.407  35.898   7.920
 2554POPC   C4B35578   6.607  35.681   7.597
 2555POPC   NC335579  17.924  41.231   9.585
 2555POPC   PO435580  17.243  41.459   9.410
 2555POPC   GL135581  17.591  41.516   9.142
 2555POPC   GL235582  17.611  41.157   9.181
 2555POPC   C1A35583  17.461  41.614   8.709
 2555POPC   D2A35584  17.303  41.517   8.296
 2555POPC   C3A35585  17.491  41.581   7.875
 2555POPC   C4A35586  17.354  41.349   7.507
 2555POPC   C1B35587  17.769  41.122   8.776
 2555POPC   C2B35588  17.793  41.307   8.377
 2555POPC   C3B35589  17.677  41.118   7.981
 2555POPC   C4B35590  17.838  41.246   7.600
 2556POPC   NC335591   8.334  39.863   9.401
 2556POPC   PO435592   7.747  40.007   9.473
 2556POPC   GL135593   7.906  40.023   9.113
 2556POPC   GL235594   8.105  40.308   9.172
 2556POPC   C1A35595   7.848  40.016   8.698
 2556POPC   D2A35596   7.742  39.774   8.357
 2556POPC   C3A35597   7.933  39.894   8.019
 2556POPC   C4A35598   8.196  40.102   7.764
 2556POPC   C1B35599   8.315  40.141   8.799
 2556POPC   C2B35600   8.239  40.148   8.368
 2556POPC   C3B35601   8.545  40.255   8.105
 2556POPC   C4B35602   8.494  40.511   7.778
 2557POPC   NC335603  31.172  15.514   9.421
 2557POPC   PO435604  31.763  15.954   9.640
 2557POPC   GL135605  31.593  15.879   9.246
 2557POPC   GL235606  31.599  16.235   9.071
 2557POPC   C1A35607  31.755  15.847   8.826
 2557POPC   D2A35608  31.586  16.092   8.495
 2557POPC   C3A35609  31.616  15.892   8.121
 2557POPC   C4A35610  31.676  16.044   7.754
 2557POPC   C1B35611  31.234  15.982   8.859
 2557POPC   C2B35612  31.042  16.063   8.462
 2557POPC   C3B35613  31.199  16.180   8.090
 2557POPC   C4B35614  31.189  15.942   7.731
 2558POPC   NC335615  22.394  20.689   9.535
 2558POPC   PO435616  21.767  21.067   9.464
 2558POPC   GL135617  22.023  20.777   9.148
 2558POPC   GL235618  22.326  20.507   9.085
 2558POPC   C1A35619  22.234  20.868   8.756
 2558POPC   D2A35620  22.238  20.719   8.358
 2558POPC   C3A35621  21.891  20.680   8.124
 2558POPC   C4A35622  22.159  20.733   7.780
 2558POPC   C1B35623  22.096  20.392   8.728
 2558POPC   C2B35624  22.038  20.220   8.314
 2558POPC   C3B35625  22.324  20.114   8.001
 2558POPC   C4B35626  22.424  20.279   7.587
 2559POPC   NC335627   1.438  40.442   9.507
 2559POPC   PO435628   1.345  41.158   9.579
 2559POPC   GL135629   1.371  40.907   9.177
 2559POPC   GL235630   1.156  40.583   9.117
 2559POPC   C1A35631   1.397  40.808   8.726
 2559POPC   D2A35632   1.218  40.628   8.326
 2559POPC   C3A35633   0.999  40.905   8.049
 2559POPC   C4A35634   0.979  40.918   7.595
 2559POPC   C1B35635   0.915  40.481   8.725
 2559POPC   C2B35636   0.750  40.340   8.310
 2559POPC   C3B35637   0.878  40.429   7.877
 2559POPC   C4B35638   1.280  40.526   7.763
 2560POPC   NC335639  14.616  29.894   9.506
 2560POPC   PO435640  14.183  30.418   9.461
 2560POPC   GL135641  14.247  30.067   9.165
 2560POPC   GL235642  14.566  29.962   9.015
 2560POPC   C1A35643  14.052  29.953   8.800
 2560POPC   D2A35644  14.243  29.993   8.417
 2560POPC   C3A35645  14.106  29.938   8.018
 2560POPC   C4A35646  14.371  30.196   7.769
 2560POPC   C1B35647  14.501  29.653   8.690
 2560POPC   C2B35648  14.440  29.508   8.254
 2560POPC   C3B35649  14.503  29.672   7.797
 2560POPC   C4B35650  14.684  29.587   7.331
 2561POPC   NC335651  44.136  42.763   9.497
 2561POPC   PO435652  43.919  43.344   9.523
 2561POPC   GL135653  43.835  43.099   9.195
 2561POPC   GL235654  43.653  43.364   9.076
 2561POPC   C1A35655  44.023  42.959   8.823
 2561POPC   D2A35656  44.190  43.127   8.443
 2561POPC   C3A35657  44.088  42.988   8.042
 2561POPC   C4A35658  44.069  43.120   7.610
 2561POPC   C1B35659  43.788  43.400   8.689
 2561POPC   C2B35660  43.687  43.145   8.361
 2561POPC   C3B35661  43.668  43.270   7.951
 2561POPC   C4B35662  43.522  43.244   7.566
 2562POPC   NC335663   6.381  32.915   9.468
 2562POPC   PO435664   6.796  33.350   9.656
 2562POPC   GL135665   6.698  33.301   9.239
 2562POPC   GL235666   6.784  32.967   9.173
 2562POPC   C1A35667   6.642  33.281   8.791
 2562POPC   D2A35668   6.693  33.077   8.382
 2562POPC   C3A35669   6.632  33.264   7.978
 2562POPC   C4A35670   6.341  33.436   7.673
 2562POPC   C1B35671   6.599  32.758   8.804
 2562POPC   C2B35672   6.777  32.574   8.403
 2562POPC   C3B35673   6.615  32.719   7.985
 2562POPC   C4B35674   6.189  32.801   7.801
 2563POPC   NC335675   7.870   5.687   9.512
 2563POPC   PO435676   8.508   5.528   9.526
 2563POPC   GL135677   8.263   5.605   9.176
 2563POPC   GL235678   7.953   5.428   9.082
 2563POPC   C1A35679   8.185   5.809   8.789
 2563POPC   D2A35680   7.852   5.698   8.521
 2563POPC   C3A35681   7.964   5.684   8.109
 2563POPC   C4A35682   8.055   5.753   7.689
 2563POPC   C1B35683   8.272   5.311   8.768
 2563POPC   C2B35684   8.384   5.524   8.390
 2563POPC   C3B35685   8.416   5.472   7.943
 2563POPC   C4B35686   8.574   5.718   7.594
 2564POPC   NC335687   2.680  12.474   9.579
 2564POPC   PO435688   2.778  13.137   9.551
 2564POPC   GL135689   2.617  13.015   9.144
 2564POPC   GL235690   2.763  12.691   9.120
 2564POPC   C1A35691   2.829  13.038   8.745
 2564POPC   D2A35692   3.096  12.755   8.488
 2564POPC   C3A35693   3.009  12.794   8.061
 2564POPC   C4A35694   2.851  13.032   7.753
 2564POPC   C1B35695   2.516  12.627   8.752
 2564POPC   C2B35696   2.575  12.804   8.349
 2564POPC   C3B35697   2.455  12.687   7.945
 2564POPC   C4B35698   2.656  12.632   7.534
 2565POPC   NC335699   7.029  32.153   9.494
 2565POPC   PO435700   6.403  32.437   9.545
 2565POPC   GL135701   6.677  32.389   9.175
 2565POPC   GL235702   7.026  32.508   9.110
 2565POPC   C1A35703   6.540  32.258   8.776
 2565POPC   D2A35704   6.269  32.436   8.481
 2565POPC   C3A35705   6.380  32.217   8.125
 2565POPC   C4A35706   6.384  32.310   7.702
 2565POPC   C1B35707   7.051  32.166   8.797
 2565POPC   C2B35708   6.878  32.065   8.369
 2565POPC   C3B35709   6.860  32.274   7.942
 2565POPC   C4B35710   6.827  32.324   7.451
 2566POPC   NC335711  24.574  44.284   9.393
 2566POPC   PO435712  24.763  44.895   9.547
 2566POPC   GL135713  24.597   0.014   9.128
 2566POPC   GL235714  24.442  44.699   9.098
 2566POPC   C1A35715  24.487   0.002   8.667
 2566POPC   D2A35716  24.369  44.771   8.266
 2566POPC   C3A35717  24.399  44.983   7.866
 2566POPC   C4A35718  24.566  44.894   7.453
 2566POPC   C1B35719  24.642  44.517   8.701
 2566POPC   C2B35720  24.851  44.552   8.301
 2566POPC   C3B35721  24.804  44.539   7.867
 2566POPC   C4B35722  24.411  44.479   7.771
 2567POPC   NC335723  18.601  20.438   9.457
 2567POPC   PO435724  17.989  20.674   9.373
 2567POPC   GL135725  18.300  20.618   9.076
 2567POPC   GL235726  18.411  20.305   9.000
 2567POPC   C1A35727  18.476  20.739   8.705
 2567POPC   D2A35728  18.603  20.798   8.311
 2567POPC   C3A35729  18.622  20.505   7.988
 2567POPC   C4A35730  18.573  20.807   7.655
 2567POPC   C1B35731  18.210  20.296   8.619
 2567POPC   C2B35732  18.067  20.626   8.385
 2567POPC   C3B35733  18.181  20.755   7.991
 2567POPC   C4B35734  18.219  20.409   7.682
 2568POPC   NC335735  42.547  27.837   9.578
 2568POPC   PO435736  41.890  27.545   9.565
 2568POPC   GL135737  42.110  27.601   9.203
 2568POPC   GL235738  42.440  27.448   9.213
 2568POPC   C1A35739  42.090  27.579   8.774
 2568POPC   D2A35740  42.265  27.496   8.386
 2568POPC   C3A35741  42.038  27.612   8.010
 2568POPC   C4A35742  42.222  27.708   7.610
 2568POPC   C1B35743  42.537  27.832   8.944
 2568POPC   C2B35744  42.529  27.923   8.509
 2568POPC   C3B35745  42.573  27.784   8.096
 2568POPC   C4B35746  42.645  27.984   7.720
 2569POPC   NC335747  25.236  32.639   9.535
 2569POPC   PO435748  24.953  33.263   9.606
 2569POPC   GL135749  25.153  33.111   9.245
 2569POPC   GL235750  25.252  33.440   9.122
 2569POPC   C1A35751  25.145  32.844   8.883
 2569POPC   D2A35752  24.999  32.782   8.446
 2569POPC   C3A35753  25.219  32.724   8.038
 2569POPC   C4A35754  25.191  32.728   7.574
 2569POPC   C1B35755  25.288  33.333   8.683
 2569POPC   C2B35756  25.265  33.221   8.247
 2569POPC   C3B35757  25.194  33.195   7.807
 2569POPC   C4B35758  25.059  33.503   7.505
 2570POPC   NC335759  20.457  38.213   9.711
 2570POPC   PO435760  20.786  37.686   9.340
 2570POPC   GL135761  20.616  37.634   8.995
 2570POPC   GL235762  20.311  37.485   9.117
 2570POPC   C1A35763  20.717  37.711   8.580
 2570POPC   D2A35764  20.716  37.905   8.180
 2570POPC   C3A35765  20.902  37.574   7.930
 2570POPC   C4A35766  20.876  37.268   7.625
 2570POPC   C1B35767  20.207  37.709   8.693
 2570POPC   C2B35768  20.287  37.615   8.229
 2570POPC   C3B35769  20.416  37.634   7.765
 2570POPC   C4B35770  20.230  37.757   7.322
 2571POPC   NC335771  32.533  43.078   9.724
 2571POPC   PO435772  31.941  43.244   9.610
 2571POPC   GL135773  32.101  43.032   9.180
 2571POPC   GL235774  32.464  42.975   9.212
 2571POPC   C1A35775  31.983  43.110   8.695
 2571POPC   D2A35776  31.767  43.278   8.303
 2571POPC   C3A35777  31.867  43.137   7.868
 2571POPC   C4A35778  31.994  43.339   7.440
 2571POPC   C1B35779  32.517  43.103   8.834
 2571POPC   C2B35780  32.390  43.373   8.527
 2571POPC   C3B35781  32.284  43.245   8.135
 2571POPC   C4B35782  32.433  43.347   7.723
 2572POPC   NC335783  36.147  34.344   9.505
 2572POPC   PO435784  36.400  34.946   9.415
 2572POPC   GL135785  36.171  34.719   9.123
 2572POPC   GL235786  36.394  34.425   9.041
 2572POPC   C1A35787  36.144  34.785   8.687
 2572POPC   D2A35788  36.013  34.765   8.274
 2572POPC   C3A35789  36.301  34.486   8.049
 2572POPC   C4A35790  36.305  34.399   7.573
 2572POPC   C1B35791  35.994  34.309   8.812
 2572POPC   C2B35792  35.877  34.270   8.349
 2572POPC   C3B35793  35.855  34.371   7.884
 2572POPC   C4B35794  35.876  34.128   7.477
 2573POPC   NC335795   6.257  38.636   9.578
 2573POPC   PO435796   6.942  38.540   9.549
 2573POPC   GL135797   6.746  38.590   9.149
 2573POPC   GL235798   6.468  38.804   9.156
 2573POPC   C1A35799   6.791  38.397   8.748
 2573POPC   D2A35800   6.795  38.044   8.444
 2573POPC   C3A35801   6.872  38.144   8.030
 2573POPC   C4A35802   6.753  38.393   7.687
 2573POPC   C1B35803   6.345  38.787   8.734
 2573POPC   C2B35804   6.460  38.497   8.378
 2573POPC   C3B35805   6.359  38.550   7.971
 2573POPC   C4B35806   6.032  38.798   7.870
 2574POPC   NC335807   2.212  14.282   9.801
 2574POPC   PO435808   1.831  14.791   9.508
 2574POPC   GL135809   1.988  14.552   9.160
 2574POPC   GL235810   2.236  14.295   9.278
 2574POPC   C1A35811   1.809  14.455   8.773
 2574POPC   D2A35812   2.010  14.441   8.379
 2574POPC   C3A35813   1.799  14.475   7.982
 2574POPC   C4A35814   1.814  14.544   7.557
 2574POPC   C1B35815   2.274  14.012   8.922
 2574POPC   C2B35816   2.323  14.018   8.455
 2574POPC   C3B35817   2.364  14.182   8.031
 2574POPC   C4B35818   2.456  13.959   7.626
 2575POPC   NC335819  16.194   8.340   9.481
 2575POPC   PO435820  15.689   7.912   9.483
 2575POPC   GL135821  15.904   8.101   9.159
 2575POPC   GL235822  16.239   7.968   9.137
 2575POPC   C1A35823  15.803   8.353   8.832
 2575POPC   D2A35824  15.677   8.251   8.434
 2575POPC   C3A35825  15.629   8.476   8.064
 2575POPC   C4A35826  15.743   8.218   7.706
 2575POPC   C1B35827  16.303   8.236   8.822
 2575POPC   C2B35828  16.189   8.073   8.433
 2575POPC   C3B35829  16.101   8.249   8.071
 2575POPC   C4B35830  16.267   8.170   7.683
 2576POPC   NC335831  24.751  32.142   9.758
 2576POPC   PO435832  25.369  32.232   9.739
 2576POPC   GL135833  25.237  32.239   9.229
 2576POPC   GL235834  25.306  31.977   9.007
 2576POPC   C1A35835  25.033  32.347   8.792
 2576POPC   D2A35836  25.041  32.079   8.450
 2576POPC   C3A35837  24.889  32.284   8.096
 2576POPC   C4A35838  25.001  32.264   7.656
 2576POPC   C1B35839  25.541  32.312   8.805
 2576POPC   C2B35840  25.419  32.443   8.430
 2576POPC   C3B35841  25.390  32.233   8.080
 2576POPC   C4B35842  25.498  32.344   7.714
 2577POPC   NC335843  41.540  44.224   9.287
 2577POPC   PO435844  41.745  43.563   9.464
 2577POPC   GL135845  41.573  43.725   9.096
 2577POPC   GL235846  41.335  43.497   9.075
 2577POPC   C1A35847  41.616  43.946   8.695
 2577POPC   D2A35848  41.692  44.285   8.433
 2577POPC   C3A35849  41.520  44.233   8.058
 2577POPC   C4A35850  41.569  44.305   7.643
 2577POPC   C1B35851  41.369  43.456   8.658
 2577POPC   C2B35852  41.411  43.672   8.299
 2577POPC   C3B35853  41.214  43.842   7.949
 2577POPC   C4B35854  41.362  43.849   7.512
 2578POPC   NC335855  41.220  18.341   9.454
 2578POPC   PO435856  40.520  18.149   9.557
 2578POPC   GL135857  40.796  18.224   9.181
 2578POPC   GL235858  40.732  18.551   9.118
 2578POPC   C1A35859  40.654  18.284   8.710
 2578POPC   D2A35860  40.883  18.204   8.319
 2578POPC   C3A35861  40.721  18.068   7.907
 2578POPC   C4A35862  40.892  18.233   7.507
 2578POPC   C1B35863  41.042  18.601   8.728
 2578POPC   C2B35864  40.998  18.753   8.289
 2578POPC   C3B35865  40.732  18.554   7.970
 2578POPC   C4B35866  40.497  18.560   7.573
 2579POPC   NC335867  27.876  30.642   9.558
 2579POPC   PO435868  28.620  30.882   9.621
 2579POPC   GL135869  28.378  30.832   9.255
 2579POPC   GL235870  28.298  30.509   9.276
 2579POPC   C1A35871  28.405  30.902   8.800
 2579POPC   D2A35872  28.503  30.734   8.380
 2579POPC   C3A35873  28.464  31.012   7.984
 2579POPC   C4A35874  28.123  31.032   7.708
 2579POPC   C1B35875  28.019  30.562   8.906
 2579POPC   C2B35876  27.958  30.516   8.448
 2579POPC   C3B35877  28.169  30.555   8.038
 2579POPC   C4B35878  28.167  30.277   7.680
 2580POPC   NC335879  14.103  14.796   9.439
 2580POPC   PO435880  14.407  15.434   9.440
 2580POPC   GL135881  14.246  15.177   9.116
 2580POPC   GL235882  14.503  15.004   9.068
 2580POPC   C1A35883  14.104  15.046   8.731
 2580POPC   D2A35884  14.312  14.978   8.344
 2580POPC   C3A35885  14.197  15.084   7.932
 2580POPC   C4A35886  14.539  15.211   7.663
 2580POPC   C1B35887  14.646  14.759   8.729
 2580POPC   C2B35888  14.630  14.588   8.303
 2580POPC   C3B35889  14.705  14.803   7.918
 2580POPC   C4B35890  14.562  14.734   7.466
 2581POPC   NC335891  38.733  27.359   9.411
 2581POPC   PO435892  38.284  27.823   9.537
 2581POPC   GL135893  38.481  27.698   9.150
 2581POPC   GL235894  38.871  27.797   9.175
 2581POPC   C1A35895  38.390  27.350   8.848
 2581POPC   D2A35896  38.383  27.519   8.451
 2581POPC   C3A35897  38.399  27.288   8.086
 2581POPC   C4A35898  38.487  27.462   7.706
 2581POPC   C1B35899  38.815  27.643   8.740
 2581POPC   C2B35900  38.791  27.772   8.297
 2581POPC   C3B35901  38.982  27.612   7.929
 2581POPC   C4B35902  38.950  27.261   7.659
 2582POPC   NC335903  35.631  16.311   9.482
 2582POPC   PO435904  35.279  15.700   9.487
 2582POPC   GL135905  35.588  15.799   9.251
 2582POPC   GL235906  35.438  16.080   9.065
 2582POPC   C1A35907  35.573  15.607   8.865
 2582POPC   D2A35908  35.391  15.852   8.548
 2582POPC   C3A35909  35.471  15.751   8.115
 2582POPC   C4A35910  35.460  15.695   7.669
 2582POPC   C1B35911  35.019  16.079   8.833
 2582POPC   C2B35912  34.984  16.103   8.374
 2582POPC   C3B35913  35.129  16.132   7.927
 2582POPC   C4B35914  35.186  16.158   7.447
 2583POPC   NC335915   3.152  28.152   9.278
 2583POPC   PO435916   3.658  28.561   9.455
 2583POPC   GL135917   3.578  28.326   9.085
 2583POPC   GL235918   3.229  28.503   8.936
 2583POPC   C1A35919   3.650  28.391   8.683
 2583POPC   D2A35920   3.510  28.753   8.493
 2583POPC   C3A35921   3.543  28.591   8.109
 2583POPC   C4A35922   3.456  28.430   7.749
 2583POPC   C1B35923   3.106  28.312   8.549
 2583POPC   C2B35924   3.147  28.238   8.102
 2583POPC   C3B35925   3.173  28.030   7.693
 2583POPC   C4B35926   3.272  28.224   7.278
 2584POPC   NC335927  18.253  11.163   9.453
 2584POPC   PO435928  18.791  11.452   9.282
 2584POPC   GL135929  18.512  11.207   9.009
 2584POPC   GL235930  18.439  10.877   9.085
 2584POPC   C1A35931  18.361  11.208   8.597
 2584POPC   D2A35932  18.298  11.561   8.306
 2584POPC   C3A35933  18.334  11.461   7.875
 2584POPC   C4A35934  18.633  11.130   7.725
 2584POPC   C1B35935  18.193  10.729   8.767
 2584POPC   C2B35936  18.042  10.852   8.415
 2584POPC   C3B35937  18.281  11.005   8.108
 2584POPC   C4B35938  18.062  11.064   7.730
 2585POPC   NC335939   1.556  43.679   9.415
 2585POPC   PO435940   1.026  44.196   9.467
 2585POPC   GL135941   1.102  44.243   9.105
 2585POPC   GL235942   1.461  44.271   9.121
 2585POPC   C1A35943   0.942  44.096   8.750
 2585POPC   D2A35944   1.018  43.809   8.444
 2585POPC   C3A35945   0.976  43.945   8.014
 2585POPC   C4A35946   1.193  44.301   7.818
 2585POPC   C1B35947   1.462  43.983   8.751
 2585POPC   C2B35948   1.522  43.885   8.284
 2585POPC   C3B35949   1.480  43.724   7.837
 2585POPC   C4B35950   1.486  43.708   7.366
 2586POPC   NC335951  19.535  36.781   9.457
 2586POPC   PO435952  18.876  36.637   9.606
 2586POPC   GL135953  18.903  36.735   9.200
 2586POPC   GL235954  19.038  37.016   9.189
 2586POPC   C1A35955  18.884  36.736   8.770
 2586POPC   D2A35956  19.163  36.880   8.461
 2586POPC   C3A35957  18.952  36.924   8.124
 2586POPC   C4A35958  18.853  36.625   7.817
 2586POPC   C1B35959  19.056  37.237   8.774
 2586POPC   C2B35960  19.153  37.416   8.352
 2586POPC   C3B35961  19.224  37.321   7.915
 2586POPC   C4B35962  18.834  37.163   7.696
 2587POPC   NC335963  10.046  29.947   9.239
 2587POPC   PO435964  10.485  29.583   9.677
 2587POPC   GL135965  10.611  29.685   9.251
 2587POPC   GL235966  10.357  29.584   9.038
 2587POPC   C1A35967  10.649  29.935   8.840
 2587POPC   D2A35968  10.587  29.912   8.440
 2587POPC   C3A35969  10.895  30.020   8.103
 2587POPC   C4A35970  10.817  30.156   7.692
 2587POPC   C1B35971  10.132  29.756   8.651
 2587POPC   C2B35972  10.088  29.937   8.268
 2587POPC   C3B35973  10.405  29.983   7.977
 2587POPC   C4B35974  10.445  29.694   7.678
 2588POPC   NC335975  36.904  17.358   9.540
 2588POPC   PO435976  37.097  17.928   9.461
 2588POPC   GL135977  36.883  17.614   9.100
 2588POPC   GL235978  36.822  17.247   9.065
 2588POPC   C1A35979  36.952  17.544   8.659
 2588POPC   D2A35980  37.183  17.777   8.337
 2588POPC   C3A35981  37.002  17.839   7.927
 2588POPC   C4A35982  36.834  17.617   7.578
 2588POPC   C1B35983  36.469  17.264   8.814
 2588POPC   C2B35984  36.513  17.436   8.419
 2588POPC   C3B35985  36.851  17.386   8.158
 2588POPC   C4B35986  36.917  17.106   7.812
 2589POPC   NC335987  29.531  26.759   9.553
 2589POPC   PO435988  30.044  26.396   9.708
 2589POPC   GL135989  30.058  26.556   9.249
 2589POPC   GL235990  29.936  26.874   9.226
 2589POPC   C1A35991  30.177  26.613   8.793
 2589POPC   D2A35992  30.215  26.918   8.420
 2589POPC   C3A35993  29.971  26.855   8.069
 2589POPC   C4A35994  30.044  26.709   7.658
 2589POPC   C1B35995  29.975  27.086   8.823
 2589POPC   C2B35996  29.722  27.137   8.445
 2589POPC   C3B35997  29.638  27.298   8.040
 2589POPC   C4B35998  29.809  27.149   7.671
 2590POPC   NC335999  37.718  23.647   9.714
 2590POPC   PO436000  37.196  23.887   9.495
 2590POPC   GL136001  37.420  23.604   9.229
 2590POPC   GL236002  37.783  23.577   9.225
 2590POPC   C1A36003  37.475  23.479   8.796
 2590POPC   D2A36004  37.433  23.515   8.353
 2590POPC   C3A36005  37.672  23.812   8.133
 2590POPC   C4A36006  37.696  23.780   7.697
 2590POPC   C1B36007  37.955  23.343   8.882
 2590POPC   C2B36008  37.973  23.432   8.437
 2590POPC   C3B36009  37.929  23.374   7.995
 2590POPC   C4B36010  38.158  23.503   7.627
 2591POPC   NC336011  33.140   3.736   9.510
 2591POPC   PO436012  32.960   3.131   9.536
 2591POPC   GL136013  32.829   3.389   9.221
 2591POPC   GL236014  32.576   3.158   9.138
 2591POPC   C1A36015  32.845   3.695   8.862
 2591POPC   D2A36016  33.142   3.816   8.495
 2591POPC   C3A36017  33.247   3.490   8.144
 2591POPC   C4A36018  33.075   3.473   7.715
 2591POPC   C1B36019  32.868   3.198   8.746
 2591POPC   C2B36020  32.789   3.467   8.390
 2591POPC   C3B36021  32.635   3.533   7.962
 2591POPC   C4B36022  32.556   3.361   7.557
 2592POPC   NC336023  42.336  26.452   9.371
 2592POPC   PO436024  42.271  25.832   9.560
 2592POPC   GL136025  42.293  26.002   9.144
 2592POPC   GL236026  42.647  26.109   9.130
 2592POPC   C1A36027  42.059  26.151   8.765
 2592POPC   D2A36028  41.844  26.295   8.383
 2592POPC   C3A36029  42.161  26.293   8.056
 2592POPC   C4A36030  42.304  25.957   7.741
 2592POPC   C1B36031  42.555  26.094   8.692
 2592POPC   C2B36032  42.619  26.041   8.241
 2592POPC   C3B36033  42.640  26.290   7.880
 2592POPC   C4B36034  42.840  26.575   7.731
 2593POPC   NC336035   9.389  42.035   9.334
 2593POPC   PO436036   8.812  42.377   9.536
 2593POPC   GL136037   8.915  42.154   9.166
 2593POPC   GL236038   8.710  41.884   9.209
 2593POPC   C1A36039   9.120  42.148   8.747
 2593POPC   D2A36040   9.063  42.406   8.396
 2593POPC   C3A36041   9.256  42.369   8.003
 2593POPC   C4A36042   9.028  42.654   7.777
 2593POPC   C1B36043   8.660  41.898   8.775
 2593POPC   C2B36044   8.626  42.119   8.373
 2593POPC   C3B36045   8.750  42.239   7.945
 2593POPC   C4B36046   8.517  42.149   7.538
 2594POPC   NC336047  36.733  14.161   9.589
 2594POPC   PO436048  37.082  14.617   9.388
 2594POPC   GL136049  36.815  14.418   9.087
 2594POPC   GL236050  36.915  14.087   9.093
 2594POPC   C1A36051  36.785  14.293   8.627
 2594POPC   D2A36052  36.700  13.975   8.309
 2594POPC   C3A36053  36.626  14.171   7.927
 2594POPC   C4A36054  36.598  14.610   7.930
 2594POPC   C1B36055  37.266  14.270   8.811
 2594POPC   C2B36056  37.340  14.387   8.418
 2594POPC   C3B36057  37.045  14.388   8.130
 2594POPC   C4B36058  37.024  14.407   7.700
 2595POPC   NC336059   1.242   5.635   9.570
 2595POPC   PO436060   1.481   6.184   9.218
 2595POPC   GL136061   1.410   5.744   9.115
 2595POPC   GL236062   1.079   5.821   9.112
 2595POPC   C1A36063   1.238   5.418   8.846
 2595POPC   D2A36064   1.094   5.420   8.437
 2595POPC   C3A36065   1.291   5.708   8.163
 2595POPC   C4A36066   1.382   5.650   7.755
 2595POPC   C1B36067   1.230   5.899   8.662
 2595POPC   C2B36068   1.219   6.206   8.327
 2595POPC   C3B36069   1.138   6.137   7.903
 2595POPC   C4B36070   0.861   5.847   7.817
 2596POPC   NC336071  18.251  33.136   9.471
 2596POPC   PO436072  18.846  32.921   9.716
 2596POPC   GL136073  18.589  32.843   9.269
 2596POPC   GL236074  18.271  32.629   9.214
 2596POPC   C1A36075  18.560  32.819   8.820
 2596POPC   D2A36076  18.462  33.071   8.447
 2596POPC   C3A36077  18.564  32.937   8.033
 2596POPC   C4A36078  18.341  33.113   7.697
 2596POPC   C1B36079  17.994  32.755   8.831
 2596POPC   C2B36080  17.870  33.033   8.478
 2596POPC   C3B36081  17.979  33.221   8.059
 2596POPC   C4B36082  17.854  33.260   7.606
 2597POPC   NC336083  41.526  34.803   9.528
 2597POPC   PO436084  41.902  34.253   9.420
 2597POPC   GL136085  41.748  34.577   9.127
 2597POPC   GL236086  41.511  34.904   9.032
 2597POPC   C1A36087  41.806  34.617   8.718
 2597POPC   D2A36088  41.794  34.414   8.350
 2597POPC   C3A36089  41.572  34.661   8.113
 2597POPC   C4A36090  41.518  34.482   7.749
 2597POPC   C1B36091  41.622  35.098   8.622
 2597POPC   C2B36092  41.667  35.169   8.163
 2597POPC   C3B36093  41.750  34.956   7.750
 2597POPC   C4B36094  41.478  34.828   7.386
 2598POPC   NC336095  15.612  41.834   9.470
 2598POPC   PO436096  16.088  41.362   9.684
 2598POPC   GL136097  16.150  41.380   9.254
 2598POPC   GL236098  16.029  41.674   9.165
 2598POPC   C1A36099  16.247  41.263   8.820
 2598POPC   D2A36100  16.351  41.292   8.370
 2598POPC   C3A36101  15.995  41.395   8.123
 2598POPC   C4A36102  15.940  41.481   7.693
 2598POPC   C1B36103  15.822  41.840   8.828
 2598POPC   C2B36104  15.835  41.790   8.417
 2598POPC   C3B36105  15.859  41.883   8.004
 2598POPC   C4B36106  15.755  41.964   7.589
 2599POPC   NC336107  34.323   3.081   9.552
 2599POPC   PO436108  34.981   2.944   9.644
 2599POPC   GL136109  34.806   2.667   9.312
 2599POPC   GL236110  34.455   2.699   9.222
 2599POPC   C1A36111  34.868   2.632   8.857
 2599POPC   D2A36112  34.769   2.774   8.416
 2599POPC   C3A36113  34.644   2.505   8.084
 2599POPC   C4A36114  34.515   2.742   7.721
 2599POPC   C1B36115  34.407   2.843   8.789
 2599POPC   C2B36116  34.251   2.577   8.453
 2599POPC   C3B36117  34.139   2.571   8.027
 2599POPC   C4B36118  34.024   2.645   7.600
 2600POPC   NC336119  44.365  27.436   9.469
 2600POPC   PO436120  44.999  27.195   9.400
 2600POPC   GL136121  44.760  27.389   9.094
 2600POPC   GL236122  44.695  27.732   9.136
 2600POPC   C1A36123  44.727  27.455   8.660
 2600POPC   D2A36124  44.808  27.328   8.235
 2600POPC   C3A36125  44.576  27.528   7.891
 2600POPC   C4A36126  44.261  27.434   7.594
 2600POPC   C1B36127  44.954  27.917   8.800
 2600POPC   C2B36128  44.905  27.836   8.358
 2600POPC   C3B36129   0.046  27.699   7.973
 2600POPC   C4B36130   0.141  27.948   7.656
 2601POPC   NC336131   3.487  26.566   9.504
 2601POPC   PO436132   3.112  27.064   9.449
 2601POPC   GL136133   3.471  26.936   9.145
 2601POPC   GL236134   3.797  26.700   9.132
 2601POPC   C1A36135   3.598  26.950   8.718
 2601POPC   D2A36136   3.686  26.818   8.322
 2601POPC   C3A36137   3.408  26.764   7.994
 2601POPC   C4A36138   3.382  26.816   7.572
 2601POPC   C1B36139   3.967  26.588   8.715
 2601POPC   C2B36140   4.014  26.418   8.284
 2601POPC   C3B36141   4.003  26.711   7.939
 2601POPC   C4B36142   3.902  26.902   7.538
 2602POPC   NC336143  43.817  24.659   9.744
 2602POPC   PO436144  44.203  24.234   9.398
 2602POPC   GL136145  43.959  24.387   9.104
 2602POPC   GL236146  43.759  24.716   9.179
 2602POPC   C1A36147  44.152  24.485   8.701
 2602POPC   D2A36148  43.980  24.643   8.311
 2602POPC   C3A36149  44.210  24.675   7.937
 2602POPC   C4A36150  44.148  24.498   7.563
 2602POPC   C1B36151  43.648  24.549   8.749
 2602POPC   C2B36152  43.515  24.399   8.336
 2602POPC   C3B36153  43.639  24.557   7.926
 2602POPC   C4B36154  43.695  24.326   7.556
 2603POPC   NC336155  17.088   6.974   9.265
 2603POPC   PO436156  16.759   6.467   9.659
 2603POPC   GL136157  16.559   6.540   9.168
 2603POPC   GL236158  16.606   6.277   8.923
 2603POPC   C1A36159  16.673   6.728   8.724
 2603POPC   D2A36160  16.539   6.463   8.371
 2603POPC   C3A36161  16.740   6.618   7.997
 2603POPC   C4A36162  16.883   7.012   7.815
 2603POPC   C1B36163  17.003   6.357   8.609
 2603POPC   C2B36164  17.223   6.180   8.249
 2603POPC   C3B36165  17.309   6.306   7.811
 2603POPC   C4B36166  16.996   6.489   7.571
 2604POPC   NC336167  10.976  31.143   9.412
 2604POPC   PO436168  11.388  31.611   9.560
 2604POPC   GL136169  11.298  31.509   9.181
 2604POPC   GL236170  10.985  31.658   9.176
 2604POPC   C1A36171  11.175  31.368   8.784
 2604POPC   D2A36172  11.306  31.517   8.398
 2604POPC   C3A36173  11.303  31.254   8.050
 2604POPC   C4A36174  11.327  31.361   7.640
 2604POPC   C1B36175  10.794  31.776   8.786
 2604POPC   C2B36176  10.860  31.776   8.337
 2604POPC   C3B36177  11.103  31.740   7.957
 2604POPC   C4B36178  10.924  31.661   7.562
 2605POPC   NC336179  36.152  15.524   9.639
 2605POPC   PO436180  36.085  16.184   9.538
 2605POPC   GL136181  36.016  16.063   9.139
 2605POPC   GL236182  36.286  16.223   9.033
 2605POPC   C1A36183  36.087  15.702   8.848
 2605POPC   D2A36184  35.865  15.581   8.430
 2605POPC   C3A36185  35.986  15.766   8.033
 2605POPC   C4A36186  35.971  15.808   7.611
 2605POPC   C1B36187  36.129  16.151   8.613
 2605POPC   C2B36188  36.365  15.907   8.331
 2605POPC   C3B36189  36.593  15.750   8.001
 2605POPC   C4B36190  36.422  15.586   7.644
 2606POPC   NC336191  21.922  40.183   9.611
 2606POPC   PO436192  22.021  39.526   9.485
 2606POPC   GL136193  21.972  39.884   9.175
 2606POPC   GL236194  22.203  40.180   9.022
 2606POPC   C1A36195  21.848  39.930   8.749
 2606POPC   D2A36196  21.943  40.242   8.420
 2606POPC   C3A36197  22.016  40.062   7.978
 2606POPC   C4A36198  21.946  39.689   7.706
 2606POPC   C1B36199  22.404  40.420   8.621
 2606POPC   C2B36200  22.498  40.486   8.152
 2606POPC   C3B36201  22.415  40.298   7.726
 2606POPC   C4B36202  22.361  40.490   7.292
 2607POPC   NC336203  11.620   1.965   9.445
 2607POPC   PO436204  11.111   1.601   9.759
 2607POPC   GL136205  11.135   1.919   9.357
 2607POPC   GL236206  10.872   1.973   9.140
 2607POPC   C1A36207  11.296   2.038   8.894
 2607POPC   D2A36208  11.526   2.060   8.498
 2607POPC   C3A36209  11.312   2.048   8.133
 2607POPC   C4A36210  11.462   1.928   7.755
 2607POPC   C1B36211  10.859   1.772   8.674
 2607POPC   C2B36212  10.865   1.734   8.193
 2607POPC   C3B36213  10.958   1.904   7.765
 2607POPC   C4B36214  11.152   1.631   7.443
 2608POPC   NC336215  38.041   4.554   9.539
 2608POPC   PO436216  38.650   4.845   9.491
 2608POPC   GL136217  38.540   5.107   9.113
 2608POPC   GL236218  38.295   5.382   9.203
 2608POPC   C1A36219  38.516   5.000   8.703
 2608POPC   D2A36220  38.287   5.019   8.339
 2608POPC   C3A36221  38.577   5.079   8.068
 2608POPC   C4A36222  38.764   4.972   7.715
 2608POPC   C1B36223  38.148   5.350   8.762
 2608POPC   C2B36224  38.203   5.552   8.356
 2608POPC   C3B36225  38.181   5.385   7.941
 2608POPC   C4B36226  38.186   4.941   7.782
 2609POPC   NC336227  30.381   3.703   9.885
 2609POPC   PO436228  29.924   3.266   9.487
 2609POPC   GL136229  29.737   3.515   9.136
 2609POPC   GL236230  29.491   3.286   9.020
 2609POPC   C1A36231  29.927   3.758   8.780
 2609POPC   D2A36232  30.281   3.782   8.500
 2609POPC   C3A36233  30.058   3.833   8.113
 2609POPC   C4A36234  29.963   3.696   7.729
 2609POPC   C1B36235  29.860   3.227   8.754
 2609POPC   C2B36236  29.956   3.404   8.399
 2609POPC   C3B36237  29.829   3.324   8.041
 2609POPC   C4B36238  29.581   3.342   7.719
 2610POPC   NC336239  40.238  18.526   9.439
 2610POPC   PO436240  39.735  18.086   9.411
 2610POPC   GL136241  39.983  18.269   9.089
 2610POPC   GL236242  40.309  18.161   9.080
 2610POPC   C1A36243  40.144  18.465   8.700
 2610POPC   D2A36244  40.333  18.287   8.323
 2610POPC   C3A36245  40.176  18.417   7.957
 2610POPC   C4A36246  40.241  18.069   7.715
 2610POPC   C1B36247  40.236  17.942   8.703
 2610POPC   C2B36248  39.974  17.901   8.314
 2610POPC   C3B36249  39.775  18.078   7.946
 2610POPC   C4B36250  39.790  18.007   7.505
 2611POPC   NC336251   6.146  19.904   9.457
 2611POPC   PO436252   5.458  19.802   9.418
 2611POPC   GL136253   5.810  19.803   9.069
 2611POPC   GL236254   6.161  19.621   9.032
 2611POPC   C1A36255   5.886  19.805   8.609
 2611POPC   D2A36256   5.631  19.822   8.268
 2611POPC   C3A36257   5.677  19.508   7.987
 2611POPC   C4A36258   6.067  19.490   7.793
 2611POPC   C1B36259   6.276  20.027   8.842
 2611POPC   C2B36260   6.208  20.159   8.435
 2611POPC   C3B36261   6.126  19.906   8.099
 2611POPC   C4B36262   6.136  20.034   7.679
 2612POPC   NC336263  22.460  12.522   9.492
 2612POPC   PO436264  21.989  12.030   9.531
 2612POPC   GL136265  22.291  12.119   9.243
 2612POPC   GL236266  22.373  11.843   9.135
 2612POPC   C1A36267  22.507  12.268   8.887
 2612POPC   D2A36268  22.384  12.349   8.511
 2612POPC   C3A36269  22.375  12.197   8.137
 2612POPC   C4A36270  22.070  12.229   7.831
 2612POPC   C1B36271  22.241  11.820   8.766
 2612POPC   C2B36272  22.386  11.745   8.396
 2612POPC   C3B36273  22.141  11.742   8.035
 2612POPC   C4B36274  22.137  11.755   7.619
 2613POPC   NC336275  37.399  11.080   9.469
 2613POPC   PO436276  36.976  11.524   9.787
 2613POPC   GL136277  36.762  11.510   9.378
 2613POPC   GL236278  36.867  11.176   9.397
 2613POPC   C1A36279  36.703  11.612   8.885
 2613POPC   D2A36280  36.867  11.752   8.470
 2613POPC   C3A36281  36.903  11.483   8.111
 2613POPC   C4A36282  36.628  11.437   7.754
 2613POPC   C1B36283  36.868  11.158   8.978
 2613POPC   C2B36284  36.796  11.208   8.541
 2613POPC   C3B36285  36.547  11.120   8.189
 2613POPC   C4B36286  36.831  10.993   7.887
 2614POPC   NC336287  16.116  33.341   9.710
 2614POPC   PO436288  15.705  32.846   9.600
 2614POPC   GL136289  16.044  32.886   9.262
 2614POPC   GL236290  16.133  33.246   9.190
 2614POPC   C1A36291  16.052  32.777   8.804
 2614POPC   D2A36292  15.825  32.893   8.427
 2614POPC   C3A36293  15.986  32.934   8.016
 2614POPC   C4A36294  15.736  32.914   7.629
 2614POPC   C1B36295  15.940  33.284   8.769
 2614POPC   C2B36296  15.794  33.384   8.331
 2614POPC   C3B36297  15.812  33.404   7.897
 2614POPC   C4B36298  16.100  33.268   7.609
 2615POPC   NC336299  29.329  14.089   9.429
 2615POPC   PO436300  29.230  14.709   9.544
 2615POPC   GL136301  29.156  14.635   9.143
 2615POPC   GL236302  28.939  14.371   9.180
 2615POPC   C1A36303  29.363  14.594   8.762
 2615POPC   D2A36304  29.453  14.326   8.467
 2615POPC   C3A36305  29.245  14.223   8.109
 2615POPC   C4A36306  29.514  14.136   7.782
 2615POPC   C1B36307  29.038  14.180   8.786
 2615POPC   C2B36308  28.903  14.435   8.452
 2615POPC   C3B36309  28.899  14.602   8.047
 2615POPC   C4B36310  29.201  14.560   7.725
 2616POPC   NC336311  32.964  10.698   9.516
 2616POPC   PO436312  32.916  10.026   9.522
 2616POPC   GL136313  32.929  10.297   9.169
 2616POPC   GL236314  33.230  10.398   9.071
 2616POPC   C1A36315  32.723  10.563   8.839
 2616POPC   D2A36316  32.739  10.726   8.392
 2616POPC   C3A36317  33.000  10.588   8.029
 2616POPC   C4A36318  33.318  10.841   7.808
 2616POPC   C1B36319  33.206  10.534   8.647
 2616POPC   C2B36320  33.443  10.580   8.281
 2616POPC   C3B36321  33.460  10.374   7.859
 2616POPC   C4B36322  33.201  10.228   7.529
 2617POPC   NC336323  17.605  10.873   9.449
 2617POPC   PO436324  17.273  10.229   9.515
 2617POPC   GL136325  17.416  10.452   9.167
 2617POPC   GL236326  17.755  10.443   9.062
 2617POPC   C1A36327  17.385  10.373   8.722
 2617POPC   D2A36328  17.723  10.441   8.398
 2617POPC   C3A36329  17.577  10.425   7.964
 2617POPC   C4A36330  17.296  10.527   7.621
 2617POPC   C1B36331  17.651  10.802   8.772
 2617POPC   C2B36332  17.552  10.961   8.345
 2617POPC   C3B36333  17.607  10.945   7.899
 2617POPC   C4B36334  17.621  11.072   7.434
 2618POPC   NC336335   4.828  23.934   9.462
 2618POPC   PO436336   5.227  23.396   9.664
 2618POPC   GL136337   5.176  23.583   9.260
 2618POPC   GL236338   4.896  23.361   9.234
 2618POPC   C1A36339   5.203  23.836   8.857
 2618POPC   D2A36340   4.993  23.933   8.455
 2618POPC   C3A36341   4.978  23.633   8.123
 2618POPC   C4A36342   5.220  23.793   7.773
 2618POPC   C1B36343   4.774  23.559   8.829
 2618POPC   C2B36344   4.540  23.690   8.452
 2618POPC   C3B36345   4.472  23.892   8.077
 2618POPC   C4B36346   4.738  23.915   7.745
 2619POPC   NC336347  10.841  18.363   9.419
 2619POPC   PO436348  10.169  18.071   9.549
 2619POPC   GL136349  10.359  18.220   9.199
 2619POPC   GL236350  10.264  17.907   9.043
 2619POPC   C1A36351  10.300  18.563   8.875
 2619POPC   D2A36352  10.508  18.707   8.476
 2619POPC   C3A36353  10.560  18.572   8.045
 2619POPC   C4A36354  10.598  18.463   7.608
 2619POPC   C1B36355  10.505  18.133   8.706
 2619POPC   C2B36356  10.492  18.124   8.268
 2619POPC   C3B36357  10.741  18.090   7.911
 2619POPC   C4B36358  10.905  17.734   7.707
 2620POPC   NC336359  11.949  18.719   9.585
 2620POPC   PO436360  12.137  18.039   9.461
 2620POPC   GL136361  11.903  18.217   9.161
 2620POPC   GL236362  12.048  18.523   9.099
 2620POPC   C1A36363  11.913  18.052   8.761
 2620POPC   D2A36364  11.846  18.157   8.358
 2620POPC   C3A36365  12.095  18.402   8.141
 2620POPC   C4A36366  11.975  18.136   7.798
 2620POPC   C1B36367  11.682  18.527   8.798
 2620POPC   C2B36368  11.537  18.618   8.374
 2620POPC   C3B36369  11.566  18.413   7.962
 2620POPC   C4B36370  11.650  18.327   7.484
 2621POPC   NC336371  41.378  42.425   9.426
 2621POPC   PO436372  42.105  42.557   9.318
 2621POPC   GL136373  41.770  42.496   9.088
 2621POPC   GL236374  41.667  42.199   9.044
 2621POPC   C1A36375  41.561  42.622   8.742
 2621POPC   D2A36376  41.314  42.621   8.394
 2621POPC   C3A36377  41.473  42.588   7.988
 2621POPC   C4A36378  41.562  42.239   7.731
 2621POPC   C1B36379  41.298  42.184   8.779
 2621POPC   C2B36380  41.222  42.046   8.381
 2621POPC   C3B36381  41.415  41.838   8.040
 2621POPC   C4B36382  41.276  41.789   7.622
 2622POPC   NC336383  30.192  28.322   9.480
 2622POPC   PO436384  30.778  28.436   9.776
 2622POPC   GL136385  30.691  28.280   9.221
 2622POPC   GL236386  30.857  28.589   8.980
 2622POPC   C1A36387  30.523  28.331   8.745
 2622POPC   D2A36388  30.796  28.542   8.381
 2622POPC   C3A36389  30.758  28.321   7.957
 2622POPC   C4A36390  30.413  28.004   7.843
 2622POPC   C1B36391  31.231  28.601   8.719
 2622POPC   C2B36392  31.237  28.874   8.369
 2622POPC   C3B36393  31.093  28.766   7.970
 2622POPC   C4B36394  30.937  28.645   7.534
 2623POPC   NC336395  27.107  20.663   9.549
 2623POPC   PO436396  26.673  20.118   9.518
 2623POPC   GL136397  26.812  20.440   9.201
 2623POPC   GL236398  26.530  20.696   9.174
 2623POPC   C1A36399  27.062  20.603   8.829
 2623POPC   D2A36400  27.201  20.484   8.410
 2623POPC   C3A36401  27.043  20.647   8.019
 2623POPC   C4A36402  27.355  20.778   7.731
 2623POPC   C1B36403  26.561  20.492   8.769
 2623POPC   C2B36404  26.697  20.694   8.429
 2623POPC   C3B36405  26.480  20.800   8.097
 2623POPC   C4B36406  26.609  20.675   7.730
 2624POPC   NC336407   5.258   8.578   9.956
 2624POPC   PO436408   4.994   8.011   9.653
 2624POPC   GL136409   4.950   8.266   9.275
 2624POPC   GL236410   5.141   8.004   9.120
 2624POPC   C1A36411   4.830   8.377   8.815
 2624POPC   D2A36412   4.726   8.612   8.407
 2624POPC   C3A36413   4.751   8.380   8.007
 2624POPC   C4A36414   4.837   8.188   7.618
 2624POPC   C1B36415   5.277   8.064   8.714
 2624POPC   C2B36416   5.025   8.063   8.355
 2624POPC   C3B36417   5.180   7.923   7.978
 2624POPC   C4B36418   5.342   8.218   7.729
 2625POPC   NC336419  35.072  25.947   9.416
 2625POPC   PO436420  35.629  26.322   9.414
 2625POPC   GL136421  35.377  26.191   9.064
 2625POPC   GL236422  35.464  25.842   9.073
 2625POPC   C1A36423  35.366  26.123   8.621
 2625POPC   D2A36424  35.574  25.840   8.286
 2625POPC   C3A36425  35.520  25.932   7.854
 2625POPC   C4A36426  35.256  26.202   7.590
 2625POPC   C1B36427  35.324  25.636   8.693
 2625POPC   C2B36428  35.049  25.664   8.326
 2625POPC   C3B36429  35.103  25.658   7.872
 2625POPC   C4B36430  35.434  25.440   7.700
 2626POPC   NC336431   4.106  34.481   9.392
 2626POPC   PO436432   4.690  34.744   9.547
 2626POPC   GL136433   4.482  34.773   9.174
 2626POPC   GL236434   4.551  34.443   9.101
 2626POPC   C1A36435   4.289  34.718   8.759
 2626POPC   D2A36436   4.114  34.932   8.405
 2626POPC   C3A36437   4.237  34.797   8.006
 2626POPC   C4A36438   4.185  34.855   7.577
 2626POPC   C1B36439   4.599  34.286   8.662
 2626POPC   C2B36440   4.561  34.463   8.231
 2626POPC   C3B36441   4.406  34.337   7.796
 2626POPC   C4B36442   4.427  34.486   7.333
 2627POPC   NC336443  11.757  22.983   9.636
 2627POPC   PO436444  12.253  22.494   9.614
 2627POPC   GL136445  12.197  22.831   9.210
 2627POPC   GL236446  12.065  23.161   9.244
 2627POPC   C1A36447  12.025  22.921   8.768
 2627POPC   D2A36448  12.154  22.853   8.339
 2627POPC   C3A36449  11.944  22.996   7.958
 2627POPC   C4A36450  11.998  22.764   7.591
 2627POPC   C1B36451  12.280  23.347   8.884
 2627POPC   C2B36452  12.313  23.335   8.446
 2627POPC   C3B36453  12.416  23.233   8.029
 2627POPC   C4B36454  12.256  23.221   7.598
 2628POPC   NC336455  26.609  44.684   9.591
 2628POPC   PO436456  27.076  44.212   9.639
 2628POPC   GL136457  26.962  44.499   9.277
 2628POPC   GL236458  27.228  44.671   9.122
 2628POPC   C1A36459  26.777  44.742   8.923
 2628POPC   D2A36460  26.962  44.630   8.539
 2628POPC   C3A36461  26.878  44.620   8.093
 2628POPC   C4A36462  26.641  44.736   7.727
 2628POPC   C1B36463  27.347  44.890   8.742
 2628POPC   C2B36464  27.230   0.019   8.292
 2628POPC   C3B36465  27.272  44.856   7.850
 2628POPC   C4B36466  27.092  44.525   7.582
 2629POPC   NC336467  31.735  44.544   9.476
 2629POPC   PO436468  31.148  44.860   9.432
 2629POPC   GL136469  31.481  44.847   9.127
 2629POPC   GL236470  31.870  44.898   9.095
 2629POPC   C1A36471  31.403  44.578   8.792
 2629POPC   D2A36472  31.179  44.400   8.450
 2629POPC   C3A36473  31.341  44.340   8.079
 2629POPC   C4A36474  31.323  44.590   7.740
 2629POPC   C1B36475  31.724  44.960   8.686
 2629POPC   C2B36476  31.664  44.675   8.338
 2629POPC   C3B36477  31.806  44.616   7.918
 2629POPC   C4B36478  31.715  44.850   7.515
 2630POPC   NC336479  30.828   4.485   9.450
 2630POPC   PO436480  30.543   3.918   9.368
 2630POPC   GL136481  30.597   4.215   9.062
 2630POPC   GL236482  30.412   4.558   9.162
 2630POPC   C1A36483  30.639   4.143   8.613
 2630POPC   D2A36484  30.409   4.198   8.223
 2630POPC   C3A36485  30.678   4.273   7.871
 2630POPC   C4A36486  30.736   4.193   7.422
 2630POPC   C1B36487  30.710   4.619   8.796
 2630POPC   C2B36488  30.662   4.635   8.354
 2630POPC   C3B36489  30.737   4.766   7.930
 2630POPC   C4B36490  30.800   4.711   7.477
 2631POPC   NC336491  26.731   2.900   9.632
 2631POPC   PO436492  27.099   2.329   9.500
 2631POPC   GL136493  26.997   2.680   9.244
 2631POPC   GL236494  26.623   2.710   9.165
 2631POPC   C1A36495  26.968   2.681   8.801
 2631POPC   D2A36496  26.863   2.813   8.400
 2631POPC   C3A36497  26.940   2.507   8.103
 2631POPC   C4A36498  26.993   2.595   7.677
 2631POPC   C1B36499  26.421   2.714   8.731
 2631POPC   C2B36500  26.419   2.605   8.270
 2631POPC   C3B36501  26.572   2.809   7.903
 2631POPC   C4B36502  26.449   3.062   7.551
 2632POPC   NC336503  15.431  26.702   9.523
 2632POPC   PO436504  14.762  26.583   9.564
 2632POPC   GL136505  14.974  26.708   9.198
 2632POPC   GL236506  15.219  26.493   9.098
 2632POPC   C1A36507  14.961  26.867   8.804
 2632POPC   D2A36508  15.216  26.818   8.465
 2632POPC   C3A36509  15.022  26.828   8.095
 2632POPC   C4A36510  15.187  26.757   7.714
 2632POPC   C1B36511  15.116  26.354   8.677
 2632POPC   C2B36512  15.188  26.355   8.208
 2632POPC   C3B36513  15.288  26.283   7.769
 2632POPC   C4B36514  15.181  26.425   7.295
 2633POPC   NC336515  24.787  19.499   9.621
 2633POPC   PO436516  24.591  18.833   9.669
 2633POPC   GL136517  24.610  18.858   9.228
 2633POPC   GL236518  24.518  19.218   9.260
 2633POPC   C1A36519  24.341  18.853   8.863
 2633POPC   D2A36520  24.306  18.695   8.476
 2633POPC   C3A36521  24.199  18.937   8.115
 2633POPC   C4A36522  24.448  18.840   7.762
 2633POPC   C1B36523  24.725  19.220   8.870
 2633POPC   C2B36524  24.509  19.184   8.490
 2633POPC   C3B36525  24.664  19.115   8.115
 2633POPC   C4B36526  24.868  19.189   7.770
 2634POPC   NC336527  41.152  37.304   9.417
 2634POPC   PO436528  40.481  36.930   9.471
 2634POPC   GL136529  40.798  36.891   9.182
 2634POPC   GL236530  40.751  37.228   9.064
 2634POPC   C1A36531  40.894  36.789   8.752
 2634POPC   D2A36532  40.775  36.968   8.370
 2634POPC   C3A36533  40.914  36.855   7.976
 2634POPC   C4A36534  41.012  37.233   7.809
 2634POPC   C1B36535  40.439  37.104   8.730
 2634POPC   C2B36536  40.279  37.221   8.290
 2634POPC   C3B36537  40.481  37.247   7.866
 2634POPC   C4B36538  40.635  37.252   7.417
 2635POPC   NC336539  29.079  29.391   9.367
 2635POPC   PO436540  29.709  29.469   9.436
 2635POPC   GL136541  29.483  29.254   9.077
 2635POPC   GL236542  29.219  29.415   8.890
 2635POPC   C1A36543  29.367  28.983   8.718
 2635POPC   D2A36544  29.476  29.206   8.337
 2635POPC   C3A36545  29.474  29.022   7.968
 2635POPC   C4A36546  29.347  29.040   7.570
 2635POPC   C1B36547  29.005  29.301   8.553
 2635POPC   C2B36548  29.029  28.960   8.270
 2635POPC   C3B36549  29.007  29.203   7.919
 2635POPC   C4B36550  29.041  29.476   7.598
 2636POPC   NC336551  23.285  14.482   9.594
 2636POPC   PO436552  22.675  14.285   9.607
 2636POPC   GL136553  22.745  14.487   9.232
 2636POPC   GL236554  23.042  14.644   9.180
 2636POPC   C1A36555  22.727  14.470   8.796
 2636POPC   D2A36556  22.765  14.693   8.433
 2636POPC   C3A36557  22.651  14.479   8.050
 2636POPC   C4A36558  22.833  14.224   7.711
 2636POPC   C1B36559  23.214  14.661   8.758
 2636POPC   C2B36560  23.381  14.635   8.332
 2636POPC   C3B36561  23.158  14.544   7.957
 2636POPC   C4B36562  23.078  14.615   7.477
 2637POPC   NC336563  20.003  38.917   9.430
 2637POPC   PO436564  19.696  39.740   9.439
 2637POPC   GL136565  19.794  39.550   9.066
 2637POPC   GL236566  19.804  39.191   9.053
 2637POPC   C1A36567  19.644  39.498   8.645
 2637POPC   D2A36568  19.434  39.397   8.249
 2637POPC   C3A36569  19.727  39.507   7.915
 2637POPC   C4A36570  20.032  39.256   7.692
 2637POPC   C1B36571  19.799  38.997   8.669
 2637POPC   C2B36572  20.150  38.847   8.473
 2637POPC   C3B36573  20.106  38.858   8.007
 2637POPC   C4B36574  19.934  38.732   7.597
 2638POPC   NC336575  20.030  43.622   9.418
 2638POPC   PO436576  19.704  44.238   9.383
 2638POPC   GL136577  19.850  43.948   9.064
 2638POPC   GL236578  20.223  43.935   9.039
 2638POPC   C1A36579  19.946  44.001   8.627
 2638POPC   D2A36580  19.977  44.154   8.235
 2638POPC   C3A36581  19.793  43.956   7.918
 2638POPC   C4A36582  19.738  43.818   7.503
 2638POPC   C1B36583  20.221  43.575   8.752
 2638POPC   C2B36584  20.187  43.442   8.317
 2638POPC   C3B36585  20.248  43.695   7.927
 2638POPC   C4B36586  20.450  43.810   7.546
 2639POPC   NC336587  10.762  30.666   9.689
 2639POPC   PO436588  10.431  30.120   9.460
 2639POPC   GL136589  10.624  30.419   9.128
 2639POPC   GL236590  10.606  30.795   9.159
 2639POPC   C1A36591  10.612  30.514   8.686
 2639POPC   D2A36592  10.402  30.377   8.311
 2639POPC   C3A36593  10.520  30.519   7.892
 2639POPC   C4A36594  10.832  30.670   7.593
 2639POPC   C1B36595  10.274  30.883   8.845
 2639POPC   C2B36596  10.124  30.792   8.424
 2639POPC   C3B36597  10.204  30.913   8.011
 2639POPC   C4B36598  10.418  30.958   7.603
 2640POPC   NC336599  17.067  26.754   9.677
 2640POPC   PO436600  16.484  27.103   9.475
 2640POPC   GL136601  16.763  27.004   9.126
 2640POPC   GL236602  17.092  26.814   9.171
 2640POPC   C1A36603  16.619  26.824   8.735
 2640POPC   D2A36604  16.568  26.995   8.307
 2640POPC   C3A36605  16.644  26.689   7.984
 2640POPC   C4A36606  16.607  26.784   7.534
 2640POPC   C1B36607  17.057  26.593   8.813
 2640POPC   C2B36608  17.034  26.790   8.412
 2640POPC   C3B36609  17.160  26.702   7.990
 2640POPC   C4B36610  17.045  26.389   7.665
 2641POPC   NC336611  29.312   8.707   9.394
 2641POPC   PO436612  28.823   9.121   9.634
 2641POPC   GL136613  28.879   8.914   9.217
 2641POPC   GL236614  29.039   9.207   9.142
 2641POPC   C1A36615  28.995   8.779   8.786
 2641POPC   D2A36616  28.825   8.811   8.354
 2641POPC   C3A36617  29.063   8.847   7.941
 2641POPC   C4A36618  29.319   9.169   7.747
 2641POPC   C1B36619  29.050   9.270   8.700
 2641POPC   C2B36620  29.219   9.143   8.322
 2641POPC   C3B36621  28.909   9.323   8.048
 2641POPC   C4B36622  28.938   9.526   7.662
 2642POPC   NC336623  44.247  32.226   9.595
 2642POPC   PO436624  44.882  32.122   9.588
 2642POPC   GL136625  44.623  32.263   9.210
 2642POPC   GL236626  44.300  32.491   9.175
 2642POPC   C1A36627  44.609  32.339   8.764
 2642POPC   D2A36628  44.632  32.496   8.348
 2642POPC   C3A36629  44.637  32.220   7.990
 2642POPC   C4A36630  44.655  32.500   7.635
 2642POPC   C1B36631  44.144  32.134   8.873
 2642POPC   C2B36632  44.310  32.084   8.425
 2642POPC   C3B36633  44.170  32.044   8.005
 2642POPC   C4B36634  44.251  32.189   7.592
 2643POPC   NC336635  20.022   6.745   9.551
 2643POPC   PO436636  19.397   6.889   9.427
 2643POPC   GL136637  19.697   6.714   9.125
 2643POPC   GL236638  20.010   6.509   9.121
 2643POPC   C1A36639  19.875   6.776   8.720
 2643POPC   D2A36640  19.673   6.757   8.363
 2643POPC   C3A36641  19.841   6.679   7.994
 2643POPC   C4A36642  19.798   6.855   7.633
 2643POPC   C1B36643  20.150   6.317   8.781
 2643POPC   C2B36644  20.023   6.360   8.374
 2643POPC   C3B36645  20.204   6.311   7.979
 2643POPC   C4B36646  19.955   6.310   7.634
 2644POPC   NC336647  43.719  30.060   9.984
 2644POPC   PO436648  44.082  30.204   9.412
 2644POPC   GL136649  43.997  29.878   9.117
 2644POPC   GL236650  44.272  29.801   8.898
 2644POPC   C1A36651  43.753  29.782   8.740
 2644POPC   D2A36652  44.019  29.761   8.381
 2644POPC   C3A36653  43.998  29.776   7.937
 2644POPC   C4A36654  43.931  30.168   7.751
 2644POPC   C1B36655  44.070  30.185   8.711
 2644POPC   C2B36656  44.040  30.317   8.287
 2644POPC   C3B36657  44.346  30.385   7.974
 2644POPC   C4B36658  44.304  30.382   7.484
 2645POPC   NC336659  36.964  44.989   9.338
 2645POPC   PO436660  36.672  44.366   9.456
 2645POPC   GL136661  36.908  44.520   9.115
 2645POPC   GL236662  37.279  44.593   9.192
 2645POPC   C1A36663  36.722  44.570   8.690
 2645POPC   D2A36664  36.475  44.477   8.303
 2645POPC   C3A36665  36.679  44.608   7.904
 2645POPC   C4A36666  36.847  44.682   7.477
 2645POPC   C1B36667  37.211  44.733   8.742
 2645POPC   C2B36668  37.123  44.538   8.313
 2645POPC   C3B36669  37.186  44.532   7.856
 2645POPC   C4B36670  37.397  44.617   7.434
 2646POPC   NC336671   9.883  34.825   9.758
 2646POPC   PO436672   9.477  34.374   9.755
 2646POPC   GL136673   9.606  34.644   9.348
 2646POPC   GL236674   9.845  34.438   9.182
 2646POPC   C1A36675   9.750  34.910   8.964
 2646POPC   D2A36676   9.985  34.704   8.600
 2646POPC   C3A36677   9.938  34.858   8.184
 2646POPC   C4A36678   9.894  34.777   7.755
 2646POPC   C1B36679   9.601  34.435   8.786
 2646POPC   C2B36680   9.548  34.397   8.367
 2646POPC   C3B36681   9.669  34.369   7.965
 2646POPC   C4B36682   9.492  34.106   7.692
 2647POPC   NC336683  22.017  17.984   9.450
 2647POPC   PO436684  22.225  18.664   9.550
 2647POPC   GL136685  22.131  18.426   9.164
 2647POPC   GL236686  22.396  18.171   9.133
 2647POPC   C1A36687  22.106  18.282   8.710
 2647POPC   D2A36688  22.029  18.355   8.279
 2647POPC   C3A36689  22.054  18.129   7.927
 2647POPC   C4A36690  21.988  18.501   7.746
 2647POPC   C1B36691  22.615  18.175   8.731
 2647POPC   C2B36692  22.523  18.416   8.346
 2647POPC   C3B36693  22.500  18.423   7.907
 2647POPC   C4B36694  22.638  18.069   7.661
 2648POPC   NC336695  25.419  11.718   9.528
 2648POPC   PO436696  25.278  12.427   9.534
 2648POPC   GL136697  25.187  12.101   9.276
 2648POPC   GL236698  25.543  12.065   9.159
 2648POPC   C1A36699  25.142  11.914   8.888
 2648POPC   D2A36700  25.323  12.018   8.515
 2648POPC   C3A36701  25.052  12.121   8.216
 2648POPC   C4A36702  25.002  12.113   7.796
 2648POPC   C1B36703  25.508  12.406   8.838
 2648POPC   C2B36704  25.411  12.522   8.400
 2648POPC   C3B36705  25.441  12.380   8.001
 2648POPC   C4B36706  25.539  12.478   7.591
 2649POPC   NC336707   7.668  12.875   9.508
 2649POPC   PO436708   7.034  12.613   9.495
 2649POPC   GL136709   7.277  12.845   9.157
 2649POPC   GL236710   7.457  13.204   9.172
 2649POPC   C1A36711   7.175  13.030   8.759
 2649POPC   D2A36712   7.104  12.851   8.360
 2649POPC   C3A36713   7.256  13.051   8.008
 2649POPC   C4A36714   7.340  13.004   7.608
 2649POPC   C1B36715   7.682  12.971   8.840
 2649POPC   C2B36716   7.578  13.034   8.411
 2649POPC   C3B36717   7.749  12.919   7.986
 2649POPC   C4B36718   7.850  12.563   7.718
 2650POPC   NC336719  36.602  38.679   9.524
 2650POPC   PO436720  37.290  38.651   9.528
 2650POPC   GL136721  37.016  38.381   9.272
 2650POPC   GL236722  36.772  38.093   9.368
 2650POPC   C1A36723  36.933  38.469   8.840
 2650POPC   D2A36724  37.180  38.419   8.472
 2650POPC   C3A36725  36.946  38.441   8.101
 2650POPC   C4A36726  36.863  38.297   7.708
 2650POPC   C1B36727  36.662  38.020   8.921
 2650POPC   C2B36728  36.744  38.132   8.484
 2650POPC   C3B36729  36.767  37.923   8.068
 2650POPC   C4B36730  36.616  37.853   7.631
 2651POPC   NC336731  18.658  36.313   9.342
 2651POPC   PO436732  18.697  35.755   9.757
 2651POPC   GL136733  18.414  35.880   9.291
 2651POPC   GL236734  18.130  36.078   9.211
 2651POPC   C1A36735  18.505  36.024   8.792
 2651POPC   D2A36736  18.536  36.324   8.400
 2651POPC   C3A36737  18.458  36.190   7.953
 2651POPC   C4A36738  18.368  36.248   7.497
 2651POPC   C1B36739  18.067  36.284   8.776
 2651POPC   C2B36740  18.018  36.227   8.296
 2651POPC   C3B36741  17.983  36.045   7.867
 2651POPC   C4B36742  18.275  35.767   7.660
 2652POPC   NC336743   3.809  19.195   9.533
 2652POPC   PO436744   3.162  19.120   9.484
 2652POPC   GL136745   3.327  19.259   9.133
 2652POPC   GL236746   3.670  19.285   9.077
 2652POPC   C1A36747   3.365  19.038   8.765
 2652POPC   D2A36748   3.135  18.946   8.437
 2652POPC   C3A36749   3.479  18.861   8.191
 2652POPC   C4A36750   3.538  18.974   7.789
 2652POPC   C1B36751   3.869  19.451   8.784
 2652POPC   C2B36752   3.652  19.311   8.454
 2652POPC   C3B36753   3.646  19.357   8.077
 2652POPC   C4B36754   3.973  19.216   7.770
 2653POPC   NC336755  33.387  10.049   9.500
 2653POPC   PO436756  33.825   9.607   9.502
 2653POPC   GL136757  33.707   9.803   9.102
 2653POPC   GL236758  33.383   9.910   9.019
 2653POPC   C1A36759  33.732   9.746   8.653
 2653POPC   D2A36760  33.555   9.630   8.265
 2653POPC   C3A36761  33.891   9.625   7.961
 2653POPC   C4A36762  34.289   9.794   7.819
 2653POPC   C1B36763  33.243   9.964   8.591
 2653POPC   C2B36764  33.191  10.026   8.140
 2653POPC   C3B36765  33.454   9.862   7.797
 2653POPC   C4B36766  33.386   9.772   7.352
 2654POPC   NC336767  20.811   3.458   9.926
 2654POPC   PO436768  20.367   3.604   9.639
 2654POPC   GL136769  20.399   3.789   9.218
 2654POPC   GL236770  20.147   3.633   9.005
 2654POPC   C1A36771  20.619   3.740   8.797
 2654POPC   D2A36772  20.603   3.416   8.447
 2654POPC   C3A36773  20.742   3.456   8.029
 2654POPC   C4A36774  20.608   3.530   7.624
 2654POPC   C1B36775  20.180   3.681   8.539
 2654POPC   C2B36776  20.221   3.599   8.070
 2654POPC   C3B36777  20.281   3.907   7.729
 2654POPC   C4B36778  20.590   3.974   7.376
 2655POPC   NC336779  29.166  38.958   9.799
 2655POPC   PO436780  29.404  39.595   9.657
 2655POPC   GL136781  29.382  39.390   9.235
 2655POPC   GL236782  29.473  39.598   8.948
 2655POPC   C1A36783  29.508  39.089   8.917
 2655POPC   D2A36784  29.308  38.869   8.580
 2655POPC   C3A36785  29.378  38.923   8.150
 2655POPC   C4A36786  29.430  39.044   7.746
 2655POPC   C1B36787  29.159  39.375   8.670
 2655POPC   C2B36788  28.965  39.189   8.297
 2655POPC   C3B36789  29.031  39.326   7.878
 2655POPC   C4B36790  29.108  39.741   7.687
 2656POPC   NC336791  16.547  31.940   9.819
 2656POPC   PO436792  16.929  32.504   9.533
 2656POPC   GL136793  16.654  32.278   9.237
 2656POPC   GL236794  16.358  32.478   9.114
 2656POPC   C1A36795  16.561  32.092   8.843
 2656POPC   D2A36796  16.442  32.118   8.417
 2656POPC   C3A36797  16.784  31.941   8.178
 2656POPC   C4A36798  16.774  31.985   7.755
 2656POPC   C1B36799  16.528  32.603   8.735
 2656POPC   C2B36800  16.419  32.660   8.298
 2656POPC   C3B36801  16.514  32.398   7.962
 2656POPC   C4B36802  16.786  32.494   7.619
 2657POPC   NC336803  32.791  28.818   9.404
 2657POPC   PO436804  33.217  29.263   9.301
 2657POPC   GL136805  32.908  29.349   8.993
 2657POPC   GL236806  32.862  29.033   8.941
 2657POPC   C1A36807  32.906  29.374   8.525
 2657POPC   D2A36808  33.057  29.052   8.241
 2657POPC   C3A36809  33.163  29.292   7.919
 2657POPC   C4A36810  33.324  29.443   7.542
 2657POPC   C1B36811  32.589  28.976   8.607
 2657POPC   C2B36812  32.550  29.037   8.166
 2657POPC   C3B36813  32.726  29.094   7.763
 2657POPC   C4B36814  32.697  29.133   7.310
 2658POPC   NC336815   8.168  25.809   9.322
 2658POPC   PO436816   7.798  26.379   9.345
 2658POPC   GL136817   8.054  26.224   9.076
 2658POPC   GL236818   8.352  26.352   9.069
 2658POPC   C1A36819   8.217  26.049   8.704
 2658POPC   D2A36820   8.062  25.906   8.383
 2658POPC   C3A36821   8.161  25.886   8.000
 2658POPC   C4A36822   7.776  26.036   7.866
 2658POPC   C1B36823   8.541  26.492   8.690
 2658POPC   C2B36824   8.491  26.615   8.260
 2658POPC   C3B36825   8.406  26.341   7.890
 2658POPC   C4B36826   8.404  26.032   7.568
 2659POPC   NC336827   3.120   3.959   9.494
 2659POPC   PO436828   2.552   3.627   9.683
 2659POPC   GL136829   2.535   3.835   9.293
 2659POPC   GL236830   2.776   3.576   9.180
 2659POPC   C1A36831   2.519   3.829   8.828
 2659POPC   D2A36832   2.490   3.446   8.553
 2659POPC   C3A36833   2.585   3.550   8.132
 2659POPC   C4A36834   2.861   3.407   7.790
 2659POPC   C1B36835   2.963   3.502   8.749
 2659POPC   C2B36836   3.098   3.577   8.290
 2659POPC   C3B36837   3.300   3.657   7.878
 2659POPC   C4B36838   3.182   3.675   7.421
 2660POPC   NC336839   7.716  36.763   9.704
 2660POPC   PO436840   7.108  36.948   9.441
 2660POPC   GL136841   7.399  37.026   9.144
 2660POPC   GL236842   7.484  36.699   9.160
 2660POPC   C1A36843   7.422  37.036   8.702
 2660POPC   D2A36844   7.497  36.811   8.311
 2660POPC   C3A36845   7.578  37.079   7.961
 2660POPC   C4A36846   7.291  37.059   7.579
 2660POPC   C1B36847   7.679  36.574   8.783
 2660POPC   C2B36848   7.947  36.553   8.416
 2660POPC   C3B36849   7.951  36.640   7.991
 2660POPC   C4B36850   7.560  36.612   7.773
 2661POPC   NC336851  32.971  16.356   9.307
 2661POPC   PO436852  32.667  16.965   9.365
 2661POPC   GL136853  32.858  16.761   9.025
 2661POPC   GL236854  33.168  16.741   9.003
 2661POPC   C1A36855  32.928  16.609   8.579
 2661POPC   D2A36856  32.679  16.824   8.261
 2661POPC   C3A36857  32.759  16.853   7.820
 2661POPC   C4A36858  32.806  16.613   7.454
 2661POPC   C1B36859  33.432  16.518   8.747
 2661POPC   C2B36860  33.392  16.591   8.299
 2661POPC   C3B36861  33.162  16.537   7.914
 2661POPC   C4B36862  33.305  16.364   7.525
 2662POPC   NC336863   0.315  35.077   9.607
 2662POPC   PO436864   0.760  35.602   9.421
 2662POPC   GL136865   0.505  35.513   9.106
 2662POPC   GL236866   0.358  35.211   9.113
 2662POPC   C1A36867   0.710  35.366   8.705
 2662POPC   D2A36868   0.907  35.338   8.265
 2662POPC   C3A36869   0.610  35.181   7.944
 2662POPC   C4A36870   0.367  35.477   7.701
 2662POPC   C1B36871   0.192  35.387   8.704
 2662POPC   C2B36872   0.120  35.206   8.280
 2662POPC   C3B36873   0.102  35.061   7.851
 2662POPC   C4B36874   0.219  34.949   7.425
 2663POPC   NC336875  11.759  32.951   9.606
 2663POPC   PO436876  12.347  32.563   9.648
 2663POPC   GL136877  12.322  32.781   9.229
 2663POPC   GL236878  12.069  33.075   9.196
 2663POPC   C1A36879  12.251  32.832   8.764
 2663POPC   D2A36880  12.293  32.651   8.343
 2663POPC   C3A36881  12.269  32.918   7.950
 2663POPC   C4A36882  12.307  33.333   7.729
 2663POPC   C1B36883  11.869  33.217   8.786
 2663POPC   C2B36884  11.878  33.297   8.315
 2663POPC   C3B36885  11.827  33.179   7.879
 2663POPC   C4B36886  11.902  33.233   7.420
 2664POPC   NC336887  42.584   2.299   9.428
 2664POPC   PO436888  42.210   2.776   9.800
 2664POPC   GL136889  42.361   2.694   9.276
 2664POPC   GL236890  42.513   2.943   9.119
 2664POPC   C1A36891  42.317   2.588   8.821
 2664POPC   D2A36892  42.498   2.560   8.444
 2664POPC   C3A36893  42.249   2.605   8.105
 2664POPC   C4A36894  42.286   2.680   7.689
 2664POPC   C1B36895  42.214   3.084   8.805
 2664POPC   C2B36896  42.320   3.041   8.379
 2664POPC   C3B36897  42.124   3.079   7.978
 2664POPC   C4B36898  42.206   3.157   7.570
 2665POPC   NC336899  43.393  26.249   9.500
 2665POPC   PO436900  42.973  25.744   9.447
 2665POPC   GL136901  43.103  25.872   9.050
 2665POPC   GL236902  43.350  25.672   9.031
 2665POPC   C1A36903  43.022  25.922   8.592
 2665POPC   D2A36904  43.125  25.755   8.174
 2665POPC   C3A36905  42.860  25.849   7.807
 2665POPC   C4A36906  42.747  25.786   7.362
 2665POPC   C1B36907  43.315  25.524   8.631
 2665POPC   C2B36908  43.607  25.611   8.347
 2665POPC   C3B36909  43.535  25.506   7.968
 2665POPC   C4B36910  43.382  25.820   7.671
 2666POPC   NC336911  34.547  11.227   9.947
 2666POPC   PO436912  34.845  11.242   9.353
 2666POPC   GL136913  34.672  11.316   9.030
 2666POPC   GL236914  34.353  11.425   9.034
 2666POPC   C1A36915  34.675  11.154   8.651
 2666POPC   D2A36916  34.498  11.214   8.291
 2666POPC   C3A36917  34.722  11.102   7.964
 2666POPC   C4A36918  34.747  11.314   7.608
 2666POPC   C1B36919  34.152  11.321   8.644
 2666POPC   C2B36920  34.024  11.404   8.215
 2666POPC   C3B36921  34.217  11.211   7.857
 2666POPC   C4B36922  34.261  11.211   7.418
 2667POPC   NC336923  30.714  23.927   9.619
 2667POPC   PO436924  30.307  23.463   9.749
 2667POPC   GL136925  30.457  23.501   9.288
 2667POPC   GL236926  30.251  23.305   9.050
 2667POPC   C1A36927  30.535  23.685   8.812
 2667POPC   D2A36928  30.434  23.971   8.440
 2667POPC   C3A36929  30.455  23.848   7.988
 2667POPC   C4A36930  30.832  23.919   7.742
 2667POPC   C1B36931  30.413  23.241   8.604
 2667POPC   C2B36932  30.610  23.409   8.217
 2667POPC   C3B36933  30.753  23.422   7.778
 2667POPC   C4B36934  30.891  23.526   7.326
 2668POPC   NC336935  44.853  44.385   9.554
 2668POPC   PO436936  44.292  44.803   9.552
 2668POPC   GL136937  44.524  44.728   9.155
 2668POPC   GL236938  44.679  44.395   9.077
 2668POPC   C1A36939  44.590  44.690   8.686
 2668POPC   D2A36940  44.715  44.483   8.317
 2668POPC   C3A36941  44.709  44.715   7.950
 2668POPC   C4A36942  44.406  44.972   7.758
 2668POPC   C1B36943  44.911  44.126   8.759
 2668POPC   C2B36944   0.083  44.152   8.320
 2668POPC   C3B36945  44.923  44.227   7.897
 2668POPC   C4B36946  44.920  44.516   7.507
 2669POPC   NC336947  23.267   8.818   9.465
 2669POPC   PO436948  22.761   9.282   9.577
 2669POPC   GL136949  22.899   9.099   9.196
 2669POPC   GL236950  22.802   8.743   9.177
 2669POPC   C1A36951  23.063   9.000   8.791
 2669POPC   D2A36952  23.259   9.117   8.388
 2669POPC   C3A36953  23.032   8.934   8.066
 2669POPC   C4A36954  22.995   8.631   7.775
 2669POPC   C1B36955  22.587   8.758   8.774
 2669POPC   C2B36956  22.727   8.659   8.359
 2669POPC   C3B36957  22.521   8.641   7.962
 2669POPC   C4B36958  22.536   8.771   7.543
 2670POPC   NC336959  15.073  28.645   9.626
 2670POPC   PO436960  15.324  28.081   9.532
 2670POPC   GL136961  15.174  28.246   9.133
 2670POPC   GL236962  15.183  28.572   9.151
 2670POPC   C1A36963  15.369  28.396   8.731
 2670POPC   D2A36964  15.205  28.351   8.359
 2670POPC   C3A36965  15.369  28.187   8.014
 2670POPC   C4A36966  15.076  28.316   7.722
 2670POPC   C1B36967  14.921  28.705   8.844
 2670POPC   C2B36968  14.983  28.824   8.452
 2670POPC   C3B36969  14.936  28.678   8.048
 2670POPC   C4B36970  14.794  28.803   7.656
 2671POPC   NC336971  26.912  25.399   9.469
 2671POPC   PO436972  26.383  25.232   9.398
 2671POPC   GL136973  26.669  25.309   9.019
 2671POPC   GL236974  26.817  25.646   9.019
 2671POPC   C1A36975  26.994  25.295   8.667
 2671POPC   D2A36976  27.216  25.188   8.269
 2671POPC   C3A36977  26.956  25.001   7.934
 2671POPC   C4A36978  26.847  25.007   7.502
 2671POPC   C1B36979  26.608  25.624   8.602
 2671POPC   C2B36980  26.733  25.435   8.201
 2671POPC   C3B36981  27.038  25.515   7.898
 2671POPC   C4B36982  27.334  25.717   7.588
 2672POPC   NC336983   7.612  13.873   9.486
 2672POPC   PO436984   7.072  13.434   9.449
 2672POPC   GL136985   7.253  13.723   9.111
 2672POPC   GL236986   7.612  13.699   9.022
 2672POPC   C1A36987   7.289  13.707   8.638
 2672POPC   D2A36988   7.182  13.389   8.368
 2672POPC   C3A36989   7.088  13.520   7.934
 2672POPC   C4A36990   7.273  13.505   7.514
 2672POPC   C1B36991   7.719  13.458   8.669
 2672POPC   C2B36992   7.742  13.473   8.229
 2672POPC   C3B36993   7.650  13.384   7.824
 2672POPC   C4B36994   7.777  13.596   7.443
 2673POPC   NC336995  16.412  41.785   9.512
 2673POPC   PO436996  16.572  41.108   9.367
 2673POPC   GL136997  16.717  41.519   9.140
 2673POPC   GL236998  16.588  41.874   9.053
 2673POPC   C1A36999  16.890  41.646   8.703
 2673POPC   D2A37000  16.818  41.708   8.247
 2673POPC   C3A37001  16.985  41.453   7.898
 2673POPC   C4A37002  16.837  41.415   7.482
 2673POPC   C1B37003  16.342  41.751   8.709
 2673POPC   C2B37004  16.309  41.801   8.254
 2673POPC   C3B37005  16.454  41.586   7.904
 2673POPC   C4B37006  16.742  41.854   7.708
 2674POPC   NC337007  17.069  32.017   9.447
 2674POPC   PO437008  17.732  31.935   9.709
 2674POPC   GL137009  17.573  32.082   9.281
 2674POPC   GL237010  17.335  32.397   9.211
 2674POPC   C1A37011  17.693  32.256   8.873
 2674POPC   D2A37012  17.407  32.241   8.519
 2674POPC   C3A37013  17.617  32.365   8.149
 2674POPC   C4A37014  17.589  32.202   7.780
 2674POPC   C1B37015  17.011  32.396   8.857
 2674POPC   C2B37016  16.883  32.386   8.417
 2674POPC   C3B37017  17.096  32.318   8.019
 2674POPC   C4B37018  17.282  32.622   7.770
 2675POPC   NC337019  37.418  14.274   9.412
 2675POPC   PO437020  37.749  14.806   9.519
 2675POPC   GL137021  37.742  14.586   9.125
 2675POPC   GL237022  37.441  14.683   9.049
 2675POPC   C1A37023  37.768  14.439   8.699
 2675POPC   D2A37024  37.844  14.328   8.257
 2675POPC   C3A37025  37.546  14.133   7.994
 2675POPC   C4A37026  37.448  14.144   7.574
 2675POPC   C1B37027  37.538  14.895   8.690
 2675POPC   C2B37028  37.654  14.817   8.292
 2675POPC   C3B37029  37.465  14.642   7.948
 2675POPC   C4B37030  37.469  14.657   7.522
 2676POPC   NC337031   3.283  28.421   9.684
 2676POPC   PO437032   2.683  28.432   9.308
 2676POPC   GL137033   2.754  28.254   8.977
 2676POPC   GL237034   2.686  28.558   8.796
 2676POPC   C1A37035   2.686  28.017   8.659
 2676POPC   D2A37036   2.634  28.261   8.288
 2676POPC   C3A37037   2.696  28.114   7.858
 2676POPC   C4A37038   2.750  28.114   7.387
 2676POPC   C1B37039   2.971  28.831   8.615
 2676POPC   C2B37040   3.065  28.741   8.240
 2676POPC   C3B37041   2.818  28.600   7.946
 2676POPC   C4B37042   2.975  28.484   7.617
 2677POPC   NC337043  12.935  20.647   9.613
 2677POPC   PO437044  12.295  20.683   9.450
 2677POPC   GL137045  12.667  20.757   9.192
 2677POPC   GL237046  12.842  20.474   9.125
 2677POPC   C1A37047  12.855  20.856   8.787
 2677POPC   D2A37048  12.729  20.972   8.373
 2677POPC   C3A37049  12.888  20.810   7.964
 2677POPC   C4A37050  12.596  20.585   7.690
 2677POPC   C1B37051  12.657  20.378   8.733
 2677POPC   C2B37052  12.785  20.447   8.325
 2677POPC   C3B37053  12.871  20.228   7.940
 2677POPC   C4B37054  13.237  20.091   7.715
 2678POPC   NC337055   2.208   0.099   9.465
 2678POPC   PO437056   2.917   0.435   9.422
 2678POPC   GL137057   2.653   0.255   9.158
 2678POPC   GL237058   2.395   0.509   9.162
 2678POPC   C1A37059   2.832   0.198   8.748
 2678POPC   D2A37060   2.959   0.484   8.418
 2678POPC   C3A37061   2.884   0.422   7.992
 2678POPC   C4A37062   2.999   0.693   7.644
 2678POPC   C1B37063   2.634   0.672   8.798
 2678POPC   C2B37064   2.646   0.878   8.392
 2678POPC   C3B37065   2.579   0.878   7.955
 2678POPC   C4B37066   2.448   0.569   7.708
 2679POPC   NC337067  28.711   1.726   9.382
 2679POPC   PO437068  28.348   2.177   9.743
 2679POPC   GL137069  28.347   2.077   9.263
 2679POPC   GL237070  28.139   1.838   9.110
 2679POPC   C1A37071  28.532   2.066   8.806
 2679POPC   D2A37072  28.351   2.011   8.400
 2679POPC   C3A37073  28.559   1.916   8.034
 2679POPC   C4A37074  28.271   1.790   7.727
 2679POPC   C1B37075  28.067   2.220   8.803
 2679POPC   C2B37076  28.155   2.470   8.398
 2679POPC   C3B37077  28.159   2.263   7.964
 2679POPC   C4B37078  28.179   2.239   7.478
 2680POPC   NC337079  32.742  13.531   9.331
 2680POPC   PO437080  32.041  13.657   9.462
 2680POPC   GL137081  32.234  13.626   9.100
 2680POPC   GL237082  32.437  13.925   9.178
 2680POPC   C1A37083  32.085  13.661   8.663
 2680POPC   D2A37084  32.014  13.660   8.208
 2680POPC   C3A37085  32.142  13.404   7.875
 2680POPC   C4A37086  31.986  13.413   7.431
 2680POPC   C1B37087  32.557  13.825   8.753
 2680POPC   C2B37088  32.386  13.980   8.377
 2680POPC   C3B37089  32.382  13.921   7.950
 2680POPC   C4B37090  32.491  13.637   7.571
 2681POPC   NC337091  36.170  17.063   9.472
 2681POPC   PO437092  36.106  17.721   9.552
 2681POPC   GL137093  36.011  17.466   9.165
 2681POPC   GL237094  35.760  17.179   9.163
 2681POPC   C1A37095  36.082  17.600   8.728
 2681POPC   D2A37096  35.963  17.781   8.334
 2681POPC   C3A37097  36.201  17.630   8.056
 2681POPC   C4A37098  36.461  17.395   7.838
 2681POPC   C1B37099  35.988  17.072   8.780
 2681POPC   C2B37100  36.073  17.213   8.368
 2681POPC   C3B37101  35.982  17.179   7.962
 2681POPC   C4B37102  36.042  17.258   7.540
 2682POPC   NC337103  40.044  31.102   9.451
 2682POPC   PO437104  40.139  30.382   9.531
 2682POPC   GL137105  39.964  30.664   9.186
 2682POPC   GL237106  40.224  30.878   9.028
 2682POPC   C1A37107  39.795  30.834   8.777
 2682POPC   D2A37108  39.716  30.701   8.338
 2682POPC   C3A37109  39.878  30.907   7.981
 2682POPC   C4A37110  39.827  30.850   7.501
 2682POPC   C1B37111  40.188  30.503   8.746
 2682POPC   C2B37112  40.090  30.323   8.333
 2682POPC   C3B37113  40.128  30.478   7.885
 2682POPC   C4B37114  40.241  30.561   7.420
 2683POPC   NC337115  11.502  26.309   9.370
 2683POPC   PO437116  10.861  25.998   9.389
 2683POPC   GL137117  11.258  25.872   9.175
 2683POPC   GL237118  11.097  25.971   8.887
 2683POPC   C1A37119  11.604  25.897   8.821
 2683POPC   D2A37120  11.637  26.083   8.399
 2683POPC   C3A37121  11.513  25.893   7.996
 2683POPC   C4A37122  11.432  26.031   7.562
 2683POPC   C1B37123  10.913  26.318   8.668
 2683POPC   C2B37124  11.050  26.406   8.262
 2683POPC   C3B37125  11.081  26.119   7.902
 2683POPC   C4B37126  10.953  26.156   7.442
 2684POPC   NC337127   8.874  21.455   9.649
 2684POPC   PO437128   9.447  21.129   9.634
 2684POPC   GL137129   9.184  21.232   9.255
 2684POPC   GL237130   9.091  21.602   9.225
 2684POPC   C1A37131   8.981  21.120   8.838
 2684POPC   D2A37132   8.687  21.137   8.451
 2684POPC   C3A37133   8.935  21.149   8.036
 2684POPC   C4A37134   9.339  21.063   7.890
 2684POPC   C1B37135   8.937  21.798   8.862
 2684POPC   C2B37136   9.076  21.904   8.444
 2684POPC   C3B37137   9.070  21.708   8.021
 2684POPC   C4B37138   8.831  21.696   7.617
 2685POPC   NC337139  37.270  29.548   9.652
 2685POPC   PO437140  37.731  29.983   9.452
 2685POPC   GL137141  37.881  29.958   9.048
 2685POPC   GL237142  37.521  29.895   8.938
 2685POPC   C1A37143  37.891  30.130   8.657
 2685POPC   D2A37144  37.507  30.225   8.431
 2685POPC   C3A37145  37.459  29.937   8.081
 2685POPC   C4A37146  37.794  29.793   7.798
 2685POPC   C1B37147  37.751  29.631   8.625
 2685POPC   C2B37148  37.785  29.479   8.211
 2685POPC   C3B37149  37.449  29.415   7.945
 2685POPC   C4B37150  37.275  29.688   7.642
 2686POPC   NC337151   6.048  37.659   9.633
 2686POPC   PO437152   5.980  38.302   9.744
 2686POPC   GL137153   5.863  38.010   9.298
 2686POPC   GL237154   5.812  37.659   9.187
 2686POPC   C1A37155   5.904  37.989   8.807
 2686POPC   D2A37156   5.709  37.800   8.438
 2686POPC   C3A37157   5.914  37.771   8.039
 2686POPC   C4A37158   5.823  37.910   7.643
 2686POPC   C1B37159   5.589  37.481   8.836
 2686POPC   C2B37160   5.647  37.284   8.429
 2686POPC   C3B37161   5.541  37.415   8.024
 2686POPC   C4B37162   5.626  37.449   7.613
 2687POPC   NC337163  27.978  13.675   9.595
 2687POPC   PO437164  28.422  13.273   9.482
 2687POPC   GL137165  28.344  13.515   9.106
 2687POPC   GL237166  28.135  13.831   9.142
 2687POPC   C1A37167  28.495  13.462   8.674
 2687POPC   D2A37168  28.641  13.392   8.249
 2687POPC   C3A37169  28.357  13.504   7.926
 2687POPC   C4A37170  28.374  13.915   7.752
 2687POPC   C1B37171  28.091  13.785   8.717
 2687POPC   C2B37172  28.292  13.799   8.324
 2687POPC   C3B37173  27.960  13.880   8.019
 2687POPC   C4B37174  27.926  14.101   7.595
 2688POPC   NC337175  13.228  21.535   9.393
 2688POPC   PO437176  12.732  21.093   9.586
 2688POPC   GL137177  12.888  21.230   9.154
 2688POPC   GL237178  12.754  21.581   9.089
 2688POPC   C1A37179  13.167  21.268   8.757
 2688POPC   D2A37180  13.158  21.250   8.273
 2688POPC   C3A37181  12.786  21.339   8.021
 2688POPC   C4A37182  12.477  21.105   7.773
 2688POPC   C1B37183  12.989  21.802   8.744
 2688POPC   C2B37184  13.039  21.878   8.307
 2688POPC   C3B37185  13.012  21.785   7.879
 2688POPC   C4B37186  12.657  21.696   7.680
 2689POPC   NC337187   0.465   0.126   9.565
 2689POPC   PO437188   0.486   0.772   9.468
 2689POPC   GL137189   0.430   0.479   9.127
 2689POPC   GL237190   0.242   0.193   9.126
 2689POPC   C1A37191   0.530   0.526   8.706
 2689POPC   D2A37192   0.227   0.405   8.414
 2689POPC   C3A37193   0.326   0.548   8.032
 2689POPC   C4A37194   0.112   0.550   7.674
 2689POPC   C1B37195   0.402   0.024   8.725
 2689POPC   C2B37196   0.659   0.117   8.398
 2689POPC   C3B37197   0.618  44.990   8.006
 2689POPC   C4B37198   0.544   0.255   7.672
 2690POPC   NC337199  14.983  43.290   9.551
 2690POPC   PO437200  15.454  42.812   9.796
 2690POPC   GL137201  15.285  42.910   9.341
 2690POPC   GL237202  15.488  43.132   9.132
 2690POPC   C1A37203  15.150  42.836   8.885
 2690POPC   D2A37204  14.862  42.599   8.578
 2690POPC   C3A37205  14.801  42.790   8.187
 2690POPC   C4A37206  15.054  42.945   7.888
 2690POPC   C1B37207  15.320  43.301   8.704
 2690POPC   C2B37208  15.181  43.301   8.249
 2690POPC   C3B37209  15.283  43.403   7.794
 2690POPC   C4B37210  15.509  43.416   7.376
 2691POPC   NC337211  41.455   5.578   9.417
 2691POPC   PO437212  41.264   6.111   9.349
 2691POPC   GL137213  41.475   5.925   9.001
 2691POPC   GL237214  41.811   5.978   9.036
 2691POPC   C1A37215  41.540   5.782   8.573
 2691POPC   D2A37216  41.288   5.879   8.214
 2691POPC   C3A37217  41.513   5.767   7.837
 2691POPC   C4A37218  41.466   5.609   7.419
 2691POPC   C1B37219  41.864   6.187   8.621
 2691POPC   C2B37220  41.711   6.145   8.183
 2691POPC   C3B37221  41.921   6.086   7.775
 2691POPC   C4B37222  42.050   6.318   7.382
 2692POPC   NC337223  19.789   5.822   9.857
 2692POPC   PO437224  20.193   6.311   9.556
 2692POPC   GL137225  19.870   6.046   9.356
 2692POPC   GL237226  19.581   6.235   9.267
 2692POPC   C1A37227  19.779   5.865   8.929
 2692POPC   D2A37228  20.026   5.874   8.529
 2692POPC   C3A37229  19.908   5.892   8.077
 2692POPC   C4A37230  19.763   5.634   7.729
 2692POPC   C1B37231  19.630   6.323   8.801
 2692POPC   C2B37232  19.560   6.117   8.406
 2692POPC   C3B37233  19.550   6.233   7.948
 2692POPC   C4B37234  19.503   6.114   7.484
 2693POPC   NC337235  18.294   1.481   9.570
 2693POPC   PO437236  18.748   1.106   9.466
 2693POPC   GL137237  18.804   1.287   9.104
 2693POPC   GL237238  18.547   1.526   9.070
 2693POPC   C1A37239  19.026   1.072   8.781
 2693POPC   D2A37240  19.203   0.805   8.454
 2693POPC   C3A37241  19.249   0.971   8.033
 2693POPC   C4A37242  19.257   0.825   7.622
 2693POPC   C1B37243  18.481   1.175   8.737
 2693POPC   C2B37244  18.719   1.072   8.374
 2693POPC   C3B37245  18.760   1.236   8.003
 2693POPC   C4B37246  18.689   1.087   7.646
 2694POPC   NC337247  34.203  43.093   9.396
 2694POPC   PO437248  33.615  43.140   9.626
 2694POPC   GL137249  33.744  43.248   9.218
 2694POPC   GL237250  33.757  42.895   9.158
 2694POPC   C1A37251  33.646  43.209   8.766
 2694POPC   D2A37252  33.510  42.897   8.444
 2694POPC   C3A37253  33.528  43.045   7.999
 2694POPC   C4A37254  33.842  43.320   7.797
 2694POPC   C1B37255  34.040  42.888   8.780
 2694POPC   C2B37256  34.036  43.071   8.357
 2694POPC   C3B37257  34.014  42.843   7.964
 2694POPC   C4B37258  33.950  42.780   7.527
 2695POPC   NC337259  39.340   3.584   9.669
 2695POPC   PO437260  38.986   3.953   9.191
 2695POPC   GL137261  39.154   3.505   9.191
 2695POPC   GL237262  39.510   3.435   9.186
 2695POPC   C1A37263  39.110   3.319   8.791
 2695POPC   D2A37264  39.046   3.593   8.424
 2695POPC   C3A37265  38.982   3.468   7.989
 2695POPC   C4A37266  38.775   3.654   7.661
 2695POPC   C1B37267  39.453   3.691   8.815
 2695POPC   C2B37268  39.571   3.629   8.412
 2695POPC   C3B37269  39.389   3.766   8.056
 2695POPC   C4B37270  39.404   3.673   7.665
 2696POPC   NC337271  16.481   0.703   9.622
 2696POPC   PO437272  16.924   1.241   9.638
 2696POPC   GL137273  16.788   1.175   9.191
 2696POPC   GL237274  16.956   0.922   8.953
 2696POPC   C1A37275  16.867   1.418   8.807
 2696POPC   D2A37276  16.853   1.526   8.366
 2696POPC   C3A37277  16.720   1.233   8.028
 2696POPC   C4A37278  16.713   1.358   7.604
 2696POPC   C1B37279  16.801   0.689   8.617
 2696POPC   C2B37280  16.771   0.679   8.169
 2696POPC   C3B37281  16.901   0.757   7.765
 2696POPC   C4B37282  17.032   1.019   7.390
 2697POPC   NC337283  25.247  20.777   9.492
 2697POPC   PO437284  25.077  20.145   9.462
 2697POPC   GL137285  25.167  20.464   9.097
 2697POPC   GL237286  25.455  20.729   9.040
 2697POPC   C1A37287  25.058  20.683   8.709
 2697POPC   D2A37288  25.268  20.749   8.318
 2697POPC   C3A37289  25.083  20.796   7.918
 2697POPC   C4A37290  25.186  20.442   7.694
 2697POPC   C1B37291  25.592  20.560   8.684
 2697POPC   C2B37292  25.801  20.670   8.312
 2697POPC   C3B37293  25.610  20.668   7.879
 2697POPC   C4B37294  25.634  20.483   7.446
 2698POPC   NC337295  36.781  24.070   9.460
 2698POPC   PO437296  37.019  24.698   9.595
 2698POPC   GL137297  36.854  24.656   9.174
 2698POPC   GL237298  36.858  24.323   9.015
 2698POPC   C1A37299  36.828  24.773   8.726
 2698POPC   D2A37300  36.901  24.487   8.376
 2698POPC   C3A37301  36.790  24.602   7.962
 2698POPC   C4A37302  37.138  24.688   7.757
 2698POPC   C1B37303  36.800  24.053   8.661
 2698POPC   C2B37304  36.696  24.037   8.236
 2698POPC   C3B37305  36.799  24.108   7.829
 2698POPC   C4B37306  36.891  24.317   7.478
 2699POPC   NC337307   5.455   3.549   9.588
 2699POPC   PO437308   4.940   3.908   9.572
 2699POPC   GL137309   5.264   3.926   9.231
 2699POPC   GL237310   5.309   3.559   9.099
 2699POPC   C1A37311   5.099   3.912   8.812
 2699POPC   D2A37312   4.933   3.591   8.535
 2699POPC   C3A37313   4.994   3.638   8.093
 2699POPC   C4A37314   4.976   3.401   7.692
 2699POPC   C1B37315   5.444   3.551   8.656
 2699POPC   C2B37316   5.287   3.275   8.307
 2699POPC   C3B37317   5.451   3.259   7.894
 2699POPC   C4B37318   5.445   3.292   7.418
 2700POPC   NC337319  20.382  17.884   9.581
 2700POPC   PO437320  19.751  17.746   9.558
 2700POPC   GL137321  19.941  17.663   9.162
 2700POPC   GL237322  20.233  17.810   9.101
 2700POPC   C1A37323  19.854  17.772   8.724
 2700POPC   D2A37324  19.693  17.801   8.294
 2700POPC   C3A37325  19.673  17.405   8.084
 2700POPC   C4A37326  19.833  17.240   7.676
 2700POPC   C1B37327  20.352  17.837   8.697
 2700POPC   C2B37328  20.213  17.650   8.330
 2700POPC   C3B37329  20.119  17.611   7.907
 2700POPC   C4B37330  20.273  17.495   7.486
 2701POPC   NC337331  34.296  38.121   9.454
 2701POPC   PO437332  34.876  37.844   9.408
 2701POPC   GL137333  34.626  37.807   9.080
 2701POPC   GL237334  34.286  37.936   8.991
 2701POPC   C1A37335  34.767  37.644   8.701
 2701POPC   D2A37336  34.890  37.850   8.336
 2701POPC   C3A37337  34.569  37.695   8.057
 2701POPC   C4A37338  34.628  37.410   7.715
 2701POPC   C1B37339  34.272  37.491   8.911
 2701POPC   C2B37340  34.288  37.357   8.493
 2701POPC   C3B37341  34.232  37.266   8.068
 2701POPC   C4B37342  34.120  37.405   7.675
 2702POPC   NC337343   5.644  24.511   9.481
 2702POPC   PO437344   6.308  24.423   9.691
 2702POPC   GL137345   6.034  24.283   9.247
 2702POPC   GL237346   5.815  24.556   9.018
 2702POPC   C1A37347   5.910  24.089   8.833
 2702POPC   D2A37348   5.990  24.013   8.388
 2702POPC   C3A37349   5.674  24.073   8.040
 2702POPC   C4A37350   5.720  24.434   7.761
 2702POPC   C1B37351   5.612  24.474   8.620
 2702POPC   C2B37352   5.866  24.518   8.240
 2702POPC   C3B37353   5.968  24.854   7.913
 2702POPC   C4B37354   5.955  24.853   7.451
 2703POPC   NC337355  36.086  29.332   9.576
 2703POPC   PO437356  36.061  30.000   9.562
 2703POPC   GL137357  36.052  29.845   9.173
 2703POPC   GL237358  36.381  29.759   9.171
 2703POPC   C1A37359  36.006  30.016   8.781
 2703POPC   D2A37360  36.017  29.915   8.400
 2703POPC   C3A37361  36.185  30.101   8.059
 2703POPC   C4A37362  36.091  29.937   7.653
 2703POPC   C1B37363  36.515  29.904   8.774
 2703POPC   C2B37364  36.523  29.843   8.353
 2703POPC   C3B37365  36.387  29.658   7.982
 2703POPC   C4B37366  36.588  29.868   7.667
 2704POPC   NC337367  21.667  12.404   9.514
 2704POPC   PO437368  21.245  11.839   9.485
 2704POPC   GL137369  21.300  12.122   9.192
 2704POPC   GL237370  21.646  12.068   9.124
 2704POPC   C1A37371  21.265  12.149   8.748
 2704POPC   D2A37372  21.000  12.085   8.377
 2704POPC   C3A37373  21.190  12.026   7.961
 2704POPC   C4A37374  21.202  12.357   7.699
 2704POPC   C1B37375  21.962  12.241   8.854
 2704POPC   C2B37376  21.941  12.100   8.414
 2704POPC   C3B37377  21.688  11.962   8.064
 2704POPC   C4B37378  21.615  11.662   7.762
 2705POPC   NC337379   9.127  44.553   9.617
 2705POPC   PO437380   8.771  44.973   9.493
 2705POPC   GL137381   8.915  44.866   9.136
 2705POPC   GL237382   9.223  44.864   9.214
 2705POPC   C1A37383   8.805  44.671   8.765
 2705POPC   D2A37384   8.667  44.476   8.379
 2705POPC   C3A37385   8.716  44.677   7.989
 2705POPC   C4A37386   8.550  44.421   7.674
 2705POPC   C1B37387   9.281  44.943   8.769
 2705POPC   C2B37388   9.158  44.744   8.394
 2705POPC   C3B37389   9.219  44.846   7.989
 2705POPC   C4B37390   9.105  44.615   7.633
 2706POPC   NC337391  25.905  16.988   9.459
 2706POPC   PO437392  26.289  16.362   9.562
 2706POPC   GL137393  26.134  16.612   9.185
 2706POPC   GL237394  26.325  16.945   9.146
 2706POPC   C1A37395  25.852  16.767   8.822
 2706POPC   D2A37396  25.905  16.893   8.382
 2706POPC   C3A37397  25.810  16.628   8.029
 2706POPC   C4A37398  25.920  16.686   7.616
 2706POPC   C1B37399  26.362  16.779   8.712
 2706POPC   C2B37400  26.344  16.660   8.282
 2706POPC   C3B37401  26.371  16.779   7.827
 2706POPC   C4B37402  26.331  16.775   7.352
 2707POPC   NC337403  23.866  16.509   9.492
 2707POPC   PO437404  23.736  15.831   9.496
 2707POPC   GL137405  23.824  16.032   9.133
 2707POPC   GL237406  23.614  16.333   9.085
 2707POPC   C1A37407  23.630  15.823   8.794
 2707POPC   D2A37408  23.638  15.917   8.365
 2707POPC   C3A37409  23.870  15.595   8.145
 2707POPC   C4A37410  23.816  15.823   7.821
 2707POPC   C1B37411  23.608  16.320   8.680
 2707POPC   C2B37412  23.450  16.437   8.277
 2707POPC   C3B37413  23.375  16.135   7.951
 2707POPC   C4B37414  23.679  16.299   7.697
 2708POPC   NC337415  39.541  37.432   9.769
 2708POPC   PO437416  40.073  37.808   9.454
 2708POPC   GL137417  39.849  37.653   9.113
 2708POPC   GL237418  39.591  37.416   9.222
 2708POPC   C1A37419  39.688  37.804   8.716
 2708POPC   D2A37420  39.799  38.059   8.410
 2708POPC   C3A37421  39.848  37.899   8.054
 2708POPC   C4A37422  39.918  37.940   7.631
 2708POPC   C1B37423  39.715  37.294   8.779
 2708POPC   C2B37424  39.792  37.443   8.333
 2708POPC   C3B37425  39.956  37.410   7.883
 2708POPC   C4B37426  39.778  37.412   7.440
 2709POPC   NC337427  42.264  18.566   9.420
 2709POPC   PO437428  42.128  19.260   9.415
 2709POPC   GL137429  42.402  19.036   9.193
 2709POPC   GL237430  42.618  19.313   9.174
 2709POPC   C1A37431  42.374  18.842   8.792
 2709POPC   D2A37432  42.385  18.713   8.350
 2709POPC   C3A37433  42.144  18.933   8.059
 2709POPC   C4A37434  42.171  19.038   7.627
 2709POPC   C1B37435  42.444  19.368   8.780
 2709POPC   C2B37436  42.432  19.206   8.407
 2709POPC   C3B37437  42.618  19.161   8.033
 2709POPC   C4B37438  42.561  19.360   7.628
 2710POPC   NC337439  16.623  20.998   9.819
 2710POPC   PO437440  16.419  20.476   9.490
 2710POPC   GL137441  16.666  20.634   9.120
 2710POPC   GL237442  16.797  20.970   9.218
 2710POPC   C1A37443  16.621  20.550   8.647
 2710POPC   D2A37444  16.333  20.341   8.318
 2710POPC   C3A37445  16.489  20.266   7.873
 2710POPC   C4A37446  16.733  20.462   7.507
 2710POPC   C1B37447  17.076  20.981   8.843
 2710POPC   C2B37448  17.016  20.810   8.434
 2710POPC   C3B37449  16.769  20.669   8.106
 2710POPC   C4B37450  16.943  20.852   7.770
 2711POPC   NC337451  36.813  29.491   9.226
 2711POPC   PO437452  37.060  29.965   9.588
 2711POPC   GL137453  37.029  29.999   9.141
 2711POPC   GL237454  36.733  30.182   9.156
 2711POPC   C1A37455  37.039  29.836   8.695
 2711POPC   D2A37456  37.129  29.512   8.364
 2711POPC   C3A37457  36.924  29.678   8.012
 2711POPC   C4A37458  37.031  30.087   7.808
 2711POPC   C1B37459  36.821  30.332   8.721
 2711POPC   C2B37460  36.866  30.220   8.286
 2711POPC   C3B37461  36.636  30.362   7.911
 2711POPC   C4B37462  36.684  30.312   7.431
 2712POPC   NC337463  25.833  34.091   9.389
 2712POPC   PO437464  26.121  33.538   9.370
 2712POPC   GL137465  26.036  33.793   9.040
 2712POPC   GL237466  25.740  33.593   8.985
 2712POPC   C1A37467  25.903  33.951   8.645
 2712POPC   D2A37468  25.819  33.691   8.281
 2712POPC   C3A37469  25.805  33.933   7.910
 2712POPC   C4A37470  26.121  34.015   7.665
 2712POPC   C1B37471  26.011  33.403   8.680
 2712POPC   C2B37472  26.124  33.252   8.252
 2712POPC   C3B37473  26.236  33.582   7.953
 2712POPC   C4B37474  26.605  33.638   7.734
 2713POPC   NC337475  39.054   1.748   9.641
 2713POPC   PO437476  39.466   2.243   9.578
 2713POPC   GL137477  39.223   2.045   9.232
 2713POPC   GL237478  39.361   1.693   9.212
 2713POPC   C1A37479  39.191   1.911   8.763
 2713POPC   D2A37480  39.270   1.727   8.345
 2713POPC   C3A37481  39.232   2.035   8.021
 2713POPC   C4A37482  38.862   2.169   7.778
 2713POPC   C1B37483  39.646   1.914   8.985
 2713POPC   C2B37484  39.684   1.975   8.558
 2713POPC   C3B37485  39.727   1.940   8.129
 2713POPC   C4B37486  39.673   1.972   7.712
 2714POPC   NC337487   6.778  40.516   9.359
 2714POPC   PO437488   6.112  40.787   9.232
 2714POPC   GL137489   6.515  40.874   9.083
 2714POPC   GL237490   6.751  41.132   8.921
 2714POPC   C1A37491   6.604  40.646   8.707
 2714POPC   D2A37492   6.464  40.421   8.337
 2714POPC   C3A37493   6.711  40.535   7.976
 2714POPC   C4A37494   6.683  40.621   7.575
 2714POPC   C1B37495   7.055  40.884   8.706
 2714POPC   C2B37496   6.977  40.728   8.345
 2714POPC   C3B37497   7.046  40.910   7.953
 2714POPC   C4B37498   6.675  41.116   7.770
 2715POPC   NC337499   6.893  15.568   9.474
 2715POPC   PO437500   6.623  14.971   9.491
 2715POPC   GL137501   6.445  15.046   9.105
 2715POPC   GL237502   6.561  15.383   9.084
 2715POPC   C1A37503   6.337  15.146   8.679
 2715POPC   D2A37504   6.546  15.395   8.377
 2715POPC   C3A37505   6.357  15.341   7.980
 2715POPC   C4A37506   6.555  15.341   7.570
 2715POPC   C1B37507   6.827  15.102   8.791
 2715POPC   C2B37508   6.775  14.902   8.395
 2715POPC   C3B37509   6.782  15.081   7.993
 2715POPC   C4B37510   7.036  15.182   7.642
 2716POPC   NC337511   3.995  16.423   9.652
 2716POPC   PO437512   4.464  16.862   9.521
 2716POPC   GL137513   4.468  16.849   9.119
 2716POPC   GL237514   4.121  16.715   9.137
 2716POPC   C1A37515   4.267  17.030   8.739
 2716POPC   D2A37516   4.188  16.807   8.356
 2716POPC   C3A37517   4.382  16.917   7.998
 2716POPC   C4A37518   4.110  17.115   7.717
 2716POPC   C1B37519   4.334  16.520   8.777
 2716POPC   C2B37520   4.511  16.269   8.457
 2716POPC   C3B37521   4.444  16.426   8.065
 2716POPC   C4B37522   4.655  16.586   7.671
 2717POPC   NC337523   3.376  24.337   9.395
 2717POPC   PO437524   3.724  24.839   9.423
 2717POPC   GL137525   3.643  24.650   9.062
 2717POPC   GL237526   3.316  24.698   9.066
 2717POPC   C1A37527   3.593  24.649   8.620
 2717POPC   D2A37528   3.767  24.892   8.284
 2717POPC   C3A37529   3.854  24.633   7.968
 2717POPC   C4A37530   3.715  24.351   7.711
 2717POPC   C1B37531   3.159  24.421   8.780
 2717POPC   C2B37532   3.080  24.362   8.372
 2717POPC   C3B37533   3.277  24.428   7.971
 2717POPC   C4B37534   3.430  24.770   7.720
 2718POPC   NC337535  32.361   4.299   9.787
 2718POPC   PO437536  32.914   4.138   9.464
 2718POPC   GL137537  33.000   4.150   9.028
 2718POPC   GL237538  32.926   4.497   8.986
 2718POPC   C1A37539  32.759   4.151   8.629
 2718POPC   D2A37540  32.820   4.230   8.217
 2718POPC   C3A37541  32.983   3.903   7.999
 2718POPC   C4A37542  33.405   3.850   7.799
 2718POPC   C1B37543  32.942   4.630   8.557
 2718POPC   C2B37544  32.650   4.713   8.225
 2718POPC   C3B37545  32.694   4.535   7.801
 2718POPC   C4B37546  32.875   4.606   7.368
 2719POPC   NC337547   4.067  17.160   9.453
 2719POPC   PO437548   4.556  17.723   9.609
 2719POPC   GL137549   4.281  17.610   9.296
 2719POPC   GL237550   4.510  17.339   9.243
 2719POPC   C1A37551   4.080  17.522   8.895
 2719POPC   D2A37552   4.215  17.596   8.483
 2719POPC   C3A37553   4.105  17.322   8.174
 2719POPC   C4A37554   4.034  17.605   7.811
 2719POPC   C1B37555   4.574  17.438   8.817
 2719POPC   C2B37556   4.579  17.252   8.376
 2719POPC   C3B37557   4.548  17.384   7.925
 2719POPC   C4B37558   4.583  17.072   7.535
 2720POPC   NC337559  13.335  18.073   9.563
 2720POPC   PO437560  14.003  18.125   9.448
 2720POPC   GL137561  13.741  18.058   9.111
 2720POPC   GL237562  13.472  18.285   9.150
 2720POPC   C1A37563  13.654  18.207   8.697
 2720POPC   D2A37564  13.458  18.144   8.342
 2720POPC   C3A37565  13.697  18.215   7.992
 2720POPC   C4A37566  13.408  18.163   7.691
 2720POPC   C1B37567  13.240  18.462   8.820
 2720POPC   C2B37568  13.372  18.661   8.500
 2720POPC   C3B37569  13.362  18.600   8.084
 2720POPC   C4B37570  13.083  18.540   7.738
 2721POPC   NC337571   5.063   4.792   9.586
 2721POPC   PO437572   5.259   5.424   9.566
 2721POPC   GL137573   5.261   5.100   9.212
 2721POPC   GL237574   4.918   5.084   9.152
 2721POPC   C1A37575   5.190   4.963   8.741
 2721POPC   D2A37576   5.358   5.238   8.403
 2721POPC   C3A37577   5.276   5.096   7.979
 2721POPC   C4A37578   5.174   5.335   7.599
 2721POPC   C1B37579   4.740   5.167   8.759
 2721POPC   C2B37580   4.869   5.117   8.333
 2721POPC   C3B37581   4.793   5.245   7.924
 2721POPC   C4B37582   4.794   5.029   7.519
 2722POPC   NC337583  13.190  23.351   9.468
 2722POPC   PO437584  12.529  23.242   9.484
 2722POPC   GL137585  12.682  23.031   9.084
 2722POPC   GL237586  13.044  23.074   9.063
 2722POPC   C1A37587  12.741  23.143   8.656
 2722POPC   D2A37588  12.663  22.787   8.424
 2722POPC   C3A37589  12.709  22.814   8.031
 2722POPC   C4A37590  12.748  23.041   7.627
 2722POPC   C1B37591  13.083  22.764   8.726
 2722POPC   C2B37592  13.194  22.849   8.270
 2722POPC   C3B37593  13.129  22.613   7.860
 2722POPC   C4B37594  12.995  22.659   7.394
 2723POPC   NC337595  25.418  35.407   9.429
 2723POPC   PO437596  24.795  35.725   9.401
 2723POPC   GL137597  25.027  35.383   9.105
 2723POPC   GL237598  25.393  35.273   8.955
 2723POPC   C1A37599  24.940  35.157   8.732
 2723POPC   D2A37600  24.969  35.270   8.296
 2723POPC   C3A37601  25.166  35.148   7.873
 2723POPC   C4A37602  25.017  34.880   7.481
 2723POPC   C1B37603  25.243  35.600   8.683
 2723POPC   C2B37604  25.203  35.756   8.268
 2723POPC   C3B37605  25.449  35.921   7.911
 2723POPC   C4B37606  25.588  35.693   7.503
 2724POPC   NC337607  13.397  14.590   9.602
 2724POPC   PO437608  13.926  14.060   9.575
 2724POPC   GL137609  13.635  14.149   9.282
 2724POPC   GL237610  13.721  14.485   9.235
 2724POPC   C1A37611  13.575  14.180   8.838
 2724POPC   D2A37612  13.847  14.131   8.477
 2724POPC   C3A37613  13.642  14.234   8.091
 2724POPC   C4A37614  13.722  14.197   7.650
 2724POPC   C1B37615  13.789  14.657   8.871
 2724POPC   C2B37616  13.620  14.600   8.503
 2724POPC   C3B37617  13.441  14.728   8.151
 2724POPC   C4B37618  13.735  14.689   7.809
 2725POPC   NC337619  44.207  38.268   9.469
 2725POPC   PO437620  44.753  38.654   9.541
 2725POPC   GL137621  44.640  38.377   9.219
 2725POPC   GL237622  44.868  38.157   9.119
 2725POPC   C1A37623  44.417  38.462   8.846
 2725POPC   D2A37624  44.558  38.644   8.459
 2725POPC   C3A37625  44.500  38.409   8.069
 2725POPC   C4A37626  44.515  38.454   7.630
 2725POPC   C1B37627  44.930  38.423   8.760
 2725POPC   C2B37628   0.002  38.437   8.308
 2725POPC   C3B37629   0.214  38.582   7.941
 2725POPC   C4B37630   0.017  38.509   7.565
 2726POPC   NC337631   5.061  19.499   9.452
 2726POPC   PO437632   4.753  20.091   9.469
 2726POPC   GL137633   5.033  19.924   9.149
 2726POPC   GL237634   5.346  20.104   8.999
 2726POPC   C1A37635   4.901  19.709   8.805
 2726POPC   D2A37636   4.718  19.868   8.455
 2726POPC   C3A37637   4.748  19.601   8.098
 2726POPC   C4A37638   4.770  19.857   7.743
 2726POPC   C1B37639   5.406  19.715   8.757
 2726POPC   C2B37640   5.193  19.590   8.390
 2726POPC   C3B37641   5.211  19.778   7.989
 2726POPC   C4B37642   5.202  19.398   7.789
 2727POPC   NC337643   3.256   4.931   9.304
 2727POPC   PO437644   3.666   5.226   9.765
 2727POPC   GL137645   3.631   5.219   9.168
 2727POPC   GL237646   3.840   4.981   9.034
 2727POPC   C1A37647   3.409   5.295   8.745
 2727POPC   D2A37648   3.581   5.380   8.319
 2727POPC   C3A37649   3.554   5.156   7.943
 2727POPC   C4A37650   3.459   5.038   7.552
 2727POPC   C1B37651   3.788   4.999   8.590
 2727POPC   C2B37652   3.474   4.846   8.333
 2727POPC   C3B37653   3.438   4.604   7.950
 2727POPC   C4B37654   3.590   4.556   7.504
 2728POPC   NC337655  10.317   2.488   9.490
 2728POPC   PO437656  10.973   2.364   9.530
 2728POPC   GL137657  10.679   2.471   9.098
 2728POPC   GL237658  10.286   2.571   8.995
 2728POPC   C1A37659  10.638   2.709   8.661
 2728POPC   D2A37660  10.459   2.608   8.213
 2728POPC   C3A37661  10.597   2.816   7.819
 2728POPC   C4A37662  10.888   3.120   7.694
 2728POPC   C1B37663  10.098   2.981   8.797
 2728POPC   C2B37664  10.161   3.157   8.381
 2728POPC   C3B37665  10.121   2.929   7.975
 2728POPC   C4B37666  10.125   2.519   7.722
 2729POPC   NC337667   2.623   3.143   9.728
 2729POPC   PO437668   2.864   2.498   9.586
 2729POPC   GL137669   2.762   2.611   9.181
 2729POPC   GL237670   2.543   2.892   9.278
 2729POPC   C1A37671   2.810   2.541   8.744
 2729POPC   D2A37672   2.860   2.728   8.339
 2729POPC   C3A37673   2.617   2.577   8.023
 2729POPC   C4A37674   2.454   2.622   7.625
 2729POPC   C1B37675   2.516   2.988   8.850
 2729POPC   C2B37676   2.398   2.915   8.430
 2729POPC   C3B37677   2.522   3.068   8.015
 2729POPC   C4B37678   2.482   3.140   7.561
 2730POPC   NC337679   2.172  18.755   9.444
 2730POPC   PO437680   1.656  19.246   9.434
 2730POPC   GL137681   1.939  19.106   9.149
 2730POPC   GL237682   1.806  18.794   9.065
 2730POPC   C1A37683   1.892  19.176   8.723
 2730POPC   D2A37684   1.869  19.389   8.365
 2730POPC   C3A37685   1.920  19.160   7.987
 2730POPC   C4A37686   1.799  19.094   7.572
 2730POPC   C1B37687   2.110  18.723   8.758
 2730POPC   C2B37688   1.923  18.647   8.376
 2730POPC   C3B37689   2.083  18.678   8.019
 2730POPC   C4B37690   2.216  18.805   7.651
 2731POPC   NC337691   7.828  39.342   9.669
 2731POPC   PO437692   7.217  39.436   9.836
 2731POPC   GL137693   7.319  39.351   9.316
 2731POPC   GL237694   7.636  39.538   9.214
 2731POPC   C1A37695   7.288  39.149   8.859
 2731POPC   D2A37696   7.040  39.277   8.480
 2731POPC   C3A37697   7.147  39.211   8.057
 2731POPC   C4A37698   7.471  38.942   7.930
 2731POPC   C1B37699   7.521  39.583   8.773
 2731POPC   C2B37700   7.545  39.309   8.379
 2731POPC   C3B37701   7.578  39.483   7.949
 2731POPC   C4B37702   7.848  39.612   7.604
 2732POPC   NC337703  34.979   1.645   9.515
 2732POPC   PO437704  35.668   1.505   9.404
 2732POPC   GL137705  35.411   1.220   9.134
 2732POPC   GL237706  35.057   1.227   9.149
 2732POPC   C1A37707  35.492   0.992   8.733
 2732POPC   D2A37708  35.332   0.853   8.322
 2732POPC   C3A37709  35.415   1.164   7.989
 2732POPC   C4A37710  35.219   1.001   7.627
 2732POPC   C1B37711  35.137   1.399   8.733
 2732POPC   C2B37712  35.018   1.276   8.322
 2732POPC   C3B37713  34.946   1.351   7.889
 2732POPC   C4B37714  35.038   1.420   7.424
 2733POPC   NC337715  30.293  42.417   9.493
 2733POPC   PO437716  30.907  42.039   9.464
 2733POPC   GL137717  30.714  42.153   9.092
 2733POPC   GL237718  30.670  42.488   9.128
 2733POPC   C1A37719  30.510  42.261   8.689
 2733POPC   D2A37720  30.600  42.104   8.270
 2733POPC   C3A37721  30.616  42.332   7.907
 2733POPC   C4A37722  30.229  42.312   7.745
 2733POPC   C1B37723  30.985  42.484   8.770
 2733POPC   C2B37724  31.112  42.712   8.394
 2733POPC   C3B37725  30.944  42.897   7.999
 2733POPC   C4B37726  30.814  42.728   7.567
 2734POPC   NC337727  20.833  29.449   9.472
 2734POPC   PO437728  20.332  28.977   9.415
 2734POPC   GL137729  20.499  29.277   9.096
 2734POPC   GL237730  20.865  29.202   9.041
 2734POPC   C1A37731  20.534  29.262   8.638
 2734POPC   D2A37732  20.650  28.935   8.330
 2734POPC   C3A37733  20.462  28.907   7.908
 2734POPC   C4A37734  20.474  29.025   7.453
 2734POPC   C1B37735  21.046  29.208   8.639
 2734POPC   C2B37736  20.899  29.348   8.234
 2734POPC   C3B37737  20.934  29.158   7.819
 2734POPC   C4B37738  20.893  29.334   7.385
 2735POPC   NC337739   3.963  37.936   9.486
 2735POPC   PO437740   4.032  37.263   9.601
 2735POPC   GL137741   4.244  37.506   9.276
 2735POPC   GL237742   3.966  37.517   9.087
 2735POPC   C1A37743   4.376  37.729   8.846
 2735POPC   D2A37744   4.132  37.760   8.437
 2735POPC   C3A37745   4.312  37.771   8.015
 2735POPC   C4A37746   4.618  37.709   7.691
 2735POPC   C1B37747   3.790  37.865   8.828
 2735POPC   C2B37748   3.681  37.999   8.397
 2735POPC   C3B37749   3.928  38.132   8.071
 2735POPC   C4B37750   3.891  37.885   7.715
 2736POPC   NC337751  30.673   0.042   9.442
 2736POPC   PO437752  30.650  44.410   9.602
 2736POPC   GL137753  30.741  44.588   9.226
 2736POPC   GL237754  30.440  44.684   9.164
 2736POPC   C1A37755  30.864  44.532   8.829
 2736POPC   D2A37756  30.663  44.345   8.469
 2736POPC   C3A37757  30.826  44.470   8.066
 2736POPC   C4A37758  30.819  44.609   7.643
 2736POPC   C1B37759  30.307  44.677   8.752
 2736POPC   C2B37760  30.431  44.956   8.423
 2736POPC   C3B37761  30.503  44.917   7.995
 2736POPC   C4B37762  30.347  44.515   7.843
 2737POPC   NC337763  39.896  11.990   9.473
 2737POPC   PO437764  40.130  12.397   9.119
 2737POPC   GL137765  40.033  11.956   8.982
 2737POPC   GL237766  39.646  12.137   9.070
 2737POPC   C1A37767  39.979  11.713   8.504
 2737POPC   D2A37768  39.871  11.964   8.130
 2737POPC   C3A37769  40.244  12.155   7.896
 2737POPC   C4A37770  40.627  12.120   7.613
 2737POPC   C1B37771  39.468  12.463   8.767
 2737POPC   C2B37772  39.476  12.344   8.306
 2737POPC   C3B37773  39.694  12.426   7.938
 2737POPC   C4B37774  40.031  12.572   7.670
 2738POPC   NC337775   2.913  18.009   9.892
 2738POPC   PO437776   2.497  18.378   9.485
 2738POPC   GL137777   2.850  18.267   9.203
 2738POPC   GL237778   2.608  18.032   9.084
 2738POPC   C1A37779   2.964  18.086   8.746
 2738POPC   D2A37780   2.642  18.063   8.391
 2738POPC   C3A37781   2.831  18.188   7.994
 2738POPC   C4A37782   3.035  18.213   7.588
 2738POPC   C1B37783   2.596  18.428   8.797
 2738POPC   C2B37784   2.433  18.528   8.406
 2738POPC   C3B37785   2.604  18.660   8.060
 2738POPC   C4B37786   2.629  18.521   7.647
 2739POPC   NC337787  38.040  31.998   9.672
 2739POPC   PO437788  37.535  32.425   9.469
 2739POPC   GL137789  37.545  32.190   9.132
 2739POPC   GL237790  37.885  32.057   9.154
 2739POPC   C1A37791  37.686  32.287   8.746
 2739POPC   D2A37792  37.707  32.072   8.389
 2739POPC   C3A37793  37.738  32.339   8.050
 2739POPC   C4A37794  37.614  32.563   7.691
 2739POPC   C1B37795  38.086  31.908   8.724
 2739POPC   C2B37796  38.128  31.814   8.257
 2739POPC   C3B37797  37.926  31.927   7.820
 2739POPC   C4B37798  37.875  32.152   7.408
 2740POPC   NC337799  11.650  38.118   9.420
 2740POPC   PO437800  11.598  37.529   9.425
 2740POPC   GL137801  11.758  37.738   9.058
 2740POPC   GL237802  12.084  37.893   9.044
 2740POPC   C1A37803  11.876  37.647   8.612
 2740POPC   D2A37804  11.960  37.413   8.227
 2740POPC   C3A37805  11.876  37.623   7.860
 2740POPC   C4A37806  12.132  37.905   7.605
 2740POPC   C1B37807  12.365  37.782   8.663
 2740POPC   C2B37808  12.462  37.541   8.266
 2740POPC   C3B37809  12.377  37.488   7.815
 2740POPC   C4B37810  12.598  37.383   7.414
 2741POPC   NC337811  28.292  29.733   9.592
 2741POPC   PO437812  28.099  29.068   9.495
 2741POPC   GL137813  28.254  29.270   9.120
 2741POPC   GL237814  28.620  29.322   9.157
 2741POPC   C1A37815  28.128  29.189   8.677
 2741POPC   D2A37816  28.092  28.938   8.275
 2741POPC   C3A37817  28.113  29.066   7.825
 2741POPC   C4A37818  28.378  28.888   7.456
 2741POPC   C1B37819  28.626  29.061   8.791
 2741POPC   C2B37820  28.551  29.131   8.363
 2741POPC   C3B37821  28.582  28.949   7.957
 2741POPC   C4B37822  28.550  29.310   7.668
 2742POPC   NC337823  10.903  29.686   9.826
 2742POPC   PO437824  11.352  30.096   9.572
 2742POPC   GL137825  11.381  29.843   9.224
 2742POPC   GL237826  11.091  29.697   9.090
 2742POPC   C1A37827  11.452  29.963   8.808
 2742POPC   D2A37828  11.215  30.122   8.481
 2742POPC   C3A37829  11.419  30.090   8.081
 2742POPC   C4A37830  11.309  30.323   7.728
 2742POPC   C1B37831  11.057  29.669   8.660
 2742POPC   C2B37832  11.295  29.638   8.319
 2742POPC   C3B37833  11.215  29.636   7.889
 2742POPC   C4B37834  10.968  29.593   7.530
 2743POPC   NC337835  37.231   4.205   9.510
 2743POPC   PO437836  36.798   4.624   9.288
 2743POPC   GL137837  36.853   4.217   9.144
 2743POPC   GL237838  37.178   4.312   9.021
 2743POPC   C1A37839  36.769   3.893   8.848
 2743POPC   D2A37840  36.660   3.886   8.402
 2743POPC   C3A37841  36.717   4.078   7.975
 2743POPC   C4A37842  36.651   4.245   7.546
 2743POPC   C1B37843  36.974   4.303   8.633
 2743POPC   C2B37844  37.082   4.322   8.221
 2743POPC   C3B37845  37.071   4.430   7.787
 2743POPC   C4B37846  36.888   4.710   7.449
 2744POPC   NC337847  30.315   5.916   9.304
 2744POPC   PO437848  30.913   5.949   9.506
 2744POPC   GL137849  30.701   5.592   9.231
 2744POPC   GL237850  30.734   5.856   8.998
 2744POPC   C1A37851  30.440   5.498   8.792
 2744POPC   D2A37852  30.603   5.551   8.340
 2744POPC   C3A37853  30.578   5.753   7.889
 2744POPC   C4A37854  30.815   5.762   7.465
 2744POPC   C1B37855  30.696   6.300   8.867
 2744POPC   C2B37856  30.637   6.394   8.425
 2744POPC   C3B37857  30.756   6.289   7.989
 2744POPC   C4B37858  30.794   6.613   7.732
 2745POPC   NC337859  38.187  19.729   9.525
 2745POPC   PO437860  38.802  19.444   9.535
 2745POPC   GL137861  38.534  19.562   9.151
 2745POPC   GL237862  38.481  19.924   9.150
 2745POPC   C1A37863  38.580  19.735   8.716
 2745POPC   D2A37864  38.555  20.011   8.399
 2745POPC   C3A37865  38.562  19.784   7.980
 2745POPC   C4A37866  38.574  19.948   7.597
 2745POPC   C1B37867  38.289  20.195   8.839
 2745POPC   C2B37868  38.073  20.150   8.444
 2745POPC   C3B37869  38.222  20.136   8.024
 2745POPC   C4B37870  38.044  20.073   7.646
 2746POPC   NC337871  14.048  12.742   9.586
 2746POPC   PO437872  14.714  12.649   9.511
 2746POPC   GL137873  14.391  12.689   9.225
 2746POPC   GL237874  14.240  13.009   9.202
 2746POPC   C1A37875  14.212  12.675   8.829
 2746POPC   D2A37876  14.385  12.727   8.457
 2746POPC   C3A37877  14.148  12.712   8.075
 2746POPC   C4A37878  14.352  12.659   7.707
 2746POPC   C1B37879  14.444  13.145   8.827
 2746POPC   C2B37880  14.649  13.157   8.434
 2746POPC   C3B37881  14.639  12.924   8.055
 2746POPC   C4B37882  14.458  13.178   7.795
 2747POPC   NC337883  28.243   6.360   9.605
 2747POPC   PO437884  28.654   6.865   9.429
 2747POPC   GL137885  28.435   6.720   9.112
 2747POPC   GL237886  28.385   6.371   9.118
 2747POPC   C1A37887  28.522   6.711   8.686
 2747POPC   D2A37888  28.415   6.967   8.336
 2747POPC   C3A37889  28.482   6.711   8.001
 2747POPC   C4A37890  28.603   6.794   7.590
 2747POPC   C1B37891  28.087   6.470   8.824
 2747POPC   C2B37892  28.044   6.595   8.410
 2747POPC   C3B37893  28.096   6.380   8.008
 2747POPC   C4B37894  28.251   6.423   7.605
 2748POPC   NC337895  11.204  43.690   9.783
 2748POPC   PO437896  11.531  44.151   9.474
 2748POPC   GL137897  11.355  43.900   9.170
 2748POPC   GL237898  11.237  43.593   9.297
 2748POPC   C1A37899  11.341  44.010   8.749
 2748POPC   D2A37900  11.501  44.119   8.362
 2748POPC   C3A37901  11.207  44.004   8.048
 2748POPC   C4A37902  11.310  43.812   7.709
 2748POPC   C1B37903  11.135  43.539   8.860
 2748POPC   C2B37904  10.995  43.727   8.467
 2748POPC   C3B37905  11.128  43.513   8.102
 2748POPC   C4B37906  11.034  43.395   7.682
 2749POPC   NC337907  28.885   2.623   9.440
 2749POPC   PO437908  29.438   2.944   9.601
 2749POPC   GL137909  29.302   2.834   9.186
 2749POPC   GL237910  29.462   2.494   9.156
 2749POPC   C1A37911  29.108   2.978   8.774
 2749POPC   D2A37912  29.126   2.757   8.360
 2749POPC   C3A37913  28.914   2.928   7.984
 2749POPC   C4A37914  29.185   3.025   7.621
 2749POPC   C1B37915  29.188   2.442   8.799
 2749POPC   C2B37916  28.888   2.284   8.479
 2749POPC   C3B37917  29.023   2.259   8.060
 2749POPC   C4B37918  29.113   2.534   7.722
 2750POPC   NC337919  18.423  24.065   9.496
 2750POPC   PO437920  18.335  24.782   9.571
 2750POPC   GL137921  18.512  24.518   9.251
 2750POPC   GL237922  18.266  24.310   9.079
 2750POPC   C1A37923  18.637  24.576   8.813
 2750POPC   D2A37924  18.473  24.774   8.435
 2750POPC   C3A37925  18.486  24.435   8.154
 2750POPC   C4A37926  18.421  24.373   7.735
 2750POPC   C1B37927  18.104  24.626   8.789
 2750POPC   C2B37928  18.001  24.527   8.377
 2750POPC   C3B37929  17.963  24.327   7.997
 2750POPC   C4B37930  17.957  24.663   7.741
 2751POPC   NC337931  22.217  31.820   9.947
 2751POPC   PO437932  22.446  32.276   9.490
 2751POPC   GL137933  22.373  32.302   9.070
 2751POPC   GL237934  22.041  32.484   9.087
 2751POPC   C1A37935  22.477  32.183   8.620
 2751POPC   D2A37936  22.635  32.185   8.188
 2751POPC   C3A37937  22.330  32.229   7.862
 2751POPC   C4A37938  21.927  32.046   7.783
 2751POPC   C1B37939  22.254  32.633   8.723
 2751POPC   C2B37940  22.229  32.515   8.287
 2751POPC   C3B37941  22.199  32.713   7.873
 2751POPC   C4B37942  22.018  32.522   7.511
 2752POPC   NC337943  32.697  34.495   9.457
 2752POPC   PO437944  33.284  34.862   9.631
 2752POPC   GL137945  33.135  34.681   9.204
 2752POPC   GL237946  33.231  34.326   9.099
 2752POPC   C1A37947  33.103  34.751   8.755
 2752POPC   D2A37948  32.744  34.881   8.520
 2752POPC   C3A37949  32.764  34.823   8.083
 2752POPC   C4A37950  33.030  34.855   7.732
 2752POPC   C1B37951  32.871  34.319   8.825
 2752POPC   C2B37952  32.876  34.399   8.361
 2752POPC   C3B37953  32.863  34.370   7.888
 2752POPC   C4B37954  32.623  34.154   7.569
 2753POPC   NC337955  38.925   6.808   9.650
 2753POPC   PO437956  39.212   6.314   9.675
 2753POPC   GL137957  39.226   6.523   9.232
 2753POPC   GL237958  39.166   6.879   9.192
 2753POPC   C1A37959  39.219   6.577   8.749
 2753POPC   D2A37960  39.391   6.555   8.332
 2753POPC   C3A37961  39.208   6.350   7.998
 2753POPC   C4A37962  39.197   6.442   7.557
 2753POPC   C1B37963  39.348   7.070   8.816
 2753POPC   C2B37964  39.262   7.052   8.357
 2753POPC   C3B37965  39.237   6.871   7.892
 2753POPC   C4B37966  39.448   6.877   7.438
 2754POPC   NC337967  13.900  11.073   9.480
 2754POPC   PO437968  14.378  11.521   9.484
 2754POPC   GL137969  14.281  11.604   9.113
 2754POPC   GL237970  14.244  11.235   9.079
 2754POPC   C1A37971  14.462  11.538   8.709
 2754POPC   D2A37972  14.678  11.344   8.374
 2754POPC   C3A37973  14.519  11.466   7.948
 2754POPC   C4A37974  14.466  11.780   7.637
 2754POPC   C1B37975  14.125  11.111   8.684
 2754POPC   C2B37976  14.200  11.192   8.273
 2754POPC   C3B37977  14.539  10.970   8.058
 2754POPC   C4B37978  14.600  10.879   7.647
 2755POPC   NC337979  12.221  21.109   9.598
 2755POPC   PO437980  11.936  21.685   9.715
 2755POPC   GL137981  12.168  21.536   9.284
 2755POPC   GL237982  12.357  21.187   9.130
 2755POPC   C1A37983  12.231  21.565   8.826
 2755POPC   D2A37984  12.078  21.670   8.409
 2755POPC   C3A37985  12.226  21.460   8.050
 2755POPC   C4A37986  12.170  21.615   7.636
 2755POPC   C1B37987  12.109  21.053   8.757
 2755POPC   C2B37988  11.940  21.083   8.322
 2755POPC   C3B37989  11.801  21.202   7.895
 2755POPC   C4B37990  12.039  21.145   7.504
 2756POPC   NC337991  34.068  41.420   9.515
 2756POPC   PO437992  33.493  41.351   9.843
 2756POPC   GL137993  33.504  41.544   9.341
 2756POPC   GL237994  33.813  41.684   9.159
 2756POPC   C1A37995  33.501  41.383   8.871
 2756POPC   D2A37996  33.470  41.099   8.498
 2756POPC   C3A37997  33.618  41.284   8.087
 2756POPC   C4A37998  33.564  41.572   7.706
 2756POPC   C1B37999  34.028  41.366   8.845
 2756POPC   C2B38000  34.076  41.231   8.388
 2756POPC   C3B38001  34.152  41.400   7.973
 2756POPC   C4B38002  34.039  41.422   7.539
 2757POPC   NC338003  41.569  32.025   9.438
 2757POPC   PO438004  41.667  32.717   9.486
 2757POPC   GL138005  41.882  32.375   9.214
 2757POPC   GL238006  41.871  31.997   9.035
 2757POPC   C1A38007  41.758  32.435   8.825
 2757POPC   D2A38008  41.437  32.465   8.525
 2757POPC   C3A38009  41.555  32.367   8.103
 2757POPC   C4A38010  41.360  32.353   7.736
 2757POPC   C1B38011  41.480  31.977   8.760
 2757POPC   C2B38012  41.208  32.006   8.361
 2757POPC   C3B38013  41.373  31.884   7.946
 2757POPC   C4B38014  41.805  31.848   7.776
 2758POPC   NC338015  26.667   3.783   9.336
 2758POPC   PO438016  27.051   3.271   9.569
 2758POPC   GL138017  27.108   3.490   9.192
 2758POPC   GL238018  27.051   3.163   9.047
 2758POPC   C1A38019  26.987   3.561   8.738
 2758POPC   D2A38020  27.024   3.300   8.344
 2758POPC   C3A38021  27.092   3.563   7.973
 2758POPC   C4A38022  26.738   3.768   7.794
 2758POPC   C1B38023  26.691   3.139   8.779
 2758POPC   C2B38024  26.462   3.133   8.370
 2758POPC   C3B38025  26.627   3.302   7.979
 2758POPC   C4B38026  26.984   3.099   7.782
 2759POPC   NC338027   5.004  43.625   9.466
 2759POPC   PO438028   5.328  44.160   9.599
 2759POPC   GL138029   5.326  43.916   9.192
 2759POPC   GL238030   5.391  43.548   9.131
 2759POPC   C1A38031   5.059  43.925   8.816
 2759POPC   D2A38032   5.122  43.778   8.399
 2759POPC   C3A38033   5.206  44.005   8.053
 2759POPC   C4A38034   5.076  43.914   7.694
 2759POPC   C1B38035   5.546  43.758   8.737
 2759POPC   C2B38036   5.603  43.607   8.295
 2759POPC   C3B38037   5.423  43.563   7.863
 2759POPC   C4B38038   5.309  43.574   7.402
 2760POPC   NC338039  28.098  11.397   9.351
 2760POPC   PO438040  27.490  11.313   9.669
 2760POPC   GL138041  27.597  11.244   9.268
 2760POPC   GL238042  27.663  11.565   9.122
 2760POPC   C1A38043  27.510  11.149   8.840
 2760POPC   D2A38044  27.387  11.469   8.532
 2760POPC   C3A38045  27.351  11.447   8.040
 2760POPC   C4A38046  27.370  11.045   7.778
 2760POPC   C1B38047  27.811  11.740   8.708
 2760POPC   C2B38048  27.745  11.719   8.248
 2760POPC   C3B38049  27.880  11.479   7.876
 2760POPC   C4B38050  28.025  11.478   7.446
 2761POPC   NC338051  27.465  16.341   9.496
 2761POPC   PO438052  27.719  15.703   9.468
 2761POPC   GL138053  27.772  16.029   9.163
 2761POPC   GL238054  27.470  16.174   9.011
 2761POPC   C1A38055  27.905  16.030   8.713
 2761POPC   D2A38056  27.709  15.863   8.300
 2761POPC   C3A38057  27.674  16.055   7.890
 2761POPC   C4A38058  27.494  16.236   7.502
 2761POPC   C1B38059  27.410  15.742   8.834
 2761POPC   C2B38060  27.348  15.519   8.406
 2761POPC   C3B38061  27.321  15.674   7.966
 2761POPC   C4B38062  27.020  15.797   7.633
 2762POPC   NC338063  19.975  40.576   9.583
 2762POPC   PO438064  20.028  41.238   9.466
 2762POPC   GL138065  19.816  41.020   9.124
 2762POPC   GL238066  19.812  40.664   9.076
 2762POPC   C1A38067  19.624  41.074   8.782
 2762POPC   D2A38068  19.717  40.803   8.443
 2762POPC   C3A38069  19.851  40.823   8.075
 2762POPC   C4A38070  20.069  40.492   7.826
 2762POPC   C1B38071  19.458  40.573   8.788
 2762POPC   C2B38072  19.393  40.360   8.377
 2762POPC   C3B38073  19.532  40.453   7.946
 2762POPC   C4B38074  19.444  40.820   7.738
 2763POPC   NC338075  27.572  14.577   9.523
 2763POPC   PO438076  27.639  13.883   9.360
 2763POPC   GL138077  27.723  14.265   9.134
 2763POPC   GL238078  27.367  14.372   9.100
 2763POPC   C1A38079  27.673  14.350   8.690
 2763POPC   D2A38080  27.579  13.996   8.387
 2763POPC   C3A38081  27.512  14.131   7.941
 2763POPC   C4A38082  27.654  14.500   7.715
 2763POPC   C1B38083  27.206  14.528   8.709
 2763POPC   C2B38084  27.336  14.487   8.277
 2763POPC   C3B38085  27.229  14.680   7.884
 2763POPC   C4B38086  27.227  14.436   7.463
 2764POPC   NC338087  24.962  36.924   9.710
 2764POPC   PO438088  25.559  36.777   9.912
 2764POPC   GL138089  25.263  36.777   9.353
 2764POPC   GL238090  25.367  37.008   9.114
 2764POPC   C1A38091  25.326  36.572   8.868
 2764POPC   D2A38092  25.079  36.633   8.484
 2764POPC   C3A38093  25.155  36.627   8.039
 2764POPC   C4A38094  25.179  36.924   7.683
 2764POPC   C1B38095  25.325  37.073   8.648
 2764POPC   C2B38096  25.269  37.101   8.188
 2764POPC   C3B38097  25.405  37.349   7.839
 2764POPC   C4B38098  25.183  37.389   7.439
 2765POPC   NC338099  10.358  43.955   9.570
 2765POPC   PO438100  10.804  43.461   9.704
 2765POPC   GL138101  10.749  43.739   9.327
 2765POPC   GL238102  10.441  43.579   9.201
 2765POPC   C1A38103  10.847  43.981   8.935
 2765POPC   D2A38104  10.572  44.142   8.585
 2765POPC   C3A38105  10.669  44.050   8.140
 2765POPC   C4A38106  10.374  44.013   7.770
 2765POPC   C1B38107  10.578  43.582   8.790
 2765POPC   C2B38108  10.431  43.676   8.381
 2765POPC   C3B38109  10.609  43.571   7.991
 2765POPC   C4B38110  10.402  43.376   7.697
 2766POPC   NC338111   4.452  21.557   9.550
 2766POPC   PO438112   3.908  21.527   9.808
 2766POPC   GL138113   4.013  21.550   9.267
 2766POPC   GL238114   3.942  21.233   9.043
 2766POPC   C1A38115   4.366  21.577   8.904
 2766POPC   D2A38116   4.431  21.615   8.468
 2766POPC   C3A38117   4.288  21.267   8.199
 2766POPC   C4A38118   4.440  21.300   7.786
 2766POPC   C1B38119   3.905  21.589   8.757
 2766POPC   C2B38120   3.942  21.651   8.334
 2766POPC   C3B38121   4.147  21.698   7.953
 2766POPC   C4B38122   4.095  21.572   7.523
 2767POPC   NC338123  30.754  10.264   9.368
 2767POPC   PO438124  30.657  10.915   9.532
 2767POPC   GL138125  30.725  10.703   9.139
 2767POPC   GL238126  30.418  10.595   9.062
 2767POPC   C1A38127  30.922  10.492   8.771
 2767POPC   D2A38128  30.764  10.528   8.375
 2767POPC   C3A38129  30.885  10.340   8.023
 2767POPC   C4A38130  31.022  10.628   7.752
 2767POPC   C1B38131  30.394  10.342   8.722
 2767POPC   C2B38132  30.251  10.396   8.318
 2767POPC   C3B38133  30.438  10.552   7.958
 2767POPC   C4B38134  30.465  10.576   7.534
 2768POPC   NC338135   6.344  17.123   9.872
 2768POPC   PO438136   6.702  16.616   9.462
 2768POPC   GL138137   6.611  16.708   9.089
 2768POPC   GL238138   6.864  16.988   9.134
 2768POPC   C1A38139   6.501  16.828   8.688
 2768POPC   D2A38140   6.625  16.582   8.347
 2768POPC   C3A38141   6.430  16.608   7.934
 2768POPC   C4A38142   6.376  17.009   7.703
 2768POPC   C1B38143   7.009  16.795   8.770
 2768POPC   C2B38144   7.147  16.584   8.418
 2768POPC   C3B38145   7.002  16.526   8.023
 2768POPC   C4B38146   6.854  16.829   7.727
 2769POPC   NC338147   4.541  40.689   9.651
 2769POPC   PO438148   4.005  41.048   9.506
 2769POPC   GL138149   4.278  40.801   9.173
 2769POPC   GL238150   4.654  40.861   9.155
 2769POPC   C1A38151   4.476  40.695   8.726
 2769POPC   D2A38152   4.526  40.769   8.283
 2769POPC   C3A38153   4.353  40.467   8.026
 2769POPC   C4A38154   4.602  40.358   7.702
 2769POPC   C1B38155   4.424  41.188   8.850
 2769POPC   C2B38156   4.221  41.128   8.487
 2769POPC   C3B38157   4.283  41.176   8.061
 2769POPC   C4B38158   4.321  40.906   7.710
 2770POPC   NC338159  18.284  37.996   9.524
 2770POPC   PO438160  18.610  38.547   9.604
 2770POPC   GL138161  18.527  38.443   9.182
 2770POPC   GL238162  18.190  38.327   9.158
 2770POPC   C1A38163  18.392  38.619   8.792
 2770POPC   D2A38164  18.463  38.553   8.346
 2770POPC   C3A38165  18.338  38.525   7.925
 2770POPC   C4A38166  18.429  38.527   7.506
 2770POPC   C1B38167  18.138  38.169   8.735
 2770POPC   C2B38168  18.092  38.185   8.274
 2770POPC   C3B38169  18.031  38.138   7.822
 2770POPC   C4B38170  18.081  38.065   7.375
 2771POPC   NC338171  16.521  24.186   9.660
 2771POPC   PO438172  15.903  24.545   9.656
 2771POPC   GL138173  15.793  24.531   9.166
 2771POPC   GL238174  15.707  24.202   9.001
 2771POPC   C1A38175  15.747  24.762   8.722
 2771POPC   D2A38176  15.854  24.760   8.239
 2771POPC   C3A38177  15.875  24.390   8.013
 2771POPC   C4A38178  16.007  24.249   7.643
 2771POPC   C1B38179  16.082  24.360   8.770
 2771POPC   C2B38180  16.210  24.209   8.373
 2771POPC   C3B38181  16.424  24.323   8.016
 2771POPC   C4B38182  16.503  24.121   7.627
 2772POPC   NC338183  21.967  33.469   9.560
 2772POPC   PO438184  22.467  33.958   9.569
 2772POPC   GL138185  22.201  33.832   9.235
 2772POPC   GL238186  22.298  33.500   9.170
 2772POPC   C1A38187  22.295  33.861   8.784
 2772POPC   D2A38188  22.154  33.946   8.356
 2772POPC   C3A38189  22.376  33.982   7.942
 2772POPC   C4A38190  22.238  33.834   7.534
 2772POPC   C1B38191  21.930  33.499   8.898
 2772POPC   C2B38192  21.940  33.451   8.453
 2772POPC   C3B38193  22.067  33.561   8.031
 2772POPC   C4B38194  21.952  33.419   7.634
 2773POPC   NC338195  16.844   4.435   9.526
 2773POPC   PO438196  16.430   3.843   9.709
 2773POPC   GL138197  16.555   4.052   9.283
 2773POPC   GL238198  16.438   4.407   9.168
 2773POPC   C1A38199  16.820   4.097   8.893
 2773POPC   D2A38200  16.675   4.137   8.471
 2773POPC   C3A38201  16.882   4.142   8.082
 2773POPC   C4A38202  16.594   4.134   7.784
 2773POPC   C1B38203  16.773   4.601   8.883
 2773POPC   C2B38204  17.023   4.495   8.515
 2773POPC   C3B38205  17.072   4.632   8.112
 2773POPC   C4B38206  16.730   4.606   7.829
 2774POPC   NC338207  13.238  32.820   9.363
 2774POPC   PO438208  13.860  32.770   9.258
 2774POPC   GL138209  13.557  32.879   8.934
 2774POPC   GL238210  13.315  33.162   8.972
 2774POPC   C1A38211  13.262  32.756   8.616
 2774POPC   D2A38212  13.244  32.864   8.172
 2774POPC   C3A38213  13.597  32.987   7.898
 2774POPC   C4A38214  13.793  33.215   7.573
 2774POPC   C1B38215  13.495  33.216   8.528
 2774POPC   C2B38216  13.604  33.436   8.110
 2774POPC   C3B38217  13.513  33.624   7.663
 2774POPC   C4B38218  13.394  33.585   7.199
 2775POPC   NC338219  19.547  22.744   9.323
 2775POPC   PO438220  20.113  23.148   9.482
 2775POPC   GL138221  19.920  23.069   9.147
 2775POPC   GL238222  20.045  22.739   9.180
 2775POPC   C1A38223  19.790  22.965   8.752
 2775POPC   D2A38224  19.868  23.106   8.366
 2775POPC   C3A38225  19.523  23.071   8.079
 2775POPC   C4A38226  19.704  22.938   7.719
 2775POPC   C1B38227  20.282  22.820   8.849
 2775POPC   C2B38228  20.271  22.669   8.446
 2775POPC   C3B38229  20.052  22.732   8.076
 2775POPC   C4B38230  20.039  22.508   7.739
 2776POPC   NC338231   5.165  30.805   9.449
 2776POPC   PO438232   4.556  31.048   9.527
 2776POPC   GL138233   4.819  30.990   9.119
 2776POPC   GL238234   4.893  30.648   9.015
 2776POPC   C1A38235   5.141  31.039   8.754
 2776POPC   D2A38236   5.426  30.833   8.386
 2776POPC   C3A38237   5.409  30.452   8.088
 2776POPC   C4A38238   5.485  30.485   7.638
 2776POPC   C1B38239   4.696  30.771   8.623
 2776POPC   C2B38240   4.936  30.971   8.288
 2776POPC   C3B38241   5.129  30.854   7.902
 2776POPC   C4B38242   5.119  30.791   7.451
 2777POPC   NC338243  11.859  42.021   9.520
 2777POPC   PO438244  11.988  42.654   9.602
 2777POPC   GL138245  12.051  42.528   9.143
 2777POPC   GL238246  12.099  42.213   9.118
 2777POPC   C1A38247  12.041  42.411   8.663
 2777POPC   D2A38248  11.864  42.414   8.311
 2777POPC   C3A38249  12.109  42.568   8.007
 2777POPC   C4A38250  12.011  42.315   7.673
 2777POPC   C1B38251  12.322  42.008   8.795
 2777POPC   C2B38252  12.406  41.856   8.398
 2777POPC   C3B38253  12.233  41.972   8.001
 2777POPC   C4B38254  12.265  41.879   7.577
 2778POPC   NC338255  36.031  23.676   9.543
 2778POPC   PO438256  36.417  24.090   9.185
 2778POPC   GL138257  36.224  23.853   8.948
 2778POPC   GL238258  35.912  23.714   9.043
 2778POPC   C1A38259  36.319  23.935   8.556
 2778POPC   D2A38260  36.147  24.001   8.226
 2778POPC   C3A38261  35.937  23.692   8.039
 2778POPC   C4A38262  35.979  23.861   7.660
 2778POPC   C1B38263  35.958  23.597   8.581
 2778POPC   C2B38264  36.335  23.480   8.311
 2778POPC   C3B38265  36.267  23.286   7.899
 2778POPC   C4B38266  35.861  23.364   7.646
 2779POPC   NC338267  38.315  24.075   9.543
 2779POPC   PO438268  38.688  24.589   9.606
 2779POPC   GL138269  38.672  24.580   9.153
 2779POPC   GL238270  38.533  24.251   9.106
 2779POPC   C1A38271  38.735  24.503   8.709
 2779POPC   D2A38272  38.506  24.234   8.436
 2779POPC   C3A38273  38.623  24.180   7.996
 2779POPC   C4A38274  38.617  24.505   7.658
 2779POPC   C1B38275  38.174  24.334   8.824
 2779POPC   C2B38276  37.994  24.463   8.450
 2779POPC   C3B38277  38.150  24.387   8.047
 2779POPC   C4B38278  37.916  24.437   7.710
 2780POPC   NC338279  16.027  25.018   9.588
 2780POPC   PO438280  16.663  25.011   9.466
 2780POPC   GL138281  16.287  25.157   9.183
 2780POPC   GL238282  15.934  25.345   9.212
 2780POPC   C1A38283  16.257  25.332   8.802
 2780POPC   D2A38284  16.140  25.066   8.513
 2780POPC   C3A38285  16.119  25.294   8.135
 2780POPC   C4A38286  15.963  25.096   7.786
 2780POPC   C1B38287  15.744  25.295   8.790
 2780POPC   C2B38288  15.670  25.217   8.344
 2780POPC   C3B38289  15.668  25.483   7.988
 2780POPC   C4B38290  15.786  25.659   7.619
 2781POPC   NC338291  12.542  24.704   9.328
 2781POPC   PO438292  13.224  24.553   9.218
 2781POPC   GL138293  12.876  24.330   9.062
 2781POPC   GL238294  12.518  24.361   8.948
 2781POPC   C1A38295  12.853  24.209   8.621
 2781POPC   D2A38296  12.934  24.558   8.350
 2781POPC   C3A38297  13.123  24.459   7.965
 2781POPC   C4A38298  13.264  24.752   7.671
 2781POPC   C1B38299  12.583  24.767   8.697
 2781POPC   C2B38300  12.522  24.897   8.277
 2781POPC   C3B38301  12.632  24.565   7.929
 2781POPC   C4B38302  12.782  24.194   7.694
 2782POPC   NC338303   7.058  44.142   9.725
 2782POPC   PO438304   7.612  43.989   9.541
 2782POPC   GL138305   7.326  43.830   9.248
 2782POPC   GL238306   7.187  44.158   9.205
 2782POPC   C1A38307   7.494  43.700   8.843
 2782POPC   D2A38308   7.566  43.854   8.425
 2782POPC   C3A38309   7.512  43.622   8.032
 2782POPC   C4A38310   7.583  43.912   7.695
 2782POPC   C1B38311   7.089  43.995   8.795
 2782POPC   C2B38312   7.039  43.866   8.367
 2782POPC   C3B38313   7.164  44.026   7.986
 2782POPC   C4B38314   7.089  44.060   7.572
 2783POPC   NC338315  40.220  17.109   9.597
 2783POPC   PO438316  39.749  17.104   9.200
 2783POPC   GL138317  40.003  16.825   9.048
 2783POPC   GL238318  40.347  16.984   9.081
 2783POPC   C1A38319  39.888  16.672   8.622
 2783POPC   D2A38320  39.744  16.768   8.194
 2783POPC   C3A38321  40.076  16.595   7.946
 2783POPC   C4A38322  40.089  16.290   7.609
 2783POPC   C1B38323  40.179  17.081   8.651
 2783POPC   C2B38324  40.267  16.988   8.221
 2783POPC   C3B38325  40.268  17.033   7.749
 2783POPC   C4B38326  40.114  17.159   7.326
 2784POPC   NC338327   4.927  28.808   9.663
 2784POPC   PO438328   4.841  29.442   9.613
 2784POPC   GL138329   4.990  29.153   9.252
 2784POPC   GL238330   5.147  29.364   9.014
 2784POPC   C1A38331   4.927  28.983   8.795
 2784POPC   D2A38332   5.145  29.216   8.468
 2784POPC   C3A38333   4.916  29.243   8.130
 2784POPC   C4A38334   4.820  28.904   7.839
 2784POPC   C1B38335   5.440  29.016   8.837
 2784POPC   C2B38336   5.435  28.764   8.440
 2784POPC   C3B38337   5.304  28.888   8.018
 2784POPC   C4B38338   5.255  29.262   7.765
 2785POPC   NC338339  17.703   9.954   9.521
 2785POPC   PO438340  17.211   9.514   9.371
 2785POPC   GL138341  17.540   9.610   9.101
 2785POPC   GL238342  17.497   9.961   9.040
 2785POPC   C1A38343  17.425   9.504   8.682
 2785POPC   D2A38344  17.310   9.464   8.243
 2785POPC   C3A38345  17.344   9.760   7.918
 2785POPC   C4A38346  17.499   9.684   7.455
 2785POPC   C1B38347  17.683   9.960   8.629
 2785POPC   C2B38348  17.885   9.953   8.211
 2785POPC   C3B38349  17.779   9.986   7.769
 2785POPC   C4B38350  17.617  10.193   7.400
 2786POPC   NC338351   9.798  44.355   9.797
 2786POPC   PO438352   9.428  44.865   9.757
 2786POPC   GL138353   9.704  44.771   9.348
 2786POPC   GL238354   9.536  44.472   9.295
 2786POPC   C1A38355   9.826  44.598   8.871
 2786POPC   D2A38356  10.140  44.692   8.511
 2786POPC   C3A38357  10.044  44.804   8.055
 2786POPC   C4A38358   9.675  44.764   7.777
 2786POPC   C1B38359   9.351  44.444   8.866
 2786POPC   C2B38360   9.561  44.406   8.428
 2786POPC   C3B38361   9.445  44.353   7.962
 2786POPC   C4B38362   9.522  44.371   7.465
 2787POPC   NC338363  40.552  39.930   9.502
 2787POPC   PO438364  40.987  39.446   9.644
 2787POPC   GL138365  40.910  39.715   9.220
 2787POPC   GL238366  40.564  39.785   9.007
 2787POPC   C1A38367  41.005  39.962   8.844
 2787POPC   D2A38368  40.750  39.908   8.475
 2787POPC   C3A38369  40.829  40.181   8.125
 2787POPC   C4A38370  40.787  40.022   7.710
 2787POPC   C1B38371  40.561  40.244   8.822
 2787POPC   C2B38372  40.547  40.516   8.435
 2787POPC   C3B38373  40.411  40.477   7.999
 2787POPC   C4B38374  40.581  40.461   7.597
 2788POPC   NC338375   8.734   2.839   9.450
 2788POPC   PO438376   9.246   3.216   9.414
 2788POPC   GL138377   8.984   3.010   9.053
 2788POPC   GL238378   8.584   3.084   9.022
 2788POPC   C1A38379   9.144   2.800   8.697
 2788POPC   D2A38380   9.393   2.591   8.391
 2788POPC   C3A38381   9.201   2.616   7.981
 2788POPC   C4A38382   8.990   2.982   7.778
 2788POPC   C1B38383   8.637   2.711   8.765
 2788POPC   C2B38384   8.818   2.588   8.362
 2788POPC   C3B38385   8.701   2.585   7.941
 2788POPC   C4B38386   8.536   2.379   7.607
 2789POPC   NC338387  11.041   0.349   9.471
 2789POPC   PO438388  11.569   0.740   9.592
 2789POPC   GL138389  11.385   0.608   9.168
 2789POPC   GL238390  11.042   0.767   9.164
 2789POPC   C1A38391  11.342   0.439   8.723
 2789POPC   D2A38392  11.493   0.206   8.338
 2789POPC   C3A38393  11.497   0.419   7.937
 2789POPC   C4A38394  11.079   0.351   7.737
 2789POPC   C1B38395  11.194   0.942   8.784
 2789POPC   C2B38396  11.324   0.892   8.375
 2789POPC   C3B38397  11.172   0.796   7.973
 2789POPC   C4B38398  10.829   0.842   7.698
 2790POPC   NC338399   2.214  42.656   9.357
 2790POPC   PO438400   1.869  43.296   9.437
 2790POPC   GL138401   2.041  43.210   9.094
 2790POPC   GL238402   1.871  42.897   9.062
 2790POPC   C1A38403   2.232  43.083   8.737
 2790POPC   D2A38404   2.246  42.914   8.309
 2790POPC   C3A38405   2.035  43.144   7.981
 2790POPC   C4A38406   2.161  43.232   7.571
 2790POPC   C1B38407   1.874  42.713   8.675
 2790POPC   C2B38408   1.734  42.856   8.302
 2790POPC   C3B38409   1.772  42.707   7.900
 2790POPC   C4B38410   1.737  42.907   7.502
 2791POPC   NC338411  12.659  16.386   9.428
 2791POPC   PO438412  12.751  16.945   9.746
 2791POPC   GL138413  12.827  17.082   9.270
 2791POPC   GL238414  12.767  16.759   9.076
 2791POPC   C1A38415  12.816  17.176   8.767
 2791POPC   D2A38416  12.863  16.807   8.449
 2791POPC   C3A38417  13.106  16.796   8.045
 2791POPC   C4A38418  12.961  16.630   7.663
 2791POPC   C1B38419  12.438  16.849   8.768
 2791POPC   C2B38420  12.434  17.034   8.346
 2791POPC   C3B38421  12.551  16.787   7.967
 2791POPC   C4B38422  12.517  16.788   7.480
 2792POPC   NC338423  26.790  36.698   9.482
 2792POPC   PO438424  26.363  37.182   9.461
 2792POPC   GL138425  26.651  37.000   9.091
 2792POPC   GL238426  27.016  37.014   9.155
 2792POPC   C1A38427  26.820  36.721   8.749
 2792POPC   D2A38428  27.017  36.499   8.401
 2792POPC   C3A38429  26.934  36.717   7.998
 2792POPC   C4A38430  27.159  36.754   7.622
 2792POPC   C1B38431  27.062  37.176   8.759
 2792POPC   C2B38432  27.091  37.028   8.367
 2792POPC   C3B38433  27.236  37.128   7.957
 2792POPC   C4B38434  26.913  37.201   7.635
 2793POPC   NC338435   1.665  12.165   9.599
 2793POPC   PO438436   2.278  12.295   9.756
 2793POPC   GL138437   2.070  12.216   9.298
 2793POPC   GL238438   1.766  12.405   9.169
 2793POPC   C1A38439   2.161  12.246   8.836
 2793POPC   D2A38440   2.116  12.012   8.460
 2793POPC   C3A38441   2.180  12.157   8.043
 2793POPC   C4A38442   1.989  11.896   7.740
 2793POPC   C1B38443   1.661  12.138   8.854
 2793POPC   C2B38444   1.690  12.308   8.459
 2793POPC   C3B38445   1.673  12.150   8.061
 2793POPC   C4B38446   1.629  12.307   7.666
 2794POPC   NC338447  17.146   0.900   9.435
 2794POPC   PO438448  17.764   0.988   9.338
 2794POPC   GL138449  17.492   0.977   9.034
 2794POPC   GL238450  17.298   1.270   9.072
 2794POPC   C1A38451  17.448   0.929   8.597
 2794POPC   D2A38452  17.112   1.068   8.338
 2794POPC   C3A38453  17.217   1.143   7.902
 2794POPC   C4A38454  17.418   0.811   7.658
 2794POPC   C1B38455  17.370   1.424   8.662
 2794POPC   C2B38456  17.683   1.378   8.306
 2794POPC   C3B38457  17.733   1.160   7.879
 2794POPC   C4B38458  17.503   1.257   7.453
 2795POPC   NC338459   4.959  38.702   9.745
 2795POPC   PO438460   5.180  38.204   9.431
 2795POPC   GL138461   5.232  38.581   9.187
 2795POPC   GL238462   5.057  38.328   8.957
 2795POPC   C1A38463   5.093  38.805   8.804
 2795POPC   D2A38464   4.947  38.507   8.472
 2795POPC   C3A38465   5.056  38.460   8.034
 2795POPC   C4A38466   5.123  38.628   7.624
 2795POPC   C1B38467   4.852  37.995   8.740
 2795POPC   C2B38468   4.713  37.820   8.370
 2795POPC   C3B38469   4.908  37.978   8.013
 2795POPC   C4B38470   4.895  38.158   7.611
 2796POPC   NC338471  42.094   1.718   5.390
 2796POPC   PO438472  42.697   2.067   5.327
 2796POPC   GL138473  42.392   2.079   5.711
 2796POPC   GL238474  42.063   1.920   5.869
 2796POPC   C1A38475  42.471   1.894   6.134
 2796POPC   D2A38476  42.460   1.643   6.505
 2796POPC   C3A38477  42.284   1.916   6.820
 2796POPC   C4A38478  42.297   1.996   7.250
 2796POPC   C1B38479  42.030   2.129   6.277
 2796POPC   C2B38480  41.831   2.160   6.681
 2796POPC   C3B38481  41.899   2.289   7.136
 2796POPC   C4B38482  42.004   2.273   7.596
 2797POPC   NC338483  42.190  42.829   5.414
 2797POPC   PO438484  42.576  42.227   5.340
 2797POPC   GL138485  42.364  42.286   5.775
 2797POPC   GL238486  42.361  42.628   5.888
 2797POPC   C1A38487  42.125  42.090   6.159
 2797POPC   D2A38488  41.919  42.268   6.525
 2797POPC   C3A38489  41.976  42.165   6.954
 2797POPC   C4A38490  42.059  42.544   7.171
 2797POPC   C1B38491  42.357  42.504   6.341
 2797POPC   C2B38492  42.475  42.402   6.760
 2797POPC   C3B38493  42.620  42.443   7.168
 2797POPC   C4B38494  42.619  42.116   7.471
 2798POPC   NC338495   7.777  23.654   5.323
 2798POPC   PO438496   8.405  23.542   5.215
 2798POPC   GL138497   8.197  23.683   5.629
 2798POPC   GL238498   8.347  23.963   5.816
 2798POPC   C1A38499   8.059  23.638   6.078
 2798POPC   D2A38500   8.071  23.905   6.460
 2798POPC   C3A38501   7.966  23.764   6.889
 2798POPC   C4A38502   8.125  23.766   7.299
 2798POPC   C1B38503   8.547  24.158   6.183
 2798POPC   C2B38504   8.478  24.157   6.627
 2798POPC   C3B38505   8.463  23.820   6.907
 2798POPC   C4B38506   8.709  23.806   7.248
 2799POPC   NC338507  25.348  19.047   4.874
 2799POPC   PO438508  25.186  19.094   5.506
 2799POPC   GL138509  25.160  18.967   5.879
 2799POPC   GL238510  25.488  18.905   5.940
 2799POPC   C1A38511  25.027  19.182   6.197
 2799POPC   D2A38512  25.141  19.383   6.549
 2799POPC   C3A38513  24.989  19.203   6.903
 2799POPC   C4A38514  25.003  19.270   7.301
 2799POPC   C1B38515  25.379  18.865   6.381
 2799POPC   C2B38516  25.455  19.031   6.761
 2799POPC   C3B38517  25.505  19.233   7.098
 2799POPC   C4B38518  25.338  18.875   7.284
 2800POPC   NC338519  41.221  14.731   5.395
 2800POPC   PO438520  40.719  14.511   5.462
 2800POPC   GL138521  40.966  14.497   5.850
 2800POPC   GL238522  40.663  14.399   6.020
 2800POPC   C1A38523  41.102  14.306   6.272
 2800POPC   D2A38524  40.949  14.017   6.580
 2800POPC   C3A38525  40.535  14.131   6.727
 2800POPC   C4A38526  40.576  14.547   6.620
 2800POPC   C1B38527  40.360  14.695   6.178
 2800POPC   C2B38528  40.102  14.671   6.562
 2800POPC   C3B38529  40.183  14.573   6.995
 2800POPC   C4B38530  40.304  14.784   7.391
 2801POPC   NC338531  26.946   9.636   5.292
 2801POPC   PO438532  26.423   9.401   5.598
 2801POPC   GL138533  26.707   9.711   5.799
 2801POPC   GL238534  27.014   9.523   5.845
 2801POPC   C1A38535  26.939   9.937   6.144
 2801POPC   D2A38536  27.083   9.775   6.553
 2801POPC   C3A38537  26.828   9.823   6.917
 2801POPC   C4A38538  26.933   9.912   7.320
 2801POPC   C1B38539  26.766   9.487   6.264
 2801POPC   C2B38540  26.487   9.540   6.616
 2801POPC   C3B38541  26.381   9.523   7.021
 2801POPC   C4B38542  26.705   9.405   7.231
 2802POPC   NC338543   0.346  30.724   5.337
 2802POPC   PO438544   0.237  30.076   5.077
 2802POPC   GL138545   0.346  30.260   5.559
 2802POPC   GL238546   0.122  30.509   5.720
 2802POPC   C1A38547   0.519  30.428   6.020
 2802POPC   D2A38548   0.579  30.775   6.403
 2802POPC   C3A38549   0.601  30.714   6.877
 2802POPC   C4A38550   0.943  30.621   7.189
 2802POPC   C1B38551   0.162  30.786   6.095
 2802POPC   C2B38552   0.072  30.823   6.550
 2802POPC   C3B38553   0.126  30.911   6.981
 2802POPC   C4B38554   0.336  30.724   7.344
 2803POPC   NC338555  27.829  37.133   5.464
 2803POPC   PO438556  27.360  36.618   5.345
 2803POPC   GL138557  27.642  36.732   5.740
 2803POPC   GL238558  27.907  36.492   5.914
 2803POPC   C1A38559  27.733  36.890   6.158
 2803POPC   D2A38560  27.592  36.840   6.598
 2803POPC   C3A38561  27.679  37.093   6.995
 2803POPC   C4A38562  27.399  37.162   7.409
 2803POPC   C1B38563  27.922  36.488   6.390
 2803POPC   C2B38564  27.979  36.508   6.840
 2803POPC   C3B38565  27.841  36.295   7.207
 2803POPC   C4B38566  27.890  36.423   7.654
 2804POPC   NC338567  29.099  35.253   5.200
 2804POPC   PO438568  28.990  35.745   5.641
 2804POPC   GL138569  29.236  35.435   5.827
 2804POPC   GL238570  29.007  35.147   5.765
 2804POPC   C1A38571  29.298  35.325   6.277
 2804POPC   D2A38572  29.036  35.468   6.626
 2804POPC   C3A38573  29.161  35.340   7.038
 2804POPC   C4A38574  29.237  35.543   7.415
 2804POPC   C1B38575  28.917  34.985   6.195
 2804POPC   C2B38576  29.080  34.962   6.617
 2804POPC   C3B38577  28.775  35.044   6.891
 2804POPC   C4B38578  28.646  35.340   7.180
 2805POPC   NC338579  29.411  35.918   5.606
 2805POPC   PO438580  29.012  36.495   5.429
 2805POPC   GL138581  29.107  36.240   5.876
 2805POPC   GL238582  29.403  36.279   6.005
 2805POPC   C1A38583  29.273  35.853   6.234
 2805POPC   D2A38584  29.493  35.688   6.619
 2805POPC   C3A38585  29.274  35.860   6.987
 2805POPC   C4A38586  29.004  36.152   7.204
 2805POPC   C1B38587  29.255  36.341   6.405
 2805POPC   C2B38588  29.236  36.392   6.831
 2805POPC   C3B38589  29.473  36.462   7.208
 2805POPC   C4B38590  29.471  36.816   7.521
 2806POPC   NC338591  10.663  42.301   5.321
 2806POPC   PO438592  10.272  41.921   5.580
 2806POPC   GL138593  10.443  42.175   5.837
 2806POPC   GL238594  10.785  42.224   5.830
 2806POPC   C1A38595  10.465  42.023   6.250
 2806POPC   D2A38596  10.185  41.929   6.563
 2806POPC   C3A38597  10.409  42.094   6.907
 2806POPC   C4A38598  10.322  42.348   7.248
 2806POPC   C1B38599  10.672  42.486   6.167
 2806POPC   C2B38600  10.743  42.450   6.593
 2806POPC   C3B38601  10.508  42.658   6.875
 2806POPC   C4B38602  10.601  42.849   7.219
 2807POPC   NC338603  37.171  29.733   5.476
 2807POPC   PO438604  36.493  29.653   5.379
 2807POPC   GL138605  36.761  29.764   5.811
 2807POPC   GL238606  37.113  29.775   5.977
 2807POPC   C1A38607  36.758  30.120   6.147
 2807POPC   D2A38608  36.457  30.261   6.457
 2807POPC   C3A38609  36.607  30.126   6.860
 2807POPC   C4A38610  36.713  29.838   7.186
 2807POPC   C1B38611  37.196  29.436   6.316
 2807POPC   C2B38612  37.157  29.337   6.783
 2807POPC   C3B38613  37.177  29.604   7.148
 2807POPC   C4B38614  37.140  30.057   7.299
 2808POPC   NC338615  23.653  28.731   5.397
 2808POPC   PO438616  23.731  28.079   5.402
 2808POPC   GL138617  23.723  28.426   5.797
 2808POPC   GL238618  23.433  28.678   5.853
 2808POPC   C1A38619  23.783  28.660   6.231
 2808POPC   D2A38620  23.601  28.584   6.655
 2808POPC   C3A38621  23.763  28.657   7.062
 2808POPC   C4A38622  23.661  28.294   7.312
 2808POPC   C1B38623  23.257  28.631   6.270
 2808POPC   C2B38624  23.105  28.746   6.689
 2808POPC   C3B38625  23.250  28.564   7.115
 2808POPC   C4B38626  23.311  28.559   7.591
 2809POPC   NC338627  40.167  20.869   5.598
 2809POPC   PO438628  39.860  21.420   5.348
 2809POPC   GL138629  40.116  21.403   5.735
 2809POPC   GL238630  40.397  21.622   5.785
 2809POPC   C1A38631  40.036  21.337   6.199
 2809POPC   D2A38632  39.710  21.398   6.530
 2809POPC   C3A38633  39.910  21.409   6.935
 2809POPC   C4A38634  39.833  21.127   7.250
 2809POPC   C1B38635  40.272  21.800   6.182
 2809POPC   C2B38636  40.113  21.723   6.579
 2809POPC   C3B38637  40.110  21.881   7.015
 2809POPC   C4B38638  39.952  21.837   7.441
 2810POPC   NC338639   1.543  28.403   5.150
 2810POPC   PO438640   2.258  28.674   5.360
 2810POPC   GL138641   2.338  28.319   5.644
 2810POPC   GL238642   1.995  28.217   5.690
 2810POPC   C1A38643   2.321  28.063   6.033
 2810POPC   D2A38644   2.354  28.234   6.464
 2810POPC   C3A38645   2.117  28.021   6.786
 2810POPC   C4A38646   1.808  27.974   7.119
 2810POPC   C1B38647   1.971  28.426   6.140
 2810POPC   C2B38648   1.926  28.477   6.624
 2810POPC   C3B38649   2.074  28.431   7.098
 2810POPC   C4B38650   1.963  28.309   7.535
 2811POPC   NC338651  20.172  29.959   5.264
 2811POPC   PO438652  19.483  29.788   5.428
 2811POPC   GL138653  19.833  29.775   5.770
 2811POPC   GL238654  20.142  29.975   5.765
 2811POPC   C1A38655  19.846  29.757   6.219
 2811POPC   D2A38656  19.802  29.679   6.662
 2811POPC   C3A38657  19.674  29.963   7.020
 2811POPC   C4A38658  19.832  29.860   7.450
 2811POPC   C1B38659  20.209  30.113   6.164
 2811POPC   C2B38660  20.003  30.168   6.564
 2811POPC   C3B38661  20.130  30.166   6.993
 2811POPC   C4B38662  19.948  30.334   7.371
 2812POPC   NC338663   4.706  29.887   5.464
 2812POPC   PO438664   4.130  30.103   5.356
 2812POPC   GL138665   4.320  30.102   5.784
 2812POPC   GL238666   4.506  29.803   5.938
 2812POPC   C1A38667   4.186  30.112   6.229
 2812POPC   D2A38668   4.295  29.982   6.650
 2812POPC   C3A38669   4.057  30.016   7.020
 2812POPC   C4A38670   4.292  29.815   7.335
 2812POPC   C1B38671   4.387  29.570   6.338
 2812POPC   C2B38672   4.537  29.522   6.780
 2812POPC   C3B38673   4.621  29.436   7.222
 2812POPC   C4B38674   4.755  29.399   7.676
 2813POPC   NC338675  38.753  15.735   5.632
 2813POPC   PO438676  39.144  16.153   5.247
 2813POPC   GL138677  39.193  16.002   5.621
 2813POPC   GL238678  38.943  16.228   5.723
 2813POPC   C1A38679  39.204  15.910   6.064
 2813POPC   D2A38680  39.033  16.057   6.411
 2813POPC   C3A38681  39.261  15.928   6.771
 2813POPC   C4A38682  39.248  15.886   7.205
 2813POPC   C1B38683  38.781  16.416   6.061
 2813POPC   C2B38684  38.840  16.542   6.460
 2813POPC   C3B38685  38.906  16.340   6.847
 2813POPC   C4B38686  38.785  16.538   7.193
 2814POPC   NC338687  18.990   0.844   5.443
 2814POPC   PO438688  19.481   0.366   5.402
 2814POPC   GL138689  19.289   0.214   5.764
 2814POPC   GL238690  19.226   0.565   5.836
 2814POPC   C1A38691  19.110   0.210   6.178
 2814POPC   D2A38692  19.205   0.381   6.561
 2814POPC   C3A38693  19.039   0.212   6.951
 2814POPC   C4A38694  19.171   0.488   7.240
 2814POPC   C1B38695  18.854   0.639   6.088
 2814POPC   C2B38696  18.780   0.785   6.477
 2814POPC   C3B38697  18.860   0.673   6.851
 2814POPC   C4B38698  18.867   0.894   7.224
 2815POPC   NC338699  28.428  13.881   5.619
 2815POPC   PO438700  28.176  14.486   5.311
 2815POPC   GL138701  28.236  14.379   5.733
 2815POPC   GL238702  28.478  14.275   5.949
 2815POPC   C1A38703  28.011  14.433   6.138
 2815POPC   D2A38704  27.902  14.488   6.565
 2815POPC   C3A38705  28.297  14.491   6.761
 2815POPC   C4A38706  28.350  14.615   7.167
 2815POPC   C1B38707  28.581  14.631   6.176
 2815POPC   C2B38708  28.724  14.774   6.577
 2815POPC   C3B38709  28.819  14.570   6.982
 2815POPC   C4B38710  28.793  14.535   7.433
 2816POPC   NC338711  18.937  40.969   5.229
 2816POPC   PO438712  19.278  40.439   5.503
 2816POPC   GL138713  19.096  40.656   5.817
 2816POPC   GL238714  18.781  40.709   5.709
 2816POPC   C1A38715  18.927  40.664   6.231
 2816POPC   D2A38716  19.028  40.519   6.631
 2816POPC   C3A38717  19.377  40.685   6.878
 2816POPC   C4A38718  19.267  40.821   7.277
 2816POPC   C1B38719  18.728  41.070   6.004
 2816POPC   C2B38720  18.780  41.148   6.445
 2816POPC   C3B38721  18.904  40.987   6.859
 2816POPC   C4B38722  18.898  41.198   7.254
 2817POPC   NC338723  42.348   3.183   5.328
 2817POPC   PO438724  42.563   3.803   5.560
 2817POPC   GL138725  42.556   3.612   5.951
 2817POPC   GL238726  42.443   3.286   5.824
 2817POPC   C1A38727  42.412   3.687   6.379
 2817POPC   D2A38728  42.204   4.027   6.632
 2817POPC   C3A38729  42.143   3.831   6.996
 2817POPC   C4A38730  42.035   3.456   7.202
 2817POPC   C1B38731  42.700   3.176   6.170
 2817POPC   C2B38732  42.639   3.195   6.591
 2817POPC   C3B38733  42.708   3.470   6.906
 2817POPC   C4B38734  42.559   3.348   7.280
 2818POPC   NC338735  13.444  12.250   5.467
 2818POPC   PO438736  14.046  12.004   5.460
 2818POPC   GL138737  13.865  12.088   5.852
 2818POPC   GL238738  13.540  11.971   5.910
 2818POPC   C1A38739  13.966  12.017   6.284
 2818POPC   D2A38740  13.840  11.775   6.632
 2818POPC   C3A38741  13.798  11.923   7.037
 2818POPC   C4A38742  13.764  12.235   7.281
 2818POPC   C1B38743  13.472  12.149   6.309
 2818POPC   C2B38744  13.521  12.234   6.750
 2818POPC   C3B38745  13.282  12.179   7.142
 2818POPC   C4B38746  13.396  12.321   7.592
 2819POPC   NC338747  11.610  12.115   5.116
 2819POPC   PO438748  11.009  12.172   5.240
 2819POPC   GL138749  11.198  12.040   5.718
 2819POPC   GL238750  11.570  12.182   5.816
 2819POPC   C1A38751  11.218  12.158   6.199
 2819POPC   D2A38752  11.316  12.372   6.630
 2819POPC   C3A38753  11.385  12.048   6.942
 2819POPC   C4A38754  11.374  11.761   7.322
 2819POPC   C1B38755  11.654  12.421   6.211
 2819POPC   C2B38756  11.835  12.598   6.603
 2819POPC   C3B38757  11.865  12.456   7.051
 2819POPC   C4B38758  11.598  12.226   7.365
 2820POPC   NC338759   7.304  22.008   5.507
 2820POPC   PO438760   7.009  22.557   5.464
 2820POPC   GL138761   7.268  22.378   5.862
 2820POPC   GL238762   7.543  22.080   5.939
 2820POPC   C1A38763   7.417  22.389   6.306
 2820POPC   D2A38764   7.583  22.272   6.686
 2820POPC   C3A38765   7.241  22.449   6.917
 2820POPC   C4A38766   7.134  22.409   7.308
 2820POPC   C1B38767   7.298  21.882   6.257
 2820POPC   C2B38768   7.161  21.976   6.707
 2820POPC   C3B38769   7.404  22.003   7.114
 2820POPC   C4B38770   7.589  21.852   7.498
 2821POPC   NC338771  27.993  12.376   5.134
 2821POPC   PO438772  28.395  11.774   5.297
 2821POPC   GL138773  28.308  11.944   5.721
 2821POPC   GL238774  28.652  11.953   5.877
 2821POPC   C1A38775  28.159  12.143   6.149
 2821POPC   D2A38776  28.086  12.342   6.591
 2821POPC   C3A38777  28.342  12.168   6.938
 2821POPC   C4A38778  28.164  11.920   7.255
 2821POPC   C1B38779  28.815  11.810   6.285
 2821POPC   C2B38780  28.735  11.794   6.760
 2821POPC   C3B38781  28.641  11.757   7.223
 2821POPC   C4B38782  28.796  11.821   7.661
 2822POPC   NC338783   7.404  34.957   5.159
 2822POPC   PO438784   7.759  34.544   5.527
 2822POPC   GL138785   7.636  34.644   5.874
 2822POPC   GL238786   7.311  34.491   5.912
 2822POPC   C1A38787   7.724  34.507   6.238
 2822POPC   D2A38788   7.489  34.454   6.555
 2822POPC   C3A38789   7.651  34.617   6.909
 2822POPC   C4A38790   7.378  34.717   7.178
 2822POPC   C1B38791   7.152  34.211   6.246
 2822POPC   C2B38792   7.026  34.304   6.696
 2822POPC   C3B38793   7.366  34.199   7.017
 2822POPC   C4B38794   7.381  34.217   7.461
 2823POPC   NC338795  37.069  41.181   5.381
 2823POPC   PO438796  36.626  40.548   5.340
 2823POPC   GL138797  36.823  40.688   5.692
 2823POPC   GL238798  36.734  40.415   5.855
 2823POPC   C1A38799  36.906  40.947   6.047
 2823POPC   D2A38800  36.994  40.855   6.485
 2823POPC   C3A38801  36.709  40.915   6.811
 2823POPC   C4A38802  36.880  40.981   7.246
 2823POPC   C1B38803  37.005  40.387   6.174
 2823POPC   C2B38804  37.182  40.338   6.571
 2823POPC   C3B38805  37.064  40.588   6.927
 2823POPC   C4B38806  36.848  40.470   7.318
 2824POPC   NC338807  38.629  12.201   5.573
 2824POPC   PO438808  37.996  12.104   5.441
 2824POPC   GL138809  38.239  11.935   5.857
 2824POPC   GL238810  38.602  11.762   5.840
 2824POPC   C1A38811  38.262  12.125   6.299
 2824POPC   D2A38812  38.571  12.374   6.576
 2824POPC   C3A38813  38.545  12.261   7.010
 2824POPC   C4A38814  38.140  12.146   7.197
 2824POPC   C1B38815  38.734  11.917   6.246
 2824POPC   C2B38816  38.587  11.873   6.657
 2824POPC   C3B38817  38.406  11.764   7.010
 2824POPC   C4B38818  38.598  11.894   7.374
 2825POPC   NC338819  17.638   7.743   5.487
 2825POPC   PO438820  17.240   7.256   5.579
 2825POPC   GL138821  17.439   7.485   5.890
 2825POPC   GL238822  17.749   7.290   5.813
 2825POPC   C1A38823  17.294   7.528   6.321
 2825POPC   D2A38824  17.273   7.277   6.710
 2825POPC   C3A38825  17.301   7.465   7.109
 2825POPC   C4A38826  17.602   7.514   7.455
 2825POPC   C1B38827  17.628   7.075   6.213
 2825POPC   C2B38828  17.766   7.044   6.648
 2825POPC   C3B38829  17.785   7.223   7.068
 2825POPC   C4B38830  17.817   7.050   7.506
 2826POPC   NC338831   6.971   9.714   5.197
 2826POPC   PO438832   7.577   9.767   5.294
 2826POPC   GL138833   7.655   9.891   5.704
 2826POPC   GL238834   7.760  10.225   5.815
 2826POPC   C1A38835   7.430   9.903   6.109
 2826POPC   D2A38836   7.271   9.656   6.463
 2826POPC   C3A38837   7.163   9.808   6.863
 2826POPC   C4A38838   7.355   9.685   7.248
 2826POPC   C1B38839   7.646  10.338   6.259
 2826POPC   C2B38840   7.485  10.100   6.601
 2826POPC   C3B38841   7.683   9.941   6.946
 2826POPC   C4B38842   7.760  10.064   7.352
 2827POPC   NC338843  28.657  23.100   5.536
 2827POPC   PO438844  28.004  22.746   5.431
 2827POPC   GL138845  28.230  22.957   5.784
 2827POPC   GL238846  28.488  22.717   5.874
 2827POPC   C1A38847  28.438  23.164   6.179
 2827POPC   D2A38848  28.484  22.970   6.615
 2827POPC   C3A38849  28.392  23.208   6.983
 2827POPC   C4A38850  28.699  23.348   7.252
 2827POPC   C1B38851  28.193  22.726   6.248
 2827POPC   C2B38852  27.962  22.724   6.643
 2827POPC   C3B38853  28.152  22.756   7.039
 2827POPC   C4B38854  28.486  22.605   7.286
 2828POPC   NC338855   2.253  32.846   5.274
 2828POPC   PO438856   2.197  33.474   5.200
 2828POPC   GL138857   2.334  33.247   5.631
 2828POPC   GL238858   2.299  32.883   5.769
 2828POPC   C1A38859   2.218  33.259   6.095
 2828POPC   D2A38860   1.924  33.129   6.422
 2828POPC   C3A38861   2.066  33.176   6.824
 2828POPC   C4A38862   1.824  33.159   7.158
 2828POPC   C1B38863   2.073  32.737   6.131
 2828POPC   C2B38864   2.170  32.655   6.562
 2828POPC   C3B38865   1.948  32.701   6.926
 2828POPC   C4B38866   2.113  32.752   7.305
 2829POPC   NC338867  24.013  13.636   5.678
 2829POPC   PO438868  23.385  13.368   5.617
 2829POPC   GL138869  23.622  13.502   5.956
 2829POPC   GL238870  23.562  13.863   5.943
 2829POPC   C1A38871  23.950  13.325   6.252
 2829POPC   D2A38872  23.953  13.150   6.653
 2829POPC   C3A38873  23.590  13.262   6.872
 2829POPC   C4A38874  23.798  13.394   7.210
 2829POPC   C1B38875  23.909  13.861   6.253
 2829POPC   C2B38876  24.034  13.697   6.612
 2829POPC   C3B38877  23.975  13.831   7.009
 2829POPC   C4B38878  24.106  13.750   7.408
 2830POPC   NC338879  24.568  11.697   5.337
 2830POPC   PO438880  24.632  11.024   5.303
 2830POPC   GL138881  24.600  11.294   5.669
 2830POPC   GL238882  24.282  11.213   5.834
 2830POPC   C1A38883  24.747  11.420   6.089
 2830POPC   D2A38884  24.566  11.541   6.487
 2830POPC   C3A38885  24.711  11.449   6.906
 2830POPC   C4A38886  24.497  11.562   7.282
 2830POPC   C1B38887  24.415  11.025   6.231
 2830POPC   C2B38888  24.530  11.037   6.662
 2830POPC   C3B38889  24.330  11.103   7.055
 2830POPC   C4B38890  24.331  11.157   7.513
 2831POPC   NC338891  33.888  13.975   5.527
 2831POPC   PO438892  33.428  14.384   5.183
 2831POPC   GL138893  33.459  14.649   5.641
 2831POPC   GL238894  33.803  14.520   5.735
 2831POPC   C1A38895  33.481  14.637   6.137
 2831POPC   D2A38896  33.511  14.351   6.549
 2831POPC   C3A38897  33.566  14.544   6.948
 2831POPC   C4A38898  33.419  14.928   7.126
 2831POPC   C1B38899  33.873  14.293   6.155
 2831POPC   C2B38900  34.050  14.315   6.561
 2831POPC   C3B38901  33.970  14.207   6.968
 2831POPC   C4B38902  33.910  14.448   7.315
 2832POPC   NC338903  35.120  35.465   5.471
 2832POPC   PO438904  35.618  35.628   5.156
 2832POPC   GL138905  35.619  35.305   5.565
 2832POPC   GL238906  35.280  35.107   5.749
 2832POPC   C1A38907  35.638  35.352   6.034
 2832POPC   D2A38908  35.680  35.732   6.334
 2832POPC   C3A38909  35.867  35.690   6.768
 2832POPC   C4A38910  35.761  35.568   7.217
 2832POPC   C1B38911  35.129  35.302   6.133
 2832POPC   C2B38912  35.346  35.320   6.513
 2832POPC   C3B38913  35.293  35.380   6.937
 2832POPC   C4B38914  34.905  35.316   7.180
 2833POPC   NC338915  40.515   5.629   5.378
 2833POPC   PO438916  39.989   5.988   5.452
 2833POPC   GL138917  39.820   5.839   5.822
 2833POPC   GL238918  39.863   5.468   5.815
 2833POPC   C1A38919  39.902   5.910   6.274
 2833POPC   D2A38920  40.078   5.958   6.692
 2833POPC   C3A38921  39.760   6.008   6.982
 2833POPC   C4A38922  39.628   5.884   7.382
 2833POPC   C1B38923  39.784   5.406   6.247
 2833POPC   C2B38924  39.747   5.565   6.660
 2833POPC   C3B38925  40.004   5.536   7.010
 2833POPC   C4B38926  39.901   5.456   7.416
 2834POPC   NC338927   6.055  27.021   5.113
 2834POPC   PO438928   5.650  26.554   5.348
 2834POPC   GL138929   5.971  26.627   5.651
 2834POPC   GL238930   6.012  26.986   5.726
 2834POPC   C1A38931   6.094  26.548   6.063
 2834POPC   D2A38932   5.906  26.554   6.490
 2834POPC   C3A38933   6.091  26.769   6.842
 2834POPC   C4A38934   6.257  26.664   7.249
 2834POPC   C1B38935   5.802  26.960   6.166
 2834POPC   C2B38936   5.604  26.940   6.617
 2834POPC   C3B38937   5.634  26.725   7.037
 2834POPC   C4B38938   5.912  27.048   7.236
 2835POPC   NC338939  36.834  33.441   5.428
 2835POPC   PO438940  37.256  32.969   5.283
 2835POPC   GL138941  37.000  32.920   5.679
 2835POPC   GL238942  37.013  33.206   5.856
 2835POPC   C1A38943  36.922  32.735   6.104
 2835POPC   D2A38944  36.848  32.957   6.488
 2835POPC   C3A38945  37.034  32.859   6.872
 2835POPC   C4A38946  36.903  32.949   7.292
 2835POPC   C1B38947  36.708  33.343   6.122
 2835POPC   C2B38948  36.611  33.410   6.528
 2835POPC   C3B38949  36.856  33.615   6.848
 2835POPC   C4B38950  36.770  33.433   7.232
 2836POPC   NC338951  36.868  35.766   5.501
 2836POPC   PO438952  37.118  36.355   5.482
 2836POPC   GL138953  36.837  36.186   5.798
 2836POPC   GL238954  37.072  35.968   5.936
 2836POPC   C1A38955  36.704  36.093   6.268
 2836POPC   D2A38956  36.927  35.946   6.666
 2836POPC   C3A38957  36.863  36.116   7.068
 2836POPC   C4A38958  37.021  36.039   7.475
 2836POPC   C1B38959  37.208  35.657   6.216
 2836POPC   C2B38960  37.305  35.574   6.660
 2836POPC   C3B38961  37.139  35.661   7.088
 2836POPC   C4B38962  37.087  35.536   7.546
 2837POPC   NC338963  14.851  11.221   5.360
 2837POPC   PO438964  14.238  11.368   5.382
 2837POPC   GL138965  14.221  11.424   5.801
 2837POPC   GL238966  14.586  11.448   5.806
 2837POPC   C1A38967  14.271  11.178   6.207
 2837POPC   D2A38968  14.469  11.104   6.635
 2837POPC   C3A38969  14.257  11.166   7.013
 2837POPC   C4A38970  14.365  11.312   7.441
 2837POPC   C1B38971  14.749  11.365   6.228
 2837POPC   C2B38972  14.906  11.341   6.646
 2837POPC   C3B38973  14.785  11.153   7.086
 2837POPC   C4B38974  14.859  11.318   7.535
 2838POPC   NC338975   5.332  14.729   5.292
 2838POPC   PO438976   4.965  15.292   5.372
 2838POPC   GL138977   4.907  15.330   5.789
 2838POPC   GL238978   5.211  15.193   5.947
 2838POPC   C1A38979   4.803  15.323   6.213
 2838POPC   D2A38980   4.883  15.051   6.538
 2838POPC   C3A38981   5.027  15.272   6.863
 2838POPC   C4A38982   4.789  15.306   7.243
 2838POPC   C1B38983   5.359  14.936   6.332
 2838POPC   C2B38984   5.182  14.648   6.675
 2838POPC   C3B38985   4.999  14.807   7.052
 2838POPC   C4B38986   5.251  15.117   7.295
 2839POPC   NC338987   7.300  39.703   5.278
 2839POPC   PO438988   7.383  40.356   5.315
 2839POPC   GL138989   7.310  40.133   5.786
 2839POPC   GL238990   7.120  39.801   5.759
 2839POPC   C1A38991   7.401  40.185   6.296
 2839POPC   D2A38992   7.784  40.169   6.576
 2839POPC   C3A38993   7.723  40.069   7.016
 2839POPC   C4A38994   7.327  40.158   7.237
 2839POPC   C1B38995   6.977  39.856   6.175
 2839POPC   C2B38996   7.082  39.923   6.595
 2839POPC   C3B38997   7.093  39.776   7.002
 2839POPC   C4B38998   6.927  39.735   7.383
 2840POPC   NC338999  38.992  30.098   5.402
 2840POPC   PO439000  39.287  30.724   5.466
 2840POPC   GL139001  39.134  30.748   5.855
 2840POPC   GL239002  39.014  30.410   5.814
 2840POPC   C1A39003  39.354  30.862   6.258
 2840POPC   D2A39004  39.564  30.638   6.631
 2840POPC   C3A39005  39.535  30.639   7.071
 2840POPC   C4A39006  39.293  30.841   7.394
 2840POPC   C1B39007  38.940  30.493   6.239
 2840POPC   C2B39008  39.041  30.692   6.618
 2840POPC   C3B39009  39.033  30.594   7.007
 2840POPC   C4B39010  38.809  30.337   7.259
 2841POPC   NC339011  13.610  29.588   5.627
 2841POPC   PO439012  13.632  30.223   5.382
 2841POPC   GL139013  13.674  30.053   5.802
 2841POPC   GL239014  13.998  29.878   5.843
 2841POPC   C1A39015  13.464  29.929   6.208
 2841POPC   D2A39016  13.498  29.843   6.653
 2841POPC   C3A39017  13.352  30.129   6.956
 2841POPC   C4A39018  13.578  30.228   7.280
 2841POPC   C1B39019  13.881  29.647   6.228
 2841POPC   C2B39020  13.986  29.635   6.668
 2841POPC   C3B39021  13.795  29.771   7.075
 2841POPC   C4B39022  13.776  29.747   7.541
 2842POPC   NC339023  42.776  25.210   5.628
 2842POPC   PO439024  42.157  25.204   5.260
 2842POPC   GL139025  42.154  25.273   5.756
 2842POPC   GL239026  42.440  25.496   5.865
 2842POPC   C1A39027  42.290  25.098   6.202
 2842POPC   D2A39028  42.634  25.187   6.501
 2842POPC   C3A39029  42.545  24.986   6.872
 2842POPC   C4A39030  42.122  24.782   6.981
 2842POPC   C1B39031  42.192  25.587   6.220
 2842POPC   C2B39032  42.298  25.598   6.634
 2842POPC   C3B39033  42.204  25.340   6.952
 2842POPC   C4B39034  42.312  25.133   7.304
 2843POPC   NC339035  41.023  42.421   5.383
 2843POPC   PO439036  40.766  41.812   5.294
 2843POPC   GL139037  40.754  42.077   5.702
 2843POPC   GL239038  40.534  42.388   5.688
 2843POPC   C1A39039  41.009  42.266   6.079
 2843POPC   D2A39040  41.169  42.392   6.520
 2843POPC   C3A39041  40.981  42.471   6.928
 2843POPC   C4A39042  40.690  42.262   7.213
 2843POPC   C1B39043  40.593  42.559   6.099
 2843POPC   C2B39044  40.657  42.396   6.522
 2843POPC   C3B39045  40.471  42.610   6.897
 2843POPC   C4B39046  40.509  42.779   7.321
 2844POPC   NC339047   7.859  27.817   5.002
 2844POPC   PO439048   8.409  27.825   5.467
 2844POPC   GL139049   8.209  27.591   5.836
 2844POPC   GL239050   8.075  27.261   5.706
 2844POPC   C1A39051   8.231  27.611   6.318
 2844POPC   D2A39052   8.051  27.781   6.745
 2844POPC   C3A39053   8.313  27.613   7.114
 2844POPC   C4A39054   8.173  27.739   7.532
 2844POPC   C1B39055   7.925  27.241   6.144
 2844POPC   C2B39056   7.988  27.299   6.641
 2844POPC   C3B39057   7.870  27.386   7.081
 2844POPC   C4B39058   8.003  27.262   7.528
 2845POPC   NC339059   7.585  38.349   5.372
 2845POPC   PO439060   7.065  38.063   5.673
 2845POPC   GL139061   7.161  38.480   5.820
 2845POPC   GL239062   7.400  38.735   5.665
 2845POPC   C1A39063   7.226  38.482   6.263
 2845POPC   D2A39064   7.516  38.393   6.584
 2845POPC   C3A39065   7.475  38.324   7.023
 2845POPC   C4A39066   7.774  38.351   7.321
 2845POPC   C1B39067   7.438  38.900   6.074
 2845POPC   C2B39068   7.328  38.915   6.511
 2845POPC   C3B39069   7.493  38.833   6.892
 2845POPC   C4B39070   7.457  38.788   7.307
 2846POPC   NC339071  10.283  28.426   5.506
 2846POPC   PO439072  10.844  28.163   5.403
 2846POPC   GL139073  10.809  28.448   5.764
 2846POPC   GL239074  10.512  28.394   5.960
 2846POPC   C1A39075  10.950  28.396   6.207
 2846POPC   D2A39076  11.156  28.405   6.601
 2846POPC   C3A39077  10.926  28.569   6.923
 2846POPC   C4A39078  10.573  28.542   7.163
 2846POPC   C1B39079  10.487  28.479   6.428
 2846POPC   C2B39080  10.257  28.736   6.733
 2846POPC   C3B39081  10.062  28.586   7.090
 2846POPC   C4B39082  10.224  28.171   7.254
 2847POPC   NC339083  17.994   4.300   5.214
 2847POPC   PO439084  17.482   4.579   5.565
 2847POPC   GL139085  17.605   4.236   5.814
 2847POPC   GL239086  17.280   4.063   5.885
 2847POPC   C1A39087  17.819   4.253   6.222
 2847POPC   D2A39088  17.654   4.305   6.599
 2847POPC   C3A39089  17.791   4.500   6.941
 2847POPC   C4A39090  17.757   4.203   7.239
 2847POPC   C1B39091  17.223   4.277   6.304
 2847POPC   C2B39092  17.196   4.414   6.768
 2847POPC   C3B39093  17.205   4.258   7.203
 2847POPC   C4B39094  17.138   4.372   7.650
 2848POPC   NC339095  35.836  11.277   5.150
 2848POPC   PO439096  36.322  11.721   5.192
 2848POPC   GL139097  36.200  11.546   5.647
 2848POPC   GL239098  36.329  11.220   5.735
 2848POPC   C1A39099  36.063  11.435   6.116
 2848POPC   D2A39100  35.962  11.579   6.540
 2848POPC   C3A39101  36.008  11.380   6.966
 2848POPC   C4A39102  36.314  11.323   7.312
 2848POPC   C1B39103  36.562  11.401   6.119
 2848POPC   C2B39104  36.473  11.379   6.580
 2848POPC   C3B39105  36.409  11.037   6.883
 2848POPC   C4B39106  36.341  10.822   7.271
 2849POPC   NC339107  39.601  37.789   5.506
 2849POPC   PO439108  40.270  37.577   5.419
 2849POPC   GL139109  40.053  37.640   5.793
 2849POPC   GL239110  40.069  38.001   5.886
 2849POPC   C1A39111  40.196  37.600   6.229
 2849POPC   D2A39112  40.215  37.741   6.655
 2849POPC   C3A39113  40.405  37.536   7.035
 2849POPC   C4A39114  40.270  37.595   7.469
 2849POPC   C1B39115  39.728  37.841   6.181
 2849POPC   C2B39116  39.697  37.741   6.640
 2849POPC   C3B39117  39.895  37.991   6.998
 2849POPC   C4B39118  39.731  38.303   7.328
 2850POPC   NC339119  20.186   5.209   5.623
 2850POPC   PO439120  20.793   5.273   5.554
 2850POPC   GL139121  20.567   5.328   5.964
 2850POPC   GL239122  20.233   5.495   6.054
 2850POPC   C1A39123  20.590   5.379   6.409
 2850POPC   D2A39124  20.309   5.399   6.763
 2850POPC   C3A39125  20.434   5.164   7.143
 2850POPC   C4A39126  20.587   5.353   7.546
 2850POPC   C1B39127  20.117   5.132   6.366
 2850POPC   C2B39128  20.059   4.960   6.821
 2850POPC   C3B39129  20.175   4.687   7.195
 2850POPC   C4B39130  20.090   4.410   7.573
 2851POPC   NC339131  26.100   9.170   5.362
 2851POPC   PO439132  25.865   8.586   5.441
 2851POPC   GL139133  26.083   8.803   5.766
 2851POPC   GL239134  26.056   9.139   5.878
 2851POPC   C1A39135  26.175   8.747   6.207
 2851POPC   D2A39136  25.934   8.772   6.601
 2851POPC   C3A39137  26.096   8.712   7.006
 2851POPC   C4A39138  25.785   8.821   7.334
 2851POPC   C1B39139  26.306   9.228   6.258
 2851POPC   C2B39140  26.302   9.088   6.721
 2851POPC   C3B39141  25.995   9.193   7.041
 2851POPC   C4B39142  25.931   9.292   7.457
 2852POPC   NC339143  10.002  22.819   5.382
 2852POPC   PO439144   9.653  23.415   5.452
 2852POPC   GL139145   9.821  23.097   5.802
 2852POPC   GL239146   9.448  23.090   5.879
 2852POPC   C1A39147   9.732  22.717   6.193
 2852POPC   D2A39148   9.521  22.551   6.561
 2852POPC   C3A39149   9.807  22.546   6.917
 2852POPC   C4A39150   9.759  22.732   7.318
 2852POPC   C1B39151   9.606  23.214   6.238
 2852POPC   C2B39152   9.734  23.025   6.596
 2852POPC   C3B39153   9.523  22.965   6.922
 2852POPC   C4B39154   9.520  23.186   7.274
 2853POPC   NC339155  42.875   0.803   5.083
 2853POPC   PO439156  43.283   1.350   5.388
 2853POPC   GL139157  43.131   1.348   5.831
 2853POPC   GL239158  42.784   1.235   5.962
 2853POPC   C1A39159  43.180   1.245   6.279
 2853POPC   D2A39160  42.985   1.371   6.671
 2853POPC   C3A39161  43.280   1.325   7.024
 2853POPC   C4A39162  43.254   0.908   7.241
 2853POPC   C1B39163  42.802   0.882   6.307
 2853POPC   C2B39164  42.909   0.841   6.776
 2853POPC   C3B39165  42.809   1.138   7.117
 2853POPC   C4B39166  42.924   1.130   7.560
 2854POPC   NC339167  19.834  18.018   5.533
 2854POPC   PO439168  19.776  17.396   5.578
 2854POPC   GL139169  19.731  17.656   5.976
 2854POPC   GL239170  19.663  18.023   6.020
 2854POPC   C1A39171  19.871  17.708   6.413
 2854POPC   D2A39172  20.264  17.806   6.643
 2854POPC   C3A39173  20.094  17.829   7.047
 2854POPC   C4A39174  19.839  17.506   7.228
 2854POPC   C1B39175  19.474  18.044   6.446
 2854POPC   C2B39176  19.606  17.888   6.871
 2854POPC   C3B39177  19.421  17.760   7.288
 2854POPC   C4B39178  19.651  17.739   7.701
 2855POPC   NC339179  31.661  33.389   5.397
 2855POPC   PO439180  31.424  34.031   5.259
 2855POPC   GL139181  31.485  33.935   5.726
 2855POPC   GL239182  31.634  33.660   5.807
 2855POPC   C1A39183  31.479  33.996   6.202
 2855POPC   D2A39184  31.741  34.135   6.559
 2855POPC   C3A39185  31.522  34.011   6.979
 2855POPC   C4A39186  31.137  34.172   7.179
 2855POPC   C1B39187  31.641  33.502   6.180
 2855POPC   C2B39188  31.644  33.650   6.592
 2855POPC   C3B39189  31.510  33.476   6.957
 2855POPC   C4B39190  31.666  33.615   7.317
 2856POPC   NC339191  37.914  20.061   5.307
 2856POPC   PO439192  37.782  19.419   5.293
 2856POPC   GL139193  37.796  19.685   5.668
 2856POPC   GL239194  37.553  19.980   5.694
 2856POPC   C1A39195  37.930  19.633   6.106
 2856POPC   D2A39196  38.048  19.583   6.550
 2856POPC   C3A39197  37.773  19.595   6.921
 2856POPC   C4A39198  37.758  19.787   7.326
 2856POPC   C1B39199  37.651  20.072   6.165
 2856POPC   C2B39200  37.550  19.990   6.639
 2856POPC   C3B39201  37.542  20.196   7.078
 2856POPC   C4B39202  37.544  20.201   7.577
 2857POPC   NC339203  33.063  40.236   5.175
 2857POPC   PO439204  32.736  39.743   5.286
 2857POPC   GL139205  32.917  39.926   5.682
 2857POPC   GL239206  32.940  40.304   5.712
 2857POPC   C1A39207  33.040  39.856   6.126
 2857POPC   D2A39208  33.130  40.091   6.515
 2857POPC   C3A39209  32.880  39.971   6.874
 2857POPC   C4A39210  33.041  39.692   7.184
 2857POPC   C1B39211  32.795  40.307   6.160
 2857POPC   C2B39212  32.863  40.527   6.582
 2857POPC   C3B39213  33.066  40.439   6.992
 2857POPC   C4B39214  32.842  40.297   7.342
 2858POPC   NC339215   5.018   1.052   5.382
 2858POPC   PO439216   5.724   1.031   5.451
 2858POPC   GL139217   5.474   1.028   5.839
 2858POPC   GL239218   5.123   1.156   5.882
 2858POPC   C1A39219   5.405   1.004   6.303
 2858POPC   D2A39220   5.064   1.071   6.613
 2858POPC   C3A39221   5.161   1.421   6.899
 2858POPC   C4A39222   5.148   1.188   7.240
 2858POPC   C1B39223   4.822   1.235   6.194
 2858POPC   C2B39224   4.746   1.473   6.608
 2858POPC   C3B39225   4.681   1.261   7.006
 2858POPC   C4B39226   4.722   1.498   7.379
 2859POPC   NC339227  12.025  40.955   5.195
 2859POPC   PO439228  12.618  41.189   5.430
 2859POPC   GL139229  12.342  40.847   5.664
 2859POPC   GL239230  11.976  40.840   5.674
 2859POPC   C1A39231  12.205  40.699   6.120
 2859POPC   D2A39232  12.227  40.931   6.552
 2859POPC   C3A39233  12.288  40.799   7.001
 2859POPC   C4A39234  12.477  41.058   7.331
 2859POPC   C1B39235  11.809  41.010   6.023
 2859POPC   C2B39236  11.771  40.760   6.412
 2859POPC   C3B39237  11.791  40.769   6.874
 2859POPC   C4B39238  11.689  40.517   7.249
 2860POPC   NC339239   2.757   9.990   5.075
 2860POPC   PO439240   2.457   9.583   5.528
 2860POPC   GL139241   2.609   9.711   5.942
 2860POPC   GL239242   2.950   9.822   5.854
 2860POPC   C1A39243   2.683  10.006   6.290
 2860POPC   D2A39244   2.774  10.135   6.725
 2860POPC   C3A39245   2.770   9.817   7.063
 2860POPC   C4A39246   2.704   9.809   7.513
 2860POPC   C1B39247   3.092   9.621   6.182
 2860POPC   C2B39248   3.150   9.792   6.562
 2860POPC   C3B39249   3.240   9.601   6.923
 2860POPC   C4B39250   3.383   9.721   7.313
 2861POPC   NC339251  42.728  31.109   5.425
 2861POPC   PO439252  42.053  31.333   5.212
 2861POPC   GL139253  42.307  31.352   5.639
 2861POPC   GL239254  42.307  31.002   5.741
 2861POPC   C1A39255  42.324  31.546   6.086
 2861POPC   D2A39256  42.068  31.460   6.481
 2861POPC   C3A39257  42.204  31.483   6.935
 2861POPC   C4A39258  42.500  31.763   7.156
 2861POPC   C1B39259  42.453  31.067   6.147
 2861POPC   C2B39260  42.589  31.320   6.465
 2861POPC   C3B39261  42.662  31.305   6.873
 2861POPC   C4B39262  42.462  31.109   7.244
 2862POPC   NC339263   4.045  44.616   5.317
 2862POPC   PO439264   4.661  44.667   5.583
 2862POPC   GL139265   4.245  44.646   5.818
 2862POPC   GL239266   3.979  44.912   5.760
 2862POPC   C1A39267   4.243  44.621   6.278
 2862POPC   D2A39268   4.535  44.758   6.604
 2862POPC   C3A39269   4.462  44.495   6.937
 2862POPC   C4A39270   4.085  44.454   7.117
 2862POPC   C1B39271   4.189   0.093   6.119
 2862POPC   C2B39272   4.128   0.130   6.557
 2862POPC   C3B39273   4.164  44.920   6.945
 2862POPC   C4B39274   4.527  44.893   7.242
 2863POPC   NC339275  12.574   3.414   5.512
 2863POPC   PO439276  12.847   3.998   5.356
 2863POPC   GL139277  12.664   3.846   5.764
 2863POPC   GL239278  12.975   3.668   5.821
 2863POPC   C1A39279  12.622   3.512   6.148
 2863POPC   D2A39280  12.828   3.449   6.542
 2863POPC   C3A39281  12.669   3.502   6.943
 2863POPC   C4A39282  12.634   3.668   7.362
 2863POPC   C1B39283  13.132   3.311   6.109
 2863POPC   C2B39284  13.198   3.110   6.522
 2863POPC   C3B39285  13.174   3.233   6.958
 2863POPC   C4B39286  13.105   3.536   7.244
 2864POPC   NC339287  31.476  17.928   5.427
 2864POPC   PO439288  31.108  17.346   5.359
 2864POPC   GL139289  31.379  17.385   5.748
 2864POPC   GL239290  31.606  17.108   5.847
 2864POPC   C1A39291  31.555  17.632   6.110
 2864POPC   D2A39292  31.712  17.622   6.564
 2864POPC   C3A39293  31.559  17.604   7.028
 2864POPC   C4A39294  31.433  17.411   7.460
 2864POPC   C1B39295  31.476  17.158   6.273
 2864POPC   C2B39296  31.362  17.221   6.712
 2864POPC   C3B39297  31.546  17.063   7.111
 2864POPC   C4B39298  31.586  16.939   7.591
 2865POPC   NC339299  42.522  19.000   5.357
 2865POPC   PO439300  42.058  19.402   5.382
 2865POPC   GL139301  42.140  19.046   5.729
 2865POPC   GL239302  42.514  18.993   5.869
 2865POPC   C1A39303  42.054  18.879   6.163
 2865POPC   D2A39304  41.911  18.737   6.597
 2865POPC   C3A39305  42.155  18.924   6.940
 2865POPC   C4A39306  42.278  19.288   7.181
 2865POPC   C1B39307  42.705  19.349   6.103
 2865POPC   C2B39308  42.840  19.363   6.529
 2865POPC   C3B39309  42.668  19.111   6.871
 2865POPC   C4B39310  42.672  18.988   7.290
 2866POPC   NC339311  41.660  32.601   5.538
 2866POPC   PO439312  41.666  31.930   5.491
 2866POPC   GL139313  41.604  32.205   5.879
 2866POPC   GL239314  41.951  32.366   5.921
 2866POPC   C1A39315  41.235  32.275   6.192
 2866POPC   D2A39316  40.985  32.230   6.609
 2866POPC   C3A39317  41.277  32.071   6.973
 2866POPC   C4A39318  41.485  31.988   7.385
 2866POPC   C1B39319  42.138  32.608   6.272
 2866POPC   C2B39320  42.016  32.679   6.707
 2866POPC   C3B39321  41.588  32.734   6.915
 2866POPC   C4B39322  41.496  32.546   7.303
 2867POPC   NC339323  23.304   6.305   5.024
 2867POPC   PO439324  22.838   6.712   5.236
 2867POPC   GL139325  22.885   6.840   5.736
 2867POPC   GL239326  23.160   7.081   5.801
 2867POPC   C1A39327  22.884   6.731   6.241
 2867POPC   D2A39328  22.812   6.568   6.699
 2867POPC   C3A39329  22.625   6.732   7.075
 2867POPC   C4A39330  22.809   6.671   7.475
 2867POPC   C1B39331  23.314   7.026   6.254
 2867POPC   C2B39332  23.282   6.831   6.686
 2867POPC   C3B39333  23.171   6.601   7.097
 2867POPC   C4B39334  23.284   6.483   7.550
 2868POPC   NC339335  37.224   3.599   5.538
 2868POPC   PO439336  36.660   3.175   5.535
 2868POPC   GL139337  36.948   3.304   5.876
 2868POPC   GL239338  37.272   3.179   5.810
 2868POPC   C1A39339  36.975   3.601   6.235
 2868POPC   D2A39340  36.715   3.707   6.608
 2868POPC   C3A39341  36.796   3.440   6.937
 2868POPC   C4A39342  36.855   3.434   7.354
 2868POPC   C1B39343  37.337   3.152   6.235
 2868POPC   C2B39344  37.183   3.270   6.626
 2868POPC   C3B39345  37.207   3.109   7.040
 2868POPC   C4B39346  37.340   3.198   7.468
 2869POPC   NC339347  36.907  14.698   5.377
 2869POPC   PO439348  36.636  15.385   5.354
 2869POPC   GL139349  36.908  15.174   5.634
 2869POPC   GL239350  36.606  15.034   5.741
 2869POPC   C1A39351  37.000  15.055   6.065
 2869POPC   D2A39352  36.881  15.119   6.503
 2869POPC   C3A39353  36.926  15.444   6.822
 2869POPC   C4A39354  37.030  15.294   7.220
 2869POPC   C1B39355  36.516  14.909   6.184
 2869POPC   C2B39356  36.396  15.019   6.635
 2869POPC   C3B39357  36.543  14.791   7.036
 2869POPC   C4B39358  36.435  14.780   7.492
 2870POPC   NC339359  34.210  15.454   5.273
 2870POPC   PO439360  34.183  14.759   5.272
 2870POPC   GL139361  34.483  15.025   5.587
 2870POPC   GL239362  34.355  15.336   5.752
 2870POPC   C1A39363  34.485  14.968   6.076
 2870POPC   D2A39364  34.361  14.825   6.499
 2870POPC   C3A39365  34.659  14.948   6.850
 2870POPC   C4A39366  34.649  14.906   7.278
 2870POPC   C1B39367  34.510  15.496   6.148
 2870POPC   C2B39368  34.475  15.343   6.572
 2870POPC   C3B39369  34.547  15.504   6.995
 2870POPC   C4B39370  34.852  15.370   7.289
 2871POPC   NC339371  20.716  32.729   5.501
 2871POPC   PO439372  20.511  33.400   5.603
 2871POPC   GL139373  20.594  33.089   5.865
 2871POPC   GL239374  20.271  32.965   5.799
 2871POPC   C1A39375  20.745  33.117   6.286
 2871POPC   D2A39376  20.737  32.964   6.720
 2871POPC   C3A39377  20.529  33.198   7.068
 2871POPC   C4A39378  20.444  33.000   7.465
 2871POPC   C1B39379  20.346  32.771   6.189
 2871POPC   C2B39380  20.277  32.709   6.598
 2871POPC   C3B39381  20.285  32.771   7.004
 2871POPC   C4B39382  20.102  32.639   7.350
 2872POPC   NC339383  39.271  15.125   5.032
 2872POPC   PO439384  38.901  15.325   5.484
 2872POPC   GL139385  38.998  15.081   5.832
 2872POPC   GL239386  38.980  14.724   5.778
 2872POPC   C1A39387  39.153  15.260   6.206
 2872POPC   D2A39388  39.037  15.521   6.552
 2872POPC   C3A39389  39.214  15.407   6.958
 2872POPC   C4A39390  39.315  15.371   7.408
 2872POPC   C1B39391  39.180  14.734   6.217
 2872POPC   C2B39392  39.181  14.575   6.670
 2872POPC   C3B39393  39.268  14.878   7.022
 2872POPC   C4B39394  38.945  15.037   7.224
 2873POPC   NC339395   0.715  24.439   5.039
 2873POPC   PO439396   1.273  24.500   5.449
 2873POPC   GL139397   1.259  24.300   5.829
 2873POPC   GL239398   0.910  24.254   5.786
 2873POPC   C1A39399   1.329  24.423   6.288
 2873POPC   D2A39400   1.373  24.613   6.714
 2873POPC   C3A39401   1.137  24.467   7.088
 2873POPC   C4A39402   1.228  24.585   7.540
 2873POPC   C1B39403   0.891  24.598   6.084
 2873POPC   C2B39404   0.881  24.637   6.534
 2873POPC   C3B39405   0.704  24.754   6.944
 2873POPC   C4B39406   0.747  24.616   7.381
 2874POPC   NC339407  17.778  33.265   5.010
 2874POPC   PO439408  17.340  32.868   5.210
 2874POPC   GL139409  17.529  32.806   5.641
 2874POPC   GL239410  17.250  32.875   5.790
 2874POPC   C1A39411  17.677  32.986   6.075
 2874POPC   D2A39412  17.665  33.219   6.478
 2874POPC   C3A39413  17.814  33.066   6.888
 2874POPC   C4A39414  17.580  32.988   7.251
 2874POPC   C1B39415  17.169  32.911   6.186
 2874POPC   C2B39416  17.171  32.792   6.554
 2874POPC   C3B39417  17.142  32.928   6.923
 2874POPC   C4B39418  17.100  32.773   7.322
 2875POPC   NC339419  42.663  21.531   5.320
 2875POPC   PO439420  42.036  21.332   5.505
 2875POPC   GL139421  42.263  21.506   5.776
 2875POPC   GL239422  42.554  21.316   5.797
 2875POPC   C1A39423  42.347  21.685   6.161
 2875POPC   D2A39424  42.148  21.607   6.544
 2875POPC   C3A39425  42.451  21.587   6.868
 2875POPC   C4A39426  42.290  21.610   7.258
 2875POPC   C1B39427  42.431  21.168   6.229
 2875POPC   C2B39428  42.526  21.084   6.688
 2875POPC   C3B39429  42.435  21.132   7.130
 2875POPC   C4B39430  42.432  21.237   7.592
 2876POPC   NC339431  11.236   1.661   5.630
 2876POPC   PO439432  10.753   1.263   5.323
 2876POPC   GL139433  10.456   1.332   5.627
 2876POPC   GL239434  10.414   1.007   5.694
 2876POPC   C1A39435  10.461   1.370   6.080
 2876POPC   D2A39436  10.521   1.276   6.522
 2876POPC   C3A39437  10.708   1.592   6.805
 2876POPC   C4A39438  10.667   1.595   7.247
 2876POPC   C1B39439  10.224   0.901   6.101
 2876POPC   C2B39440  10.337   0.690   6.455
 2876POPC   C3B39441  10.297   0.842   6.863
 2876POPC   C4B39442  10.074   0.912   7.253
 2877POPC   NC339443  19.380  41.632   5.560
 2877POPC   PO439444  18.748  41.760   5.347
 2877POPC   GL139445  18.886  41.470   5.685
 2877POPC   GL239446  19.097  41.165   5.702
 2877POPC   C1A39447  19.029  41.476   6.118
 2877POPC   D2A39448  18.917  41.668   6.490
 2877POPC   C3A39449  19.012  41.592   6.911
 2877POPC   C4A39450  19.200  41.630   7.323
 2877POPC   C1B39451  19.276  41.044   6.133
 2877POPC   C2B39452  19.284  41.256   6.564
 2877POPC   C3B39453  19.350  41.226   7.007
 2877POPC   C4B39454  19.529  41.290   7.431
 2878POPC   NC339455   8.453  33.467   5.303
 2878POPC   PO439456   7.985  33.734   5.637
 2878POPC   GL139457   8.104  33.831   5.989
 2878POPC   GL239458   8.384  33.995   5.838
 2878POPC   C1A39459   8.092  33.751   6.428
 2878POPC   D2A39460   8.143  33.515   6.791
 2878POPC   C3A39461   8.286  33.743   7.118
 2878POPC   C4A39462   8.240  33.977   7.520
 2878POPC   C1B39463   8.553  33.870   6.231
 2878POPC   C2B39464   8.612  33.699   6.640
 2878POPC   C3B39465   8.760  33.593   7.036
 2878POPC   C4B39466   8.686  33.693   7.479
 2879POPC   NC339467  32.905  34.652   5.420
 2879POPC   PO439468  32.692  34.112   5.604
 2879POPC   GL139469  32.998  34.346   5.836
 2879POPC   GL239470  33.186  34.696   5.822
 2879POPC   C1A39471  32.786  34.470   6.211
 2879POPC   D2A39472  32.603  34.255   6.587
 2879POPC   C3A39473  32.684  34.439   6.979
 2879POPC   C4A39474  32.783  34.608   7.375
 2879POPC   C1B39475  33.313  34.511   6.219
 2879POPC   C2B39476  33.092  34.451   6.619
 2879POPC   C3B39477  33.183  34.569   7.012
 2879POPC   C4B39478  33.365  34.713   7.369
 2880POPC   NC339479  13.132  21.984   5.650
 2880POPC   PO439480  12.514  21.880   5.562
 2880POPC   GL139481  12.607  22.109   5.929
 2880POPC   GL239482  12.907  22.083   6.086
 2880POPC   C1A39483  12.407  22.222   6.323
 2880POPC   D2A39484  12.469  22.565   6.637
 2880POPC   C3A39485  12.770  22.470   6.919
 2880POPC   C4A39486  12.639  22.331   7.263
 2880POPC   C1B39487  12.903  22.317   6.429
 2880POPC   C2B39488  13.156  22.172   6.759
 2880POPC   C3B39489  13.303  21.996   7.108
 2880POPC   C4B39490  12.999  21.938   7.369
 2881POPC   NC339491  33.731  30.360   5.431
 2881POPC   PO439492  34.259  29.905   5.432
 2881POPC   GL139493  34.030  30.060   5.817
 2881POPC   GL239494  33.722  29.844   5.911
 2881POPC   C1A39495  34.030  30.028   6.294
 2881POPC   D2A39496  34.067  29.714   6.642
 2881POPC   C3A39497  33.946  29.915   7.037
 2881POPC   C4A39498  33.904  30.338   7.129
 2881POPC   C1B39499  33.347  29.833   6.220
 2881POPC   C2B39500  33.301  29.796   6.681
 2881POPC   C3B39501  33.451  30.117   7.013
 2881POPC   C4B39502  33.550  30.183   7.465
 2882POPC   NC339503  38.643  21.979   5.242
 2882POPC   PO439504  38.094  22.143   5.227
 2882POPC   GL139505  38.272  22.013   5.654
 2882POPC   GL239506  37.984  22.178   5.809
 2882POPC   C1A39507  38.518  22.022   6.102
 2882POPC   D2A39508  38.757  22.138   6.541
 2882POPC   C3A39509  38.610  22.003   6.985
 2882POPC   C4A39510  38.599  21.672   7.317
 2882POPC   C1B39511  38.096  22.290   6.249
 2882POPC   C2B39512  38.234  22.261   6.697
 2882POPC   C3B39513  38.212  22.298   7.157
 2882POPC   C4B39514  38.304  22.034   7.500
 2883POPC   NC339515  31.300   6.252   5.412
 2883POPC   PO439516  31.502   5.703   5.313
 2883POPC   GL139517  31.333   5.587   5.762
 2883POPC   GL239518  31.127   5.876   5.769
 2883POPC   C1A39519  31.338   5.640   6.274
 2883POPC   D2A39520  31.234   5.677   6.754
 2883POPC   C3A39521  31.466   5.826   7.126
 2883POPC   C4A39522  31.516   6.034   7.537
 2883POPC   C1B39523  31.100   6.082   6.172
 2883POPC   C2B39524  30.960   6.196   6.611
 2883POPC   C3B39525  30.982   6.058   7.058
 2883POPC   C4B39526  31.037   6.246   7.475
 2884POPC   NC339527  40.343  24.660   5.502
 2884POPC   PO439528  40.007  24.109   5.321
 2884POPC   GL139529  39.937  24.391   5.695
 2884POPC   GL239530  40.245  24.244   5.801
 2884POPC   C1A39531  39.856  24.553   6.147
 2884POPC   D2A39532  39.685  24.492   6.603
 2884POPC   C3A39533  39.819  24.737   6.966
 2884POPC   C4A39534  39.973  24.626   7.367
 2884POPC   C1B39535  40.314  24.292   6.206
 2884POPC   C2B39536  40.116  24.250   6.558
 2884POPC   C3B39537  40.155  24.354   6.974
 2884POPC   C4B39538  40.259  24.116   7.329
 2885POPC   NC339539   7.233  20.071   5.656
 2885POPC   PO439540   7.696  19.643   5.337
 2885POPC   GL139541   7.784  19.794   5.751
 2885POPC   GL239542   7.783  20.158   5.755
 2885POPC   C1A39543   7.594  19.746   6.149
 2885POPC   D2A39544   7.467  19.510   6.476
 2885POPC   C3A39545   7.546  19.800   6.799
 2885POPC   C4A39546   7.331  19.834   7.183
 2885POPC   C1B39547   7.654  20.249   6.213
 2885POPC   C2B39548   7.701  20.344   6.645
 2885POPC   C3B39549   7.655  20.232   7.082
 2885POPC   C4B39550   7.583  20.160   7.507
 2886POPC   NC339551  11.329  14.171   5.403
 2886POPC   PO439552  10.854  14.697   5.466
 2886POPC   GL139553  11.118  14.589   5.776
 2886POPC   GL239554  11.026  14.263   5.825
 2886POPC   C1A39555  11.362  14.533   6.156
 2886POPC   D2A39556  11.549  14.395   6.530
 2886POPC   C3A39557  11.367  14.465   6.899
 2886POPC   C4A39558  11.495  14.460   7.331
 2886POPC   C1B39559  11.082  14.086   6.230
 2886POPC   C2B39560  11.052  13.970   6.672
 2886POPC   C3B39561  11.187  14.047   7.101
 2886POPC   C4B39562  11.134  14.139   7.531
 2887POPC   NC339563  25.833  11.712   5.392
 2887POPC   PO439564  26.166  11.068   5.494
 2887POPC   GL139565  25.970  11.080   5.889
 2887POPC   GL239566  25.612  11.134   5.850
 2887POPC   C1A39567  26.153  11.229   6.285
 2887POPC   D2A39568  26.127  11.353   6.711
 2887POPC   C3A39569  26.352  11.068   6.945
 2887POPC   C4A39570  26.060  11.046   7.248
 2887POPC   C1B39571  25.708  11.470   6.194
 2887POPC   C2B39572  25.651  11.554   6.650
 2887POPC   C3B39573  25.710  11.393   7.084
 2887POPC   C4B39574  25.492  11.554   7.450
 2888POPC   NC339575   2.569  15.529   5.500
 2888POPC   PO439576   2.829  16.211   5.471
 2888POPC   GL139577   2.945  16.069   5.870
 2888POPC   GL239578   2.833  15.755   5.868
 2888POPC   C1A39579   2.740  16.014   6.288
 2888POPC   D2A39580   2.684  15.809   6.653
 2888POPC   C3A39581   2.740  16.100   6.952
 2888POPC   C4A39582   3.061  16.202   7.216
 2888POPC   C1B39583   2.892  15.497   6.206
 2888POPC   C2B39584   3.023  15.408   6.618
 2888POPC   C3B39585   2.826  15.463   7.005
 2888POPC   C4B39586   2.971  15.667   7.389
 2889POPC   NC339587  15.840  39.566   5.477
 2889POPC   PO439588  15.994  38.996   5.684
 2889POPC   GL139589  15.969  39.358   5.957
 2889POPC   GL239590  16.169  39.663   5.867
 2889POPC   C1A39591  15.819  39.330   6.388
 2889POPC   D2A39592  15.655  39.397   6.811
 2889POPC   C3A39593  15.898  39.228   7.143
 2889POPC   C4A39594  15.836  39.182   7.577
 2889POPC   C1B39595  16.273  39.562   6.327
 2889POPC   C2B39596  16.219  39.379   6.745
 2889POPC   C3B39597  16.385  39.384   7.185
 2889POPC   C4B39598  16.559  39.532   7.594
 2890POPC   NC339599   5.830  10.314   5.202
 2890POPC   PO439600   5.905   9.728   5.430
 2890POPC   GL139601   5.963   9.794   5.857
 2890POPC   GL239602   6.125  10.098   5.905
 2890POPC   C1A39603   5.821   9.601   6.228
 2890POPC   D2A39604   5.591   9.617   6.612
 2890POPC   C3A39605   5.853   9.557   6.986
 2890POPC   C4A39606   5.700   9.749   7.376
 2890POPC   C1B39607   6.198   9.939   6.301
 2890POPC   C2B39608   6.185   9.907   6.754
 2890POPC   C3B39609   6.058  10.053   7.147
 2890POPC   C4B39610   6.026  10.094   7.589
 2891POPC   NC339611  39.467  22.439   5.327
 2891POPC   PO439612  39.178  23.131   5.329
 2891POPC   GL139613  39.303  22.999   5.722
 2891POPC   GL239614  39.252  22.654   5.756
 2891POPC   C1A39615  39.409  23.036   6.150
 2891POPC   D2A39616  39.482  22.890   6.592
 2891POPC   C3A39617  39.409  23.132   6.977
 2891POPC   C4A39618  39.045  23.219   7.256
 2891POPC   C1B39619  39.067  22.621   6.188
 2891POPC   C2B39620  39.032  22.656   6.640
 2891POPC   C3B39621  39.093  22.724   7.083
 2891POPC   C4B39622  39.038  22.749   7.536
 2892POPC   NC339623  16.297  21.196   5.372
 2892POPC   PO439624  15.657  21.046   5.307
 2892POPC   GL139625  15.843  21.208   5.698
 2892POPC   GL239626  16.068  21.492   5.766
 2892POPC   C1A39627  15.923  21.200   6.156
 2892POPC   D2A39628  15.964  21.455   6.531
 2892POPC   C3A39629  15.906  21.290   6.934
 2892POPC   C4A39630  15.678  21.528   7.193
 2892POPC   C1B39631  16.350  21.523   6.209
 2892POPC   C2B39632  16.450  21.592   6.669
 2892POPC   C3B39633  16.361  21.478   7.108
 2892POPC   C4B39634  16.109  21.273   7.439
 2893POPC   NC339635  32.998   3.107   5.337
 2893POPC   PO439636  33.163   3.709   5.299
 2893POPC   GL139637  33.093   3.751   5.735
 2893POPC   GL239638  32.979   3.436   5.809
 2893POPC   C1A39639  32.988   3.771   6.209
 2893POPC   D2A39640  32.689   3.666   6.565
 2893POPC   C3A39641  32.945   3.762   6.938
 2893POPC   C4A39642  33.195   3.767   7.321
 2893POPC   C1B39643  32.912   3.242   6.240
 2893POPC   C2B39644  32.750   3.167   6.649
 2893POPC   C3B39645  32.827   3.281   7.082
 2893POPC   C4B39646  33.236   3.237   7.283
 2894POPC   NC339647   7.770   5.700   5.396
 2894POPC   PO439648   8.376   5.544   5.193
 2894POPC   GL139649   8.191   5.676   5.674
 2894POPC   GL239650   7.904   5.944   5.826
 2894POPC   C1A39651   8.153   5.546   6.139
 2894POPC   D2A39652   8.500   5.490   6.459
 2894POPC   C3A39653   8.465   5.581   6.907
 2894POPC   C4A39654   8.260   5.470   7.275
 2894POPC   C1B39655   7.677   6.167   6.213
 2894POPC   C2B39656   7.632   6.001   6.670
 2894POPC   C3B39657   7.961   5.774   6.945
 2894POPC   C4B39658   8.231   5.980   7.266
 2895POPC   NC339659  44.380  38.839   5.568
 2895POPC   PO439660  44.730  38.258   5.520
 2895POPC   GL139661  44.816  38.343   5.943
 2895POPC   GL239662   0.022  38.672   5.937
 2895POPC   C1A39663  44.929  38.067   6.292
 2895POPC   D2A39664   0.008  38.157   6.726
 2895POPC   C3A39665  44.674  38.026   6.993
 2895POPC   C4A39666  44.770  38.078   7.405
 2895POPC   C1B39667   0.007  38.558   6.384
 2895POPC   C2B39668  44.602  38.460   6.661
 2895POPC   C3B39669  44.688  38.537   7.103
 2895POPC   C4B39670   0.090  38.729   7.124
 2896POPC   NC339671  23.345  34.534   5.267
 2896POPC   PO439672  22.751  34.304   5.053
 2896POPC   GL139673  22.945  34.587   5.586
 2896POPC   GL239674  22.707  34.724   5.869
 2896POPC   C1A39675  23.161  34.631   6.050
 2896POPC   D2A39676  23.289  34.426   6.459
 2896POPC   C3A39677  23.196  34.547   6.890
 2896POPC   C4A39678  22.964  34.650   7.241
 2896POPC   C1B39679  22.740  34.624   6.345
 2896POPC   C2B39680  22.698  34.723   6.801
 2896POPC   C3B39681  22.463  34.542   7.161
 2896POPC   C4B39682  22.545  34.108   7.241
 2897POPC   NC339683   3.424  42.844   5.381
 2897POPC   PO439684   3.879  43.372   5.300
 2897POPC   GL139685   3.641  43.224   5.659
 2897POPC   GL239686   3.258  43.252   5.664
 2897POPC   C1A39687   3.732  43.292   6.107
 2897POPC   D2A39688   3.953  43.316   6.510
 2897POPC   C3A39689   3.738  43.184   6.907
 2897POPC   C4A39690   3.521  43.414   7.265
 2897POPC   C1B39691   3.280  43.012   6.045
 2897POPC   C2B39692   3.435  43.042   6.469
 2897POPC   C3B39693   3.232  43.237   6.812
 2897POPC   C4B39694   3.202  43.020   7.165
 2898POPC   NC339695   1.518  29.348   5.476
 2898POPC   PO439696   1.267  28.739   5.478
 2898POPC   GL139697   1.212  29.060   5.807
 2898POPC   GL239698   1.509  29.061   6.007
 2898POPC   C1A39699   1.150  29.423   6.123
 2898POPC   D2A39700   1.057  29.639   6.557
 2898POPC   C3A39701   1.192  29.380   6.927
 2898POPC   C4A39702   1.440  29.031   7.095
 2898POPC   C1B39703   1.127  28.907   6.286
 2898POPC   C2B39704   1.119  28.649   6.686
 2898POPC   C3B39705   1.095  28.656   7.155
 2898POPC   C4B39706   1.088  28.769   7.607
 2899POPC   NC339707  13.522   3.111   5.411
 2899POPC   PO439708  13.216   2.484   5.399
 2899POPC   GL139709  13.470   2.524   5.757
 2899POPC   GL239710  13.628   2.842   5.818
 2899POPC   C1A39711  13.615   2.514   6.187
 2899POPC   D2A39712  13.472   2.696   6.532
 2899POPC   C3A39713  13.623   2.618   6.896
 2899POPC   C4A39714  13.588   2.505   7.288
 2899POPC   C1B39715  13.755   3.003   6.204
 2899POPC   C2B39716  13.941   2.882   6.599
 2899POPC   C3B39717  13.697   3.129   6.880
 2899POPC   C4B39718  13.566   3.010   7.258
 2900POPC   NC339719   3.926   5.082   5.381
 2900POPC   PO439720   3.293   4.826   5.658
 2900POPC   GL139721   3.485   5.043   6.004
 2900POPC   GL239722   3.847   5.089   5.898
 2900POPC   C1A39723   3.418   5.280   6.414
 2900POPC   D2A39724   3.514   5.515   6.792
 2900POPC   C3A39725   3.522   5.268   7.104
 2900POPC   C4A39726   3.397   4.835   7.061
 2900POPC   C1B39727   3.900   5.041   6.364
 2900POPC   C2B39728   3.866   4.885   6.803
 2900POPC   C3B39729   3.859   4.926   7.254
 2900POPC   C4B39730   3.961   5.201   7.612
 2901POPC   NC339731  16.016  25.687   5.396
 2901POPC   PO439732  15.866  24.992   5.418
 2901POPC   GL139733  15.964  25.285   5.770
 2901POPC   GL239734  16.214  25.528   5.832
 2901POPC   C1A39735  15.883  25.407   6.208
 2901POPC   D2A39736  16.105  25.550   6.521
 2901POPC   C3A39737  15.978  25.325   6.902
 2901POPC   C4A39738  15.791  25.230   7.314
 2901POPC   C1B39739  16.317  25.167   6.121
 2901POPC   C2B39740  16.205  25.056   6.511
 2901POPC   C3B39741  16.384  25.034   6.913
 2901POPC   C4B39742  16.255  25.030   7.328
 2902POPC   NC339743  31.239  32.765   5.257
 2902POPC   PO439744  31.870  32.974   5.410
 2902POPC   GL139745  31.522  32.990   5.719
 2902POPC   GL239746  31.156  32.888   5.748
 2902POPC   C1A39747  31.620  32.978   6.147
 2902POPC   D2A39748  31.571  33.160   6.535
 2902POPC   C3A39749  31.582  32.968   6.903
 2902POPC   C4A39750  31.589  32.762   7.267
 2902POPC   C1B39751  31.152  33.137   6.156
 2902POPC   C2B39752  31.080  33.127   6.599
 2902POPC   C3B39753  31.007  33.287   6.991
 2902POPC   C4B39754  31.251  33.177   7.357
 2903POPC   NC339755  43.481  28.914   5.511
 2903POPC   PO439756  43.001  28.437   5.239
 2903POPC   GL139757  43.020  28.540   5.677
 2903POPC   GL239758  43.309  28.598   5.894
 2903POPC   C1A39759  42.878  28.455   6.125
 2903POPC   D2A39760  42.835  28.434   6.591
 2903POPC   C3A39761  43.195  28.396   6.847
 2903POPC   C4A39762  43.370  28.156   7.182
 2903POPC   C1B39763  43.288  28.624   6.369
 2903POPC   C2B39764  43.415  28.846   6.777
 2903POPC   C3B39765  43.448  28.674   7.224
 2903POPC   C4B39766  43.443  28.496   7.681
 2904POPC   NC339767  33.268  15.441   4.968
 2904POPC   PO439768  32.959  14.851   5.156
 2904POPC   GL139769  33.012  14.931   5.671
 2904POPC   GL239770  32.983  14.636   5.912
 2904POPC   C1A39771  33.158  15.077   6.131
 2904POPC   D2A39772  33.127  15.412   6.505
 2904POPC   C3A39773  33.118  15.342   6.982
 2904POPC   C4A39774  33.185  15.398   7.436
 2904POPC   C1B39775  32.735  14.799   6.284
 2904POPC   C2B39776  32.784  14.989   6.732
 2904POPC   C3B39777  32.720  15.022   7.216
 2904POPC   C4B39778  32.651  14.787   7.686
 2905POPC   NC339779   9.866  32.251   5.490
 2905POPC   PO439780   9.257  32.558   5.375
 2905POPC   GL139781   9.567  32.602   5.730
 2905POPC   GL239782   9.933  32.719   5.728
 2905POPC   C1A39783   9.586  32.484   6.168
 2905POPC   D2A39784   9.401  32.535   6.581
 2905POPC   C3A39785   9.664  32.308   6.874
 2905POPC   C4A39786   9.695  32.018   7.201
 2905POPC   C1B39787  10.110  32.450   6.068
 2905POPC   C2B39788  10.015  32.320   6.491
 2905POPC   C3B39789  10.149  32.485   6.892
 2905POPC   C4B39790  10.021  32.404   7.317
 2906POPC   NC339791  27.449  28.461   5.387
 2906POPC   PO439792  28.023  28.719   5.482
 2906POPC   GL139793  27.838  28.479   5.796
 2906POPC   GL239794  27.561  28.245   5.854
 2906POPC   C1A39795  27.688  28.723   6.154
 2906POPC   D2A39796  27.484  28.757   6.565
 2906POPC   C3A39797  27.645  28.596   6.947
 2906POPC   C4A39798  27.473  28.510   7.346
 2906POPC   C1B39799  27.747  28.224   6.266
 2906POPC   C2B39800  27.751  28.113   6.737
 2906POPC   C3B39801  27.439  28.041   7.115
 2906POPC   C4B39802  27.165  27.968   7.496
 2907POPC   NC339803  10.578  36.787   5.433
 2907POPC   PO439804  10.936  37.374   5.430
 2907POPC   GL139805  10.677  37.204   5.762
 2907POPC   GL239806  10.330  37.068   5.803
 2907POPC   C1A39807  10.589  37.317   6.190
 2907POPC   D2A39808  10.313  37.239   6.500
 2907POPC   C3A39809  10.529  37.119   6.849
 2907POPC   C4A39810  10.447  37.118   7.248
 2907POPC   C1B39811  10.453  36.822   6.198
 2907POPC   C2B39812  10.654  36.656   6.591
 2907POPC   C3B39813  10.545  36.578   7.033
 2907POPC   C4B39814  10.416  36.662   7.446
 2908POPC   NC339815   3.478  39.526   5.078
 2908POPC   PO439816   3.846  39.964   5.489
 2908POPC   GL139817   3.732  40.161   5.849
 2908POPC   GL239818   3.406  39.991   5.880
 2908POPC   C1A39819   3.658  40.190   6.293
 2908POPC   D2A39820   3.729  39.983   6.691
 2908POPC   C3A39821   3.617  40.241   7.027
 2908POPC   C4A39822   3.239  40.410   7.137
 2908POPC   C1B39823   3.471  39.736   6.284
 2908POPC   C2B39824   3.274  39.746   6.705
 2908POPC   C3B39825   3.380  39.793   7.161
 2908POPC   C4B39826   3.481  39.661   7.603
 2909POPC   NC339827   1.560  35.534   5.538
 2909POPC   PO439828   1.013  35.278   5.384
 2909POPC   GL139829   1.150  35.406   5.814
 2909POPC   GL239830   1.373  35.139   5.909
 2909POPC   C1A39831   1.356  35.556   6.226
 2909POPC   D2A39832   1.228  35.458   6.656
 2909POPC   C3A39833   1.254  35.719   7.032
 2909POPC   C4A39834   1.345  35.603   7.456
 2909POPC   C1B39835   1.065  35.102   6.280
 2909POPC   C2B39836   0.791  34.884   6.665
 2909POPC   C3B39837   0.983  34.916   7.085
 2909POPC   C4B39838   1.329  35.200   7.120
 2910POPC   NC339839  22.916  40.683   5.437
 2910POPC   PO439840  22.469  41.188   5.533
 2910POPC   GL139841  22.783  41.022   5.866
 2910POPC   GL239842  22.848  40.665   5.977
 2910POPC   C1A39843  22.812  41.036   6.332
 2910POPC   D2A39844  22.939  40.967   6.763
 2910POPC   C3A39845  22.820  40.579   7.027
 2910POPC   C4A39846  22.797  40.243   7.349
 2910POPC   C1B39847  23.005  40.562   6.446
 2910POPC   C2B39848  23.297  40.624   6.852
 2910POPC   C3B39849  23.191  40.947   7.196
 2910POPC   C4B39850  23.028  41.182   7.573
 2911POPC   NC339851   1.507  24.920   5.413
 2911POPC   PO439852   0.808  25.202   5.366
 2911POPC   GL139853   1.011  25.473   5.721
 2911POPC   GL239854   1.368  25.572   5.697
 2911POPC   C1A39855   1.041  25.403   6.193
 2911POPC   D2A39856   1.295  25.542   6.563
 2911POPC   C3A39857   1.096  25.434   6.974
 2911POPC   C4A39858   1.055  25.032   7.222
 2911POPC   C1B39859   1.516  25.364   6.052
 2911POPC   C2B39860   1.465  25.058   6.411
 2911POPC   C3B39861   1.470  25.115   6.874
 2911POPC   C4B39862   1.580  25.507   7.157
 2912POPC   NC339863   6.166  30.256   5.639
 2912POPC   PO439864   6.659  30.577   5.352
 2912POPC   GL139865   6.838  30.739   5.763
 2912POPC   GL239866   6.930  30.459   5.942
 2912POPC   C1A39867   6.927  30.903   6.187
 2912POPC   D2A39868   6.834  30.561   6.501
 2912POPC   C3A39869   6.921  30.579   6.937
 2912POPC   C4A39870   7.075  30.575   7.345
 2912POPC   C1B39871   6.495  30.646   6.109
 2912POPC   C2B39872   6.322  30.546   6.520
 2912POPC   C3B39873   6.451  30.358   6.915
 2912POPC   C4B39874   6.488  30.577   7.284
 2913POPC   NC339875  15.323  13.400   4.859
 2913POPC   PO439876  15.042  13.354   5.537
 2913POPC   GL139877  15.062  13.581   5.893
 2913POPC   GL239878  14.753  13.721   5.965
 2913POPC   C1A39879  15.292  13.617   6.286
 2913POPC   D2A39880  15.156  13.786   6.698
 2913POPC   C3A39881  15.246  13.514   7.069
 2913POPC   C4A39882  15.485  13.641   7.422
 2913POPC   C1B39883  14.815  13.475   6.355
 2913POPC   C2B39884  14.817  13.427   6.787
 2913POPC   C3B39885  14.807  13.784   7.097
 2913POPC   C4B39886  15.109  14.022   7.334
 2914POPC   NC339887  33.051  43.590   5.544
 2914POPC   PO439888  32.994  44.263   5.521
 2914POPC   GL139889  32.758  43.988   5.843
 2914POPC   GL239890  32.825  43.611   5.986
 2914POPC   C1A39891  32.857  44.009   6.294
 2914POPC   D2A39892  33.042  43.765   6.618
 2914POPC   C3A39893  32.848  43.726   7.039
 2914POPC   C4A39894  32.800  43.676   7.502
 2914POPC   C1B39895  33.249  43.530   6.179
 2914POPC   C2B39896  33.492  43.479   6.562
 2914POPC   C3B39897  33.376  43.617   6.961
 2914POPC   C4B39898  33.247  43.880   7.312
 2915POPC   NC339899   5.324  19.052   5.174
 2915POPC   PO439900   5.329  19.500   5.710
 2915POPC   GL139901   5.131  19.225   5.968
 2915POPC   GL239902   5.300  18.906   6.029
 2915POPC   C1A39903   5.200  19.271   6.385
 2915POPC   D2A39904   5.432  19.467   6.665
 2915POPC   C3A39905   5.211  19.356   6.973
 2915POPC   C4A39906   5.279  19.219   7.330
 2915POPC   C1B39907   4.848  18.788   6.067
 2915POPC   C2B39908   4.605  18.668   6.436
 2915POPC   C3B39909   4.623  18.860   6.865
 2915POPC   C4B39910   4.881  18.879   7.255
 2916POPC   NC339911  44.085  32.389   5.310
 2916POPC   PO439912  44.731  32.180   5.428
 2916POPC   GL139913  44.788  32.255   5.861
 2916POPC   GL239914  44.433  32.210   5.877
 2916POPC   C1A39915  44.666  32.207   6.326
 2916POPC   D2A39916  44.761  32.412   6.718
 2916POPC   C3A39917  44.515  32.326   7.093
 2916POPC   C4A39918  44.722  32.085   7.360
 2916POPC   C1B39919  44.193  32.348   6.234
 2916POPC   C2B39920  44.222  32.307   6.666
 2916POPC   C3B39921  44.089  32.595   6.960
 2916POPC   C4B39922  44.220  32.668   7.383
 2917POPC   NC339923  26.411   6.843   5.192
 2917POPC   PO439924  27.010   6.613   5.299
 2917POPC   GL139925  26.832   6.546   5.746
 2917POPC   GL239926  27.132   6.324   5.795
 2917POPC   C1A39927  26.685   6.712   6.205
 2917POPC   D2A39928  26.579   6.951   6.617
 2917POPC   C3A39929  26.650   6.749   7.031
 2917POPC   C4A39930  26.947   6.715   7.383
 2917POPC   C1B39931  26.919   6.276   6.206
 2917POPC   C2B39932  26.814   6.448   6.640
 2917POPC   C3B39933  26.883   6.255   7.079
 2917POPC   C4B39934  26.946   6.228   7.551
 2918POPC   NC339935  26.000  37.105   5.327
 2918POPC   PO439936  25.424  37.330   5.475
 2918POPC   GL139937  25.790  37.107   5.793
 2918POPC   GL239938  25.983  36.763   5.832
 2918POPC   C1A39939  25.818  37.032   6.280
 2918POPC   D2A39940  25.772  36.929   6.757
 2918POPC   C3A39941  26.157  36.988   7.030
 2918POPC   C4A39942  26.462  37.242   7.334
 2918POPC   C1B39943  25.744  36.533   6.181
 2918POPC   C2B39944  25.719  36.394   6.652
 2918POPC   C3B39945  25.736  36.554   7.122
 2918POPC   C4B39946  25.642  36.947   7.372
 2919POPC   NC339947  35.312   0.853   5.715
 2919POPC   PO439948  35.354   0.467   5.182
 2919POPC   GL139949  35.431   0.296   5.635
 2919POPC   GL239950  35.163   0.016   5.728
 2919POPC   C1A39951  35.452   0.294   6.116
 2919POPC   D2A39952  35.479   0.335   6.578
 2919POPC   C3A39953  35.237   0.615   6.849
 2919POPC   C4A39954  35.244   0.620   7.312
 2919POPC   C1B39955  35.114  44.918   6.202
 2919POPC   C2B39956  35.185  44.931   6.683
 2919POPC   C3B39957  35.279   0.173   7.084
 2919POPC   C4B39958  35.118   0.179   7.554
 2920POPC   NC339959   7.272  32.474   5.478
 2920POPC   PO439960   7.766  31.959   5.455
 2920POPC   GL139961   7.471  32.078   5.772
 2920POPC   GL239962   7.547  32.419   5.938
 2920POPC   C1A39963   7.252  32.063   6.165
 2920POPC   D2A39964   7.238  32.434   6.467
 2920POPC   C3A39965   7.442  32.418   6.863
 2920POPC   C4A39966   7.259  32.175   7.184
 2920POPC   C1B39967   7.598  32.778   6.255
 2920POPC   C2B39968   7.593  32.897   6.692
 2920POPC   C3B39969   7.515  32.873   7.122
 2920POPC   C4B39970   7.473  32.558   7.402
 2921POPC   NC339971  19.385   6.800   5.658
 2921POPC   PO439972  18.942   6.446   5.207
 2921POPC   GL139973  18.906   6.507   5.693
 2921POPC   GL239974  18.905   6.819   5.824
 2921POPC   C1A39975  19.061   6.478   6.169
 2921POPC   D2A39976  19.365   6.511   6.528
 2921POPC   C3A39977  19.313   6.419   6.992
 2921POPC   C4A39978  19.004   6.296   7.326
 2921POPC   C1B39979  18.738   6.989   6.199
 2921POPC   C2B39980  18.794   6.732   6.551
 2921POPC   C3B39981  18.828   6.599   6.940
 2921POPC   C4B39982  19.053   6.784   7.240
 2922POPC   NC339983  14.400  14.635   5.256
 2922POPC   PO439984  14.443  14.055   5.375
 2922POPC   GL139985  14.330  14.063   5.800
 2922POPC   GL239986  14.133  14.361   5.774
 2922POPC   C1A39987  14.454  14.226   6.218
 2922POPC   D2A39988  14.646  14.484   6.557
 2922POPC   C3A39989  14.762  14.276   6.921
 2922POPC   C4A39990  14.653  14.246   7.330
 2922POPC   C1B39991  14.139  14.625   6.169
 2922POPC   C2B39992  14.128  14.401   6.601
 2922POPC   C3B39993  14.250  14.463   7.043
 2922POPC   C4B39994  14.051  14.627   7.408
 2923POPC   NC339995  20.668  29.194   5.272
 2923POPC   PO439996  20.978  29.801   5.442
 2923POPC   GL139997  20.938  29.355   5.703
 2923POPC   GL239998  20.614  29.171   5.776
 2923POPC   C1A39999  20.900  29.350   6.165
 2923POPC   D2A40000  20.598  29.371   6.484
 2923POPC   C3A40001  20.660  29.280   6.914
 2923POPC   C4A40002  20.839  28.919   7.071
 2923POPC   C1B40003  20.483  28.979   6.156
 2923POPC   C2B40004  20.531  28.872   6.603
 2923POPC   C3B40005  20.310  28.850   6.989
 2923POPC   C4B40006  19.916  28.980   7.178
 2924POPC   NC340007  41.420  29.321   5.387
 2924POPC   PO440008  42.008  29.630   5.546
 2924POPC   GL140009  41.757  29.264   5.773
 2924POPC   GL240010  41.974  29.392   5.993
 2924POPC   C1A40011  41.473  29.110   6.125
 2924POPC   D2A40012  41.248  29.232   6.499
 2924POPC   C3A40013  41.432  29.011   6.830
 2924POPC   C4A40014  41.565  29.232   7.170
 2924POPC   C1B40015  42.037  29.457   6.404
 2924POPC   C2B40016  41.912  29.383   6.810
 2924POPC   C3B40017  41.981  29.530   7.222
 2924POPC   C4B40018  41.980  29.585   7.665
 2925POPC   NC340019  12.916  20.283   5.563
 2925POPC   PO440020  12.497  20.762   5.455
 2925POPC   GL140021  12.528  20.617   5.847
 2925POPC   GL240022  12.395  20.304   5.759
 2925POPC   C1A40023  12.682  20.723   6.277
 2925POPC   D2A40024  12.619  20.730   6.753
 2925POPC   C3A40025  12.988  20.642   7.078
 2925POPC   C4A40026  13.136  20.560   7.539
 2925POPC   C1B40027  12.598  20.207   6.178
 2925POPC   C2B40028  12.857  20.327   6.554
 2925POPC   C3B40029  12.674  20.265   6.986
 2925POPC   C4B40030  12.819  20.176   7.419
 2926POPC   NC340031   2.205  27.705   5.422
 2926POPC   PO440032   1.924  27.176   5.044
 2926POPC   GL140033   1.766  27.400   5.542
 2926POPC   GL240034   1.860  27.706   5.785
 2926POPC   C1A40035   1.742  27.313   6.077
 2926POPC   D2A40036   1.930  27.218   6.542
 2926POPC   C3A40037   2.153  27.503   6.878
 2926POPC   C4A40038   2.055  27.496   7.343
 2926POPC   C1B40039   1.754  27.928   6.195
 2926POPC   C2B40040   1.706  27.744   6.639
 2926POPC   C3B40041   1.662  27.485   7.015
 2926POPC   C4B40042   1.559  27.634   7.445
 2927POPC   NC340043  29.160  17.053   5.588
 2927POPC   PO440044  29.358  17.674   5.443
 2927POPC   GL140045  29.191  17.548   5.862
 2927POPC   GL240046  28.835  17.384   5.829
 2927POPC   C1A40047  29.132  17.733   6.294
 2927POPC   D2A40048  29.284  17.891   6.709
 2927POPC   C3A40049  29.252  17.635   7.112
 2927POPC   C4A40050  29.231  17.754   7.559
 2927POPC   C1B40051  28.950  17.238   6.251
 2927POPC   C2B40052  29.014  17.393   6.680
 2927POPC   C3B40053  28.920  17.212   7.060
 2927POPC   C4B40054  28.956  17.331   7.467
 2928POPC   NC340055  16.472   0.251   5.326
 2928POPC   PO440056  17.197   0.322   5.326
 2928POPC   GL140057  16.853   0.407   5.613
 2928POPC   GL240058  16.671   0.721   5.679
 2928POPC   C1A40059  16.736   0.369   6.030
 2928POPC   D2A40060  16.932   0.344   6.415
 2928POPC   C3A40061  16.691   0.320   6.747
 2928POPC   C4A40062  16.668   0.325   7.169
 2928POPC   C1B40063  16.762   0.878   6.113
 2928POPC   C2B40064  16.665   0.807   6.551
 2928POPC   C3B40065  16.836   0.780   6.973
 2928POPC   C4B40066  16.580   0.769   7.366
 2929POPC   NC340067   9.374  27.090   5.302
 2929POPC   PO440068   8.915  26.656   5.440
 2929POPC   GL140069   9.105  26.842   5.813
 2929POPC   GL240070   8.852  27.074   5.949
 2929POPC   C1A40071   9.192  26.946   6.279
 2929POPC   D2A40072   8.808  27.085   6.519
 2929POPC   C3A40073   8.926  27.006   6.924
 2929POPC   C4A40074   9.306  26.827   7.063
 2929POPC   C1B40075   8.758  26.670   6.239
 2929POPC   C2B40076   8.834  26.553   6.663
 2929POPC   C3B40077   8.583  26.639   7.011
 2929POPC   C4B40078   8.515  26.491   7.410
 2930POPC   NC340079  24.208   7.092   5.386
 2930POPC   PO440080  23.569   7.358   5.184
 2930POPC   GL140081  23.736   7.490   5.621
 2930POPC   GL240082  23.593   7.344   5.903
 2930POPC   C1A40083  23.932   7.694   6.039
 2930POPC   D2A40084  23.886   7.874   6.465
 2930POPC   C3A40085  23.767   7.630   6.831
 2930POPC   C4A40086  23.702   7.643   7.277
 2930POPC   C1B40087  23.515   7.492   6.332
 2930POPC   C2B40088  23.292   7.397   6.713
 2930POPC   C3B40089  23.500   7.199   7.080
 2930POPC   C4B40090  23.658   7.209   7.517
 2931POPC   NC340091  20.690  30.151   5.571
 2931POPC   PO440092  20.502  29.657   5.159
 2931POPC   GL140093  20.518  29.657   5.639
 2931POPC   GL240094  20.796  29.800   5.906
 2931POPC   C1A40095  20.376  29.612   6.082
 2931POPC   D2A40096  20.278  29.747   6.519
 2931POPC   C3A40097  20.354  29.701   6.964
 2931POPC   C4A40098  20.351  29.898   7.370
 2931POPC   C1B40099  20.899  29.852   6.325
 2931POPC   C2B40100  20.809  29.767   6.746
 2931POPC   C3B40101  20.826  29.804   7.179
 2931POPC   C4B40102  20.789  30.123   7.502
 2932POPC   NC340103   0.566  35.299   5.435
 2932POPC   PO440104  44.979  35.598   5.374
 2932POPC   GL140105   0.256  35.570   5.756
 2932POPC   GL240106   0.593  35.729   5.726
 2932POPC   C1A40107   0.216  35.381   6.171
 2932POPC   D2A40108   0.302  35.034   6.463
 2932POPC   C3A40109   0.353  35.116   6.889
 2932POPC   C4A40110   0.260  35.409   7.196
 2932POPC   C1B40111   0.713  35.434   6.077
 2932POPC   C2B40112   0.705  35.358   6.523
 2932POPC   C3B40113   0.803  35.387   6.967
 2932POPC   C4B40114   0.684  35.210   7.388
 2933POPC   NC340115  40.704   2.543   5.370
 2933POPC   PO440116  40.186   2.369   5.782
 2933POPC   GL140117  40.607   2.622   5.864
 2933POPC   GL240118  40.673   2.967   5.641
 2933POPC   C1A40119  41.026   2.682   6.090
 2933POPC   D2A40120  41.186   2.654   6.525
 2933POPC   C3A40121  40.812   2.727   6.861
 2933POPC   C4A40122  40.389   2.666   7.057
 2933POPC   C1B40123  40.702   3.084   6.057
 2933POPC   C2B40124  40.605   2.981   6.466
 2933POPC   C3B40125  40.398   3.140   6.822
 2933POPC   C4B40126  40.548   3.138   7.216
 2934POPC   NC340127   4.294   4.085   5.364
 2934POPC   PO440128   3.948   4.627   5.508
 2934POPC   GL140129   4.117   4.367   5.814
 2934POPC   GL240130   4.292   4.050   5.864
 2934POPC   C1A40131   4.268   4.443   6.217
 2934POPC   D2A40132   4.312   4.736   6.569
 2934POPC   C3A40133   4.259   4.557   6.992
 2934POPC   C4A40134   4.092   4.505   7.411
 2934POPC   C1B40135   4.492   3.905   6.211
 2934POPC   C2B40136   4.481   3.829   6.630
 2934POPC   C3B40137   4.386   4.005   7.021
 2934POPC   C4B40138   3.985   4.031   7.217
 2935POPC   NC340139  26.344   2.704   5.234
 2935POPC   PO440140  25.792   2.767   5.264
 2935POPC   GL140141  25.948   2.817   5.694
 2935POPC   GL240142  26.273   2.995   5.811
 2935POPC   C1A40143  25.835   2.722   6.131
 2935POPC   D2A40144  26.021   2.648   6.525
 2935POPC   C3A40145  25.817   2.632   6.921
 2935POPC   C4A40146  26.141   2.483   7.176
 2935POPC   C1B40147  26.159   3.096   6.285
 2935POPC   C2B40148  26.084   3.093   6.768
 2935POPC   C3B40149  26.065   2.995   7.206
 2935POPC   C4B40150  25.947   3.199   7.584
 2936POPC   NC340151  39.759  43.489   5.405
 2936POPC   PO440152  40.429  43.747   5.364
 2936POPC   GL140153  40.295  43.567   5.721
 2936POPC   GL240154  40.020  43.780   5.758
 2936POPC   C1A40155  40.165  43.435   6.127
 2936POPC   D2A40156  39.890  43.448   6.471
 2936POPC   C3A40157  40.086  43.594   6.828
 2936POPC   C4A40158  39.766  43.703   7.133
 2936POPC   C1B40159  40.145  43.992   6.132
 2936POPC   C2B40160  39.952  44.017   6.542
 2936POPC   C3B40161  39.992  44.152   6.966
 2936POPC   C4B40162  40.280  44.381   7.203
 2937POPC   NC340163  29.482  28.982   5.257
 2937POPC   PO440164  29.044  29.493   5.407
 2937POPC   GL140165  29.126  29.175   5.703
 2937POPC   GL240166  29.023  28.827   5.649
 2937POPC   C1A40167  28.974  29.279   6.118
 2937POPC   D2A40168  29.087  29.248   6.536
 2937POPC   C3A40169  28.956  29.526   6.861
 2937POPC   C4A40170  29.167  29.279   7.158
 2937POPC   C1B40171  29.096  28.781   6.074
 2937POPC   C2B40172  29.317  28.788   6.433
 2937POPC   C3B40173  29.215  28.847   6.859
 2937POPC   C4B40174  29.548  28.840   7.112
 2938POPC   NC340175  10.841  35.280   5.446
 2938POPC   PO440176  10.267  35.670   5.519
 2938POPC   GL140177  10.443  35.379   5.836
 2938POPC   GL240178  10.153  35.180   5.979
 2938POPC   C1A40179  10.577  35.196   6.260
 2938POPC   D2A40180  10.499  35.235   6.729
 2938POPC   C3A40181  10.744  35.452   7.094
 2938POPC   C4A40182  10.683  35.310   7.562
 2938POPC   C1B40183  10.195  35.576   6.237
 2938POPC   C2B40184  10.398  35.744   6.602
 2938POPC   C3B40185  10.277  35.626   6.994
 2938POPC   C4B40186  10.307  35.251   7.214
 2939POPC   NC340187   5.922  25.090   5.335
 2939POPC   PO440188   6.256  25.654   5.172
 2939POPC   GL140189   6.217  25.444   5.639
 2939POPC   GL240190   6.133  25.083   5.788
 2939POPC   C1A40191   5.983  25.487   6.073
 2939POPC   D2A40192   5.793  25.313   6.471
 2939POPC   C3A40193   5.919  25.389   6.897
 2939POPC   C4A40194   5.765  25.559   7.285
 2939POPC   C1B40195   5.731  24.973   5.997
 2939POPC   C2B40196   5.433  24.990   6.336
 2939POPC   C3B40197   5.447  25.043   6.781
 2939POPC   C4B40198   5.541  25.091   7.210
 2940POPC   NC340199  31.257  34.346   5.562
 2940POPC   PO440200  31.766  34.707   5.344
 2940POPC   GL140201  31.580  34.688   5.763
 2940POPC   GL240202  31.242  34.734   5.960
 2940POPC   C1A40203  31.648  34.483   6.153
 2940POPC   D2A40204  31.452  34.605   6.515
 2940POPC   C3A40205  31.637  34.489   6.887
 2940POPC   C4A40206  31.545  34.484   7.297
 2940POPC   C1B40207  31.074  34.352   6.189
 2940POPC   C2B40208  31.143  34.210   6.607
 2940POPC   C3B40209  31.087  34.566   6.869
 2940POPC   C4B40210  31.061  34.673   7.275
 2941POPC   NC340211  41.817  24.980   5.469
 2941POPC   PO440212  41.482  25.591   5.466
 2941POPC   GL140213  41.564  25.331   5.748
 2941POPC   GL240214  41.304  25.100   5.626
 2941POPC   C1A40215  41.760  25.259   6.135
 2941POPC   D2A40216  41.914  25.259   6.547
 2941POPC   C3A40217  41.715  25.118   6.936
 2941POPC   C4A40218  41.823  25.379   7.289
 2941POPC   C1B40219  41.239  25.131   6.082
 2941POPC   C2B40220  41.253  25.018   6.511
 2941POPC   C3B40221  41.179  25.120   6.912
 2941POPC   C4B40222  41.309  25.175   7.293
 2942POPC   NC340223  39.443  38.552   5.386
 2942POPC   PO440224  38.802  38.603   5.400
 2942POPC   GL140225  39.071  38.365   5.725
 2942POPC   GL240226  39.164  38.688   5.809
 2942POPC   C1A40227  39.263  38.106   6.098
 2942POPC   D2A40228  39.235  37.958   6.547
 2942POPC   C3A40229  39.415  38.139   6.887
 2942POPC   C4A40230  39.239  38.255   7.246
 2942POPC   C1B40231  39.486  38.565   6.103
 2942POPC   C2B40232  39.326  38.474   6.501
 2942POPC   C3B40233  39.186  38.620   6.899
 2942POPC   C4B40234  39.486  38.748   7.148
 2943POPC   NC340235   9.978  13.147   5.381
 2943POPC   PO440236   9.571  12.648   5.376
 2943POPC   GL140237   9.684  12.749   5.798
 2943POPC   GL240238  10.013  12.922   5.845
 2943POPC   C1A40239   9.504  12.678   6.218
 2943POPC   D2A40240   9.515  12.956   6.557
 2943POPC   C3A40241   9.637  12.914   6.979
 2943POPC   C4A40242   9.492  12.988   7.433
 2943POPC   C1B40243  10.011  12.855   6.302
 2943POPC   C2B40244  10.032  13.137   6.652
 2943POPC   C3B40245  10.079  13.174   7.082
 2943POPC   C4B40246  10.101  12.767   7.245
 2944POPC   NC340247   8.527  23.970   5.344
 2944POPC   PO440248   9.013  23.467   5.403
 2944POPC   GL140249   8.714  23.615   5.672
 2944POPC   GL240250   8.860  23.957   5.752
 2944POPC   C1A40251   8.590  23.620   6.109
 2944POPC   D2A40252   8.777  23.741   6.515
 2944POPC   C3A40253   8.809  23.435   6.886
 2944POPC   C4A40254   9.095  23.456   7.238
 2944POPC   C1B40255   9.062  24.178   6.125
 2944POPC   C2B40256   8.989  24.233   6.586
 2944POPC   C3B40257   9.076  23.960   6.922
 2944POPC   C4B40258   9.173  23.951   7.358
 2945POPC   NC340259   5.217  18.212   5.316
 2945POPC   PO440260   5.558  18.769   5.484
 2945POPC   GL140261   5.207  18.500   5.745
 2945POPC   GL240262   5.288  18.153   5.813
 2945POPC   C1A40263   5.107  18.399   6.224
 2945POPC   D2A40264   5.099  18.781   6.533
 2945POPC   C3A40265   5.309  18.787   6.941
 2945POPC   C4A40266   5.163  18.439   7.182
 2945POPC   C1B40267   5.526  17.992   6.147
 2945POPC   C2B40268   5.455  17.775   6.526
 2945POPC   C3B40269   5.260  17.886   6.902
 2945POPC   C4B40270   5.462  18.011   7.264
 2946POPC   NC340271  13.116  30.136   5.190
 2946POPC   PO440272  12.541  29.929   5.538
 2946POPC   GL140273  12.915  30.109   5.670
 2946POPC   GL240274  13.169  29.846   5.700
 2946POPC   C1A40275  13.029  30.200   6.094
 2946POPC   D2A40276  13.061  30.085   6.536
 2946POPC   C3A40277  12.725  30.150   6.853
 2946POPC   C4A40278  12.495  29.816   7.089
 2946POPC   C1B40279  13.027  29.668   6.114
 2946POPC   C2B40280  13.048  29.544   6.558
 2946POPC   C3B40281  13.028  29.741   6.969
 2946POPC   C4B40282  13.310  29.744   7.332
 2947POPC   NC340283  43.968   5.786   5.191
 2947POPC   PO440284  43.615   5.527   5.377
 2947POPC   GL140285  43.845   5.671   5.735
 2947POPC   GL240286  43.862   6.028   5.797
 2947POPC   C1A40287  43.776   5.696   6.210
 2947POPC   D2A40288  43.684   5.967   6.588
 2947POPC   C3A40289  43.728   5.820   7.032
 2947POPC   C4A40290  43.719   5.931   7.490
 2947POPC   C1B40291  44.074   6.112   6.214
 2947POPC   C2B40292  44.191   6.054   6.672
 2947POPC   C3B40293  44.206   6.011   7.141
 2947POPC   C4B40294  44.406   6.030   7.563
 2948POPC   NC340295  11.392  17.194   5.543
 2948POPC   PO440296  11.578  17.770   5.405
 2948POPC   GL140297  11.479  17.604   5.843
 2948POPC   GL240298  11.397  17.319   6.022
 2948POPC   C1A40299  11.527  17.682   6.327
 2948POPC   D2A40300  11.259  17.553   6.695
 2948POPC   C3A40301  11.503  17.504   7.081
 2948POPC   C4A40302  11.763  17.863   7.241
 2948POPC   C1B40303  11.071  17.192   6.286
 2948POPC   C2B40304  11.004  17.059   6.687
 2948POPC   C3B40305  10.998  17.238   7.072
 2948POPC   C4B40306  11.009  17.656   7.195
 2949POPC   NC340307   0.241  42.776   5.220
 2949POPC   PO440308   0.544  43.461   5.342
 2949POPC   GL140309   0.451  43.417   5.813
 2949POPC   GL240310   0.247  43.152   5.872
 2949POPC   C1A40311   0.565  43.234   6.249
 2949POPC   D2A40312   0.564  43.388   6.671
 2949POPC   C3A40313   0.664  43.122   7.001
 2949POPC   C4A40314   0.598  43.372   7.347
 2949POPC   C1B40315   0.058  43.351   6.197
 2949POPC   C2B40316   0.060  43.273   6.628
 2949POPC   C3B40317   0.153  43.250   7.048
 2949POPC   C4B40318  44.922  42.956   7.259
 2950POPC   NC340319  15.267   8.601   5.544
 2950POPC   PO440320  14.912   8.068   5.172
 2950POPC   GL140321  15.157   8.061   5.584
 2950POPC   GL240322  15.516   8.043   5.665
 2950POPC   C1A40323  15.186   8.161   6.039
 2950POPC   D2A40324  15.039   8.230   6.465
 2950POPC   C3A40325  15.153   8.271   6.899
 2950POPC   C4A40326  14.961   8.241   7.327
 2950POPC   C1B40327  15.634   7.890   6.122
 2950POPC   C2B40328  15.525   8.022   6.556
 2950POPC   C3B40329  15.558   7.972   7.017
 2950POPC   C4B40330  15.458   8.330   7.302
 2951POPC   NC340331   3.642  26.242   5.449
 2951POPC   PO440332   3.340  25.593   5.336
 2951POPC   GL140333   3.427  25.822   5.725
 2951POPC   GL240334   3.778  25.683   5.738
 2951POPC   C1A40335   3.496  26.053   6.152
 2951POPC   D2A40336   3.379  26.454   6.420
 2951POPC   C3A40337   3.232  26.441   6.884
 2951POPC   C4A40338   3.368  26.260   7.284
 2951POPC   C1B40339   3.913  25.620   6.181
 2951POPC   C2B40340   3.709  25.791   6.558
 2951POPC   C3B40341   3.654  25.990   6.958
 2951POPC   C4B40342   3.873  26.010   7.379
 2952POPC   NC340343  18.570  42.204   5.429
 2952POPC   PO440344  17.937  42.451   5.407
 2952POPC   GL140345  18.242  42.514   5.765
 2952POPC   GL240346  18.584  42.357   5.912
 2952POPC   C1A40347  18.208  42.598   6.188
 2952POPC   D2A40348  18.319  42.385   6.555
 2952POPC   C3A40349  18.106  42.518   6.897
 2952POPC   C4A40350  18.281  42.505   7.271
 2952POPC   C1B40351  18.660  42.077   6.271
 2952POPC   C2B40352  18.662  42.033   6.738
 2952POPC   C3B40353  18.387  42.048   7.089
 2952POPC   C4B40354  18.502  42.026   7.549
 2953POPC   NC340355  33.995   2.532   5.407
 2953POPC   PO440356  33.416   2.755   5.135
 2953POPC   GL140357  33.364   2.683   5.626
 2953POPC   GL240358  33.606   2.425   5.719
 2953POPC   C1A40359  33.356   2.605   6.109
 2953POPC   D2A40360  33.687   2.647   6.465
 2953POPC   C3A40361  33.529   2.748   6.901
 2953POPC   C4A40362  33.659   2.919   7.336
 2953POPC   C1B40363  34.000   2.474   6.038
 2953POPC   C2B40364  34.231   2.693   6.368
 2953POPC   C3B40365  34.138   2.762   6.787
 2953POPC   C4B40366  33.963   2.550   7.102
 2954POPC   NC340367   1.719  31.190   5.126
 2954POPC   PO440368   2.214  31.595   5.222
 2954POPC   GL140369   1.948  31.508   5.569
 2954POPC   GL240370   1.744  31.780   5.599
 2954POPC   C1A40371   1.925  31.454   6.033
 2954POPC   D2A40372   1.994  31.308   6.461
 2954POPC   C3A40373   2.062  31.441   6.887
 2954POPC   C4A40374   1.721  31.475   7.156
 2954POPC   C1B40375   1.811  31.938   6.014
 2954POPC   C2B40376   1.896  31.820   6.435
 2954POPC   C3B40377   1.765  31.905   6.852
 2954POPC   C4B40378   2.026  31.883   7.196
 2955POPC   NC340379   4.905  19.877   5.263
 2955POPC   PO440380   4.274  19.977   5.490
 2955POPC   GL140381   4.330  19.649   5.800
 2955POPC   GL240382   4.516  19.922   5.977
 2955POPC   C1A40383   4.347  19.520   6.243
 2955POPC   D2A40384   4.502  19.796   6.537
 2955POPC   C3A40385   4.400  19.686   6.926
 2955POPC   C4A40386   4.492  19.769   7.329
 2955POPC   C1B40387   4.111  19.974   6.136
 2955POPC   C2B40388   3.947  20.115   6.467
 2955POPC   C3B40389   4.063  20.083   6.838
 2955POPC   C4B40390   4.095  20.091   7.241
 2956POPC   NC340391  43.260   2.711   5.156
 2956POPC   PO440392  42.774   3.055   5.462
 2956POPC   GL140393  43.075   3.015   5.835
 2956POPC   GL240394  43.220   2.681   5.850
 2956POPC   C1A40395  43.095   2.881   6.300
 2956POPC   D2A40396  42.811   2.704   6.612
 2956POPC   C3A40397  42.842   2.921   7.006
 2956POPC   C4A40398  43.203   2.918   7.285
 2956POPC   C1B40399  42.977   2.411   6.155
 2956POPC   C2B40400  43.152   2.304   6.559
 2956POPC   C3B40401  43.183   2.472   6.960
 2956POPC   C4B40402  42.930   2.477   7.309
 2957POPC   NC340403  20.473  36.529   5.569
 2957POPC   PO440404  21.066  36.635   5.190
 2957POPC   GL140405  20.821  36.882   5.666
 2957POPC   GL240406  20.766  36.677   5.979
 2957POPC   C1A40407  20.816  37.137   6.130
 2957POPC   D2A40408  20.591  37.083   6.553
 2957POPC   C3A40409  20.751  37.043   6.991
 2957POPC   C4A40410  20.665  36.846   7.414
 2957POPC   C1B40411  20.349  36.784   6.209
 2957POPC   C2B40412  20.156  36.813   6.650
 2957POPC   C3B40413  20.324  36.710   7.066
 2957POPC   C4B40414  20.238  36.610   7.557
 2958POPC   NC340415  25.520   5.821   5.501
 2958POPC   PO440416  25.140   6.301   5.374
 2958POPC   GL140417  25.303   6.171   5.794
 2958POPC   GL240418  25.665   6.224   5.786
 2958POPC   C1A40419  25.142   5.855   6.122
 2958POPC   D2A40420  25.243   5.612   6.503
 2958POPC   C3A40421  25.158   5.824   6.926
 2958POPC   C4A40422  25.117   6.225   7.187
 2958POPC   C1B40423  25.620   6.000   6.175
 2958POPC   C2B40424  25.470   6.067   6.560
 2958POPC   C3B40425  25.569   6.112   6.977
 2958POPC   C4B40426  25.482   5.868   7.340
 2959POPC   NC340427   3.669   6.781   5.276
 2959POPC   PO440428   3.196   6.344   5.207
 2959POPC   GL140429   3.347   6.567   5.611
 2959POPC   GL240430   3.183   6.881   5.641
 2959POPC   C1A40431   3.636   6.550   6.015
 2959POPC   D2A40432   3.689   6.725   6.471
 2959POPC   C3A40433   3.728   6.448   6.868
 2959POPC   C4A40434   3.439   6.376   7.221
 2959POPC   C1B40435   3.300   6.934   6.101
 2959POPC   C2B40436   3.254   7.022   6.569
 2959POPC   C3B40437   3.326   6.940   7.032
 2959POPC   C4B40438   3.137   6.849   7.438
 2960POPC   NC340439  31.748  42.654   5.353
 2960POPC   PO440440  32.401  42.369   5.313
 2960POPC   GL140441  32.399  42.470   5.745
 2960POPC   GL240442  32.066  42.542   5.726
 2960POPC   C1A40443  32.350  42.292   6.184
 2960POPC   D2A40444  32.477  42.433   6.603
 2960POPC   C3A40445  32.225  42.302   6.918
 2960POPC   C4A40446  32.227  41.862   6.894
 2960POPC   C1B40447  32.079  42.720   6.118
 2960POPC   C2B40448  32.025  42.655   6.509
 2960POPC   C3B40449  31.955  42.843   6.843
 2960POPC   C4B40450  31.954  42.666   7.194
 2961POPC   NC340451   5.270  26.272   5.386
 2961POPC   PO440452   4.907  25.707   5.140
 2961POPC   GL140453   4.958  25.821   5.621
 2961POPC   GL240454   4.925  26.169   5.728
 2961POPC   C1A40455   5.012  25.810   6.113
 2961POPC   D2A40456   5.202  25.956   6.530
 2961POPC   C3A40457   4.973  25.871   6.927
 2961POPC   C4A40458   5.086  25.972   7.359
 2961POPC   C1B40459   5.227  26.268   6.092
 2961POPC   C2B40460   5.416  26.428   6.485
 2961POPC   C3B40461   5.324  26.303   6.920
 2961POPC   C4B40462   4.920  26.366   7.091
 2962POPC   NC340463  15.759  42.001   5.110
 2962POPC   PO440464  16.069  42.371   5.490
 2962POPC   GL140465  15.972  42.273   5.871
 2962POPC   GL240466  16.219  42.077   5.985
 2962POPC   C1A40467  15.768  42.472   6.194
 2962POPC   D2A40468  15.678  42.331   6.626
 2962POPC   C3A40469  15.860  42.531   7.009
 2962POPC   C4A40470  15.814  42.452   7.473
 2962POPC   C1B40471  16.050  42.083   6.366
 2962POPC   C2B40472  16.141  42.146   6.777
 2962POPC   C3B40473  16.099  42.115   7.217
 2962POPC   C4B40474  16.250  41.874   7.548
 2963POPC   NC340475  23.215  11.208   5.245
 2963POPC   PO440476  22.638  11.561   5.534
 2963POPC   GL140477  22.791  11.375   5.853
 2963POPC   GL240478  23.040  11.187   5.726
 2963POPC   C1A40479  22.936  11.509   6.239
 2963POPC   D2A40480  22.701  11.385   6.579
 2963POPC   C3A40481  22.862  11.465   6.966
 2963POPC   C4A40482  23.214  11.475   7.206
 2963POPC   C1B40483  23.016  11.003   6.146
 2963POPC   C2B40484  23.141  11.102   6.571
 2963POPC   C3B40485  23.148  11.016   7.014
 2963POPC   C4B40486  23.345  10.685   7.232
 2964POPC   NC340487  25.301  21.827   5.458
 2964POPC   PO440488  25.500  21.155   5.479
 2964POPC   GL140489  25.165  21.340   5.806
 2964POPC   GL240490  25.067  21.056   6.042
 2964POPC   C1A40491  24.883  21.478   6.196
 2964POPC   D2A40492  24.905  21.235   6.613
 2964POPC   C3A40493  25.159  21.436   6.975
 2964POPC   C4A40494  25.108  21.687   7.392
 2964POPC   C1B40495  25.489  21.197   6.193
 2964POPC   C2B40496  25.682  21.256   6.601
 2964POPC   C3B40497  25.588  21.129   7.012
 2964POPC   C4B40498  25.508  21.378   7.373
 2965POPC   NC340499  40.018  37.179   5.416
 2965POPC   PO440500  40.226  36.715   4.913
 2965POPC   GL140501  40.064  36.679   5.462
 2965POPC   GL240502  39.744  36.854   5.700
 2965POPC   C1A40503  40.062  36.604   5.974
 2965POPC   D2A40504  39.894  36.729   6.408
 2965POPC   C3A40505  40.121  36.743   6.812
 2965POPC   C4A40506  40.013  36.702   7.227
 2965POPC   C1B40507  39.998  37.113   6.081
 2965POPC   C2B40508  40.165  37.194   6.561
 2965POPC   C3B40509  40.044  37.189   7.042
 2965POPC   C4B40510  40.163  37.099   7.493
 2966POPC   NC340511  44.020  37.316   5.243
 2966POPC   PO440512  43.639  37.870   5.277
 2966POPC   GL140513  43.695  37.581   5.662
 2966POPC   GL240514  43.501  37.793   5.907
 2966POPC   C1A40515  43.865  37.511   6.126
 2966POPC   D2A40516  44.124  37.726   6.458
 2966POPC   C3A40517  44.130  37.803   6.914
 2966POPC   C4A40518  43.945  37.514   7.192
 2966POPC   C1B40519  43.621  37.900   6.358
 2966POPC   C2B40520  43.627  37.729   6.813
 2966POPC   C3B40521  43.683  37.947   7.235
 2966POPC   C4B40522  43.699  38.109   7.682
 2967POPC   NC340523  39.549  25.968   5.491
 2967POPC   PO440524  38.855  26.256   5.473
 2967POPC   GL140525  39.166  26.192   5.771
 2967POPC   GL240526  39.169  25.839   5.864
 2967POPC   C1A40527  39.180  26.194   6.208
 2967POPC   D2A40528  38.990  26.299   6.532
 2967POPC   C3A40529  39.137  26.141   6.906
 2967POPC   C4A40530  39.169  26.329   7.311
 2967POPC   C1B40531  39.511  25.795   6.174
 2967POPC   C2B40532  39.544  25.916   6.619
 2967POPC   C3B40533  39.452  25.711   7.019
 2967POPC   C4B40534  39.167  25.821   7.339
 2968POPC   NC340535  22.348  33.161   5.578
 2968POPC   PO440536  21.891  32.681   5.456
 2968POPC   GL140537  21.966  32.922   5.833
 2968POPC   GL240538  21.721  33.142   5.935
 2968POPC   C1A40539  22.116  32.815   6.266
 2968POPC   D2A40540  22.426  32.775   6.608
 2968POPC   C3A40541  22.385  32.953   7.025
 2968POPC   C4A40542  22.233  33.005   7.451
 2968POPC   C1B40543  22.033  33.305   6.194
 2968POPC   C2B40544  22.174  33.392   6.577
 2968POPC   C3B40545  21.991  33.302   6.928
 2968POPC   C4B40546  21.768  33.146   7.246
 2969POPC   NC340547  24.720  43.730   5.586
 2969POPC   PO440548  24.059  43.705   5.536
 2969POPC   GL140549  24.300  43.745   5.872
 2969POPC   GL240550  24.286  44.089   5.823
 2969POPC   C1A40551  24.536  43.707   6.241
 2969POPC   D2A40552  24.525  43.883   6.642
 2969POPC   C3A40553  24.387  43.613   6.982
 2969POPC   C4A40554  24.654  43.354   7.238
 2969POPC   C1B40555  24.491  44.281   6.172
 2969POPC   C2B40556  24.354  44.366   6.592
 2969POPC   C3B40557  24.353  44.198   7.022
 2969POPC   C4B40558  24.220  44.084   7.481
 2970POPC   NC340559  24.713   8.951   5.653
 2970POPC   PO440560  24.261   8.541   5.557
 2970POPC   GL140561  24.413   8.643   5.968
 2970POPC   GL240562  24.382   9.023   6.039
 2970POPC   C1A40563  24.489   8.694   6.414
 2970POPC   D2A40564  24.511   9.021   6.721
 2970POPC   C3A40565  24.310   8.964   7.117
 2970POPC   C4A40566  24.180   9.168   7.494
 2970POPC   C1B40567  24.782   9.110   6.278
 2970POPC   C2B40568  25.038   9.099   6.634
 2970POPC   C3B40569  24.932   8.989   7.025
 2970POPC   C4B40570  25.008   9.268   7.322
 2971POPC   NC340571  28.080  32.408   5.197
 2971POPC   PO440572  28.692  32.023   5.319
 2971POPC   GL140573  28.503  32.164   5.704
 2971POPC   GL240574  28.170  32.251   5.671
 2971POPC   C1A40575  28.494  32.392   6.076
 2971POPC   D2A40576  28.586  32.282   6.504
 2971POPC   C3A40577  28.377  32.393   6.862
 2971POPC   C4A40578  28.461  32.273   7.258
 2971POPC   C1B40579  28.015  32.256   6.108
 2971POPC   C2B40580  28.076  32.098   6.541
 2971POPC   C3B40581  28.095  31.980   6.982
 2971POPC   C4B40582  28.056  32.053   7.458
 2972POPC   NC340583  14.470   8.108   5.286
 2972POPC   PO440584  14.809   8.590   5.450
 2972POPC   GL140585  14.706   8.248   5.750
 2972POPC   GL240586  14.348   8.158   5.789
 2972POPC   C1A40587  14.714   7.994   6.154
 2972POPC   D2A40588  14.607   7.976   6.623
 2972POPC   C3A40589  14.633   8.315   6.934
 2972POPC   C4A40590  14.516   8.489   7.346
 2972POPC   C1B40591  14.257   8.201   6.256
 2972POPC   C2B40592  14.176   8.302   6.702
 2972POPC   C3B40593  14.096   8.274   7.159
 2972POPC   C4B40594  14.142   8.300   7.628
 2973POPC   NC340595  35.954  33.080   5.514
 2973POPC   PO440596  36.397  33.524   5.522
 2973POPC   GL140597  36.262  33.295   5.868
 2973POPC   GL240598  36.499  33.046   5.749
 2973POPC   C1A40599  36.043  33.265   6.281
 2973POPC   D2A40600  36.134  33.408   6.724
 2973POPC   C3A40601  35.990  33.155   7.076
 2973POPC   C4A40602  35.918  32.872   7.437
 2973POPC   C1B40603  36.442  32.916   6.175
 2973POPC   C2B40604  36.317  32.957   6.591
 2973POPC   C3B40605  36.500  33.085   6.953
 2973POPC   C4B40606  36.399  32.903   7.332
 2974POPC   NC340607  41.058  24.729   5.311
 2974POPC   PO440608  40.685  24.234   5.533
 2974POPC   GL140609  40.760  24.316   5.924
 2974POPC   GL240610  40.605  24.632   5.931
 2974POPC   C1A40611  40.785  24.382   6.360
 2974POPC   D2A40612  40.544  24.527   6.675
 2974POPC   C3A40613  40.667  24.297   7.027
 2974POPC   C4A40614  41.035  24.282   7.243
 2974POPC   C1B40615  40.808  24.877   6.229
 2974POPC   C2B40616  40.760  24.998   6.646
 2974POPC   C3B40617  40.778  24.806   7.057
 2974POPC   C4B40618  40.475  24.632   7.344
 2975POPC   NC340619   9.522  20.469   5.298
 2975POPC   PO440620   9.960  20.928   5.477
 2975POPC   GL140621   9.886  20.642   5.765
 2975POPC   GL240622   9.535  20.633   5.771
 2975POPC   C1A40623   9.871  20.759   6.192
 2975POPC   D2A40624   9.710  20.529   6.524
 2975POPC   C3A40625   9.956  20.482   6.880
 2975POPC   C4A40626   9.962  20.613   7.301
 2975POPC   C1B40627   9.355  20.696   6.147
 2975POPC   C2B40628   9.315  20.866   6.527
 2975POPC   C3B40629   9.463  20.726   6.927
 2975POPC   C4B40630   9.382  20.479   7.292
 2976POPC   NC340631  30.076   8.099   5.445
 2976POPC   PO440632  30.080   8.747   5.468
 2976POPC   GL140633  29.954   8.432   5.844
 2976POPC   GL240634  29.782   8.066   5.894
 2976POPC   C1A40635  30.058   8.214   6.276
 2976POPC   D2A40636  30.072   8.007   6.697
 2976POPC   C3A40637  30.145   8.308   7.041
 2976POPC   C4A40638  30.115   8.293   7.495
 2976POPC   C1B40639  29.563   8.359   6.174
 2976POPC   C2B40640  29.657   8.302   6.602
 2976POPC   C3B40641  29.657   8.152   6.996
 2976POPC   C4B40642  29.654   8.450   7.319
 2977POPC   NC340643   9.816  42.710   5.396
 2977POPC   PO440644  10.214  43.361   5.508
 2977POPC   GL140645   9.903  43.045   5.783
 2977POPC   GL240646   9.538  43.157   5.901
 2977POPC   C1A40647   9.759  42.749   6.135
 2977POPC   D2A40648   9.590  42.743   6.570
 2977POPC   C3A40649   9.738  43.054   6.891
 2977POPC   C4A40650   9.644  43.019   7.335
 2977POPC   C1B40651   9.370  43.431   6.257
 2977POPC   C2B40652   9.486  43.530   6.705
 2977POPC   C3B40653   9.335  43.356   7.094
 2977POPC   C4B40654   9.391  43.439   7.533
 2978POPC   NC340655  19.131  41.945   5.125
 2978POPC   PO440656  18.962  42.460   5.441
 2978POPC   GL140657  19.125  42.305   5.786
 2978POPC   GL240658  18.971  41.981   5.772
 2978POPC   C1A40659  19.059  42.407   6.217
 2978POPC   D2A40660  18.807  42.536   6.559
 2978POPC   C3A40661  18.917  42.440   6.990
 2978POPC   C4A40662  19.204  42.564   7.315
 2978POPC   C1B40663  19.237  41.935   6.148
 2978POPC   C2B40664  19.377  41.916   6.582
 2978POPC   C3B40665  19.268  42.041   7.016
 2978POPC   C4B40666  18.883  42.003   7.237
 2979POPC   NC340667  43.031  18.515   5.329
 2979POPC   PO440668  43.270  18.000   5.073
 2979POPC   GL140669  43.181  18.144   5.637
 2979POPC   GL240670  43.001  18.471   5.847
 2979POPC   C1A40671  43.101  18.112   6.161
 2979POPC   D2A40672  42.982  18.322   6.591
 2979POPC   C3A40673  43.015  18.083   7.012
 2979POPC   C4A40674  43.113  18.135   7.482
 2979POPC   C1B40675  42.691  18.611   6.203
 2979POPC   C2B40676  42.535  18.608   6.633
 2979POPC   C3B40677  42.761  18.536   7.046
 2979POPC   C4B40678  42.976  18.622   7.457
 2980POPC   NC340679  30.421  12.547   5.478
 2980POPC   PO440680  30.692  13.107   5.175
 2980POPC   GL140681  30.736  12.967   5.659
 2980POPC   GL240682  30.765  12.607   5.825
 2980POPC   C1A40683  30.666  12.991   6.148
 2980POPC   D2A40684  30.827  12.859   6.553
 2980POPC   C3A40685  30.648  13.011   6.955
 2980POPC   C4A40686  30.617  13.107   7.427
 2980POPC   C1B40687  30.786  12.353   6.201
 2980POPC   C2B40688  30.629  12.330   6.596
 2980POPC   C3B40689  30.421  12.459   6.947
 2980POPC   C4B40690  30.645  12.622   7.284
 2981POPC   NC340691  14.863   0.901   5.417
 2981POPC   PO440692  14.159   1.074   5.447
 2981POPC   GL140693  14.329   1.227   5.834
 2981POPC   GL240694  14.715   1.155   5.831
 2981POPC   C1A40695  14.469   1.275   6.274
 2981POPC   D2A40696  14.182   1.244   6.624
 2981POPC   C3A40697  14.325   1.526   6.921
 2981POPC   C4A40698  14.447   1.635   7.279
 2981POPC   C1B40699  14.544   0.813   6.070
 2981POPC   C2B40700  14.596   0.805   6.501
 2981POPC   C3B40701  14.660   1.142   6.803
 2981POPC   C4B40702  14.542   1.136   7.254
 2982POPC   NC340703  19.106  27.876   5.340
 2982POPC   PO440704  19.524  27.374   5.379
 2982POPC   GL140705  19.231  27.418   5.741
 2982POPC   GL240706  19.154  27.754   5.830
 2982POPC   C1A40707  19.108  27.366   6.191
 2982POPC   D2A40708  19.118  27.261   6.628
 2982POPC   C3A40709  19.041  27.478   7.012
 2982POPC   C4A40710  18.905  27.307   7.406
 2982POPC   C1B40711  18.900  27.844   6.189
 2982POPC   C2B40712  19.069  27.829   6.604
 2982POPC   C3B40713  18.998  27.993   7.006
 2982POPC   C4B40714  18.681  27.801   7.219
 2983POPC   NC340715  28.509  31.660   5.529
 2983POPC   PO440716  27.817  31.601   5.495
 2983POPC   GL140717  28.073  31.521   5.838
 2983POPC   GL240718  28.162  31.796   5.889
 2983POPC   C1A40719  28.363  31.392   6.216
 2983POPC   D2A40720  28.615  31.183   6.536
 2983POPC   C3A40721  28.524  31.353   6.942
 2983POPC   C4A40722  28.575  31.254   7.385
 2983POPC   C1B40723  28.411  31.901   6.182
 2983POPC   C2B40724  28.514  31.760   6.559
 2983POPC   C3B40725  28.618  31.922   6.916
 2983POPC   C4B40726  28.434  31.742   7.284
 2984POPC   NC340727   0.434  36.571   5.238
 2984POPC   PO440728   0.840  37.051   5.332
 2984POPC   GL140729   0.477  37.042   5.644
 2984POPC   GL240730   0.261  37.367   5.645
 2984POPC   C1A40731   0.330  36.847   6.054
 2984POPC   D2A40732   0.117  36.737   6.455
 2984POPC   C3A40733   0.404  36.820   6.810
 2984POPC   C4A40734   0.824  36.638   6.916
 2984POPC   C1B40735   0.430  37.353   6.061
 2984POPC   C2B40736   0.339  37.223   6.459
 2984POPC   C3B40737   0.396  37.332   6.885
 2984POPC   C4B40738   0.502  37.120   7.233
 2985POPC   NC340739  43.558  29.679   5.371
 2985POPC   PO440740  43.989  30.161   5.476
 2985POPC   GL140741  43.782  30.069   5.838
 2985POPC   GL240742  43.764  29.727   5.899
 2985POPC   C1A40743  44.010  30.074   6.229
 2985POPC   D2A40744  44.013  30.201   6.648
 2985POPC   C3A40745  44.050  30.148   7.078
 2985POPC   C4A40746  43.737  29.946   7.329
 2985POPC   C1B40747  43.865  29.604   6.340
 2985POPC   C2B40748  43.923  29.701   6.772
 2985POPC   C3B40749  43.869  29.500   7.158
 2985POPC   C4B40750  43.742  29.478   7.574
 2986POPC   NC340751  41.950  38.849   5.383
 2986POPC   PO440752  41.757  38.136   5.368
 2986POPC   GL140753  41.673  38.124   5.781
 2986POPC   GL240754  41.658  38.518   5.800
 2986POPC   C1A40755  41.504  38.221   6.190
 2986POPC   D2A40756  41.305  38.487   6.467
 2986POPC   C3A40757  41.371  38.368   6.862
 2986POPC   C4A40758  41.535  38.167   7.205
 2986POPC   C1B40759  41.519  38.802   6.108
 2986POPC   C2B40760  41.594  38.955   6.525
 2986POPC   C3B40761  41.652  38.800   6.933
 2986POPC   C4B40762  41.405  38.680   7.290
 2987POPC   NC340763  31.495  13.891   5.356
 2987POPC   PO440764  31.674  13.230   5.314
 2987POPC   GL140765  31.369  13.308   5.682
 2987POPC   GL240766  31.348  13.657   5.778
 2987POPC   C1A40767  31.079  13.289   6.060
 2987POPC   D2A40768  30.919  13.369   6.519
 2987POPC   C3A40769  31.157  13.166   6.867
 2987POPC   C4A40770  31.460  13.354   7.168
 2987POPC   C1B40771  31.322  13.732   6.210
 2987POPC   C2B40772  31.347  13.626   6.660
 2987POPC   C3B40773  31.281  13.833   7.057
 2987POPC   C4B40774  31.635  13.853   7.317
 2988POPC   NC340775   0.159  43.698   5.483
 2988POPC   PO440776   0.688  44.108   5.658
 2988POPC   GL140777   0.350  43.919   5.903
 2988POPC   GL240778  44.975  44.030   5.856
 2988POPC   C1A40779   0.504  43.742   6.275
 2988POPC   D2A40780   0.504  44.111   6.500
 2988POPC   C3A40781   0.590  44.106   6.918
 2988POPC   C4A40782   0.791  43.798   7.152
 2988POPC   C1B40783   0.023  43.862   6.309
 2988POPC   C2B40784   0.201  43.763   6.725
 2988POPC   C3B40785   0.288  43.748   7.167
 2988POPC   C4B40786   0.156  43.914   7.558
 2989POPC   NC340787  13.682  18.830   5.251
 2989POPC   PO440788  13.495  19.432   5.177
 2989POPC   GL140789  13.770  19.233   5.579
 2989POPC   GL240790  13.590  18.949   5.742
 2989POPC   C1A40791  13.815  19.249   6.097
 2989POPC   D2A40792  13.541  19.090   6.469
 2989POPC   C3A40793  13.686  19.175   6.897
 2989POPC   C4A40794  13.425  19.021   7.267
 2989POPC   C1B40795  13.730  18.744   6.129
 2989POPC   C2B40796  13.698  18.566   6.505
 2989POPC   C3B40797  13.517  18.704   6.861
 2989POPC   C4B40798  13.804  18.683   7.200
 2990POPC   NC340799  11.441   4.647   5.700
 2990POPC   PO440800  11.216   4.094   5.524
 2990POPC   GL140801  11.342   3.957   5.930
 2990POPC   GL240802  11.519   4.237   5.994
 2990POPC   C1A40803  11.324   4.051   6.407
 2990POPC   D2A40804  11.239   4.398   6.679
 2990POPC   C3A40805  11.239   4.248   7.067
 2990POPC   C4A40806  11.435   4.235   7.474
 2990POPC   C1B40807  11.606   4.538   6.342
 2990POPC   C2B40808  11.757   4.502   6.771
 2990POPC   C3B40809  11.540   4.638   7.175
 2990POPC   C4B40810  11.374   4.708   7.636
 2991POPC   NC340811  36.249   0.065   5.209
 2991POPC   PO440812  35.932   0.552   5.596
 2991POPC   GL140813  35.910   0.500   5.986
 2991POPC   GL240814  36.237   0.552   6.022
 2991POPC   C1A40815  35.903   0.564   6.408
 2991POPC   D2A40816  35.998   0.325   6.740
 2991POPC   C3A40817  35.712   0.442   7.036
 2991POPC   C4A40818  35.738   0.811   7.275
 2991POPC   C1B40819  36.382   0.295   6.347
 2991POPC   C2B40820  36.481   0.067   6.716
 2991POPC   C3B40821  36.194   0.003   7.070
 2991POPC   C4B40822  36.124   0.380   7.334
 2992POPC   NC340823  11.038  40.876   5.331
 2992POPC   PO440824  11.623  41.227   5.343
 2992POPC   GL140825  11.382  40.963   5.714
 2992POPC   GL240826  11.000  40.973   5.831
 2992POPC   C1A40827  11.336  40.841   6.179
 2992POPC   D2A40828  11.394  41.016   6.625
 2992POPC   C3A40829  11.274  40.696   6.957
 2992POPC   C4A40830  11.226  40.654   7.415
 2992POPC   C1B40831  10.834  40.976   6.276
 2992POPC   C2B40832  10.922  41.157   6.704
 2992POPC   C3B40833  11.048  41.100   7.173
 2992POPC   C4B40834  10.891  40.994   7.616
 2993POPC   NC340835  26.704  16.151   5.380
 2993POPC   PO440836  27.249  15.781   5.364
 2993POPC   GL140837  26.975  15.735   5.704
 2993POPC   GL240838  26.901  16.076   5.845
 2993POPC   C1A40839  27.057  15.704   6.167
 2993POPC   D2A40840  27.029  15.925   6.564
 2993POPC   C3A40841  27.035  15.786   6.992
 2993POPC   C4A40842  27.043  16.144   7.252
 2993POPC   C1B40843  26.546  15.885   6.092
 2993POPC   C2B40844  26.548  15.770   6.530
 2993POPC   C3B40845  26.626  16.084   6.869
 2993POPC   C4B40846  26.301  16.299   7.102
 2994POPC   NC340847  13.186  11.285   5.524
 2994POPC   PO440848  12.632  11.397   5.361
 2994POPC   GL140849  12.756  11.321   5.796
 2994POPC   GL240850  12.897  11.621   5.805
 2994POPC   C1A40851  12.962  11.326   6.237
 2994POPC   D2A40852  12.942  11.460   6.698
 2994POPC   C3A40853  12.954  11.113   7.024
 2994POPC   C4A40854  12.798  10.793   7.344
 2994POPC   C1B40855  13.078  11.814   6.168
 2994POPC   C2B40856  13.360  11.682   6.483
 2994POPC   C3B40857  13.344  11.709   6.927
 2994POPC   C4B40858  12.981  11.639   7.194
 2995POPC   NC340859  19.196  44.098   5.105
 2995POPC   PO440860  19.095  43.542   5.474
 2995POPC   GL140861  18.933  43.833   5.827
 2995POPC   GL240862  18.924  44.194   5.719
 2995POPC   C1A40863  18.881  43.850   6.303
 2995POPC   D2A40864  18.945  43.632   6.700
 2995POPC   C3A40865  18.953  43.882   7.050
 2995POPC   C4A40866  18.989  43.870   7.490
 2995POPC   C1B40867  19.004  44.325   6.163
 2995POPC   C2B40868  18.965  44.341   6.622
 2995POPC   C3B40869  19.192  44.330   7.027
 2995POPC   C4B40870  19.155  44.353   7.487
 2996POPC   NC340871  41.909  35.288   5.195
 2996POPC   PO440872  41.281  35.415   5.393
 2996POPC   GL140873  41.416  35.320   5.800
 2996POPC   GL240874  41.752  35.274   5.722
 2996POPC   C1A40875  41.474  35.173   6.230
 2996POPC   D2A40876  41.228  35.227   6.581
 2996POPC   C3A40877  41.373  35.083   6.944
 2996POPC   C4A40878  41.541  35.308   7.252
 2996POPC   C1B40879  41.881  35.458   6.127
 2996POPC   C2B40880  41.586  35.618   6.460
 2996POPC   C3B40881  41.565  35.679   6.884
 2996POPC   C4B40882  41.779  35.732   7.306
 2997POPC   NC340883  38.394  34.796   5.496
 2997POPC   PO440884  38.493  34.173   5.460
 2997POPC   GL140885  38.768  34.408   5.742
 2997POPC   GL240886  38.863  34.760   5.724
 2997POPC   C1A40887  38.796  34.392   6.177
 2997POPC   D2A40888  38.462  34.490   6.498
 2997POPC   C3A40889  38.631  34.497   6.914
 2997POPC   C4A40890  38.445  34.523   7.300
 2997POPC   C1B40891  38.566  34.844   6.105
 2997POPC   C2B40892  38.429  35.023   6.494
 2997POPC   C3B40893  38.340  34.904   6.890
 2997POPC   C4B40894  38.340  35.021   7.298
 2998POPC   NC340895  22.393   6.578   5.331
 2998POPC   PO440896  22.239   6.007   5.616
 2998POPC   GL140897  22.058   5.846   5.983
 2998POPC   GL240898  22.285   5.971   6.154
 2998POPC   C1A40899  21.887   5.566   6.291
 2998POPC   D2A40900  21.771   5.537   6.736
 2998POPC   C3A40901  21.843   5.789   7.115
 2998POPC   C4A40902  21.983   5.649   7.530
 2998POPC   C1B40903  22.102   5.957   6.576
 2998POPC   C2B40904  22.340   5.939   6.975
 2998POPC   C3B40905  22.687   6.212   7.190
 2998POPC   C4B40906  22.857   6.188   7.647
 2999POPC   NC340907  28.571  14.708   5.467
 2999POPC   PO440908  28.411  15.303   5.134
 2999POPC   GL140909  28.416  15.299   5.608
 2999POPC   GL240910  28.749  15.419   5.731
 2999POPC   C1A40911  28.378  15.084   6.018
 2999POPC   D2A40912  28.177  14.891   6.385
 2999POPC   C3A40913  28.308  15.009   6.800
 2999POPC   C4A40914  28.244  15.131   7.197
 2999POPC   C1B40915  28.574  15.527   6.162
 2999POPC   C2B40916  28.329  15.443   6.541
 2999POPC   C3B40917  28.527  15.489   6.987
 2999POPC   C4B40918  28.723  15.246   7.337
 3000POPC   NC340919  34.872  43.785   5.356
 3000POPC   PO440920  34.294  44.048   5.293
 3000POPC   GL140921  34.512  43.942   5.741
 3000POPC   GL240922  34.883  43.997   5.822
 3000POPC   C1A40923  34.545  44.023   6.224
 3000POPC   D2A40924  34.621  44.162   6.673
 3000POPC   C3A40925  34.659  43.868   6.996
 3000POPC   C4A40926  34.528  43.973   7.398
 3000POPC   C1B40927  34.860  43.621   6.101
 3000POPC   C2B40928  34.715  43.574   6.537
 3000POPC   C3B40929  34.855  43.391   6.910
 3000POPC   C4B40930  35.044  43.411   7.276
 3001POPC   NC340931  24.641  36.782   5.118
 3001POPC   PO440932  24.767  37.203   5.614
 3001POPC   GL140933  24.493  37.030   5.903
 3001POPC   GL240934  24.357  36.704   5.871
 3001POPC   C1A40935  24.451  36.992   6.325
 3001POPC   D2A40936  24.640  37.112   6.686
 3001POPC   C3A40937  24.457  36.856   6.941
 3001POPC   C4A40938  24.378  36.962   7.307
 3001POPC   C1B40939  24.725  36.610   6.123
 3001POPC   C2B40940  24.882  36.687   6.557
 3001POPC   C3B40941  24.833  36.523   6.991
 3001POPC   C4B40942  24.789  36.702   7.443
 3002POPC   NC340943  41.897  36.727   5.548
 3002POPC   PO440944  41.460  37.184   5.318
 3002POPC   GL140945  41.404  36.955   5.754
 3002POPC   GL240946  41.696  36.941   5.956
 3002POPC   C1A40947  41.307  36.747   6.217
 3002POPC   D2A40948  41.525  36.722   6.648
 3002POPC   C3A40949  41.556  37.124   6.842
 3002POPC   C4A40950  41.480  37.158   7.259
 3002POPC   C1B40951  41.845  36.656   6.253
 3002POPC   C2B40952  42.057  36.842   6.631
 3002POPC   C3B40953  41.990  36.934   7.066
 3002POPC   C4B40954  41.635  36.691   7.220
 3003POPC   NC340955   4.959  25.342   5.426
 3003POPC   PO440956   4.256  25.314   5.286
 3003POPC   GL140957   4.190  25.256   5.733
 3003POPC   GL240958   4.510  25.403   5.788
 3003POPC   C1A40959   4.229  25.214   6.214
 3003POPC   D2A40960   4.051  25.403   6.633
 3003POPC   C3A40961   3.941  25.086   6.947
 3003POPC   C4A40962   4.224  24.981   7.253
 3003POPC   C1B40963   4.519  25.645   6.188
 3003POPC   C2B40964   4.571  25.557   6.665
 3003POPC   C3B40965   4.554  25.593   7.137
 3003POPC   C4B40966   4.779  25.616   7.539
 3004POPC   NC340967  28.560  11.331   5.190
 3004POPC   PO440968  27.981  11.155   5.436
 3004POPC   GL140969  28.235  11.391   5.759
 3004POPC   GL240970  28.553  11.481   5.689
 3004POPC   C1A40971  28.310  11.644   6.141
 3004POPC   D2A40972  28.422  11.454   6.528
 3004POPC   C3A40973  28.279  11.513   6.942
 3004POPC   C4A40974  28.370  11.185   7.214
 3004POPC   C1B40975  28.668  11.306   6.098
 3004POPC   C2B40976  28.917  11.364   6.510
 3004POPC   C3B40977  28.807  11.263   6.931
 3004POPC   C4B40978  28.879  11.331   7.378
 3005POPC   NC340979   8.558   2.341   5.462
 3005POPC   PO440980   9.043   1.934   5.368
 3005POPC   GL140981   8.835   1.965   5.722
 3005POPC   GL240982   8.935   2.298   5.817
 3005POPC   C1A40983   8.829   1.769   6.131
 3005POPC   D2A40984   8.656   1.683   6.559
 3005POPC   C3A40985   8.890   1.795   6.949
 3005POPC   C4A40986   8.789   2.151   7.230
 3005POPC   C1B40987   9.269   2.036   6.030
 3005POPC   C2B40988   9.332   1.984   6.493
 3005POPC   C3B40989   9.199   2.223   6.880
 3005POPC   C4B40990   9.282   2.139   7.300
 3006POPC   NC340991  12.283  19.670   5.089
 3006POPC   PO440992  11.908  19.120   5.386
 3006POPC   GL140993  11.904  19.195   5.776
 3006POPC   GL240994  12.234  19.060   5.798
 3006POPC   C1A40995  11.781  19.052   6.158
 3006POPC   D2A40996  11.926  18.866   6.524
 3006POPC   C3A40997  11.778  19.051   6.885
 3006POPC   C4A40998  11.922  18.884   7.271
 3006POPC   C1B40999  12.316  19.117   6.207
 3006POPC   C2B41000  12.461  18.932   6.575
 3006POPC   C3B41001  12.287  19.061   6.941
 3006POPC   C4B41002  12.440  19.095   7.356
 3007POPC   NC341003  41.705  43.576   5.122
 3007POPC   PO441004  41.353  44.063   5.426
 3007POPC   GL141005  41.203  43.961   5.820
 3007POPC   GL241006  41.507  44.011   6.029
 3007POPC   C1A41007  41.082  43.807   6.240
 3007POPC   D2A41008  41.321  44.012   6.532
 3007POPC   C3A41009  41.398  43.892   6.957
 3007POPC   C4A41010  41.726  44.113   7.171
 3007POPC   C1B41011  41.570  43.641   6.248
 3007POPC   C2B41012  41.491  43.521   6.609
 3007POPC   C3B41013  41.688  43.479   6.964
 3007POPC   C4B41014  41.586  43.425   7.352
 3008POPC   NC341015  35.221  20.854   5.410
 3008POPC   PO441016  35.746  20.643   5.387
 3008POPC   GL141017  35.690  20.609   5.838
 3008POPC   GL241018  35.405  20.417   5.966
 3008POPC   C1A41019  35.643  20.759   6.297
 3008POPC   D2A41020  35.521  20.571   6.711
 3008POPC   C3A41021  35.608  20.718   7.149
 3008POPC   C4A41022  35.831  20.559   7.511
 3008POPC   C1B41023  35.765  20.270   6.226
 3008POPC   C2B41024  35.947  20.254   6.648
 3008POPC   C3B41025  35.691  20.200   7.029
 3008POPC   C4B41026  35.367  20.298   7.339
 3009POPC   NC341027  11.658  27.757   5.496
 3009POPC   PO441028  11.159  27.400   5.717
 3009POPC   GL141029  11.501  27.502   5.918
 3009POPC   GL241030  11.717  27.220   5.819
 3009POPC   C1A41031  11.391  27.664   6.335
 3009POPC   D2A41032  11.031  27.868   6.590
 3009POPC   C3A41033  11.153  27.741   7.017
 3009POPC   C4A41034  11.231  27.325   7.155
 3009POPC   C1B41035  11.776  27.315   6.288
 3009POPC   C2B41036  11.782  27.575   6.697
 3009POPC   C3B41037  11.681  27.554   7.170
 3009POPC   C4B41038  11.562  27.285   7.570
 3010POPC   NC341039  26.248  36.479   5.426
 3010POPC   PO441040  25.844  35.838   5.448
 3010POPC   GL141041  25.939  36.164   5.791
 3010POPC   GL241042  26.303  36.186   5.855
 3010POPC   C1A41043  25.917  36.060   6.253
 3010POPC   D2A41044  25.947  35.860   6.682
 3010POPC   C3A41045  25.828  36.056   7.093
 3010POPC   C4A41046  25.806  36.127   7.585
 3010POPC   C1B41047  26.260  36.477   6.187
 3010POPC   C2B41048  26.178  36.623   6.609
 3010POPC   C3B41049  26.242  36.459   7.016
 3010POPC   C4B41050  26.246  36.266   7.412
 3011POPC   NC341051  38.962  26.715   5.483
 3011POPC   PO441052  39.397  27.239   5.364
 3011POPC   GL141053  39.398  26.936   5.674
 3011POPC   GL241054  39.155  27.114   5.845
 3011POPC   C1A41055  39.331  26.657   6.050
 3011POPC   D2A41056  39.153  26.812   6.447
 3011POPC   C3A41057  39.220  26.678   6.890
 3011POPC   C4A41058  39.484  26.719   7.275
 3011POPC   C1B41059  38.806  27.086   6.120
 3011POPC   C2B41060  38.738  27.213   6.527
 3011POPC   C3B41061  38.780  27.027   6.918
 3011POPC   C4B41062  39.075  27.062   7.209
 3012POPC   NC341063   0.641   5.037   5.468
 3012POPC   PO441064   0.631   5.660   5.404
 3012POPC   GL141065   0.514   5.375   5.817
 3012POPC   GL241066   0.284   5.025   5.829
 3012POPC   C1A41067   0.669   5.060   6.153
 3012POPC   D2A41068   0.602   4.880   6.561
 3012POPC   C3A41069   0.538   5.192   6.901
 3012POPC   C4A41070   0.479   5.277   7.364
 3012POPC   C1B41071   0.242   4.757   6.227
 3012POPC   C2B41072   0.096   4.869   6.668
 3012POPC   C3B41073   0.108   5.024   7.134
 3012POPC   C4B41074   0.246   4.796   7.580
 3013POPC   NC341075  30.440  25.898   5.379
 3013POPC   PO441076  30.835  26.433   5.306
 3013POPC   GL141077  30.720  26.188   5.691
 3013POPC   GL241078  30.412  26.236   5.772
 3013POPC   C1A41079  30.714  26.105   6.151
 3013POPC   D2A41080  30.542  25.914   6.565
 3013POPC   C3A41081  30.810  25.998   6.905
 3013POPC   C4A41082  30.744  26.330   7.209
 3013POPC   C1B41083  30.196  26.249   6.151
 3013POPC   C2B41084  30.100  26.193   6.570
 3013POPC   C3B41085  30.307  26.297   6.930
 3013POPC   C4B41086  30.203  26.360   7.336
 3014POPC   NC341087   1.440  33.238   5.407
 3014POPC   PO441088   1.140  32.677   5.328
 3014POPC   GL141089   1.101  32.877   5.768
 3014POPC   GL241090   1.039  33.240   5.760
 3014POPC   C1A41091   1.274  32.873   6.251
 3014POPC   D2A41092   1.123  33.018   6.680
 3014POPC   C3A41093   1.382  32.861   7.067
 3014POPC   C4A41094   1.626  32.764   7.443
 3014POPC   C1B41095   1.221  33.363   6.162
 3014POPC   C2B41096   1.489  33.463   6.534
 3014POPC   C3B41097   1.375  33.364   6.976
 3014POPC   C4B41098   0.976  33.217   7.171
 3015POPC   NC341099  20.185  44.159   5.371
 3015POPC   PO441100  19.745  43.750   5.141
 3015POPC   GL141101  19.714  43.998   5.560
 3015POPC   GL241102  19.473  44.273   5.717
 3015POPC   C1A41103  19.884  44.004   5.986
 3015POPC   D2A41104  19.797  43.880   6.411
 3015POPC   C3A41105  19.858  44.113   6.779
 3015POPC   C4A41106  20.068  43.970   7.155
 3015POPC   C1B41107  19.385  44.002   6.115
 3015POPC   C2B41108  19.334  43.986   6.602
 3015POPC   C3B41109  19.475  43.911   7.046
 3015POPC   C4B41110  19.344  43.566   7.291
 3016POPC   NC341111  15.249  28.777   5.643
 3016POPC   PO441112  15.265  29.260   5.113
 3016POPC   GL141113  15.090  29.278   5.582
 3016POPC   GL241114  15.361  29.226   5.849
 3016POPC   C1A41115  14.907  29.286   6.059
 3016POPC   D2A41116  15.054  29.376   6.506
 3016POPC   C3A41117  15.175  29.127   6.877
 3016POPC   C4A41118  14.962  29.097   7.270
 3016POPC   C1B41119  15.301  28.994   6.264
 3016POPC   C2B41120  15.367  28.694   6.602
 3016POPC   C3B41121  15.550  28.659   7.004
 3016POPC   C4B41122  15.477  29.004   7.278
 3017POPC   NC341123  21.535  32.421   5.322
 3017POPC   PO441124  20.933  32.066   5.421
 3017POPC   GL141125  21.159  32.290   5.767
 3017POPC   GL241126  21.548  32.266   5.813
 3017POPC   C1A41127  21.251  32.366   6.215
 3017POPC   D2A41128  21.458  32.504   6.609
 3017POPC   C3A41129  21.203  32.444   7.005
 3017POPC   C4A41130  21.074  32.439   7.450
 3017POPC   C1B41131  21.765  32.211   6.229
 3017POPC   C2B41132  22.077  32.346   6.534
 3017POPC   C3B41133  22.048  32.390   6.993
 3017POPC   C4B41134  21.763  32.158   7.276
 3018POPC   NC341135  40.545   3.827   5.364
 3018POPC   PO441136  41.107   3.692   5.399
 3018POPC   GL141137  40.811   3.533   5.726
 3018POPC   GL241138  40.552   3.796   5.871
 3018POPC   C1A41139  40.899   3.526   6.167
 3018POPC   D2A41140  40.674   3.478   6.550
 3018POPC   C3A41141  40.892   3.424   6.903
 3018POPC   C4A41142  40.732   3.603   7.230
 3018POPC   C1B41143  40.636   3.924   6.308
 3018POPC   C2B41144  41.042   3.844   6.556
 3018POPC   C3B41145  41.133   3.940   6.970
 3018POPC   C4B41146  41.128   3.833   7.393
 3019POPC   NC341147  21.179   7.786   5.543
 3019POPC   PO441148  21.053   8.385   5.270
 3019POPC   GL141149  21.396   8.432   5.600
 3019POPC   GL241150  21.557   8.102   5.698
 3019POPC   C1A41151  21.450   8.475   6.055
 3019POPC   D2A41152  21.285   8.395   6.476
 3019POPC   C3A41153  21.487   8.353   6.858
 3019POPC   C4A41154  21.361   8.462   7.257
 3019POPC   C1B41155  21.400   7.983   6.143
 3019POPC   C2B41156  21.621   7.976   6.529
 3019POPC   C3B41157  21.787   7.886   6.922
 3019POPC   C4B41158  21.540   7.983   7.234
 3020POPC   NC341159   7.775  14.120   5.573
 3020POPC   PO441160   8.361  14.311   5.287
 3020POPC   GL141161   8.299  14.263   5.738
 3020POPC   GL241162   7.996  14.400   5.911
 3020POPC   C1A41163   8.466  14.353   6.155
 3020POPC   D2A41164   8.504  14.576   6.563
 3020POPC   C3A41165   8.389  14.399   6.976
 3020POPC   C4A41166   8.015  14.501   7.189
 3020POPC   C1B41167   7.975  14.178   6.308
 3020POPC   C2B41168   7.963  14.209   6.746
 3020POPC   C3B41169   7.747  14.088   7.090
 3020POPC   C4B41170   7.853  14.093   7.525
 3021POPC   NC341171  38.208  25.282   4.939
 3021POPC   PO441172  38.471  24.972   5.498
 3021POPC   GL141173  38.539  25.217   5.871
 3021POPC   GL241174  38.462  25.564   5.794
 3021POPC   C1A41175  38.321  25.377   6.268
 3021POPC   D2A41176  38.192  25.240   6.695
 3021POPC   C3A41177  38.271  25.224   7.153
 3021POPC   C4A41178  38.188  24.888   7.504
 3021POPC   C1B41179  38.790  25.582   6.120
 3021POPC   C2B41180  38.744  25.573   6.543
 3021POPC   C3B41181  38.935  25.654   6.903
 3021POPC   C4B41182  38.766  25.514   7.258
 3022POPC   NC341183   8.503   0.673   5.292
 3022POPC   PO441184   8.047   0.219   5.260
 3022POPC   GL141185   8.214   0.338   5.695
 3022POPC   GL241186   8.194   0.687   5.717
 3022POPC   C1A41187   8.077   0.410   6.158
 3022POPC   D2A41188   7.897   0.731   6.445
 3022POPC   C3A41189   7.855   0.630   6.881
 3022POPC   C4A41190   8.196   0.448   7.098
 3022POPC   C1B41191   8.359   0.844   6.141
 3022POPC   C2B41192   8.408   0.707   6.573
 3022POPC   C3B41193   8.389   0.910   6.982
 3022POPC   C4B41194   8.561   0.771   7.362
 3023POPC   NC341195  37.611   6.913   5.260
 3023POPC   PO441196  37.644   6.328   5.480
 3023POPC   GL141197  37.347   6.570   5.750
 3023POPC   GL241198  36.957   6.607   5.770
 3023POPC   C1A41199  37.247   6.660   6.196
 3023POPC   D2A41200  37.396   6.725   6.620
 3023POPC   C3A41201  37.199   6.625   7.020
 3023POPC   C4A41202  37.147   6.960   7.289
 3023POPC   C1B41203  36.765   6.792   6.196
 3023POPC   C2B41204  36.851   6.845   6.680
 3023POPC   C3B41205  36.687   6.800   7.131
 3023POPC   C4B41206  36.404   6.768   7.487
 3024POPC   NC341207  19.248  18.732   5.389
 3024POPC   PO441208  18.908  19.249   5.468
 3024POPC   GL141209  19.169  19.170   5.777
 3024POPC   GL241210  19.138  18.846   5.876
 3024POPC   C1A41211  18.989  19.295   6.198
 3024POPC   D2A41212  18.735  19.372   6.639
 3024POPC   C3A41213  18.839  19.159   7.060
 3024POPC   C4A41214  19.248  19.077   7.236
 3024POPC   C1B41215  19.197  18.842   6.314
 3024POPC   C2B41216  19.177  18.903   6.745
 3024POPC   C3B41217  19.076  18.621   7.078
 3024POPC   C4B41218  19.233  18.597   7.501
 3025POPC   NC341219   2.174  34.764   5.365
 3025POPC   PO441220   1.783  34.221   5.133
 3025POPC   GL141221   1.758  34.418   5.600
 3025POPC   GL241222   2.013  34.591   5.799
 3025POPC   C1A41223   1.758  34.279   6.074
 3025POPC   D2A41224   1.666  34.495   6.448
 3025POPC   C3A41225   1.924  34.410   6.793
 3025POPC   C4A41226   1.934  34.553   7.212
 3025POPC   C1B41227   2.166  34.755   6.190
 3025POPC   C2B41228   2.411  34.623   6.517
 3025POPC   C3B41229   2.297  34.738   6.901
 3025POPC   C4B41230   2.417  34.688   7.287
 3026POPC   NC341231  26.975   5.290   5.558
 3026POPC   PO441232  26.482   4.873   5.544
 3026POPC   GL141233  26.778   4.915   5.857
 3026POPC   GL241234  27.155   4.866   5.790
 3026POPC   C1A41235  26.697   5.174   6.198
 3026POPC   D2A41236  26.588   5.061   6.575
 3026POPC   C3A41237  26.649   5.269   6.882
 3026POPC   C4A41238  26.678   5.121   7.226
 3026POPC   C1B41239  27.148   4.966   6.255
 3026POPC   C2B41240  27.090   5.312   6.614
 3026POPC   C3B41241  27.111   5.378   7.085
 3026POPC   C4B41242  27.153   5.055   7.399
 3027POPC   NC341243  15.884  32.488   5.432
 3027POPC   PO441244  16.321  31.960   5.459
 3027POPC   GL141245  16.144  32.239   5.807
 3027POPC   GL241246  15.779  32.295   5.875
 3027POPC   C1A41247  16.082  32.204   6.250
 3027POPC   D2A41248  16.345  32.311   6.559
 3027POPC   C3A41249  16.215  32.118   6.908
 3027POPC   C4A41250  16.177  32.397   7.231
 3027POPC   C1B41251  15.780  32.644   6.135
 3027POPC   C2B41252  15.863  32.560   6.552
 3027POPC   C3B41253  15.737  32.325   6.904
 3027POPC   C4B41254  15.688  32.513   7.298
 3028POPC   NC341255  37.922  44.368   5.462
 3028POPC   PO441256  37.795  43.693   5.183
 3028POPC   GL141257  37.642  43.928   5.574
 3028POPC   GL241258  37.967  43.926   5.750
 3028POPC   C1A41259  37.562  43.862   6.052
 3028POPC   D2A41260  37.700  43.692   6.469
 3028POPC   C3A41261  37.760  43.911   6.876
 3028POPC   C4A41262  37.466  43.922   7.230
 3028POPC   C1B41263  38.062  43.969   6.195
 3028POPC   C2B41264  37.951  44.267   6.529
 3028POPC   C3B41265  38.093  44.319   6.938
 3028POPC   C4B41266  38.257  44.055   7.258
 3029POPC   NC341267   8.679  16.448   5.388
 3029POPC   PO441268   9.234  16.811   5.366
 3029POPC   GL141269   9.041  16.644   5.740
 3029POPC   GL241270   8.740  16.848   5.788
 3029POPC   C1A41271   9.015  16.367   6.127
 3029POPC   D2A41272   8.907  16.476   6.571
 3029POPC   C3A41273   8.982  16.359   7.032
 3029POPC   C4A41274   8.787  16.542   7.417
 3029POPC   C1B41275   8.913  16.871   6.189
 3029POPC   C2B41276   8.907  17.040   6.573
 3029POPC   C3B41277   8.818  16.849   6.974
 3029POPC   C4B41278   8.693  17.049   7.346
 3030POPC   NC341279  26.829  12.824   5.564
 3030POPC   PO441280  27.159  13.335   5.432
 3030POPC   GL141281  27.043  13.188   5.880
 3030POPC   GL241282  26.645  13.112   5.934
 3030POPC   C1A41283  26.918  13.233   6.326
 3030POPC   D2A41284  26.822  12.965   6.633
 3030POPC   C3A41285  27.166  12.840   6.865
 3030POPC   C4A41286  27.320  13.172   7.118
 3030POPC   C1B41287  26.752  12.715   6.195
 3030POPC   C2B41288  26.896  12.469   6.551
 3030POPC   C3B41289  26.768  12.511   6.947
 3030POPC   C4B41290  26.691  12.914   7.120
 3031POPC   NC341291  30.241  27.405   5.446
 3031POPC   PO441292  29.678  27.733   5.564
 3031POPC   GL141293  29.862  27.420   5.787
 3031POPC   GL241294  30.106  27.642   5.887
 3031POPC   C1A41295  29.734  27.362   6.189
 3031POPC   D2A41296  29.810  27.537   6.570
 3031POPC   C3A41297  29.834  27.279   6.888
 3031POPC   C4A41298  29.773  27.456   7.271
 3031POPC   C1B41299  30.224  27.471   6.270
 3031POPC   C2B41300  30.377  27.625   6.642
 3031POPC   C3B41301  30.215  27.640   7.032
 3031POPC   C4B41302  30.416  27.832   7.363
 3032POPC   NC341303  17.731   6.417   5.138
 3032POPC   PO441304  17.519   5.791   5.259
 3032POPC   GL141305  17.450   5.842   5.755
 3032POPC   GL241306  17.273   6.123   5.788
 3032POPC   C1A41307  17.586   5.978   6.220
 3032POPC   D2A41308  17.473   6.046   6.685
 3032POPC   C3A41309  17.450   5.692   7.013
 3032POPC   C4A41310  17.596   5.693   7.448
 3032POPC   C1B41311  17.091   6.073   6.207
 3032POPC   C2B41312  17.015   5.826   6.567
 3032POPC   C3B41313  17.041   5.969   6.971
 3032POPC   C4B41314  17.303   6.150   7.273
 3033POPC   NC341315  18.843   4.452   5.333
 3033POPC   PO441316  19.164   3.927   5.555
 3033POPC   GL141317  19.052   4.063   5.899
 3033POPC   GL241318  19.321   3.820   6.034
 3033POPC   C1A41319  18.805   4.278   6.239
 3033POPC   D2A41320  18.666   4.437   6.646
 3033POPC   C3A41321  18.869   4.318   7.023
 3033POPC   C4A41322  19.110   4.437   7.376
 3033POPC   C1B41323  19.306   4.158   6.328
 3033POPC   C2B41324  19.175   4.521   6.552
 3033POPC   C3B41325  19.357   4.553   6.938
 3033POPC   C4B41326  19.595   4.327   7.216
 3034POPC   NC341327   5.856  34.862   5.333
 3034POPC   PO441328   6.207  34.307   5.403
 3034POPC   GL141329   6.040  34.517   5.782
 3034POPC   GL241330   5.778  34.779   5.832
 3034POPC   C1A41331   5.904  34.348   6.201
 3034POPC   D2A41332   5.621  34.245   6.558
 3034POPC   C3A41333   5.663  34.416   6.977
 3034POPC   C4A41334   5.600  34.579   7.387
 3034POPC   C1B41335   5.808  34.833   6.261
 3034POPC   C2B41336   5.956  34.697   6.664
 3034POPC   C3B41337   5.818  34.907   7.058
 3034POPC   C4B41338   5.876  35.008   7.539
 3035POPC   NC341339  35.597  30.464   5.370
 3035POPC   PO441340  36.262  30.632   5.124
 3035POPC   GL141341  36.109  30.511   5.595
 3035POPC   GL241342  35.812  30.363   5.803
 3035POPC   C1A41343  36.220  30.519   6.062
 3035POPC   D2A41344  36.242  30.749   6.467
 3035POPC   C3A41345  36.273  30.531   6.861
 3035POPC   C4A41346  36.225  30.665   7.250
 3035POPC   C1B41347  35.716  30.537   6.207
 3035POPC   C2B41348  35.733  30.754   6.608
 3035POPC   C3B41349  35.764  30.597   7.034
 3035POPC   C4B41350  35.805  30.292   7.383
 3036POPC   NC341351  30.897  10.846   5.659
 3036POPC   PO441352  30.349  10.507   5.609
 3036POPC   GL141353  30.639  10.463   5.923
 3036POPC   GL241354  30.942  10.335   5.866
 3036POPC   C1A41355  30.688  10.646   6.330
 3036POPC   D2A41356  30.412  10.652   6.698
 3036POPC   C3A41357  30.597  10.446   7.040
 3036POPC   C4A41358  30.870  10.701   7.259
 3036POPC   C1B41359  30.907  10.175   6.263
 3036POPC   C2B41360  30.973  10.357   6.670
 3036POPC   C3B41361  31.050  10.197   7.075
 3036POPC   C4B41362  30.849  10.238   7.490
 3037POPC   NC341363   1.008  38.872   5.577
 3037POPC   PO441364   1.548  39.289   5.374
 3037POPC   GL141365   1.293  39.248   5.766
 3037POPC   GL241366   1.419  38.938   5.874
 3037POPC   C1A41367   1.046  39.239   6.167
 3037POPC   D2A41368   1.131  39.453   6.561
 3037POPC   C3A41369   1.207  39.209   6.949
 3037POPC   C4A41370   1.553  39.286   7.222
 3037POPC   C1B41371   1.457  38.785   6.268
 3037POPC   C2B41372   1.556  38.979   6.637
 3037POPC   C3B41373   1.568  38.805   7.017
 3037POPC   C4B41374   1.363  38.830   7.403
 3038POPC   NC341375  37.395  36.729   5.481
 3038POPC   PO441376  36.794  36.917   5.211
 3038POPC   GL141377  36.861  36.873   5.688
 3038POPC   GL241378  37.087  36.659   5.893
 3038POPC   C1A41379  36.802  37.054   6.118
 3038POPC   D2A41380  36.964  37.320   6.464
 3038POPC   C3A41381  36.822  37.154   6.864
 3038POPC   C4A41382  36.995  36.937   7.206
 3038POPC   C1B41383  36.674  36.568   6.075
 3038POPC   C2B41384  36.588  36.620   6.505
 3038POPC   C3B41385  36.812  36.603   6.873
 3038POPC   C4B41386  36.703  36.548   7.300
 3039POPC   NC341387  29.021  43.383   5.488
 3039POPC   PO441388  29.363  42.784   5.427
 3039POPC   GL141389  29.468  43.078   5.740
 3039POPC   GL241390  29.559  42.763   5.915
 3039POPC   C1A41391  29.594  43.260   6.147
 3039POPC   D2A41392  29.425  43.344   6.538
 3039POPC   C3A41393  29.447  43.207   6.962
 3039POPC   C4A41394  29.103  43.416   7.149
 3039POPC   C1B41395  29.252  42.900   6.242
 3039POPC   C2B41396  29.090  42.964   6.685
 3039POPC   C3B41397  29.126  42.795   7.115
 3039POPC   C4B41398  28.984  42.653   7.553
 3040POPC   NC341399  22.808  21.528   5.028
 3040POPC   PO441400  23.075  20.977   5.332
 3040POPC   GL141401  22.919  21.224   5.738
 3040POPC   GL241402  23.043  21.553   5.848
 3040POPC   C1A41403  22.763  21.297   6.186
 3040POPC   D2A41404  22.711  21.064   6.574
 3040POPC   C3A41405  22.867  21.288   6.954
 3040POPC   C4A41406  22.878  21.636   7.240
 3040POPC   C1B41407  23.285  21.403   6.157
 3040POPC   C2B41408  23.185  21.293   6.555
 3040POPC   C3B41409  23.336  21.487   6.952
 3040POPC   C4B41410  23.353  21.487   7.399
 3041POPC   NC341411  30.954  22.746   5.606
 3041POPC   PO441412  30.407  23.094   5.409
 3041POPC   GL141413  30.454  23.285   5.831
 3041POPC   GL241414  30.583  22.955   5.915
 3041POPC   C1A41415  30.485  23.247   6.307
 3041POPC   D2A41416  30.413  22.957   6.608
 3041POPC   C3A41417  30.561  23.138   6.980
 3041POPC   C4A41418  30.570  23.130   7.417
 3041POPC   C1B41419  30.819  22.843   6.300
 3041POPC   C2B41420  30.852  22.731   6.752
 3041POPC   C3B41421  30.892  22.788   7.204
 3041POPC   C4B41422  31.066  23.058   7.544
 3042POPC   NC341423  18.940  39.323   5.392
 3042POPC   PO441424  19.437  38.864   5.324
 3042POPC   GL141425  19.298  39.162   5.717
 3042POPC   GL241426  18.931  39.139   5.860
 3042POPC   C1A41427  19.205  39.452   6.101
 3042POPC   D2A41428  19.269  39.351   6.511
 3042POPC   C3A41429  19.033  39.485   6.853
 3042POPC   C4A41430  19.245  39.376   7.223
 3042POPC   C1B41431  18.831  38.936   6.261
 3042POPC   C2B41432  19.003  38.953   6.664
 3042POPC   C3B41433  18.887  39.048   7.078
 3042POPC   C4B41434  18.599  39.045   7.412
 3043POPC   NC341435  14.015   4.172   5.429
 3043POPC   PO441436  13.443   4.234   5.018
 3043POPC   GL141437  13.494   4.179   5.522
 3043POPC   GL241438  13.431   4.542   5.647
 3043POPC   C1A41439  13.697   4.166   6.012
 3043POPC   D2A41440  13.761   4.333   6.485
 3043POPC   C3A41441  13.716   4.155   6.944
 3043POPC   C4A41442  13.538   4.021   7.360
 3043POPC   C1B41443  13.494   4.616   6.096
 3043POPC   C2B41444  13.347   4.664   6.478
 3043POPC   C3B41445  13.454   4.600   6.885
 3043POPC   C4B41446  13.690   4.642   7.253
 3044POPC   NC341447   4.352   4.683   5.280
 3044POPC   PO441448   4.368   5.319   5.376
 3044POPC   GL141449   4.338   4.978   5.700
 3044POPC   GL241450   4.538   4.657   5.824
 3044POPC   C1A41451   4.365   5.019   6.133
 3044POPC   D2A41452   4.361   5.281   6.496
 3044POPC   C3A41453   4.454   5.112   6.912
 3044POPC   C4A41454   4.342   4.979   7.306
 3044POPC   C1B41455   4.793   4.761   6.238
 3044POPC   C2B41456   4.814   4.788   6.708
 3044POPC   C3B41457   4.742   4.636   7.156
 3044POPC   C4B41458   4.543   4.616   7.584
 3045POPC   NC341459  44.925  20.083   5.242
 3045POPC   PO441460  44.389  19.639   5.379
 3045POPC   GL141461  44.577  19.800   5.789
 3045POPC   GL241462  44.705  20.124   5.796
 3045POPC   C1A41463  44.798  19.716   6.224
 3045POPC   D2A41464  44.772  19.521   6.650
 3045POPC   C3A41465  44.863  19.707   7.026
 3045POPC   C4A41466  44.675  19.702   7.440
 3045POPC   C1B41467  44.465  20.106   6.211
 3045POPC   C2B41468  44.568  20.078   6.684
 3045POPC   C3B41469  44.589  20.150   7.133
 3045POPC   C4B41470  44.838  20.169   7.548
 3046POPC   NC341471  31.309  30.288   5.398
 3046POPC   PO441472  31.200  30.931   5.316
 3046POPC   GL141473  31.217  31.047   5.718
 3046POPC   GL241474  31.440  30.763   5.817
 3046POPC   C1A41475  31.124  30.997   6.132
 3046POPC   D2A41476  31.223  31.128   6.548
 3046POPC   C3A41477  31.486  30.815   6.781
 3046POPC   C4A41478  31.394  30.732   7.234
 3046POPC   C1B41479  31.538  30.549   6.220
 3046POPC   C2B41480  31.662  30.345   6.609
 3046POPC   C3B41481  31.708  30.399   7.053
 3046POPC   C4B41482  31.541  30.308   7.461
 3047POPC   NC341483  22.979  19.449   5.492
 3047POPC   PO441484  22.878  18.811   5.387
 3047POPC   GL141485  23.095  18.932   5.752
 3047POPC   GL241486  22.757  18.997   5.853
 3047POPC   C1A41487  23.128  19.163   6.169
 3047POPC   D2A41488  23.198  18.983   6.605
 3047POPC   C3A41489  23.126  19.177   7.022
 3047POPC   C4A41490  23.134  18.899   7.355
 3047POPC   C1B41491  22.913  18.719   6.207
 3047POPC   C2B41492  22.702  19.045   6.476
 3047POPC   C3B41493  22.499  19.178   6.849
 3047POPC   C4B41494  22.664  19.004   7.231
 3048POPC   NC341495   7.080  22.988   5.588
 3048POPC   PO441496   6.357  22.933   5.377
 3048POPC   GL141497   6.555  22.836   5.758
 3048POPC   GL241498   6.615  23.155   5.803
 3048POPC   C1A41499   6.424  22.790   6.187
 3048POPC   D2A41500   6.490  22.953   6.596
 3048POPC   C3A41501   6.814  22.792   6.846
 3048POPC   C4A41502   6.678  22.680   7.216
 3048POPC   C1B41503   6.849  23.072   6.192
 3048POPC   C2B41504   6.902  23.248   6.559
 3048POPC   C3B41505   6.794  23.287   6.978
 3048POPC   C4B41506   6.980  23.063   7.322
 3049POPC   NC341507  37.116  42.794   5.653
 3049POPC   PO441508  36.689  42.364   5.298
 3049POPC   GL141509  36.886  42.316   5.703
 3049POPC   GL241510  36.645  42.600   5.768
 3049POPC   C1A41511  37.030  42.154   6.125
 3049POPC   D2A41512  36.942  41.988   6.560
 3049POPC   C3A41513  37.110  42.268   6.931
 3049POPC   C4A41514  37.289  42.639   7.199
 3049POPC   C1B41515  36.506  42.236   6.029
 3049POPC   C2B41516  36.503  42.264   6.477
 3049POPC   C3B41517  36.559  42.115   6.894
 3049POPC   C4B41518  36.814  41.993   7.248
 3050POPC   NC341519   7.310  10.125   5.456
 3050POPC   PO441520   7.712  10.666   5.552
 3050POPC   GL141521   7.485  10.698   5.907
 3050POPC   GL241522   7.294  10.386   5.910
 3050POPC   C1A41523   7.489  10.832   6.329
 3050POPC   D2A41524   7.459  10.575   6.697
 3050POPC   C3A41525   7.754  10.477   7.004
 3050POPC   C4A41526   7.860  10.877   7.169
 3050POPC   C1B41527   7.084  10.261   6.309
 3050POPC   C2B41528   7.022  10.327   6.768
 3050POPC   C3B41529   7.289  10.225   7.125
 3050POPC   C4B41530   7.248  10.380   7.532
 3051POPC   NC341531   5.658  36.492   5.458
 3051POPC   PO441532   5.952  35.987   5.196
 3051POPC   GL141533   5.982  36.110   5.673
 3051POPC   GL241534   6.183  36.406   5.777
 3051POPC   C1A41535   5.771  36.259   6.106
 3051POPC   D2A41536   5.577  36.435   6.515
 3051POPC   C3A41537   5.684  36.283   6.912
 3051POPC   C4A41538   5.597  35.942   7.218
 3051POPC   C1B41539   6.214  36.517   6.243
 3051POPC   C2B41540   6.165  36.508   6.725
 3051POPC   C3B41541   6.144  36.333   7.165
 3051POPC   C4B41542   6.403  36.227   7.538
 3052POPC   NC341543  28.801   4.927   5.325
 3052POPC   PO441544  29.225   5.415   5.421
 3052POPC   GL141545  29.170   5.139   5.762
 3052POPC   GL241546  29.480   5.076   5.772
 3052POPC   C1A41547  28.946   4.987   6.159
 3052POPC   D2A41548  28.801   4.971   6.628
 3052POPC   C3A41549  28.895   5.289   6.991
 3052POPC   C4A41550  29.016   5.101   7.394
 3052POPC   C1B41551  29.333   5.324   6.179
 3052POPC   C2B41552  29.232   5.240   6.612
 3052POPC   C3B41553  29.227   4.880   6.956
 3052POPC   C4B41554  29.418   4.780   7.387
 3053POPC   NC341555   3.183   9.234   5.357
 3053POPC   PO441556   3.850   9.093   5.165
 3053POPC   GL141557   3.709   8.943   5.630
 3053POPC   GL241558   3.372   9.045   5.788
 3053POPC   C1A41559   3.741   8.846   6.104
 3053POPC   D2A41560   3.800   9.030   6.525
 3053POPC   C3A41561   3.779   8.821   6.918
 3053POPC   C4A41562   3.825   8.948   7.324
 3053POPC   C1B41563   3.241   9.120   6.229
 3053POPC   C2B41564   3.311   9.044   6.693
 3053POPC   C3B41565   3.396   9.150   7.117
 3053POPC   C4B41566   3.410   9.201   7.537
 3054POPC   NC341567   3.800  14.520   5.364
 3054POPC   PO441568   3.154  14.278   5.399
 3054POPC   GL141569   3.305  14.456   5.754
 3054POPC   GL241570   3.608  14.320   5.812
 3054POPC   C1A41571   3.438  14.643   6.153
 3054POPC   D2A41572   3.655  14.431   6.476
 3054POPC   C3A41573   3.513  14.479   6.899
 3054POPC   C4A41574   3.645  14.562   7.310
 3054POPC   C1B41575   3.336  14.131   6.155
 3054POPC   C2B41576   3.425  13.986   6.564
 3054POPC   C3B41577   3.261  14.048   6.954
 3054POPC   C4B41578   3.317  14.153   7.403
 3055POPC   NC341579   5.896   0.665   5.665
 3055POPC   PO441580   5.856   0.061   5.451
 3055POPC   GL141581   5.668   0.223   5.814
 3055POPC   GL241582   5.506  44.980   5.936
 3055POPC   C1A41583   5.756   0.281   6.269
 3055POPC   D2A41584   5.981   0.349   6.632
 3055POPC   C3A41585   5.789   0.474   7.009
 3055POPC   C4A41586   6.034   0.334   7.330
 3055POPC   C1B41587   5.517  44.788   6.343
 3055POPC   C2B41588   5.605   0.010   6.738
 3055POPC   C3B41589   5.656   0.010   7.196
 3055POPC   C4B41590   5.544   0.284   7.537
 3056POPC   NC341591  29.683   5.458   5.486
 3056POPC   PO441592  30.067   4.885   5.476
 3056POPC   GL141593  30.103   5.145   5.791
 3056POPC   GL241594  29.845   5.359   5.975
 3056POPC   C1A41595  30.182   5.063   6.208
 3056POPC   D2A41596  29.971   5.257   6.517
 3056POPC   C3A41597  30.070   4.988   6.853
 3056POPC   C4A41598  30.042   4.978   7.266
 3056POPC   C1B41599  29.681   4.963   6.205
 3056POPC   C2B41600  29.609   4.909   6.609
 3056POPC   C3B41601  29.630   5.210   6.953
 3056POPC   C4B41602  29.620   5.242   7.383
 3057POPC   NC341603  10.110  23.513   5.499
 3057POPC   PO441604  10.724  23.935   5.544
 3057POPC   GL141605  10.636  23.693   5.866
 3057POPC   GL241606  10.319  23.821   5.873
 3057POPC   C1A41607  10.549  23.571   6.291
 3057POPC   D2A41608  10.662  23.689   6.699
 3057POPC   C3A41609  10.390  23.525   7.047
 3057POPC   C4A41610  10.430  23.651   7.528
 3057POPC   C1B41611  10.194  23.972   6.245
 3057POPC   C2B41612  10.362  24.128   6.619
 3057POPC   C3B41613  10.276  24.066   7.061
 3057POPC   C4B41614  10.006  23.805   7.264
 3058POPC   NC341615   4.229  12.819   5.043
 3058POPC   PO441616   4.588  12.581   5.516
 3058POPC   GL141617   4.266  12.807   5.708
 3058POPC   GL241618   4.386  13.123   5.572
 3058POPC   C1A41619   4.058  12.792   6.130
 3058POPC   D2A41620   4.247  12.737   6.544
 3058POPC   C3A41621   4.072  12.766   6.944
 3058POPC   C4A41622   4.112  12.530   7.287
 3058POPC   C1B41623   4.384  13.161   6.059
 3058POPC   C2B41624   4.503  13.184   6.500
 3058POPC   C3B41625   4.385  13.179   6.918
 3058POPC   C4B41626   4.332  13.058   7.328
 3059POPC   NC341627  21.516  12.274   5.435
 3059POPC   PO441628  21.047  11.786   5.381
 3059POPC   GL141629  21.213  11.941   5.772
 3059POPC   GL241630  21.548  11.860   5.782
 3059POPC   C1A41631  21.192  12.018   6.216
 3059POPC   D2A41632  21.438  11.861   6.574
 3059POPC   C3A41633  21.217  11.966   6.961
 3059POPC   C4A41634  21.271  11.909   7.406
 3059POPC   C1B41635  21.695  12.136   6.166
 3059POPC   C2B41636  21.819  12.243   6.627
 3059POPC   C3B41637  21.667  12.192   7.075
 3059POPC   C4B41638  21.660  12.166   7.564
 3060POPC   NC341639  19.245  38.429   5.279
 3060POPC   PO441640  18.626  38.386   5.019
 3060POPC   GL141641  18.750  38.465   5.545
 3060POPC   GL241642  19.023  38.690   5.660
 3060POPC   C1A41643  18.834  38.447   6.077
 3060POPC   D2A41644  18.738  38.439   6.552
 3060POPC   C3A41645  18.989  38.534   6.926
 3060POPC   C4A41646  18.905  38.626   7.369
 3060POPC   C1B41647  19.284  38.762   6.054
 3060POPC   C2B41648  19.435  38.589   6.471
 3060POPC   C3B41649  19.452  38.264   6.807
 3060POPC   C4B41650  19.291  38.261   7.232
 3061POPC   NC341651  23.833   8.557   5.372
 3061POPC   PO441652  23.393   9.034   5.493
 3061POPC   GL141653  23.686   8.808   5.790
 3061POPC   GL241654  23.565   8.469   5.811
 3061POPC   C1A41655  23.941   8.720   6.182
 3061POPC   D2A41656  24.003   8.677   6.653
 3061POPC   C3A41657  23.835   8.995   6.943
 3061POPC   C4A41658  23.762   8.900   7.371
 3061POPC   C1B41659  23.343   8.681   6.142
 3061POPC   C2B41660  23.432   8.919   6.515
 3061POPC   C3B41661  23.348   8.868   6.951
 3061POPC   C4B41662  23.313   9.127   7.302
 3062POPC   NC341663  26.647  30.294   5.462
 3062POPC   PO441664  26.599  29.664   5.424
 3062POPC   GL141665  26.902  29.905   5.714
 3062POPC   GL241666  26.629  29.957   5.903
 3062POPC   C1A41667  27.063  30.094   6.146
 3062POPC   D2A41668  27.061  29.941   6.585
 3062POPC   C3A41669  26.971  30.144   7.004
 3062POPC   C4A41670  26.931  29.833   7.383
 3062POPC   C1B41671  26.588  30.200   6.264
 3062POPC   C2B41672  26.565  30.053   6.674
 3062POPC   C3B41673  26.552  29.858   7.061
 3062POPC   C4B41674  26.613  30.235   7.357
 3063POPC   NC341675   0.518  19.624   5.463
 3063POPC   PO441676   0.453  20.290   5.268
 3063POPC   GL141677   0.478  20.087   5.742
 3063POPC   GL241678   0.217  20.219   5.949
 3063POPC   C1A41679   0.362  19.806   6.174
 3063POPC   D2A41680   0.540  19.867   6.573
 3063POPC   C3A41681   0.432  19.667   6.946
 3063POPC   C4A41682   0.651  19.315   7.069
 3063POPC   C1B41683  44.971  20.189   6.274
 3063POPC   C2B41684   0.055  19.981   6.629
 3063POPC   C3B41685   0.199  20.105   7.014
 3063POPC   C4B41686   0.182  19.848   7.389
 3064POPC   NC341687  31.433  40.636   5.115
 3064POPC   PO441688  31.173  41.149   5.503
 3064POPC   GL141689  31.327  40.847   5.806
 3064POPC   GL241690  31.386  40.474   5.741
 3064POPC   C1A41691  31.460  40.932   6.227
 3064POPC   D2A41692  31.253  40.914   6.648
 3064POPC   C3A41693  31.379  41.041   7.053
 3064POPC   C4A41694  31.261  41.000   7.500
 3064POPC   C1B41695  31.555  40.316   6.165
 3064POPC   C2B41696  31.462  40.205   6.620
 3064POPC   C3B41697  31.410  40.513   6.961
 3064POPC   C4B41698  31.635  40.680   7.328
 3065POPC   NC341699  11.471  18.929   5.529
 3065POPC   PO441700  10.876  19.053   5.382
 3065POPC   GL141701  11.098  19.228   5.763
 3065POPC   GL241702  11.403  19.428   5.667
 3065POPC   C1A41703  11.222  19.046   6.183
 3065POPC   D2A41704  11.280  18.832   6.610
 3065POPC   C3A41705  11.061  18.975   6.991
 3065POPC   C4A41706  11.115  19.002   7.455
 3065POPC   C1B41707  11.460  19.486   6.089
 3065POPC   C2B41708  11.507  19.308   6.510
 3065POPC   C3B41709  11.360  19.395   6.908
 3065POPC   C4B41710  11.521  19.235   7.284
 3066POPC   NC341711  25.430   6.651   5.226
 3066POPC   PO441712  24.997   6.987   5.039
 3066POPC   GL141713  25.170   6.983   5.567
 3066POPC   GL241714  25.351   6.683   5.727
 3066POPC   C1A41715  25.174   7.000   6.070
 3066POPC   D2A41716  25.092   7.071   6.536
 3066POPC   C3A41717  25.200   6.735   6.838
 3066POPC   C4A41718  25.273   6.789   7.279
 3066POPC   C1B41719  25.500   6.535   6.167
 3066POPC   C2B41720  25.722   6.508   6.598
 3066POPC   C3B41721  25.693   6.612   7.030
 3066POPC   C4B41722  25.557   6.371   7.409
 3067POPC   NC341723  40.895  26.518   5.483
 3067POPC   PO441724  40.643  25.858   5.475
 3067POPC   GL141725  40.751  26.119   5.821
 3067POPC   GL241726  40.552  26.420   5.855
 3067POPC   C1A41727  40.961  26.077   6.226
 3067POPC   D2A41728  41.230  25.928   6.564
 3067POPC   C3A41729  41.019  26.067   6.935
 3067POPC   C4A41730  40.689  25.946   7.228
 3067POPC   C1B41731  40.442  26.197   6.242
 3067POPC   C2B41732  40.478  26.041   6.666
 3067POPC   C3B41733  40.511  26.345   6.980
 3067POPC   C4B41734  40.899  26.498   7.172
 3068POPC   NC341735  29.608   8.644   5.475
 3068POPC   PO441736  29.641   9.296   5.294
 3068POPC   GL141737  29.754   9.102   5.706
 3068POPC   GL241738  29.564   9.343   5.886
 3068POPC   C1A41739  29.894   8.895   6.119
 3068POPC   D2A41740  30.016   8.677   6.510
 3068POPC   C3A41741  29.814   8.713   6.905
 3068POPC   C4A41742  30.054   8.752   7.276
 3068POPC   C1B41743  30.004   9.405   6.065
 3068POPC   C2B41744  30.204   9.214   6.439
 3068POPC   C3B41745  30.103   9.167   6.883
 3068POPC   C4B41746  29.773   9.176   7.193
 3069POPC   NC341747  37.832  39.588   5.481
 3069POPC   PO441748  37.464  39.039   5.408
 3069POPC   GL141749  37.583  39.249   5.779
 3069POPC   GL241750  37.938  39.212   5.823
 3069POPC   C1A41751  37.402  39.289   6.165
 3069POPC   D2A41752  37.329  39.019   6.493
 3069POPC   C3A41753  37.421  39.294   6.828
 3069POPC   C4A41754  37.524  39.411   7.210
 3069POPC   C1B41755  37.852  39.036   6.251
 3069POPC   C2B41756  37.813  39.002   6.715
 3069POPC   C3B41757  37.922  39.085   7.150
 3069POPC   C4B41758  38.043  38.850   7.511
 3070POPC   NC341759   2.238  38.082   5.483
 3070POPC   PO441760   1.838  37.612   5.486
 3070POPC   GL141761   1.867  37.600   5.887
 3070POPC   GL241762   2.197  37.704   5.842
 3070POPC   C1A41763   1.761  37.790   6.281
 3070POPC   D2A41764   1.576  37.841   6.704
 3070POPC   C3A41765   1.831  37.647   7.067
 3070POPC   C4A41766   2.054  37.625   7.508
 3070POPC   C1B41767   2.274  37.527   6.238
 3070POPC   C2B41768   2.492  37.566   6.620
 3070POPC   C3B41769   2.406  37.668   7.048
 3070POPC   C4B41770   2.282  37.284   7.232
 3071POPC   NC341771   3.377  33.137   5.537
 3071POPC   PO441772   2.730  32.986   5.320
 3071POPC   GL141773   2.815  32.856   5.776
 3071POPC   GL241774   2.656  32.490   5.803
 3071POPC   C1A41775   2.946  33.065   6.219
 3071POPC   D2A41776   3.047  33.314   6.644
 3071POPC   C3A41777   2.926  33.140   7.095
 3071POPC   C4A41778   2.790  33.321   7.520
 3071POPC   C1B41779   2.576  32.672   6.213
 3071POPC   C2B41780   2.492  33.042   6.491
 3071POPC   C3B41781   2.480  32.919   6.923
 3071POPC   C4B41782   2.608  32.677   7.245
 3072POPC   NC341783  22.699  42.746   5.550
 3072POPC   PO441784  22.375  42.080   5.504
 3072POPC   GL141785  22.626  42.279   5.837
 3072POPC   GL241786  22.722  41.991   5.989
 3072POPC   C1A41787  22.781  42.467   6.235
 3072POPC   D2A41788  22.899  42.547   6.669
 3072POPC   C3A41789  22.770  42.538   7.095
 3072POPC   C4A41790  23.063  42.390   7.418
 3072POPC   C1B41791  22.440  42.095   6.333
 3072POPC   C2B41792  22.528  42.138   6.795
 3072POPC   C3B41793  22.838  42.014   7.112
 3072POPC   C4B41794  22.915  41.910   7.550
 3073POPC   NC341795  25.336  33.269   4.872
 3073POPC   PO441796  25.059  32.934   5.314
 3073POPC   GL141797  25.106  32.843   5.755
 3073POPC   GL241798  24.783  32.707   5.818
 3073POPC   C1A41799  25.320  33.024   6.124
 3073POPC   D2A41800  25.267  33.252   6.531
 3073POPC   C3A41801  25.489  33.084   6.896
 3073POPC   C4A41802  25.363  33.121   7.322
 3073POPC   C1B41803  24.877  32.783   6.235
 3073POPC   C2B41804  25.194  32.740   6.554
 3073POPC   C3B41805  25.122  32.747   7.002
 3073POPC   C4B41806  24.792  32.725   7.267
 3074POPC   NC341807   4.899  19.138   5.518
 3074POPC   PO441808   4.220  18.978   5.483
 3074POPC   GL141809   4.366  18.978   5.905
 3074POPC   GL241810   4.603  19.216   5.929
 3074POPC   C1A41811   4.211  19.015   6.314
 3074POPC   D2A41812   4.283  19.218   6.682
 3074POPC   C3A41813   4.019  19.130   7.012
 3074POPC   C4A41814   4.237  19.307   7.340
 3074POPC   C1B41815   4.701  19.162   6.366
 3074POPC   C2B41816   4.773  19.372   6.717
 3074POPC   C3B41817   4.722  19.348   7.148
 3074POPC   C4B41818   4.749  19.270   7.585
 3075POPC   NC341819  29.806  17.691   5.311
 3075POPC   PO441820  30.248  17.160   5.279
 3075POPC   GL141821  29.996  17.133   5.713
 3075POPC   GL241822  29.928  17.453   5.752
 3075POPC   C1A41823  29.673  17.173   6.113
 3075POPC   D2A41824  29.500  17.419   6.515
 3075POPC   C3A41825  29.703  17.494   6.947
 3075POPC   C4A41826  29.705  17.628   7.426
 3075POPC   C1B41827  30.141  17.361   6.145
 3075POPC   C2B41828  30.110  17.452   6.553
 3075POPC   C3B41829  30.141  17.255   6.926
 3075POPC   C4B41830  30.151  17.459   7.258
 3076POPC   NC341831  24.261  29.516   5.559
 3076POPC   PO441832  24.046  28.935   5.496
 3076POPC   GL141833  23.675  29.133   5.740
 3076POPC   GL241834  23.731  29.495   5.664
 3076POPC   C1A41835  23.464  29.090   6.173
 3076POPC   D2A41836  23.600  29.087   6.601
 3076POPC   C3A41837  23.389  29.031   6.987
 3076POPC   C4A41838  23.522  28.977   7.398
 3076POPC   C1B41839  23.670  29.550   6.125
 3076POPC   C2B41840  23.787  29.568   6.589
 3076POPC   C3B41841  23.683  29.430   7.033
 3076POPC   C4B41842  23.713  29.463   7.497
 3077POPC   NC341843  39.690   5.612   5.358
 3077POPC   PO441844  39.212   6.103   5.303
 3077POPC   GL141845  39.284   5.820   5.682
 3077POPC   GL241846  38.986   5.603   5.767
 3077POPC   C1A41847  39.423   5.780   6.128
 3077POPC   D2A41848  39.452   5.979   6.533
 3077POPC   C3A41849  39.333   5.760   6.912
 3077POPC   C4A41850  39.223   6.090   7.180
 3077POPC   C1B41851  38.931   5.858   6.146
 3077POPC   C2B41852  38.971   5.768   6.545
 3077POPC   C3B41853  38.831   5.830   6.941
 3077POPC   C4B41854  38.937   5.696   7.319
 3078POPC   NC341855  31.160  36.198   5.338
 3078POPC   PO441856  31.273  35.576   5.315
 3078POPC   GL141857  31.500  35.937   5.606
 3078POPC   GL241858  31.419  36.294   5.732
 3078POPC   C1A41859  31.654  36.011   6.067
 3078POPC   D2A41860  31.859  35.959   6.478
 3078POPC   C3A41861  31.585  35.865   6.854
 3078POPC   C4A41862  31.448  35.947   7.301
 3078POPC   C1B41863  31.208  36.317   6.103
 3078POPC   C2B41864  31.354  36.228   6.501
 3078POPC   C3B41865  31.254  36.252   6.917
 3078POPC   C4B41866  31.525  36.446   7.191
 3079POPC   NC341867   0.615  25.939   5.565
 3079POPC   PO441868   0.261  26.461   5.422
 3079POPC   GL141869   0.306  26.279   5.830
 3079POPC   GL241870   0.647  26.204   5.975
 3079POPC   C1A41871   0.250  26.259   6.276
 3079POPC   D2A41872   0.534  26.106   6.579
 3079POPC   C3A41873   0.339  26.160   6.966
 3079POPC   C4A41874   0.421  26.147   7.419
 3079POPC   C1B41875   0.777  25.834   6.182
 3079POPC   C2B41876   0.784  25.642   6.581
 3079POPC   C3B41877   0.752  25.829   6.978
 3079POPC   C4B41878   0.707  25.600   7.351
 3080POPC   NC341879  20.132  26.160   5.589
 3080POPC   PO441880  20.698  26.144   5.194
 3080POPC   GL141881  20.621  26.288   5.707
 3080POPC   GL241882  20.485  25.982   5.912
 3080POPC   C1A41883  20.605  26.351   6.224
 3080POPC   D2A41884  20.431  26.159   6.656
 3080POPC   C3A41885  20.589  25.986   7.051
 3080POPC   C4A41886  20.969  25.803   7.278
 3080POPC   C1B41887  20.166  25.983   6.267
 3080POPC   C2B41888  19.953  25.921   6.692
 3080POPC   C3B41889  20.072  25.877   7.117
 3080POPC   C4B41890  20.229  26.175   7.394
 3081POPC   NC341891  36.630  34.352   5.071
 3081POPC   PO441892  36.954  33.898   5.428
 3081POPC   GL141893  36.843  33.758   5.837
 3081POPC   GL241894  36.796  34.116   5.899
 3081POPC   C1A41895  36.903  33.796   6.297
 3081POPC   D2A41896  36.966  34.123   6.598
 3081POPC   C3A41897  37.186  34.024   6.956
 3081POPC   C4A41898  37.097  33.815   7.356
 3081POPC   C1B41899  36.585  34.250   6.269
 3081POPC   C2B41900  36.549  34.384   6.725
 3081POPC   C3B41901  36.705  34.111   7.099
 3081POPC   C4B41902  36.772  34.152   7.588
 3082POPC   NC341903  24.726  18.787   5.321
 3082POPC   PO441904  24.331  18.243   5.296
 3082POPC   GL141905  24.554  18.314   5.669
 3082POPC   GL241906  24.433  18.629   5.766
 3082POPC   C1A41907  24.475  18.224   6.118
 3082POPC   D2A41908  24.662  18.376   6.498
 3082POPC   C3A41909  24.537  18.301   6.900
 3082POPC   C4A41910  24.532  18.164   7.298
 3082POPC   C1B41911  24.787  18.652   6.083
 3082POPC   C2B41912  24.881  18.830   6.525
 3082POPC   C3B41913  24.998  18.687   6.932
 3082POPC   C4B41914  25.003  18.338   7.196
 3083POPC   NC341915  27.301  19.937   5.403
 3083POPC   PO441916  27.852  19.519   5.523
 3083POPC   GL141917  27.616  19.804   5.780
 3083POPC   GL241918  27.917  19.931   5.873
 3083POPC   C1A41919  27.568  20.046   6.197
 3083POPC   D2A41920  27.863  19.945   6.512
 3083POPC   C3A41921  27.715  19.982   6.923
 3083POPC   C4A41922  27.630  20.047   7.363
 3083POPC   C1B41923  27.826  19.560   6.170
 3083POPC   C2B41924  28.030  19.348   6.505
 3083POPC   C3B41925  27.966  19.406   6.935
 3083POPC   C4B41926  27.614  19.548   7.194
 3084POPC   NC341927  42.861  36.484   5.440
 3084POPC   PO441928  43.161  37.118   5.356
 3084POPC   GL141929  43.081  36.872   5.738
 3084POPC   GL241930  43.307  36.672   5.930
 3084POPC   C1A41931  42.997  37.039   6.159
 3084POPC   D2A41932  43.166  36.853   6.522
 3084POPC   C3A41933  42.977  36.961   6.884
 3084POPC   C4A41934  43.174  36.917   7.261
 3084POPC   C1B41935  42.936  36.526   6.192
 3084POPC   C2B41936  42.843  36.425   6.635
 3084POPC   C3B41937  42.905  36.486   7.089
 3084POPC   C4B41938  42.915  36.518   7.544
 3085POPC   NC341939   5.959  43.227   5.385
 3085POPC   PO441940   6.190  42.615   5.490
 3085POPC   GL141941   6.147  42.937   5.826
 3085POPC   GL241942   5.800  43.056   5.840
 3085POPC   C1A41943   6.073  43.042   6.284
 3085POPC   D2A41944   5.963  43.355   6.602
 3085POPC   C3A41945   5.846  43.290   6.996
 3085POPC   C4A41946   6.124  43.225   7.342
 3085POPC   C1B41947   5.587  42.880   6.191
 3085POPC   C2B41948   5.666  42.952   6.606
 3085POPC   C3B41949   5.949  42.810   6.905
 3085POPC   C4B41950   5.896  42.744   7.318
 3086POPC   NC341951  38.976   2.888   5.495
 3086POPC   PO441952  39.377   2.446   5.408
 3086POPC   GL141953  39.319   2.518   5.854
 3086POPC   GL241954  39.270   2.850   5.918
 3086POPC   C1A41955  39.302   2.499   6.328
 3086POPC   D2A41956  39.231   2.356   6.741
 3086POPC   C3A41957  39.393   2.569   7.136
 3086POPC   C4A41958  39.409   2.840   7.526
 3086POPC   C1B41959  39.438   3.019   6.306
 3086POPC   C2B41960  39.408   2.931   6.763
 3086POPC   C3B41961  39.116   3.024   7.128
 3086POPC   C4B41962  39.137   3.272   7.527
 3087POPC   NC341963  31.262  28.690   5.579
 3087POPC   PO441964  31.627  28.274   5.227
 3087POPC   GL141965  31.645  28.372   5.708
 3087POPC   GL241966  31.745  28.733   5.774
 3087POPC   C1A41967  31.470  28.205   6.148
 3087POPC   D2A41968  31.173  28.351   6.472
 3087POPC   C3A41969  31.441  28.288   6.839
 3087POPC   C4A41970  31.614  28.169   7.235
 3087POPC   C1B41971  31.507  28.705   6.173
 3087POPC   C2B41972  31.382  28.780   6.600
 3087POPC   C3B41973  31.196  28.696   6.994
 3087POPC   C4B41974  31.428  28.649   7.382
 3088POPC   NC341975  44.135  26.660   5.424
 3088POPC   PO441976  43.662  27.002   5.265
 3088POPC   GL141977  43.861  27.016   5.706
 3088POPC   GL241978  43.846  26.747   5.969
 3088POPC   C1A41979  43.943  27.229   6.107
 3088POPC   D2A41980  43.857  27.025   6.514
 3088POPC   C3A41981  44.145  27.058   6.852
 3088POPC   C4A41982  44.226  26.754   7.177
 3088POPC   C1B41983  43.502  26.654   6.309
 3088POPC   C2B41984  43.452  26.609   6.769
 3088POPC   C3B41985  43.715  26.808   7.053
 3088POPC   C4B41986  43.801  26.657   7.454
 3089POPC   NC341987   7.032  41.143   5.522
 3089POPC   PO441988   6.534  40.571   5.578
 3089POPC   GL141989   6.659  40.731   5.875
 3089POPC   GL241990   6.548  41.057   5.897
 3089POPC   C1A41991   6.520  40.535   6.245
 3089POPC   D2A41992   6.406  40.750   6.585
 3089POPC   C3A41993   6.509  40.577   6.960
 3089POPC   C4A41994   6.259  40.484   7.288
 3089POPC   C1B41995   6.791  40.969   6.294
 3089POPC   C2B41996   7.057  41.012   6.640
 3089POPC   C3B41997   6.900  41.156   6.990
 3089POPC   C4B41998   6.580  41.025   7.266
 3090POPC   NC341999  17.200  29.832   5.379
 3090POPC   PO442000  17.825  30.148   5.231
 3090POPC   GL142001  17.709  30.022   5.675
 3090POPC   GL242002  17.546  29.677   5.732
 3090POPC   C1A42003  17.716  29.973   6.146
 3090POPC   D2A42004  17.651  30.191   6.552
 3090POPC   C3A42005  17.837  30.118   6.960
 3090POPC   C4A42006  17.598  30.129   7.321
 3090POPC   C1B42007  17.279  29.591   6.099
 3090POPC   C2B42008  17.250  29.803   6.500
 3090POPC   C3B42009  17.456  29.798   6.915
 3090POPC   C4B42010  17.385  29.668   7.363
 3091POPC   NC342011  16.871  21.180   5.546
 3091POPC   PO442012  16.436  21.647   5.351
 3091POPC   GL142013  16.583  21.546   5.764
 3091POPC   GL242014  16.471  21.204   5.847
 3091POPC   C1A42015  16.868  21.682   6.123
 3091POPC   D2A42016  16.956  21.521   6.553
 3091POPC   C3A42017  16.859  21.721   6.966
 3091POPC   C4A42018  17.017  21.766   7.410
 3091POPC   C1B42019  16.790  21.180   6.182
 3091POPC   C2B42020  16.792  20.997   6.552
 3091POPC   C3B42021  16.741  21.170   6.914
 3091POPC   C4B42022  16.825  21.327   7.276
 3092POPC   NC342023   1.598  25.915   5.383
 3092POPC   PO442024   0.964  26.082   5.283
 3092POPC   GL142025   1.112  26.006   5.715
 3092POPC   GL242026   1.411  26.200   5.755
 3092POPC   C1A42027   1.286  25.870   6.135
 3092POPC   D2A42028   1.104  26.045   6.530
 3092POPC   C3A42029   1.286  25.938   6.908
 3092POPC   C4A42030   1.148  25.828   7.296
 3092POPC   C1B42031   1.625  26.273   6.148
 3092POPC   C2B42032   1.646  26.125   6.569
 3092POPC   C3B42033   1.776  26.138   6.997
 3092POPC   C4B42034   1.475  26.207   7.318
 3093POPC   NC342035  29.738  18.856   5.356
 3093POPC   PO442036  30.363  18.678   5.474
 3093POPC   GL142037  29.969  18.691   5.804
 3093POPC   GL242038  29.715  18.987   5.866
 3093POPC   C1A42039  29.810  18.705   6.269
 3093POPC   D2A42040  29.938  18.790   6.712
 3093POPC   C3A42041  29.767  18.810   7.148
 3093POPC   C4A42042  29.775  18.893   7.620
 3093POPC   C1B42043  29.667  19.193   6.326
 3093POPC   C2B42044  29.683  19.226   6.826
 3093POPC   C3B42045  29.573  19.266   7.298
 3093POPC   C4B42046  29.528  19.321   7.782
 3094POPC   NC342047  14.627  25.015   5.350
 3094POPC   PO442048  14.094  25.388   5.414
 3094POPC   GL142049  14.347  25.279   5.772
 3094POPC   GL242050  14.296  24.916   5.773
 3094POPC   C1A42051  14.213  25.343   6.230
 3094POPC   D2A42052  14.064  25.204   6.659
 3094POPC   C3A42053  14.292  25.456   6.977
 3094POPC   C4A42054  14.209  25.563   7.422
 3094POPC   C1B42055  14.424  24.875   6.201
 3094POPC   C2B42056  14.567  25.095   6.582
 3094POPC   C3B42057  14.462  24.967   7.014
 3094POPC   C4B42058  14.529  25.192   7.383
 3095POPC   NC342059  44.383  42.162   5.345
 3095POPC   PO442060  44.832  42.693   5.398
 3095POPC   GL142061  44.794  42.337   5.630
 3095POPC   GL242062   0.115  42.182   5.666
 3095POPC   C1A42063  44.553  42.290   6.027
 3095POPC   D2A42064  44.462  42.547   6.407
 3095POPC   C3A42065  44.520  42.300   6.784
 3095POPC   C4A42066  44.680  42.178   7.203
 3095POPC   C1B42067   0.065  42.348   6.068
 3095POPC   C2B42068  44.947  42.382   6.469
 3095POPC   C3B42069   0.030  42.193   6.826
 3095POPC   C4B42070   0.182  42.074   7.207
 3096POPC   NC342071  31.046   2.474   5.373
 3096POPC   PO442072  31.751   2.744   5.401
 3096POPC   GL142073  31.618   2.895   5.760
 3096POPC   GL242074  31.337   2.680   5.776
 3096POPC   C1A42075  31.782   2.874   6.181
 3096POPC   D2A42076  31.693   2.792   6.607
 3096POPC   C3A42077  31.885   2.908   7.001
 3096POPC   C4A42078  31.795   2.723   7.425
 3096POPC   C1B42079  31.264   3.006   6.107
 3096POPC   C2B42080  31.198   2.854   6.528
 3096POPC   C3B42081  31.349   2.846   6.985
 3096POPC   C4B42082  31.284   2.729   7.429
 3097POPC   NC342083  33.364  44.480   5.353
 3097POPC   PO442084  32.818  44.842   5.433
 3097POPC   GL142085  32.867  44.698   5.836
 3097POPC   GL242086  33.202  44.571   5.868
 3097POPC   C1A42087  32.951  44.928   6.221
 3097POPC   D2A42088  32.790  44.991   6.628
 3097POPC   C3A42089  32.976  44.720   6.908
 3097POPC   C4A42090  33.071  44.775   7.324
 3097POPC   C1B42091  33.212  44.459   6.299
 3097POPC   C2B42092  33.514  44.439   6.650
 3097POPC   C3B42093  33.369  44.352   7.072
 3097POPC   C4B42094  33.249  44.346   7.493
 3098POPC   NC342095  38.810  25.780   5.482
 3098POPC   PO442096  38.267  25.891   5.160
 3098POPC   GL142097  38.384  26.058   5.642
 3098POPC   GL242098  38.676  26.046   5.902
 3098POPC   C1A42099  38.262  26.317   6.012
 3098POPC   D2A42100  38.253  26.448   6.444
 3098POPC   C3A42101  38.296  26.237   6.808
 3098POPC   C4A42102  38.326  26.337   7.207
 3098POPC   C1B42103  38.535  26.011   6.336
 3098POPC   C2B42104  38.272  25.765   6.632
 3098POPC   C3B42105  38.364  25.775   7.059
 3098POPC   C4B42106  38.730  26.039   7.205
 3099POPC   NC342107  40.344  27.933   5.537
 3099POPC   PO442108  40.886  27.632   5.193
 3099POPC   GL142109  40.790  27.558   5.648
 3099POPC   GL242110  40.871  27.849   5.801
 3099POPC   C1A42111  40.750  27.403   6.097
 3099POPC   D2A42112  40.595  27.213   6.510
 3099POPC   C3A42113  40.681  27.442   6.918
 3099POPC   C4A42114  40.802  27.470   7.375
 3099POPC   C1B42115  41.037  27.920   6.228
 3099POPC   C2B42116  40.956  27.908   6.678
 3099POPC   C3B42117  40.846  27.929   7.097
 3099POPC   C4B42118  40.555  27.891   7.448
 3100POPC   NC342119  13.402  43.943   5.478
 3100POPC   PO442120  14.033  44.139   5.345
 3100POPC   GL142121  13.768  44.207   5.737
 3100POPC   GL242122  13.554  43.944   5.952
 3100POPC   C1A42123  13.816  44.323   6.177
 3100POPC   D2A42124  13.716  44.006   6.468
 3100POPC   C3A42125  13.564  44.038   6.877
 3100POPC   C4A42126  13.758  44.028   7.243
 3100POPC   C1B42127  13.371  43.676   6.284
 3100POPC   C2B42128  13.554  43.543   6.674
 3100POPC   C3B42129  13.718  43.469   7.070
 3100POPC   C4B42130  13.714  43.581   7.536
 3101POPC   NC342131  20.368  39.930   5.443
 3101POPC   PO442132  21.015  40.004   5.344
 3101POPC   GL142133  20.871  39.887   5.775
 3101POPC   GL242134  20.653  40.175   5.804
 3101POPC   C1A42135  20.695  39.861   6.216
 3101POPC   D2A42136  20.471  40.002   6.598
 3101POPC   C3A42137  20.657  39.869   6.986
 3101POPC   C4A42138  20.823  39.922   7.385
 3101POPC   C1B42139  20.395  40.312   6.176
 3101POPC   C2B42140  20.555  40.525   6.548
 3101POPC   C3B42141  20.443  40.397   6.960
 3101POPC   C4B42142  20.595  40.386   7.348
 3102POPC   NC342143  41.291   0.302   5.621
 3102POPC   PO442144  40.625   0.375   5.428
 3102POPC   GL142145  40.764   0.534   5.820
 3102POPC   GL242146  40.852   0.193   5.886
 3102POPC   C1A42147  40.882   0.510   6.283
 3102POPC   D2A42148  40.662   0.269   6.609
 3102POPC   C3A42149  40.594   0.566   6.916
 3102POPC   C4A42150  40.881   0.790   7.150
 3102POPC   C1B42151  41.148   0.063   6.220
 3102POPC   C2B42152  41.352   0.264   6.510
 3102POPC   C3B42153  41.121   0.434   6.809
 3102POPC   C4B42154  41.009   0.276   7.158
 3103POPC   NC342155   4.173   9.197   5.485
 3103POPC   PO442156   4.735   9.451   5.735
 3103POPC   GL142157   4.428   9.306   5.913
 3103POPC   GL242158   4.471   8.995   5.844
 3103POPC   C1A42159   4.172   9.205   6.222
 3103POPC   D2A42160   4.179   9.386   6.612
 3103POPC   C3A42161   4.154   9.168   6.987
 3103POPC   C4A42162   4.326   9.172   7.405
 3103POPC   C1B42163   4.629   8.914   6.219
 3103POPC   C2B42164   4.812   8.883   6.599
 3103POPC   C3B42165   4.606   8.897   6.989
 3103POPC   C4B42166   4.273   8.708   7.201
 3104POPC   NC342167  22.361  11.179   5.573
 3104POPC   PO442168  21.882  11.569   5.405
 3104POPC   GL142169  21.943  11.310   5.832
 3104POPC   GL242170  22.061  10.970   5.928
 3104POPC   C1A42171  22.071  11.290   6.329
 3104POPC   D2A42172  21.707  11.414   6.634
 3104POPC   C3A42173  21.826  11.308   7.036
 3104POPC   C4A42174  22.238  11.453   7.191
 3104POPC   C1B42175  22.499  11.053   6.168
 3104POPC   C2B42176  22.625  10.886   6.552
 3104POPC   C3B42177  22.594  11.037   6.974
 3104POPC   C4B42178  22.316  10.972   7.329
 3105POPC   NC342179   1.346  41.365   5.355
 3105POPC   PO442180   1.136  41.933   5.454
 3105POPC   GL142181   1.274  41.802   5.887
 3105POPC   GL242182   1.428  41.468   5.861
 3105POPC   C1A42183   1.255  41.910   6.355
 3105POPC   D2A42184   1.028  41.952   6.758
 3105POPC   C3A42185   1.237  41.649   7.044
 3105POPC   C4A42186   1.139  41.239   7.220
 3105POPC   C1B42187   1.667  41.607   6.224
 3105POPC   C2B42188   1.606  41.586   6.664
 3105POPC   C3B42189   1.630  41.318   7.022
 3105POPC   C4B42190   1.583  41.351   7.470
 3106POPC   NC342191  28.753   6.911   5.414
 3106POPC   PO442192  29.465   6.899   5.484
 3106POPC   GL142193  29.298   6.636   5.826
 3106POPC   GL242194  28.951   6.690   5.855
 3106POPC   C1A42195  29.254   6.438   6.238
 3106POPC   D2A42196  29.319   6.549   6.669
 3106POPC   C3A42197  29.026   6.383   6.982
 3106POPC   C4A42198  29.001   6.590   7.381
 3106POPC   C1B42199  29.144   6.949   6.193
 3106POPC   C2B42200  29.028   7.076   6.595
 3106POPC   C3B42201  28.949   6.899   6.955
 3106POPC   C4B42202  29.357   6.849   7.085
 3107POPC   NC342203  19.288  28.592   5.585
 3107POPC   PO442204  18.671  28.752   5.480
 3107POPC   GL142205  18.873  28.615   5.863
 3107POPC   GL242206  19.034  28.259   5.867
 3107POPC   C1A42207  19.028  28.601   6.277
 3107POPC   D2A42208  19.022  28.341   6.637
 3107POPC   C3A42209  19.078  28.506   7.067
 3107POPC   C4A42210  19.206  28.721   7.442
 3107POPC   C1B42211  19.318  28.143   6.218
 3107POPC   C2B42212  19.564  27.854   6.504
 3107POPC   C3B42213  19.486  27.838   6.975
 3107POPC   C4B42214  19.429  28.147   7.319
 3108POPC   NC342215  38.393  11.552   4.918
 3108POPC   PO442216  38.584  11.306   5.544
 3108POPC   GL142217  38.295  11.371   5.902
 3108POPC   GL242218  38.613  11.275   6.045
 3108POPC   C1A42219  38.336  11.579   6.317
 3108POPC   D2A42220  38.502  11.360   6.716
 3108POPC   C3A42221  38.369  11.307   7.206
 3108POPC   C4A42222  37.988  11.211   7.550
 3108POPC   C1B42223  38.908  11.041   6.245
 3108POPC   C2B42224  38.893  10.846   6.629
 3108POPC   C3B42225  38.703  10.986   6.987
 3108POPC   C4B42226  38.823  11.064   7.376
 3109POPC   NC342227  34.539  16.254   5.490
 3109POPC   PO442228  34.655  15.532   5.391
 3109POPC   GL142229  34.667  15.804   5.725
 3109POPC   GL242230  34.328  15.842   5.680
 3109POPC   C1A42231  34.767  15.950   6.150
 3109POPC   D2A42232  34.685  15.808   6.560
 3109POPC   C3A42233  34.912  15.954   6.880
 3109POPC   C4A42234  34.731  15.933   7.225
 3109POPC   C1B42235  34.266  16.058   6.080
 3109POPC   C2B42236  34.349  16.182   6.505
 3109POPC   C3B42237  34.280  15.995   6.926
 3109POPC   C4B42238  34.276  16.112   7.372
 3110POPC   NC342239   2.931   4.993   5.410
 3110POPC   PO442240   2.304   4.725   5.549
 3110POPC   GL142241   2.579   5.071   5.793
 3110POPC   GL242242   2.947   5.093   5.904
 3110POPC   C1A42243   2.612   5.195   6.246
 3110POPC   D2A42244   2.958   5.010   6.466
 3110POPC   C3A42245   2.849   4.857   6.868
 3110POPC   C4A42246   2.528   5.060   7.101
 3110POPC   C1B42247   3.026   5.488   6.132
 3110POPC   C2B42248   2.865   5.567   6.546
 3110POPC   C3B42249   3.019   5.349   6.898
 3110POPC   C4B42250   3.033   5.120   7.291
 3111POPC   NC342251  19.217  22.821   5.407
 3111POPC   PO442252  18.489  22.715   5.396
 3111POPC   GL142253  18.813  22.756   5.739
 3111POPC   GL242254  18.933  23.089   5.754
 3111POPC   C1A42255  19.150  22.607   6.045
 3111POPC   D2A42256  18.997  22.744   6.434
 3111POPC   C3A42257  19.093  22.720   6.843
 3111POPC   C4A42258  18.777  22.882   7.107
 3111POPC   C1B42259  19.190  23.112   6.124
 3111POPC   C2B42260  19.208  23.208   6.595
 3111POPC   C3B42261  19.170  23.213   7.068
 3111POPC   C4B42262  19.353  23.233   7.504
 3112POPC   NC342263  31.054   5.605   5.326
 3112POPC   PO442264  30.442   5.453   5.265
 3112POPC   GL142265  30.657   5.691   5.651
 3112POPC   GL242266  30.483   5.971   5.773
 3112POPC   C1A42267  30.850   5.601   6.099
 3112POPC   D2A42268  30.904   5.368   6.531
 3112POPC   C3A42269  30.753   5.601   6.910
 3112POPC   C4A42270  30.444   5.854   7.103
 3112POPC   C1B42271  30.589   6.070   6.190
 3112POPC   C2B42272  30.459   6.060   6.619
 3112POPC   C3B42273  30.550   6.315   6.987
 3112POPC   C4B42274  30.525   6.246   7.456
 3113POPC   NC342275  38.085  13.033   5.463
 3113POPC   PO442276  38.632  12.664   5.476
 3113POPC   GL142277  38.524  12.797   5.876
 3113POPC   GL242278  38.293  13.041   5.923
 3113POPC   C1A42279  38.291  12.665   6.246
 3113POPC   D2A42280  38.259  12.874   6.618
 3113POPC   C3A42281  38.207  12.649   6.967
 3113POPC   C4A42282  38.487  12.682   7.293
 3113POPC   C1B42283  38.485  13.215   6.270
 3113POPC   C2B42284  38.384  13.361   6.678
 3113POPC   C3B42285  38.500  13.133   7.047
 3113POPC   C4B42286  38.594  13.137   7.554
 3114POPC   NC342287  39.624  23.269   5.423
 3114POPC   PO442288  40.360  23.296   5.412
 3114POPC   GL142289  40.059  23.576   5.713
 3114POPC   GL242290  39.852  23.898   5.795
 3114POPC   C1A42291  40.215  23.792   6.109
 3114POPC   D2A42292  40.046  23.738   6.494
 3114POPC   C3A42293  40.162  23.846   6.885
 3114POPC   C4A42294  40.300  23.601   7.174
 3114POPC   C1B42295  39.725  24.051   6.231
 3114POPC   C2B42296  39.654  23.982   6.706
 3114POPC   C3B42297  39.758  24.051   7.145
 3114POPC   C4B42298  39.832  24.201   7.587
 3115POPC   NC342299  30.161  11.214   5.380
 3115POPC   PO442300  29.575  11.569   5.498
 3115POPC   GL142301  29.881  11.448   5.779
 3115POPC   GL242302  30.206  11.645   5.814
 3115POPC   C1A42303  29.776  11.492   6.206
 3115POPC   D2A42304  29.804  11.722   6.591
 3115POPC   C3A42305  29.807  11.477   6.972
 3115POPC   C4A42306  30.131  11.462   7.209
 3115POPC   C1B42307  30.259  11.346   6.145
 3115POPC   C2B42308  30.066  11.257   6.560
 3115POPC   C3B42309  30.029  10.992   6.898
 3115POPC   C4B42310  30.120  10.624   7.140
 3116POPC   NC342311  28.974  28.135   5.306
 3116POPC   PO442312  29.471  28.596   5.522
 3116POPC   GL142313  29.195  28.361   5.761
 3116POPC   GL242314  29.286  28.044   5.717
 3116POPC   C1A42315  29.235  28.287   6.215
 3116POPC   D2A42316  29.045  28.396   6.620
 3116POPC   C3A42317  29.377  28.357   6.898
 3116POPC   C4A42318  29.592  28.292   7.237
 3116POPC   C1B42319  28.903  27.976   5.966
 3116POPC   C2B42320  28.875  27.964   6.435
 3116POPC   C3B42321  29.050  27.959   6.893
 3116POPC   C4B42322  28.975  28.117   7.320
 3117POPC   NC342323  20.384  20.571   5.426
 3117POPC   PO442324  21.127  20.406   5.440
 3117POPC   GL142325  20.845  20.536   5.786
 3117POPC   GL242326  20.529  20.690   5.904
 3117POPC   C1A42327  20.883  20.606   6.242
 3117POPC   D2A42328  20.649  20.703   6.604
 3117POPC   C3A42329  20.670  20.360   6.908
 3117POPC   C4A42330  20.729  20.163   7.309
 3117POPC   C1B42331  20.264  20.910   6.246
 3117POPC   C2B42332  20.279  21.073   6.688
 3117POPC   C3B42333  20.561  20.950   7.042
 3117POPC   C4B42334  20.484  20.621   7.333
 3118POPC   NC342335  31.158  26.072   5.467
 3118POPC   PO442336  31.762  25.744   5.395
 3118POPC   GL142337  31.546  25.985   5.773
 3118POPC   GL242338  31.707  26.286   5.918
 3118POPC   C1A42339  31.248  26.165   6.108
 3118POPC   D2A42340  31.084  26.193   6.505
 3118POPC   C3A42341  31.407  26.338   6.762
 3118POPC   C4A42342  31.256  26.281   7.156
 3118POPC   C1B42343  31.744  26.026   6.257
 3118POPC   C2B42344  31.449  25.827   6.482
 3118POPC   C3B42345  31.307  25.841   6.884
 3118POPC   C4B42346  31.660  25.974   7.105
 3119POPC   NC342347  31.755  11.149   5.439
 3119POPC   PO442348  31.524  11.831   5.479
 3119POPC   GL142349  31.445  11.658   5.873
 3119POPC   GL242350  31.533  11.291   5.873
 3119POPC   C1A42351  31.382  11.523   6.305
 3119POPC   D2A42352  31.557  11.201   6.557
 3119POPC   C3A42353  31.441  11.213   7.001
 3119POPC   C4A42354  31.552  11.404   7.398
 3119POPC   C1B42355  31.603  10.921   6.122
 3119POPC   C2B42356  31.765  10.724   6.463
 3119POPC   C3B42357  31.752  10.808   6.861
 3119POPC   C4B42358  31.721  10.873   7.269
 3120POPC   NC342359   9.482  22.076   5.372
 3120POPC   PO442360   9.621  22.699   5.601
 3120POPC   GL142361   9.709  22.320   5.785
 3120POPC   GL242362  10.047  22.178   5.827
 3120POPC   C1A42363   9.624  22.158   6.173
 3120POPC   D2A42364   9.788  22.107   6.567
 3120POPC   C3A42365   9.492  22.161   6.916
 3120POPC   C4A42366   9.611  22.252   7.309
 3120POPC   C1B42367  10.178  21.941   6.213
 3120POPC   C2B42368  10.296  22.004   6.664
 3120POPC   C3B42369  10.019  22.088   7.020
 3120POPC   C4B42370  10.030  22.038   7.451
 3121POPC   NC342371  38.722  10.875   5.577
 3121POPC   PO442372  38.363  10.333   5.483
 3121POPC   GL142373  38.475  10.513   5.860
 3121POPC   GL242374  38.338  10.861   5.912
 3121POPC   C1A42375  38.611  10.622   6.257
 3121POPC   D2A42376  38.373  10.566   6.636
 3121POPC   C3A42377  38.601  10.506   7.002
 3121POPC   C4A42378  38.850  10.516   7.365
 3121POPC   C1B42379  38.332  11.023   6.371
 3121POPC   C2B42380  38.156  11.007   6.801
 3121POPC   C3B42381  38.229  10.832   7.217
 3121POPC   C4B42382  38.398  10.956   7.644
 3122POPC   NC342383   2.036   4.599   5.198
 3122POPC   PO442384   1.657   3.989   5.351
 3122POPC   GL142385   1.714   4.065   5.798
 3122POPC   GL242386   1.974   4.351   5.788
 3122POPC   C1A42387   1.788   4.119   6.265
 3122POPC   D2A42388   2.186   4.087   6.537
 3122POPC   C3A42389   2.099   4.157   6.959
 3122POPC   C4A42390   1.761   3.970   7.118
 3122POPC   C1B42391   2.163   4.479   6.205
 3122POPC   C2B42392   1.942   4.520   6.620
 3122POPC   C3B42393   1.745   4.507   7.071
 3122POPC   C4B42394   1.746   4.735   7.508
 3123POPC   NC342395  41.520  33.371   5.511
 3123POPC   PO442396  41.225  32.765   5.471
 3123POPC   GL142397  41.355  32.731   5.938
 3123POPC   GL242398  41.725  32.864   5.982
 3123POPC   C1A42399  41.464  32.761   6.402
 3123POPC   D2A42400  41.776  33.082   6.540
 3123POPC   C3A42401  41.872  33.156   6.969
 3123POPC   C4A42402  41.669  33.072   7.355
 3123POPC   C1B42403  41.471  33.219   6.143
 3123POPC   C2B42404  41.293  33.242   6.537
 3123POPC   C3B42405  41.349  33.220   6.963
 3123POPC   C4B42406  41.212  33.339   7.387
 3124POPC   NC342407  31.710  16.353   5.533
 3124POPC   PO442408  32.163  15.854   5.427
 3124POPC   GL142409  32.168  16.033   5.790
 3124POPC   GL242410  31.837  15.918   5.842
 3124POPC   C1A42411  32.280  15.921   6.194
 3124POPC   D2A42412  32.215  16.127   6.567
 3124POPC   C3A42413  32.386  15.917   6.925
 3124POPC   C4A42414  32.403  15.995   7.348
 3124POPC   C1B42415  31.835  16.203   6.186
 3124POPC   C2B42416  31.698  16.233   6.591
 3124POPC   C3B42417  31.873  16.026   6.955
 3124POPC   C4B42418  31.928  16.190   7.342
 3125POPC   NC342419   3.783  17.794   5.361
 3125POPC   PO442420   3.405  17.217   5.482
 3125POPC   GL142421   3.641  17.501   5.754
 3125POPC   GL242422   3.523  17.888   5.819
 3125POPC   C1A42423   3.780  17.585   6.155
 3125POPC   D2A42424   3.561  17.713   6.523
 3125POPC   C3A42425   3.678  17.662   6.935
 3125POPC   C4A42426   3.435  17.379   7.154
 3125POPC   C1B42427   3.269  17.602   6.106
 3125POPC   C2B42428   3.125  17.412   6.505
 3125POPC   C3B42429   3.124  17.679   6.880
 3125POPC   C4B42430   3.343  17.880   7.256
 3126POPC   NC342431  27.737   9.184   5.340
 3126POPC   PO442432  27.460   8.555   5.475
 3126POPC   GL142433  27.706   8.833   5.713
 3126POPC   GL242434  27.785   8.625   5.958
 3126POPC   C1A42435  27.623   9.156   6.057
 3126POPC   D2A42436  27.365   9.203   6.466
 3126POPC   C3A42437  27.560   9.129   6.890
 3126POPC   C4A42438  27.636   8.991   7.351
 3126POPC   C1B42439  27.484   8.711   6.273
 3126POPC   C2B42440  27.658   8.666   6.663
 3126POPC   C3B42441  27.487   8.629   7.038
 3126POPC   C4B42442  27.132   8.719   7.286
 3127POPC   NC342443  35.302   1.277   5.063
 3127POPC   PO442444  35.633   1.163   5.581
 3127POPC   GL142445  35.558   1.207   5.989
 3127POPC   GL242446  35.713   1.507   6.000
 3127POPC   C1A42447  35.459   0.979   6.378
 3127POPC   D2A42448  35.642   0.933   6.788
 3127POPC   C3A42449  35.299   1.077   7.093
 3127POPC   C4A42450  34.869   0.908   7.073
 3127POPC   C1B42451  35.776   1.375   6.411
 3127POPC   C2B42452  35.482   1.425   6.717
 3127POPC   C3B42453  35.703   1.373   7.061
 3127POPC   C4B42454  35.623   1.254   7.501
 3128POPC   NC342455  43.327  23.858   5.307
 3128POPC   PO442456  42.917  23.382   5.231
 3128POPC   GL142457  42.990  23.584   5.640
 3128POPC   GL242458  43.362  23.548   5.729
 3128POPC   C1A42459  43.050  23.776   6.051
 3128POPC   D2A42460  43.153  23.672   6.469
 3128POPC   C3A42461  43.329  23.998   6.717
 3128POPC   C4A42462  43.207  23.863   7.126
 3128POPC   C1B42463  43.497  23.235   6.044
 3128POPC   C2B42464  43.395  23.095   6.477
 3128POPC   C3B42465  43.300  23.315   6.857
 3128POPC   C4B42466  43.495  23.406   7.254
 3129POPC   NC342467   3.829  37.990   5.384
 3129POPC   PO442468   3.739  37.340   5.511
 3129POPC   GL142469   3.467  37.544   5.788
 3129POPC   GL242470   3.446  37.914   5.756
 3129POPC   C1A42471   3.521  37.610   6.222
 3129POPC   D2A42472   3.403  37.581   6.640
 3129POPC   C3A42473   3.734  37.536   6.881
 3129POPC   C4A42474   3.792  37.665   7.271
 3129POPC   C1B42475   3.188  37.984   6.144
 3129POPC   C2B42476   3.217  38.079   6.594
 3129POPC   C3B42477   3.387  37.943   7.006
 3129POPC   C4B42478   3.392  37.939   7.433
 3130POPC   NC342479  43.351  33.023   5.391
 3130POPC   PO442480  42.673  33.251   5.353
 3130POPC   GL142481  42.926  33.028   5.692
 3130POPC   GL242482  42.903  32.663   5.831
 3130POPC   C1A42483  43.177  33.125   6.053
 3130POPC   D2A42484  43.410  33.059   6.438
 3130POPC   C3A42485  43.270  33.226   6.820
 3130POPC   C4A42486  43.280  33.001   7.202
 3130POPC   C1B42487  43.089  32.681   6.287
 3130POPC   C2B42488  43.145  32.722   6.744
 3130POPC   C3B42489  42.881  32.703   7.129
 3130POPC   C4B42490  42.933  32.697   7.593
 3131POPC   NC342491  19.552  43.427   5.406
 3131POPC   PO442492  20.051  42.847   5.441
 3131POPC   GL142493  19.865  43.160   5.729
 3131POPC   GL242494  19.964  43.538   5.713
 3131POPC   C1A42495  19.739  43.076   6.162
 3131POPC   D2A42496  19.943  42.875   6.531
 3131POPC   C3A42497  20.062  43.062   6.938
 3131POPC   C4A42498  19.748  43.047   7.225
 3131POPC   C1B42499  20.035  43.493   6.162
 3131POPC   C2B42500  19.839  43.396   6.582
 3131POPC   C3B42501  19.832  43.531   7.019
 3131POPC   C4B42502  20.108  43.486   7.366
 3132POPC   NC342503  34.197  42.639   5.592
 3132POPC   PO442504  34.867  42.411   5.568
 3132POPC   GL142505  34.610  42.546   5.908
 3132POPC   GL242506  34.397  42.283   5.891
 3132POPC   C1A42507  34.456  42.478   6.350
 3132POPC   D2A42508  34.625  42.551   6.754
 3132POPC   C3A42509  34.642  42.221   7.068
 3132POPC   C4A42510  34.389  42.477   7.249
 3132POPC   C1B42511  34.099  42.103   6.193
 3132POPC   C2B42512  33.968  42.247   6.554
 3132POPC   C3B42513  34.036  42.200   6.974
 3132POPC   C4B42514  33.936  42.297   7.386
 3133POPC   NC342515   8.081  28.224   5.337
 3133POPC   PO442516   8.422  28.790   5.463
 3133POPC   GL142517   8.350  28.491   5.805
 3133POPC   GL242518   8.254  28.134   5.857
 3133POPC   C1A42519   8.220  28.545   6.228
 3133POPC   D2A42520   8.396  28.451   6.646
 3133POPC   C3A42521   8.176  28.538   7.023
 3133POPC   C4A42522   8.371  28.572   7.412
 3133POPC   C1B42523   8.436  28.071   6.291
 3133POPC   C2B42524   8.510  27.961   6.754
 3133POPC   C3B42525   8.404  28.104   7.186
 3133POPC   C4B42526   8.443  28.155   7.687
 3134POPC   NC342527  19.950  21.164   5.388
 3134POPC   PO442528  19.600  21.686   5.543
 3134POPC   GL142529  19.717  21.349   5.828
 3134POPC   GL242530  20.068  21.249   5.893
 3134POPC   C1A42531  19.718  21.246   6.252
 3134POPC   D2A42532  19.560  21.123   6.609
 3134POPC   C3A42533  19.778  21.331   6.909
 3134POPC   C4A42534  19.666  21.232   7.274
 3134POPC   C1B42535  20.195  21.464   6.293
 3134POPC   C2B42536  20.342  21.607   6.699
 3134POPC   C3B42537  20.286  21.404   7.111
 3134POPC   C4B42538  20.109  20.987   7.245
 3135POPC   NC342539  16.985   6.863   5.468
 3135POPC   PO442540  16.739   6.226   5.402
 3135POPC   GL142541  16.638   6.539   5.700
 3135POPC   GL242542  16.955   6.510   5.832
 3135POPC   C1A42543  16.587   6.802   6.113
 3135POPC   D2A42544  16.795   6.921   6.556
 3135POPC   C3A42545  16.568   6.769   6.914
 3135POPC   C4A42546  16.551   6.591   7.326
 3135POPC   C1B42547  17.033   6.572   6.246
 3135POPC   C2B42548  17.062   6.350   6.642
 3135POPC   C3B42549  17.020   6.508   7.048
 3135POPC   C4B42550  16.960   6.886   7.261
 3136POPC   NC342551  27.222   8.079   5.511
 3136POPC   PO442552  27.919   7.893   5.558
 3136POPC   GL142553  27.610   8.111   5.881
 3136POPC   GL242554  27.323   8.364   5.917
 3136POPC   C1A42555  27.696   8.252   6.290
 3136POPC   D2A42556  27.837   8.103   6.644
 3136POPC   C3A42557  27.842   8.282   7.039
 3136POPC   C4A42558  27.865   8.124   7.501
 3136POPC   C1B42559  27.204   8.153   6.279
 3136POPC   C2B42560  27.350   8.256   6.691
 3136POPC   C3B42561  27.367   8.126   7.092
 3136POPC   C4B42562  27.058   8.185   7.392
 3137POPC   NC342563  37.190  11.021   5.524
 3137POPC   PO442564  36.707  10.521   5.279
 3137POPC   GL142565  36.857  10.442   5.758
 3137POPC   GL242566  37.126  10.613   5.823
 3137POPC   C1A42567  36.766  10.550   6.209
 3137POPC   D2A42568  36.926  10.456   6.618
 3137POPC   C3A42569  36.762  10.657   6.982
 3137POPC   C4A42570  36.641  10.325   7.267
 3137POPC   C1B42571  37.260  10.695   6.242
 3137POPC   C2B42572  37.240  10.835   6.660
 3137POPC   C3B42573  37.285  10.575   7.015
 3137POPC   C4B42574  37.146  10.189   7.179
 3138POPC   NC342575  25.970  29.406   5.412
 3138POPC   PO442576  25.640  28.875   5.694
 3138POPC   GL142577  25.995  29.087   5.862
 3138POPC   GL242578  26.068  29.463   5.907
 3138POPC   C1A42579  26.121  29.115   6.301
 3138POPC   D2A42580  26.043  29.350   6.690
 3138POPC   C3A42581  26.120  29.122   7.099
 3138POPC   C4A42582  26.246  28.964   7.510
 3138POPC   C1B42583  25.708  29.405   6.186
 3138POPC   C2B42584  25.561  29.541   6.608
 3138POPC   C3B42585  25.681  29.434   7.048
 3138POPC   C4B42586  26.078  29.634   7.136
 3139POPC   NC342587  42.933   3.475   5.610
 3139POPC   PO442588  43.507   3.735   5.454
 3139POPC   GL142589  43.279   3.775   5.821
 3139POPC   GL242590  42.954   3.928   5.855
 3139POPC   C1A42591  43.332   3.658   6.216
 3139POPC   D2A42592  43.104   3.375   6.463
 3139POPC   C3A42593  43.203   3.299   6.890
 3139POPC   C4A42594  43.058   3.388   7.301
 3139POPC   C1B42595  42.892   3.893   6.314
 3139POPC   C2B42596  43.198   3.841   6.683
 3139POPC   C3B42597  43.348   3.750   7.103
 3139POPC   C4B42598  43.014   3.879   7.399
 3140POPC   NC342599  26.485  34.100   5.437
 3140POPC   PO442600  26.925  33.656   5.257
 3140POPC   GL142601  26.896  33.805   5.649
 3140POPC   GL242602  26.577  33.690   5.707
 3140POPC   C1A42603  26.900  34.007   6.045
 3140POPC   D2A42604  27.051  34.166   6.439
 3140POPC   C3A42605  26.926  34.033   6.834
 3140POPC   C4A42606  27.108  34.055   7.225
 3140POPC   C1B42607  26.687  33.562   6.129
 3140POPC   C2B42608  26.920  33.613   6.504
 3140POPC   C3B42609  26.772  33.543   6.922
 3140POPC   C4B42610  26.665  33.806   7.267
 3141POPC   NC342611  32.739  29.929   5.380
 3141POPC   PO442612  33.384  30.078   5.550
 3141POPC   GL142613  33.028  29.892   5.808
 3141POPC   GL242614  32.713  29.674   5.839
 3141POPC   C1A42615  32.885  30.116   6.141
 3141POPC   D2A42616  33.075  30.237   6.532
 3141POPC   C3A42617  32.950  30.075   6.936
 3141POPC   C4A42618  33.122  29.857   7.301
 3141POPC   C1B42619  32.804  29.639   6.296
 3141POPC   C2B42620  32.809  29.636   6.759
 3141POPC   C3B42621  32.683  29.628   7.221
 3141POPC   C4B42622  32.844  29.583   7.649
 3142POPC   NC342623  31.119  38.424   5.556
 3142POPC   PO442624  31.751  38.375   5.363
 3142POPC   GL142625  31.819  38.617   5.739
 3142POPC   GL242626  31.575  38.879   5.731
 3142POPC   C1A42627  31.799  38.512   6.176
 3142POPC   D2A42628  31.622  38.357   6.580
 3142POPC   C3A42629  31.760  38.351   7.015
 3142POPC   C4A42630  31.464  38.439   7.332
 3142POPC   C1B42631  31.341  38.725   6.087
 3142POPC   C2B42632  31.264  38.737   6.522
 3142POPC   C3B42633  31.169  38.831   6.947
 3142POPC   C4B42634  31.348  38.920   7.354
 3143POPC   NC342635   2.824  13.137   5.466
 3143POPC   PO442636   2.404  13.625   5.502
 3143POPC   GL142637   2.738  13.530   5.809
 3143POPC   GL242638   3.007  13.234   5.915
 3143POPC   C1A42639   2.900  13.677   6.191
 3143POPC   D2A42640   2.929  13.968   6.502
 3143POPC   C3A42641   2.783  13.879   6.871
 3143POPC   C4A42642   2.810  14.041   7.248
 3143POPC   C1B42643   2.630  13.228   6.194
 3143POPC   C2B42644   2.617  13.467   6.580
 3143POPC   C3B42645   2.889  13.395   6.926
 3143POPC   C4B42646   2.899  13.318   7.340
 3144POPC   NC342647  23.933  15.282   5.419
 3144POPC   PO442648  23.396  14.900   5.372
 3144POPC   GL142649  23.630  15.096   5.760
 3144POPC   GL242650  23.703  15.494   5.830
 3144POPC   C1A42651  23.922  15.141   6.131
 3144POPC   D2A42652  23.690  15.150   6.517
 3144POPC   C3A42653  23.844  15.119   6.924
 3144POPC   C4A42654  23.731  15.048   7.347
 3144POPC   C1B42655  23.716  15.610   6.286
 3144POPC   C2B42656  23.726  15.609   6.753
 3144POPC   C3B42657  23.572  15.511   7.156
 3144POPC   C4B42658  23.557  15.445   7.598
 3145POPC   NC342659  29.438  30.628   5.387
 3145POPC   PO442660  28.800  31.038   5.180
 3145POPC   GL142661  28.908  31.037   5.668
 3145POPC   GL242662  29.257  30.956   5.781
 3145POPC   C1A42663  28.893  30.913   6.157
 3145POPC   D2A42664  28.958  30.526   6.476
 3145POPC   C3A42665  29.023  30.604   6.932
 3145POPC   C4A42666  28.922  31.000   7.127
 3145POPC   C1B42667  29.336  30.627   6.113
 3145POPC   C2B42668  29.475  30.605   6.568
 3145POPC   C3B42669  29.566  30.502   7.010
 3145POPC   C4B42670  29.429  30.297   7.418
 3146POPC   NC342671   4.860  34.420   5.368
 3146POPC   PO442672   5.514  34.572   5.443
 3146POPC   GL142673   5.361  34.315   5.824
 3146POPC   GL242674   5.010  34.152   5.787
 3146POPC   C1A42675   5.329  34.514   6.245
 3146POPC   D2A42676   5.432  34.787   6.633
 3146POPC   C3A42677   5.215  34.675   7.024
 3146POPC   C4A42678   5.094  34.697   7.450
 3146POPC   C1B42679   4.826  34.300   6.199
 3146POPC   C2B42680   4.954  34.435   6.625
 3146POPC   C3B42681   4.812  34.306   7.052
 3146POPC   C4B42682   4.841  34.277   7.526
 3147POPC   NC342683   0.776  21.514   5.482
 3147POPC   PO442684   0.060  21.692   5.494
 3147POPC   GL142685   0.368  21.465   5.850
 3147POPC   GL242686   0.706  21.320   5.944
 3147POPC   C1A42687   0.249  21.209   6.186
 3147POPC   D2A42688   0.117  21.331   6.578
 3147POPC   C3A42689   0.449  21.456   6.839
 3147POPC   C4A42690   0.356  21.349   7.229
 3147POPC   C1B42691   0.587  21.588   6.315
 3147POPC   C2B42692   0.697  21.871   6.661
 3147POPC   C3B42693   0.984  21.748   6.974
 3147POPC   C4B42694   0.859  21.435   7.284
 3148POPC   NC342695   0.998   5.968   5.391
 3148POPC   PO442696   1.574   5.637   5.341
 3148POPC   GL142697   1.328   5.653   5.740
 3148POPC   GL242698   1.309   5.997   5.847
 3148POPC   C1A42699   1.254   5.620   6.208
 3148POPC   D2A42700   1.426   5.869   6.584
 3148POPC   C3A42701   1.294   5.853   6.985
 3148POPC   C4A42702   1.159   5.908   7.392
 3148POPC   C1B42703   1.084   6.085   6.252
 3148POPC   C2B42704   0.917   5.924   6.632
 3148POPC   C3B42705   0.809   6.097   7.028
 3148POPC   C4B42706   0.817   6.266   7.470
 3149POPC   NC342707  25.363  12.126   5.342
 3149POPC   PO442708  24.968  11.641   5.117
 3149POPC   GL142709  24.926  11.814   5.655
 3149POPC   GL242710  25.047  12.148   5.746
 3149POPC   C1A42711  25.123  11.793   6.118
 3149POPC   D2A42712  25.407  11.960   6.460
 3149POPC   C3A42713  25.370  11.909   6.927
 3149POPC   C4A42714  25.266  12.082   7.353
 3149POPC   C1B42715  25.425  12.215   5.996
 3149POPC   C2B42716  25.614  12.411   6.340
 3149POPC   C3B42717  25.503  12.411   6.751
 3149POPC   C4B42718  25.660  12.303   7.125
 3150POPC   NC342719  42.900  42.539   5.463
 3150POPC   PO442720  43.267  41.941   5.592
 3150POPC   GL142721  43.011  42.134   5.892
 3150POPC   GL242722  43.086  42.475   5.924
 3150POPC   C1A42723  42.928  42.234   6.330
 3150POPC   D2A42724  42.991  42.506   6.658
 3150POPC   C3A42725  43.044  42.229   6.978
 3150POPC   C4A42726  43.160  42.255   7.388
 3150POPC   C1B42727  43.263  42.727   6.260
 3150POPC   C2B42728  43.485  42.666   6.654
 3150POPC   C3B42729  43.328  42.651   7.069
 3150POPC   C4B42730  43.299  42.744   7.507
 3151POPC   NC342731  30.475  34.545   5.298
 3151POPC   PO442732  31.093  34.764   5.481
 3151POPC   GL142733  30.774  34.605   5.731
 3151POPC   GL242734  30.736  34.261   5.717
 3151POPC   C1A42735  30.699  34.755   6.143
 3151POPC   D2A42736  30.860  34.887   6.535
 3151POPC   C3A42737  30.582  34.757   6.866
 3151POPC   C4A42738  30.575  34.853   7.264
 3151POPC   C1B42739  30.541  34.270   6.121
 3151POPC   C2B42740  30.658  34.393   6.525
 3151POPC   C3B42741  30.691  34.252   6.942
 3151POPC   C4B42742  30.673  34.351   7.376
 3152POPC   NC342743  20.875   9.115   5.372
 3152POPC   PO442744  20.297   8.791   5.372
 3152POPC   GL142745  20.484   9.038   5.700
 3152POPC   GL242746  20.731   8.774   5.726
 3152POPC   C1A42747  20.693   9.159   6.098
 3152POPC   D2A42748  20.580   9.054   6.535
 3152POPC   C3A42749  20.800   9.164   6.910
 3152POPC   C4A42750  20.591   9.084   7.308
 3152POPC   C1B42751  20.604   8.635   6.127
 3152POPC   C2B42752  20.813   8.592   6.522
 3152POPC   C3B42753  20.673   8.666   6.933
 3152POPC   C4B42754  20.377   8.607   7.245
 3153POPC   NC342755  14.544  42.471   5.151
 3153POPC   PO442756  14.018  42.159   5.483
 3153POPC   GL142757  14.291  42.440   5.790
 3153POPC   GL242758  14.655  42.484   5.833
 3153POPC   C1A42759  14.329  42.508   6.239
 3153POPC   D2A42760  14.279  42.232   6.625
 3153POPC   C3A42761  14.155  42.401   7.034
 3153POPC   C4A42762  14.426  42.257   7.371
 3153POPC   C1B42763  14.852  42.345   6.260
 3153POPC   C2B42764  14.759  42.406   6.726
 3153POPC   C3B42765  14.940  42.307   7.148
 3153POPC   C4B42766  14.995  42.558   7.530
 3154POPC   NC342767   6.455  28.275   5.465
 3154POPC   PO442768   6.090  28.879   5.533
 3154POPC   GL142769   6.337  28.613   5.847
 3154POPC   GL242770   6.364  28.216   5.941
 3154POPC   C1A42771   6.509  28.598   6.257
 3154POPC   D2A42772   6.388  28.619   6.663
 3154POPC   C3A42773   6.680  28.603   6.942
 3154POPC   C4A42774   6.689  28.396   7.302
 3154POPC   C1B42775   6.722  28.122   6.150
 3154POPC   C2B42776   6.745  28.235   6.579
 3154POPC   C3B42777   6.571  28.064   6.951
 3154POPC   C4B42778   6.822  27.890   7.302
 3155POPC   NC342779  18.741   6.079   5.403
 3155POPC   PO442780  19.365   6.344   5.553
 3155POPC   GL142781  19.137   6.049   5.822
 3155POPC   GL242782  19.297   5.730   5.827
 3155POPC   C1A42783  19.069   5.975   6.271
 3155POPC   D2A42784  18.979   6.192   6.654
 3155POPC   C3A42785  19.121   5.928   7.012
 3155POPC   C4A42786  18.823   5.644   7.170
 3155POPC   C1B42787  19.273   5.514   6.253
 3155POPC   C2B42788  19.116   5.581   6.649
 3155POPC   C3B42789  19.228   5.383   7.023
 3155POPC   C4B42790  19.459   5.635   7.300
 3156POPC   NC342791   0.247   0.384   5.376
 3156POPC   PO442792   0.794   0.002   5.646
 3156POPC   GL142793   0.540   0.356   5.850
 3156POPC   GL242794   0.283   0.634   5.808
 3156POPC   C1A42795   0.533   0.590   6.258
 3156POPC   D2A42796   0.788   0.730   6.630
 3156POPC   C3A42797   0.660   0.513   6.996
 3156POPC   C4A42798   0.475   0.627   7.343
 3156POPC   C1B42799   0.122   0.272   6.085
 3156POPC   C2B42800   0.067   0.286   6.519
 3156POPC   C3B42801   0.159   0.488   6.915
 3156POPC   C4B42802   0.290   0.164   7.228
 3157POPC   NC342803  24.129  42.561   5.503
 3157POPC   PO442804  24.739  42.472   5.683
 3157POPC   GL142805  24.488  42.568   5.983
 3157POPC   GL242806  24.343  42.238   5.969
 3157POPC   C1A42807  24.433  42.540   6.417
 3157POPC   D2A42808  24.471  42.245   6.760
 3157POPC   C3A42809  24.495  42.455   7.164
 3157POPC   C4A42810  24.673  42.642   7.541
 3157POPC   C1B42811  24.676  42.108   6.270
 3157POPC   C2B42812  24.953  42.077   6.641
 3157POPC   C3B42813  24.834  42.040   7.073
 3157POPC   C4B42814  24.408  41.941   7.226
 3158POPC   NC342815   9.752  18.035   5.217
 3158POPC   PO442816   9.701  18.620   5.407
 3158POPC   GL142817   9.588  18.376   5.783
 3158POPC   GL242818   9.600  18.005   5.708
 3158POPC   C1A42819   9.631  18.215   6.223
 3158POPC   D2A42820   9.937  18.207   6.538
 3158POPC   C3A42821   9.833  18.214   6.988
 3158POPC   C4A42822   9.758  18.463   7.390
 3158POPC   C1B42823   9.347  17.822   6.015
 3158POPC   C2B42824   9.219  17.928   6.436
 3158POPC   C3B42825   9.327  18.056   6.869
 3158POPC   C4B42826   9.489  18.039   7.317
 3159POPC   NC342827   3.814  35.853   5.449
 3159POPC   PO442828   4.402  35.969   5.327
 3159POPC   GL142829   4.349  36.179   5.794
 3159POPC   GL242830   4.115  36.500   5.909
 3159POPC   C1A42831   4.398  35.995   6.189
 3159POPC   D2A42832   4.452  35.690   6.503
 3159POPC   C3A42833   4.591  35.914   6.885
 3159POPC   C4A42834   4.457  36.103   7.287
 3159POPC   C1B42835   3.930  36.224   6.214
 3159POPC   C2B42836   4.004  35.968   6.561
 3159POPC   C3B42837   4.054  36.020   6.989
 3159POPC   C4B42838   3.981  36.414   7.162
 3160POPC   NC342839  17.091  42.889   5.517
 3160POPC   PO442840  17.598  43.285   5.403
 3160POPC   GL142841  17.694  43.120   5.845
 3160POPC   GL242842  17.764  42.756   5.917
 3160POPC   C1A42843  17.708  43.136   6.293
 3160POPC   D2A42844  17.496  43.067   6.703
 3160POPC   C3A42845  17.640  42.990   7.147
 3160POPC   C4A42846  17.661  43.007   7.620
 3160POPC   C1B42847  17.327  42.843   6.138
 3160POPC   C2B42848  17.089  42.716   6.532
 3160POPC   C3B42849  17.156  42.790   6.974
 3160POPC   C4B42850  17.212  42.863   7.421
 3161POPC   NC342851  13.679  20.775   5.180
 3161POPC   PO442852  13.346  20.148   5.404
 3161POPC   GL142853  13.378  20.517   5.672
 3161POPC   GL242854  13.686  20.701   5.706
 3161POPC   C1A42855  13.375  20.527   6.126
 3161POPC   D2A42856  13.611  20.357   6.492
 3161POPC   C3A42857  13.690  20.632   6.847
 3161POPC   C4A42858  13.471  20.791   7.214
 3161POPC   C1B42859  13.869  20.677   6.134
 3161POPC   C2B42860  13.988  20.919   6.475
 3161POPC   C3B42861  14.171  20.810   6.836
 3161POPC   C4B42862  14.009  20.868   7.253
 3162POPC   NC342863  24.729  17.103   5.443
 3162POPC   PO442864  25.108  17.741   5.337
 3162POPC   GL142865  25.294  17.701   5.711
 3162POPC   GL242866  25.647  17.799   5.640
 3162POPC   C1A42867  25.118  17.583   6.098
 3162POPC   D2A42868  25.027  17.457   6.514
 3162POPC   C3A42869  25.210  17.518   6.934
 3162POPC   C4A42870  25.059  17.497   7.391
 3162POPC   C1B42871  25.602  17.902   6.088
 3162POPC   C2B42872  25.357  17.872   6.459
 3162POPC   C3B42873  25.355  18.019   6.882
 3162POPC   C4B42874  25.329  17.915   7.305
 3163POPC   NC342875  36.476  30.091   5.526
 3163POPC   PO442876  35.756  29.951   5.460
 3163POPC   GL142877  36.010  29.896   5.809
 3163POPC   GL242878  36.258  29.693   5.822
 3163POPC   C1A42879  35.971  30.084   6.200
 3163POPC   D2A42880  35.933  30.291   6.580
 3163POPC   C3A42881  35.920  30.082   6.943
 3163POPC   C4A42882  36.263  30.127   7.231
 3163POPC   C1B42883  36.372  29.784   6.219
 3163POPC   C2B42884  36.189  29.831   6.592
 3163POPC   C3B42885  36.295  29.694   6.957
 3163POPC   C4B42886  36.316  29.537   7.375
 3164POPC   NC342887  42.592  44.762   5.063
 3164POPC   PO442888  41.964  44.780   5.407
 3164POPC   GL142889  42.216  44.553   5.720
 3164POPC   GL242890  42.572  44.649   5.703
 3164POPC   C1A42891  42.230  44.677   6.176
 3164POPC   D2A42892  42.316   0.092   6.414
 3164POPC   C3A42893  42.238   0.112   6.872
 3164POPC   C4A42894  42.243  44.791   7.217
 3164POPC   C1B42895  42.737  44.619   6.137
 3164POPC   C2B42896  42.625  44.457   6.561
 3164POPC   C3B42897  42.445  44.288   6.950
 3164POPC   C4B42898  42.533  44.389   7.355
 3165POPC   NC342899  13.436  14.821   5.446
 3165POPC   PO442900  13.710  15.449   5.429
 3165POPC   GL142901  13.473  15.412   5.799
 3165POPC   GL242902  13.664  15.110   5.868
 3165POPC   C1A42903  13.360  15.332   6.239
 3165POPC   D2A42904  13.569  15.270   6.628
 3165POPC   C3A42905  13.400  14.914   6.839
 3165POPC   C4A42906  13.237  14.955   7.228
 3165POPC   C1B42907  13.621  14.879   6.250
 3165POPC   C2B42908  13.876  14.846   6.597
 3165POPC   C3B42909  13.863  15.011   6.992
 3165POPC   C4B42910  13.725  15.033   7.417
 3166POPC   NC342911  22.827  10.303   5.452
 3166POPC   PO442912  22.693  10.995   5.293
 3166POPC   GL142913  22.700  10.785   5.723
 3166POPC   GL242914  23.061  10.650   5.771
 3166POPC   C1A42915  22.733  10.561   6.143
 3166POPC   D2A42916  23.034  10.594   6.476
 3166POPC   C3A42917  22.882  10.609   6.890
 3166POPC   C4A42918  22.834  10.699   7.331
 3166POPC   C1B42919  23.182  10.291   6.080
 3166POPC   C2B42920  23.366  10.194   6.502
 3166POPC   C3B42921  23.208  10.238   6.917
 3166POPC   C4B42922  23.165  10.161   7.352
 3167POPC   NC342923   6.249  16.418   5.199
 3167POPC   PO442924   6.751  16.847   5.357
 3167POPC   GL142925   6.587  16.864   5.771
 3167POPC   GL242926   6.467  16.571   5.762
 3167POPC   C1A42927   6.442  16.806   6.213
 3167POPC   D2A42928   6.698  16.925   6.557
 3167POPC   C3A42929   6.616  16.756   6.959
 3167POPC   C4A42930   6.533  16.660   7.375
 3167POPC   C1B42931   6.735  16.385   6.146
 3167POPC   C2B42932   6.719  16.373   6.635
 3167POPC   C3B42933   6.775  16.279   7.123
 3167POPC   C4B42934   6.872  16.325   7.582
 3168POPC   NC342935  15.767  17.936   5.411
 3168POPC   PO442936  15.685  17.318   5.647
 3168POPC   GL142937  15.800  17.710   5.886
 3168POPC   GL242938  16.096  17.716   6.078
 3168POPC   C1A42939  15.652  17.903   6.265
 3168POPC   D2A42940  15.832  17.833   6.669
 3168POPC   C3A42941  15.673  17.752   7.101
 3168POPC   C4A42942  15.754  17.559   7.534
 3168POPC   C1B42943  15.809  17.424   6.347
 3168POPC   C2B42944  15.716  17.334   6.795
 3168POPC   C3B42945  16.029  17.368   7.157
 3168POPC   C4B42946  16.277  17.456   7.557
 3169POPC   NC342947  17.050  31.345   5.465
 3169POPC   PO442948  17.664  31.119   5.364
 3169POPC   GL142949  17.577  31.283   5.780
 3169POPC   GL242950  17.335  31.520   5.855
 3169POPC   C1A42951  17.747  31.456   6.170
 3169POPC   D2A42952  17.839  31.721   6.526
 3169POPC   C3A42953  17.741  31.582   6.977
 3169POPC   C4A42954  17.567  31.465   7.379
 3169POPC   C1B42955  17.236  31.383   6.234
 3169POPC   C2B42956  17.377  31.501   6.632
 3169POPC   C3B42957  17.191  31.431   7.043
 3169POPC   C4B42958  17.088  31.312   7.512
 3170POPC   NC342959  38.758  24.602   5.372
 3170POPC   PO442960  38.089  24.343   5.418
 3170POPC   GL142961  38.383  24.536   5.749
 3170POPC   GL242962  38.686  24.348   5.848
 3170POPC   C1A42963  38.592  24.769   6.139
 3170POPC   D2A42964  38.658  25.061   6.512
 3170POPC   C3A42965  38.566  24.866   6.913
 3170POPC   C4A42966  38.801  24.571   7.140
 3170POPC   C1B42967  38.320  24.276   6.170
 3170POPC   C2B42968  38.154  24.133   6.576
 3170POPC   C3B42969  38.011  24.252   6.975
 3170POPC   C4B42970  38.296  24.438   7.269
 3171POPC   NC342971  32.810  38.477   5.338
 3171POPC   PO442972  33.423  38.377   5.276
 3171POPC   GL142973  33.177  38.489   5.691
 3171POPC   GL242974  32.834  38.383   5.827
 3171POPC   C1A42975  33.215  38.416   6.147
 3171POPC   D2A42976  33.022  38.304   6.532
 3171POPC   C3A42977  33.242  38.396   6.931
 3171POPC   C4A42978  33.142  38.677   7.243
 3171POPC   C1B42979  32.616  38.194   6.171
 3171POPC   C2B42980  32.602  38.014   6.601
 3171POPC   C3B42981  32.740  38.241   6.976
 3171POPC   C4B42982  32.651  38.407   7.367
 3172POPC   NC342983  42.430  25.555   5.334
 3172POPC   PO442984  42.139  26.199   5.359
 3172POPC   GL142985  42.309  25.960   5.694
 3172POPC   GL242986  42.009  25.752   5.728
 3172POPC   C1A42987  42.426  26.041   6.150
 3172POPC   D2A42988  42.221  26.096   6.575
 3172POPC   C3A42989  42.465  26.025   6.972
 3172POPC   C4A42990  42.508  26.287   7.367
 3172POPC   C1B42991  41.905  25.977   6.115
 3172POPC   C2B42992  41.801  25.815   6.549
 3172POPC   C3B42993  41.970  25.810   6.988
 3172POPC   C4B42994  42.249  25.671   7.329
 3173POPC   NC342995  27.385  35.375   5.468
 3173POPC   PO442996  28.053  35.045   5.448
 3173POPC   GL142997  27.781  35.221   5.779
 3173POPC   GL242998  27.737  35.596   5.805
 3173POPC   C1A42999  27.693  35.281   6.231
 3173POPC   D2A43000  27.485  35.189   6.621
 3173POPC   C3A43001  27.775  35.260   6.975
 3173POPC   C4A43002  27.714  35.456   7.375
 3173POPC   C1B43003  27.403  35.698   6.113
 3173POPC   C2B43004  27.477  35.717   6.571
 3173POPC   C3B43005  27.351  35.531   6.986
 3173POPC   C4B43006  27.173  35.582   7.368
 3174POPC   NC343007  29.063  33.407   5.270
 3174POPC   PO443008  29.294  32.749   5.445
 3174POPC   GL143009  29.110  32.924   5.793
 3174POPC   GL243010  28.766  33.000   5.698
 3174POPC   C1A43011  29.256  32.992   6.226
 3174POPC   D2A43012  29.095  33.189   6.604
 3174POPC   C3A43013  29.168  32.917   6.940
 3174POPC   C4A43014  29.357  33.018   7.298
 3174POPC   C1B43015  28.835  33.246   6.095
 3174POPC   C2B43016  28.824  33.569   6.405
 3174POPC   C3B43017  28.776  33.566   6.850
 3174POPC   C4B43018  28.940  33.349   7.202
 3175POPC   NC343019  39.503  10.331   5.511
 3175POPC   PO443020  39.163  10.927   5.397
 3175POPC   GL143021  39.162  10.675   5.782
 3175POPC   GL243022  38.942  10.406   5.644
 3175POPC   C1A43023  39.247  10.655   6.261
 3175POPC   D2A43024  39.361  10.562   6.708
 3175POPC   C3A43025  39.172  10.759   7.058
 3175POPC   C4A43026  39.264  10.783   7.504
 3175POPC   C1B43027  38.948  10.285   6.063
 3175POPC   C2B43028  38.921  10.337   6.524
 3175POPC   C3B43029  38.992  10.191   6.940
 3175POPC   C4B43030  39.305  10.271   7.220
 3176POPC   NC343031  26.335   8.543   5.362
 3176POPC   PO443032  26.168   7.895   5.219
 3176POPC   GL143033  26.105   7.925   5.655
 3176POPC   GL243034  26.434   7.895   5.785
 3176POPC   C1A43035  25.802   8.061   5.988
 3176POPC   D2A43036  25.849   8.352   6.328
 3176POPC   C3A43037  25.875   8.258   6.764
 3176POPC   C4A43038  25.783   8.353   7.158
 3176POPC   C1B43039  26.292   8.246   6.079
 3176POPC   C2B43040  26.340   8.413   6.559
 3176POPC   C3B43041  26.339   8.274   7.002
 3176POPC   C4B43042  26.213   8.020   7.382
 3177POPC   NC343043  37.295   1.353   5.254
 3177POPC   PO443044  37.926   1.333   5.546
 3177POPC   GL143045  37.561   1.400   5.679
 3177POPC   GL243046  37.414   1.101   5.708
 3177POPC   C1A43047  37.536   1.511   6.069
 3177POPC   D2A43048  37.939   1.482   6.279
 3177POPC   C3A43049  37.960   1.614   6.710
 3177POPC   C4A43050  37.831   1.496   7.123
 3177POPC   C1B43051  37.643   0.999   6.110
 3177POPC   C2B43052  37.647   1.172   6.556
 3177POPC   C3B43053  37.738   1.005   6.980
 3177POPC   C4B43054  37.482   1.144   7.327
 3178POPC   NC343055  35.326  25.521   5.250
 3178POPC   PO443056  35.525  24.936   5.362
 3178POPC   GL143057  35.336  25.207   5.724
 3178POPC   GL243058  35.104  25.503   5.721
 3178POPC   C1A43059  35.417  25.345   6.161
 3178POPC   D2A43060  35.654  25.299   6.556
 3178POPC   C3A43061  35.479  25.422   6.931
 3178POPC   C4A43062  35.233  25.310   7.253
 3178POPC   C1B43063  34.963  25.590   6.132
 3178POPC   C2B43064  35.167  25.609   6.547
 3178POPC   C3B43065  34.981  25.644   6.945
 3178POPC   C4B43066  34.800  25.585   7.334
 3179POPC   NC343067  25.046  30.905   5.429
 3179POPC   PO443068  24.833  30.294   5.245
 3179POPC   GL143069  25.049  30.486   5.700
 3179POPC   GL243070  25.392  30.745   5.748
 3179POPC   C1A43071  25.142  30.640   6.163
 3179POPC   D2A43072  25.303  30.546   6.584
 3179POPC   C3A43073  25.254  30.641   7.040
 3179POPC   C4A43074  25.075  30.994   7.191
 3179POPC   C1B43075  25.259  31.104   6.028
 3179POPC   C2B43076  25.261  31.095   6.463
 3179POPC   C3B43077  25.571  30.971   6.758
 3179POPC   C4B43078  25.582  31.070   7.175
 3180POPC   NC343079   9.492  35.990   5.325
 3180POPC   PO443080   9.942  36.406   5.120
 3180POPC   GL143081   9.755  36.346   5.620
 3180POPC   GL243082   9.648  36.048   5.811
 3180POPC   C1A43083   9.677  36.434   6.123
 3180POPC   D2A43084   9.802  36.435   6.576
 3180POPC   C3A43085   9.584  36.226   6.906
 3180POPC   C4A43086   9.715  36.167   7.336
 3180POPC   C1B43087   9.858  35.972   6.233
 3180POPC   C2B43088   9.938  35.937   6.661
 3180POPC   C3B43089   9.812  35.775   7.037
 3180POPC   C4B43090   9.762  35.388   7.223
 3181POPC   NC343091   5.686  34.146   5.459
 3181POPC   PO443092   5.938  33.572   5.374
 3181POPC   GL143093   5.845  33.737   5.739
 3181POPC   GL243094   6.058  33.991   5.820
 3181POPC   C1A43095   5.691  33.884   6.156
 3181POPC   D2A43096   5.877  33.796   6.536
 3181POPC   C3A43097   5.732  33.914   6.949
 3181POPC   C4A43098   5.446  33.701   7.148
 3181POPC   C1B43099   6.212  33.625   6.104
 3181POPC   C2B43100   6.311  33.546   6.562
 3181POPC   C3B43101   6.236  33.852   6.901
 3181POPC   C4B43102   6.128  34.235   7.161
 3182POPC   NC343103  42.194  36.161   5.329
 3182POPC   PO443104  42.796  36.025   5.460
 3182POPC   GL143105  42.568  36.271   5.779
 3182POPC   GL243106  42.347  36.061   5.792
 3182POPC   C1A43107  42.445  36.319   6.217
 3182POPC   D2A43108  42.506  36.035   6.554
 3182POPC   C3A43109  42.460  36.230   6.934
 3182POPC   C4A43110  42.517  36.262   7.373
 3182POPC   C1B43111  42.049  35.961   6.068
 3182POPC   C2B43112  42.070  35.786   6.478
 3182POPC   C3B43113  42.024  35.913   6.879
 3182POPC   C4B43114  42.252  35.856   7.212
 3183POPC   NC343115  12.326  44.935   5.392
 3183POPC   PO443116  11.682  44.607   5.489
 3183POPC   GL143117  12.060  44.696   5.794
 3183POPC   GL243118  12.125  44.375   5.978
 3183POPC   C1A43119  12.261  44.811   6.217
 3183POPC   D2A43120  12.317  44.971   6.648
 3183POPC   C3A43121  12.280  44.633   6.955
 3183POPC   C4A43122  12.222  44.712   7.390
 3183POPC   C1B43123  11.794  44.590   6.225
 3183POPC   C2B43124  11.831  44.804   6.634
 3183POPC   C3B43125  11.791  44.762   7.093
 3183POPC   C4B43126  11.799  44.469   7.485
 3184POPC   NC343127  26.586  11.322   5.515
 3184POPC   PO443128  27.078  10.969   5.254
 3184POPC   GL143129  27.131  11.200   5.704
 3184POPC   GL243130  26.975  11.557   5.785
 3184POPC   C1A43131  27.044  11.236   6.185
 3184POPC   D2A43132  26.774  11.135   6.577
 3184POPC   C3A43133  26.808  11.340   6.999
 3184POPC   C4A43134  26.542  11.252   7.383
 3184POPC   C1B43135  26.697  11.635   6.185
 3184POPC   C2B43136  26.548  11.629   6.634
 3184POPC   C3B43137  26.417  11.674   7.088
 3184POPC   C4B43138  26.716  11.714   7.466
 3185POPC   NC343139  41.116  34.901   5.456
 3185POPC   PO443140  41.717  34.519   5.472
 3185POPC   GL143141  41.380  34.556   5.778
 3185POPC   GL243142  41.523  34.813   5.900
 3185POPC   C1A43143  41.179  34.552   6.187
 3185POPC   D2A43144  41.391  34.744   6.537
 3185POPC   C3A43145  41.378  34.556   6.951
 3185POPC   C4A43146  41.233  34.354   7.339
 3185POPC   C1B43147  41.707  34.474   6.195
 3185POPC   C2B43148  41.854  34.540   6.623
 3185POPC   C3B43149  41.880  34.714   7.023
 3185POPC   C4B43150  41.918  34.554   7.437
 3186POPC   NC343151   6.606  10.826   5.571
 3186POPC   PO443152   6.831  10.106   5.426
 3186POPC   GL143153   6.547  10.313   5.709
 3186POPC   GL243154   6.809  10.467   5.883
 3186POPC   C1A43155   6.399  10.488   6.143
 3186POPC   D2A43156   6.574  10.651   6.556
 3186POPC   C3A43157   6.428  10.426   6.943
 3186POPC   C4A43158   6.196  10.519   7.323
 3186POPC   C1B43159   6.981  10.761   6.206
 3186POPC   C2B43160   7.056  10.869   6.654
 3186POPC   C3B43161   6.822  10.774   7.037
 3186POPC   C4B43162   6.822  10.422   7.273
 3187POPC   NC343163  13.887  24.835   5.467
 3187POPC   PO443164  13.844  24.156   5.436
 3187POPC   GL143165  13.585  24.333   5.762
 3187POPC   GL243166  13.418  24.656   5.685
 3187POPC   C1A43167  13.683  24.392   6.185
 3187POPC   D2A43168  13.571  24.168   6.556
 3187POPC   C3A43169  13.829  24.268   6.905
 3187POPC   C4A43170  13.617  24.273   7.259
 3187POPC   C1B43171  13.346  24.790   6.125
 3187POPC   C2B43172  13.418  24.657   6.536
 3187POPC   C3B43173  13.482  24.652   6.949
 3187POPC   C4B43174  13.191  24.847   7.172
 3188POPC   NC343175  32.904  13.146   5.102
 3188POPC   PO443176  32.817  13.762   5.275
 3188POPC   GL143177  33.102  13.646   5.667
 3188POPC   GL243178  33.330  13.320   5.674
 3188POPC   C1A43179  33.108  13.685   6.143
 3188POPC   D2A43180  33.100  13.901   6.574
 3188POPC   C3A43181  33.013  13.728   6.983
 3188POPC   C4A43182  32.951  13.989   7.358
 3188POPC   C1B43183  33.499  13.303   6.126
 3188POPC   C2B43184  33.416  13.485   6.564
 3188POPC   C3B43185  33.475  13.423   7.026
 3188POPC   C4B43186  33.314  13.642   7.400
 3189POPC   NC343187   6.312   1.073   5.442
 3189POPC   PO443188   6.970   1.061   5.401
 3189POPC   GL143189   6.735   0.967   5.764
 3189POPC   GL243190   6.575   1.299   5.834
 3189POPC   C1A43191   6.731   0.974   6.220
 3189POPC   D2A43192   6.861   1.300   6.509
 3189POPC   C3A43193   6.919   1.137   6.918
 3189POPC   C4A43194   6.895   1.277   7.390
 3189POPC   C1B43195   6.384   1.320   6.259
 3189POPC   C2B43196   6.416   1.141   6.699
 3189POPC   C3B43197   6.499   1.402   7.080
 3189POPC   C4B43198   6.452   1.448   7.552
 3190POPC   NC343199  44.358  29.093   5.339
 3190POPC   PO443200  43.674  29.244   5.229
 3190POPC   GL143201  43.766  29.283   5.674
 3190POPC   GL243202  44.089  29.276   5.792
 3190POPC   C1A43203  43.675  29.202   6.104
 3190POPC   D2A43204  43.761  28.922   6.418
 3190POPC   C3A43205  43.854  29.120   6.807
 3190POPC   C4A43206  43.871  28.979   7.234
 3190POPC   C1B43207  44.175  29.194   6.232
 3190POPC   C2B43208  44.288  29.355   6.663
 3190POPC   C3B43209  44.295  29.246   7.117
 3190POPC   C4B43210  44.225  29.341   7.557
 3191POPC   NC343211  39.521  44.437   5.373
 3191POPC   PO443212  38.982  44.803   5.444
 3191POPC   GL143213  39.193  44.626   5.751
 3191POPC   GL243214  39.204  44.248   5.718
 3191POPC   C1A43215  39.161  44.826   6.146
 3191POPC   D2A43216  39.126  44.660   6.550
 3191POPC   C3A43217  39.028  44.937   6.856
 3191POPC   C4A43218  39.114  44.862   7.268
 3191POPC   C1B43219  39.056  44.306   6.152
 3191POPC   C2B43220  39.000  44.164   6.597
 3191POPC   C3B43221  39.065  44.386   7.016
 3191POPC   C4B43222  39.141  44.396   7.475
 3192POPC   NC343223   0.803  17.164   5.403
 3192POPC   PO443224   0.247  17.460   5.388
 3192POPC   GL143225   0.351  17.497   5.809
 3192POPC   GL243226   0.122  17.231   5.844
 3192POPC   C1A43227   0.547  17.703   6.206
 3192POPC   D2A43228   0.717  17.802   6.644
 3192POPC   C3A43229   0.456  17.592   6.963
 3192POPC   C4A43230   0.398  17.429   7.405
 3192POPC   C1B43231   0.334  17.235   6.250
 3192POPC   C2B43232   0.153  17.376   6.615
 3192POPC   C3B43233   0.141  17.206   7.014
 3192POPC   C4B43234   0.517  16.992   7.153
 3193POPC   NC343235   4.386   7.248   5.458
 3193POPC   PO443236   4.074   7.856   5.432
 3193POPC   GL143237   4.283   7.655   5.775
 3193POPC   GL243238   4.636   7.652   5.777
 3193POPC   C1A43239   4.220   7.671   6.219
 3193POPC   D2A43240   4.364   7.704   6.646
 3193POPC   C3A43241   4.196   7.407   6.938
 3193POPC   C4A43242   4.159   7.494   7.358
 3193POPC   C1B43243   4.626   7.351   6.141
 3193POPC   C2B43244   4.524   7.218   6.547
 3193POPC   C3B43245   4.588   7.063   6.958
 3193POPC   C4B43246   4.631   7.285   7.297
 3194POPC   NC343247  13.959  44.616   5.456
 3194POPC   PO443248  13.274  44.406   5.514
 3194POPC   GL143249  13.522  44.637   5.847
 3194POPC   GL243250  13.456  44.970   5.871
 3194POPC   C1A43251  13.620  44.775   6.309
 3194POPC   D2A43252  13.578  44.493   6.659
 3194POPC   C3A43253  13.797  44.517   7.082
 3194POPC   C4A43254  13.899  44.855   7.397
 3194POPC   C1B43255  13.132  44.739   6.162
 3194POPC   C2B43256  13.119  44.748   6.598
 3194POPC   C3B43257  13.300  44.752   7.010
 3194POPC   C4B43258  13.346  44.398   7.288
 3195POPC   NC343259  37.619  33.300   5.264
 3195POPC   PO443260  37.725  32.567   5.322
 3195POPC   GL143261  37.789  32.915   5.657
 3195POPC   GL243262  37.507  33.100   5.712
 3195POPC   C1A43263  37.866  33.139   6.097
 3195POPC   D2A43264  37.921  32.993   6.533
 3195POPC   C3A43265  37.880  33.285   6.888
 3195POPC   C4A43266  37.724  33.193   7.273
 3195POPC   C1B43267  37.409  32.893   6.076
 3195POPC   C2B43268  37.389  33.025   6.495
 3195POPC   C3B43269  37.556  32.898   6.890
 3195POPC   C4B43270  37.387  32.789   7.278
 3196POPC   NC343271   7.490  19.232   5.347
 3196POPC   PO443272   7.154  18.820   5.508
 3196POPC   GL143273   7.450  19.037   5.810
 3196POPC   GL243274   7.388  19.402   5.829
 3196POPC   C1A43275   7.596  18.946   6.228
 3196POPC   D2A43276   7.502  19.020   6.660
 3196POPC   C3A43277   7.786  18.867   6.994
 3196POPC   C4A43278   7.639  18.884   7.429
 3196POPC   C1B43279   7.139  19.195   6.181
 3196POPC   C2B43280   7.024  19.230   6.580
 3196POPC   C3B43281   7.234  19.374   6.942
 3196POPC   C4B43282   7.392  19.336   7.341
 3197POPC   NC343283   9.985  25.562   5.470
 3197POPC   PO443284   9.451  25.140   5.305
 3197POPC   GL143285   9.524  24.978   5.701
 3197POPC   GL243286   9.732  25.239   5.793
 3197POPC   C1A43287   9.447  25.022   6.148
 3197POPC   D2A43288   9.693  25.191   6.489
 3197POPC   C3A43289   9.528  25.099   6.850
 3197POPC   C4A43290   9.708  25.179   7.218
 3197POPC   C1B43291   9.974  25.392   6.129
 3197POPC   C2B43292  10.123  25.513   6.516
 3197POPC   C3B43293   9.896  25.511   6.875
 3197POPC   C4B43294  10.156  25.488   7.214
 3198POPC   NC343295  32.713  39.424   5.642
 3198POPC   PO443296  33.317  39.120   5.473
 3198POPC   GL143297  33.107  38.984   5.868
 3198POPC   GL243298  32.759  38.889   5.796
 3198POPC   C1A43299  32.995  39.173   6.293
 3198POPC   D2A43300  32.707  39.449   6.563
 3198POPC   C3A43301  32.692  39.334   7.015
 3198POPC   C4A43302  33.116  39.171   7.134
 3198POPC   C1B43303  32.805  38.706   6.241
 3198POPC   C2B43304  32.897  38.805   6.692
 3198POPC   C3B43305  32.677  38.822   7.069
 3198POPC   C4B43306  32.793  38.998   7.473
 3199POPC   NC343307  31.692  27.087   5.478
 3199POPC   PO443308  31.420  26.465   5.528
 3199POPC   GL143309  31.540  26.757   5.861
 3199POPC   GL243310  31.296  27.000   5.897
 3199POPC   C1A43311  31.575  26.630   6.320
 3199POPC   D2A43312  31.496  26.868   6.724
 3199POPC   C3A43313  31.554  26.700   7.155
 3199POPC   C4A43314  31.610  26.407   7.519
 3199POPC   C1B43315  31.422  27.134   6.271
 3199POPC   C2B43316  31.445  27.394   6.606
 3199POPC   C3B43317  31.386  27.303   6.976
 3199POPC   C4B43318  31.366  27.130   7.359
 3200POPC   NC343319  44.020  19.357   5.398
 3200POPC   PO443320  43.592  18.904   5.355
 3200POPC   GL143321  43.619  19.184   5.718
 3200POPC   GL243322  43.947  19.056   5.805
 3200POPC   C1A43323  43.586  19.050   6.166
 3200POPC   D2A43324  43.837  19.122   6.531
 3200POPC   C3A43325  43.677  18.959   6.889
 3200POPC   C4A43326  43.791  18.642   7.179
 3200POPC   C1B43327  44.220  19.195   6.138
 3200POPC   C2B43328  44.267  19.381   6.562
 3200POPC   C3B43329  44.193  19.181   6.973
 3200POPC   C4B43330  44.290  19.299   7.413
 3201POPC   NC343331   8.626  23.148   5.365
 3201POPC   PO443332   7.927  22.944   5.383
 3201POPC   GL143333   8.083  23.001   5.775
 3201POPC   GL243334   8.362  23.227   5.787
 3201POPC   C1A43335   7.912  22.849   6.158
 3201POPC   D2A43336   8.085  22.851   6.564
 3201POPC   C3A43337   8.044  22.493   6.799
 3201POPC   C4A43338   8.175  22.590   7.187
 3201POPC   C1B43339   8.281  23.205   6.216
 3201POPC   C2B43340   8.154  23.387   6.594
 3201POPC   C3B43341   8.178  23.316   7.041
 3201POPC   C4B43342   8.507  23.366   7.327
 3202POPC   NC343343  18.382  32.600   5.410
 3202POPC   PO443344  17.940  32.080   5.347
 3202POPC   GL143345  18.173  32.222   5.706
 3202POPC   GL243346  17.878  32.399   5.774
 3202POPC   C1A43347  18.442  32.261   6.094
 3202POPC   D2A43348  18.552  32.526   6.440
 3202POPC   C3A43349  18.505  32.295   6.832
 3202POPC   C4A43350  18.403  32.403   7.243
 3202POPC   C1B43351  17.938  32.228   6.182
 3202POPC   C2B43352  18.074  32.395   6.577
 3202POPC   C3B43353  17.946  32.420   7.027
 3202POPC   C4B43354  17.968  32.304   7.473
 3203POPC   NC343355   9.940  37.784   5.497
 3203POPC   PO443356   9.301  37.805   5.506
 3203POPC   GL143357   9.546  37.619   5.833
 3203POPC   GL243358   9.702  37.310   5.754
 3203POPC   C1A43359   9.766  37.786   6.202
 3203POPC   D2A43360   9.833  38.030   6.581
 3203POPC   C3A43361   9.768  37.801   6.966
 3203POPC   C4A43362   9.941  37.841   7.369
 3203POPC   C1B43363   9.975  37.324   6.098
 3203POPC   C2B43364   9.822  37.372   6.518
 3203POPC   C3B43365   9.961  37.254   6.908
 3203POPC   C4B43366   9.825  37.328   7.326
 3204POPC   NC343367  36.755  11.567   5.416
 3204POPC   PO443368  36.756  10.960   5.675
 3204POPC   GL143369  36.951  11.061   6.000
 3204POPC   GL243370  37.022  11.374   5.875
 3204POPC   C1A43371  36.841  11.032   6.411
 3204POPC   D2A43372  36.989  11.283   6.725
 3204POPC   C3A43373  36.758  11.358   7.063
 3204POPC   C4A43374  36.744  11.065   7.406
 3204POPC   C1B43375  37.036  11.523   6.288
 3204POPC   C2B43376  37.140  11.765   6.627
 3204POPC   C3B43377  37.212  11.624   7.050
 3204POPC   C4B43378  37.064  11.455   7.471
 3205POPC   NC343379   8.141  30.751   5.320
 3205POPC   PO443380   8.126  30.297   5.760
 3205POPC   GL143381   8.192  30.732   5.871
 3205POPC   GL243382   8.429  31.003   5.701
 3205POPC   C1A43383   8.164  30.697   6.322
 3205POPC   D2A43384   8.206  30.392   6.674
 3205POPC   C3A43385   7.955  30.472   7.058
 3205POPC   C4A43386   7.870  30.361   7.490
 3205POPC   C1B43387   8.550  30.998   6.159
 3205POPC   C2B43388   8.558  30.829   6.628
 3205POPC   C3B43389   8.359  30.856   7.058
 3205POPC   C4B43390   8.174  30.757   7.490
 3206POPC   NC343391  41.893  30.055   5.124
 3206POPC   PO443392  42.550  29.958   5.357
 3206POPC   GL143393  42.440  29.897   5.810
 3206POPC   GL243394  42.445  29.556   5.828
 3206POPC   C1A43395  42.145  30.038   6.208
 3206POPC   D2A43396  42.066  30.230   6.600
 3206POPC   C3A43397  42.050  29.986   6.961
 3206POPC   C4A43398  42.224  29.943   7.369
 3206POPC   C1B43399  42.483  29.673   6.262
 3206POPC   C2B43400  42.447  29.854   6.639
 3206POPC   C3B43401  42.482  29.680   7.013
 3206POPC   C4B43402  42.732  29.782   7.332
 3207POPC   NC343403  27.921  11.645   5.468
 3207POPC   PO443404  27.594  12.148   5.151
 3207POPC   GL143405  27.722  12.325   5.598
 3207POPC   GL243406  27.787  12.008   5.814
 3207POPC   C1A43407  27.717  12.442   6.070
 3207POPC   D2A43408  27.668  12.106   6.379
 3207POPC   C3A43409  27.708  12.101   6.839
 3207POPC   C4A43410  27.899  12.339   7.175
 3207POPC   C1B43411  27.814  11.669   6.165
 3207POPC   C2B43412  27.650  11.624   6.581
 3207POPC   C3B43413  27.585  11.632   7.016
 3207POPC   C4B43414  27.162  11.689   7.150
 3208POPC   NC343415  35.770  44.221   5.423
 3208POPC   PO443416  35.110  44.204   5.266
 3208POPC   GL143417  35.366  43.978   5.640
 3208POPC   GL243418  35.534  43.618   5.652
 3208POPC   C1A43419  35.336  44.112   6.098
 3208POPC   D2A43420  35.032  43.996   6.422
 3208POPC   C3A43421  35.141  44.096   6.868
 3208POPC   C4A43422  35.085  43.922   7.300
 3208POPC   C1B43423  35.400  43.606   6.113
 3208POPC   C2B43424  35.491  43.827   6.529
 3208POPC   C3B43425  35.417  43.663   6.951
 3208POPC   C4B43426  35.490  43.633   7.387
 3209POPC   NC343427  29.346  38.685   5.410
 3209POPC   PO443428  28.940  38.174   5.365
 3209POPC   GL143429  29.135  38.160   5.820
 3209POPC   GL243430  29.490  38.202   5.977
 3209POPC   C1A43431  29.058  38.278   6.263
 3209POPC   D2A43432  29.283  38.271   6.660
 3209POPC   C3A43433  28.982  38.383   6.970
 3209POPC   C4A43434  28.838  38.469   7.416
 3209POPC   C1B43435  29.463  38.590   6.276
 3209POPC   C2B43436  29.299  38.781   6.721
 3209POPC   C3B43437  29.266  38.710   7.227
 3209POPC   C4B43438  29.275  38.562   7.680
 3210POPC   NC343439  35.575   4.183   5.580
 3210POPC   PO443440  36.231   3.936   5.499
 3210POPC   GL143441  36.068   4.193   5.819
 3210POPC   GL243442  35.991   4.502   5.691
 3210POPC   C1A43443  36.155   4.209   6.239
 3210POPC   D2A43444  36.251   3.950   6.564
 3210POPC   C3A43445  36.109   4.191   6.863
 3210POPC   C4A43446  36.227   4.196   7.272
 3210POPC   C1B43447  35.930   4.644   6.116
 3210POPC   C2B43448  36.157   4.650   6.537
 3210POPC   C3B43449  36.181   4.674   7.003
 3210POPC   C4B43450  35.908   4.827   7.341
 3211POPC   NC343451  26.281  21.629   5.486
 3211POPC   PO443452  26.114  20.975   5.397
 3211POPC   GL143453  26.217  21.231   5.763
 3211POPC   GL243454  25.873  21.312   5.814
 3211POPC   C1A43455  26.317  21.490   6.138
 3211POPC   D2A43456  26.408  21.642   6.566
 3211POPC   C3A43457  26.205  21.381   6.842
 3211POPC   C4A43458  26.071  21.292   7.228
 3211POPC   C1B43459  25.819  21.611   6.131
 3211POPC   C2B43460  25.905  21.732   6.563
 3211POPC   C3B43461  25.764  21.629   6.973
 3211POPC   C4B43462  25.888  21.753   7.366
 3212POPC   NC343463  43.434  39.127   5.426
 3212POPC   PO443464  42.872  39.579   5.493
 3212POPC   GL143465  43.216  39.480   5.777
 3212POPC   GL243466  43.177  39.150   5.923
 3212POPC   C1A43467  43.412  39.516   6.216
 3212POPC   D2A43468  43.378  39.176   6.587
 3212POPC   C3A43469  43.275  39.309   7.041
 3212POPC   C4A43470  43.219  39.437   7.497
 3212POPC   C1B43471  42.802  38.902   6.130
 3212POPC   C2B43472  42.619  38.880   6.560
 3212POPC   C3B43473  42.856  38.905   6.955
 3212POPC   C4B43474  42.917  38.636   7.294
 3213POPC   NC343475   9.665  14.707   5.528
 3213POPC   PO443476   9.843  15.355   5.337
 3213POPC   GL143477   9.859  15.370   5.791
 3213POPC   GL243478   9.550  15.179   5.845
 3213POPC   C1A43479  10.096  15.379   6.186
 3213POPC   D2A43480   9.898  15.463   6.570
 3213POPC   C3A43481  10.070  15.514   6.953
 3213POPC   C4A43482   9.902  15.251   7.286
 3213POPC   C1B43483   9.628  15.095   6.287
 3213POPC   C2B43484   9.618  15.005   6.736
 3213POPC   C3B43485   9.477  15.006   7.176
 3213POPC   C4B43486   9.572  15.031   7.649
 3214POPC   NC343487  12.195  21.571   5.420
 3214POPC   PO443488  11.579  21.160   5.478
 3214POPC   GL143489  11.730  21.315   5.834
 3214POPC   GL243490  11.806  21.602   5.765
 3214POPC   C1A43491  11.927  21.306   6.223
 3214POPC   D2A43492  12.112  21.235   6.623
 3214POPC   C3A43493  12.402  21.475   6.878
 3214POPC   C4A43494  12.481  21.357   7.320
 3214POPC   C1B43495  11.576  21.681   6.150
 3214POPC   C2B43496  11.664  21.677   6.554
 3214POPC   C3B43497  11.817  21.499   6.931
 3214POPC   C4B43498  12.062  21.727   7.154
 3215POPC   NC343499  12.372  25.522   5.354
 3215POPC   PO443500  11.998  24.914   5.391
 3215POPC   GL143501  11.980  24.995   5.818
 3215POPC   GL243502  12.326  25.158   5.846
 3215POPC   C1A43503  12.096  24.974   6.257
 3215POPC   D2A43504  12.281  24.933   6.631
 3215POPC   C3A43505  12.133  25.220   6.936
 3215POPC   C4A43506  11.814  25.344   7.225
 3215POPC   C1B43507  12.449  25.445   6.197
 3215POPC   C2B43508  12.551  25.377   6.623
 3215POPC   C3B43509  12.541  25.563   7.006
 3215POPC   C4B43510  12.216  25.646   7.269
 3216POPC   NC343511  27.405   6.359   5.294
 3216POPC   PO443512  27.633   6.937   5.504
 3216POPC   GL143513  27.558   6.703   5.823
 3216POPC   GL243514  27.231   6.837   5.941
 3216POPC   C1A43515  27.774   6.763   6.213
 3216POPC   D2A43516  27.576   6.787   6.611
 3216POPC   C3A43517  27.751   6.601   6.978
 3216POPC   C4A43518  28.071   6.731   7.248
 3216POPC   C1B43519  27.356   6.492   6.238
 3216POPC   C2B43520  27.292   6.296   6.627
 3216POPC   C3B43521  27.235   6.595   6.957
 3216POPC   C4B43522  27.383   6.432   7.317
 3217POPC   NC343523  18.441   7.704   5.475
 3217POPC   PO443524  18.216   7.094   5.439
 3217POPC   GL143525  18.272   7.352   5.823
 3217POPC   GL243526  18.077   7.685   5.879
 3217POPC   C1A43527  18.297   7.388   6.262
 3217POPC   D2A43528  18.118   7.417   6.667
 3217POPC   C3A43529  18.387   7.571   6.963
 3217POPC   C4A43530  18.594   7.441   7.271
 3217POPC   C1B43531  17.811   7.573   6.256
 3217POPC   C2B43532  17.660   7.647   6.692
 3217POPC   C3B43533  17.907   7.713   7.050
 3217POPC   C4B43534  18.127   7.663   7.411
 3218POPC   NC343535  44.156  24.159   5.481
 3218POPC   PO443536  43.737  23.643   5.367
 3218POPC   GL143537  43.744  23.889   5.737
 3218POPC   GL243538  43.869  23.573   5.901
 3218POPC   C1A43539  43.549  23.895   6.153
 3218POPC   D2A43540  43.639  23.563   6.444
 3218POPC   C3A43541  43.689  23.678   6.877
 3218POPC   C4A43542  43.676  23.898   7.295
 3218POPC   C1B43543  44.137  23.649   6.247
 3218POPC   C2B43544  44.440  23.630   6.564
 3218POPC   C3B43545  44.203  23.750   6.898
 3218POPC   C4B43546  44.027  23.532   7.246
 3219POPC   NC343547  33.510  33.922   5.417
 3219POPC   PO443548  34.056  33.546   5.239
 3219POPC   GL143549  34.010  33.638   5.707
 3219POPC   GL243550  33.776  33.871   5.861
 3219POPC   C1A43551  34.034  33.558   6.167
 3219POPC   D2A43552  33.997  33.879   6.493
 3219POPC   C3A43553  33.730  33.796   6.854
 3219POPC   C4A43554  33.885  33.863   7.253
 3219POPC   C1B43555  33.560  34.008   6.256
 3219POPC   C2B43556  33.552  34.248   6.669
 3219POPC   C3B43557  33.548  34.227   7.152
 3219POPC   C4B43558  33.574  34.084   7.610
 3220POPC   NC343559  32.438  23.954   5.334
 3220POPC   PO443560  32.683  23.495   5.498
 3220POPC   GL143561  32.383  23.786   5.834
 3220POPC   GL243562  32.369  24.176   5.847
 3220POPC   C1A43563  32.038  23.935   6.190
 3220POPC   D2A43564  31.965  24.142   6.639
 3220POPC   C3A43565  31.942  23.887   7.023
 3220POPC   C4A43566  32.169  23.485   7.087
 3220POPC   C1B43567  32.487  24.095   6.325
 3220POPC   C2B43568  32.355  23.822   6.710
 3220POPC   C3B43569  32.434  23.918   7.182
 3220POPC   C4B43570  32.506  24.027   7.638
 3221POPC   NC343571  13.194  43.220   5.258
 3221POPC   PO443572  13.864  43.102   5.395
 3221POPC   GL143573  13.675  43.188   5.796
 3221POPC   GL243574  13.616  42.852   5.911
 3221POPC   C1A43575  13.796  43.365   6.226
 3221POPC   D2A43576  14.026  43.284   6.637
 3221POPC   C3A43577  13.916  42.995   6.979
 3221POPC   C4A43578  13.941  43.152   7.420
 3221POPC   C1B43579  13.332  43.109   6.177
 3221POPC   C2B43580  13.124  43.272   6.553
 3221POPC   C3B43581  13.201  43.307   6.987
 3221POPC   C4B43582  13.473  43.055   7.243
 3222POPC   NC343583  30.586  37.645   5.361
 3222POPC   PO443584  31.157  37.962   5.599
 3222POPC   GL143585  30.751  37.886   5.799
 3222POPC   GL243586  30.749  37.507   5.827
 3222POPC   C1A43587  30.580  37.788   6.212
 3222POPC   D2A43588  30.753  37.611   6.598
 3222POPC   C3A43589  30.460  37.756   6.909
 3222POPC   C4A43590  30.572  37.941   7.300
 3222POPC   C1B43591  30.570  37.259   6.168
 3222POPC   C2B43592  30.408  37.252   6.588
 3222POPC   C3B43593  30.594  37.261   7.006
 3222POPC   C4B43594  30.887  37.559   7.230
 3223POPC   NC343595  33.721  33.227   5.237
 3223POPC   PO443596  34.015  32.663   5.457
 3223POPC   GL143597  33.758  32.891   5.758
 3223POPC   GL243598  33.485  32.699   5.884
 3223POPC   C1A43599  33.874  32.954   6.209
 3223POPC   D2A43600  33.907  32.712   6.623
 3223POPC   C3A43601  33.821  32.936   7.012
 3223POPC   C4A43602  33.923  33.317   7.255
 3223POPC   C1B43603  33.463  32.636   6.328
 3223POPC   C2B43604  33.385  32.724   6.772
 3223POPC   C3B43605  33.391  32.738   7.225
 3223POPC   C4B43606  33.529  32.620   7.662
 3224POPC   NC343607  19.927  35.717   5.360
 3224POPC   PO443608  19.375  36.180   5.388
 3224POPC   GL143609  19.656  36.017   5.713
 3224POPC   GL243610  20.013  35.935   5.865
 3224POPC   C1A43611  19.545  36.020   6.146
 3224POPC   D2A43612  19.349  35.784   6.496
 3224POPC   C3A43613  19.600  35.897   6.884
 3224POPC   C4A43614  19.586  36.223   7.181
 3224POPC   C1B43615  20.179  35.972   6.285
 3224POPC   C2B43616  20.214  36.302   6.608
 3224POPC   C3B43617  20.082  36.270   7.012
 3224POPC   C4B43618  20.151  35.855   7.054
 3225POPC   NC343619   2.639  39.473   5.140
 3225POPC   PO443620   3.257  39.179   5.299
 3225POPC   GL143621   3.007  39.251   5.739
 3225POPC   GL243622   2.649  39.367   5.768
 3225POPC   C1A43623   2.917  39.063   6.188
 3225POPC   D2A43624   2.613  38.966   6.549
 3225POPC   C3A43625   2.782  39.036   6.961
 3225POPC   C4A43626   3.079  39.362   7.104
 3225POPC   C1B43627   2.511  39.372   6.213
 3225POPC   C2B43628   2.337  39.429   6.624
 3225POPC   C3B43629   2.430  39.392   7.035
 3225POPC   C4B43630   2.533  39.682   7.324
 3226POPC   NC343631   1.403  20.088   5.421
 3226POPC   PO443632   1.011  19.522   5.456
 3226POPC   GL143633   1.254  19.737   5.757
 3226POPC   GL243634   0.987  20.010   5.706
 3226POPC   C1A43635   1.535  19.785   6.126
 3226POPC   D2A43636   1.487  19.592   6.540
 3226POPC   C3A43637   1.441  19.694   6.916
 3226POPC   C4A43638   1.566  19.932   7.241
 3226POPC   C1B43639   0.867  19.811   6.094
 3226POPC   C2B43640   1.041  19.864   6.504
 3226POPC   C3B43641   0.936  19.771   6.926
 3226POPC   C4B43642   1.095  19.637   7.301
 3227POPC   NC343643   2.156  19.502   5.340
 3227POPC   PO443644   1.793  18.902   5.392
 3227POPC   GL143645   1.762  19.167   5.769
 3227POPC   GL243646   2.104  19.292   5.853
 3227POPC   C1A43647   1.724  19.314   6.189
 3227POPC   D2A43648   1.964  19.359   6.570
 3227POPC   C3A43649   1.896  19.171   6.988
 3227POPC   C4A43650   1.947  18.776   7.193
 3227POPC   C1B43651   2.360  19.396   6.257
 3227POPC   C2B43652   2.439  19.618   6.668
 3227POPC   C3B43653   2.439  19.557   7.120
 3227POPC   C4B43654   2.327  19.247   7.437
 3228POPC   NC343655  31.946   4.676   5.622
 3228POPC   PO443656  32.452   4.210   5.535
 3228POPC   GL143657  32.320   4.392   5.901
 3228POPC   GL243658  32.050   4.180   5.861
 3228POPC   C1A43659  32.266   4.639   6.303
 3228POPC   D2A43660  31.870   4.704   6.587
 3228POPC   C3A43661  31.959   4.616   7.036
 3228POPC   C4A43662  32.403   4.599   7.186
 3228POPC   C1B43663  31.984   4.228   6.268
 3228POPC   C2B43664  32.154   4.289   6.668
 3228POPC   C3B43665  32.230   4.151   7.054
 3228POPC   C4B43666  31.947   4.143   7.327
 3229POPC   NC343667  23.649  31.109   5.420
 3229POPC   PO443668  23.855  30.480   5.337
 3229POPC   GL143669  23.833  30.505   5.782
 3229POPC   GL243670  23.762  30.837   5.839
 3229POPC   C1A43671  23.715  30.526   6.242
 3229POPC   D2A43672  23.929  30.736   6.580
 3229POPC   C3A43673  23.796  30.746   6.993
 3229POPC   C4A43674  23.860  30.376   7.228
 3229POPC   C1B43675  23.786  31.058   6.231
 3229POPC   C2B43676  23.530  31.073   6.631
 3229POPC   C3B43677  23.307  30.717   6.871
 3229POPC   C4B43678  23.403  30.595   7.295
 3230POPC   NC343679  34.421  31.666   5.475
 3230POPC   PO443680  33.757  31.639   5.411
 3230POPC   GL143681  33.811  31.388   5.802
 3230POPC   GL243682  34.157  31.244   5.781
 3230POPC   C1A43683  33.643  31.494   6.231
 3230POPC   D2A43684  33.625  31.793   6.569
 3230POPC   C3A43685  33.523  31.651   6.958
 3230POPC   C4A43686  33.718  31.285   7.026
 3230POPC   C1B43687  34.061  31.202   6.235
 3230POPC   C2B43688  34.002  31.450   6.625
 3230POPC   C3B43689  34.152  31.531   7.038
 3230POPC   C4B43690  34.244  31.115   7.149
 3231POPC   NC343691  33.436   0.797   5.602
 3231POPC   PO443692  33.854   1.188   5.185
 3231POPC   GL143693  33.893   1.170   5.651
 3231POPC   GL243694  33.954   1.503   5.646
 3231POPC   C1A43695  33.760   1.048   6.121
 3231POPC   D2A43696  33.611   1.283   6.511
 3231POPC   C3A43697  33.835   1.205   6.888
 3231POPC   C4A43698  33.779   1.048   7.277
 3231POPC   C1B43699  33.800   1.547   6.080
 3231POPC   C2B43700  33.769   1.782   6.451
 3231POPC   C3B43701  33.773   1.715   6.857
 3231POPC   C4B43702  33.888   1.642   7.281
 3232POPC   NC343703   7.087  14.296   5.384
 3232POPC   PO443704   7.778  14.584   5.470
 3232POPC   GL143705   7.422  14.423   5.746
 3232POPC   GL243706   7.060  14.455   5.860
 3232POPC   C1A43707   7.491  14.344   6.161
 3232POPC   D2A43708   7.467  14.277   6.579
 3232POPC   C3A43709   7.520  14.521   6.952
 3232POPC   C4A43710   7.545  14.478   7.404
 3232POPC   C1B43711   7.050  14.066   6.088
 3232POPC   C2B43712   6.997  14.010   6.544
 3232POPC   C3B43713   7.160  14.153   6.959
 3232POPC   C4B43714   7.050  14.423   7.331
 3233POPC   NC343715  13.055  12.841   5.380
 3233POPC   PO443716  12.625  12.396   5.386
 3233POPC   GL143717  12.831  12.581   5.766
 3233POPC   GL243718  13.215  12.580   5.794
 3233POPC   C1A43719  12.887  12.851   6.131
 3233POPC   D2A43720  12.758  13.153   6.448
 3233POPC   C3A43721  12.844  12.951   6.827
 3233POPC   C4A43722  12.709  12.826   7.228
 3233POPC   C1B43723  13.347  12.632   6.220
 3233POPC   C2B43724  13.196  12.615   6.655
 3233POPC   C3B43725  13.165  12.656   7.112
 3233POPC   C4B43726  12.956  12.526   7.534
 3234POPC   NC343727   5.886  44.218   5.441
 3234POPC   PO443728   5.716  43.597   5.272
 3234POPC   GL143729   5.656  43.543   5.717
 3234POPC   GL243730   5.788  43.869   5.821
 3234POPC   C1A43731   5.784  43.490   6.159
 3234POPC   D2A43732   5.773  43.822   6.514
 3234POPC   C3A43733   5.829  43.812   6.946
 3234POPC   C4A43734   5.815  43.646   7.360
 3234POPC   C1B43735   6.095  43.954   6.153
 3234POPC   C2B43736   6.127  44.205   6.519
 3234POPC   C3B43737   5.923  44.339   6.896
 3234POPC   C4B43738   6.014  44.161   7.306
 3235POPC   NC343739  41.422  30.808   5.492
 3235POPC   PO443740  41.572  30.152   5.459
 3235POPC   GL143741  41.719  30.482   5.762
 3235POPC   GL243742  41.415  30.516   5.952
 3235POPC   C1A43743  41.844  30.754   6.141
 3235POPC   D2A43744  41.861  30.691   6.620
 3235POPC   C3A43745  41.512  30.795   6.885
 3235POPC   C4A43746  41.328  31.104   7.168
 3235POPC   C1B43747  41.628  30.327   6.322
 3235POPC   C2B43748  41.569  30.277   6.756
 3235POPC   C3B43749  41.774  30.411   7.107
 3235POPC   C4B43750  41.697  30.504   7.551
 3236POPC   NC343751  33.144  16.930   5.518
 3236POPC   PO443752  33.027  16.283   5.548
 3236POPC   GL143753  33.049  16.575   5.898
 3236POPC   GL243754  32.741  16.765   5.845
 3236POPC   C1A43755  32.932  16.546   6.345
 3236POPC   D2A43756  33.005  16.436   6.768
 3236POPC   C3A43757  33.236  16.648   7.112
 3236POPC   C4A43758  33.219  16.886   7.486
 3236POPC   C1B43759  32.614  16.933   6.255
 3236POPC   C2B43760  32.570  16.761   6.671
 3236POPC   C3B43761  32.811  16.879   7.017
 3236POPC   C4B43762  32.785  17.146   7.380
 3237POPC   NC343763  28.794  37.819   5.631
 3237POPC   PO443764  29.251  37.305   5.496
 3237POPC   GL143765  29.247  37.629   5.794
 3237POPC   GL243766  28.948  37.438   5.924
 3237POPC   C1A43767  29.178  37.792   6.221
 3237POPC   D2A43768  29.092  37.629   6.619
 3237POPC   C3A43769  29.199  37.893   7.003
 3237POPC   C4A43770  29.312  38.188   7.317
 3237POPC   C1B43771  29.312  37.296   6.178
 3237POPC   C2B43772  29.525  37.335   6.569
 3237POPC   C3B43773  29.308  37.382   6.986
 3237POPC   C4B43774  28.865  37.531   7.122
 3238POPC   NC343775  11.699  35.601   5.044
 3238POPC   PO443776  11.319  35.216   5.419
 3238POPC   GL143777  11.201  35.257   5.835
 3238POPC   GL243778  11.033  34.972   5.891
 3238POPC   C1A43779  11.073  35.319   6.272
 3238POPC   D2A43780  10.990  35.064   6.631
 3238POPC   C3A43781  11.191  35.228   7.016
 3238POPC   C4A43782  11.171  35.175   7.452
 3238POPC   C1B43783  11.434  34.963   6.203
 3238POPC   C2B43784  11.548  35.045   6.680
 3238POPC   C3B43785  11.602  34.944   7.153
 3238POPC   C4B43786  11.669  35.127   7.582
 3239POPC   NC343787   4.167  12.363   5.471
 3239POPC   PO443788   4.546  11.787   5.311
 3239POPC   GL143789   4.485  12.035   5.721
 3239POPC   GL243790   4.128  12.011   5.854
 3239POPC   C1A43791   4.431  12.296   6.126
 3239POPC   D2A43792   4.182  12.226   6.474
 3239POPC   C3A43793   4.330  12.300   6.867
 3239POPC   C4A43794   4.215  12.011   7.184
 3239POPC   C1B43795   3.908  11.820   6.210
 3239POPC   C2B43796   3.820  11.845   6.643
 3239POPC   C3B43797   3.796  11.761   7.055
 3239POPC   C4B43798   3.717  11.772   7.529
 3240POPC   NC343799  44.203  20.950   5.555
 3240POPC   PO443800  44.719  20.534   5.315
 3240POPC   GL143801  44.679  20.627   5.756
 3240POPC   GL243802  44.357  20.506   5.782
 3240POPC   C1A43803  44.637  20.596   6.230
 3240POPC   D2A43804  44.843  20.523   6.648
 3240POPC   C3A43805  44.856  20.910   6.898
 3240POPC   C4A43806  44.981  21.028   7.327
 3240POPC   C1B43807  44.115  20.494   6.131
 3240POPC   C2B43808  44.196  20.416   6.548
 3240POPC   C3B43809  44.414  20.608   6.902
 3240POPC   C4B43810  44.528  20.784   7.318
 3241POPC   NC343811   1.160   4.476   5.382
 3241POPC   PO443812   0.878   3.896   5.431
 3241POPC   GL143813   1.153   4.132   5.785
 3241POPC   GL243814   1.384   4.462   5.849
 3241POPC   C1A43815   1.149   4.239   6.250
 3241POPC   D2A43816   0.907   4.186   6.657
 3241POPC   C3A43817   1.012   4.110   7.108
 3241POPC   C4A43818   0.933   4.105   7.581
 3241POPC   C1B43819   1.556   4.658   6.275
 3241POPC   C2B43820   1.584   4.879   6.722
 3241POPC   C3B43821   1.384   4.839   7.163
 3241POPC   C4B43822   1.015   4.584   7.323
 3242POPC   NC343823  16.023  12.402   5.515
 3242POPC   PO443824  16.143  11.814   5.152
 3242POPC   GL143825  15.899  11.856   5.664
 3242POPC   GL243826  16.049  12.048   5.949
 3242POPC   C1A43827  15.685  11.784   6.140
 3242POPC   D2A43828  15.796  11.763   6.620
 3242POPC   C3A43829  15.640  11.903   7.009
 3242POPC   C4A43830  15.637  12.281   7.293
 3242POPC   C1B43831  16.022  12.160   6.388
 3242POPC   C2B43832  15.903  12.298   6.814
 3242POPC   C3B43833  16.129  12.273   7.188
 3242POPC   C4B43834  16.235  12.255   7.602
 3243POPC   NC343835   3.973  29.298   5.408
 3243POPC   PO443836   4.259  28.702   5.540
 3243POPC   GL143837   4.086  28.991   5.824
 3243POPC   GL243838   4.297  29.313   5.810
 3243POPC   C1A43839   4.006  29.218   6.227
 3243POPC   D2A43840   4.094  29.107   6.642
 3243POPC   C3A43841   4.123  29.331   7.023
 3243POPC   C4A43842   3.988  29.068   7.333
 3243POPC   C1B43843   4.486  29.089   6.150
 3243POPC   C2B43844   4.597  29.016   6.588
 3243POPC   C3B43845   4.456  28.928   6.990
 3243POPC   C4B43846   4.574  28.956   7.397
 3244POPC   NC343847   6.861   0.609   5.390
 3244POPC   PO443848   6.226   0.616   5.349
 3244POPC   GL143849   6.499   0.499   5.749
 3244POPC   GL243850   6.841   0.301   5.815
 3244POPC   C1A43851   6.550   0.483   6.216
 3244POPC   D2A43852   6.414   0.615   6.630
 3244POPC   C3A43853   6.530   0.476   7.032
 3244POPC   C4A43854   6.632   0.880   7.245
 3244POPC   C1B43855   6.955   0.155   6.286
 3244POPC   C2B43856   6.936   0.174   6.756
 3244POPC   C3B43857   6.987   0.103   7.228
 3244POPC   C4B43858   6.888   0.022   7.686
 3245POPC   NC343859  35.655  37.112   5.440
 3245POPC   PO443860  35.296  36.536   5.424
 3245POPC   GL143861  35.520  36.733   5.782
 3245POPC   GL243862  35.310  37.020   5.849
 3245POPC   C1A43863  35.767  36.995   6.107
 3245POPC   D2A43864  35.690  37.164   6.522
 3245POPC   C3A43865  35.470  36.895   6.794
 3245POPC   C4A43866  35.507  36.862   7.230
 3245POPC   C1B43867  35.294  36.844   6.291
 3245POPC   C2B43868  35.010  36.659   6.623
 3245POPC   C3B43869  35.146  36.471   7.012
 3245POPC   C4B43870  35.146  36.589   7.454
 3246POPC   NC343871  34.252  10.967   5.555
 3246POPC   PO443872  33.863  11.426   5.195
 3246POPC   GL143873  33.764  11.402   5.685
 3246POPC   GL243874  33.980  11.638   5.742
 3246POPC   C1A43875  33.715  11.169   6.151
 3246POPC   D2A43876  33.910  11.031   6.561
 3246POPC   C3A43877  33.793  10.959   6.970
 3246POPC   C4A43878  33.805  11.272   7.222
 3246POPC   C1B43879  34.169  11.415   6.054
 3246POPC   C2B43880  34.196  11.477   6.470
 3246POPC   C3B43881  34.033  11.571   6.837
 3246POPC   C4B43882  34.081  11.690   7.218
 3247POPC   NC343883   2.066  14.676   5.359
 3247POPC   PO443884   1.639  14.194   5.470
 3247POPC   GL143885   1.946  14.309   5.742
 3247POPC   GL243886   1.818  14.654   5.822
 3247POPC   C1A43887   2.072  14.147   6.142
 3247POPC   D2A43888   2.020  14.373   6.512
 3247POPC   C3A43889   1.946  14.209   6.916
 3247POPC   C4A43890   2.184  14.292   7.319
 3247POPC   C1B43891   2.224  14.660   6.073
 3247POPC   C2B43892   2.344  14.788   6.504
 3247POPC   C3B43893   2.173  14.669   6.907
 3247POPC   C4B43894   1.748  14.674   7.060
 3248POPC   NC343895  32.438  17.012   5.397
 3248POPC   PO443896  31.854  16.802   5.503
 3248POPC   GL143897  32.191  16.747   5.815
 3248POPC   GL243898  32.312  17.092   5.885
 3248POPC   C1A43899  32.236  16.564   6.244
 3248POPC   D2A43900  32.040  16.645   6.651
 3248POPC   C3A43901  32.203  16.429   6.977
 3248POPC   C4A43902  32.595  16.388   7.050
 3248POPC   C1B43903  31.975  17.017   6.211
 3248POPC   C2B43904  31.893  17.143   6.635
 3248POPC   C3B43905  32.262  17.138   6.894
 3248POPC   C4B43906  32.366  16.868   7.214
 3249POPC   NC343907  29.457   0.465   5.369
 3249POPC   PO443908  28.892   0.257   5.490
 3249POPC   GL143909  29.017   0.437   5.834
 3249POPC   GL243910  29.346   0.322   5.848
 3249POPC   C1A43911  28.956   0.309   6.249
 3249POPC   D2A43912  28.795   0.457   6.620
 3249POPC   C3A43913  28.957   0.265   6.967
 3249POPC   C4A43914  29.057   0.132   7.341
 3249POPC   C1B43915  29.473   0.239   6.246
 3249POPC   C2B43916  29.332   0.344   6.640
 3249POPC   C3B43917  29.488   0.359   7.056
 3249POPC   C4B43918  29.577   0.164   7.441
 3250POPC   NC343919   9.482   1.772   5.398
 3250POPC   PO443920   9.978   2.283   5.422
 3250POPC   GL143921   9.724   2.107   5.749
 3250POPC   GL243922   9.878   1.818   5.792
 3250POPC   C1A43923   9.749   2.138   6.211
 3250POPC   D2A43924   9.932   2.119   6.603
 3250POPC   C3A43925   9.674   2.032   6.919
 3250POPC   C4A43926   9.772   2.136   7.285
 3250POPC   C1B43927   9.636   1.647   6.129
 3250POPC   C2B43928   9.714   1.637   6.569
 3250POPC   C3B43929   9.768   1.534   7.001
 3250POPC   C4B43930   9.588   1.670   7.370
 3251POPC   NC343931  16.301  43.475   5.219
 3251POPC   PO443932  16.660  42.962   5.420
 3251POPC   GL143933  16.709  43.179   5.796
 3251POPC   GL243934  16.449  43.421   5.719
 3251POPC   C1A43935  16.714  43.033   6.253
 3251POPC   D2A43936  16.608  43.180   6.670
 3251POPC   C3A43937  16.669  42.938   7.034
 3251POPC   C4A43938  16.958  43.232   7.191
 3251POPC   C1B43939  16.268  43.218   6.063
 3251POPC   C2B43940  16.183  42.997   6.458
 3251POPC   C3B43941  16.159  43.102   6.913
 3251POPC   C4B43942  16.474  43.381   7.142
 3252POPC   NC343943  27.934  15.231   5.175
 3252POPC   PO443944  27.361  14.879   5.441
 3252POPC   GL143945  27.656  15.172   5.659
 3252POPC   GL243946  27.510  15.491   5.711
 3252POPC   C1A43947  27.885  15.288   6.082
 3252POPC   D2A43948  27.804  15.221   6.547
 3252POPC   C3A43949  27.777  15.034   6.982
 3252POPC   C4A43950  27.794  15.274   7.388
 3252POPC   C1B43951  27.371  15.258   6.130
 3252POPC   C2B43952  27.307  15.062   6.568
 3252POPC   C3B43953  27.273  15.212   7.028
 3252POPC   C4B43954  27.321  15.433   7.446
 3253POPC   NC343955  18.371  38.142   5.320
 3253POPC   PO443956  18.575  37.478   5.435
 3253POPC   GL143957  18.336  37.566   5.837
 3253POPC   GL243958  18.303  37.945   5.873
 3253POPC   C1A43959  18.449  37.684   6.293
 3253POPC   D2A43960  18.478  37.984   6.668
 3253POPC   C3A43961  18.417  37.790   7.042
 3253POPC   C4A43962  18.360  37.343   7.033
 3253POPC   C1B43963  17.988  37.883   6.206
 3253POPC   C2B43964  18.045  37.696   6.635
 3253POPC   C3B43965  17.933  37.628   7.057
 3253POPC   C4B43966  17.572  37.527   7.264
 3254POPC   NC343967  23.043  39.084   5.521
 3254POPC   PO443968  22.501  39.415   5.515
 3254POPC   GL143969  22.641  39.172   5.879
 3254POPC   GL243970  22.709  38.841   5.829
 3254POPC   C1A43971  22.731  39.171   6.348
 3254POPC   D2A43972  22.467  39.338   6.708
 3254POPC   C3A43973  22.618  39.531   7.102
 3254POPC   C4A43974  22.968  39.752   7.356
 3254POPC   C1B43975  23.057  38.801   6.141
 3254POPC   C2B43976  23.014  38.782   6.590
 3254POPC   C3B43977  22.989  39.043   6.991
 3254POPC   C4B43978  22.860  39.214   7.422
 3255POPC   NC343979   7.067  11.713   5.595
 3255POPC   PO443980   7.391  12.092   5.182
 3255POPC   GL143981   7.337  12.154   5.735
 3255POPC   GL243982   7.163  12.367   5.866
 3255POPC   C1A43983   7.542  12.163   6.158
 3255POPC   D2A43984   7.445  11.932   6.514
 3255POPC   C3A43985   7.567  12.209   6.808
 3255POPC   C4A43986   7.674  12.158   7.195
 3255POPC   C1B43987   7.048  12.084   6.208
 3255POPC   C2B43988   7.021  12.174   6.659
 3255POPC   C3B43989   7.139  12.138   7.093
 3255POPC   C4B43990   7.023  11.895   7.434
 3256POPC   NC343991  38.196  23.860   5.374
 3256POPC   PO443992  38.857  24.076   5.276
 3256POPC   GL143993  38.760  23.861   5.723
 3256POPC   GL243994  38.395  23.893   5.828
 3256POPC   C1A43995  38.737  23.867   6.193
 3256POPC   D2A43996  38.902  23.902   6.625
 3256POPC   C3A43997  38.657  24.116   6.945
 3256POPC   C4A43998  38.336  23.875   7.104
 3256POPC   C1B43999  38.202  23.753   6.223
 3256POPC   C2B44000  38.044  23.629   6.672
 3256POPC   C3B44001  38.255  23.381   7.004
 3256POPC   C4B44002  38.574  23.422   7.351
 3257POPC   NC344003  33.672  39.466   5.362
 3257POPC   PO444004  34.077  38.933   5.174
 3257POPC   GL144005  34.014  38.983   5.665
 3257POPC   GL244006  33.716  39.206   5.810
 3257POPC   C1A44007  33.983  38.940   6.133
 3257POPC   D2A44008  33.824  39.150   6.515
 3257POPC   C3A44009  34.094  39.190   6.894
 3257POPC   C4A44010  34.150  38.974   7.294
 3257POPC   C1B44011  33.477  39.386   6.195
 3257POPC   C2B44012  33.361  39.302   6.663
 3257POPC   C3B44013  33.587  39.343   7.090
 3257POPC   C4B44014  33.513  39.633   7.443
 3258POPC   NC344015   8.416  35.789   5.601
 3258POPC   PO444016   8.391  36.415   5.352
 3258POPC   GL144017   8.374  36.419   5.782
 3258POPC   GL244018   8.101  36.178   5.844
 3258POPC   C1A44019   8.375  36.381   6.226
 3258POPC   D2A44020   8.225  36.305   6.641
 3258POPC   C3A44021   8.438  36.044   6.929
 3258POPC   C4A44022   8.378  36.270   7.283
 3258POPC   C1B44023   8.063  35.963   6.269
 3258POPC   C2B44024   8.008  35.838   6.723
 3258POPC   C3B44025   7.995  35.921   7.194
 3258POPC   C4B44026   7.908  35.711   7.633
 3259POPC   NC344027  25.047  20.915   5.553
 3259POPC   PO444028  25.321  20.401   5.193
 3259POPC   GL144029  25.314  20.504   5.702
 3259POPC   GL244030  25.479  20.817   5.853
 3259POPC   C1A44031  25.183  20.598   6.181
 3259POPC   D2A44032  25.338  20.845   6.553
 3259POPC   C3A44033  25.122  20.887   6.969
 3259POPC   C4A44034  25.284  20.896   7.409
 3259POPC   C1B44035  25.690  20.554   6.167
 3259POPC   C2B44036  25.770  20.503   6.599
 3259POPC   C3B44037  25.518  20.542   6.950
 3259POPC   C4B44038  25.326  20.200   7.130
 3260POPC   NC344039  12.559  26.964   5.506
 3260POPC   PO444040  13.095  26.608   5.312
 3260POPC   GL144041  12.995  26.749   5.729
 3260POPC   GL244042  12.702  26.543   5.816
 3260POPC   C1A44043  13.050  26.932   6.153
 3260POPC   D2A44044  13.271  26.812   6.542
 3260POPC   C3A44045  13.071  26.962   6.908
 3260POPC   C4A44046  12.917  26.771   7.252
 3260POPC   C1B44047  12.551  26.827   6.130
 3260POPC   C2B44048  12.673  27.041   6.501
 3260POPC   C3B44049  12.566  27.095   6.901
 3260POPC   C4B44050  12.461  26.987   7.287
 3261POPC   NC344051   3.411  12.455   5.430
 3261POPC   PO444052   3.840  11.891   5.407
 3261POPC   GL144053   3.634  11.832   5.778
 3261POPC   GL244054   3.614  12.175   5.799
 3261POPC   C1A44055   3.378  11.919   6.173
 3261POPC   D2A44056   3.443  12.158   6.545
 3261POPC   C3A44057   3.309  11.986   6.958
 3261POPC   C4A44058   3.274  12.046   7.417
 3261POPC   C1B44059   3.842  12.333   6.111
 3261POPC   C2B44060   3.782  12.537   6.480
 3261POPC   C3B44061   3.816  12.323   6.873
 3261POPC   C4B44062   3.721  12.209   7.268
 3262POPC   NC344063   4.883  42.805   5.497
 3262POPC   PO444064   5.537  43.003   5.390
 3262POPC   GL144065   5.289  43.032   5.765
 3262POPC   GL244066   5.301  42.670   5.807
 3262POPC   C1A44067   5.199  43.229   6.183
 3262POPC   D2A44068   4.945  43.417   6.540
 3262POPC   C3A44069   5.057  43.286   6.984
 3262POPC   C4A44070   4.972  42.933   7.258
 3262POPC   C1B44071   5.080  42.721   6.210
 3262POPC   C2B44072   5.154  42.922   6.621
 3262POPC   C3B44073   5.397  42.773   7.012
 3262POPC   C4B44074   5.388  42.709   7.466
 3263POPC   NC344075  32.396   3.298   5.341
 3263POPC   PO444076  32.524   3.883   5.082
 3263POPC   GL144077  32.597   3.717   5.563
 3263POPC   GL244078  32.273   3.728   5.689
 3263POPC   C1A44079  32.555   3.582   6.062
 3263POPC   D2A44080  32.288   3.321   6.375
 3263POPC   C3A44081  32.291   3.245   6.842
 3263POPC   C4A44082  32.104   3.309   7.253
 3263POPC   C1B44083  32.086   3.751   6.105
 3263POPC   C2B44084  32.162   3.803   6.520
 3263POPC   C3B44085  32.094   3.702   6.908
 3263POPC   C4B44086  32.477   3.668   7.129
 3264POPC   NC344087  43.546  24.762   5.426
 3264POPC   PO444088  44.292  24.617   5.413
 3264POPC   GL144089  43.967  24.719   5.726
 3264POPC   GL244090  43.768  24.406   5.729
 3264POPC   C1A44091  43.688  24.727   6.108
 3264POPC   D2A44092  43.583  24.442   6.452
 3264POPC   C3A44093  43.662  24.701   6.805
 3264POPC   C4A44094  43.902  24.595   7.128
 3264POPC   C1B44095  43.963  24.236   6.120
 3264POPC   C2B44096  43.911  24.022   6.508
 3264POPC   C3B44097  43.845  24.160   6.878
 3264POPC   C4B44098  44.124  24.144   7.200
 3265POPC   NC344099   8.511   2.849   4.979
 3265POPC   PO444100   8.114   2.557   5.395
 3265POPC   GL144101   8.250   2.730   5.782
 3265POPC   GL244102   8.284   3.072   5.740
 3265POPC   C1A44103   8.087   2.799   6.204
 3265POPC   D2A44104   8.199   2.481   6.483
 3265POPC   C3A44105   8.146   2.532   6.914
 3265POPC   C4A44106   8.084   2.596   7.369
 3265POPC   C1B44107   8.381   3.219   6.193
 3265POPC   C2B44108   8.241   3.077   6.638
 3265POPC   C3B44109   8.319   3.046   7.112
 3265POPC   C4B44110   8.098   3.066   7.538
 3266POPC   NC344111  19.682  22.195   5.490
 3266POPC   PO444112  20.392  22.140   5.517
 3266POPC   GL144113  20.044  22.125   5.834
 3266POPC   GL244114  20.073  21.765   5.816
 3266POPC   C1A44115  19.716  22.284   6.178
 3266POPC   D2A44116  19.483  22.556   6.508
 3266POPC   C3A44117  19.647  22.450   6.935
 3266POPC   C4A44118  19.844  22.229   7.265
 3266POPC   C1B44119  19.794  21.775   6.152
 3266POPC   C2B44120  19.774  21.687   6.542
 3266POPC   C3B44121  19.659  21.894   6.891
 3266POPC   C4B44122  19.634  21.746   7.246
 3267POPC   NC344123  19.736  29.400   5.439
 3267POPC   PO444124  20.223  29.101   5.423
 3267POPC   GL144125  20.072  29.263   5.838
 3267POPC   GL244126  19.710  29.280   5.938
 3267POPC   C1A44127  20.068  29.281   6.313
 3267POPC   D2A44128  20.154  29.276   6.749
 3267POPC   C3A44129  19.911  29.472   7.099
 3267POPC   C4A44130  20.142  29.438   7.457
 3267POPC   C1B44131  19.562  29.342   6.349
 3267POPC   C2B44132  19.653  29.165   6.742
 3267POPC   C3B44133  19.408  29.058   7.100
 3267POPC   C4B44134  19.488  29.143   7.511
 3268POPC   NC344135  25.709  30.959   5.357
 3268POPC   PO444136  26.234  30.595   5.455
 3268POPC   GL144137  25.997  30.791   5.772
 3268POPC   GL244138  25.833  30.512   5.824
 3268POPC   C1A44139  25.809  30.893   6.195
 3268POPC   D2A44140  26.066  30.971   6.572
 3268POPC   C3A44141  26.087  30.755   6.958
 3268POPC   C4A44142  25.947  30.796   7.363
 3268POPC   C1B44143  25.614  30.427   6.177
 3268POPC   C2B44144  25.804  30.517   6.584
 3268POPC   C3B44145  25.709  30.423   7.028
 3268POPC   C4B44146  25.612  30.423   7.486
 3269POPC   NC344147   5.451  14.159   5.447
 3269POPC   PO444148   4.932  14.451   5.335
 3269POPC   GL144149   5.083  14.375   5.734
 3269POPC   GL244150   5.210  14.684   5.839
 3269POPC   C1A44151   4.953  14.195   6.124
 3269POPC   D2A44152   4.860  14.268   6.551
 3269POPC   C3A44153   4.917  14.052   6.936
 3269POPC   C4A44154   4.997  14.344   7.270
 3269POPC   C1B44155   5.415  14.439   6.177
 3269POPC   C2B44156   5.363  14.158   6.508
 3269POPC   C3B44157   5.418  14.205   6.927
 3269POPC   C4B44158   5.460  14.572   7.171
 3270POPC   NC344159  38.608  41.437   5.483
 3270POPC   PO444160  38.216  42.016   5.393
 3270POPC   GL144161  38.271  41.748   5.759
 3270POPC   GL244162  38.107  41.428   5.803
 3270POPC   C1A44163  38.505  41.552   6.137
 3270POPC   D2A44164  38.808  41.653   6.473
 3270POPC   C3A44165  38.688  41.520   6.870
 3270POPC   C4A44166  38.719  41.576   7.312
 3270POPC   C1B44167  38.006  41.715   6.179
 3270POPC   C2B44168  37.801  41.670   6.560
 3270POPC   C3B44169  37.988  41.721   6.961
 3270POPC   C4B44170  38.260  41.404   7.136
 3271POPC   NC344171   9.319  40.027   5.461
 3271POPC   PO444172   8.655  39.843   5.332
 3271POPC   GL144173   8.869  39.762   5.715
 3271POPC   GL244174   8.584  39.561   5.836
 3271POPC   C1A44175   9.120  39.912   6.104
 3271POPC   D2A44176   9.114  39.750   6.549
 3271POPC   C3A44177   9.177  39.800   6.996
 3271POPC   C4A44178   9.039  40.054   7.327
 3271POPC   C1B44179   8.606  39.914   6.139
 3271POPC   C2B44180   8.779  40.127   6.504
 3271POPC   C3B44181   8.705  40.028   6.921
 3271POPC   C4B44182   8.659  39.693   7.223
 3272POPC   NC344183  17.199  44.841   5.383
 3272POPC   PO444184  16.527  44.690   5.355
 3272POPC   GL144185  16.621  44.931   5.746
 3272POPC   GL244186  16.901  44.736   5.785
 3272POPC   C1A44187  16.689  44.905   6.233
 3272POPC   D2A44188  16.955  44.882   6.626
 3272POPC   C3A44189  16.674  44.847   6.987
 3272POPC   C4A44190  16.409  44.927   7.372
 3272POPC   C1B44191  16.952  44.481   6.144
 3272POPC   C2B44192  16.720  44.428   6.528
 3272POPC   C3B44193  16.982  44.441   6.891
 3272POPC   C4B44194  17.007  44.642   7.305
 3273POPC   NC344195  36.697  31.715   5.326
 3273POPC   PO444196  37.060  31.190   5.352
 3273POPC   GL144197  36.977  31.475   5.704
 3273POPC   GL244198  37.131  31.824   5.681
 3273POPC   C1A44199  36.869  31.313   6.133
 3273POPC   D2A44200  37.181  31.152   6.400
 3273POPC   C3A44201  37.065  31.137   6.833
 3273POPC   C4A44202  36.915  31.266   7.231
 3273POPC   C1B44203  37.181  31.718   6.157
 3273POPC   C2B44204  37.039  31.609   6.601
 3273POPC   C3B44205  36.721  31.660   6.946
 3273POPC   C4B44206  36.625  32.080   7.155
 3274POPC   NC344207  41.487  40.446   5.473
 3274POPC   PO444208  41.189  39.795   5.349
 3274POPC   GL144209  41.306  39.752   5.779
 3274POPC   GL244210  41.415  40.047   5.779
 3274POPC   C1A44211  41.585  39.723   6.141
 3274POPC   D2A44212  41.704  39.950   6.509
 3274POPC   C3A44213  41.607  39.755   6.897
 3274POPC   C4A44214  41.451  39.598   7.290
 3274POPC   C1B44215  41.418  40.239   6.180
 3274POPC   C2B44216  41.420  40.361   6.634
 3274POPC   C3B44217  41.699  40.354   6.987
 3274POPC   C4B44218  41.745  40.046   7.307
 3275POPC   NC344219  17.447  24.885   5.478
 3275POPC   PO444220  17.421  25.488   5.544
 3275POPC   GL144221  17.754  25.416   5.861
 3275POPC   GL244222  17.713  25.052   5.889
 3275POPC   C1A44223  17.748  25.314   6.327
 3275POPC   D2A44224  17.537  25.074   6.636
 3275POPC   C3A44225  17.404  25.290   7.003
 3275POPC   C4A44226  17.634  25.502   7.335
 3275POPC   C1B44227  17.327  24.961   6.147
 3275POPC   C2B44228  17.148  24.777   6.528
 3275POPC   C3B44229  17.286  24.773   6.965
 3275POPC   C4B44230  17.138  24.956   7.328
 3276POPC   NC344231  38.982  42.927   5.365
 3276POPC   PO444232  38.418  43.147   5.138
 3276POPC   GL144233  38.585  43.125   5.616
 3276POPC   GL244234  38.690  42.748   5.744
 3276POPC   C1A44235  38.523  43.094   6.088
 3276POPC   D2A44236  38.326  43.008   6.489
 3276POPC   C3A44237  38.420  43.190   6.905
 3276POPC   C4A44238  38.123  43.088   7.230
 3276POPC   C1B44239  38.872  42.702   6.171
 3276POPC   C2B44240  38.743  42.740   6.598
 3276POPC   C3B44241  38.912  42.841   6.993
 3276POPC   C4B44242  38.743  43.098   7.322
 3277POPC   NC344243   2.506   9.119   5.497
 3277POPC   PO444244   3.057   8.786   5.458
 3277POPC   GL144245   2.847   8.940   5.839
 3277POPC   GL244246   2.900   9.305   5.792
 3277POPC   C1A44247   2.552   8.806   6.205
 3277POPC   D2A44248   2.685   8.880   6.649
 3277POPC   C3A44249   2.445   8.906   7.069
 3277POPC   C4A44250   2.518   8.670   7.485
 3277POPC   C1B44251   2.700   9.291   6.210
 3277POPC   C2B44252   2.895   9.343   6.600
 3277POPC   C3B44253   2.888   9.179   7.012
 3277POPC   C4B44254   2.986   9.412   7.342
 3278POPC   NC344255   6.816   3.234   5.559
 3278POPC   PO444256   6.558   3.876   5.449
 3278POPC   GL144257   6.507   3.613   5.806
 3278POPC   GL244258   6.473   3.230   5.915
 3278POPC   C1A44259   6.749   3.674   6.154
 3278POPC   D2A44260   6.670   3.777   6.558
 3278POPC   C3A44261   6.708   3.515   6.913
 3278POPC   C4A44262   6.661   3.671   7.328
 3278POPC   C1B44263   6.792   3.166   6.268
 3278POPC   C2B44264   6.956   2.996   6.690
 3278POPC   C3B44265   7.032   3.156   7.129
 3278POPC   C4B44266   6.758   3.191   7.518
 3279POPC   NC344267  31.946  35.071   5.548
 3279POPC   PO444268  32.270  35.564   5.237
 3279POPC   GL144269  32.307  35.489   5.710
 3279POPC   GL244270  32.647  35.649   5.828
 3279POPC   C1A44271  32.100  35.366   6.142
 3279POPC   D2A44272  32.278  35.152   6.531
 3279POPC   C3A44273  32.157  35.280   6.966
 3279POPC   C4A44274  31.962  35.240   7.386
 3279POPC   C1B44275  32.609  35.439   6.210
 3279POPC   C2B44276  32.760  35.330   6.628
 3279POPC   C3B44277  32.641  35.422   7.065
 3279POPC   C4B44278  32.367  35.536   7.401
 3280POPC   NC344279  41.535  23.599   5.280
 3280POPC   PO444280  41.684  24.207   5.519
 3280POPC   GL144281  41.480  23.865   5.789
 3280POPC   GL244282  41.596  23.517   5.802
 3280POPC   C1A44283  41.386  23.790   6.231
 3280POPC   D2A44284  41.559  23.834   6.676
 3280POPC   C3A44285  41.305  23.876   7.060
 3280POPC   C4A44286  41.418  24.051   7.465
 3280POPC   C1B44287  41.688  23.289   6.196
 3280POPC   C2B44288  41.870  23.179   6.610
 3280POPC   C3B44289  41.812  23.364   7.032
 3280POPC   C4B44290  41.565  23.523   7.410
 3281POPC   NC344291  42.760  41.807   5.545
 3281POPC   PO444292  43.044  41.160   5.342
 3281POPC   GL144293  43.021  41.402   5.753
 3281POPC   GL244294  43.351  41.519   5.875
 3281POPC   C1A44295  43.070  41.314   6.227
 3281POPC   D2A44296  43.299  41.336   6.627
 3281POPC   C3A44297  43.044  41.318   7.015
 3281POPC   C4A44298  42.851  40.998   7.247
 3281POPC   C1B44299  43.301  41.790   6.245
 3281POPC   C2B44300  43.106  41.816   6.633
 3281POPC   C3B44301  43.269  41.780   7.027
 3281POPC   C4B44302  43.021  41.754   7.419
 3282POPC   NC344303  13.193  19.707   5.395
 3282POPC   PO444304  12.528  19.902   5.456
 3282POPC   GL144305  12.818  19.817   5.789
 3282POPC   GL244306  12.758  19.480   5.793
 3282POPC   C1A44307  12.933  19.829   6.242
 3282POPC   D2A44308  12.691  19.872   6.641
 3282POPC   C3A44309  12.946  19.840   6.996
 3282POPC   C4A44310  13.205  19.796   7.302
 3282POPC   C1B44311  12.487  19.607   6.177
 3282POPC   C2B44312  12.508  19.421   6.596
 3282POPC   C3B44313  12.600  19.464   7.019
 3282POPC   C4B44314  12.543  19.772   7.304
 3283POPC   NC344315  34.150  36.386   5.353
 3283POPC   PO444316  34.665  35.906   5.274
 3283POPC   GL144317  34.434  36.041   5.636
 3283POPC   GL244318  34.522  36.407   5.701
 3283POPC   C1A44319  34.505  36.038   6.106
 3283POPC   D2A44320  34.710  35.933   6.530
 3283POPC   C3A44321  34.714  36.193   6.904
 3283POPC   C4A44322  34.500  36.180   7.277
 3283POPC   C1B44323  34.411  36.575   6.099
 3283POPC   C2B44324  34.470  36.390   6.501
 3283POPC   C3B44325  34.241  36.412   6.890
 3283POPC   C4B44326  34.181  36.602   7.308
 3284POPC   NC344327  27.799   0.727   5.523
 3284POPC   PO444328  27.594   1.356   5.252
 3284POPC   GL144329  27.769   1.373   5.702
 3284POPC   GL244330  27.813   1.711   5.888
 3284POPC   C1A44331  27.749   1.216   6.154
 3284POPC   D2A44332  27.419   1.124   6.501
 3284POPC   C3A44333  27.510   1.134   6.955
 3284POPC   C4A44334  27.803   1.129   7.287
 3284POPC   C1B44335  27.662   1.716   6.307
 3284POPC   C2B44336  27.700   1.547   6.717
 3284POPC   C3B44337  27.616   1.612   7.157
 3284POPC   C4B44338  27.778   1.568   7.593
 3285POPC   NC344339  10.880  16.713   5.422
 3285POPC   PO444340  11.581  16.772   5.463
 3285POPC   GL144341  11.285  16.628   5.757
 3285POPC   GL244342  11.101  16.922   5.849
 3285POPC   C1A44343  11.348  16.351   6.146
 3285POPC   D2A44344  11.326  16.541   6.573
 3285POPC   C3A44345  11.440  16.347   6.988
 3285POPC   C4A44346  11.735  16.513   7.256
 3285POPC   C1B44347  10.952  16.668   6.182
 3285POPC   C2B44348  10.802  16.592   6.606
 3285POPC   C3B44349  11.043  16.656   6.989
 3285POPC   C4B44350  11.405  16.920   7.116
 3286POPC   NC344351   2.654  43.481   5.427
 3286POPC   PO444352   2.966  42.837   5.408
 3286POPC   GL144353   2.772  43.065   5.745
 3286POPC   GL244354   2.676  42.764   5.858
 3286POPC   C1A44355   2.755  43.196   6.205
 3286POPC   D2A44356   2.529  43.271   6.606
 3286POPC   C3A44357   2.705  43.182   7.033
 3286POPC   C4A44358   2.671  43.258   7.501
 3286POPC   C1B44359   2.909  42.716   6.239
 3286POPC   C2B44360   2.871  42.880   6.640
 3286POPC   C3B44361   2.836  42.671   7.027
 3286POPC   C4B44362   2.843  42.784   7.445
 3287POPC   NC344363  38.060   7.681   5.516
 3287POPC   PO444364  38.756   7.448   5.593
 3287POPC   GL144365  38.662   7.387   5.987
 3287POPC   GL244366  38.821   7.100   6.020
 3287POPC   C1A44367  38.697   7.520   6.416
 3287POPC   D2A44368  38.415   7.690   6.749
 3287POPC   C3A44369  38.548   7.719   7.176
 3287POPC   C4A44370  38.583   7.948   7.555
 3287POPC   C1B44371  38.470   7.067   6.340
 3287POPC   C2B44372  38.479   7.182   6.775
 3287POPC   C3B44373  38.207   7.321   7.113
 3287POPC   C4B44374  37.942   7.213   7.481
 3288POPC   NC344375  43.689  23.180   5.359
 3288POPC   PO444376  44.330  22.960   5.456
 3288POPC   GL144377  44.084  23.080   5.814
 3288POPC   GL244378  43.786  22.887   5.785
 3288POPC   C1A44379  43.952  23.157   6.254
 3288POPC   D2A44380  44.028  23.341   6.659
 3288POPC   C3A44381  43.803  23.174   6.939
 3288POPC   C4A44382  43.878  23.058   7.363
 3288POPC   C1B44383  43.647  22.744   6.188
 3288POPC   C2B44384  43.823  22.777   6.601
 3288POPC   C3B44385  43.681  22.691   7.008
 3288POPC   C4B44386  43.544  22.665   7.416
 3289POPC   NC344387  43.468  41.384   5.408
 3289POPC   PO444388  44.093  41.796   5.531
 3289POPC   GL144389  43.874  41.489   5.794
 3289POPC   GL244390  44.162  41.342   5.950
 3289POPC   C1A44391  43.702  41.435   6.229
 3289POPC   D2A44392  43.699  41.684   6.620
 3289POPC   C3A44393  43.666  41.428   6.988
 3289POPC   C4A44394  43.427  41.421   7.353
 3289POPC   C1B44395  44.140  41.718   6.257
 3289POPC   C2B44396  44.447  41.816   6.613
 3289POPC   C3B44397  44.344  41.820   7.037
 3289POPC   C4B44398  43.914  41.831   7.168
 3290POPC   NC344399  11.090  23.586   5.310
 3290POPC   PO444400  11.497  24.157   5.468
 3290POPC   GL144401  11.505  23.893   5.820
 3290POPC   GL244402  11.338  23.550   5.799
 3290POPC   C1A44403  11.564  23.759   6.235
 3290POPC   D2A44404  11.210  23.719   6.512
 3290POPC   C3A44405  11.364  23.535   6.858
 3290POPC   C4A44406  11.422  23.660   7.295
 3290POPC   C1B44407  11.044  23.392   6.147
 3290POPC   C2B44408  10.980  23.242   6.603
 3290POPC   C3B44409  10.919  23.404   7.049
 3290POPC   C4B44410  10.955  23.564   7.500
 3291POPC   NC344411  38.303   4.428   5.398
 3291POPC   PO444412  38.639   3.782   5.459
 3291POPC   GL144413  38.472   4.062   5.789
 3291POPC   GL244414  38.678   4.349   5.882
 3291POPC   C1A44415  38.380   4.168   6.234
 3291POPC   D2A44416  38.502   4.378   6.611
 3291POPC   C3A44417  38.341   4.193   6.984
 3291POPC   C4A44418  38.005   4.331   7.241
 3291POPC   C1B44419  38.885   4.475   6.280
 3291POPC   C2B44420  38.933   4.567   6.752
 3291POPC   C3B44421  38.695   4.543   7.149
 3291POPC   C4B44422  38.869   4.505   7.587
 3292POPC   NC344423  18.457  34.917   5.465
 3292POPC   PO444424  17.826  35.067   5.418
 3292POPC   GL144425  18.038  35.324   5.726
 3292POPC   GL244426  18.395  35.387   5.748
 3292POPC   C1A44427  18.096  35.507   6.131
 3292POPC   D2A44428  18.406  35.470   6.434
 3292POPC   C3A44429  18.334  35.382   6.876
 3292POPC   C4A44430  18.469  35.465   7.302
 3292POPC   C1B44431  18.279  35.059   6.094
 3292POPC   C2B44432  18.220  34.978   6.539
 3292POPC   C3B44433  18.138  34.746   6.911
 3292POPC   C4B44434  18.195  35.028   7.236
 3293POPC   NC344435  17.980   2.059   5.171
 3293POPC   PO444436  18.432   2.193   5.551
 3293POPC   GL144437  18.022   2.169   5.702
 3293POPC   GL244438  17.934   1.832   5.655
 3293POPC   C1A44439  17.996   2.230   6.152
 3293POPC   D2A44440  18.298   2.160   6.498
 3293POPC   C3A44441  18.280   2.203   6.970
 3293POPC   C4A44442  18.653   2.118   7.261
 3293POPC   C1B44443  18.134   1.743   6.044
 3293POPC   C2B44444  18.000   1.750   6.484
 3293POPC   C3B44445  17.873   1.830   6.923
 3293POPC   C4B44446  17.927   2.040   7.330
 3294POPC   NC344447  17.792  25.794   5.467
 3294POPC   PO444448  17.163  25.916   5.244
 3294POPC   GL144449  17.352  26.172   5.606
 3294POPC   GL244450  17.454  25.916   5.820
 3294POPC   C1A44451  17.199  26.267   6.057
 3294POPC   D2A44452  17.315  26.099   6.489
 3294POPC   C3A44453  17.588  26.307   6.821
 3294POPC   C4A44454  17.344  26.329   7.215
 3294POPC   C1B44455  17.703  26.074   6.152
 3294POPC   C2B44456  17.740  25.807   6.531
 3294POPC   C3B44457  17.542  25.808   6.934
 3294POPC   C4B44458  17.746  26.006   7.284
 3295POPC   NC344459   3.793  18.813   5.563
 3295POPC   PO444460   3.531  18.203   5.370
 3295POPC   GL144461   3.382  18.459   5.719
 3295POPC   GL244462   3.705  18.415   5.904
 3295POPC   C1A44463   3.290  18.508   6.178
 3295POPC   D2A44464   3.359  18.155   6.403
 3295POPC   C3A44465   3.402  18.121   6.809
 3295POPC   C4A44466   3.217  18.352   7.137
 3295POPC   C1B44467   3.839  18.101   6.237
 3295POPC   C2B44468   3.906  18.068   6.702
 3295POPC   C3B44469   3.764  18.281   7.127
 3295POPC   C4B44470   3.642  18.145   7.577
 3296POPC   NC344471   7.100  16.145   5.336
 3296POPC   PO444472   7.326  15.476   5.462
 3296POPC   GL144473   7.325  15.894   5.733
 3296POPC   GL244474   6.990  16.041   5.816
 3296POPC   C1A44475   7.603  16.131   6.031
 3296POPC   D2A44476   7.576  16.231   6.477
 3296POPC   C3A44477   7.610  15.901   6.782
 3296POPC   C4A44478   7.700  15.931   7.198
 3296POPC   C1B44479   7.121  16.029   6.225
 3296POPC   C2B44480   7.107  16.041   6.648
 3296POPC   C3B44481   7.135  15.890   7.043
 3296POPC   C4B44482   7.257  16.185   7.286
 3297POPC   NC344483  35.046  31.815   5.532
 3297POPC   PO444484  34.584  31.290   5.266
 3297POPC   GL144485  34.667  31.269   5.754
 3297POPC   GL244486  34.737  31.616   5.870
 3297POPC   C1A44487  34.530  31.347   6.211
 3297POPC   D2A44488  34.484  31.588   6.540
 3297POPC   C3A44489  34.626  31.451   6.896
 3297POPC   C4A44490  34.640  31.457   7.330
 3297POPC   C1B44491  34.930  31.706   6.298
 3297POPC   C2B44492  35.116  31.781   6.686
 3297POPC   C3B44493  34.962  31.798   7.083
 3297POPC   C4B44494  35.101  31.673   7.495
 3298POPC   NC344495  36.633  36.508   5.396
 3298POPC   PO444496  36.118  37.032   5.473
 3298POPC   GL144497  36.323  36.791   5.757
 3298POPC   GL244498  36.040  36.564   5.817
 3298POPC   C1A44499  36.271  36.872   6.184
 3298POPC   D2A44500  36.210  37.097   6.549
 3298POPC   C3A44501  36.330  36.863   6.900
 3298POPC   C4A44502  36.413  36.998   7.308
 3298POPC   C1B44503  35.760  36.490   6.168
 3298POPC   C2B44504  35.881  36.688   6.542
 3298POPC   C3B44505  35.803  36.551   6.954
 3298POPC   C4B44506  35.998  36.715   7.269
 3299POPC   NC344507  36.488  33.972   5.522
 3299POPC   PO444508  36.047  33.803   5.018
 3299POPC   GL144509  35.994  33.861   5.558
 3299POPC   GL244510  36.192  34.081   5.893
 3299POPC   C1A44511  35.919  33.692   5.997
 3299POPC   D2A44512  35.725  33.904   6.375
 3299POPC   C3A44513  35.955  33.889   6.770
 3299POPC   C4A44514  35.891  33.697   7.185
 3299POPC   C1B44515  36.394  33.774   6.185
 3299POPC   C2B44516  36.465  33.881   6.626
 3299POPC   C3B44517  36.385  33.723   7.030
 3299POPC   C4B44518  36.350  33.909   7.418
 3300POPC   NC344519  19.266   8.365   5.564
 3300POPC   PO444520  18.878   7.844   5.446
 3300POPC   GL144521  18.842   8.146   5.828
 3300POPC   GL244522  19.093   8.418   6.028
 3300POPC   C1A44523  18.884   8.023   6.256
 3300POPC   D2A44524  18.925   8.252   6.624
 3300POPC   C3A44525  18.738   8.036   6.899
 3300POPC   C4A44526  18.944   7.796   7.179
 3300POPC   C1B44527  18.715   8.535   6.252
 3300POPC   C2B44528  18.551   8.635   6.663
 3300POPC   C3B44529  18.753   8.581   7.036
 3300POPC   C4B44530  19.119   8.337   7.124
 3301POPC   NC344531  25.107  29.909   5.368
 3301POPC   PO444532  25.439  30.572   5.273
 3301POPC   GL144533  25.454  30.200   5.665
 3301POPC   GL244534  25.399  29.812   5.773
 3301POPC   C1A44535  25.188  30.142   6.083
 3301POPC   D2A44536  25.028  29.978   6.478
 3301POPC   C3A44537  25.125  30.157   6.843
 3301POPC   C4A44538  25.301  30.131   7.217
 3301POPC   C1B44539  25.239  29.624   6.176
 3301POPC   C2B44540  25.058  29.500   6.606
 3301POPC   C3B44541  25.201  29.663   7.014
 3301POPC   C4B44542  24.985  29.763   7.413
 3302POPC   NC344543   1.422  19.289   5.417
 3302POPC   PO444544   0.958  18.748   5.482
 3302POPC   GL144545   1.275  18.886   5.768
 3302POPC   GL244546   1.190  19.209   5.850
 3302POPC   C1A44547   1.401  18.906   6.208
 3302POPC   D2A44548   1.487  19.095   6.614
 3302POPC   C3A44549   1.456  18.854   6.985
 3302POPC   C4A44550   1.386  18.802   7.417
 3302POPC   C1B44551   1.156  19.406   6.213
 3302POPC   C2B44552   0.939  19.372   6.599
 3302POPC   C3B44553   1.143  19.263   6.959
 3302POPC   C4B44554   1.476  19.304   7.251
 3303POPC   NC344555  37.339  20.838   5.047
 3303POPC   PO444556  36.737  20.519   5.337
 3303POPC   GL144557  36.888  20.719   5.744
 3303POPC   GL244558  37.230  20.861   5.770
 3303POPC   C1A44559  36.826  20.611   6.170
 3303POPC   D2A44560  36.602  20.399   6.468
 3303POPC   C3A44561  36.642  20.501   6.904
 3303POPC   C4A44562  36.689  20.374   7.309
 3303POPC   C1B44563  37.317  20.711   6.236
 3303POPC   C2B44564  37.089  20.646   6.646
 3303POPC   C3B44565  37.139  20.577   7.123
 3303POPC   C4B44566  37.134  20.543   7.604
 3304POPC   NC344567  10.911  12.789   5.352
 3304POPC   PO444568  10.432  13.253   5.362
 3304POPC   GL144569  10.582  12.961   5.716
 3304POPC   GL244570  10.946  13.034   5.822
 3304POPC   C1A44571  10.577  12.889   6.181
 3304POPC   D2A44572  10.545  12.984   6.633
 3304POPC   C3A44573  10.413  12.588   6.856
 3304POPC   C4A44574  10.531  12.445   7.264
 3304POPC   C1B44575  10.885  13.290   6.215
 3304POPC   C2B44576  10.911  13.467   6.651
 3304POPC   C3B44577  10.894  13.207   7.020
 3304POPC   C4B44578  10.557  12.972   7.159
 3305POPC   NC344579  41.624  40.874   5.004
 3305POPC   PO444580  41.715  40.828   5.606
 3305POPC   GL144581  41.680  40.618   5.943
 3305POPC   GL244582  41.850  40.276   5.898
 3305POPC   C1A44583  41.424  40.734   6.301
 3305POPC   D2A44584  41.110  40.800   6.656
 3305POPC   C3A44585  41.262  40.651   7.052
 3305POPC   C4A44586  41.550  40.754   7.380
 3305POPC   C1B44587  41.892  40.403   6.341
 3305POPC   C2B44588  41.844  40.725   6.603
 3305POPC   C3B44589  42.061  40.748   6.951
 3305POPC   C4B44590  42.020  40.592   7.363
 3306POPC   NC344591   2.684   7.202   5.479
 3306POPC   PO444592   3.081   7.789   5.530
 3306POPC   GL144593   2.828   7.552   5.836
 3306POPC   GL244594   2.872   7.183   5.959
 3306POPC   C1A44595   2.808   7.599   6.254
 3306POPC   D2A44596   2.822   7.346   6.559
 3306POPC   C3A44597   2.585   7.468   6.882
 3306POPC   C4A44598   2.715   7.655   7.241
 3306POPC   C1B44599   2.656   6.952   6.314
 3306POPC   C2B44600   2.777   6.854   6.746
 3306POPC   C3B44601   2.746   7.054   7.165
 3306POPC   C4B44602   2.390   7.292   7.372
 3307POPC   NC344603  18.688  44.555   5.416
 3307POPC   PO444604  18.074  44.842   5.290
 3307POPC   GL144605  18.188  44.712   5.721
 3307POPC   GL244606  18.497  44.882   5.769
 3307POPC   C1A44607  18.357  44.558   6.139
 3307POPC   D2A44608  18.540  44.640   6.546
 3307POPC   C3A44609  18.334  44.596   6.943
 3307POPC   C4A44610  18.250  44.532   7.391
 3307POPC   C1B44611  18.571   0.229   6.052
 3307POPC   C2B44612  18.671   0.283   6.489
 3307POPC   C3B44613  18.531   0.065   6.836
 3307POPC   C4B44614  18.482  44.954   7.273
 3308POPC   NC344615  15.477  28.851   5.133
 3308POPC   PO444616  15.151  28.344   5.497
 3308POPC   GL144617  15.202  28.103   5.890
 3308POPC   GL244618  15.192  28.431   6.032
 3308POPC   C1A44619  15.258  28.056   6.348
 3308POPC   D2A44620  15.017  28.326   6.557
 3308POPC   C3A44621  15.200  28.284   6.925
 3308POPC   C4A44622  15.188  28.110   7.287
 3308POPC   C1B44623  14.888  28.688   6.190
 3308POPC   C2B44624  14.866  28.879   6.568
 3308POPC   C3B44625  14.893  28.690   6.969
 3308POPC   C4B44626  15.154  28.623   7.332
 3309POPC   NC344627  15.506   1.052   5.374
 3309POPC   PO444628  14.952   1.400   5.367
 3309POPC   GL144629  15.228   1.346   5.711
 3309POPC   GL244630  15.222   1.016   5.802
 3309POPC   C1A44631  15.343   1.345   6.161
 3309POPC   D2A44632  15.063   1.313   6.506
 3309POPC   C3A44633  15.235   1.274   6.907
 3309POPC   C4A44634  14.931   1.437   7.158
 3309POPC   C1B44635  15.034   0.906   6.199
 3309POPC   C2B44636  15.098   0.808   6.657
 3309POPC   C3B44637  14.963   0.886   7.112
 3309POPC   C4B44638  15.061   1.086   7.498
 3310POPC   NC344639  44.784  18.285   5.365
 3310POPC   PO444640  44.307  18.899   5.428
 3310POPC   GL144641  44.360  18.720   5.836
 3310POPC   GL244642  44.670  18.500   5.830
 3310POPC   C1A44643  44.505  18.739   6.268
 3310POPC   D2A44644  44.595  18.495   6.631
 3310POPC   C3A44645  44.500  18.589   7.026
 3310POPC   C4A44646  44.365  18.370   7.369
 3310POPC   C1B44647  44.860  18.322   6.220
 3310POPC   C2B44648   0.076  18.370   6.646
 3310POPC   C3B44649  44.932  18.304   7.084
 3310POPC   C4B44650  44.870  18.457   7.501
 3311POPC   NC344651  21.999  42.372   5.371
 3311POPC   PO444652  22.397  42.842   5.197
 3311POPC   GL144653  22.254  42.592   5.715
 3311POPC   GL244654  22.103  42.299   5.856
 3311POPC   C1A44655  22.290  42.595   6.208
 3311POPC   D2A44656  22.145  42.415   6.598
 3311POPC   C3A44657  22.255  42.509   7.042
 3311POPC   C4A44658  22.429  42.222   7.340
 3311POPC   C1B44659  21.927  42.175   6.197
 3311POPC   C2B44660  21.795  42.017   6.578
 3311POPC   C3B44661  21.998  42.046   6.967
 3311POPC   C4B44662  21.975  41.806   7.317
 3312POPC   NC344663  32.245  34.199   5.520
 3312POPC   PO444664  32.100  33.619   5.312
 3312POPC   GL144665  32.124  33.731   5.742
 3312POPC   GL244666  32.436  33.745   5.832
 3312POPC   C1A44667  32.019  33.865   6.176
 3312POPC   D2A44668  32.210  33.914   6.594
 3312POPC   C3A44669  31.998  33.802   6.967
 3312POPC   C4A44670  32.189  33.721   7.391
 3312POPC   C1B44671  32.581  33.842   6.239
 3312POPC   C2B44672  32.587  33.543   6.556
 3312POPC   C3B44673  32.434  33.543   6.961
 3312POPC   C4B44674  32.522  33.968   7.094
 3313POPC   NC344675   1.784   8.552   5.310
 3313POPC   PO444676   2.060   9.102   5.433
 3313POPC   GL144677   2.119   8.972   5.826
 3313POPC   GL244678   1.842   8.739   5.786
 3313POPC   C1A44679   2.150   9.129   6.241
 3313POPC   D2A44680   2.185   8.888   6.623
 3313POPC   C3A44681   1.946   9.068   6.955
 3313POPC   C4A44682   1.706   9.301   7.228
 3313POPC   C1B44683   1.891   8.678   6.240
 3313POPC   C2B44684   1.718   8.707   6.665
 3313POPC   C3B44685   1.800   8.593   7.093
 3313POPC   C4B44686   1.989   8.508   7.486
 3314POPC   NC344687   8.176  14.752   5.302
 3314POPC   PO444688   8.029  15.431   5.484
 3314POPC   GL144689   8.185  15.123   5.801
 3314POPC   GL244690   8.355  14.772   5.794
 3314POPC   C1A44691   8.355  15.240   6.211
 3314POPC   D2A44692   8.260  15.033   6.604
 3314POPC   C3A44693   8.396  14.921   6.972
 3314POPC   C4A44694   8.165  15.192   7.166
 3314POPC   C1B44695   8.144  14.766   6.195
 3314POPC   C2B44696   7.868  14.682   6.549
 3314POPC   C3B44697   7.802  14.935   6.929
 3314POPC   C4B44698   7.820  14.910   7.403
 3315POPC   NC344699  11.906   3.036   5.703
 3315POPC   PO444700  12.125   3.680   5.482
 3315POPC   GL144701  12.098   3.497   5.840
 3315POPC   GL244702  11.745   3.509   5.882
 3315POPC   C1A44703  12.087   3.419   6.263
 3315POPC   D2A44704  12.355   3.247   6.521
 3315POPC   C3A44705  12.172   3.353   6.852
 3315POPC   C4A44706  12.291   3.290   7.246
 3315POPC   C1B44707  11.750   3.803   6.242
 3315POPC   C2B44708  11.882   3.867   6.699
 3315POPC   C3B44709  11.861   3.632   7.136
 3315POPC   C4B44710  11.771   3.735   7.565
 3316POPC   NC344711  44.823  37.832   5.375
 3316POPC   PO444712  44.463  37.308   5.358
 3316POPC   GL144713  44.706  37.455   5.763
 3316POPC   GL244714  44.961  37.750   5.854
 3316POPC   C1A44715  44.529  37.674   6.136
 3316POPC   D2A44716  44.624  37.702   6.593
 3316POPC   C3A44717  44.470  37.417   6.944
 3316POPC   C4A44718  44.438  37.641   7.353
 3316POPC   C1B44719   0.014  37.573   6.250
 3316POPC   C2B44720   0.133  37.680   6.653
 3316POPC   C3B44721  44.944  37.597   7.079
 3316POPC   C4B44722  44.932  37.622   7.553
 3317POPC   NC344723  41.997   4.793   5.459
 3317POPC   PO444724  41.881   5.417   5.326
 3317POPC   GL144725  41.628   5.183   5.691
 3317POPC   GL244726  41.730   4.852   5.886
 3317POPC   C1A44727  41.359   5.120   6.093
 3317POPC   D2A44728  41.468   4.896   6.509
 3317POPC   C3A44729  41.434   5.102   6.908
 3317POPC   C4A44730  41.420   5.121   7.349
 3317POPC   C1B44731  41.862   5.112   6.246
 3317POPC   C2B44732  41.911   5.132   6.723
 3317POPC   C3B44733  41.894   5.189   7.189
 3317POPC   C4B44734  41.957   5.451   7.570
 3318POPC   NC344735  31.655  44.312   5.324
 3318POPC   PO444736  31.163  43.822   5.313
 3318POPC   GL144737  31.381  43.872   5.714
 3318POPC   GL244738  31.671  44.107   5.792
 3318POPC   C1A44739  31.416  43.792   6.148
 3318POPC   D2A44740  31.574  43.571   6.502
 3318POPC   C3A44741  31.418  43.775   6.868
 3318POPC   C4A44742  31.586  43.747   7.274
 3318POPC   C1B44743  31.618  44.322   6.213
 3318POPC   C2B44744  31.650  44.274   6.682
 3318POPC   C3B44745  31.855  44.166   7.077
 3318POPC   C4B44746  31.883  44.315   7.511
 3319POPC   NC344747  35.853  16.930   5.517
 3319POPC   PO444748  36.414  16.522   5.625
 3319POPC   GL144749  36.122  16.658   5.922
 3319POPC   GL244750  35.821  16.459   5.838
 3319POPC   C1A44751  36.205  16.790   6.357
 3319POPC   D2A44752  36.542  16.991   6.608
 3319POPC   C3A44753  36.436  16.835   7.006
 3319POPC   C4A44754  36.017  16.852   7.161
 3319POPC   C1B44755  35.706  16.647   6.258
 3319POPC   C2B44756  35.735  16.770   6.716
 3319POPC   C3B44757  35.613  16.527   7.108
 3319POPC   C4B44758  35.626  16.428   7.561
 3320POPC   NC344759  18.330  28.505   5.310
 3320POPC   PO444760  18.133  27.915   5.355
 3320POPC   GL144761  18.207  28.213   5.704
 3320POPC   GL244762  18.554  28.245   5.691
 3320POPC   C1A44763  18.054  28.376   6.096
 3320POPC   D2A44764  18.044  28.138   6.476
 3320POPC   C3A44765  17.924  28.275   6.893
 3320POPC   C4A44766  18.123  28.455   7.254
 3320POPC   C1B44767  18.581  28.288   6.149
 3320POPC   C2B44768  18.569  28.060   6.550
 3320POPC   C3B44769  18.556  28.252   6.963
 3320POPC   C4B44770  18.618  28.539   7.298
 3321POPC   NC344771  14.250  23.921   5.433
 3321POPC   PO444772  14.381  24.620   5.341
 3321POPC   GL144773  14.366  24.382   5.698
 3321POPC   GL244774  14.656  24.498   5.852
 3321POPC   C1A44775  14.151  24.217   6.044
 3321POPC   D2A44776  14.085  24.218   6.473
 3321POPC   C3A44777  14.386  24.174   6.809
 3321POPC   C4A44778  14.526  24.426   7.158
 3321POPC   C1B44779  14.583  24.396   6.302
 3321POPC   C2B44780  14.678  24.612   6.700
 3321POPC   C3B44781  14.939  24.702   7.086
 3321POPC   C4B44782  14.792  24.651   7.540
 3322POPC   NC344783  17.626  42.085   5.369
 3322POPC   PO444784  17.058  42.452   5.364
 3322POPC   GL144785  17.425  42.410   5.719
 3322POPC   GL244786  17.790  42.222   5.836
 3322POPC   C1A44787  17.465  42.363   6.186
 3322POPC   D2A44788  17.782  42.453   6.490
 3322POPC   C3A44789  17.586  42.510   6.903
 3322POPC   C4A44790  17.327  42.389   7.261
 3322POPC   C1B44791  18.086  42.098   6.185
 3322POPC   C2B44792  17.996  41.998   6.634
 3322POPC   C3B44793  17.865  42.097   7.073
 3322POPC   C4B44794  18.026  42.120   7.495
 3323POPC   NC344795  19.500  42.570   5.468
 3323POPC   PO444796  19.575  41.972   5.306
 3323POPC   GL144797  19.636  42.091   5.734
 3323POPC   GL244798  19.905  42.388   5.810
 3323POPC   C1A44799  19.754  41.984   6.152
 3323POPC   D2A44800  19.791  42.274   6.483
 3323POPC   C3A44801  19.762  42.120   6.902
 3323POPC   C4A44802  19.648  42.327   7.291
 3323POPC   C1B44803  20.185  42.598   6.161
 3323POPC   C2B44804  20.238  42.479   6.625
 3323POPC   C3B44805  20.010  42.554   6.990
 3323POPC   C4B44806  20.007  42.663   7.420
 3324POPC   NC344807   3.299  20.909   5.425
 3324POPC   PO444808   3.955  20.852   5.431
 3324POPC   GL144809   3.680  20.842   5.783
 3324POPC   GL244810   3.408  21.063   5.874
 3324POPC   C1A44811   3.419  20.530   5.991
 3324POPC   D2A44812   3.486  20.336   6.381
 3324POPC   C3A44813   3.396  20.409   6.784
 3324POPC   C4A44814   3.690  20.382   7.090
 3324POPC   C1B44815   3.497  20.944   6.272
 3324POPC   C2B44816   3.277  20.870   6.610
 3324POPC   C3B44817   3.449  20.881   6.992
 3324POPC   C4B44818   3.300  21.004   7.348
 3325POPC   NC344819  10.845  44.666   5.525
 3325POPC   PO444820  10.251  44.861   5.635
 3325POPC   GL144821  10.444  44.583   5.938
 3325POPC   GL244822  10.783  44.385   5.970
 3325POPC   C1A44823  10.653  44.781   6.264
 3325POPC   D2A44824  10.617   0.061   6.559
 3325POPC   C3A44825  10.717  44.918   6.937
 3325POPC   C4A44826  10.589  44.773   7.338
 3325POPC   C1B44827  10.779  44.317   6.451
 3325POPC   C2B44828  10.631  44.409   6.887
 3325POPC   C3B44829  10.561  44.247   7.320
 3325POPC   C4B44830  10.826  44.265   7.705
 3326POPC   NC344831  11.507  42.577   5.348
 3326POPC   PO444832  11.044  42.053   5.420
 3326POPC   GL144833  11.269  42.050   5.776
 3326POPC   GL244834  11.295  42.405   5.788
 3326POPC   C1A44835  11.291  42.130   6.236
 3326POPC   D2A44836  11.679  42.289   6.393
 3326POPC   C3A44837  11.730  42.290   6.840
 3326POPC   C4A44838  11.366  42.281   7.117
 3326POPC   C1B44839  11.159  42.611   6.183
 3326POPC   C2B44840  11.286  42.526   6.621
 3326POPC   C3B44841  11.046  42.681   6.964
 3326POPC   C4B44842  10.822  42.377   7.175
 3327POPC   NC344843  14.894  16.285   5.265
 3327POPC   PO444844  15.333  16.698   5.172
 3327POPC   GL144845  15.022  16.689   5.574
 3327POPC   GL244846  14.921  17.024   5.703
 3327POPC   C1A44847  14.908  16.594   6.048
 3327POPC   D2A44848  14.854  16.778   6.489
 3327POPC   C3A44849  14.974  16.580   6.878
 3327POPC   C4A44850  15.027  16.657   7.296
 3327POPC   C1B44851  15.062  17.110   6.138
 3327POPC   C2B44852  15.256  17.156   6.553
 3327POPC   C3B44853  15.324  16.965   6.956
 3327POPC   C4B44854  15.576  17.132   7.268
 3328POPC   NC344855  18.903  24.705   5.361
 3328POPC   PO444856  19.289  24.139   5.287
 3328POPC   GL144857  19.148  24.398   5.684
 3328POPC   GL244858  19.338  24.713   5.670
 3328POPC   C1A44859  18.979  24.520   6.126
 3328POPC   D2A44860  18.899  24.262   6.535
 3328POPC   C3A44861  18.951  24.434   6.977
 3328POPC   C4A44862  18.821  24.498   7.423
 3328POPC   C1B44863  19.482  24.774   6.109
 3328POPC   C2B44864  19.232  24.845   6.479
 3328POPC   C3B44865  18.991  24.914   6.844
 3328POPC   C4B44866  19.246  24.818   7.202
 3329POPC   NC344867  11.984  32.841   4.822
 3329POPC   PO444868  12.047  33.298   5.258
 3329POPC   GL144869  11.881  33.162   5.713
 3329POPC   GL244870  12.046  32.857   5.877
 3329POPC   C1A44871  11.769  33.226   6.164
 3329POPC   D2A44872  11.896  32.939   6.508
 3329POPC   C3A44873  11.991  33.035   6.948
 3329POPC   C4A44874  11.967  32.732   7.303
 3329POPC   C1B44875  12.370  32.969   6.224
 3329POPC   C2B44876  12.567  32.971   6.661
 3329POPC   C3B44877  12.410  32.761   7.040
 3329POPC   C4B44878  12.443  32.708   7.498
 3330POPC   NC344879  18.101  38.840   5.579
 3330POPC   PO444880  18.001  38.342   5.121
 3330POPC   GL144881  17.772  38.447   5.620
 3330POPC   GL244882  17.637  38.190   5.848
 3330POPC   C1A44883  17.864  38.536   6.146
 3330POPC   D2A44884  17.658  38.643   6.542
 3330POPC   C3A44885  17.655  38.492   6.958
 3330POPC   C4A44886  17.460  38.683   7.349
 3330POPC   C1B44887  17.554  38.162   6.319
 3330POPC   C2B44888  17.279  38.285   6.668
 3330POPC   C3B44889  17.182  38.194   7.105
 3330POPC   C4B44890  17.222  37.869   7.448
 3331POPC   NC344891   1.605  33.949   5.474
 3331POPC   PO444892   0.982  33.599   5.400
 3331POPC   GL144893   1.041  33.754   5.861
 3331POPC   GL244894   1.378  33.782   5.897
 3331POPC   C1A44895   1.010  33.785   6.322
 3331POPC   D2A44896   0.988  33.522   6.664
 3331POPC   C3A44897   1.027  33.734   7.048
 3331POPC   C4A44898   0.984  33.721   7.520
 3331POPC   C1B44899   1.732  33.782   6.169
 3331POPC   C2B44900   1.751  33.990   6.548
 3331POPC   C3B44901   1.639  33.783   6.918
 3331POPC   C4B44902   1.452  33.802   7.340
 3332POPC   NC344903  40.677   7.751   5.338
 3332POPC   PO444904  41.005   7.300   5.351
 3332POPC   GL144905  40.789   7.430   5.790
 3332POPC   GL244906  40.444   7.648   5.785
 3332POPC   C1A44907  40.935   7.358   6.268
 3332POPC   D2A44908  41.083   7.258   6.723
 3332POPC   C3A44909  40.825   7.285   7.134
 3332POPC   C4A44910  40.640   7.003   7.472
 3332POPC   C1B44911  40.487   7.604   6.238
 3332POPC   C2B44912  40.577   7.517   6.684
 3332POPC   C3B44913  40.333   7.288   6.983
 3332POPC   C4B44914  40.267   7.327   7.407
 3333POPC   NC344915  41.967  41.210   5.500
 3333POPC   PO444916  41.498  41.685   5.227
 3333POPC   GL144917  41.362  41.597   5.695
 3333POPC   GL244918  41.468  41.248   5.782
 3333POPC   C1A44919  41.450  41.647   6.169
 3333POPC   D2A44920  41.778  41.585   6.508
 3333POPC   C3A44921  41.660  41.661   6.924
 3333POPC   C4A44922  41.364  41.505   7.213
 3333POPC   C1B44923  41.654  41.176   6.204
 3333POPC   C2B44924  41.523  41.145   6.643
 3333POPC   C3B44925  41.731  41.139   7.032
 3333POPC   C4B44926  41.740  41.283   7.454
 3334POPC   NC344927  16.888  32.819   5.270
 3334POPC   PO444928  16.928  33.451   5.287
 3334POPC   GL144929  16.874  33.199   5.652
 3334POPC   GL244930  16.542  33.118   5.680
 3334POPC   C1A44931  16.812  33.276   6.110
 3334POPC   D2A44932  16.712  33.013   6.471
 3334POPC   C3A44933  16.693  33.145   6.919
 3334POPC   C4A44934  16.528  33.225   7.331
 3334POPC   C1B44935  16.722  32.788   5.962
 3334POPC   C2B44936  16.779  32.512   6.338
 3334POPC   C3B44937  16.754  32.585   6.802
 3334POPC   C4B44938  16.586  32.719   7.197
 3335POPC   NC344939  30.378   4.012   5.656
 3335POPC   PO444940  30.759   4.491   5.318
 3335POPC   GL144941  30.633   4.455   5.761
 3335POPC   GL244942  30.458   4.756   5.821
 3335POPC   C1A44943  30.767   4.203   6.162
 3335POPC   D2A44944  30.964   3.942   6.512
 3335POPC   C3A44945  30.908   4.119   6.924
 3335POPC   C4A44946  31.099   4.464   7.151
 3335POPC   C1B44947  30.504   4.644   6.243
 3335POPC   C2B44948  30.675   4.451   6.612
 3335POPC   C3B44949  30.582   4.527   7.036
 3335POPC   C4B44950  30.327   4.549   7.397
 3336POPC   NC344951  24.742  36.029   5.363
 3336POPC   PO444952  24.297  36.525   5.274
 3336POPC   GL144953  24.400  36.239   5.682
 3336POPC   GL244954  24.193  35.923   5.785
 3336POPC   C1A44955  24.552  36.112   6.097
 3336POPC   D2A44956  24.653  36.245   6.500
 3336POPC   C3A44957  24.571  36.092   6.888
 3336POPC   C4A44958  24.887  36.025   7.192
 3336POPC   C1B44959  24.143  35.796   6.217
 3336POPC   C2B44960  24.127  35.943   6.646
 3336POPC   C3B44961  24.189  35.798   7.070
 3336POPC   C4B44962  24.166  35.946   7.486
 3337POPC   NC344963   6.277   1.685   5.321
 3337POPC   PO444964   6.780   2.052   5.290
 3337POPC   GL144965   6.631   2.094   5.710
 3337POPC   GL244966   6.419   1.805   5.813
 3337POPC   C1A44967   6.785   2.068   6.161
 3337POPC   D2A44968   6.669   1.779   6.505
 3337POPC   C3A44969   6.702   1.970   6.916
 3337POPC   C4A44970   6.533   1.904   7.337
 3337POPC   C1B44971   6.296   2.159   6.067
 3337POPC   C2B44972   6.321   2.156   6.520
 3337POPC   C3B44973   6.187   2.024   6.937
 3337POPC   C4B44974   6.056   2.101   7.340
 3338POPC   NC344975  11.442  21.583   5.411
 3338POPC   PO444976  10.858  21.342   5.517
 3338POPC   GL144977  11.212  21.320   5.828
 3338POPC   GL244978  11.362  20.968   5.902
 3338POPC   C1A44979  11.217  21.277   6.267
 3338POPC   D2A44980  11.208  21.463   6.658
 3338POPC   C3A44981  11.021  21.424   7.033
 3338POPC   C4A44982  11.204  21.376   7.429
 3338POPC   C1B44983  11.595  20.909   6.246
 3338POPC   C2B44984  11.600  21.157   6.592
 3338POPC   C3B44985  11.459  21.136   6.996
 3338POPC   C4B44986  11.855  20.968   7.063
 3339POPC   NC344987  31.483   1.673   5.780
 3339POPC   PO444988  31.399   1.120   5.444
 3339POPC   GL144989  31.341   1.140   5.882
 3339POPC   GL244990  31.687   1.234   5.993
 3339POPC   C1A44991  31.344   1.031   6.323
 3339POPC   D2A44992  31.674   1.143   6.635
 3339POPC   C3A44993  31.536   1.135   7.062
 3339POPC   C4A44994  31.447   0.746   7.297
 3339POPC   C1B44995  31.776   1.554   6.333
 3339POPC   C2B44996  32.071   1.523   6.647
 3339POPC   C3B44997  32.002   1.318   7.008
 3339POPC   C4B44998  31.812   1.537   7.317
 3340POPC   NC344999  31.205  13.107   5.212
 3340POPC   PO445000  31.582  12.525   5.287
 3340POPC   GL145001  31.506  12.809   5.584
 3340POPC   GL245002  31.216  12.791   5.678
 3340POPC   C1A45003  31.599  12.952   6.004
 3340POPC   D2A45004  31.394  13.066   6.412
 3340POPC   C3A45005  31.532  12.796   6.741
 3340POPC   C4A45006  31.578  12.822   7.171
 3340POPC   C1B45007  31.145  12.722   6.130
 3340POPC   C2B45008  31.174  12.486   6.536
 3340POPC   C3B45009  31.063  12.640   6.953
 3340POPC   C4B45010  31.103  12.448   7.342
 3341POPC   NC345011  43.148  35.754   5.339
 3341POPC   PO445012  43.309  36.361   5.493
 3341POPC   GL145013  43.080  36.207   5.821
 3341POPC   GL245014  43.220  35.873   5.841
 3341POPC   C1A45015  42.858  36.011   6.173
 3341POPC   D2A45016  43.042  35.924   6.568
 3341POPC   C3A45017  42.886  35.975   6.964
 3341POPC   C4A45018  43.019  36.041   7.381
 3341POPC   C1B45019  43.374  36.153   6.208
 3341POPC   C2B45020  43.357  36.351   6.591
 3341POPC   C3B45021  43.328  36.233   6.992
 3341POPC   C4B45022  43.378  36.433   7.383
 3342POPC   NC345023  27.194  36.156   5.311
 3342POPC   PO445024  26.512  36.097   5.386
 3342POPC   GL145025  26.840  36.156   5.714
 3342POPC   GL245026  27.020  35.836   5.738
 3342POPC   C1A45027  27.066  36.097   6.161
 3342POPC   D2A45028  26.905  35.929   6.543
 3342POPC   C3A45029  27.031  36.210   6.849
 3342POPC   C4A45030  27.090  36.439   7.234
 3342POPC   C1B45031  26.631  35.857   6.064
 3342POPC   C2B45032  26.391  35.998   6.423
 3342POPC   C3B45033  26.412  35.982   6.891
 3342POPC   C4B45034  26.669  36.163   7.190
 3343POPC   NC345035  22.502  15.474   5.585
 3343POPC   PO445036  22.411  14.913   5.202
 3343POPC   GL145037  22.127  15.104   5.612
 3343POPC   GL245038  22.041  15.447   5.773
 3343POPC   C1A45039  22.097  15.024   6.077
 3343POPC   D2A45040  22.368  15.058   6.463
 3343POPC   C3A45041  22.187  15.100   6.863
 3343POPC   C4A45042  22.352  15.315   7.188
 3343POPC   C1B45043  22.234  15.510   6.212
 3343POPC   C2B45044  22.120  15.568   6.664
 3343POPC   C3B45045  21.885  15.508   7.068
 3343POPC   C4B45046  21.711  15.657   7.454
 3344POPC   NC345047   6.949  15.168   5.490
 3344POPC   PO445048   6.280  15.294   5.388
 3344POPC   GL145049   6.473  15.089   5.741
 3344POPC   GL245050   6.669  14.779   5.710
 3344POPC   C1A45051   6.544  15.265   6.153
 3344POPC   D2A45052   6.330  15.157   6.546
 3344POPC   C3A45053   6.486  15.405   6.896
 3344POPC   C4A45054   6.859  15.403   7.157
 3344POPC   C1B45055   6.887  14.864   6.112
 3344POPC   C2B45056   6.832  15.033   6.515
 3344POPC   C3B45057   6.671  14.944   6.907
 3344POPC   C4B45058   6.803  14.886   7.312
 3345POPC   NC345059  23.990  18.590   5.400
 3345POPC   PO445060  23.516  18.042   5.443
 3345POPC   GL145061  23.706  18.362   5.762
 3345POPC   GL245062  23.464  18.553   5.944
 3345POPC   C1A45063  24.019  18.527   6.100
 3345POPC   D2A45064  24.142  18.350   6.504
 3345POPC   C3A45065  24.073  18.522   6.917
 3345POPC   C4A45066  24.041  18.221   7.225
 3345POPC   C1B45067  23.635  18.276   6.316
 3345POPC   C2B45068  23.749  18.127   6.765
 3345POPC   C3B45069  23.493  18.046   7.120
 3345POPC   C4B45070  23.379  18.471   7.238
 3346POPC   NC345071  16.248  10.796   5.460
 3346POPC   PO445072  15.817  10.292   5.462
 3346POPC   GL145073  15.900  10.596   5.804
 3346POPC   GL245074  15.696  10.811   5.965
 3346POPC   C1A45075  16.200  10.712   6.137
 3346POPC   D2A45076  16.320  10.761   6.575
 3346POPC   C3A45077  16.075  10.581   6.944
 3346POPC   C4A45078  15.954  10.411   7.353
 3346POPC   C1B45079  15.735  10.800   6.405
 3346POPC   C2B45080  15.629  10.811   6.829
 3346POPC   C3B45081  15.689  10.828   7.255
 3346POPC   C4B45082  15.614  10.876   7.727
 3347POPC   NC345083  21.391  13.326   5.560
 3347POPC   PO445084  21.442  12.705   5.192
 3347POPC   GL145085  21.667  12.846   5.622
 3347POPC   GL245086  21.748  12.570   5.855
 3347POPC   C1A45087  21.676  13.059   6.078
 3347POPC   D2A45088  21.730  13.048   6.556
 3347POPC   C3A45089  21.508  12.988   6.974
 3347POPC   C4A45090  21.663  13.030   7.411
 3347POPC   C1B45091  21.616  12.604   6.311
 3347POPC   C2B45092  21.327  12.371   6.585
 3347POPC   C3B45093  21.206  12.474   6.981
 3347POPC   C4B45094  21.437  12.578   7.314
 3348POPC   NC345095  28.005  33.833   5.298
 3348POPC   PO445096  28.236  34.370   5.182
 3348POPC   GL145097  28.219  34.087   5.671
 3348POPC   GL245098  28.180  33.725   5.816
 3348POPC   C1A45099  28.423  34.051   6.133
 3348POPC   D2A45100  28.440  33.860   6.546
 3348POPC   C3A45101  28.455  33.986   6.990
 3348POPC   C4A45102  28.726  33.838   7.313
 3348POPC   C1B45103  28.202  33.488   6.260
 3348POPC   C2B45104  28.199  33.450   6.753
 3348POPC   C3B45105  28.371  33.478   7.192
 3348POPC   C4B45106  28.010  33.440   7.501
 3349POPC   NC345107  30.232  15.270   5.508
 3349POPC   PO445108  29.714  15.515   5.401
 3349POPC   GL145109  29.756  15.373   5.820
 3349POPC   GL245110  29.701  15.732   5.869
 3349POPC   C1A45111  30.009  15.099   6.132
 3349POPC   D2A45112  30.185  15.154   6.549
 3349POPC   C3A45113  29.962  15.078   6.944
 3349POPC   C4A45114  30.110  15.105   7.384
 3349POPC   C1B45115  29.602  15.618   6.278
 3349POPC   C2B45116  29.790  15.498   6.669
 3349POPC   C3B45117  29.575  15.467   7.067
 3349POPC   C4B45118  29.656  15.697   7.467
 3350POPC   NC345119  10.117  27.037   5.490
 3350POPC   PO445120   9.604  26.671   5.291
 3350POPC   GL145121   9.628  26.871   5.717
 3350POPC   GL245122   9.551  26.543   5.798
 3350POPC   C1A45123   9.700  26.832   6.209
 3350POPC   D2A45124   9.621  26.947   6.673
 3350POPC   C3A45125   9.900  26.896   7.089
 3350POPC   C4A45126  10.083  26.723   7.504
 3350POPC   C1B45127   9.669  26.308   6.130
 3350POPC   C2B45128   9.884  26.338   6.515
 3350POPC   C3B45129   9.765  26.453   6.898
 3350POPC   C4B45130   9.610  26.530   7.320
 3351POPC   NC345131   5.388  23.509   5.553
 3351POPC   PO445132   5.973  23.582   5.269
 3351POPC   GL145133   5.912  23.603   5.713
 3351POPC   GL245134   6.171  23.408   5.853
 3351POPC   C1A45135   5.797  23.586   6.157
 3351POPC   D2A45136   5.837  23.394   6.562
 3351POPC   C3A45137   5.725  23.706   6.837
 3351POPC   C4A45138   5.764  23.722   7.244
 3351POPC   C1B45139   6.368  23.346   6.254
 3351POPC   C2B45140   6.371  23.448   6.701
 3351POPC   C3B45141   6.122  23.388   7.062
 3351POPC   C4B45142   6.163  23.553   7.499
 3352POPC   NC345143   0.391   5.995   5.602
 3352POPC   PO445144   0.837   6.380   5.494
 3352POPC   GL145145   0.794   6.147   5.868
 3352POPC   GL245146   0.835   5.791   5.863
 3352POPC   C1A45147   0.550   6.001   6.265
 3352POPC   D2A45148   0.459   5.691   6.639
 3352POPC   C3A45149   0.295   5.906   7.013
 3352POPC   C4A45150   0.353   6.309   7.231
 3352POPC   C1B45151   0.763   5.548   6.234
 3352POPC   C2B45152   0.920   5.412   6.625
 3352POPC   C3B45153   0.874   5.566   7.054
 3352POPC   C4B45154   0.631   5.775   7.368
 3353POPC   NC345155  19.456   9.914   5.584
 3353POPC   PO445156  18.886   9.568   5.406
 3353POPC   GL145157  19.032   9.718   5.831
 3353POPC   GL245158  19.325   9.488   5.874
 3353POPC   C1A45159  19.123   9.899   6.288
 3353POPC   D2A45160  19.061   9.695   6.751
 3353POPC   C3A45161  19.004   9.833   7.207
 3353POPC   C4A45162  19.057  10.001   7.649
 3353POPC   C1B45163  19.077   9.394   6.265
 3353POPC   C2B45164  19.250   9.233   6.671
 3353POPC   C3B45165  19.386   9.426   7.090
 3353POPC   C4B45166  19.251   9.456   7.552
 3354POPC   NC345167  24.979  16.358   5.434
 3354POPC   PO445168  25.189  16.981   5.367
 3354POPC   GL145169  25.276  16.701   5.693
 3354POPC   GL245170  24.944  16.747   5.782
 3354POPC   C1A45171  25.267  16.565   6.138
 3354POPC   D2A45172  25.144  16.439   6.538
 3354POPC   C3A45173  25.354  16.633   6.869
 3354POPC   C4A45174  25.315  16.528   7.265
 3354POPC   C1B45175  25.186  17.063   6.033
 3354POPC   C2B45176  25.236  16.994   6.455
 3354POPC   C3B45177  25.044  17.042   6.835
 3354POPC   C4B45178  25.204  17.032   7.253
 3355POPC   NC345179  18.823  23.855   5.343
 3355POPC   PO445180  19.260  23.351   5.384
 3355POPC   GL145181  19.139  23.564   5.748
 3355POPC   GL245182  19.226  23.892   5.723
 3355POPC   C1A45183  18.950  23.542   6.170
 3355POPC   D2A45184  18.755  23.699   6.515
 3355POPC   C3A45185  18.940  23.629   6.886
 3355POPC   C4A45186  18.730  23.502   7.230
 3355POPC   C1B45187  19.106  24.016   6.110
 3355POPC   C2B45188  19.237  23.864   6.494
 3355POPC   C3B45189  19.254  24.020   6.879
 3355POPC   C4B45190  19.025  24.027   7.276
 3356POPC   NC345191   8.209  42.615   5.319
 3356POPC   PO445192   7.809  42.032   5.404
 3356POPC   GL145193   7.892  42.387   5.681
 3356POPC   GL245194   8.257  42.446   5.793
 3356POPC   C1A45195   7.868  42.543   6.102
 3356POPC   D2A45196   8.064  42.378   6.467
 3356POPC   C3A45197   7.956  42.459   6.888
 3356POPC   C4A45198   8.017  42.160   7.244
 3356POPC   C1B45199   8.472  42.231   6.129
 3356POPC   C2B45200   8.609  42.258   6.564
 3356POPC   C3B45201   8.451  42.258   6.975
 3356POPC   C4B45202   8.303  42.564   7.265
 3357POPC   NC345203   3.719  31.232   5.611
 3357POPC   PO445204   3.677  31.867   5.404
 3357POPC   GL145205   3.590  31.882   5.847
 3357POPC   GL245206   3.472  31.553   5.923
 3357POPC   C1A45207   3.792  31.817   6.246
 3357POPC   D2A45208   3.658  31.517   6.544
 3357POPC   C3A45209   3.380  31.626   6.866
 3357POPC   C4A45210   3.593  31.624   7.272
 3357POPC   C1B45211   3.273  31.352   6.266
 3357POPC   C2B45212   3.318  31.124   6.667
 3357POPC   C3B45213   3.441  31.178   7.080
 3357POPC   C4B45214   3.189  31.171   7.442
 3358POPC   NC345215  15.807  26.325   5.417
 3358POPC   PO445216  15.656  25.730   5.715
 3358POPC   GL145217  15.977  25.998   5.787
 3358POPC   GL245218  15.829  26.263   5.933
 3358POPC   C1A45219  16.158  25.937   6.159
 3358POPC   D2A45220  15.956  26.081   6.531
 3358POPC   C3A45221  16.002  25.855   6.893
 3358POPC   C4A45222  15.681  25.680   7.094
 3358POPC   C1B45223  16.105  26.471   6.183
 3358POPC   C2B45224  16.287  26.471   6.588
 3358POPC   C3B45225  16.120  26.332   6.990
 3358POPC   C4B45226  15.980  26.074   7.344
 3359POPC   NC345227  16.441  22.949   5.086
 3359POPC   PO445228  16.966  23.011   5.561
 3359POPC   GL145229  16.903  22.804   5.907
 3359POPC   GL245230  16.766  22.543   5.723
 3359POPC   C1A45231  16.814  22.947   6.301
 3359POPC   D2A45232  17.055  23.227   6.540
 3359POPC   C3A45233  16.843  23.261   6.932
 3359POPC   C4A45234  16.592  22.988   7.180
 3359POPC   C1B45235  16.525  22.539   6.104
 3359POPC   C2B45236  16.622  22.479   6.511
 3359POPC   C3B45237  16.711  22.573   6.924
 3359POPC   C4B45238  16.433  22.513   7.268
 3360POPC   NC345239  38.940  33.988   5.485
 3360POPC   PO445240  39.428  33.632   5.407
 3360POPC   GL145241  39.374  33.914   5.756
 3360POPC   GL245242  39.184  33.606   5.877
 3360POPC   C1A45243  39.255  33.983   6.195
 3360POPC   D2A45244  39.301  33.575   6.437
 3360POPC   C3A45245  39.349  33.621   6.901
 3360POPC   C4A45246  39.259  34.015   7.160
 3360POPC   C1B45247  38.853  33.465   6.174
 3360POPC   C2B45248  38.665  33.507   6.575
 3360POPC   C3B45249  38.726  33.325   7.020
 3360POPC   C4B45250  38.996  33.567   7.272
 3361POPC   NC345251   2.896  10.979   5.033
 3361POPC   PO445252   2.569  11.465   5.408
 3361POPC   GL145253   2.723  11.284   5.773
 3361POPC   GL245254   3.042  11.099   5.730
 3361POPC   C1A45255   2.530  11.236   6.174
 3361POPC   D2A45256   2.401  10.893   6.456
 3361POPC   C3A45257   2.390  11.066   6.890
 3361POPC   C4A45258   2.548  11.365   7.200
 3361POPC   C1B45259   3.050  11.231   6.170
 3361POPC   C2B45260   2.860  11.100   6.560
 3361POPC   C3B45261   2.992  11.171   6.994
 3361POPC   C4B45262   3.082  11.133   7.448
 3362POPC   NC345263  41.725  25.970   5.370
 3362POPC   PO445264  41.332  26.574   5.363
 3362POPC   GL145265  41.400  26.262   5.728
 3362POPC   GL245266  41.249  25.946   5.802
 3362POPC   C1A45267  41.475  26.219   6.200
 3362POPC   D2A45268  41.696  26.318   6.601
 3362POPC   C3A45269  41.539  26.090   6.956
 3362POPC   C4A45270  41.674  26.065   7.373
 3362POPC   C1B45271  41.462  25.697   6.127
 3362POPC   C2B45272  41.440  25.471   6.513
 3362POPC   C3B45273  41.498  25.580   6.950
 3362POPC   C4B45274  41.404  25.643   7.430
 3363POPC   NC345275  25.989  28.654   5.509
 3363POPC   PO445276  25.984  28.064   5.274
 3363POPC   GL145277  25.952  28.167   5.756
 3363POPC   GL245278  25.664  28.372   5.842
 3363POPC   C1A45279  26.064  28.433   6.164
 3363POPC   D2A45280  26.213  28.668   6.551
 3363POPC   C3A45281  26.271  28.447   6.945
 3363POPC   C4A45282  26.240  28.405   7.376
 3363POPC   C1B45283  25.638  28.163   6.258
 3363POPC   C2B45284  25.915  28.191   6.658
 3363POPC   C3B45285  25.796  28.278   7.114
 3363POPC   C4B45286  25.623  28.200   7.561
 3364POPC   NC345287  17.316  20.878   5.161
 3364POPC   PO445288  16.625  20.815   5.405
 3364POPC   GL145289  16.649  20.464   5.723
 3364POPC   GL245290  16.655  20.740   5.942
 3364POPC   C1A45291  16.763  20.326   6.184
 3364POPC   D2A45292  16.556  20.551   6.537
 3364POPC   C3A45293  16.680  20.559   6.965
 3364POPC   C4A45294  17.056  20.351   7.110
 3364POPC   C1B45295  16.351  20.919   6.248
 3364POPC   C2B45296  16.296  21.085   6.660
 3364POPC   C3B45297  16.325  20.945   7.089
 3364POPC   C4B45298  16.534  20.969   7.486
 3365POPC   NC345299   3.718   3.598   5.374
 3365POPC   PO445300   3.118   3.835   5.470
 3365POPC   GL145301   3.402   3.660   5.785
 3365POPC   GL245302   3.476   3.315   5.764
 3365POPC   C1A45303   3.492   3.672   6.240
 3365POPC   D2A45304   3.348   3.819   6.664
 3365POPC   C3A45305   3.563   3.680   7.059
 3365POPC   C4A45306   3.662   3.733   7.514
 3365POPC   C1B45307   3.451   3.155   6.186
 3365POPC   C2B45308   3.456   3.288   6.637
 3365POPC   C3B45309   3.395   3.202   7.068
 3365POPC   C4B45310   3.767   3.271   7.351
 3366POPC   NC345311  34.958  13.945   5.411
 3366POPC   PO445312  35.092  14.643   5.312
 3366POPC   GL145313  35.225  14.597   5.749
 3366POPC   GL245314  35.167  14.239   5.810
 3366POPC   C1A45315  35.303  14.551   6.228
 3366POPC   D2A45316  35.448  14.356   6.634
 3366POPC   C3A45317  35.488  14.567   7.067
 3366POPC   C4A45318  35.350  14.504   7.512
 3366POPC   C1B45319  34.978  14.128   6.229
 3366POPC   C2B45320  35.111  13.951   6.637
 3366POPC   C3B45321  35.238  14.109   7.050
 3366POPC   C4B45322  35.097  14.044   7.462
 3367POPC   NC345323   0.067  29.722   5.329
 3367POPC   PO445324   0.673  29.534   5.498
 3367POPC   GL145325   0.329  29.791   5.762
 3367POPC   GL245326  44.953  30.004   5.744
 3367POPC   C1A45327   0.385  29.935   6.167
 3367POPC   D2A45328   0.586  29.862   6.569
 3367POPC   C3A45329   0.409  29.966   6.953
 3367POPC   C4A45330   0.529  29.891   7.380
 3367POPC   C1B45331   0.010  30.272   6.138
 3367POPC   C2B45332   0.290  30.359   6.485
 3367POPC   C3B45333   0.137  30.410   6.887
 3367POPC   C4B45334   0.132  30.252   7.275
 3368POPC   NC345335   5.495  19.939   5.624
 3368POPC   PO445336   5.091  19.458   5.239
 3368POPC   GL145337   4.843  19.611   5.689
 3368POPC   GL245338   5.003  19.919   5.799
 3368POPC   C1A45339   4.851  19.608   6.177
 3368POPC   D2A45340   5.048  19.768   6.547
 3368POPC   C3A45341   4.918  19.820   6.971
 3368POPC   C4A45342   5.046  19.684   7.375
 3368POPC   C1B45343   4.923  20.134   6.217
 3368POPC   C2B45344   5.037  20.269   6.678
 3368POPC   C3B45345   5.234  20.256   7.127
 3368POPC   C4B45346   5.190  20.162   7.590
 3369POPC   NC345347  17.423   2.647   5.196
 3369POPC   PO445348  17.138   3.255   5.406
 3369POPC   GL145349  17.214   3.138   5.869
 3369POPC   GL245350  17.302   2.801   5.901
 3369POPC   C1A45351  17.269   3.136   6.308
 3369POPC   D2A45352  17.545   2.920   6.578
 3369POPC   C3A45353  17.444   3.022   6.964
 3369POPC   C4A45354  17.600   2.766   7.234
 3369POPC   C1B45355  17.289   2.574   6.296
 3369POPC   C2B45356  17.323   2.467   6.750
 3369POPC   C3B45357  17.115   2.609   7.105
 3369POPC   C4B45358  17.030   2.951   7.273
 3370POPC   NC345359  43.948  18.599   5.479
 3370POPC   PO445360  43.659  18.221   5.832
 3370POPC   GL145361  43.724  18.612   5.932
 3370POPC   GL245362  43.430  18.722   5.808
 3370POPC   C1A45363  43.994  18.732   6.254
 3370POPC   D2A45364  44.120  18.716   6.710
 3370POPC   C3A45365  44.072  18.292   6.948
 3370POPC   C4A45366  43.729  18.115   7.241
 3370POPC   C1B45367  43.340  18.580   6.269
 3370POPC   C2B45368  43.439  18.547   6.710
 3370POPC   C3B45369  43.330  18.457   7.136
 3370POPC   C4B45370  43.458  18.521   7.589
 3371POPC   NC345371   5.290  43.430   5.350
 3371POPC   PO445372   5.276  44.095   5.469
 3371POPC   GL145373   5.159  43.801   5.779
 3371POPC   GL245374   4.775  43.699   5.714
 3371POPC   C1A45375   5.331  43.720   6.217
 3371POPC   D2A45376   5.443  43.453   6.603
 3371POPC   C3A45377   5.292  43.746   6.918
 3371POPC   C4A45378   5.269  44.132   7.154
 3371POPC   C1B45379   4.807  43.746   6.153
 3371POPC   C2B45380   4.972  43.943   6.529
 3371POPC   C3B45381   4.821  44.046   6.909
 3371POPC   C4B45382   4.819  43.886   7.276
 3372POPC   NC345383  19.254  33.467   5.378
 3372POPC   PO445384  18.735  33.067   5.394
 3372POPC   GL145385  18.892  33.010   5.827
 3372POPC   GL245386  19.263  33.091   5.781
 3372POPC   C1A45387  18.975  32.858   6.238
 3372POPC   D2A45388  18.962  32.705   6.694
 3372POPC   C3A45389  18.780  33.001   7.010
 3372POPC   C4A45390  18.647  32.829   7.417
 3372POPC   C1B45391  19.392  33.180   6.183
 3372POPC   C2B45392  19.211  33.170   6.574
 3372POPC   C3B45393  19.318  33.001   6.937
 3372POPC   C4B45394  19.135  32.741   7.261
 3373POPC   NC345395  16.146  23.870   5.339
 3373POPC   PO445396  15.558  23.468   5.508
 3373POPC   GL145397  15.882  23.652   5.782
 3373POPC   GL245398  16.262  23.589   5.744
 3373POPC   C1A45399  15.946  23.875   6.172
 3373POPC   D2A45400  16.215  23.823   6.535
 3373POPC   C3A45401  15.977  23.756   6.884
 3373POPC   C4A45402  15.803  23.955   7.281
 3373POPC   C1B45403  16.218  23.446   6.155
 3373POPC   C2B45404  16.066  23.323   6.565
 3373POPC   C3B45405  16.267  23.330   6.947
 3373POPC   C4B45406  16.458  23.465   7.304
 3374POPC   NC345407  43.983  39.877   5.257
 3374POPC   PO445408  43.606  40.339   5.444
 3374POPC   GL145409  43.862  40.129   5.791
 3374POPC   GL245410  44.027  39.788   5.764
 3374POPC   C1A45411  43.765  39.976   6.234
 3374POPC   D2A45412  43.709  39.960   6.709
 3374POPC   C3A45413  43.952  40.105   7.093
 3374POPC   C4A45414  43.786  40.114   7.522
 3374POPC   C1B45415  44.022  39.533   6.149
 3374POPC   C2B45416  44.122  39.657   6.588
 3374POPC   C3B45417  43.991  39.590   7.042
 3374POPC   C4B45418  44.070  39.687   7.503
 3375POPC   NC345419  32.311  30.831   5.424
 3375POPC   PO445420  31.730  30.474   5.504
 3375POPC   GL145421  31.966  30.670   5.807
 3375POPC   GL245422  32.247  30.467   5.781
 3375POPC   C1A45423  32.130  30.803   6.225
 3375POPC   D2A45424  32.326  30.927   6.635
 3375POPC   C3A45425  32.035  30.871   6.998
 3375POPC   C4A45426  32.033  30.673   7.431
 3375POPC   C1B45427  32.501  30.452   6.159
 3375POPC   C2B45428  32.680  30.553   6.526
 3375POPC   C3B45429  32.673  30.486   6.937
 3375POPC   C4B45430  32.538  30.648   7.320
 3376POPC   NC345431  43.316  19.319   5.304
 3376POPC   PO445432  42.875  18.899   5.100
 3376POPC   GL145433  43.004  18.963   5.595
 3376POPC   GL245434  43.071  19.287   5.744
 3376POPC   C1A45435  43.052  18.949   6.093
 3376POPC   D2A45436  42.989  18.841   6.550
 3376POPC   C3A45437  43.144  18.914   6.956
 3376POPC   C4A45438  43.368  18.940   7.323
 3376POPC   C1B45439  43.237  19.421   6.170
 3376POPC   C2B45440  43.341  19.245   6.579
 3376POPC   C3B45441  43.392  19.395   6.996
 3376POPC   C4B45442  43.019  19.352   7.220
 3377POPC   NC345443  27.098  32.530   5.341
 3377POPC   PO445444  26.361  32.482   5.449
 3377POPC   GL145445  26.730  32.334   5.779
 3377POPC   GL245446  27.084  32.457   5.823
 3377POPC   C1A45447  26.994  32.075   6.137
 3377POPC   D2A45448  27.089  31.874   6.576
 3377POPC   C3A45449  26.781  31.985   6.907
 3377POPC   C4A45450  26.762  32.320   7.184
 3377POPC   C1B45451  26.931  32.598   6.201
 3377POPC   C2B45452  26.888  32.379   6.580
 3377POPC   C3B45453  27.175  32.325   6.893
 3377POPC   C4B45454  27.102  32.698   7.149
 3378POPC   NC345455  11.594  33.264   5.314
 3378POPC   PO445456  11.231  32.699   5.267
 3378POPC   GL145457  11.264  32.779   5.720
 3378POPC   GL245458  11.299  33.144   5.718
 3378POPC   C1A45459  11.514  32.741   6.137
 3378POPC   D2A45460  11.578  32.529   6.558
 3378POPC   C3A45461  11.545  32.794   6.945
 3378POPC   C4A45462  11.495  33.244   7.092
 3378POPC   C1B45463  11.239  33.163   6.154
 3378POPC   C2B45464  11.407  33.269   6.557
 3378POPC   C3B45465  11.080  33.375   6.805
 3378POPC   C4B45466  10.771  33.359   7.047
 3379POPC   NC345467  42.848  30.331   5.229
 3379POPC   PO445468  43.205  30.832   5.503
 3379POPC   GL145469  43.028  30.558   5.742
 3379POPC   GL245470  42.809  30.836   5.859
 3379POPC   C1A45471  43.135  30.351   6.151
 3379POPC   D2A45472  43.029  30.386   6.612
 3379POPC   C3A45473  43.238  30.681   6.860
 3379POPC   C4A45474  43.335  30.716   7.266
 3379POPC   C1B45475  42.800  30.718   6.287
 3379POPC   C2B45476  42.781  30.839   6.711
 3379POPC   C3B45477  42.793  30.705   7.142
 3379POPC   C4B45478  42.967  30.962   7.469
 3380POPC   NC345479  15.552  43.538   5.267
 3380POPC   PO445480  15.909  44.087   5.352
 3380POPC   GL145481  15.730  43.970   5.724
 3380POPC   GL245482  16.047  44.003   5.867
 3380POPC   C1A45483  15.641  44.072   6.170
 3380POPC   D2A45484  15.846  43.876   6.508
 3380POPC   C3A45485  15.870  44.094   6.889
 3380POPC   C4A45486  15.786  43.890   7.234
 3380POPC   C1B45487  16.285  43.752   6.108
 3380POPC   C2B45488  16.280  43.527   6.472
 3380POPC   C3B45489  16.176  43.664   6.841
 3380POPC   C4B45490  16.290  43.844   7.205
 3381POPC   NC345491   5.743  20.798   5.175
 3381POPC   PO445492   6.082  20.322   5.184
 3381POPC   GL145493   5.933  20.695   5.619
 3381POPC   GL245494   6.192  20.886   5.784
 3381POPC   C1A45495   5.777  20.683   6.073
 3381POPC   D2A45496   5.841  20.302   6.363
 3381POPC   C3A45497   5.803  20.378   6.807
 3381POPC   C4A45498   5.653  20.617   7.138
 3381POPC   C1B45499   6.276  20.765   6.174
 3381POPC   C2B45500   6.028  20.747   6.523
 3381POPC   C3B45501   6.121  20.771   6.929
 3381POPC   C4B45502   6.107  21.048   7.242
 3382POPC   NC345503  19.337  36.060   4.924
 3382POPC   PO445504  18.854  35.673   5.278
 3382POPC   GL145505  18.937  35.996   5.651
 3382POPC   GL245506  18.818  36.356   5.732
 3382POPC   C1A45507  19.011  35.985   6.091
 3382POPC   D2A45508  18.843  36.070   6.499
 3382POPC   C3A45509  19.095  36.028   6.860
 3382POPC   C4A45510  19.203  35.913   7.260
 3382POPC   C1B45511  18.974  36.507   6.185
 3382POPC   C2B45512  19.157  36.499   6.627
 3382POPC   C3B45513  19.119  36.482   7.097
 3382POPC   C4B45514  18.864  36.264   7.442
 3383POPC   NC345515  16.755  41.700   5.064
 3383POPC   PO445516  16.329  41.444   5.539
 3383POPC   GL145517  16.609  41.630   5.860
 3383POPC   GL245518  16.952  41.720   5.786
 3383POPC   C1A45519  16.815  41.381   6.227
 3383POPC   D2A45520  16.930  41.234   6.658
 3383POPC   C3A45521  16.640  41.372   6.989
 3383POPC   C4A45522  16.657  41.816   7.189
 3383POPC   C1B45523  17.097  41.805   6.248
 3383POPC   C2B45524  16.948  41.790   6.708
 3383POPC   C3B45525  17.102  41.530   7.056
 3383POPC   C4B45526  17.081  41.115   7.153
 3384POPC   NC345527  22.051  43.142   5.159
 3384POPC   PO445528  22.384  43.055   5.722
 3384POPC   GL145529  22.076  43.001   5.948
 3384POPC   GL245530  22.138  43.257   6.136
 3384POPC   C1A45531  21.798  42.677   6.078
 3384POPC   D2A45532  21.654  42.514   6.469
 3384POPC   C3A45533  21.849  42.735   6.833
 3384POPC   C4A45534  22.129  43.044   7.066
 3384POPC   C1B45535  22.106  43.000   6.475
 3384POPC   C2B45536  22.464  42.832   6.687
 3384POPC   C3B45537  22.648  43.049   7.034
 3384POPC   C4B45538  22.514  43.469   7.202
 3385POPC   NC345539  28.063  26.456   5.491
 3385POPC   PO445540  28.650  26.110   5.531
 3385POPC   GL145541  28.464  26.023   5.883
 3385POPC   GL245542  28.300  26.306   5.941
 3385POPC   C1A45543  28.699  25.993   6.248
 3385POPC   D2A45544  28.884  25.943   6.626
 3385POPC   C3A45545  28.580  25.843   6.925
 3385POPC   C4A45546  28.423  26.048   7.268
 3385POPC   C1B45547  28.243  26.193   6.396
 3385POPC   C2B45548  28.183  26.249   6.869
 3385POPC   C3B45549  28.152  26.468   7.289
 3385POPC   C4B45550  27.911  26.587   7.662
 3386POPC   NC345551  17.316  18.523   5.339
 3386POPC   PO445552  17.741  18.029   5.413
 3386POPC   GL145553  17.517  18.183   5.816
 3386POPC   GL245554  17.340  18.501   5.832
 3386POPC   C1A45555  17.227  18.123   6.177
 3386POPC   D2A45556  17.306  18.012   6.615
 3386POPC   C3A45557  17.575  18.303   6.831
 3386POPC   C4A45558  17.639  18.447   7.240
 3386POPC   C1B45559  17.165  18.657   6.179
 3386POPC   C2B45560  17.181  18.526   6.583
 3386POPC   C3B45561  17.285  18.707   6.960
 3386POPC   C4B45562  17.198  18.685   7.406
 3387POPC   NC345563  31.314  37.255   5.469
 3387POPC   PO445564  31.449  36.556   5.231
 3387POPC   GL145565  31.622  36.739   5.626
 3387POPC   GL245566  31.346  36.876   5.817
 3387POPC   C1A45567  31.667  36.587   6.078
 3387POPC   D2A45568  31.329  36.771   6.343
 3387POPC   C3A45569  31.349  36.749   6.790
 3387POPC   C4A45570  31.492  36.957   7.161
 3387POPC   C1B45571  31.067  37.144   6.077
 3387POPC   C2B45572  30.905  37.069   6.503
 3387POPC   C3B45573  31.082  37.185   6.893
 3387POPC   C4B45574  31.025  37.086   7.300
 3388POPC   NC345575   6.347  20.679   5.357
 3388POPC   PO445576   6.999  20.429   5.476
 3388POPC   GL145577   6.695  20.591   5.781
 3388POPC   GL245578   6.382  20.408   5.787
 3388POPC   C1A45579   6.776  20.644   6.223
 3388POPC   D2A45580   7.045  20.668   6.595
 3388POPC   C3A45581   6.805  20.480   6.902
 3388POPC   C4A45582   6.562  20.687   7.170
 3388POPC   C1B45583   6.342  20.265   6.182
 3388POPC   C2B45584   6.431  20.440   6.556
 3388POPC   C3B45585   6.316  20.300   6.914
 3388POPC   C4B45586   6.146  20.396   7.296
 3389POPC   NC345587  24.363   6.194   5.489
 3389POPC   PO445588  24.403   5.633   5.481
 3389POPC   GL145589  24.673   5.883   5.795
 3389POPC   GL245590  24.800   6.220   5.764
 3389POPC   C1A45591  24.661   5.988   6.242
 3389POPC   D2A45592  24.764   5.742   6.610
 3389POPC   C3A45593  24.639   5.824   7.036
 3389POPC   C4A45594  24.238   5.996   7.186
 3389POPC   C1B45595  25.024   6.352   6.171
 3389POPC   C2B45596  24.977   6.220   6.605
 3389POPC   C3B45597  24.686   6.318   6.924
 3389POPC   C4B45598  24.800   6.631   7.213
 3390POPC   NC345599   8.852  29.003   5.443
 3390POPC   PO445600   8.974  29.635   5.659
 3390POPC   GL145601   8.894  29.281   5.905
 3390POPC   GL245602   9.116  28.972   5.892
 3390POPC   C1A45603   8.921  29.144   6.341
 3390POPC   D2A45604   9.312  29.071   6.589
 3390POPC   C3A45605   9.251  29.083   6.985
 3390POPC   C4A45606   8.920  29.163   7.229
 3390POPC   C1B45607   9.173  28.697   6.274
 3390POPC   C2B45608   8.879  28.725   6.638
 3390POPC   C3B45609   8.648  28.784   7.020
 3390POPC   C4B45610   9.035  28.685   7.215
 3391POPC   NC345611  36.230  15.133   5.382
 3391POPC   PO445612  35.603  14.918   5.517
 3391POPC   GL145613  35.925  15.044   5.794
 3391POPC   GL245614  36.008  15.376   5.784
 3391POPC   C1A45615  36.038  15.102   6.214
 3391POPC   D2A45616  36.029  15.384   6.529
 3391POPC   C3A45617  35.922  15.129   6.833
 3391POPC   C4A45618  36.091  15.000   7.191
 3391POPC   C1B45619  36.428  15.406   6.030
 3391POPC   C2B45620  36.538  15.521   6.474
 3391POPC   C3B45621  36.381  15.452   6.921
 3391POPC   C4B45622  36.528  15.241   7.303
 3392POPC   NC345623  10.487  41.247   5.202
 3392POPC   PO445624  10.642  40.647   5.267
 3392POPC   GL145625  10.427  40.588   5.644
 3392POPC   GL245626  10.304  40.913   5.720
 3392POPC   C1A45627  10.488  40.590   6.099
 3392POPC   D2A45628  10.331  40.619   6.524
 3392POPC   C3A45629  10.667  40.679   6.810
 3392POPC   C4A45630  10.736  40.694   7.243
 3392POPC   C1B45631  10.243  41.038   6.168
 3392POPC   C2B45632  10.427  41.126   6.580
 3392POPC   C3B45633  10.527  41.145   7.023
 3392POPC   C4B45634  10.454  41.093   7.441
 3393POPC   NC345635  18.862  26.524   5.594
 3393POPC   PO445636  19.010  25.856   5.443
 3393POPC   GL145637  19.146  26.145   5.782
 3393POPC   GL245638  18.943  25.942   5.962
 3393POPC   C1A45639  19.195  26.340   6.211
 3393POPC   D2A45640  19.025  26.170   6.607
 3393POPC   C3A45641  19.180  26.201   7.040
 3393POPC   C4A45642  19.289  26.049   7.477
 3393POPC   C1B45643  18.670  26.154   6.223
 3393POPC   C2B45644  18.519  26.014   6.628
 3393POPC   C3B45645  18.768  25.887   6.954
 3393POPC   C4B45646  18.814  26.047   7.352
 3394POPC   NC345647  16.157  33.443   5.544
 3394POPC   PO445648  15.693  33.982   5.562
 3394POPC   GL145649  16.019  33.821   5.866
 3394POPC   GL245650  16.300  34.031   5.895
 3394POPC   C1A45651  16.025  33.553   6.280
 3394POPC   D2A45652  15.766  33.450   6.691
 3394POPC   C3A45653  15.722  33.763   7.042
 3394POPC   C4A45654  15.815  33.729   7.496
 3394POPC   C1B45655  16.128  34.036   6.327
 3394POPC   C2B45656  16.158  33.826   6.736
 3394POPC   C3B45657  16.150  34.026   7.147
 3394POPC   C4B45658  16.292  34.224   7.551
 3395POPC   NC345659  30.390  42.042   5.470
 3395POPC   PO445660  30.937  42.425   5.557
 3395POPC   GL145661  30.657  42.284   5.861
 3395POPC   GL245662  30.810  41.976   5.804
 3395POPC   C1A45663  30.533  42.054   6.246
 3395POPC   D2A45664  30.384  42.116   6.682
 3395POPC   C3A45665  30.518  42.503   6.898
 3395POPC   C4A45666  30.510  42.419   7.342
 3395POPC   C1B45667  31.014  41.839   6.186
 3395POPC   C2B45668  30.882  41.927   6.627
 3395POPC   C3B45669  30.772  42.073   7.069
 3395POPC   C4B45670  30.996  42.245   7.473
 3396POPC   NC345671   0.845  16.223   5.444
 3396POPC   PO445672   0.164  16.101   5.393
 3396POPC   GL145673   0.491  15.936   5.720
 3396POPC   GL245674   0.844  15.791   5.800
 3396POPC   C1A45675   0.531  16.019   6.195
 3396POPC   D2A45676   0.461  16.163   6.652
 3396POPC   C3A45677   0.437  15.849   7.004
 3396POPC   C4A45678   0.680  15.712   7.376
 3396POPC   C1B45679   1.034  15.957   6.220
 3396POPC   C2B45680   0.971  16.085   6.682
 3396POPC   C3B45681   0.782  16.209   7.110
 3396POPC   C4B45682   0.847  16.165   7.593
 3397POPC   NC345683   6.857   6.340   5.428
 3397POPC   PO445684   6.416   6.840   5.419
 3397POPC   GL145685   6.635   6.896   5.815
 3397POPC   GL245686   6.888   6.640   5.844
 3397POPC   C1A45687   6.584   6.935   6.273
 3397POPC   D2A45688   6.804   6.707   6.625
 3397POPC   C3A45689   6.569   6.692   7.011
 3397POPC   C4A45690   6.379   6.405   7.296
 3397POPC   C1B45691   7.070   6.894   6.180
 3397POPC   C2B45692   7.094   7.130   6.596
 3397POPC   C3B45693   7.107   6.998   7.037
 3397POPC   C4B45694   7.006   6.621   7.253
 3398POPC   NC345695  29.212  44.886   5.573
 3398POPC   PO445696  29.593  44.271   5.535
 3398POPC   GL145697  29.385  44.510   5.864
 3398POPC   GL245698  29.027  44.400   6.001
 3398POPC   C1A45699  29.304  44.760   6.222
 3398POPC   D2A45700  29.134  44.633   6.600
 3398POPC   C3A45701  29.319  44.889   6.897
 3398POPC   C4A45702  29.349  44.733   7.287
 3398POPC   C1B45703  28.798  44.796   6.187
 3398POPC   C2B45704  28.714  44.951   6.622
 3398POPC   C3B45705  28.851  44.759   7.038
 3398POPC   C4B45706  28.897  44.640   7.511
 3399POPC   NC345707  21.532  19.218   5.324
 3399POPC   PO445708  21.148  18.634   5.593
 3399POPC   GL145709  21.324  19.006   5.792
 3399POPC   GL245710  21.691  19.104   5.834
 3399POPC   C1A45711  21.294  19.134   6.219
 3399POPC   D2A45712  21.047  19.219   6.598
 3399POPC   C3A45713  20.982  18.863   6.894
 3399POPC   C4A45714  21.236  18.730   7.252
 3399POPC   C1B45715  21.742  19.386   6.211
 3399POPC   C2B45716  21.556  19.360   6.617
 3399POPC   C3B45717  21.409  19.156   6.980
 3399POPC   C4B45718  21.673  19.032   7.326
 3400POPC   NC345719  28.611   2.912   5.053
 3400POPC   PO445720  29.234   2.805   5.315
 3400POPC   GL145721  29.325   2.679   5.753
 3400POPC   GL245722  28.988   2.574   5.868
 3400POPC   C1A45723  29.312   2.836   6.172
 3400POPC   D2A45724  29.507   2.915   6.530
 3400POPC   C3A45725  29.201   2.798   6.825
 3400POPC   C4A45726  29.189   2.703   7.234
 3400POPC   C1B45727  28.793   2.887   6.151
 3400POPC   C2B45728  28.725   2.905   6.598
 3400POPC   C3B45729  28.744   2.937   7.057
 3400POPC   C4B45730  28.734   2.807   7.499
 3401POPC   NC345731   8.025   9.700   5.242
 3401POPC   PO445732   8.353  10.244   5.272
 3401POPC   GL145733   8.173   9.978   5.657
 3401POPC   GL245734   8.292   9.641   5.716
 3401POPC   C1A45735   7.953   9.783   6.061
 3401POPC   D2A45736   7.802   9.739   6.463
 3401POPC   C3A45737   8.104   9.711   6.769
 3401POPC   C4A45738   8.096   9.688   7.212
 3401POPC   C1B45739   8.442   9.821   6.167
 3401POPC   C2B45740   8.477  10.015   6.610
 3401POPC   C3B45741   8.557   9.785   7.014
 3401POPC   C4B45742   8.579   9.410   7.266
 3402POPC   NC345743   3.907   8.640   5.257
 3402POPC   PO445744   3.425   8.182   5.223
 3402POPC   GL145745   3.417   8.169   5.704
 3402POPC   GL245746   3.424   7.858   5.884
 3402POPC   C1A45747   3.476   8.341   6.144
 3402POPC   D2A45748   3.712   8.483   6.523
 3402POPC   C3A45749   3.698   8.311   6.959
 3402POPC   C4A45750   3.891   8.428   7.325
 3402POPC   C1B45751   3.574   7.858   6.274
 3402POPC   C2B45752   3.422   8.022   6.647
 3402POPC   C3B45753   3.383   7.852   7.055
 3402POPC   C4B45754   3.497   8.122   7.396
 3403POPC   NC345755   7.331  34.207   5.499
 3403POPC   PO445756   7.577  33.583   5.314
 3403POPC   GL145757   7.494  33.807   5.770
 3403POPC   GL245758   7.694  34.121   5.849
 3403POPC   C1A45759   7.256  33.694   6.193
 3403POPC   D2A45760   7.266  33.861   6.641
 3403POPC   C3A45761   7.260  33.693   7.096
 3403POPC   C4A45762   7.264  33.668   7.568
 3403POPC   C1B45763   7.660  34.001   6.267
 3403POPC   C2B45764   7.775  34.061   6.684
 3403POPC   C3B45765   7.770  33.833   7.060
 3403POPC   C4B45766   7.741  33.861   7.496
 3404POPC   NC345767   3.572  31.260   5.098
 3404POPC   PO445768   3.721  30.743   5.556
 3404POPC   GL145769   3.523  30.604   5.877
 3404POPC   GL245770   3.420  30.967   5.945
 3404POPC   C1A45771   3.728  30.602   6.272
 3404POPC   D2A45772   3.774  30.937   6.575
 3404POPC   C3A45773   3.724  30.767   6.982
 3404POPC   C4A45774   3.619  30.442   7.256
 3404POPC   C1B45775   3.257  30.753   6.303
 3404POPC   C2B45776   3.345  30.583   6.701
 3404POPC   C3B45777   3.220  30.733   7.109
 3404POPC   C4B45778   3.142  30.664   7.551
 3405POPC   NC345779   4.036  42.148   5.296
 3405POPC   PO445780   4.723  42.354   5.413
 3405POPC   GL145781   4.349  42.323   5.710
 3405POPC   GL245782   4.194  42.664   5.717
 3405POPC   C1A45783   4.131  42.381   6.154
 3405POPC   D2A45784   4.292  42.350   6.596
 3405POPC   C3A45785   4.071  42.280   6.977
 3405POPC   C4A45786   4.146  42.425   7.406
 3405POPC   C1B45787   4.545  42.661   6.047
 3405POPC   C2B45788   4.628  42.724   6.477
 3405POPC   C3B45789   4.577  42.692   6.935
 3405POPC   C4B45790   4.598  42.618   7.388
 3406POPC   NC345791  40.542  40.772   5.505
 3406POPC   PO445792  41.223  40.788   5.236
 3406POPC   GL145793  41.179  40.780   5.744
 3406POPC   GL245794  40.873  40.562   5.866
 3406POPC   C1A45795  40.994  40.950   6.166
 3406POPC   D2A45796  40.622  40.875   6.434
 3406POPC   C3A45797  40.654  40.969   6.873
 3406POPC   C4A45798  41.044  41.125   7.075
 3406POPC   C1B45799  40.960  40.445   6.313
 3406POPC   C2B45800  40.905  40.306   6.748
 3406POPC   C3B45801  40.759  40.534   7.115
 3406POPC   C4B45802  40.357  40.717   7.220
 3407POPC   NC345803  23.314  36.011   5.405
 3407POPC   PO445804  22.639  35.864   5.393
 3407POPC   GL145805  22.841  36.126   5.759
 3407POPC   GL245806  23.222  36.132   5.889
 3407POPC   C1A45807  22.830  36.117   6.224
 3407POPC   D2A45808  22.974  35.918   6.608
 3407POPC   C3A45809  22.775  36.128   6.981
 3407POPC   C4A45810  22.440  36.287   7.226
 3407POPC   C1B45811  23.292  36.270   6.331
 3407POPC   C2B45812  23.129  36.406   6.725
 3407POPC   C3B45813  23.262  36.291   7.155
 3407POPC   C4B45814  23.272  36.399   7.602
 3408POPC   NC345815  24.713  33.940   5.276
 3408POPC   PO445816  24.272  33.471   5.431
 3408POPC   GL145817  24.444  33.794   5.712
 3408POPC   GL245818  24.154  33.916   5.811
 3408POPC   C1A45819  24.524  33.914   6.168
 3408POPC   D2A45820  24.617  33.636   6.507
 3408POPC   C3A45821  24.597  33.752   6.933
 3408POPC   C4A45822  24.556  33.520   7.313
 3408POPC   C1B45823  24.182  33.547   6.132
 3408POPC   C2B45824  24.093  33.603   6.583
 3408POPC   C3B45825  24.120  33.602   7.048
 3408POPC   C4B45826  24.287  33.948   7.324
 3409POPC   NC345827  44.499   1.890   5.332
 3409POPC   PO445828   0.002   2.284   5.521
 3409POPC   GL145829  44.628   2.196   5.758
 3409POPC   GL245830  44.587   1.836   5.818
 3409POPC   C1A45831  44.476   2.243   6.180
 3409POPC   D2A45832  44.581   2.404   6.597
 3409POPC   C3A45833  44.577   2.119   6.901
 3409POPC   C4A45834  44.741   2.096   7.291
 3409POPC   C1B45835  44.835   1.847   6.184
 3409POPC   C2B45836  44.841   1.705   6.609
 3409POPC   C3B45837  44.743   1.663   7.037
 3409POPC   C4B45838  44.515   1.672   7.445
 3410POPC   NC345839  33.464   1.706   5.458
 3410POPC   PO445840  32.803   2.050   5.447
 3410POPC   GL145841  32.906   1.857   5.798
 3410POPC   GL245842  33.239   1.985   5.836
 3410POPC   C1A45843  32.649   1.839   6.148
 3410POPC   D2A45844  32.831   1.798   6.528
 3410POPC   C3A45845  32.718   1.833   6.936
 3410POPC   C4A45846  33.036   1.820   7.176
 3410POPC   C1B45847  33.280   1.781   6.253
 3410POPC   C2B45848  33.305   1.764   6.725
 3410POPC   C3B45849  33.415   1.495   7.138
 3410POPC   C4B45850  33.262   1.595   7.565
 3411POPC   NC345851  33.170  32.911   5.522
 3411POPC   PO445852  33.068  33.426   5.148
 3411POPC   GL145853  32.864  33.333   5.629
 3411POPC   GL245854  33.137  33.297   5.836
 3411POPC   C1A45855  32.785  33.258   6.168
 3411POPC   D2A45856  32.925  32.900   6.501
 3411POPC   C3A45857  32.950  32.966   6.950
 3411POPC   C4A45858  32.897  32.764   7.348
 3411POPC   C1B45859  33.298  33.087   6.189
 3411POPC   C2B45860  33.556  33.155   6.555
 3411POPC   C3B45861  33.482  33.322   6.955
 3411POPC   C4B45862  33.252  33.214   7.296
 3412POPC   NC345863  41.855  21.977   4.936
 3412POPC   PO445864  41.608  22.233   5.517
 3412POPC   GL145865  41.630  22.094   5.929
 3412POPC   GL245866  41.905  21.841   5.983
 3412POPC   C1A45867  41.264  21.972   6.158
 3412POPC   D2A45868  41.136  21.750   6.524
 3412POPC   C3A45869  41.183  21.989   6.891
 3412POPC   C4A45870  41.345  21.958   7.293
 3412POPC   C1B45871  41.673  21.721   6.297
 3412POPC   C2B45872  41.642  21.794   6.679
 3412POPC   C3B45873  41.880  21.763   6.984
 3412POPC   C4B45874  41.842  21.883   7.358
 3413POPC   NC345875   6.615  36.310   5.235
 3413POPC   PO445876   6.637  35.753   5.609
 3413POPC   GL145877   6.627  36.140   5.790
 3413POPC   GL245878   6.860  36.415   5.678
 3413POPC   C1A45879   6.508  36.089   6.201
 3413POPC   D2A45880   6.686  35.912   6.544
 3413POPC   C3A45881   6.465  36.050   6.866
 3413POPC   C4A45882   6.713  35.957   7.184
 3413POPC   C1B45883   6.853  36.495   6.121
 3413POPC   C2B45884   6.670  36.456   6.520
 3413POPC   C3B45885   6.853  36.371   6.872
 3413POPC   C4B45886   6.733  36.465   7.254
 3414POPC   NC345887  10.018  26.340   5.307
 3414POPC   PO445888   9.525  25.884   5.441
 3414POPC   GL145889   9.743  25.822   5.833
 3414POPC   GL245890   9.936  26.101   5.750
 3414POPC   C1A45891   9.847  25.865   6.269
 3414POPC   D2A45892   9.508  25.985   6.514
 3414POPC   C3A45893   9.528  25.856   6.885
 3414POPC   C4A45894   9.641  26.052   7.182
 3414POPC   C1B45895  10.185  26.219   6.109
 3414POPC   C2B45896  10.312  26.020   6.504
 3414POPC   C3B45897  10.083  26.001   6.906
 3414POPC   C4B45898  10.067  26.278   7.279
 3415POPC   NC345899   5.668  10.937   5.168
 3415POPC   PO445900   6.075  11.397   5.314
 3415POPC   GL145901   5.834  11.365   5.690
 3415POPC   GL245902   5.989  11.661   5.796
 3415POPC   C1A45903   5.666  11.432   6.129
 3415POPC   D2A45904   5.749  11.564   6.562
 3415POPC   C3A45905   5.810  11.242   6.872
 3415POPC   C4A45906   5.524  11.175   7.185
 3415POPC   C1B45907   6.194  11.479   6.145
 3415POPC   C2B45908   6.212  11.349   6.551
 3415POPC   C3B45909   6.276  11.467   6.965
 3415POPC   C4B45910   6.000  11.501   7.293
 3416POPC   NC345911  44.874  26.673   5.587
 3416POPC   PO445912  44.359  27.059   5.423
 3416POPC   GL145913  44.350  27.001   5.863
 3416POPC   GL245914  44.393  26.653   5.915
 3416POPC   C1A45915  44.344  26.994   6.328
 3416POPC   D2A45916  44.409  26.681   6.648
 3416POPC   C3A45917  44.648  26.907   6.950
 3416POPC   C4A45918  44.547  27.203   7.252
 3416POPC   C1B45919  44.736  26.661   6.243
 3416POPC   C2B45920  44.869  26.485   6.660
 3416POPC   C3B45921  44.641  26.420   7.063
 3416POPC   C4B45922   0.005  26.402   7.300
 3417POPC   NC345923  41.684  11.585   5.360
 3417POPC   PO445924  41.805  11.005   5.467
 3417POPC   GL145925  41.567  11.228   5.830
 3417POPC   GL245926  41.426  11.568   5.867
 3417POPC   C1A45927  41.522  11.237   6.277
 3417POPC   D2A45928  41.772  11.418   6.582
 3417POPC   C3A45929  41.663  11.285   6.961
 3417POPC   C4A45930  41.310  11.235   7.179
 3417POPC   C1B45931  41.422  11.730   6.319
 3417POPC   C2B45932  41.566  11.854   6.753
 3417POPC   C3B45933  41.518  11.722   7.169
 3417POPC   C4B45934  41.474  11.860   7.571
 3418POPC   NC345935  17.390   5.054   5.472
 3418POPC   PO445936  18.079   4.977   5.394
 3418POPC   GL145937  17.761   5.013   5.804
 3418POPC   GL245938  17.643   5.363   5.795
 3418POPC   C1A45939  17.554   5.055   6.267
 3418POPC   D2A45940  17.820   5.205   6.671
 3418POPC   C3A45941  17.745   4.993   7.075
 3418POPC   C4A45942  17.375   4.742   7.208
 3418POPC   C1B45943  17.773   5.505   6.197
 3418POPC   C2B45944  17.433   5.521   6.510
 3418POPC   C3B45945  17.335   5.228   6.852
 3418POPC   C4B45946  17.369   5.247   7.331
 3419POPC   NC345947  39.791  32.064   5.584
 3419POPC   PO445948  40.280  31.584   5.488
 3419POPC   GL145949  40.273  31.510   5.889
 3419POPC   GL245950  40.292  31.143   5.902
 3419POPC   C1A45951  40.161  31.748   6.253
 3419POPC   D2A45952  39.828  31.644   6.543
 3419POPC   C3A45953  40.007  31.422   6.917
 3419POPC   C4A45954  40.160  31.575   7.320
 3419POPC   C1B45955  39.908  31.274   6.176
 3419POPC   C2B45956  39.706  31.124   6.571
 3419POPC   C3B45957  39.582  31.138   7.010
 3419POPC   C4B45958  39.733  31.321   7.367
 3420POPC   NC345959   6.086   5.705   5.382
 3420POPC   PO445960   6.730   5.895   5.511
 3420POPC   GL145961   6.478   6.073   5.846
 3420POPC   GL245962   6.428   6.411   5.752
 3420POPC   C1A45963   6.335   5.964   6.294
 3420POPC   D2A45964   6.266   5.741   6.726
 3420POPC   C3A45965   6.495   5.786   7.120
 3420POPC   C4A45966   6.714   5.743   7.541
 3420POPC   C1B45967   6.626   6.411   6.210
 3420POPC   C2B45968   6.586   6.243   6.648
 3420POPC   C3B45969   6.776   6.202   7.046
 3420POPC   C4B45970   6.805   6.231   7.503
 3421POPC   NC345971  34.780   3.042   5.361
 3421POPC   PO445972  34.635   3.593   5.216
 3421POPC   GL145973  34.723   3.617   5.674
 3421POPC   GL245974  34.539   3.325   5.751
 3421POPC   C1A45975  34.710   3.711   6.172
 3421POPC   D2A45976  34.657   3.559   6.641
 3421POPC   C3A45977  34.718   3.867   7.015
 3421POPC   C4A45978  34.680   3.955   7.498
 3421POPC   C1B45979  34.516   3.229   6.213
 3421POPC   C2B45980  34.544   3.048   6.639
 3421POPC   C3B45981  34.634   3.233   7.064
 3421POPC   C4B45982  34.893   3.502   7.332
 3422POPC   NC345983   7.028   8.715   5.194
 3422POPC   PO445984   7.440   8.138   5.243
 3422POPC   GL145985   7.367   8.240   5.701
 3422POPC   GL245986   7.189   7.967   5.881
 3422POPC   C1A45987   7.413   8.341   6.159
 3422POPC   D2A45988   7.572   8.253   6.594
 3422POPC   C3A45989   7.376   8.325   7.012
 3422POPC   C4A45990   7.517   8.349   7.454
 3422POPC   C1B45991   7.294   7.886   6.363
 3422POPC   C2B45992   7.355   7.842   6.839
 3422POPC   C3B45993   7.468   7.856   7.287
 3422POPC   C4B45994   7.660   7.529   7.561
 3423POPC   NC345995  44.117  28.146   5.553
 3423POPC   PO445996  44.476  28.653   5.137
 3423POPC   GL145997  44.649  28.422   5.660
 3423POPC   GL245998  44.395  28.377   5.927
 3423POPC   C1A45999  44.821  28.393   6.175
 3423POPC   D2A46000  44.682  28.397   6.650
 3423POPC   C3A46001  44.871  28.129   6.990
 3423POPC   C4A46002  44.798  28.212   7.447
 3423POPC   C1B46003  44.479  28.751   6.232
 3423POPC   C2B46004  44.284  28.849   6.602
 3423POPC   C3B46005  44.561  28.888   6.903
 3423POPC   C4B46006  44.738  28.606   7.149
 3424POPC   NC346007  38.709  44.438   5.554
 3424POPC   PO446008  38.166  44.771   5.419
 3424POPC   GL146009  38.376  44.718   5.818
 3424POPC   GL246010  38.686  44.901   5.870
 3424POPC   C1A46011  38.232  44.861   6.226
 3424POPC   D2A46012  38.090  44.767   6.631
 3424POPC   C3A46013  38.255   0.080   6.922
 3424POPC   C4A46014  38.620  44.975   7.177
 3424POPC   C1B46015  38.681  44.629   6.268
 3424POPC   C2B46016  38.614  44.665   6.728
 3424POPC   C3B46017  38.544  44.479   7.133
 3424POPC   C4B46018  38.290  44.495   7.528
 3425POPC   NC346019  29.704  37.426   5.493
 3425POPC   PO446020  30.182  37.879   5.397
 3425POPC   GL146021  30.246  37.732   5.803
 3425POPC   GL246022  29.972  37.947   5.910
 3425POPC   C1A46023  30.130  37.509   6.196
 3425POPC   D2A46024  30.001  37.593   6.617
 3425POPC   C3A46025  30.081  37.354   6.975
 3425POPC   C4A46026  30.244  37.534   7.329
 3425POPC   C1B46027  29.686  37.769   6.220
 3425POPC   C2B46028  29.564  37.847   6.646
 3425POPC   C3B46029  29.702  37.728   7.067
 3425POPC   C4B46030  29.752  37.937   7.465
 3426POPC   NC346031   5.445  24.665   5.337
 3426POPC   PO446032   5.497  24.042   5.585
 3426POPC   GL146033   5.336  24.445   5.809
 3426POPC   GL246034   4.982  24.561   5.814
 3426POPC   C1A46035   5.259  24.524   6.245
 3426POPC   D2A46036   5.422  24.540   6.642
 3426POPC   C3A46037   5.203  24.622   7.014
 3426POPC   C4A46038   5.487  24.598   7.356
 3426POPC   C1B46039   4.819  24.308   6.127
 3426POPC   C2B46040   4.777  24.356   6.543
 3426POPC   C3B46041   4.785  24.276   6.964
 3426POPC   C4B46042   5.006  24.106   7.330
 3427POPC   NC346043  20.912  20.000   5.384
 3427POPC   PO446044  20.279  20.101   5.486
 3427POPC   GL146045  20.503  20.166   5.847
 3427POPC   GL246046  20.718  19.874   5.859
 3427POPC   C1A46047  20.630  20.142   6.299
 3427POPC   D2A46048  20.691  19.741   6.535
 3427POPC   C3A46049  20.812  19.790   6.971
 3427POPC   C4A46050  21.043  19.756   7.360
 3427POPC   C1B46051  20.367  19.751   6.117
 3427POPC   C2B46052  20.136  19.875   6.473
 3427POPC   C3B46053  20.291  19.764   6.891
 3427POPC   C4B46054  20.453  19.736   7.342
 3428POPC   NC346055  15.605  32.984   5.073
 3428POPC   PO446056  15.057  32.769   5.257
 3428POPC   GL146057  15.019  32.729   5.711
 3428POPC   GL246058  14.918  33.078   5.823
 3428POPC   C1A46059  15.181  32.776   6.168
 3428POPC   D2A46060  15.033  33.087   6.493
 3428POPC   C3A46061  15.286  33.158   6.880
 3428POPC   C4A46062  15.367  32.907   7.235
 3428POPC   C1B46063  14.682  32.788   6.078
 3428POPC   C2B46064  14.720  32.679   6.520
 3428POPC   C3B46065  14.916  32.795   6.915
 3428POPC   C4B46066  14.923  32.695   7.373
 3429POPC   NC346067  40.687  17.786   5.244
 3429POPC   PO446068  40.399  17.945   5.792
 3429POPC   GL146069  40.742  17.722   5.927
 3429POPC   GL246070  40.780  17.475   5.663
 3429POPC   C1A46071  40.757  17.649   6.390
 3429POPC   D2A46072  40.726  17.800   6.835
 3429POPC   C3A46073  40.553  17.499   7.117
 3429POPC   C4A46074  40.622  17.089   7.286
 3429POPC   C1B46075  41.113  17.281   5.944
 3429POPC   C2B46076  41.281  17.268   6.380
 3429POPC   C3B46077  41.086  17.202   6.794
 3429POPC   C4B46078  41.054  17.411   7.180
 3430POPC   NC346079  34.942  16.847   5.448
 3430POPC   PO446080  35.604  16.561   5.365
 3430POPC   GL146081  35.382  16.738   5.764
 3430POPC   GL246082  35.220  17.059   5.818
 3430POPC   C1A46083  35.185  16.602   6.193
 3430POPC   D2A46084  35.346  16.450   6.603
 3430POPC   C3A46085  35.120  16.433   7.002
 3430POPC   C4A46086  35.169  16.663   7.404
 3430POPC   C1B46087  35.421  17.065   6.218
 3430POPC   C2B46088  35.237  16.951   6.608
 3430POPC   C3B46089  35.337  16.966   7.029
 3430POPC   C4B46090  35.167  17.227   7.372
 3431POPC   NC346091  44.152  28.318   5.070
 3431POPC   PO446092  43.542  28.443   5.428
 3431POPC   GL146093  43.783  28.446   5.789
 3431POPC   GL246094  43.825  28.775   5.903
 3431POPC   C1A46095  43.621  28.288   6.172
 3431POPC   D2A46096  43.671  28.414   6.616
 3431POPC   C3A46097  43.822  28.157   6.944
 3431POPC   C4A46098  43.828  28.327   7.360
 3431POPC   C1B46099  44.040  28.529   6.248
 3431POPC   C2B46100  44.183  28.342   6.630
 3431POPC   C3B46101  44.206  28.533   7.058
 3431POPC   C4B46102  44.327  28.363   7.498
 3432POPC   NC346103  40.481  31.996   5.454
 3432POPC   PO446104  40.363  32.619   5.178
 3432POPC   GL146105  40.669  32.476   5.633
 3432POPC   GL246106  40.881  32.152   5.741
 3432POPC   C1A46107  40.726  32.495   6.107
 3432POPC   D2A46108  40.423  32.338   6.419
 3432POPC   C3A46109  40.470  32.286   6.863
 3432POPC   C4A46110  40.771  32.469   7.127
 3432POPC   C1B46111  40.631  31.979   6.110
 3432POPC   C2B46112  40.586  31.853   6.566
 3432POPC   C3B46113  40.782  31.902   6.987
 3432POPC   C4B46114  40.587  31.836   7.411
 3433POPC   NC346115  20.701   7.209   4.884
 3433POPC   PO446116  20.562   7.244   5.517
 3433POPC   GL146117  20.636   7.401   5.895
 3433POPC   GL246118  20.591   7.766   5.817
 3433POPC   C1A46119  20.570   7.208   6.303
 3433POPC   D2A46120  20.356   7.317   6.710
 3433POPC   C3A46121  20.508   7.212   7.140
 3433POPC   C4A46122  20.300   7.238   7.567
 3433POPC   C1B46123  20.866   7.731   6.182
 3433POPC   C2B46124  20.820   7.555   6.584
 3433POPC   C3B46125  20.785   7.716   7.005
 3433POPC   C4B46126  21.054   7.872   7.333
 3434POPC   NC346127  37.321  37.862   5.293
 3434POPC   PO446128  36.997  37.347   5.524
 3434POPC   GL146129  36.980  37.503   5.962
 3434POPC   GL246130  37.339  37.567   5.954
 3434POPC   C1A46131  36.850  37.809   6.335
 3434POPC   D2A46132  36.717  37.975   6.753
 3434POPC   C3A46133  36.749  37.642   7.060
 3434POPC   C4A46134  36.773  37.352   7.354
 3434POPC   C1B46135  37.442  37.854   6.301
 3434POPC   C2B46136  37.273  38.011   6.653
 3434POPC   C3B46137  37.198  37.861   7.026
 3434POPC   C4B46138  37.068  37.751   7.450
 3435POPC   NC346139  28.356   3.927   5.406
 3435POPC   PO446140  28.467   3.260   5.328
 3435POPC   GL146141  28.462   3.519   5.699
 3435POPC   GL246142  28.130   3.547   5.720
 3435POPC   C1A46143  28.326   3.758   6.129
 3435POPC   D2A46144  28.094   3.688   6.495
 3435POPC   C3A46145  28.313   3.733   6.900
 3435POPC   C4A46146  28.460   3.644   7.326
 3435POPC   C1B46147  28.269   3.236   6.065
 3435POPC   C2B46148  28.138   3.178   6.484
 3435POPC   C3B46149  28.275   2.981   6.831
 3435POPC   C4B46150  28.228   3.219   7.193
 3436POPC   NC346151  35.091   4.825   5.467
 3436POPC   PO446152  35.646   4.566   5.305
 3436POPC   GL146153  35.507   4.657   5.805
 3436POPC   GL246154  35.366   4.999   5.877
 3436POPC   C1A46155  35.487   4.767   6.302
 3436POPC   D2A46156  35.680   4.910   6.725
 3436POPC   C3A46157  35.422   4.905   7.120
 3436POPC   C4A46158  35.087   4.883   7.448
 3436POPC   C1B46159  35.197   5.180   6.291
 3436POPC   C2B46160  35.166   5.108   6.734
 3436POPC   C3B46161  35.236   5.394   7.082
 3436POPC   C4B46162  35.137   5.410   7.519
 3437POPC   NC346163  29.127   4.087   5.593
 3437POPC   PO446164  29.213   4.750   5.466
 3437POPC   GL146165  29.234   4.605   5.890
 3437POPC   GL246166  28.904   4.416   5.951
 3437POPC   C1A46167  29.230   4.608   6.357
 3437POPC   D2A46168  28.940   4.486   6.673
 3437POPC   C3A46169  29.094   4.323   7.026
 3437POPC   C4A46170  29.160   3.876   7.138
 3437POPC   C1B46171  28.945   4.121   6.314
 3437POPC   C2B46172  28.831   3.925   6.733
 3437POPC   C3B46173  28.654   4.081   7.131
 3437POPC   C4B46174  28.825   4.344   7.490
 3438POPC   NC346175  38.213  28.285   5.285
 3438POPC   PO446176  38.019  28.822   5.570
 3438POPC   GL146177  38.330  28.589   5.836
 3438POPC   GL246178  38.402  28.217   5.827
 3438POPC   C1A46179  38.326  28.500   6.265
 3438POPC   D2A46180  38.096  28.523   6.625
 3438POPC   C3A46181  38.323  28.494   6.974
 3438POPC   C4A46182  38.532  28.237   7.256
 3438POPC   C1B46183  38.689  28.145   6.238
 3438POPC   C2B46184  38.741  28.209   6.744
 3438POPC   C3B46185  38.988  28.038   7.150
 3438POPC   C4B46186  38.778  27.877   7.538
 3439POPC   NC346187   6.790  24.644   5.420
 3439POPC   PO446188   6.504  23.946   5.422
 3439POPC   GL146189   6.741  24.222   5.773
 3439POPC   GL246190   6.629  24.598   5.899
 3439POPC   C1A46191   6.720  24.200   6.226
 3439POPC   D2A46192   6.322  24.310   6.441
 3439POPC   C3A46193   6.311  24.418   6.866
 3439POPC   C4A46194   6.451  24.218   7.227
 3439POPC   C1B46195   6.650  24.701   6.345
 3439POPC   C2B46196   6.809  24.472   6.697
 3439POPC   C3B46197   6.826  24.528   7.125
 3439POPC   C4B46198   6.433  24.717   7.280
 3440POPC   NC346199   6.097   7.629   5.477
 3440POPC   PO446200   5.602   7.288   5.414
 3440POPC   GL146201   5.674   7.556   5.771
 3440POPC   GL246202   5.542   7.306   5.936
 3440POPC   C1A46203   5.934   7.661   6.150
 3440POPC   D2A46204   6.059   7.466   6.539
 3440POPC   C3A46205   5.960   7.590   6.933
 3440POPC   C4A46206   6.157   7.355   7.224
 3440POPC   C1B46207   5.721   7.188   6.284
 3440POPC   C2B46208   5.849   6.962   6.652
 3440POPC   C3B46209   5.787   7.029   7.075
 3440POPC   C4B46210   5.607   7.318   7.254
 3441POPC   NC346211  22.795  35.413   5.306
 3441POPC   PO446212  23.354  35.016   5.389
 3441POPC   GL146213  23.033  35.092   5.731
 3441POPC   GL246214  22.679  35.233   5.765
 3441POPC   C1A46215  22.959  35.092   6.194
 3441POPC   D2A46216  23.029  35.389   6.547
 3441POPC   C3A46217  23.018  35.205   6.974
 3441POPC   C4A46218  23.302  35.371   7.306
 3441POPC   C1B46219  22.699  35.527   6.131
 3441POPC   C2B46220  22.529  35.471   6.562
 3441POPC   C3B46221  22.719  35.614   6.961
 3441POPC   C4B46222  23.149  35.796   7.084
 3442POPC   NC346223  23.781  36.272   5.148
 3442POPC   PO446224  23.672  35.843   5.654
 3442POPC   GL146225  23.733  36.094   5.995
 3442POPC   GL246226  23.986  36.353   5.977
 3442POPC   C1A46227  23.669  35.934   6.388
 3442POPC   D2A46228  23.474  36.025   6.739
 3442POPC   C3A46229  23.755  36.112   7.000
 3442POPC   C4A46230  23.690  35.797   7.232
 3442POPC   C1B46231  23.882  36.408   6.403
 3442POPC   C2B46232  24.202  36.466   6.705
 3442POPC   C3B46233  24.111  36.463   7.111
 3442POPC   C4B46234  23.692  36.523   7.296
 3443POPC   NC346235  37.986  37.940   5.554
 3443POPC   PO446236  37.545  37.448   5.304
 3443POPC   GL146237  37.812  37.457   5.723
 3443POPC   GL246238  37.831  37.741   5.974
 3443POPC   C1A46239  37.875  37.289   6.172
 3443POPC   D2A46240  37.957  37.439   6.620
 3443POPC   C3A46241  37.543  37.504   6.839
 3443POPC   C4A46242  37.268  37.373   7.171
 3443POPC   C1B46243  37.920  38.090   6.238
 3443POPC   C2B46244  37.777  38.121   6.653
 3443POPC   C3B46245  37.840  37.890   6.994
 3443POPC   C4B46246  37.585  37.776   7.330
 3444POPC   NC346247  31.631   5.246   5.340
 3444POPC   PO446248  32.044   5.063   5.858
 3444POPC   GL146249  31.567   5.112   5.833
 3444POPC   GL246250  31.435   4.818   5.729
 3444POPC   C1A46251  31.222   5.168   6.144
 3444POPC   D2A46252  31.342   5.152   6.635
 3444POPC   C3A46253  31.572   5.307   7.045
 3444POPC   C4A46254  31.760   5.046   7.414
 3444POPC   C1B46255  31.493   4.736   6.207
 3444POPC   C2B46256  31.371   4.644   6.670
 3444POPC   C3B46257  31.458   4.812   7.055
 3444POPC   C4B46258  31.271   4.910   7.449
 3445POPC   NC346259  35.491  16.028   5.283
 3445POPC   PO446260  34.974  16.412   5.601
 3445POPC   GL146261  35.350  16.225   5.744
 3445POPC   GL246262  35.177  15.933   5.690
 3445POPC   C1A46263  35.509  16.137   6.159
 3445POPC   D2A46264  35.249  15.956   6.496
 3445POPC   C3A46265  35.441  16.032   6.893
 3445POPC   C4A46266  35.651  15.992   7.275
 3445POPC   C1B46267  35.200  15.718   6.049
 3445POPC   C2B46268  35.026  15.462   6.378
 3445POPC   C3B46269  35.035  15.459   6.825
 3445POPC   C4B46270  35.222  15.696   7.204
 3446POPC   NC346271  36.613   2.589   5.076
 3446POPC   PO446272  36.089   2.952   5.392
 3446POPC   GL146273  36.101   2.950   5.851
 3446POPC   GL246274  35.983   2.622   5.844
 3446POPC   C1A46275  36.174   2.772   6.295
 3446POPC   D2A46276  36.300   2.797   6.745
 3446POPC   C3A46277  36.145   2.703   7.145
 3446POPC   C4A46278  36.240   2.916   7.528
 3446POPC   C1B46279  35.904   2.307   6.121
 3446POPC   C2B46280  35.709   2.261   6.507
 3446POPC   C3B46281  35.776   2.541   6.828
 3446POPC   C4B46282  35.708   2.466   7.259
 3447POPC   NC346283  36.484  13.129   5.512
 3447POPC   PO446284  36.869  13.731   5.565
 3447POPC   GL146285  36.956  13.510   5.921
 3447POPC   GL246286  36.631  13.326   5.966
 3447POPC   C1A46287  37.137  13.698   6.300
 3447POPC   D2A46288  37.254  13.867   6.691
 3447POPC   C3A46289  37.128  13.523   6.917
 3447POPC   C4A46290  37.007  13.404   7.305
 3447POPC   C1B46291  36.613  13.679   6.248
 3447POPC   C2B46292  36.752  13.717   6.662
 3447POPC   C3B46293  36.670  13.755   7.086
 3447POPC   C4B46294  36.513  13.507   7.447
 3448POPC   NC346295  10.379  39.261   5.062
 3448POPC   PO446296  10.639  38.877   5.498
 3448POPC   GL146297  10.418  39.192   5.707
 3448POPC   GL246298  10.704  39.277   5.954
 3448POPC   C1A46299  10.228  39.248   6.081
 3448POPC   D2A46300  10.336  39.259   6.487
 3448POPC   C3A46301  10.340  39.132   6.907
 3448POPC   C4A46302  10.277  39.205   7.333
 3448POPC   C1B46303  10.825  39.387   6.368
 3448POPC   C2B46304  10.731  39.460   6.796
 3448POPC   C3B46305  10.790  39.235   7.200
 3448POPC   C4B46306  10.668  38.919   7.532
 3449POPC   NC346307  27.197   3.029   5.642
 3449POPC   PO446308  26.763   2.542   5.343
 3449POPC   GL146309  26.734   2.693   5.773
 3449POPC   GL246310  27.055   2.547   5.852
 3449POPC   C1A46311  26.471   2.668   6.166
 3449POPC   D2A46312  26.511   2.845   6.576
 3449POPC   C3A46313  26.527   2.830   6.997
 3449POPC   C4A46314  26.852   2.961   7.265
 3449POPC   C1B46315  26.975   2.737   6.275
 3449POPC   C2B46316  27.023   2.822   6.720
 3449POPC   C3B46317  27.289   3.096   6.948
 3449POPC   C4B46318  27.259   3.235   7.349
 3450POPC   NC346319  32.459  39.396   5.160
 3450POPC   PO446320  31.810  39.352   5.158
 3450POPC   GL146321  31.928  39.245   5.670
 3450POPC   GL246322  32.252  39.070   5.740
 3450POPC   C1A46323  32.054  39.418   6.113
 3450POPC   D2A46324  32.015  39.311   6.531
 3450POPC   C3A46325  32.247  39.541   6.794
 3450POPC   C4A46326  32.188  39.485   7.200
 3450POPC   C1B46327  32.462  39.108   6.169
 3450POPC   C2B46328  32.433  39.016   6.600
 3450POPC   C3B46329  32.205  39.032   6.967
 3450POPC   C4B46330  32.296  39.022   7.406
 3451POPC   NC346331  44.764  10.936   5.459
 3451POPC   PO446332  44.777  10.328   5.587
 3451POPC   GL146333  44.758  10.685   5.912
 3451POPC   GL246334   0.030  10.949   5.910
 3451POPC   C1A46335  44.521  10.662   6.303
 3451POPC   D2A46336  44.479  10.313   6.597
 3451POPC   C3A46337  44.516  10.431   7.027
 3451POPC   C4A46338  44.567  10.856   7.229
 3451POPC   C1B46339   0.006  10.804   6.353
 3451POPC   C2B46340  44.822  10.718   6.743
 3451POPC   C3B46341  44.999  10.599   7.148
 3451POPC   C4B46342   0.093  10.727   7.580
 3452POPC   NC346343  44.463  41.377   5.508
 3452POPC   PO446344  44.748  41.890   5.243
 3452POPC   GL146345  44.772  41.795   5.704
 3452POPC   GL246346  44.922  41.463   5.780
 3452POPC   C1A46347  44.650  41.680   6.151
 3452POPC   D2A46348  44.439  41.338   6.416
 3452POPC   C3A46349  44.428  41.317   6.873
 3452POPC   C4A46350  44.135  41.371   7.208
 3452POPC   C1B46351  44.915  41.221   6.199
 3452POPC   C2B46352  44.899  41.356   6.644
 3452POPC   C3B46353  44.849  41.715   6.967
 3452POPC   C4B46354  44.864  41.747   7.444
 3453POPC   NC346355  18.276  43.706   5.127
 3453POPC   PO446356  18.359  44.247   5.538
 3453POPC   GL146357  18.412  43.973   5.874
 3453POPC   GL246358  18.448  43.617   5.795
 3453POPC   C1A46359  18.416  44.071   6.306
 3453POPC   D2A46360  18.511  44.151   6.733
 3453POPC   C3A46361  18.180  44.122   7.047
 3453POPC   C4A46362  18.337  44.038   7.456
 3453POPC   C1B46363  18.170  43.629   6.190
 3453POPC   C2B46364  18.203  43.753   6.649
 3453POPC   C3B46365  18.461  43.715   7.027
 3453POPC   C4B46366  18.144  43.615   7.283
 3454POPC   NC346367   8.522  35.940   5.089
 3454POPC   PO446368   9.045  36.144   5.301
 3454POPC   GL146369   8.845  36.221   5.666
 3454POPC   GL246370   9.175  36.315   5.819
 3454POPC   C1A46371   8.765  36.073   6.087
 3454POPC   D2A46372   8.740  36.167   6.521
 3454POPC   C3A46373   9.036  36.112   6.823
 3454POPC   C4A46374   8.860  35.982   7.230
 3454POPC   C1B46375   9.251  36.166   6.243
 3454POPC   C2B46376   9.293  36.472   6.540
 3454POPC   C3B46377   9.208  36.579   6.946
 3454POPC   C4B46378   9.233  36.309   7.272
 3455POPC   NC346379  43.781   4.101   5.444
 3455POPC   PO446380  44.159   4.595   5.669
 3455POPC   GL146381  43.797   4.379   5.879
 3455POPC   GL246382  43.723   3.999   5.930
 3455POPC   C1A46383  43.750   4.355   6.305
 3455POPC   D2A46384  43.645   3.991   6.482
 3455POPC   C3A46385  43.725   4.032   6.915
 3455POPC   C4A46386  43.714   4.401   7.196
 3455POPC   C1B46387  44.101   3.994   6.183
 3455POPC   C2B46388  44.095   3.822   6.602
 3455POPC   C3B46389  44.285   3.798   6.993
 3455POPC   C4B46390  44.170   4.135   7.216
 3456POPC   NC346391  26.159   5.198   5.447
 3456POPC   PO446392  25.989   4.619   5.287
 3456POPC   GL146393  26.011   4.848   5.775
 3456POPC   GL246394  25.939   5.240   5.903
 3456POPC   C1A46395  26.210   4.970   6.214
 3456POPC   D2A46396  26.103   5.262   6.560
 3456POPC   C3A46397  26.168   5.132   7.021
 3456POPC   C4A46398  26.235   5.093   7.495
 3456POPC   C1B46399  25.701   5.476   6.256
 3456POPC   C2B46400  25.717   5.612   6.725
 3456POPC   C3B46401  25.653   5.392   7.149
 3456POPC   C4B46402  25.719   5.077   7.509
 3457POPC   NC346403  18.333  33.433   5.398
 3457POPC   PO446404  18.890  33.722   5.078
 3457POPC   GL146405  18.639  33.810   5.542
 3457POPC   GL246406  18.247  33.852   5.657
 3457POPC   C1A46407  18.594  33.804   6.042
 3457POPC   D2A46408  18.409  33.572   6.418
 3457POPC   C3A46409  18.399  33.765   6.862
 3457POPC   C4A46410  18.446  33.800   7.332
 3457POPC   C1B46411  18.046  33.781   6.081
 3457POPC   C2B46412  17.986  33.838   6.561
 3457POPC   C3B46413  17.884  33.623   6.981
 3457POPC   C4B46414  17.897  33.762   7.441
 3458POPC   NC346415  40.508  37.997   5.428
 3458POPC   PO446416  41.135  37.689   5.407
 3458POPC   GL146417  40.805  37.666   5.708
 3458POPC   GL246418  40.810  37.353   5.897
 3458POPC   C1A46419  40.683  37.763   6.145
 3458POPC   D2A46420  40.684  37.522   6.525
 3458POPC   C3A46421  40.692  37.864   6.796
 3458POPC   C4A46422  40.722  37.919   7.248
 3458POPC   C1B46423  41.127  37.429   6.244
 3458POPC   C2B46424  41.237  37.521   6.654
 3458POPC   C3B46425  40.958  37.424   6.979
 3458POPC   C4B46426  41.091  37.436   7.361
 3459POPC   NC346427   1.350  11.010   5.476
 3459POPC   PO446428   0.954  10.477   5.461
 3459POPC   GL146429   1.180  10.492   5.875
 3459POPC   GL246430   1.483  10.637   5.808
 3459POPC   C1A46431   1.415  10.483   6.299
 3459POPC   D2A46432   1.648  10.404   6.685
 3459POPC   C3A46433   1.340  10.430   6.991
 3459POPC   C4A46434   0.987  10.398   7.296
 3459POPC   C1B46435   1.467  10.956   6.119
 3459POPC   C2B46436   1.461  10.966   6.527
 3459POPC   C3B46437   1.458  10.974   6.947
 3459POPC   C4B46438   1.414  10.779   7.332
 3460POPC   NC346439   4.289  30.512   5.214
 3460POPC   PO446440   3.985  31.087   5.255
 3460POPC   GL146441   4.136  30.971   5.736
 3460POPC   GL246442   4.216  30.615   5.719
 3460POPC   C1A46443   4.145  30.877   6.182
 3460POPC   D2A46444   4.175  30.620   6.555
 3460POPC   C3A46445   4.207  30.865   6.961
 3460POPC   C4A46446   4.085  30.635   7.358
 3460POPC   C1B46447   4.482  30.502   6.080
 3460POPC   C2B46448   4.614  30.347   6.493
 3460POPC   C3B46449   4.447  30.400   6.932
 3460POPC   C4B46450   4.643  30.737   7.194
 3461POPC   NC346451  31.863  35.829   5.244
 3461POPC   PO446452  32.267  36.348   5.366
 3461POPC   GL146453  32.134  36.243   5.764
 3461POPC   GL246454  32.017  35.913   5.730
 3461POPC   C1A46455  32.243  36.372   6.182
 3461POPC   D2A46456  32.395  36.181   6.563
 3461POPC   C3A46457  32.337  36.420   6.911
 3461POPC   C4A46458  32.018  36.284   7.202
 3461POPC   C1B46459  32.257  35.853   6.120
 3461POPC   C2B46460  32.293  35.669   6.543
 3461POPC   C3B46461  32.097  35.794   6.917
 3461POPC   C4B46462  31.889  35.728   7.288
 3462POPC   NC346463  23.002   8.571   5.376
 3462POPC   PO446464  22.882   9.177   5.033
 3462POPC   GL146465  22.872   9.048   5.515
 3462POPC   GL246466  22.986   9.308   5.754
 3462POPC   C1A46467  22.854   8.836   5.950
 3462POPC   D2A46468  22.896   8.740   6.393
 3462POPC   C3A46469  22.772   8.611   6.809
 3462POPC   C4A46470  22.893   8.805   7.189
 3462POPC   C1B46471  22.992   9.240   6.232
 3462POPC   C2B46472  22.995   9.143   6.708
 3462POPC   C3B46473  22.872   9.298   7.115
 3462POPC   C4B46474  22.897   9.142   7.592
 3463POPC   NC346475  18.434  30.853   5.462
 3463POPC   PO446476  18.033  30.446   5.685
 3463POPC   GL146477  18.241  30.708   5.947
 3463POPC   GL246478  18.538  30.579   5.882
 3463POPC   C1A46479  18.301  30.806   6.379
 3463POPC   D2A46480  18.432  31.046   6.705
 3463POPC   C3A46481  18.418  30.866   7.081
 3463POPC   C4A46482  18.136  30.748   7.392
 3463POPC   C1B46483  18.735  30.567   6.266
 3463POPC   C2B46484  18.631  30.528   6.689
 3463POPC   C3B46485  18.767  30.453   7.106
 3463POPC   C4B46486  18.620  30.610   7.489
 3464POPC   NC346487  11.482  20.041   5.260
 3464POPC   PO446488  11.037  19.610   5.338
 3464POPC   GL146489  11.103  19.861   5.686
 3464POPC   GL246490  11.440  19.977   5.764
 3464POPC   C1A46491  11.121  19.907   6.133
 3464POPC   D2A46492  11.203  19.708   6.490
 3464POPC   C3A46493  11.234  19.918   6.854
 3464POPC   C4A46494  11.083  19.729   7.237
 3464POPC   C1B46495  11.639  19.944   6.213
 3464POPC   C2B46496  11.692  19.769   6.654
 3464POPC   C3B46497  11.643  19.769   7.128
 3464POPC   C4B46498  11.677  19.665   7.571
 3465POPC   NC346499  37.862  15.375   5.355
 3465POPC   PO446500  37.332  14.894   5.492
 3465POPC   GL146501  37.462  15.179   5.840
 3465POPC   GL246502  37.317  15.517   5.808
 3465POPC   C1A46503  37.686  15.199   6.263
 3465POPC   D2A46504  38.023  15.176   6.604
 3465POPC   C3A46505  37.794  15.115   6.957
 3465POPC   C4A46506  37.385  14.934   7.092
 3465POPC   C1B46507  37.233  15.454   6.259
 3465POPC   C2B46508  37.369  15.275   6.657
 3465POPC   C3B46509  37.446  15.476   7.036
 3465POPC   C4B46510  37.730  15.444   7.354
 3466POPC   NC346511   4.050   1.219   5.568
 3466POPC   PO446512   4.621   1.277   5.267
 3466POPC   GL146513   4.595   1.147   5.706
 3466POPC   GL246514   4.479   1.450   5.793
 3466POPC   C1A46515   4.335   1.088   6.126
 3466POPC   D2A46516   4.405   1.122   6.560
 3466POPC   C3A46517   4.196   1.022   6.935
 3466POPC   C4A46518   4.371   0.762   7.268
 3466POPC   C1B46519   4.482   1.606   6.200
 3466POPC   C2B46520   4.235   1.599   6.604
 3466POPC   C3B46521   4.259   1.541   7.066
 3466POPC   C4B46522   4.301   1.241   7.388
 3467POPC   NC346523  24.279  30.265   5.374
 3467POPC   PO446524  24.693  29.697   5.500
 3467POPC   GL146525  24.625  30.107   5.726
 3467POPC   GL246526  24.272  30.247   5.867
 3467POPC   C1A46527  24.616  30.041   6.176
 3467POPC   D2A46528  24.567  29.733   6.515
 3467POPC   C3A46529  24.718  29.846   6.919
 3467POPC   C4A46530  24.774  30.173   7.198
 3467POPC   C1B46531  24.217  30.372   6.286
 3467POPC   C2B46532  24.395  30.211   6.656
 3467POPC   C3B46533  24.287  30.136   7.060
 3467POPC   C4B46534  24.313  30.265   7.469
 3468POPC   NC346535  22.660  30.318   5.511
 3468POPC   PO446536  23.079  29.850   5.352
 3468POPC   GL146537  22.974  29.998   5.816
 3468POPC   GL246538  22.887  30.331   5.972
 3468POPC   C1A46539  22.876  29.951   6.295
 3468POPC   D2A46540  22.787  29.636   6.596
 3468POPC   C3A46541  22.753  29.804   6.992
 3468POPC   C4A46542  22.952  29.863   7.363
 3468POPC   C1B46543  23.207  30.425   6.298
 3468POPC   C2B46544  23.332  30.239   6.679
 3468POPC   C3B46545  23.022  30.276   6.997
 3468POPC   C4B46546  22.636  30.259   7.185
 3469POPC   NC346547   6.359  37.142   5.439
 3469POPC   PO446548   5.617  37.047   5.388
 3469POPC   GL146549   5.662  36.885   5.788
 3469POPC   GL246550   6.019  36.907   5.780
 3469POPC   C1A46551   5.764  36.781   6.204
 3469POPC   D2A46552   5.660  36.948   6.595
 3469POPC   C3A46553   5.833  36.834   7.001
 3469POPC   C4A46554   5.724  37.222   7.186
 3469POPC   C1B46555   6.125  37.141   6.178
 3469POPC   C2B46556   6.185  37.022   6.618
 3469POPC   C3B46557   6.203  37.236   7.015
 3469POPC   C4B46558   6.118  37.169   7.505
 3470POPC   NC346559  39.126   7.127   5.583
 3470POPC   PO446560  39.477   7.635   5.380
 3470POPC   GL146561  39.292   7.552   5.830
 3470POPC   GL246562  39.020   7.742   5.987
 3470POPC   C1A46563  39.237   7.316   6.229
 3470POPC   D2A46564  39.449   7.328   6.649
 3470POPC   C3A46565  39.259   7.258   7.053
 3470POPC   C4A46566  38.802   7.261   7.161
 3470POPC   C1B46567  39.141   7.765   6.436
 3470POPC   C2B46568  38.962   7.670   6.844
 3470POPC   C3B46569  39.061   7.689   7.265
 3470POPC   C4B46570  39.468   7.646   7.450
 3471POPC   NC346571  33.378  25.351   5.277
 3471POPC   PO446572  32.691  25.373   5.395
 3471POPC   GL146573  33.044  25.405   5.740
 3471POPC   GL246574  33.314  25.176   5.764
 3471POPC   C1A46575  33.259  25.497   6.168
 3471POPC   D2A46576  33.399  25.354   6.601
 3471POPC   C3A46577  33.124  25.450   6.968
 3471POPC   C4A46578  32.916  25.382   7.377
 3471POPC   C1B46579  32.997  25.050   6.100
 3471POPC   C2B46580  32.952  25.084   6.570
 3471POPC   C3B46581  32.874  25.010   7.033
 3471POPC   C4B46582  32.855  24.893   7.503
 3472POPC   NC346583   4.502  28.321   5.615
 3472POPC   PO446584   5.182  28.467   5.459
 3472POPC   GL146585   5.035  28.570   5.857
 3472POPC   GL246586   4.728  28.764   5.827
 3472POPC   C1A46587   5.051  28.378   6.260
 3472POPC   D2A46588   5.212  28.200   6.612
 3472POPC   C3A46589   5.198  28.423   6.961
 3472POPC   C4A46590   5.139  28.146   7.280
 3472POPC   C1B46591   4.612  28.612   6.258
 3472POPC   C2B46592   4.736  28.498   6.694
 3472POPC   C3B46593   4.712  28.489   7.145
 3472POPC   C4B46594   5.023  28.636   7.434
 3473POPC   NC346595   7.152  20.133   5.133
 3473POPC   PO446596   7.574  20.553   5.454
 3473POPC   GL146597   7.544  20.610   5.889
 3473POPC   GL246598   7.205  20.480   5.973
 3473POPC   C1A46599   7.606  20.820   6.299
 3473POPC   D2A46600   7.440  21.011   6.681
 3473POPC   C3A46601   7.500  20.698   7.002
 3473POPC   C4A46602   7.406  20.657   7.453
 3473POPC   C1B46603   7.119  20.212   6.351
 3473POPC   C2B46604   7.232  20.221   6.802
 3473POPC   C3B46605   7.128  20.305   7.251
 3473POPC   C4B46606   7.125  20.252   7.714
 3474POPC   NC346607   4.540  35.190   5.264
 3474POPC   PO446608   3.948  34.949   5.375
 3474POPC   GL146609   4.152  35.239   5.691
 3474POPC   GL246610   4.213  35.607   5.664
 3474POPC   C1A46611   4.328  35.265   6.134
 3474POPC   D2A46612   4.361  35.133   6.586
 3474POPC   C3A46613   4.586  35.392   6.899
 3474POPC   C4A46614   4.416  35.602   7.257
 3474POPC   C1B46615   3.997  35.678   6.061
 3474POPC   C2B46616   3.957  35.469   6.448
 3474POPC   C3B46617   4.091  35.524   6.840
 3474POPC   C4B46618   3.861  35.569   7.178
 3475POPC   NC346619  34.663  23.219   5.487
 3475POPC   PO446620  34.315  22.782   5.411
 3475POPC   GL146621  34.323  22.929   5.840
 3475POPC   GL246622  34.303  23.280   5.859
 3475POPC   C1A46623  34.439  22.952   6.301
 3475POPC   D2A46624  34.857  23.023   6.505
 3475POPC   C3A46625  34.855  23.091   6.978
 3475POPC   C4A46626  34.635  22.973   7.373
 3475POPC   C1B46627  34.536  23.438   6.192
 3475POPC   C2B46628  34.564  23.416   6.625
 3475POPC   C3B46629  34.405  23.337   7.032
 3475POPC   C4B46630  34.484  23.444   7.452
 3476POPC   NC346631   5.211   2.925   5.470
 3476POPC   PO446632   4.890   2.296   5.476
 3476POPC   GL146633   5.116   2.546   5.801
 3476POPC   GL246634   5.474   2.567   5.777
 3476POPC   C1A46635   5.114   2.861   6.145
 3476POPC   D2A46636   5.121   3.090   6.546
 3476POPC   C3A46637   4.997   2.743   6.802
 3476POPC   C4A46638   4.949   2.699   7.250
 3476POPC   C1B46639   5.621   2.745   6.190
 3476POPC   C2B46640   5.526   2.797   6.634
 3476POPC   C3B46641   5.417   2.848   7.061
 3476POPC   C4B46642   5.440   2.572   7.391
 3477POPC   NC346643   1.323  21.056   5.184
 3477POPC   PO446644   1.194  21.710   5.311
 3477POPC   GL146645   1.222  21.437   5.740
 3477POPC   GL246646   1.340  21.042   5.759
 3477POPC   C1A46647   1.436  21.426   6.161
 3477POPC   D2A46648   1.378  21.590   6.616
 3477POPC   C3A46649   1.608  21.506   6.994
 3477POPC   C4A46650   1.351  21.470   7.393
 3477POPC   C1B46651   1.100  20.996   6.103
 3477POPC   C2B46652   1.216  21.084   6.522
 3477POPC   C3B46653   1.201  21.195   6.953
 3477POPC   C4B46654   1.412  20.992   7.283
 3478POPC   NC346655  29.249   5.808   5.175
 3478POPC   PO446656  28.621   5.621   5.245
 3478POPC   GL146657  28.976   5.827   5.638
 3478POPC   GL246658  29.370   5.741   5.783
 3478POPC   C1A46659  29.030   5.812   6.139
 3478POPC   D2A46660  29.135   6.026   6.549
 3478POPC   C3A46661  29.044   5.792   6.935
 3478POPC   C4A46662  28.747   5.725   7.303
 3478POPC   C1B46663  29.593   5.737   6.226
 3478POPC   C2B46664  29.522   5.664   6.699
 3478POPC   C3B46665  29.485   5.682   7.167
 3478POPC   C4B46666  29.674   5.703   7.580
 3479POPC   NC346667  22.621  43.400   5.538
 3479POPC   PO446668  23.133  42.914   5.569
 3479POPC   GL146669  22.904  43.139   5.871
 3479POPC   GL246670  22.671  42.940   6.108
 3479POPC   C1A46671  23.098  43.234   6.244
 3479POPC   D2A46672  22.965  43.050   6.617
 3479POPC   C3A46673  23.167  42.911   6.978
 3479POPC   C4A46674  23.004  42.903   7.382
 3479POPC   C1B46675  22.609  43.303   6.337
 3479POPC   C2B46676  22.731  43.476   6.736
 3479POPC   C3B46677  23.032  43.401   7.094
 3479POPC   C4B46678  22.969  43.382   7.568
 3480POPC   NC346679   6.898  21.509   5.266
 3480POPC   PO446680   6.329  21.143   5.358
 3480POPC   GL146681   6.411  21.346   5.768
 3480POPC   GL246682   6.688  21.597   5.754
 3480POPC   C1A46683   6.452  21.247   6.232
 3480POPC   D2A46684   6.507  20.962   6.624
 3480POPC   C3A46685   6.561  21.194   7.035
 3480POPC   C4A46686   6.789  21.175   7.434
 3480POPC   C1B46687   6.364  21.760   6.058
 3480POPC   C2B46688   6.339  21.700   6.488
 3480POPC   C3B46689   6.493  21.792   6.883
 3480POPC   C4B46690   6.327  21.854   7.275
 3481POPC   NC346691  37.269  27.238   5.435
 3481POPC   PO446692  36.961  27.883   5.373
 3481POPC   GL146693  36.879  27.781   5.794
 3481POPC   GL246694  36.614  28.024   5.801
 3481POPC   C1A46695  37.083  27.590   6.191
 3481POPC   D2A46696  37.049  27.609   6.665
 3481POPC   C3A46697  37.187  27.307   7.019
 3481POPC   C4A46698  37.098  27.253   7.473
 3481POPC   C1B46699  36.697  27.934   6.250
 3481POPC   C2B46700  36.727  28.022   6.689
 3481POPC   C3B46701  36.871  27.874   7.094
 3481POPC   C4B46702  36.556  27.966   7.387
 3482POPC   NC346703  24.854   6.667   5.342
 3482POPC   PO446704  24.188   6.606   5.409
 3482POPC   GL146705  24.475   6.629   5.780
 3482POPC   GL246706  24.828   6.717   5.855
 3482POPC   C1A46707  24.550   6.512   6.223
 3482POPC   D2A46708  24.732   6.703   6.591
 3482POPC   C3A46709  24.390   6.752   6.889
 3482POPC   C4A46710  24.290   6.502   7.260
 3482POPC   C1B46711  24.656   7.030   6.172
 3482POPC   C2B46712  24.525   7.177   6.579
 3482POPC   C3B46713  24.753   7.108   6.979
 3482POPC   C4B46714  24.464   6.982   7.333
 3483POPC   NC346715  39.504  25.062   5.522
 3483POPC   PO446716  39.226  25.623   5.416
 3483POPC   GL146717  39.074  25.335   5.735
 3483POPC   GL246718  39.403  25.376   5.908
 3483POPC   C1A46719  39.039  25.109   6.152
 3483POPC   D2A46720  39.171  25.288   6.559
 3483POPC   C3A46721  38.997  25.140   6.965
 3483POPC   C4A46722  39.197  25.284   7.343
 3483POPC   C1B46723  39.614  25.067   6.164
 3483POPC   C2B46724  39.581  24.980   6.579
 3483POPC   C3B46725  39.507  25.156   6.963
 3483POPC   C4B46726  39.585  24.970   7.371
 3484POPC   NC346727  35.599  14.456   5.448
 3484POPC   PO446728  36.244  14.199   5.559
 3484POPC   GL146729  36.056  14.537   5.791
 3484POPC   GL246730  35.715  14.593   5.924
 3484POPC   C1A46731  36.145  14.556   6.223
 3484POPC   D2A46732  36.384  14.525   6.588
 3484POPC   C3A46733  36.080  14.594   6.872
 3484POPC   C4A46734  36.143  14.477   7.246
 3484POPC   C1B46735  35.737  14.220   6.173
 3484POPC   C2B46736  35.927  14.194   6.579
 3484POPC   C3B46737  35.775  14.124   6.994
 3484POPC   C4B46738  35.764  14.228   7.423
 3485POPC   NC346739   6.226  35.668   5.425
 3485POPC   PO446740   5.820  35.278   5.164
 3485POPC   GL146741   5.922  35.310   5.648
 3485POPC   GL246742   5.780  35.627   5.757
 3485POPC   C1A46743   6.027  35.293   6.122
 3485POPC   D2A46744   5.896  35.209   6.588
 3485POPC   C3A46745   6.018  35.370   6.994
 3485POPC   C4A46746   5.793  35.476   7.346
 3485POPC   C1B46747   6.062  35.820   6.095
 3485POPC   C2B46748   6.054  36.049   6.503
 3485POPC   C3B46749   5.995  35.875   6.918
 3485POPC   C4B46750   6.205  35.801   7.305
 3486POPC   NC346751  11.073  27.702   5.352
 3486POPC   PO446752  10.451  27.358   5.375
 3486POPC   GL146753  10.643  27.601   5.716
 3486POPC   GL246754  10.469  27.935   5.740
 3486POPC   C1A46755  10.668  27.464   6.177
 3486POPC   D2A46756  10.447  27.489   6.576
 3486POPC   C3A46757  10.663  27.563   6.966
 3486POPC   C4A46758  10.733  27.236   7.279
 3486POPC   C1B46759  10.547  27.961   6.215
 3486POPC   C2B46760  10.402  27.996   6.658
 3486POPC   C3B46761  10.155  27.762   6.977
 3486POPC   C4B46762  10.333  27.680   7.397
 3487POPC   NC346763  11.349  44.282   5.341
 3487POPC   PO446764  11.195  44.970   5.325
 3487POPC   GL146765  11.282  44.826   5.757
 3487POPC   GL246766  11.274  44.489   5.819
 3487POPC   C1A46767  11.394  44.895   6.178
 3487POPC   D2A46768  11.114  44.857   6.537
 3487POPC   C3A46769  11.254  44.894   6.951
 3487POPC   C4A46770  11.019   0.082   7.300
 3487POPC   C1B46771  11.253  44.424   6.265
 3487POPC   C2B46772  11.500  44.420   6.661
 3487POPC   C3B46773  11.430  44.392   7.105
 3487POPC   C4B46774  11.011  44.515   7.246
 3488POPC   NC346775  33.794  38.090   5.363
 3488POPC   PO446776  33.520  37.440   5.411
 3488POPC   GL146777  33.861  37.552   5.705
 3488POPC   GL246778  33.900  37.874   5.822
 3488POPC   C1A46779  33.948  37.496   6.143
 3488POPC   D2A46780  33.852  37.760   6.472
 3488POPC   C3A46781  33.785  37.626   6.852
 3488POPC   C4A46782  33.894  37.528   7.246
 3488POPC   C1B46783  34.189  37.987   6.172
 3488POPC   C2B46784  34.123  38.169   6.599
 3488POPC   C3B46785  34.124  38.014   7.037
 3488POPC   C4B46786  34.029  37.950   7.493
 3489POPC   NC346787   7.832   2.189   5.299
 3489POPC   PO446788   8.355   1.855   5.373
 3489POPC   GL146789   8.328   1.941   5.788
 3489POPC   GL246790   8.109   2.207   5.820
 3489POPC   C1A46791   8.421   2.075   6.213
 3489POPC   D2A46792   8.202   1.965   6.578
 3489POPC   C3A46793   8.402   1.980   6.922
 3489POPC   C4A46794   8.258   2.144   7.263
 3489POPC   C1B46795   7.957   1.850   6.140
 3489POPC   C2B46796   7.740   1.732   6.553
 3489POPC   C3B46797   7.891   1.847   7.001
 3489POPC   C4B46798   8.042   1.735   7.454
 3490POPC   NC346799   4.024  16.126   5.344
 3490POPC   PO446800   4.500  15.682   5.314
 3490POPC   GL146801   4.413  15.630   5.780
 3490POPC   GL246802   4.122  15.829   5.872
 3490POPC   C1A46803   4.481  15.732   6.228
 3490POPC   D2A46804   4.585  16.026   6.553
 3490POPC   C3A46805   4.334  16.042   6.934
 3490POPC   C4A46806   4.287  15.778   7.318
 3490POPC   C1B46807   4.170  16.170   6.170
 3490POPC   C2B46808   4.164  16.386   6.569
 3490POPC   C3B46809   3.970  16.483   6.964
 3490POPC   C4B46810   4.026  16.238   7.317
 3491POPC   NC346811  25.888  33.680   4.968
 3491POPC   PO446812  25.680  34.152   5.487
 3491POPC   GL146813  26.052  33.994   5.714
 3491POPC   GL246814  26.083  33.635   5.738
 3491POPC   C1A46815  26.343  33.962   6.082
 3491POPC   D2A46816  26.568  33.990   6.456
 3491POPC   C3A46817  26.394  33.925   6.854
 3491POPC   C4A46818  26.110  34.125   7.150
 3491POPC   C1B46819  25.891  33.749   6.144
 3491POPC   C2B46820  25.947  33.903   6.564
 3491POPC   C3B46821  25.957  33.672   6.955
 3491POPC   C4B46822  26.206  33.594   7.380
 3492POPC   NC346823  39.019   3.503   5.509
 3492POPC   PO446824  39.464   2.969   5.440
 3492POPC   GL146825  39.416   3.318   5.792
 3492POPC   GL246826  39.488   3.667   5.773
 3492POPC   C1A46827  39.217   3.552   6.177
 3492POPC   D2A46828  38.906   3.490   6.504
 3492POPC   C3A46829  39.095   3.526   6.906
 3492POPC   C4A46830  39.084   3.758   7.272
 3492POPC   C1B46831  39.704   3.720   6.195
 3492POPC   C2B46832  39.441   3.766   6.574
 3492POPC   C3B46833  39.479   3.990   6.931
 3492POPC   C4B46834  39.535   4.048   7.341
 3493POPC   NC346835  11.409  41.717   5.392
 3493POPC   PO446836  10.883  41.309   5.436
 3493POPC   GL146837  11.170  41.459   5.775
 3493POPC   GL246838  11.554  41.430   5.796
 3493POPC   C1A46839  11.260  41.342   6.205
 3493POPC   D2A46840  11.219  41.611   6.539
 3493POPC   C3A46841  11.101  41.563   6.956
 3493POPC   C4A46842  11.044  41.911   7.209
 3493POPC   C1B46843  11.570  41.762   6.063
 3493POPC   C2B46844  11.698  41.787   6.488
 3493POPC   C3B46845  11.562  41.804   6.912
 3493POPC   C4B46846  11.525  41.527   7.264
 3494POPC   NC346847  39.198  28.453   5.288
 3494POPC   PO446848  38.646  28.400   5.407
 3494POPC   GL146849  39.000  28.319   5.736
 3494POPC   GL246850  39.397  28.244   5.701
 3494POPC   C1A46851  39.158  28.344   6.150
 3494POPC   D2A46852  39.203  28.114   6.536
 3494POPC   C3A46853  39.208  28.421   6.885
 3494POPC   C4A46854  39.260  28.558   7.318
 3494POPC   C1B46855  39.648  28.410   6.038
 3494POPC   C2B46856  39.568  28.496   6.486
 3494POPC   C3B46857  39.690  28.586   6.915
 3494POPC   C4B46858  39.684  28.838   7.286
 3495POPC   NC346859  30.107  30.907   5.499
 3495POPC   PO446860  29.830  30.312   5.405
 3495POPC   GL146861  29.824  30.550   5.781
 3495POPC   GL246862  30.177  30.549   5.901
 3495POPC   C1A46863  29.815  30.784   6.181
 3495POPC   D2A46864  29.994  30.714   6.595
 3495POPC   C3A46865  30.112  31.038   6.885
 3495POPC   C4A46866  29.748  31.019   7.107
 3495POPC   C1B46867  30.016  30.316   6.277
 3495POPC   C2B46868  30.182  30.237   6.702
 3495POPC   C3B46869  30.114  30.519   7.064
 3495POPC   C4B46870  30.302  30.510   7.454
 3496POPC   NC346871   3.014  11.596   5.441
 3496POPC   PO446872   2.924  12.289   5.349
 3496POPC   GL146873   2.770  12.114   5.743
 3496POPC   GL246874   2.562  11.808   5.781
 3496POPC   C1A46875   2.809  12.285   6.152
 3496POPC   D2A46876   2.935  12.112   6.543
 3496POPC   C3A46877   2.849  12.303   6.938
 3496POPC   C4A46878   2.776  12.178   7.366
 3496POPC   C1B46879   2.825  11.714   6.140
 3496POPC   C2B46880   2.937  11.603   6.562
 3496POPC   C3B46881   2.765  11.774   6.940
 3496POPC   C4B46882   2.921  11.691   7.332
 3497POPC   NC346883  18.057   0.314   5.250
 3497POPC   PO446884  18.545   0.718   5.393
 3497POPC   GL146885  18.228   0.621   5.712
 3497POPC   GL246886  18.129   0.261   5.763
 3497POPC   C1A46887  18.190   0.606   6.160
 3497POPC   D2A46888  18.125   0.389   6.547
 3497POPC   C3A46889  18.353   0.531   6.874
 3497POPC   C4A46890  18.635   0.416   7.202
 3497POPC   C1B46891  18.121   0.026   6.165
 3497POPC   C2B46892  18.052  44.886   6.593
 3497POPC   C3B46893  18.038   0.022   7.021
 3497POPC   C4B46894  18.120   0.378   7.298
 3498POPC   NC346895   7.860  30.076   5.437
 3498POPC   PO446896   7.111  30.048   5.329
 3498POPC   GL146897   7.333  29.863   5.743
 3498POPC   GL246898   7.678  29.989   5.894
 3498POPC   C1A46899   7.332  29.883   6.233
 3498POPC   D2A46900   7.072  29.920   6.595
 3498POPC   C3A46901   7.329  29.855   6.950
 3498POPC   C4A46902   7.398  30.189   7.255
 3498POPC   C1B46903   7.878  30.010   6.312
 3498POPC   C2B46904   7.740  30.121   6.738
 3498POPC   C3B46905   7.823  29.957   7.147
 3498POPC   C4B46906   7.790  29.561   7.358
 3499POPC   NC346907  19.903   8.522   5.407
 3499POPC   PO446908  19.594   7.935   5.613
 3499POPC   GL146909  19.852   8.160   5.843
 3499POPC   GL246910  19.674   8.482   5.870
 3499POPC   C1A46911  19.961   7.989   6.260
 3499POPC   D2A46912  19.926   7.778   6.667
 3499POPC   C3A46913  19.928   8.045   7.018
 3499POPC   C4A46914  19.532   8.049   7.223
 3499POPC   C1B46915  20.021   8.490   6.188
 3499POPC   C2B46916  19.855   8.371   6.602
 3499POPC   C3B46917  19.622   8.484   6.971
 3499POPC   C4B46918  19.874   8.629   7.268
 3500POPC   NC346919  25.847   4.199   5.326
 3500POPC   PO446920  26.382   4.008   5.228
 3500POPC   GL146921  26.231   4.052   5.655
 3500POPC   GL246922  26.264   4.395   5.777
 3500POPC   C1A46923  26.204   4.031   6.126
 3500POPC   D2A46924  26.046   4.238   6.489
 3500POPC   C3A46925  26.215   4.163   6.907
 3500POPC   C4A46926  26.030   4.104   7.331
 3500POPC   C1B46927  26.444   4.519   6.165
 3500POPC   C2B46928  26.337   4.632   6.600
 3500POPC   C3B46929  26.523   4.690   6.989
 3500POPC   C4B46930  26.493   4.371   7.280
 3501POPC   NC346931  30.671  17.454   5.203
 3501POPC   PO446932  30.226  17.800   5.486
 3501POPC   GL146933  30.474  17.539   5.792
 3501POPC   GL246934  30.833  17.400   5.806
 3501POPC   C1A46935  30.596  17.554   6.253
 3501POPC   D2A46936  30.810  17.395   6.628
 3501POPC   C3A46937  30.566  17.538   6.971
 3501POPC   C4A46938  30.530  17.782   7.340
 3501POPC   C1B46939  31.088  17.466   6.199
 3501POPC   C2B46940  31.204  17.699   6.617
 3501POPC   C3B46941  31.059  17.611   7.083
 3501POPC   C4B46942  30.959  17.592   7.555
 3502POPC   NC346943  37.727   9.339   5.406
 3502POPC   PO446944  37.502   9.972   5.456
 3502POPC   GL146945  37.620   9.672   5.796
 3502POPC   GL246946  37.958   9.578   5.832
 3502POPC   C1A46947  37.595   9.567   6.245
 3502POPC   D2A46948  37.576   9.854   6.618
 3502POPC   C3A46949  37.591   9.654   7.029
 3502POPC   C4A46950  37.525   9.209   7.072
 3502POPC   C1B46951  37.977   9.890   6.201
 3502POPC   C2B46952  38.050  10.014   6.662
 3502POPC   C3B46953  38.051   9.850   7.102
 3502POPC   C4B46954  37.935   9.661   7.495
 3503POPC   NC346955  37.748   8.645   5.254
 3503POPC   PO446956  38.042   8.148   5.569
 3503POPC   GL146957  37.858   8.123   5.939
 3503POPC   GL246958  37.532   8.131   5.795
 3503POPC   C1A46959  37.888   8.210   6.404
 3503POPC   D2A46960  37.745   8.382   6.822
 3503POPC   C3A46961  37.930   8.297   7.244
 3503POPC   C4A46962  38.132   8.182   7.662
 3503POPC   C1B46963  37.471   7.949   6.234
 3503POPC   C2B46964  37.577   7.894   6.698
 3503POPC   C3B46965  37.519   8.012   7.135
 3503POPC   C4B46966  37.740   7.892   7.523
 3504POPC   NC346967   3.525   7.750   5.377
 3504POPC   PO446968   3.333   7.084   5.173
 3504POPC   GL146969   3.574   7.235   5.565
 3504POPC   GL246970   3.310   7.374   5.733
 3504POPC   C1A46971   3.754   7.386   6.027
 3504POPC   D2A46972   3.833   7.499   6.520
 3504POPC   C3A46973   3.641   7.366   6.923
 3504POPC   C4A46974   3.836   7.103   7.222
 3504POPC   C1B46975   3.271   7.446   6.170
 3504POPC   C2B46976   3.299   7.539   6.583
 3504POPC   C3B46977   3.108   7.426   6.960
 3504POPC   C4B46978   3.178   7.348   7.348
 3505POPC   NC346979  36.375  38.392   5.467
 3505POPC   PO446980  35.681  38.353   5.419
 3505POPC   GL146981  35.956  38.461   5.769
 3505POPC   GL246982  36.187  38.197   5.912
 3505POPC   C1A46983  36.022  38.619   6.172
 3505POPC   D2A46984  35.795  38.559   6.557
 3505POPC   C3A46985  36.020  38.573   6.922
 3505POPC   C4A46986  36.208  38.708   7.291
 3505POPC   C1B46987  36.339  38.079   6.336
 3505POPC   C2B46988  36.188  38.023   6.763
 3505POPC   C3B46989  36.345  37.914   7.168
 3505POPC   C4B46990  36.413  38.267   7.432
 3506POPC   NC346991   7.242   1.423   5.331
 3506POPC   PO446992   7.901   1.075   5.332
 3506POPC   GL146993   7.666   1.015   5.704
 3506POPC   GL246994   7.389   1.260   5.812
 3506POPC   C1A46995   7.545   0.880   6.112
 3506POPC   D2A46996   7.258   1.005   6.412
 3506POPC   C3A46997   7.396   0.948   6.807
 3506POPC   C4A46998   7.352   1.166   7.177
 3506POPC   C1B46999   7.363   1.475   6.247
 3506POPC   C2B47000   7.306   1.464   6.719
 3506POPC   C3B47001   7.048   1.620   7.071
 3506POPC   C4B47002   6.991   1.746   7.553
 3507POPC   NC347003  34.629  39.175   5.351
 3507POPC   PO447004  34.077  39.520   5.584
 3507POPC   GL147005  34.287  39.309   5.945
 3507POPC   GL247006  34.657  39.243   5.903
 3507POPC   C1A47007  34.336  39.207   6.406
 3507POPC   D2A47008  34.690  39.328   6.698
 3507POPC   C3A47009  34.690  39.286   7.160
 3507POPC   C4A47010  34.369  39.417   7.437
 3507POPC   C1B47011  34.736  38.932   6.260
 3507POPC   C2B47012  34.940  38.877   6.667
 3507POPC   C3B47013  35.108  39.006   7.075
 3507POPC   C4B47014  35.067  39.113   7.543
 3508POPC   NC347015  20.011   7.699   5.592
 3508POPC   PO447016  19.597   7.201   5.526
 3508POPC   GL147017  19.768   7.357   5.892
 3508POPC   GL247018  20.140   7.308   5.913
 3508POPC   C1A47019  19.868   7.398   6.335
 3508POPC   D2A47020  19.846   7.216   6.747
 3508POPC   C3A47021  19.790   7.517   7.096
 3508POPC   C4A47022  19.424   7.562   7.300
 3508POPC   C1B47023  20.322   7.636   6.237
 3508POPC   C2B47024  20.413   7.834   6.641
 3508POPC   C3B47025  20.283   7.682   7.085
 3508POPC   C4B47026  20.092   7.711   7.505
 3509POPC   NC347027  40.866  35.506   5.196
 3509POPC   PO447028  40.643  34.976   5.358
 3509POPC   GL147029  40.833  35.196   5.743
 3509POPC   GL247030  40.945  35.540   5.763
 3509POPC   C1A47031  40.989  35.041   6.135
 3509POPC   D2A47032  40.887  34.835   6.528
 3509POPC   C3A47033  40.836  35.070   6.899
 3509POPC   C4A47034  40.627  35.380   7.120
 3509POPC   C1B47035  41.119  35.568   6.200
 3509POPC   C2B47036  40.930  35.621   6.649
 3509POPC   C3B47037  41.102  35.591   7.088
 3509POPC   C4B47038  41.261  35.630   7.533
 3510POPC   NC347039  24.208  43.869   5.135
 3510POPC   PO447040  23.584  43.712   5.170
 3510POPC   GL147041  23.579  43.591   5.729
 3510POPC   GL247042  23.815  43.844   5.966
 3510POPC   C1A47043  23.428  43.619   6.166
 3510POPC   D2A47044  23.641  43.812   6.486
 3510POPC   C3A47045  23.579  43.719   6.919
 3510POPC   C4A47046  23.916  43.636   7.200
 3510POPC   C1B47047  24.109  43.950   6.328
 3510POPC   C2B47048  24.035  43.917   6.772
 3510POPC   C3B47049  23.854  44.131   7.125
 3510POPC   C4B47050  23.751  44.278   7.552
 3511POPC   NC347051  10.746  18.662   5.593
 3511POPC   PO447052  10.600  17.977   5.438
 3511POPC   GL147053  10.615  18.164   5.924
 3511POPC   GL247054  10.582  18.531   6.032
 3511POPC   C1A47055  10.430  18.247   6.401
 3511POPC   D2A47056  10.319  18.344   6.834
 3511POPC   C3A47057  10.623  18.363   7.109
 3511POPC   C4A47058  10.825  18.089   7.363
 3511POPC   C1B47059  10.141  18.580   6.147
 3511POPC   C2B47060  10.083  18.722   6.546
 3511POPC   C3B47061   9.986  18.720   6.979
 3511POPC   C4B47062  10.222  18.655   7.303
 3512POPC   NC347063   5.659  27.828   5.552
 3512POPC   PO447064   6.058  27.443   5.265
 3512POPC   GL147065   6.048  27.556   5.733
 3512POPC   GL247066   5.729  27.413   5.882
 3512POPC   C1A47067   5.902  27.840   6.139
 3512POPC   D2A47068   5.761  27.943   6.542
 3512POPC   C3A47069   6.055  27.872   6.875
 3512POPC   C4A47070   6.216  27.834   7.263
 3512POPC   C1B47071   5.606  27.419   6.337
 3512POPC   C2B47072   5.765  27.436   6.775
 3512POPC   C3B47073   5.787  27.559   7.217
 3512POPC   C4B47074   5.688  27.389   7.613
 3513POPC   NC347075  12.002  17.934   5.259
 3513POPC   PO447076  12.243  17.315   5.302
 3513POPC   GL147077  11.889  17.379   5.590
 3513POPC   GL247078  11.821  17.092   5.817
 3513POPC   C1A47079  11.952  17.584   5.991
 3513POPC   D2A47080  12.130  17.659   6.383
 3513POPC   C3A47081  11.885  17.574   6.730
 3513POPC   C4A47082  12.044  17.464   7.138
 3513POPC   C1B47083  11.984  17.135   6.274
 3513POPC   C2B47084  12.260  17.216   6.665
 3513POPC   C3B47085  12.378  17.085   7.089
 3513POPC   C4B47086  12.260  17.210   7.573
 3514POPC   NC347087   0.498  23.274   5.469
 3514POPC   PO447088   0.606  22.621   5.500
 3514POPC   GL147089   0.501  22.896   5.857
 3514POPC   GL247090   0.716  23.172   5.938
 3514POPC   C1A47091   0.415  22.871   6.308
 3514POPC   D2A47092   0.520  22.898   6.726
 3514POPC   C3A47093   0.312  22.810   7.117
 3514POPC   C4A47094   0.567  22.715   7.457
 3514POPC   C1B47095   0.350  23.337   6.113
 3514POPC   C2B47096   0.279  23.421   6.515
 3514POPC   C3B47097   0.220  23.272   6.889
 3514POPC   C4B47098   0.097  23.290   7.260
 3515POPC   NC347099   9.282  26.335   5.416
 3515POPC   PO447100   8.776  25.878   5.321
 3515POPC   GL147101   9.036  25.961   5.674
 3515POPC   GL247102   8.945  26.299   5.807
 3515POPC   C1A47103   9.195  25.949   6.094
 3515POPC   D2A47104   9.021  26.115   6.481
 3515POPC   C3A47105   9.001  25.863   6.829
 3515POPC   C4A47106   9.145  25.942   7.213
 3515POPC   C1B47107   9.192  26.456   6.135
 3515POPC   C2B47108   9.378  26.508   6.527
 3515POPC   C3B47109   9.276  26.321   6.896
 3515POPC   C4B47110   9.004  26.438   7.200
 3516POPC   NC347111  19.037  27.154   5.348
 3516POPC   PO447112  19.319  26.559   5.538
 3516POPC   GL147113  19.255  26.869   5.862
 3516POPC   GL247114  18.917  26.976   5.911
 3516POPC   C1A47115  19.203  26.856   6.329
 3516POPC   D2A47116  18.971  26.675   6.690
 3516POPC   C3A47117  18.914  26.973   7.009
 3516POPC   C4A47118  19.285  26.978   7.194
 3516POPC   C1B47119  18.742  26.670   6.220
 3516POPC   C2B47120  18.471  26.525   6.558
 3516POPC   C3B47121  18.628  26.384   6.969
 3516POPC   C4B47122  18.895  26.548   7.270
 3517POPC   NC347123  25.114   0.145   5.167
 3517POPC   PO447124  25.336   0.595   5.503
 3517POPC   GL147125  25.282   0.220   5.690
 3517POPC   GL247126  25.607   0.135   5.758
 3517POPC   C1A47127  25.119   0.163   6.115
 3517POPC   D2A47128  25.281   0.401   6.494
 3517POPC   C3A47129  25.270   0.279   6.920
 3517POPC   C4A47130  25.390  44.969   7.183
 3517POPC   C1B47131  25.594   0.463   6.095
 3517POPC   C2B47132  25.798   0.584   6.510
 3517POPC   C3B47133  25.737   0.571   6.973
 3517POPC   C4B47134  25.502   0.929   7.188
 3518POPC   NC347135  43.046  43.328   5.282
 3518POPC   PO447136  42.631  42.910   5.528
 3518POPC   GL147137  42.426  43.138   5.864
 3518POPC   GL247138  42.181  43.341   5.662
 3518POPC   C1A47139  42.232  43.014   6.302
 3518POPC   D2A47140  42.142  42.789   6.727
 3518POPC   C3A47141  42.401  42.924   7.133
 3518POPC   C4A47142  42.536  43.356   7.305
 3518POPC   C1B47143  42.028  43.441   6.067
 3518POPC   C2B47144  42.008  43.476   6.513
 3518POPC   C3B47145  42.162  43.287   6.874
 3518POPC   C4B47146  41.901  43.031   7.176
 3519POPC   NC347147   5.201  10.098   5.446
 3519POPC   PO447148   5.032   9.485   5.285
 3519POPC   GL147149   5.214   9.623   5.696
 3519POPC   GL247150   4.989   9.905   5.861
 3519POPC   C1A47151   5.303   9.623   6.151
 3519POPC   D2A47152   5.196   9.955   6.451
 3519POPC   C3A47153   5.082   9.740   6.809
 3519POPC   C4A47154   5.362   9.529   7.078
 3519POPC   C1B47155   4.755  10.120   6.172
 3519POPC   C2B47156   4.630  10.072   6.619
 3519POPC   C3B47157   4.766  10.100   7.061
 3519POPC   C4B47158   5.192  10.007   7.254
 3520POPC   NC347159  30.525   7.651   5.403
 3520POPC   PO447160  30.978   7.198   5.386
 3520POPC   GL147161  30.711   7.249   5.756
 3520POPC   GL247162  30.477   6.986   5.807
 3520POPC   C1A47163  30.491   7.489   6.107
 3520POPC   D2A47164  30.483   7.749   6.507
 3520POPC   C3A47165  30.778   7.648   6.876
 3520POPC   C4A47166  30.711   7.600   7.327
 3520POPC   C1B47167  30.661   7.011   6.215
 3520POPC   C2B47168  30.528   7.211   6.590
 3520POPC   C3B47169  30.621   7.176   7.010
 3520POPC   C4B47170  30.988   7.148   7.240
 3521POPC   NC347171  18.089  11.086   5.203
 3521POPC   PO447172  18.557  11.431   5.237
 3521POPC   GL147173  18.320  11.310   5.663
 3521POPC   GL247174  18.536  11.089   5.864
 3521POPC   C1A47175  18.130  11.379   6.125
 3521POPC   D2A47176  18.275  11.575   6.541
 3521POPC   C3A47177  18.219  11.441   6.974
 3521POPC   C4A47178  18.025  11.459   7.402
 3521POPC   C1B47179  18.559  11.185   6.336
 3521POPC   C2B47180  18.828  11.455   6.601
 3521POPC   C3B47181  18.794  11.640   7.028
 3521POPC   C4B47182  18.534  11.543   7.402
 3522POPC   NC347183  39.837  33.655   5.193
 3522POPC   PO447184  40.254  34.084   5.587
 3522POPC   GL147185  40.133  33.742   5.833
 3522POPC   GL247186  39.834  33.682   5.724
 3522POPC   C1A47187  40.190  33.572   6.231
 3522POPC   D2A47188  40.179  33.741   6.657
 3522POPC   C3A47189  40.252  33.576   7.055
 3522POPC   C4A47190  39.949  33.536   7.392
 3522POPC   C1B47191  39.725  33.787   6.155
 3522POPC   C2B47192  39.696  33.908   6.584
 3522POPC   C3B47193  39.771  33.895   7.036
 3522POPC   C4B47194  39.725  34.291   7.236
 3523POPC   NC347195   2.776   0.080   5.091
 3523POPC   PO447196   2.440   0.490   5.532
 3523POPC   GL147197   2.596   0.431   5.925
 3523POPC   GL247198   2.523   0.068   5.924
 3523POPC   C1A47199   2.761   0.534   6.297
 3523POPC   D2A47200   2.623   0.544   6.695
 3523POPC   C3A47201   2.882   0.634   6.995
 3523POPC   C4A47202   2.743   0.438   7.297
 3523POPC   C1B47203   2.699   0.011   6.324
 3523POPC   C2B47204   2.890   0.106   6.714
 3523POPC   C3B47205   3.135   0.162   7.083
 3523POPC   C4B47206   3.162   0.230   7.529
 3524POPC   NC347207   2.998  34.378   5.458
 3524POPC   PO447208   2.330  34.309   5.414
 3524POPC   GL147209   2.532  34.567   5.747
 3524POPC   GL247210   2.808  34.814   5.695
 3524POPC   C1A47211   2.777  34.446   6.126
 3524POPC   D2A47212   2.748  34.204   6.497
 3524POPC   C3A47213   2.699  34.386   6.908
 3524POPC   C4A47214   2.982  34.545   7.211
 3524POPC   C1B47215   2.661  34.926   6.103
 3524POPC   C2B47216   2.770  34.995   6.522
 3524POPC   C3B47217   2.767  34.909   6.923
 3524POPC   C4B47218   2.799  35.029   7.325
 3525POPC   NC347219   2.142  17.907   5.566
 3525POPC   PO447220   1.750  17.340   5.540
 3525POPC   GL147221   1.985  17.499   5.873
 3525POPC   GL247222   1.760  17.775   5.882
 3525POPC   C1A47223   2.184  17.386   6.268
 3525POPC   D2A47224   2.261  17.141   6.659
 3525POPC   C3A47225   2.326  17.367   7.060
 3525POPC   C4A47226   2.208  17.744   7.312
 3525POPC   C1B47227   1.916  17.826   6.286
 3525POPC   C2B47228   2.006  17.624   6.693
 3525POPC   C3B47229   1.823  17.483   7.083
 3525POPC   C4B47230   1.805  17.510   7.551
 3526POPC   NC347231  17.558  21.906   5.573
 3526POPC   PO447232  17.335  21.229   5.483
 3526POPC   GL147233  17.536  21.460   5.826
 3526POPC   GL247234  17.859  21.319   5.797
 3526POPC   C1A47235  17.376  21.443   6.238
 3526POPC   D2A47236  17.282  21.117   6.506
 3526POPC   C3A47237  17.239  21.295   6.912
 3526POPC   C4A47238  17.348  21.296   7.310
 3526POPC   C1B47239  17.860  21.235   6.249
 3526POPC   C2B47240  17.700  21.396   6.659
 3526POPC   C3B47241  17.825  21.265   7.073
 3526POPC   C4B47242  17.838  21.305   7.533
 3527POPC   NC347243   8.225  37.520   5.405
 3527POPC   PO447244   7.972  38.099   5.410
 3527POPC   GL147245   8.242  37.897   5.744
 3527POPC   GL247246   7.987  37.629   5.846
 3527POPC   C1A47247   8.327  37.750   6.202
 3527POPC   D2A47248   8.463  37.708   6.639
 3527POPC   C3A47249   8.301  37.724   7.042
 3527POPC   C4A47250   8.451  37.857   7.494
 3527POPC   C1B47251   7.894  38.005   6.083
 3527POPC   C2B47252   7.963  38.162   6.497
 3527POPC   C3B47253   7.854  38.005   6.908
 3527POPC   C4B47254   7.866  37.709   7.264
 3528POPC   NC347255  28.141  19.916   5.398
 3528POPC   PO447256  28.797  19.836   5.587
 3528POPC   GL147257  28.426  19.763   5.797
 3528POPC   GL247258  28.387  20.102   5.817
 3528POPC   C1A47259  28.291  19.783   6.212
 3528POPC   D2A47260  28.440  20.004   6.546
 3528POPC   C3A47261  28.242  19.869   6.886
 3528POPC   C4A47262  28.057  19.793   7.249
 3528POPC   C1B47263  28.604  20.296   6.146
 3528POPC   C2B47264  28.525  20.510   6.563
 3528POPC   C3B47265  28.528  20.366   7.006
 3528POPC   C4B47266  28.491  20.047   7.309
 3529POPC   NC347267  35.139  11.134   5.484
 3529POPC   PO447268  35.537  11.593   5.327
 3529POPC   GL147269  35.366  11.579   5.751
 3529POPC   GL247270  35.621  11.358   5.861
 3529POPC   C1A47271  35.259  11.455   6.241
 3529POPC   D2A47272  35.458  11.336   6.670
 3529POPC   C3A47273  35.171  11.249   7.078
 3529POPC   C4A47274  35.141  11.001   7.491
 3529POPC   C1B47275  35.658  11.749   6.139
 3529POPC   C2B47276  35.527  11.849   6.559
 3529POPC   C3B47277  35.401  11.700   7.015
 3529POPC   C4B47278  35.690  11.660   7.344
 3530POPC   NC347279  35.702  43.228   5.323
 3530POPC   PO447280  35.075  43.385   5.474
 3530POPC   GL147281  35.306  43.161   5.801
 3530POPC   GL247282  35.644  43.093   5.817
 3530POPC   C1A47283  35.318  43.069   6.239
 3530POPC   D2A47284  35.237  43.348   6.578
 3530POPC   C3A47285  35.368  43.146   6.982
 3530POPC   C4A47286  35.277  42.936   7.392
 3530POPC   C1B47287  35.839  42.982   6.207
 3530POPC   C2B47288  35.742  42.904   6.656
 3530POPC   C3B47289  35.622  42.697   7.054
 3530POPC   C4B47290  35.747  42.709   7.488
 3531POPC   NC347291  42.277  38.036   5.272
 3531POPC   PO447292  42.409  38.706   5.343
 3531POPC   GL147293  42.462  38.421   5.659
 3531POPC   GL247294  42.124  38.382   5.672
 3531POPC   C1A47295  42.540  38.398   6.120
 3531POPC   D2A47296  42.336  38.439   6.530
 3531POPC   C3A47297  42.569  38.464   6.916
 3531POPC   C4A47298  42.406  38.525   7.335
 3531POPC   C1B47299  42.030  38.256   6.119
 3531POPC   C2B47300  41.827  38.454   6.502
 3531POPC   C3B47301  41.928  38.318   6.899
 3531POPC   C4B47302  41.893  38.487   7.295
 3532POPC   NC347303  15.448  44.354   5.419
 3532POPC   PO447304  14.962  43.769   5.317
 3532POPC   GL147305  15.248  43.777   5.647
 3532POPC   GL247306  15.248  44.107   5.821
 3532POPC   C1A47307  15.367  43.642   6.044
 3532POPC   D2A47308  15.369  43.628   6.498
 3532POPC   C3A47309  15.391  43.901   6.846
 3532POPC   C4A47310  15.198  43.784   7.232
 3532POPC   C1B47311  15.085  44.011   6.238
 3532POPC   C2B47312  15.072  44.239   6.609
 3532POPC   C3B47313  14.849  44.207   6.953
 3532POPC   C4B47314  14.967  44.207   7.361
 3533POPC   NC347315   1.834  13.027   5.380
 3533POPC   PO447316   2.431  12.686   5.225
 3533POPC   GL147317   2.223  12.798   5.633
 3533POPC   GL247318   1.981  12.567   5.630
 3533POPC   C1A47319   1.991  12.930   6.054
 3533POPC   D2A47320   1.808  12.834   6.490
 3533POPC   C3A47321   1.968  12.948   6.914
 3533POPC   C4A47322   2.290  12.697   7.179
 3533POPC   C1B47323   1.781  12.456   6.031
 3533POPC   C2B47324   1.949  12.335   6.414
 3533POPC   C3B47325   2.034  12.457   6.807
 3533POPC   C4B47326   1.862  12.439   7.225
 3534POPC   NC347327  37.966   1.585   5.142
 3534POPC   PO447328  38.486   2.054   5.417
 3534POPC   GL147329  38.482   2.033   5.852
 3534POPC   GL247330  38.144   2.225   5.837
 3534POPC   C1A47331  38.512   1.909   6.315
 3534POPC   D2A47332  38.552   1.734   6.761
 3534POPC   C3A47333  38.239   1.840   7.101
 3534POPC   C4A47334  38.018   1.804   7.498
 3534POPC   C1B47335  38.426   2.408   6.170
 3534POPC   C2B47336  38.707   2.333   6.535
 3534POPC   C3B47337  38.490   2.252   6.904
 3534POPC   C4B47338  38.592   2.192   7.331
 3535POPC   NC347339   7.159  28.819   5.275
 3535POPC   PO447340   7.602  28.223   5.382
 3535POPC   GL147341   7.341  28.412   5.763
 3535POPC   GL247342   6.957  28.494   5.704
 3535POPC   C1A47343   7.520  28.575   6.201
 3535POPC   D2A47344   7.836  28.494   6.554
 3535POPC   C3A47345   7.782  28.215   6.914
 3535POPC   C4A47346   7.585  28.411   7.244
 3535POPC   C1B47347   7.002  28.561   6.162
 3535POPC   C2B47348   7.139  28.575   6.614
 3535POPC   C3B47349   7.115  28.311   7.003
 3535POPC   C4B47350   7.148  28.257   7.458
 3536POPC   NC347351  17.497  39.760   5.334
 3536POPC   PO447352  17.879  39.241   5.428
 3536POPC   GL147353  17.717  39.270   5.799
 3536POPC   GL247354  17.767  39.657   5.798
 3536POPC   C1A47355  17.734  39.040   6.219
 3536POPC   D2A47356  17.950  39.054   6.651
 3536POPC   C3A47357  17.671  39.043   7.023
 3536POPC   C4A47358  17.749  39.125   7.477
 3536POPC   C1B47359  17.494  39.525   6.149
 3536POPC   C2B47360  17.616  39.432   6.563
 3536POPC   C3B47361  17.441  39.539   6.958
 3536POPC   C4B47362  17.312  39.420   7.392
 3537POPC   NC347363  35.631  33.954   5.150
 3537POPC   PO447364  35.001  33.805   5.241
 3537POPC   GL147365  35.205  33.709   5.685
 3537POPC   GL247366  35.542  33.541   5.688
 3537POPC   C1A47367  35.227  33.884   6.120
 3537POPC   D2A47368  35.224  33.720   6.542
 3537POPC   C3A47369  35.463  33.879   6.870
 3537POPC   C4A47370  35.373  34.078   7.243
 3537POPC   C1B47371  35.515  33.462   6.166
 3537POPC   C2B47372  35.648  33.435   6.604
 3537POPC   C3B47373  35.495  33.348   7.019
 3537POPC   C4B47374  35.190  33.608   7.227
 3538POPC   NC347375  42.847  29.592   5.470
 3538POPC   PO447376  43.257  30.141   5.357
 3538POPC   GL147377  42.976  30.039   5.698
 3538POPC   GL247378  43.262  29.813   5.780
 3538POPC   C1A47379  42.933  29.884   6.138
 3538POPC   D2A47380  43.217  29.929   6.512
 3538POPC   C3A47381  42.952  29.952   6.879
 3538POPC   C4A47382  43.047  30.217   7.214
 3538POPC   C1B47383  43.345  29.572   6.173
 3538POPC   C2B47384  43.457  29.455   6.619
 3538POPC   C3B47385  43.429  29.717   6.967
 3538POPC   C4B47386  43.241  29.732   7.350
 3539POPC   NC347387   0.544  33.399   5.375
 3539POPC   PO447388   0.429  32.775   5.520
 3539POPC   GL147389   0.578  33.038   5.797
 3539POPC   GL247390   0.306  33.226   5.883
 3539POPC   C1A47391   0.781  33.024   6.194
 3539POPC   D2A47392   0.607  33.177   6.586
 3539POPC   C3A47393   0.526  32.968   6.986
 3539POPC   C4A47394   0.413  32.575   7.237
 3539POPC   C1B47395   0.268  32.919   6.230
 3539POPC   C2B47396   0.016  32.862   6.594
 3539POPC   C3B47397   0.040  33.100   6.964
 3539POPC   C4B47398   0.189  33.047   7.389
 3540POPC   NC347399  26.887  13.806   5.380
 3540POPC   PO447400  26.169  13.650   5.314
 3540POPC   GL147401  26.434  13.754   5.721
 3540POPC   GL247402  26.781  13.609   5.815
 3540POPC   C1A47403  26.543  13.773   6.201
 3540POPC   D2A47404  26.835  13.730   6.533
 3540POPC   C3A47405  26.807  13.424   6.870
 3540POPC   C4A47406  26.599  13.421   7.268
 3540POPC   C1B47407  27.006  13.960   6.078
 3540POPC   C2B47408  27.250  14.020   6.496
 3540POPC   C3B47409  27.161  13.858   6.921
 3540POPC   C4B47410  27.074  13.614   7.295
 3541POPC   NC347411  28.326  24.776   5.615
 3541POPC   PO447412  28.292  24.171   5.601
 3541POPC   GL147413  28.538  24.380   5.920
 3541POPC   GL247414  28.271  24.535   6.084
 3541POPC   C1A47415  28.718  24.554   6.303
 3541POPC   D2A47416  28.715  24.407   6.732
 3541POPC   C3A47417  28.396  24.460   7.066
 3541POPC   C4A47418  28.316  24.131   7.345
 3541POPC   C1B47419  28.389  24.159   6.366
 3541POPC   C2B47420  28.221  24.093   6.783
 3541POPC   C3B47421  27.869  24.126   7.098
 3541POPC   C4B47422  27.913  24.453   7.422
 3542POPC   NC347423  20.329  24.401   5.412
 3542POPC   PO447424  21.038  24.560   5.429
 3542POPC   GL147425  20.676  24.542   5.759
 3542POPC   GL247426  20.362  24.768   5.782
 3542POPC   C1A47427  20.486  24.303   6.114
 3542POPC   D2A47428  20.241  24.271   6.499
 3542POPC   C3A47429  20.454  24.219   6.890
 3542POPC   C4A47430  20.479  24.493   7.238
 3542POPC   C1B47431  20.435  24.799   6.230
 3542POPC   C2B47432  20.653  24.615   6.594
 3542POPC   C3B47433  20.914  24.503   6.979
 3542POPC   C4B47434  20.960  24.505   7.438
 3543POPC   NC347435  31.439  39.544   5.370
 3543POPC   PO447436  31.637  40.283   5.320
 3543POPC   GL147437  31.716  40.060   5.731
 3543POPC   GL247438  31.445  39.846   5.777
 3543POPC   C1A47439  31.785  39.852   6.148
 3543POPC   D2A47440  31.645  39.677   6.540
 3543POPC   C3A47441  31.782  39.853   6.938
 3543POPC   C4A47442  31.594  40.148   7.276
 3543POPC   C1B47443  31.221  39.718   6.180
 3543POPC   C2B47444  31.143  39.595   6.630
 3543POPC   C3B47445  31.115  39.755   7.084
 3543POPC   C4B47446  31.160  40.002   7.484
 3544POPC   NC347447  10.699  43.711   5.336
 3544POPC   PO447448  10.551  44.303   5.508
 3544POPC   GL147449  10.612  43.923   5.799
 3544POPC   GL247450  10.826  43.578   5.807
 3544POPC   C1A47451  10.537  43.842   6.225
 3544POPC   D2A47452  10.398  44.015   6.626
 3544POPC   C3A47453  10.157  43.777   6.933
 3544POPC   C4A47454  10.252  43.702   7.359
 3544POPC   C1B47455  10.935  43.466   6.239
 3544POPC   C2B47456  10.825  43.700   6.626
 3544POPC   C3B47457  10.679  43.828   7.050
 3544POPC   C4B47458  10.745  43.782   7.525
 3545POPC   NC347459  31.241  32.007   5.372
 3545POPC   PO447460  31.595  32.513   5.135
 3545POPC   GL147461  31.435  32.459   5.610
 3545POPC   GL247462  31.112  32.339   5.753
 3545POPC   C1A47463  31.485  32.479   6.076
 3545POPC   D2A47464  31.585  32.616   6.508
 3545POPC   C3A47465  31.642  32.342   6.849
 3545POPC   C4A47466  31.482  32.256   7.257
 3545POPC   C1B47467  31.192  32.022   6.065
 3545POPC   C2B47468  31.301  32.141   6.484
 3545POPC   C3B47469  31.120  32.116   6.891
 3545POPC   C4B47470  31.131  31.896   7.292
 3546POPC   NC347471   5.533   8.454   5.480
 3546POPC   PO447472   4.963   7.989   5.478
 3546POPC   GL147473   4.873   8.107   5.878
 3546POPC   GL247474   5.206   8.259   5.924
 3546POPC   C1A47475   4.991   7.966   6.296
 3546POPC   D2A47476   5.345   8.229   6.457
 3546POPC   C3A47477   5.298   8.231   6.880
 3546POPC   C4A47478   5.041   8.002   7.190
 3546POPC   C1B47479   4.911   8.467   6.244
 3546POPC   C2B47480   4.831   8.360   6.671
 3546POPC   C3B47481   4.702   8.379   7.099
 3546POPC   C4B47482   4.716   8.641   7.429
 3547POPC   NC347483  29.693  31.604   5.387
 3547POPC   PO447484  30.333  31.345   5.401
 3547POPC   GL147485  30.032  31.405   5.725
 3547POPC   GL247486  30.003  31.755   5.755
 3547POPC   C1A47487  29.859  31.293   6.130
 3547POPC   D2A47488  29.696  31.140   6.547
 3547POPC   C3A47489  29.762  31.478   6.815
 3547POPC   C4A47490  29.920  31.484   7.207
 3547POPC   C1B47491  29.720  31.793   6.138
 3547POPC   C2B47492  29.587  32.025   6.523
 3547POPC   C3B47493  29.692  31.975   6.971
 3547POPC   C4B47494  29.457  31.693   7.209
 3548POPC   NC347495  11.323  22.549   5.642
 3548POPC   PO447496  11.350  23.172   5.380
 3548POPC   GL147497  11.159  23.026   5.791
 3548POPC   GL247498  10.870  22.790   5.734
 3548POPC   C1A47499  11.314  22.937   6.226
 3548POPC   D2A47500  11.663  22.835   6.529
 3548POPC   C3A47501  11.625  23.102   6.872
 3548POPC   C4A47502  11.342  23.167   7.224
 3548POPC   C1B47503  10.899  22.582   6.130
 3548POPC   C2B47504  11.087  22.582   6.525
 3548POPC   C3B47505  11.192  22.806   6.874
 3548POPC   C4B47506  11.083  22.731   7.298
 3549POPC   NC347507  17.327  11.566   5.591
 3549POPC   PO447508  17.641  10.980   5.377
 3549POPC   GL147509  17.600  11.134   5.801
 3549POPC   GL247510  17.797  11.414   5.750
 3549POPC   C1A47511  17.673  11.013   6.248
 3549POPC   D2A47512  17.584  10.964   6.694
 3549POPC   C3A47513  17.236  11.245   6.799
 3549POPC   C4A47514  17.208  11.635   7.022
 3549POPC   C1B47515  17.603  11.511   6.179
 3549POPC   C2B47516  17.736  11.437   6.595
 3549POPC   C3B47517  17.676  11.432   7.031
 3549POPC   C4B47518  17.663  11.836   7.264
 3550POPC   NC347519  14.673  44.993   5.559
 3550POPC   PO447520  14.984  44.434   5.442
 3550POPC   GL147521  15.165  44.637   5.782
 3550POPC   GL247522  15.168   0.004   5.724
 3550POPC   C1A47523  15.282  44.479   6.192
 3550POPC   D2A47524  15.306  44.707   6.597
 3550POPC   C3A47525  15.210  44.575   7.045
 3550POPC   C4A47526  15.447  44.250   7.232
 3550POPC   C1B47527  15.204  44.999   6.169
 3550POPC   C2B47528  15.327   0.239   6.541
 3550POPC   C3B47529  15.443   0.046   6.939
 3550POPC   C4B47530  15.286   0.048   7.310
 3551POPC   NC347531   4.942  41.919   5.576
 3551POPC   PO447532   5.309  41.399   5.339
 3551POPC   GL147533   5.305  41.622   5.761
 3551POPC   GL247534   5.001  41.460   5.867
 3551POPC   C1A47535   5.295  41.755   6.220
 3551POPC   D2A47536   5.147  41.812   6.685
 3551POPC   C3A47537   5.417  41.711   7.046
 3551POPC   C4A47538   5.372  41.638   7.490
 3551POPC   C1B47539   5.133  41.256   6.263
 3551POPC   C2B47540   5.104  41.234   6.742
 3551POPC   C3B47541   4.951  41.482   7.079
 3551POPC   C4B47542   4.550  41.680   7.175
 3552POPC   NC347543  29.575  12.024   5.371
 3552POPC   PO447544  30.196  12.280   5.167
 3552POPC   GL147545  29.977  12.077   5.658
 3552POPC   GL247546  29.663  12.231   5.811
 3552POPC   C1A47547  29.966  11.991   6.151
 3552POPC   D2A47548  30.145  12.150   6.580
 3552POPC   C3A47549  30.174  11.955   7.017
 3552POPC   C4A47550  30.282  11.885   7.511
 3552POPC   C1B47551  29.594  12.352   6.194
 3552POPC   C2B47552  29.634  12.210   6.581
 3552POPC   C3B47553  29.797  12.335   6.971
 3552POPC   C4B47554  29.460  12.334   7.251
 3553POPC   NC347555  36.257  10.547   5.147
 3553POPC   PO447556  36.379  10.193   5.686
 3553POPC   GL147557  36.027  10.095   5.957
 3553POPC   GL247558  35.693   9.958   5.917
 3553POPC   C1A47559  35.961  10.042   6.393
 3553POPC   D2A47560  36.232   9.982   6.749
 3553POPC   C3A47561  36.281   9.970   7.204
 3553POPC   C4A47562  36.396  10.027   7.687
 3553POPC   C1B47563  35.695   9.631   6.270
 3553POPC   C2B47564  35.954   9.547   6.647
 3553POPC   C3B47565  35.945   9.580   7.115
 3553POPC   C4B47566  36.213   9.561   7.494
 3554POPC   NC347567  37.661  17.767   5.467
 3554POPC   PO447568  38.112  17.333   5.279
 3554POPC   GL147569  37.996  17.355   5.738
 3554POPC   GL247570  37.671  17.415   5.850
 3554POPC   C1A47571  37.988  17.141   6.179
 3554POPC   D2A47572  37.732  17.283   6.535
 3554POPC   C3A47573  37.852  17.135   6.941
 3554POPC   C4A47574  37.756  17.323   7.340
 3554POPC   C1B47575  37.442  17.597   6.182
 3554POPC   C2B47576  37.298  17.552   6.587
 3554POPC   C3B47577  37.541  17.558   6.940
 3554POPC   C4B47578  37.659  17.822   7.288
 3555POPC   NC347579  33.350  17.374   5.069
 3555POPC   PO447580  32.829  17.213   5.336
 3555POPC   GL147581  32.848  17.263   5.800
 3555POPC   GL247582  33.209  17.292   5.870
 3555POPC   C1A47583  32.840  17.407   6.253
 3555POPC   D2A47584  32.771  17.258   6.690
 3555POPC   C3A47585  32.902  17.558   7.046
 3555POPC   C4A47586  33.115  17.901   7.306
 3555POPC   C1B47587  33.142  16.993   6.206
 3555POPC   C2B47588  33.181  16.920   6.658
 3555POPC   C3B47589  33.236  17.171   7.057
 3555POPC   C4B47590  33.225  17.411   7.471
 3556POPC   NC347591  34.423  24.141   5.523
 3556POPC   PO447592  34.822  23.644   5.417
 3556POPC   GL147593  34.639  23.743   5.795
 3556POPC   GL247594  34.298  23.808   5.911
 3556POPC   C1A47595  34.741  23.976   6.151
 3556POPC   D2A47596  34.836  23.870   6.556
 3556POPC   C3A47597  34.842  24.114   6.935
 3556POPC   C4A47598  34.590  23.966   7.316
 3556POPC   C1B47599  34.316  23.844   6.403
 3556POPC   C2B47600  34.418  23.834   6.862
 3556POPC   C3B47601  34.130  23.734   7.226
 3556POPC   C4B47602  33.983  23.462   7.610
 3557POPC   NC347603   6.092  18.480   5.461
 3557POPC   PO447604   5.646  17.988   5.259
 3557POPC   GL147605   5.823  18.085   5.697
 3557POPC   GL247606   5.725  18.429   5.825
 3557POPC   C1A47607   6.048  18.178   6.117
 3557POPC   D2A47608   5.894  18.110   6.540
 3557POPC   C3A47609   6.159  18.222   6.886
 3557POPC   C4A47610   6.049  18.305   7.311
 3557POPC   C1B47611   5.602  18.499   6.247
 3557POPC   C2B47612   5.425  18.329   6.629
 3557POPC   C3B47613   5.653  18.378   6.993
 3557POPC   C4B47614   5.628  18.563   7.411
 3558POPC   NC347615  10.606  40.196   5.335
 3558POPC   PO447616  10.392  39.610   5.349
 3558POPC   GL147617  10.547  39.741   5.775
 3558POPC   GL247618  10.550  40.103   5.835
 3558POPC   C1A47619  10.549  39.777   6.222
 3558POPC   D2A47620  10.616  40.130   6.520
 3558POPC   C3A47621  10.724  39.972   6.928
 3558POPC   C4A47622  10.487  39.675   7.194
 3558POPC   C1B47623  10.221  40.165   6.160
 3558POPC   C2B47624  10.078  40.170   6.578
 3558POPC   C3B47625  10.307  40.283   6.937
 3558POPC   C4B47626  10.520  40.247   7.320
 3559POPC   NC347627  28.151   2.446   5.362
 3559POPC   PO447628  28.162   1.805   5.441
 3559POPC   GL147629  28.412   1.958   5.739
 3559POPC   GL247630  28.707   2.172   5.662
 3559POPC   C1A47631  28.281   1.961   6.140
 3559POPC   D2A47632  28.142   1.746   6.493
 3559POPC   C3A47633  28.284   1.949   6.875
 3559POPC   C4A47634  28.108   1.778   7.240
 3559POPC   C1B47635  28.813   1.956   6.065
 3559POPC   C2B47636  28.651   1.990   6.503
 3559POPC   C3B47637  28.810   1.948   6.923
 3559POPC   C4B47638  28.585   1.967   7.332
 3560POPC   NC347639  38.606  14.496   5.093
 3560POPC   PO447640  38.224  14.703   5.549
 3560POPC   GL147641  38.253  14.437   5.843
 3560POPC   GL247642  38.579  14.386   5.842
 3560POPC   C1A47643  38.227  14.465   6.271
 3560POPC   D2A47644  38.131  14.167   6.525
 3560POPC   C3A47645  38.111  14.184   6.989
 3560POPC   C4A47646  38.336  14.497   7.232
 3560POPC   C1B47647  38.711  14.562   6.204
 3560POPC   C2B47648  38.644  14.449   6.637
 3560POPC   C3B47649  38.808  14.573   7.032
 3560POPC   C4B47650  38.801  14.383   7.430
 3561POPC   NC347651   3.830   2.659   5.133
 3561POPC   PO447652   3.318   3.126   5.320
 3561POPC   GL147653   3.567   2.814   5.575
 3561POPC   GL247654   3.326   2.654   5.757
 3561POPC   C1A47655   3.823   2.670   5.967
 3561POPC   D2A47656   3.942   2.578   6.423
 3561POPC   C3A47657   3.790   2.817   6.782
 3561POPC   C4A47658   3.688   2.806   7.217
 3561POPC   C1B47659   3.335   2.572   6.174
 3561POPC   C2B47660   3.316   2.799   6.532
 3561POPC   C3B47661   3.311   2.677   6.925
 3561POPC   C4B47662   3.195   2.798   7.329
 3562POPC   NC347663  39.554  24.178   5.364
 3562POPC   PO447664  39.219  24.691   5.524
 3562POPC   GL147665  39.396  24.426   5.823
 3562POPC   GL247666  39.208  24.110   5.733
 3562POPC   C1A47667  39.340  24.623   6.240
 3562POPC   D2A47668  39.091  24.777   6.598
 3562POPC   C3A47669  39.291  24.690   6.991
 3562POPC   C4A47670  39.495  24.468   7.317
 3562POPC   C1B47671  39.190  24.123   6.198
 3562POPC   C2B47672  39.231  24.280   6.626
 3562POPC   C3B47673  39.209  24.156   7.046
 3562POPC   C4B47674  39.006  24.240   7.458
 3563POPC   NC347675  36.562  27.652   5.393
 3563POPC   PO447676  36.123  27.175   5.456
 3563POPC   GL147677  36.230  27.375   5.845
 3563POPC   GL247678  36.186  27.726   5.753
 3563POPC   C1A47679  35.945  27.382   6.219
 3563POPC   D2A47680  35.717  27.199   6.585
 3563POPC   C3A47681  35.938  27.371   6.943
 3563POPC   C4A47682  36.085  27.339   7.360
 3563POPC   C1B47683  36.193  27.879   6.157
 3563POPC   C2B47684  36.170  27.699   6.570
 3563POPC   C3B47685  36.308  27.737   6.993
 3563POPC   C4B47686  36.032  27.876   7.311
 3564POPC   NC347687  10.510  17.555   5.244
 3564POPC   PO447688  11.012  17.423   5.665
 3564POPC   GL147689  10.692  17.635   5.842
 3564POPC   GL247690  10.628  17.357   6.036
 3564POPC   C1A47691  10.502  17.779   6.248
 3564POPC   D2A47692  10.318  17.782   6.658
 3564POPC   C3A47693  10.532  17.531   6.989
 3564POPC   C4A47694  10.465  17.738   7.389
 3564POPC   C1B47695  10.221  17.331   6.304
 3564POPC   C2B47696  10.008  17.366   6.686
 3564POPC   C3B47697  10.072  17.331   7.091
 3564POPC   C4B47698  10.248  17.010   7.289
 3565POPC   NC347699  36.854  19.263   5.256
 3565POPC   PO447700  37.275  18.754   5.364
 3565POPC   GL147701  37.040  18.851   5.764
 3565POPC   GL247702  36.843  19.161   5.803
 3565POPC   C1A47703  37.097  18.935   6.234
 3565POPC   D2A47704  36.846  19.055   6.615
 3565POPC   C3A47705  36.944  18.967   7.039
 3565POPC   C4A47706  37.043  19.077   7.455
 3565POPC   C1B47707  36.770  19.410   6.213
 3565POPC   C2B47708  36.814  19.595   6.657
 3565POPC   C3B47709  36.782  19.464   7.101
 3565POPC   C4B47710  36.615  19.367   7.539
 3566POPC   NC347711  16.493  33.490   5.051
 3566POPC   PO447712  16.020  33.033   5.309
 3566POPC   GL147713  16.123  32.817   5.756
 3566POPC   GL247714  16.089  33.107   5.959
 3566POPC   C1A47715  16.288  32.690   6.212
 3566POPC   D2A47716  16.308  32.792   6.688
 3566POPC   C3A47717  15.940  32.927   6.908
 3566POPC   C4A47718  16.090  32.895   7.283
 3566POPC   C1B47719  16.003  33.068   6.400
 3566POPC   C2B47720  16.250  33.302   6.717
 3566POPC   C3B47721  16.109  33.427   7.105
 3566POPC   C4B47722  15.715  33.282   7.251
 3567POPC   NC347723  35.012  29.117   5.337
 3567POPC   PO447724  35.575  29.323   5.373
 3567POPC   GL147725  35.435  29.161   5.733
 3567POPC   GL247726  35.167  29.361   5.791
 3567POPC   C1A47727  35.579  29.166   6.171
 3567POPC   D2A47728  35.361  29.185   6.556
 3567POPC   C3A47729  35.471  29.259   6.988
 3567POPC   C4A47730  35.652  29.156   7.397
 3567POPC   C1B47731  35.093  29.008   6.090
 3567POPC   C2B47732  34.883  28.992   6.481
 3567POPC   C3B47733  35.053  28.977   6.897
 3567POPC   C4B47734  35.170  28.997   7.321
 3568POPC   NC347735  32.634  16.033   5.464
 3568POPC   PO447736  33.140  15.660   5.366
 3568POPC   GL147737  32.962  15.823   5.799
 3568POPC   GL247738  32.746  16.152   5.955
 3568POPC   C1A47739  32.790  15.734   6.218
 3568POPC   D2A47740  32.745  16.052   6.536
 3568POPC   C3A47741  32.917  15.870   6.910
 3568POPC   C4A47742  32.750  15.616   7.255
 3568POPC   C1B47743  33.160  16.116   6.187
 3568POPC   C2B47744  33.328  16.059   6.598
 3568POPC   C3B47745  33.326  16.161   7.039
 3568POPC   C4B47746  33.325  15.866   7.336
 3569POPC   NC347747  29.135   2.363   5.418
 3569POPC   PO447748  29.067   1.771   5.044
 3569POPC   GL147749  29.202   1.849   5.568
 3569POPC   GL247750  29.251   2.118   5.825
 3569POPC   C1A47751  29.228   1.673   6.052
 3569POPC   D2A47752  29.159   1.923   6.466
 3569POPC   C3A47753  29.324   1.754   6.869
 3569POPC   C4A47754  29.096   1.672   7.260
 3569POPC   C1B47755  29.405   2.329   6.169
 3569POPC   C2B47756  29.374   2.385   6.606
 3569POPC   C3B47757  29.282   2.238   7.002
 3569POPC   C4B47758  29.006   2.238   7.324
 3570POPC   NC347759  41.959  23.852   5.614
 3570POPC   PO447760  42.419  24.242   5.336
 3570POPC   GL147761  42.494  23.959   5.702
 3570POPC   GL247762  42.375  23.604   5.797
 3570POPC   C1A47763  42.584  23.940   6.144
 3570POPC   D2A47764  42.651  23.655   6.445
 3570POPC   C3A47765  42.748  23.703   6.871
 3570POPC   C4A47766  42.604  24.033   7.144
 3570POPC   C1B47767  42.142  23.630   6.231
 3570POPC   C2B47768  42.057  23.700   6.681
 3570POPC   C3B47769  42.258  23.667   7.086
 3570POPC   C4B47770  42.061  23.494   7.459
 3571POPC   NC347771  18.958  21.216   5.504
 3571POPC   PO447772  18.505  21.794   5.636
 3571POPC   GL147773  18.807  21.658   5.926
 3571POPC   GL247774  19.105  21.682   5.735
 3571POPC   C1A47775  18.845  21.264   6.195
 3571POPC   D2A47776  18.975  21.073   6.618
 3571POPC   C3A47777  18.756  21.266   6.999
 3571POPC   C4A47778  18.749  21.409   7.454
 3571POPC   C1B47779  19.299  21.569   6.165
 3571POPC   C2B47780  19.280  21.546   6.633
 3571POPC   C3B47781  19.231  21.483   7.076
 3571POPC   C4B47782  19.175  21.714   7.488
 3572POPC   NC347783  27.365   4.602   5.365
 3572POPC   PO447784  27.911   4.123   5.368
 3572POPC   GL147785  27.604   4.287   5.709
 3572POPC   GL247786  27.270   4.117   5.790
 3572POPC   C1A47787  27.470   4.536   6.093
 3572POPC   D2A47788  27.595   4.461   6.543
 3572POPC   C3A47789  27.453   4.600   6.969
 3572POPC   C4A47790  27.504   4.704   7.437
 3572POPC   C1B47791  27.240   4.115   6.265
 3572POPC   C2B47792  27.171   4.232   6.705
 3572POPC   C3B47793  27.235   4.152   7.165
 3572POPC   C4B47794  27.349   4.237   7.617
 3573POPC   NC347795  37.079  42.008   5.328
 3573POPC   PO447796  36.653  41.430   5.377
 3573POPC   GL147797  36.783  41.750   5.681
 3573POPC   GL247798  37.148  41.786   5.779
 3573POPC   C1A47799  36.745  41.713   6.132
 3573POPC   D2A47800  36.767  41.412   6.489
 3573POPC   C3A47801  36.772  41.621   6.877
 3573POPC   C4A47802  36.877  41.492   7.280
 3573POPC   C1B47803  37.176  41.422   6.052
 3573POPC   C2B47804  37.294  41.371   6.493
 3573POPC   C3B47805  37.142  41.230   6.887
 3573POPC   C4B47806  37.322  41.212   7.314
 3574POPC   NC347807  38.525   0.835   5.476
 3574POPC   PO447808  38.428   1.504   5.287
 3574POPC   GL147809  38.414   1.296   5.723
 3574POPC   GL247810  38.183   0.988   5.829
 3574POPC   C1A47811  38.447   1.413   6.170
 3574POPC   D2A47812  38.560   1.238   6.585
 3574POPC   C3A47813  38.306   1.295   6.954
 3574POPC   C4A47814  38.264   1.392   7.387
 3574POPC   C1B47815  38.530   0.912   6.137
 3574POPC   C2B47816  38.608   0.727   6.525
 3574POPC   C3B47817  38.709   0.861   6.952
 3574POPC   C4B47818  38.688   1.142   7.281
 3575POPC   NC347819  39.823  12.851   5.345
 3575POPC   PO447820  40.433  13.047   5.580
 3575POPC   GL147821  40.040  13.037   5.851
 3575POPC   GL247822  40.010  12.694   5.783
 3575POPC   C1A47823  39.818  13.273   6.241
 3575POPC   D2A47824  39.909  13.252   6.727
 3575POPC   C3A47825  40.080  12.841   6.857
 3575POPC   C4A47826  40.267  12.655   7.222
 3575POPC   C1B47827  40.066  12.477   6.145
 3575POPC   C2B47828  39.833  12.492   6.578
 3575POPC   C3B47829  39.963  12.327   6.981
 3575POPC   C4B47830  40.179  12.172   7.356
 3576POPC   NC347831   7.478  35.912   5.276
 3576POPC   PO447832   6.904  35.963   5.167
 3576POPC   GL147833   7.102  35.948   5.634
 3576POPC   GL247834   7.433  35.837   5.780
 3576POPC   C1A47835   7.041  35.946   6.108
 3576POPC   D2A47836   7.150  36.192   6.473
 3576POPC   C3A47837   7.175  35.980   6.874
 3576POPC   C4A47838   7.201  36.218   7.249
 3576POPC   C1B47839   7.568  36.141   6.111
 3576POPC   C2B47840   7.702  36.234   6.540
 3576POPC   C3B47841   7.651  36.248   6.983
 3576POPC   C4B47842   7.680  36.221   7.442
 3577POPC   NC347843  27.360  42.854   5.473
 3577POPC   PO447844  27.709  43.278   5.425
 3577POPC   GL147845  27.620  43.332   5.869
 3577POPC   GL247846  27.925  43.457   5.989
 3577POPC   C1A47847  27.526  43.202   6.325
 3577POPC   D2A47848  27.693  43.145   6.770
 3577POPC   C3A47849  27.441  43.175   7.172
 3577POPC   C4A47850  27.210  42.974   7.527
 3577POPC   C1B47851  27.894  43.557   6.422
 3577POPC   C2B47852  27.922  43.591   6.864
 3577POPC   C3B47853  27.931  43.330   7.238
 3577POPC   C4B47854  28.099  43.420   7.662
 3578POPC   NC347855  11.191  29.490   5.685
 3578POPC   PO447856  11.356  29.007   5.238
 3578POPC   GL147857  11.344  28.997   5.696
 3578POPC   GL247858  10.990  28.946   5.716
 3578POPC   C1A47859  11.572  29.144   6.110
 3578POPC   D2A47860  11.455  29.002   6.528
 3578POPC   C3A47861  11.554  29.230   6.881
 3578POPC   C4A47862  11.319  29.334   7.257
 3578POPC   C1B47863  11.132  28.867   6.139
 3578POPC   C2B47864  10.938  28.894   6.522
 3578POPC   C3B47865  11.066  29.051   6.897
 3578POPC   C4B47866  10.848  29.020   7.242
 3579POPC   NC347867  16.014   7.931   5.521
 3579POPC   PO447868  15.730   8.551   5.484
 3579POPC   GL147869  16.115   8.388   5.704
 3579POPC   GL247870  15.903   8.260   5.914
 3579POPC   C1A47871  16.335   8.152   6.109
 3579POPC   D2A47872  16.009   8.166   6.432
 3579POPC   C3A47873  16.122   8.247   6.859
 3579POPC   C4A47874  15.966   8.231   7.258
 3579POPC   C1B47875  15.598   8.411   6.180
 3579POPC   C2B47876  15.468   8.544   6.565
 3579POPC   C3B47877  15.681   8.530   6.912
 3579POPC   C4B47878  15.969   8.719   7.183
 3580POPC   NC347879  42.741  24.601   5.413
 3580POPC   PO447880  43.400  24.307   5.357
 3580POPC   GL147881  43.291  24.199   5.793
 3580POPC   GL247882  43.267  24.565   5.829
 3580POPC   C1A47883  43.121  24.243   6.255
 3580POPC   D2A47884  42.837  24.157   6.623
 3580POPC   C3A47885  43.005  24.316   7.036
 3580POPC   C4A47886  43.436  24.352   7.121
 3580POPC   C1B47887  42.963  24.739   6.109
 3580POPC   C2B47888  42.887  24.693   6.552
 3580POPC   C3B47889  43.017  24.814   6.960
 3580POPC   C4B47890  42.737  24.762   7.295
 3581POPC   NC347891  17.880  34.106   5.378
 3581POPC   PO447892  18.471  34.305   5.488
 3581POPC   GL147893  18.190  34.331   5.819
 3581POPC   GL247894  18.383  34.611   5.900
 3581POPC   C1A47895  18.301  34.211   6.248
 3581POPC   D2A47896  18.475  34.503   6.568
 3581POPC   C3A47897  18.468  34.278   6.949
 3581POPC   C4A47898  18.071  34.096   7.093
 3581POPC   C1B47899  18.689  34.795   6.186
 3581POPC   C2B47900  18.728  35.061   6.565
 3581POPC   C3B47901  18.630  34.856   6.963
 3581POPC   C4B47902  18.494  34.623   7.317
 3582POPC   NC347903  11.344  34.169   5.287
 3582POPC   PO447904  11.143  33.553   5.388
 3582POPC   GL147905  11.421  33.667   5.709
 3582POPC   GL247906  11.364  34.015   5.778
 3582POPC   C1A47907  11.360  33.649   6.152
 3582POPC   D2A47908  11.151  33.784   6.527
 3582POPC   C3A47909  11.384  33.749   6.928
 3582POPC   C4A47910  11.196  33.622   7.278
 3582POPC   C1B47911  11.331  34.154   6.226
 3582POPC   C2B47912  11.496  34.148   6.637
 3582POPC   C3B47913  11.336  34.245   7.029
 3582POPC   C4B47914  11.445  34.171   7.466
 3583POPC   NC347915  25.874  12.622   5.090
 3583POPC   PO447916  26.393  12.695   5.508
 3583POPC   GL147917  25.959  12.773   5.668
 3583POPC   GL247918  26.141  12.985   5.850
 3583POPC   C1A47919  25.758  12.849   6.126
 3583POPC   D2A47920  25.883  12.785   6.586
 3583POPC   C3A47921  25.845  13.141   6.830
 3583POPC   C4A47922  25.727  13.218   7.215
 3583POPC   C1B47923  26.277  12.903   6.261
 3583POPC   C2B47924  26.417  12.667   6.604
 3583POPC   C3B47925  26.271  12.663   6.993
 3583POPC   C4B47926  25.895  12.738   7.148
 3584POPC   NC347927  26.483  16.922   5.469
 3584POPC   PO447928  27.063  16.502   5.345
 3584POPC   GL147929  26.901  16.717   5.700
 3584POPC   GL247930  26.959  17.084   5.718
 3584POPC   C1A47931  26.830  16.574   6.117
 3584POPC   D2A47932  27.171  16.384   6.360
 3584POPC   C3A47933  27.099  16.408   6.812
 3584POPC   C4A47934  26.754  16.559   7.098
 3584POPC   C1B47935  26.881  17.137   6.185
 3584POPC   C2B47936  26.675  17.125   6.652
 3584POPC   C3B47937  26.673  17.078   7.136
 3584POPC   C4B47938  26.527  17.207   7.577
 3585POPC   NC347939  37.404  26.447   5.537
 3585POPC   PO447940  36.870  26.964   5.387
 3585POPC   GL147941  37.103  26.817   5.699
 3585POPC   GL247942  36.895  26.556   5.713
 3585POPC   C1A47943  37.262  26.834   6.126
 3585POPC   D2A47944  37.150  27.025   6.546
 3585POPC   C3A47945  36.991  26.803   6.924
 3585POPC   C4A47946  36.719  26.962   7.256
 3585POPC   C1B47947  36.764  26.620   6.159
 3585POPC   C2B47948  36.705  26.434   6.590
 3585POPC   C3B47949  36.665  26.213   6.988
 3585POPC   C4B47950  36.929  26.386   7.294
 3586POPC   NC347951  30.967  28.599   5.074
 3586POPC   PO447952  31.211  28.190   5.578
 3586POPC   GL147953  30.937  28.377   5.867
 3586POPC   GL247954  30.724  28.079   5.822
 3586POPC   C1A47955  30.656  28.387   6.250
 3586POPC   D2A47956  30.358  28.426   6.610
 3586POPC   C3A47957  30.388  28.160   6.976
 3586POPC   C4A47958  30.577  28.331   7.370
 3586POPC   C1B47959  30.964  27.978   6.191
 3586POPC   C2B47960  30.756  28.006   6.592
 3586POPC   C3B47961  30.885  28.264   6.910
 3586POPC   C4B47962  31.117  28.258   7.260
 3587POPC   NC347963  14.442  11.783   5.400
 3587POPC   PO447964  14.638  12.435   5.400
 3587POPC   GL147965  14.388  12.300   5.796
 3587POPC   GL247966  14.359  11.953   5.860
 3587POPC   C1A47967  14.463  12.232   6.268
 3587POPC   D2A47968  14.324  12.046   6.675
 3587POPC   C3A47969  14.197  12.318   6.994
 3587POPC   C4A47970  14.488  12.566   7.230
 3587POPC   C1B47971  14.353  11.707   6.191
 3587POPC   C2B47972  14.328  11.565   6.550
 3587POPC   C3B47973  14.530  11.602   6.910
 3587POPC   C4B47974  14.259  11.773   7.173
 3588POPC   NC347975   1.101  44.866   5.329
 3588POPC   PO447976   1.069  44.257   5.039
 3588POPC   GL147977   1.154  44.370   5.549
 3588POPC   GL247978   1.403  44.648   5.668
 3588POPC   C1A47979   1.186  44.388   6.055
 3588POPC   D2A47980   1.012  44.262   6.500
 3588POPC   C3A47981   1.034  44.392   6.943
 3588POPC   C4A47982   1.358  44.547   7.214
 3588POPC   C1B47983   1.347  44.883   6.055
 3588POPC   C2B47984   1.381  44.770   6.510
 3588POPC   C3B47985   1.143  44.897   6.894
 3588POPC   C4B47986   1.285   0.047   7.296
 3589POPC   NC347987  13.971  42.619   5.440
 3589POPC   PO447988  13.422  42.285   5.188
 3589POPC   GL147989  13.564  42.402   5.637
 3589POPC   GL247990  13.297  42.404   5.838
 3589POPC   C1A47991  13.819  42.406   6.069
 3589POPC   D2A47992  13.839  42.486   6.540
 3589POPC   C3A47993  13.763  42.135   6.811
 3589POPC   C4A47994  13.735  42.102   7.245
 3589POPC   C1B47995  13.373  42.572   6.260
 3589POPC   C2B47996  13.470  42.841   6.619
 3589POPC   C3B47997  13.537  42.602   6.997
 3589POPC   C4B47998  13.242  42.620   7.330
 3590POPC   NC347999  26.535  34.854   5.409
 3590POPC   PO448000  26.847  35.436   5.450
 3590POPC   GL148001  26.682  35.409   5.836
 3590POPC   GL248002  26.435  35.206   5.776
 3590POPC   C1A48003  26.825  35.415   6.245
 3590POPC   D2A48004  27.038  35.442   6.601
 3590POPC   C3A48005  26.834  35.469   6.989
 3590POPC   C4A48006  26.668  35.680   7.316
 3590POPC   C1B48007  26.523  34.987   6.149
 3590POPC   C2B48008  26.489  35.048   6.572
 3590POPC   C3B48009  26.561  35.021   6.996
 3590POPC   C4B48010  26.333  35.063   7.348
 3591POPC   NC348011  11.898  30.976   5.319
 3591POPC   PO448012  11.922  31.732   5.357
 3591POPC   GL148013  11.943  31.625   5.768
 3591POPC   GL248014  11.913  31.298   5.717
 3591POPC   C1A48015  12.208  31.622   6.153
 3591POPC   D2A48016  12.226  31.395   6.541
 3591POPC   C3A48017  12.289  31.615   6.908
 3591POPC   C4A48018  12.271  31.664   7.349
 3591POPC   C1B48019  11.981  31.150   6.129
 3591POPC   C2B48020  11.778  31.155   6.545
 3591POPC   C3B48021  11.932  31.235   6.977
 3591POPC   C4B48022  12.095  31.182   7.411
 3592POPC   NC348023  25.890  21.373   5.303
 3592POPC   PO448024  26.600  21.285   5.399
 3592POPC   GL148025  26.726  21.351   5.794
 3592POPC   GL248026  26.902  21.034   5.793
 3592POPC   C1A48027  26.800  21.380   6.225
 3592POPC   D2A48028  26.909  21.558   6.596
 3592POPC   C3A48029  26.749  21.402   6.919
 3592POPC   C4A48030  26.594  21.406   7.273
 3592POPC   C1B48031  27.177  21.053   6.156
 3592POPC   C2B48032  27.065  21.090   6.608
 3592POPC   C3B48033  27.009  20.974   7.065
 3592POPC   C4B48034  26.886  21.067   7.511
 3593POPC   NC348035   6.284  29.266   5.718
 3593POPC   PO448036   6.702  28.973   5.244
 3593POPC   GL148037   6.731  28.977   5.699
 3593POPC   GL248038   6.929  29.257   5.748
 3593POPC   C1A48039   6.717  29.072   6.169
 3593POPC   D2A48040   6.811  28.964   6.582
 3593POPC   C3A48041   6.571  29.122   6.940
 3593POPC   C4A48042   6.588  28.912   7.345
 3593POPC   C1B48043   7.139  29.455   6.052
 3593POPC   C2B48044   7.213  29.430   6.520
 3593POPC   C3B48045   7.102  29.234   6.926
 3593POPC   C4B48046   6.886  29.312   7.324
 3594POPC   NC348047  29.931  39.112   5.435
 3594POPC   PO448048  29.898  39.755   5.622
 3594POPC   GL148049  29.891  39.395   5.902
 3594POPC   GL248050  29.829  39.025   5.912
 3594POPC   C1A48051  29.939  39.342   6.345
 3594POPC   D2A48052  29.827  39.122   6.712
 3594POPC   C3A48053  29.844  39.314   7.138
 3594POPC   C4A48054  29.777  39.434   7.594
 3594POPC   C1B48055  29.928  38.824   6.295
 3594POPC   C2B48056  29.773  38.612   6.675
 3594POPC   C3B48057  29.727  38.799   7.078
 3594POPC   C4B48058  29.833  38.937   7.491
 3595POPC   NC348059  22.223  29.891   5.191
 3595POPC   PO448060  22.118  30.364   5.585
 3595POPC   GL148061  22.270  29.987   5.732
 3595POPC   GL248062  22.058  29.699   5.668
 3595POPC   C1A48063  22.385  29.888   6.162
 3595POPC   D2A48064  22.474  30.046   6.601
 3595POPC   C3A48065  22.249  29.900   6.954
 3595POPC   C4A48066  22.180  30.094   7.339
 3595POPC   C1B48067  21.903  29.685   6.109
 3595POPC   C2B48068  21.803  29.671   6.547
 3595POPC   C3B48069  21.926  29.501   6.917
 3595POPC   C4B48070  21.959  29.626   7.344
 3596POPC   NC348071   3.142  27.891   5.328
 3596POPC   PO448072   3.579  27.445   5.382
 3596POPC   GL148073   3.654  27.377   5.823
 3596POPC   GL248074   3.891  27.648   5.983
 3596POPC   C1A48075   3.428  27.477   6.177
 3596POPC   D2A48076   3.597  27.851   6.381
 3596POPC   C3A48077   3.602  27.716   6.813
 3596POPC   C4A48078   3.368  27.397   7.036
 3596POPC   C1B48079   3.865  27.274   6.272
 3596POPC   C2B48080   3.717  27.207   6.693
 3596POPC   C3B48081   3.888  27.317   7.104
 3596POPC   C4B48082   3.956  27.651   7.414
 3597POPC   NC348083  43.774  33.929   5.398
 3597POPC   PO448084  44.283  33.558   5.594
 3597POPC   GL148085  43.984  33.673   5.887
 3597POPC   GL248086  43.699  33.549   5.782
 3597POPC   C1A48087  43.797  33.873   6.267
 3597POPC   D2A48088  43.717  34.033   6.692
 3597POPC   C3A48089  43.938  33.787   6.994
 3597POPC   C4A48090  43.950  33.737   7.425
 3597POPC   C1B48091  43.727  33.371   6.200
 3597POPC   C2B48092  43.714  33.441   6.662
 3597POPC   C3B48093  43.652  33.377   7.133
 3597POPC   C4B48094  43.577  33.432   7.595
 3598POPC   NC348095  22.815  38.143   5.390
 3598POPC   PO448096  23.252  38.684   5.449
 3598POPC   GL148097  22.964  38.404   5.823
 3598POPC   GL248098  22.674  38.124   5.872
 3598POPC   C1A48099  22.665  38.498   6.241
 3598POPC   D2A48100  22.581  38.328   6.683
 3598POPC   C3A48101  22.857  38.537   7.001
 3598POPC   C4A48102  23.320  38.581   6.981
 3598POPC   C1B48103  22.927  38.073   6.250
 3598POPC   C2B48104  23.107  38.245   6.636
 3598POPC   C3B48105  22.980  38.049   7.022
 3598POPC   C4B48106  22.533  37.988   7.111
 3599POPC   NC348107  35.873  12.730   5.403
 3599POPC   PO448108  35.253  12.881   5.196
 3599POPC   GL148109  35.229  12.864   5.687
 3599POPC   GL248110  35.473  12.643   5.831
 3599POPC   C1A48111  35.317  13.048   6.136
 3599POPC   D2A48112  35.657  13.228   6.451
 3599POPC   C3A48113  35.531  13.172   6.893
 3599POPC   C4A48114  35.182  13.043   7.172
 3599POPC   C1B48115  35.744  12.788   6.181
 3599POPC   C2B48116  35.891  12.754   6.595
 3599POPC   C3B48117  35.639  12.665   6.937
 3599POPC   C4B48118  35.665  12.896   7.314
 3600POPC   NC348119  36.334  13.076   4.988
 3600POPC   PO448120  36.348  12.669   5.510
 3600POPC   GL148121  36.111  12.870   5.810
 3600POPC   GL248122  35.978  12.496   5.853
 3600POPC   C1A48123  36.176  13.119   6.164
 3600POPC   D2A48124  36.339  13.037   6.547
 3600POPC   C3A48125  36.085  13.117   6.920
 3600POPC   C4A48126  36.346  13.070   7.284
 3600POPC   C1B48127  36.219  12.608   6.222
 3600POPC   C2B48128  36.373  12.418   6.554
 3600POPC   C3B48129  36.382  12.680   6.902
 3600POPC   C4B48130  36.086  12.658   7.212
 3601POPC   NC348131  17.777   1.541   5.268
 3601POPC   PO448132  17.363   1.200   5.538
 3601POPC   GL148133  17.689   1.304   5.729
 3601POPC   GL248134  17.838   0.972   5.696
 3601POPC   C1A48135  17.557   1.359   6.131
 3601POPC   D2A48136  17.377   1.135   6.480
 3601POPC   C3A48137  17.570   1.181   6.894
 3601POPC   C4A48138  17.448   0.826   7.138
 3601POPC   C1B48139  17.721   0.874   6.131
 3601POPC   C2B48140  17.787   0.773   6.574
 3601POPC   C3B48141  17.973   0.865   7.002
 3601POPC   C4B48142  17.879   0.875   7.454
 3602POPC   NC348143   5.725  42.529   5.361
 3602POPC   PO448144   6.120  41.983   5.298
 3602POPC   GL148145   5.964  42.190   5.711
 3602POPC   GL248146   5.811  42.534   5.846
 3602POPC   C1A48147   6.141  42.288   6.125
 3602POPC   D2A48148   6.010  42.550   6.459
 3602POPC   C3A48149   5.908  42.312   6.824
 3602POPC   C4A48150   5.898  42.223   7.258
 3602POPC   C1B48151   5.607  42.356   6.184
 3602POPC   C2B48152   5.480  42.480   6.583
 3602POPC   C3B48153   5.421  42.222   6.947
 3602POPC   C4B48154   5.416  42.209   7.396
 3603POPC   NC348155  11.828   1.950   5.349
 3603POPC   PO448156  12.499   1.984   5.461
 3603POPC   GL148157  12.172   1.868   5.741
 3603POPC   GL248158  12.064   2.211   5.805
 3603POPC   C1A48159  12.072   1.800   6.176
 3603POPC   D2A48160  12.010   1.948   6.604
 3603POPC   C3A48161  12.015   1.670   6.989
 3603POPC   C4A48162  12.060   1.469   7.399
 3603POPC   C1B48163  12.446   2.179   6.076
 3603POPC   C2B48164  12.504   2.236   6.514
 3603POPC   C3B48165  12.233   2.337   6.827
 3603POPC   C4B48166  12.076   2.125   7.193
 3604POPC   NC348167  11.396  30.371   5.378
 3604POPC   PO448168  11.437  31.025   5.383
 3604POPC   GL148169  11.288  30.711   5.740
 3604POPC   GL248170  11.491  30.408   5.873
 3604POPC   C1A48171  11.226  30.749   6.194
 3604POPC   D2A48172  11.273  31.006   6.544
 3604POPC   C3A48173  11.428  31.104   6.921
 3604POPC   C4A48174  11.584  31.054   7.314
 3604POPC   C1B48175  11.264  30.252   6.235
 3604POPC   C2B48176  10.982  30.461   6.534
 3604POPC   C3B48177  11.080  30.693   6.899
 3604POPC   C4B48178  11.234  30.560   7.290
 3605POPC   NC348179   5.203   4.537   5.348
 3605POPC   PO448180   4.768   4.074   5.363
 3605POPC   GL148181   4.923   4.327   5.719
 3605POPC   GL248182   5.137   4.621   5.842
 3605POPC   C1A48183   4.818   4.278   6.131
 3605POPC   D2A48184   4.634   4.321   6.535
 3605POPC   C3A48185   4.896   4.228   6.826
 3605POPC   C4A48186   4.862   4.117   7.222
 3605POPC   C1B48187   5.302   4.452   6.238
 3605POPC   C2B48188   5.276   4.560   6.683
 3605POPC   C3B48189   5.256   4.461   7.134
 3605POPC   C4B48190   5.404   4.168   7.481
 3606POPC   NC348191  33.526  40.817   5.440
 3606POPC   PO448192  34.078  40.451   5.220
 3606POPC   GL148193  33.830  40.402   5.640
 3606POPC   GL248194  33.457  40.348   5.660
 3606POPC   C1A48195  33.838  40.378   6.125
 3606POPC   D2A48196  34.110  40.386   6.537
 3606POPC   C3A48197  34.102  40.678   6.911
 3606POPC   C4A48198  33.824  40.926   7.159
 3606POPC   C1B48199  33.305  40.405   6.116
 3606POPC   C2B48200  33.381  40.559   6.560
 3606POPC   C3B48201  33.591  40.491   6.971
 3606POPC   C4B48202  33.461  40.555   7.399
 3607POPC   NC348203  27.510  13.024   5.395
 3607POPC   PO448204  27.177  12.518   5.551
 3607POPC   GL148205  27.382  12.807   5.849
 3607POPC   GL248206  27.761  12.903   5.829
 3607POPC   C1A48207  27.249  12.834   6.275
 3607POPC   D2A48208  27.411  12.526   6.504
 3607POPC   C3A48209  27.679  12.617   6.816
 3607POPC   C4A48210  27.520  12.682   7.215
 3607POPC   C1B48211  27.648  13.142   6.207
 3607POPC   C2B48212  27.596  13.086   6.644
 3607POPC   C3B48213  27.816  13.072   7.038
 3607POPC   C4B48214  27.716  13.231   7.431
 3608POPC   NC348215  22.529  16.175   5.040
 3608POPC   PO448216  22.894  15.746   5.442
 3608POPC   GL148217  22.860  15.816   5.838
 3608POPC   GL248218  23.153  16.011   5.815
 3608POPC   C1A48219  22.727  15.925   6.248
 3608POPC   D2A48220  22.992  15.978   6.595
 3608POPC   C3A48221  22.795  15.963   6.966
 3608POPC   C4A48222  22.625  15.771   7.304
 3608POPC   C1B48223  23.240  15.767   6.176
 3608POPC   C2B48224  23.260  15.550   6.575
 3608POPC   C3B48225  23.043  15.523   6.960
 3608POPC   C4B48226  23.094  15.603   7.362
 3609POPC   NC348227  16.317  27.546   5.509
 3609POPC   PO448228  17.003  27.627   5.460
 3609POPC   GL148229  16.832  27.790   5.842
 3609POPC   GL248230  16.950  28.107   5.898
 3609POPC   C1A48231  16.744  27.699   6.286
 3609POPC   D2A48232  16.788  27.472   6.690
 3609POPC   C3A48233  16.543  27.544   7.062
 3609POPC   C4A48234  16.567  27.278   7.422
 3609POPC   C1B48235  17.148  28.020   6.258
 3609POPC   C2B48236  17.050  27.931   6.658
 3609POPC   C3B48237  17.030  27.769   7.049
 3609POPC   C4B48238  16.757  27.938   7.315
 3610POPC   NC348239  18.566  19.528   5.543
 3610POPC   PO448240  18.180  19.987   5.388
 3610POPC   GL148241  18.067  20.147   5.780
 3610POPC   GL248242  18.387  19.975   5.898
 3610POPC   C1A48243  18.047  20.134   6.234
 3610POPC   D2A48244  18.478  20.037   6.435
 3610POPC   C3A48245  18.492  19.872   6.834
 3610POPC   C4A48246  18.234  20.036   7.178
 3610POPC   C1B48247  18.210  19.648   6.208
 3610POPC   C2B48248  18.179  19.487   6.651
 3610POPC   C3B48249  18.384  19.431   7.058
 3610POPC   C4B48250  18.297  19.595   7.448
 3611POPC   NC348251   4.730   0.101   5.382
 3611POPC   PO448252   4.087   0.078   5.282
 3611POPC   GL148253   4.262   0.342   5.674
 3611POPC   GL248254   3.952   0.456   5.833
 3611POPC   C1A48255   4.348   0.572   6.132
 3611POPC   D2A48256   4.316   0.622   6.606
 3611POPC   C3A48257   4.450   0.347   6.949
 3611POPC   C4A48258   4.198   0.281   7.301
 3611POPC   C1B48259   3.800   0.436   6.268
 3611POPC   C2B48260   3.791   0.676   6.666
 3611POPC   C3B48261   3.896   0.650   7.101
 3611POPC   C4B48262   3.912   0.925   7.444
 3612POPC   NC348263  18.245  30.120   5.433
 3612POPC   PO448264  18.626  29.567   5.546
 3612POPC   GL148265  18.411  29.723   5.929
 3612POPC   GL248266  18.204  30.016   5.926
 3612POPC   C1A48267  18.341  29.775   6.395
 3612POPC   D2A48268  18.488  29.995   6.775
 3612POPC   C3A48269  18.283  29.834   7.127
 3612POPC   C4A48270  18.388  29.648   7.514
 3612POPC   C1B48271  18.310  30.280   6.253
 3612POPC   C2B48272  18.157  30.335   6.617
 3612POPC   C3B48273  18.261  30.382   7.046
 3612POPC   C4B48274  18.100  30.228   7.412
 3613POPC   NC348275  37.317  13.790   5.456
 3613POPC   PO448276  37.917  14.083   5.511
 3613POPC   GL148277  37.709  13.879   5.891
 3613POPC   GL248278  37.471  13.599   5.896
 3613POPC   C1A48279  37.684  13.765   6.332
 3613POPC   D2A48280  37.587  13.491   6.666
 3613POPC   C3A48281  37.610  13.654   7.067
 3613POPC   C4A48282  37.849  13.820   7.384
 3613POPC   C1B48283  37.437  13.295   6.227
 3613POPC   C2B48284  37.269  13.105   6.622
 3613POPC   C3B48285  37.442  13.169   7.048
 3613POPC   C4B48286  37.687  13.279   7.420
 3614POPC   NC348287  43.997  36.044   5.526
 3614POPC   PO448288  43.657  35.517   5.429
 3614POPC   GL148289  43.848  35.690   5.853
 3614POPC   GL248290  44.237  35.783   5.897
 3614POPC   C1A48291  43.876  35.988   6.219
 3614POPC   D2A48292  44.110  36.058   6.612
 3614POPC   C3A48293  43.821  36.138   6.915
 3614POPC   C4A48294  43.675  36.014   7.301
 3614POPC   C1B48295  44.346  36.178   6.164
 3614POPC   C2B48296  44.177  36.539   6.455
 3614POPC   C3B48297  44.138  36.534   6.918
 3614POPC   C4B48298  44.164  36.204   7.281
 3615POPC   NC348299  41.172  22.456   5.243
 3615POPC   PO448300  40.683  21.977   5.237
 3615POPC   GL148301  40.840  21.942   5.670
 3615POPC   GL248302  41.121  22.199   5.717
 3615POPC   C1A48303  40.772  21.882   6.130
 3615POPC   D2A48304  40.757  22.122   6.546
 3615POPC   C3A48305  40.630  21.988   6.978
 3615POPC   C4A48306  40.803  21.886   7.406
 3615POPC   C1B48307  40.861  22.381   6.043
 3615POPC   C2B48308  40.928  22.586   6.429
 3615POPC   C3B48309  41.119  22.501   6.827
 3615POPC   C4B48310  40.922  22.361   7.204
 3616POPC   NC348311  15.024  17.843   5.402
 3616POPC   PO448312  14.518  18.295   5.284
 3616POPC   GL148313  14.385  18.337   5.761
 3616POPC   GL248314  14.769  18.414   5.771
 3616POPC   C1A48315  14.115  18.341   6.178
 3616POPC   D2A48316  13.950  18.123   6.559
 3616POPC   C3A48317  14.100  18.363   6.902
 3616POPC   C4A48318  14.259  18.344   7.308
 3616POPC   C1B48319  14.631  18.401   6.200
 3616POPC   C2B48320  14.531  18.610   6.574
 3616POPC   C3B48321  14.630  18.507   6.975
 3616POPC   C4B48322  14.754  18.185   7.235
 3617POPC   NC348323  22.395  22.886   5.589
 3617POPC   PO448324  21.792  22.885   5.546
 3617POPC   GL148325  21.721  22.937   5.956
 3617POPC   GL248326  22.071  22.881   5.980
 3617POPC   C1A48327  21.820  22.846   6.395
 3617POPC   D2A48328  22.064  22.878   6.710
 3617POPC   C3A48329  21.837  22.845   7.059
 3617POPC   C4A48330  21.958  23.053   7.424
 3617POPC   C1B48331  22.153  23.203   6.277
 3617POPC   C2B48332  22.447  23.209   6.610
 3617POPC   C3B48333  22.566  23.343   7.037
 3617POPC   C4B48334  22.362  23.388   7.473
 3618POPC   NC348335   4.617  37.519   5.424
 3618POPC   PO448336   5.238  37.760   5.396
 3618POPC   GL148337   5.072  37.477   5.669
 3618POPC   GL248338   5.329  37.281   5.746
 3618POPC   C1A48339   4.991  37.476   6.121
 3618POPC   D2A48340   4.854  37.744   6.469
 3618POPC   C3A48341   5.050  37.690   6.857
 3618POPC   C4A48342   4.913  37.839   7.242
 3618POPC   C1B48343   5.417  37.169   6.149
 3618POPC   C2B48344   5.358  37.382   6.515
 3618POPC   C3B48345   5.311  37.219   6.893
 3618POPC   C4B48346   5.171  37.363   7.279
 3619POPC   NC348347  22.349  32.385   5.472
 3619POPC   PO448348  21.794  31.965   5.360
 3619POPC   GL148349  22.032  32.077   5.755
 3619POPC   GL248350  22.071  32.427   5.898
 3619POPC   C1A48351  22.264  31.992   6.154
 3619POPC   D2A48352  22.371  31.752   6.526
 3619POPC   C3A48353  22.334  31.959   6.922
 3619POPC   C4A48354  22.268  32.074   7.367
 3619POPC   C1B48355  22.474  32.458   6.168
 3619POPC   C2B48356  22.589  32.305   6.600
 3619POPC   C3B48357  22.566  32.447   7.036
 3619POPC   C4B48358  22.527  32.518   7.479
 3620POPC   NC348359   8.728   1.586   5.332
 3620POPC   PO448360   9.253   1.261   5.441
 3620POPC   GL148361   9.072   1.151   5.868
 3620POPC   GL248362   9.210   0.831   5.991
 3620POPC   C1A48363   8.974   1.296   6.310
 3620POPC   D2A48364   8.627   1.181   6.614
 3620POPC   C3A48365   8.781   1.277   7.042
 3620POPC   C4A48366   9.238   1.367   7.128
 3620POPC   C1B48367   8.880   0.809   6.265
 3620POPC   C2B48368   9.021   0.859   6.650
 3620POPC   C3B48369   9.184   0.838   7.012
 3620POPC   C4B48370   9.030   0.961   7.370
 3621POPC   NC348371  35.997  29.548   5.383
 3621POPC   PO448372  36.314  28.934   5.433
 3621POPC   GL148373  36.079  29.050   5.802
 3621POPC   GL248374  35.893  29.352   5.826
 3621POPC   C1A48375  36.238  29.191   6.186
 3621POPC   D2A48376  36.330  29.338   6.584
 3621POPC   C3A48377  36.151  29.189   6.969
 3621POPC   C4A48378  36.070  28.884   7.269
 3621POPC   C1B48379  35.894  29.569   6.224
 3621POPC   C2B48380  35.828  29.440   6.658
 3621POPC   C3B48381  35.830  29.591   7.099
 3621POPC   C4B48382  35.719  29.644   7.510
 3622POPC   NC348383  25.318  10.069   5.608
 3622POPC   PO448384  25.269  10.721   5.365
 3622POPC   GL148385  25.314  10.588   5.793
 3622POPC   GL248386  24.978  10.416   5.837
 3622POPC   C1A48387  25.454  10.798   6.200
 3622POPC   D2A48388  25.532  11.079   6.561
 3622POPC   C3A48389  25.534  10.899   6.986
 3622POPC   C4A48390  25.582  10.473   7.151
 3622POPC   C1B48391  25.093  10.452   6.267
 3622POPC   C2B48392  25.286  10.552   6.655
 3622POPC   C3B48393  25.088  10.470   7.029
 3622POPC   C4B48394  25.012  10.653   7.420
 3623POPC   NC348395  21.874  27.947   5.411
 3623POPC   PO448396  22.098  28.502   5.360
 3623POPC   GL148397  22.045  28.442   5.820
 3623POPC   GL248398  22.048  28.079   5.866
 3623POPC   C1A48399  22.113  28.672   6.264
 3623POPC   D2A48400  22.239  28.817   6.700
 3623POPC   C3A48401  22.129  28.572   7.088
 3623POPC   C4A48402  21.872  28.310   7.388
 3623POPC   C1B48403  22.191  28.171   6.262
 3623POPC   C2B48404  21.998  28.297   6.646
 3623POPC   C3B48405  21.884  28.022   6.995
 3623POPC   C4B48406  21.712  27.818   7.373
 3624POPC   NC348407  12.320  41.676   5.273
 3624POPC   PO448408  11.735  42.075   5.384
 3624POPC   GL148409  11.953  41.726   5.659
 3624POPC   GL248410  12.110  41.346   5.618
 3624POPC   C1A48411  11.996  41.528   6.094
 3624POPC   D2A48412  11.824  41.278   6.445
 3624POPC   C3A48413  11.841  41.355   6.875
 3624POPC   C4A48414  12.011  41.340   7.288
 3624POPC   C1B48415  12.335  41.181   6.041
 3624POPC   C2B48416  12.360  41.413   6.447
 3624POPC   C3B48417  12.372  41.387   6.900
 3624POPC   C4B48418  12.515  41.558   7.292
 3625POPC   NC348419  35.178  24.826   5.078
 3625POPC   PO448420  35.410  24.312   5.452
 3625POPC   GL148421  35.451  24.421   5.903
 3625POPC   GL248422  35.598  24.765   5.898
 3625POPC   C1A48423  35.453  24.362   6.354
 3625POPC   D2A48424  35.171  24.476   6.686
 3625POPC   C3A48425  35.279  24.383   7.086
 3625POPC   C4A48426  35.622  24.574   7.241
 3625POPC   C1B48427  35.340  24.843   6.254
 3625POPC   C2B48428  35.205  25.061   6.599
 3625POPC   C3B48429  35.314  24.901   6.975
 3625POPC   C4B48430  35.059  24.844   7.316
 3626POPC   NC348431  32.690  11.617   5.365
 3626POPC   PO448432  32.215  11.120   5.346
 3626POPC   GL148433  32.139  11.247   5.777
 3626POPC   GL248434  32.471  11.339   5.759
 3626POPC   C1A48435  31.935  11.367   6.182
 3626POPC   D2A48436  31.876  11.602   6.564
 3626POPC   C3A48437  31.938  11.309   6.885
 3626POPC   C4A48438  32.027  11.281   7.289
 3626POPC   C1B48439  32.478  11.237   6.192
 3626POPC   C2B48440  32.384  11.426   6.591
 3626POPC   C3B48441  32.457  11.344   7.023
 3626POPC   C4B48442  32.505  11.222   7.479
 3627POPC   NC348443   6.134  21.575   5.388
 3627POPC   PO448444   5.493  21.135   5.356
 3627POPC   GL148445   5.809  21.210   5.691
 3627POPC   GL248446   5.847  21.551   5.813
 3627POPC   C1A48447   5.950  21.160   6.142
 3627POPC   D2A48448   6.050  21.245   6.582
 3627POPC   C3A48449   5.720  21.065   6.840
 3627POPC   C4A48450   5.599  21.100   7.264
 3627POPC   C1B48451   5.885  21.640   6.259
 3627POPC   C2B48452   5.881  21.705   6.732
 3627POPC   C3B48453   5.916  21.545   7.190
 3627POPC   C4B48454   6.003  21.703   7.650
 3628POPC   NC348455  13.282  25.488   5.501
 3628POPC   PO448456  12.693  25.209   5.501
 3628POPC   GL148457  12.960  25.218   5.870
 3628POPC   GL248458  12.915  24.859   5.889
 3628POPC   C1A48459  12.956  25.460   6.293
 3628POPC   D2A48460  13.016  25.585   6.753
 3628POPC   C3A48461  12.981  25.296   7.076
 3628POPC   C4A48462  12.986  25.182   7.516
 3628POPC   C1B48463  12.689  24.997   6.259
 3628POPC   C2B48464  12.812  24.931   6.675
 3628POPC   C3B48465  12.590  24.974   7.032
 3628POPC   C4B48466  12.421  25.151   7.337
 3629POPC   NC348467  18.936   3.296   5.250
 3629POPC   PO448468  19.016   2.700   5.402
 3629POPC   GL148469  18.877   3.008   5.769
 3629POPC   GL248470  18.538   2.971   5.893
 3629POPC   C1A48471  18.864   2.960   6.274
 3629POPC   D2A48472  19.171   3.055   6.639
 3629POPC   C3A48473  19.127   2.869   7.065
 3629POPC   C4A48474  19.074   2.467   7.270
 3629POPC   C1B48475  18.427   2.643   6.223
 3629POPC   C2B48476  18.543   2.571   6.687
 3629POPC   C3B48477  18.563   2.609   7.150
 3629POPC   C4B48478  18.750   2.894   7.409
 3630POPC   NC348479  24.231  37.694   5.200
 3630POPC   PO448480  23.545  37.944   5.324
 3630POPC   GL148481  23.847  37.729   5.606
 3630POPC   GL248482  23.800  37.368   5.761
 3630POPC   C1A48483  23.780  37.779   6.066
 3630POPC   D2A48484  23.839  37.588   6.464
 3630POPC   C3A48485  23.795  37.662   6.909
 3630POPC   C4A48486  23.942  37.659   7.316
 3630POPC   C1B48487  23.598  37.237   6.188
 3630POPC   C2B48488  23.532  37.252   6.689
 3630POPC   C3B48489  23.598  37.235   7.166
 3630POPC   C4B48490  23.693  37.346   7.624
 3631POPC   NC348491   5.557  10.922   5.701
 3631POPC   PO448492   6.087  10.702   5.285
 3631POPC   GL148493   5.899  10.516   5.684
 3631POPC   GL248494   5.668  10.209   5.683
 3631POPC   C1A48495   5.881  10.474   6.150
 3631POPC   D2A48496   6.117  10.386   6.541
 3631POPC   C3A48497   5.886  10.446   6.884
 3631POPC   C4A48498   5.759  10.739   7.160
 3631POPC   C1B48499   5.579  10.058   6.087
 3631POPC   C2B48500   5.721  10.081   6.504
 3631POPC   C3B48501   5.595  10.011   6.933
 3631POPC   C4B48502   5.612  10.266   7.324
 3632POPC   NC348503  34.869   0.381   5.166
 3632POPC   PO448504  34.146   0.619   5.321
 3632POPC   GL148505  34.408   0.484   5.730
 3632POPC   GL248506  34.664   0.237   5.661
 3632POPC   C1A48507  34.382   0.297   6.173
 3632POPC   D2A48508  34.287   0.276   6.623
 3632POPC   C3A48509  34.460   0.595   6.861
 3632POPC   C4A48510  34.372   0.822   7.207
 3632POPC   C1B48511  34.892   0.355   6.034
 3632POPC   C2B48512  34.949   0.377   6.483
 3632POPC   C3B48513  34.814   0.235   6.895
 3632POPC   C4B48514  34.755   0.435   7.288
 3633POPC   NC348515  35.031  30.882   5.589
 3633POPC   PO448516  35.659  30.944   5.388
 3633POPC   GL148517  35.562  30.820   5.798
 3633POPC   GL248518  35.334  30.589   5.881
 3633POPC   C1A48519  35.437  30.967   6.214
 3633POPC   D2A48520  35.441  31.177   6.607
 3633POPC   C3A48521  35.310  30.868   6.911
 3633POPC   C4A48522  35.419  30.859   7.341
 3633POPC   C1B48523  35.212  30.523   6.331
 3633POPC   C2B48524  35.416  30.353   6.712
 3633POPC   C3B48525  35.285  30.406   7.137
 3633POPC   C4B48526  35.358  30.407   7.578
 3634POPC   NC348527  10.231  38.618   5.523
 3634POPC   PO448528   9.530  38.536   5.545
 3634POPC   GL148529   9.769  38.446   5.846
 3634POPC   GL248530   9.639  38.749   6.010
 3634POPC   C1A48531   9.614  38.288   6.212
 3634POPC   D2A48532   9.731  38.533   6.569
 3634POPC   C3A48533   9.617  38.319   6.954
 3634POPC   C4A48534   9.505  38.542   7.294
 3634POPC   C1B48535  10.065  38.744   6.179
 3634POPC   C2B48536  10.236  38.723   6.604
 3634POPC   C3B48537  10.138  38.370   6.875
 3634POPC   C4B48538   9.981  38.342   7.331
 3635POPC   NC348539  29.534   7.666   5.500
 3635POPC   PO448540  28.892   7.715   5.409
 3635POPC   GL148541  28.918   7.604   5.841
 3635POPC   GL248542  28.877   7.227   5.801
 3635POPC   C1A48543  29.252   7.457   6.154
 3635POPC   D2A48544  29.509   7.268   6.520
 3635POPC   C3A48545  29.380   7.373   6.958
 3635POPC   C4A48546  29.493   7.716   7.259
 3635POPC   C1B48547  28.754   7.283   6.209
 3635POPC   C2B48548  28.921   7.561   6.532
 3635POPC   C3B48549  28.872   7.438   6.957
 3635POPC   C4B48550  28.970   7.641   7.327
 3636POPC   NC348551  40.217  16.506   5.098
 3636POPC   PO448552  39.606  16.589   5.090
 3636POPC   GL148553  39.898  16.683   5.548
 3636POPC   GL248554  39.678  16.670   5.869
 3636POPC   C1A48555  40.077  16.906   6.000
 3636POPC   D2A48556  40.076  16.717   6.452
 3636POPC   C3A48557  40.141  16.846   6.910
 3636POPC   C4A48558  40.309  16.679   7.332
 3636POPC   C1B48559  39.600  16.843   6.295
 3636POPC   C2B48560  39.640  16.776   6.747
 3636POPC   C3B48561  39.687  16.876   7.152
 3636POPC   C4B48562  39.851  16.768   7.533
 3637POPC   NC348563  28.767   5.378   5.613
 3637POPC   PO448564  28.365   4.984   5.146
 3637POPC   GL148565  28.433   4.919   5.693
 3637POPC   GL248566  28.130   4.987   5.863
 3637POPC   C1A48567  28.433   4.900   6.243
 3637POPC   D2A48568  28.331   5.146   6.669
 3637POPC   C3A48569  28.483   5.039   7.120
 3637POPC   C4A48570  28.580   5.310   7.538
 3637POPC   C1B48571  27.974   5.217   6.279
 3637POPC   C2B48572  27.869   5.398   6.680
 3637POPC   C3B48573  28.006   5.210   7.072
 3637POPC   C4B48574  28.140   5.059   7.495
 3638POPC   NC348575  20.791  22.465   5.407
 3638POPC   PO448576  20.479  23.050   5.251
 3638POPC   GL148577  20.686  22.906   5.680
 3638POPC   GL248578  20.421  22.878   5.895
 3638POPC   C1A48579  20.828  22.849   6.188
 3638POPC   D2A48580  20.950  22.725   6.633
 3638POPC   C3A48581  20.722  22.903   7.026
 3638POPC   C4A48582  20.710  23.055   7.494
 3638POPC   C1B48583  20.365  22.927   6.374
 3638POPC   C2B48584  20.472  22.587   6.655
 3638POPC   C3B48585  20.333  22.407   7.047
 3638POPC   C4B48586  20.437  22.631   7.408
 3639POPC   NC348587  39.724   8.036   5.440
 3639POPC   PO448588  40.363   8.056   5.452
 3639POPC   GL148589  40.068   8.072   5.819
 3639POPC   GL248590  39.875   7.780   5.891
 3639POPC   C1A48591  39.749   8.240   6.140
 3639POPC   D2A48592  39.916   8.376   6.556
 3639POPC   C3A48593  39.827   8.230   6.970
 3639POPC   C4A48594  39.676   8.480   7.323
 3639POPC   C1B48595  40.068   7.893   6.329
 3639POPC   C2B48596  40.245   7.973   6.764
 3639POPC   C3B48597  40.279   8.165   7.215
 3639POPC   C4B48598  40.169   8.321   7.640
 3640POPC   NC348599  18.126  39.636   5.400
 3640POPC   PO448600  18.491  39.054   5.365
 3640POPC   GL148601  18.491  39.352   5.708
 3640POPC   GL248602  18.215  39.292   5.824
 3640POPC   C1A48603  18.554  39.365   6.200
 3640POPC   D2A48604  18.524  39.166   6.642
 3640POPC   C3A48605  18.482  39.408   7.028
 3640POPC   C4A48606  18.250  39.440   7.435
 3640POPC   C1B48607  18.037  39.428   6.191
 3640POPC   C2B48608  18.144  39.524   6.589
 3640POPC   C3B48609  17.965  39.469   6.988
 3640POPC   C4B48610  17.773  39.642   7.332
 3641POPC   NC348611  12.534  11.850   5.393
 3641POPC   PO448612  13.319  11.741   5.510
 3641POPC   GL148613  13.040  12.100   5.741
 3641POPC   GL248614  12.668  12.088   5.827
 3641POPC   C1A48615  12.973  12.305   6.173
 3641POPC   D2A48616  13.037  12.129   6.586
 3641POPC   C3A48617  12.819  12.347   6.904
 3641POPC   C4A48618  12.779  12.109   7.236
 3641POPC   C1B48619  12.580  11.982   6.272
 3641POPC   C2B48620  12.614  11.882   6.735
 3641POPC   C3B48621  12.463  11.719   7.126
 3641POPC   C4B48622  12.556  11.754   7.571
 3642POPC   NC348623   2.025  10.507   5.170
 3642POPC   PO448624   1.832  10.938   5.584
 3642POPC   GL148625   2.004  10.607   5.842
 3642POPC   GL248626   2.304  10.435   5.683
 3642POPC   C1A48627   1.931  10.585   6.293
 3642POPC   D2A48628   1.941  10.845   6.690
 3642POPC   C3A48629   1.856  10.663   7.092
 3642POPC   C4A48630   1.786  10.259   7.260
 3642POPC   C1B48631   2.411  10.448   6.135
 3642POPC   C2B48632   2.319  10.382   6.585
 3642POPC   C3B48633   2.300  10.416   7.043
 3642POPC   C4B48634   2.256  10.609   7.470
 3643POPC   NC348635  30.243  24.311   5.492
 3643POPC   PO448636  29.685  24.761   5.429
 3643POPC   GL148637  29.957  24.733   5.786
 3643POPC   GL248638  29.953  24.402   5.933
 3643POPC   C1A48639  29.855  24.894   6.179
 3643POPC   D2A48640  29.622  24.782   6.555
 3643POPC   C3A48641  29.773  24.642   6.938
 3643POPC   C4A48642  29.860  24.940   7.259
 3643POPC   C1B48643  30.091  24.485   6.370
 3643POPC   C2B48644  30.071  24.245   6.725
 3643POPC   C3B48645  30.285  24.166   7.071
 3643POPC   C4B48646  29.968  24.282   7.297
 3644POPC   NC348647   8.777  36.688   5.354
 3644POPC   PO448648   9.301  37.100   5.446
 3644POPC   GL148649   8.937  37.030   5.749
 3644POPC   GL248650   8.814  36.707   5.846
 3644POPC   C1A48651   8.900  37.078   6.194
 3644POPC   D2A48652   9.085  36.941   6.573
 3644POPC   C3A48653   8.877  36.953   6.920
 3644POPC   C4A48654   8.894  37.128   7.249
 3644POPC   C1B48655   8.878  36.569   6.231
 3644POPC   C2B48656   8.628  36.674   6.573
 3644POPC   C3B48657   8.689  36.483   6.942
 3644POPC   C4B48658   8.798  36.538   7.347
 3645POPC   NC348659  39.761  30.349   5.410
 3645POPC   PO448660  40.268  30.787   5.284
 3645POPC   GL148661  40.031  30.707   5.722
 3645POPC   GL248662  39.649  30.634   5.811
 3645POPC   C1A48663  39.943  30.763   6.195
 3645POPC   D2A48664  40.083  30.628   6.589
 3645POPC   C3A48665  40.004  30.852   6.974
 3645POPC   C4A48666  40.274  31.056   7.261
 3645POPC   C1B48667  39.588  30.387   6.187
 3645POPC   C2B48668  39.802  30.197   6.556
 3645POPC   C3B48669  39.964  30.323   6.987
 3645POPC   C4B48670  39.789  30.331   7.391
 3646POPC   NC348671   7.021  17.639   5.298
 3646POPC   PO448672   6.391  17.400   5.334
 3646POPC   GL148673   6.652  17.495   5.685
 3646POPC   GL248674   6.923  17.244   5.695
 3646POPC   C1A48675   6.562  17.740   6.114
 3646POPC   D2A48676   6.491  17.929   6.559
 3646POPC   C3A48677   6.557  17.674   6.976
 3646POPC   C4A48678   6.962  17.677   7.222
 3646POPC   C1B48679   6.677  17.247   6.120
 3646POPC   C2B48680   6.745  17.456   6.530
 3646POPC   C3B48681   6.879  17.252   6.919
 3646POPC   C4B48682   6.676  17.145   7.304
 3647POPC   NC348683   1.969  40.735   5.341
 3647POPC   PO448684   2.578  40.598   5.487
 3647POPC   GL148685   2.267  40.685   5.774
 3647POPC   GL248686   1.962  40.493   5.820
 3647POPC   C1A48687   2.161  40.856   6.167
 3647POPC   D2A48688   2.271  40.833   6.588
 3647POPC   C3A48689   1.907  40.869   6.863
 3647POPC   C4A48690   1.918  40.993   7.292
 3647POPC   C1B48691   2.262  40.325   6.149
 3647POPC   C2B48692   2.380  40.327   6.579
 3647POPC   C3B48693   2.148  40.431   6.936
 3647POPC   C4B48694   1.722  40.504   7.174
 3648POPC   NC348695   9.334  18.817   5.603
 3648POPC   PO448696   8.852  18.918   5.134
 3648POPC   GL148697   8.857  19.019   5.608
 3648POPC   GL248698   9.031  19.288   5.819
 3648POPC   C1A48699   8.812  18.933   6.095
 3648POPC   D2A48700   8.824  19.216   6.459
 3648POPC   C3A48701   8.789  19.008   6.866
 3648POPC   C4A48702   8.637  19.001   7.265
 3648POPC   C1B48703   9.289  19.156   6.219
 3648POPC   C2B48704   9.257  19.097   6.709
 3648POPC   C3B48705   9.173  19.178   7.162
 3648POPC   C4B48706   9.368  19.392   7.501
 3649POPC   NC348707  37.817  36.024   5.318
 3649POPC   PO448708  38.077  36.608   5.641
 3649POPC   GL148709  37.973  36.189   5.762
 3649POPC   GL248710  38.123  35.876   5.911
 3649POPC   C1A48711  37.640  36.025   6.045
 3649POPC   D2A48712  37.353  36.101   6.410
 3649POPC   C3A48713  37.435  36.034   6.866
 3649POPC   C4A48714  37.351  36.328   7.195
 3649POPC   C1B48715  38.125  36.255   6.229
 3649POPC   C2B48716  37.991  36.369   6.655
 3649POPC   C3B48717  37.894  36.206   7.078
 3649POPC   C4B48718  37.797  36.474   7.413
 3650POPC   NC348719  18.204  20.437   5.284
 3650POPC   PO448720  18.699  20.819   5.526
 3650POPC   GL148721  18.382  20.569   5.766
 3650POPC   GL248722  18.015  20.659   5.746
 3650POPC   C1A48723  18.444  20.481   6.192
 3650POPC   D2A48724  18.559  20.693   6.566
 3650POPC   C3A48725  18.482  20.392   6.857
 3650POPC   C4A48726  18.475  20.497   7.263
 3650POPC   C1B48727  17.960  20.661   6.192
 3650POPC   C2B48728  18.057  20.495   6.592
 3650POPC   C3B48729  18.022  20.554   7.024
 3650POPC   C4B48730  17.828  20.354   7.360
 3651POPC   NC348731   1.567  11.555   5.129
 3651POPC   PO448732   1.063  11.470   5.494
 3651POPC   GL148733   1.165  11.305   5.872
 3651POPC   GL248734   0.997  10.989   5.861
 3651POPC   C1A48735   1.080  11.295   6.296
 3651POPC   D2A48736   1.302  11.449   6.627
 3651POPC   C3A48737   1.095  11.359   6.976
 3651POPC   C4A48738   1.299  11.280   7.340
 3651POPC   C1B48739   0.998  10.795   6.276
 3651POPC   C2B48740   0.982  10.939   6.707
 3651POPC   C3B48741   0.965  10.893   7.162
 3651POPC   C4B48742   1.022  10.957   7.633
 3652POPC   NC348743  33.360  11.104   5.610
 3652POPC   PO448744  33.310  10.594   5.143
 3652POPC   GL148745  33.209  10.618   5.624
 3652POPC   GL248746  32.886  10.789   5.778
 3652POPC   C1A48747  33.240  10.645   6.114
 3652POPC   D2A48748  33.130  10.509   6.548
 3652POPC   C3A48749  33.178  10.726   6.964
 3652POPC   C4A48750  33.023  10.719   7.405
 3652POPC   C1B48751  32.700  10.774   6.236
 3652POPC   C2B48752  32.681  10.718   6.725
 3652POPC   C3B48753  32.809  10.381   7.063
 3652POPC   C4B48754  32.716  10.349   7.534
 3653POPC   NC348755  32.600  10.857   5.330
 3653POPC   PO448756  32.555  10.188   5.226
 3653POPC   GL148757  32.277  10.442   5.544
 3653POPC   GL248758  32.351  10.770   5.756
 3653POPC   C1A48759  32.138  10.361   5.990
 3653POPC   D2A48760  32.300  10.465   6.413
 3653POPC   C3A48761  32.059  10.414   6.777
 3653POPC   C4A48762  32.026  10.468   7.219
 3653POPC   C1B48763  32.126  10.870   6.130
 3653POPC   C2B48764  32.196  10.959   6.573
 3653POPC   C3B48765  32.231  10.888   7.005
 3653POPC   C4B48766  32.539  10.760   7.250
 3654POPC   NC348767   2.894  40.956   5.530
 3654POPC   PO448768   3.292  40.425   5.575
 3654POPC   GL148769   2.957  40.565   5.870
 3654POPC   GL248770   2.935  40.909   6.038
 3654POPC   C1A48771   2.760  40.486   6.262
 3654POPC   D2A48772   2.964  40.748   6.559
 3654POPC   C3A48773   2.716  41.037   6.779
 3654POPC   C4A48774   2.396  40.870   7.076
 3654POPC   C1B48775   3.283  41.127   6.248
 3654POPC   C2B48776   3.260  41.291   6.665
 3654POPC   C3B48777   3.090  41.267   7.119
 3654POPC   C4B48778   2.922  41.074   7.555
 3655POPC   NC348779  37.521  29.003   5.198
 3655POPC   PO448780  37.779  28.421   5.250
 3655POPC   GL148781  37.894  28.353   5.726
 3655POPC   GL248782  37.573  28.472   5.847
 3655POPC   C1A48783  37.876  28.252   6.190
 3655POPC   D2A48784  37.601  28.430   6.530
 3655POPC   C3A48785  37.766  28.308   6.954
 3655POPC   C4A48786  38.014  28.313   7.345
 3655POPC   C1B48787  37.255  28.642   6.155
 3655POPC   C2B48788  37.258  28.856   6.560
 3655POPC   C3B48789  37.400  28.684   6.960
 3655POPC   C4B48790  37.252  28.596   7.377
 3656POPC   NC348791   1.898   0.068   5.570
 3656POPC   PO448792   2.030   0.648   5.179
 3656POPC   GL148793   1.909   0.600   5.645
 3656POPC   GL248794   2.088   0.387   5.899
 3656POPC   C1A48795   1.712   0.661   6.092
 3656POPC   D2A48796   1.866   0.563   6.524
 3656POPC   C3A48797   1.794   0.387   6.938
 3656POPC   C4A48798   1.774   0.559   7.261
 3656POPC   C1B48799   2.274   0.338   6.313
 3656POPC   C2B48800   2.350   0.108   6.686
 3656POPC   C3B48801   2.141   0.005   7.033
 3656POPC   C4B48802   2.236   0.333   7.309
 3657POPC   NC348803  19.598   1.592   5.311
 3657POPC   PO448804  20.046   1.074   5.316
 3657POPC   GL148805  19.862   1.063   5.737
 3657POPC   GL248806  19.742   1.393   5.785
 3657POPC   C1A48807  19.800   0.893   6.180
 3657POPC   D2A48808  19.643   0.974   6.632
 3657POPC   C3A48809  19.874   0.967   7.038
 3657POPC   C4A48810  20.051   0.898   7.486
 3657POPC   C1B48811  19.518   1.338   6.191
 3657POPC   C2B48812  19.410   1.460   6.615
 3657POPC   C3B48813  19.582   1.423   7.034
 3657POPC   C4B48814  19.997   1.420   7.254
 3658POPC   NC348815   4.906  12.931   5.353
 3658POPC   PO448816   5.442  12.909   5.649
 3658POPC   GL148817   5.051  12.668   5.804
 3658POPC   GL248818   4.794  12.948   5.847
 3658POPC   C1A48819   5.027  12.419   6.226
 3658POPC   D2A48820   5.238  12.491   6.650
 3658POPC   C3A48821   5.074  12.867   6.921
 3658POPC   C4A48822   5.091  13.213   7.217
 3658POPC   C1B48823   4.642  12.751   6.216
 3658POPC   C2B48824   4.719  12.604   6.646
 3658POPC   C3B48825   4.587  12.707   7.063
 3658POPC   C4B48826   4.788  12.757   7.473
 3659POPC   NC348827  41.034   4.777   5.450
 3659POPC   PO448828  40.992   5.479   5.382
 3659POPC   GL148829  40.785   5.228   5.729
 3659POPC   GL248830  40.707   4.870   5.838
 3659POPC   C1A48831  40.779   5.244   6.189
 3659POPC   D2A48832  40.652   5.049   6.579
 3659POPC   C3A48833  40.707   5.234   6.994
 3659POPC   C4A48834  40.938   5.337   7.382
 3659POPC   C1B48835  40.990   4.776   6.227
 3659POPC   C2B48836  41.021   4.732   6.693
 3659POPC   C3B48837  41.031   4.875   7.132
 3659POPC   C4B48838  40.765   4.838   7.493
 3660POPC   NC348839  41.214  18.571   5.403
 3660POPC   PO448840  41.755  18.103   5.506
 3660POPC   GL148841  41.544  18.349   5.791
 3660POPC   GL248842  41.302  18.176   5.910
 3660POPC   C1A48843  41.636  18.438   6.214
 3660POPC   D2A48844  41.335  18.309   6.500
 3660POPC   C3A48845  41.526  18.138   6.857
 3660POPC   C4A48846  41.791  18.335   7.124
 3660POPC   C1B48847  41.143  18.591   6.086
 3660POPC   C2B48848  41.071  18.761   6.520
 3660POPC   C3B48849  41.265  18.614   6.912
 3660POPC   C4B48850  41.345  18.423   7.341
 3661POPC   NC348851  14.777  44.051   5.638
 3661POPC   PO448852  14.433  44.605   5.463
 3661POPC   GL148853  14.520  44.641   5.913
 3661POPC   GL248854  14.673  44.959   6.058
 3661POPC   C1A48855  14.334  44.407   6.276
 3661POPC   D2A48856  14.088  44.356   6.665
 3661POPC   C3A48857  14.288  44.637   6.979
 3661POPC   C4A48858  14.647  44.565   7.251
 3661POPC   C1B48859  14.817  44.639   6.339
 3661POPC   C2B48860  14.797  44.695   6.774
 3661POPC   C3B48861  14.835   0.003   7.112
 3661POPC   C4B48862  14.830   0.145   7.593
 3662POPC   NC348863  18.926  36.589   5.210
 3662POPC   PO448864  19.326  37.051   5.540
 3662POPC   GL148865  19.120  36.876   5.872
 3662POPC   GL248866  18.740  36.877   5.821
 3662POPC   C1A48867  19.297  36.925   6.303
 3662POPC   D2A48868  19.371  37.226   6.641
 3662POPC   C3A48869  19.311  37.006   7.055
 3662POPC   C4A48870  19.128  36.853   7.439
 3662POPC   C1B48871  18.803  37.038   6.255
 3662POPC   C2B48872  18.929  36.966   6.693
 3662POPC   C3B48873  18.762  37.011   7.112
 3662POPC   C4B48874  18.604  36.694   7.372
 3663POPC   NC348875   1.787  44.142   5.397
 3663POPC   PO448876   2.293  43.748   5.291
 3663POPC   GL148877   2.102  43.968   5.744
 3663POPC   GL248878   2.223  44.275   5.721
 3663POPC   C1A48879   1.967  43.808   6.220
 3663POPC   D2A48880   2.162  43.673   6.645
 3663POPC   C3A48881   1.968  43.753   7.069
 3663POPC   C4A48882   1.960  43.699   7.554
 3663POPC   C1B48883   2.104  44.295   6.156
 3663POPC   C2B48884   2.254  44.204   6.575
 3663POPC   C3B48885   2.342  44.104   6.997
 3663POPC   C4B48886   2.109  44.144   7.366
 3664POPC   NC348887  37.387   2.945   5.365
 3664POPC   PO448888  37.780   2.373   5.378
 3664POPC   GL148889  37.756   2.713   5.708
 3664POPC   GL248890  37.430   2.697   5.823
 3664POPC   C1A48891  37.822   2.916   6.152
 3664POPC   D2A48892  37.913   2.666   6.547
 3664POPC   C3A48893  38.031   2.873   6.935
 3664POPC   C4A48894  37.883   2.829   7.359
 3664POPC   C1B48895  37.504   2.525   6.230
 3664POPC   C2B48896  37.414   2.752   6.623
 3664POPC   C3B48897  37.578   2.617   7.013
 3664POPC   C4B48898  37.436   2.600   7.457
 3665POPC   NC348899  17.877  10.542   5.415
 3665POPC   PO448900  18.488  10.481   5.314
 3665POPC   GL148901  18.318  10.619   5.738
 3665POPC   GL248902  18.048  10.882   5.746
 3665POPC   C1A48903  18.289  10.388   6.147
 3665POPC   D2A48904  18.326  10.216   6.552
 3665POPC   C3A48905  18.145  10.289   6.962
 3665POPC   C4A48906  18.282  10.558   7.259
 3665POPC   C1B48907  18.170  10.880   6.171
 3665POPC   C2B48908  18.099  11.071   6.558
 3665POPC   C3B48909  18.234  10.933   6.928
 3665POPC   C4B48910  18.343  11.065   7.318
 3666POPC   NC348911  37.572  11.863   5.398
 3666POPC   PO448912  37.065  12.317   5.346
 3666POPC   GL148913  37.458  12.232   5.731
 3666POPC   GL248914  37.699  11.894   5.870
 3666POPC   C1A48915  37.742  12.322   6.125
 3666POPC   D2A48916  37.858  12.533   6.520
 3666POPC   C3A48917  37.778  12.306   6.886
 3666POPC   C4A48918  37.595  12.340   7.282
 3666POPC   C1B48919  37.728  11.773   6.326
 3666POPC   C2B48920  37.640  11.809   6.783
 3666POPC   C3B48921  37.698  11.851   7.195
 3666POPC   C4B48922  37.364  11.892   7.454
 3667POPC   NC348923  30.731  40.962   5.604
 3667POPC   PO448924  30.705  41.652   5.389
 3667POPC   GL148925  30.768  41.465   5.772
 3667POPC   GL248926  30.442  41.634   5.879
 3667POPC   C1A48927  30.750  41.395   6.234
 3667POPC   D2A48928  30.565  41.531   6.632
 3667POPC   C3A48929  30.828  41.542   6.978
 3667POPC   C4A48930  30.980  41.685   7.358
 3667POPC   C1B48931  30.199  41.570   6.271
 3667POPC   C2B48932  30.079  41.666   6.718
 3667POPC   C3B48933  30.339  41.767   7.081
 3667POPC   C4B48934  30.476  41.501   7.410
 3668POPC   NC348935   8.480  18.050   5.534
 3668POPC   PO448936   8.050  18.610   5.342
 3668POPC   GL148937   8.195  18.426   5.757
 3668POPC   GL248938   7.979  18.636   5.975
 3668POPC   C1A48939   8.136  18.171   6.141
 3668POPC   D2A48940   8.314  18.207   6.561
 3668POPC   C3A48941   8.086  18.230   6.957
 3668POPC   C4A48942   8.172  17.946   7.284
 3668POPC   C1B48943   8.403  18.605   6.199
 3668POPC   C2B48944   8.640  18.613   6.554
 3668POPC   C3B48945   8.459  18.617   6.962
 3668POPC   C4B48946   8.525  18.467   7.371
 3669POPC   NC348947  16.328  24.854   5.340
 3669POPC   PO448948  17.019  24.750   5.395
 3669POPC   GL148949  16.672  24.675   5.682
 3669POPC   GL248950  16.680  24.326   5.720
 3669POPC   C1A48951  16.523  24.686   6.116
 3669POPC   D2A48952  16.652  24.842   6.502
 3669POPC   C3A48953  16.564  24.569   6.843
 3669POPC   C4A48954  16.691  24.725   7.237
 3669POPC   C1B48955  16.998  24.472   6.051
 3669POPC   C2B48956  17.114  24.289   6.438
 3669POPC   C3B48957  17.031  24.348   6.859
 3669POPC   C4B48958  16.764  24.210   7.199
 3670POPC   NC348959  14.921   1.863   5.380
 3670POPC   PO448960  15.524   2.236   5.437
 3670POPC   GL148961  15.568   2.143   5.837
 3670POPC   GL248962  15.461   1.801   5.802
 3670POPC   C1A48963  15.359   2.166   6.245
 3670POPC   D2A48964  15.240   2.311   6.649
 3670POPC   C3A48965  15.233   2.014   6.975
 3670POPC   C4A48966  15.364   2.051   7.412
 3670POPC   C1B48967  15.667   1.747   6.200
 3670POPC   C2B48968  15.468   1.656   6.603
 3670POPC   C3B48969  15.580   1.648   7.037
 3670POPC   C4B48970  15.349   1.519   7.416
 3671POPC   NC348971  26.570  33.346   5.254
 3671POPC   PO448972  27.150  33.053   5.382
 3671POPC   GL148973  26.916  32.946   5.752
 3671POPC   GL248974  26.874  33.287   5.746
 3671POPC   C1A48975  26.677  33.047   6.177
 3671POPC   D2A48976  26.767  33.101   6.643
 3671POPC   C3A48977  26.601  32.842   7.011
 3671POPC   C4A48978  26.682  32.748   7.475
 3671POPC   C1B48979  27.149  33.288   6.116
 3671POPC   C2B48980  27.265  33.244   6.553
 3671POPC   C3B48981  27.169  33.185   6.995
 3671POPC   C4B48982  27.063  33.468   7.334
 3672POPC   NC348983  30.853  41.270   5.182
 3672POPC   PO448984  31.008  40.682   5.309
 3672POPC   GL148985  30.897  40.573   5.844
 3672POPC   GL248986  30.612  40.343   5.962
 3672POPC   C1A48987  30.989  40.707   6.251
 3672POPC   D2A48988  30.851  40.597   6.684
 3672POPC   C3A48989  30.738  40.993   6.903
 3672POPC   C4A48990  30.824  41.154   7.320
 3672POPC   C1B48991  30.482  40.636   6.285
 3672POPC   C2B48992  30.333  40.693   6.718
 3672POPC   C3B48993  30.497  40.553   7.115
 3672POPC   C4B48994  30.392  40.625   7.536
 3673POPC   NC348995   7.742  12.044   5.469
 3673POPC   PO448996   8.362  11.999   5.390
 3673POPC   GL148997   8.165  12.212   5.736
 3673POPC   GL248998   7.968  11.976   5.934
 3673POPC   C1A48999   8.230  12.358   6.164
 3673POPC   D2A49000   8.244  12.043   6.485
 3673POPC   C3A49001   8.101  12.173   6.875
 3673POPC   C4A49002   8.351  12.117   7.226
 3673POPC   C1B49003   7.866  11.727   6.304
 3673POPC   C2B49004   7.853  11.735   6.766
 3673POPC   C3B49005   7.990  11.745   7.194
 3673POPC   C4B49006   7.973  12.010   7.579
 3674POPC   NC349007  39.033  37.283   5.447
 3674POPC   PO449008  39.156  37.942   5.428
 3674POPC   GL149009  39.113  37.712   5.788
 3674POPC   GL249010  38.821  37.899   5.884
 3674POPC   C1A49011  39.244  37.593   6.209
 3674POPC   D2A49012  39.128  37.448   6.668
 3674POPC   C3A49013  39.437  37.505   7.025
 3674POPC   C4A49014  39.533  37.833   7.307
 3674POPC   C1B49015  38.777  37.894   6.312
 3674POPC   C2B49016  38.754  37.834   6.747
 3674POPC   C3B49017  39.046  37.823   7.047
 3674POPC   C4B49018  39.076  37.751   7.476
 3675POPC   NC349019  15.018   8.499   5.052
 3675POPC   PO449020  15.237   9.020   5.316
 3675POPC   GL149021  15.302   9.264   5.720
 3675POPC   GL249022  15.268   8.964   5.915
 3675POPC   C1A49023  15.484   9.339   6.162
 3675POPC   D2A49024  15.354   9.045   6.493
 3675POPC   C3A49025  15.171   9.116   6.874
 3675POPC   C4A49026  15.269   8.992   7.289
 3675POPC   C1B49027  15.111   8.673   6.218
 3675POPC   C2B49028  14.949   8.692   6.659
 3675POPC   C3B49029  14.877   8.735   7.102
 3675POPC   C4B49030  14.922   8.685   7.563
 3676POPC   NC349031  32.184  43.468   5.414
 3676POPC   PO449032  32.099  44.148   5.442
 3676POPC   GL149033  32.168  43.842   5.781
 3676POPC   GL249034  31.867  43.615   5.816
 3676POPC   C1A49035  32.377  43.724   6.207
 3676POPC   D2A49036  32.495  43.765   6.660
 3676POPC   C3A49037  32.373  44.036   7.013
 3676POPC   C4A49038  32.512  44.124   7.436
 3676POPC   C1B49039  31.897  43.870   6.207
 3676POPC   C2B49040  31.988  43.892   6.632
 3676POPC   C3B49041  32.003  43.691   7.002
 3676POPC   C4B49042  32.069  43.848   7.437
 3677POPC   NC349043  25.365  17.378   5.232
 3677POPC   PO449044  25.946  17.192   5.343
 3677POPC   GL149045  25.950  17.389   5.758
 3677POPC   GL249046  25.602  17.287   5.797
 3677POPC   C1A49047  26.049  17.241   6.202
 3677POPC   D2A49048  26.186  17.389   6.650
 3677POPC   C3A49049  26.151  17.200   7.061
 3677POPC   C4A49050  26.020  17.217   7.494
 3677POPC   C1B49051  25.564  17.392   6.266
 3677POPC   C2B49052  25.706  17.574   6.685
 3677POPC   C3B49053  25.679  17.451   7.132
 3677POPC   C4B49054  25.514  17.347   7.550
 3678POPC   NC349055  13.490  33.199   5.440
 3678POPC   PO449056  13.497  32.595   5.709
 3678POPC   GL149057  13.458  32.970   5.932
 3678POPC   GL249058  13.808  33.073   5.970
 3678POPC   C1A49059  13.429  33.090   6.375
 3678POPC   D2A49060  13.743  33.034   6.691
 3678POPC   C3A49061  13.602  33.121   7.112
 3678POPC   C4A49062  13.294  33.038   7.472
 3678POPC   C1B49063  13.754  32.696   6.275
 3678POPC   C2B49064  13.586  32.538   6.647
 3678POPC   C3B49065  13.794  32.645   7.039
 3678POPC   C4B49066  13.667  32.717   7.434
 3679POPC   NC349067  18.890  10.714   5.390
 3679POPC   PO449068  19.398  10.384   5.675
 3679POPC   GL149069  19.163  10.663   5.863
 3679POPC   GL249070  18.836  10.464   5.842
 3679POPC   C1A49071  19.171  10.624   6.293
 3679POPC   D2A49072  18.871  10.341   6.499
 3679POPC   C3A49073  19.107  10.212   6.843
 3679POPC   C4A49074  19.106  10.418   7.226
 3679POPC   C1B49075  18.681  10.712   6.164
 3679POPC   C2B49076  18.476  10.695   6.552
 3679POPC   C3B49077  18.677  10.586   6.946
 3679POPC   C4B49078  18.770  10.796   7.354
 3680POPC   NC349079  40.869   0.010   5.237
 3680POPC   PO449080  40.572  44.408   5.392
 3680POPC   GL149081  40.648  44.765   5.652
 3680POPC   GL249082  40.402  44.898   5.897
 3680POPC   C1A49083  40.849  44.709   6.035
 3680POPC   D2A49084  40.751  44.780   6.450
 3680POPC   C3A49085  41.029  44.923   6.751
 3680POPC   C4A49086  41.142  44.780   7.135
 3680POPC   C1B49087  40.407  44.476   6.155
 3680POPC   C2B49088  40.426  44.405   6.624
 3680POPC   C3B49089  40.546  44.750   6.930
 3680POPC   C4B49090  40.521   0.123   7.154
 3681POPC   NC349091   4.224  39.756   5.318
 3681POPC   PO449092   4.246  40.411   5.312
 3681POPC   GL149093   4.318  40.157   5.678
 3681POPC   GL249094   4.194  39.857   5.825
 3681POPC   C1A49095   4.354  40.251   6.112
 3681POPC   D2A49096   4.519  39.983   6.403
 3681POPC   C3A49097   4.502  40.100   6.831
 3681POPC   C4A49098   4.651  40.320   7.193
 3681POPC   C1B49099   4.033  39.849   6.241
 3681POPC   C2B49100   4.155  39.703   6.643
 3681POPC   C3B49101   4.398  39.595   6.998
 3681POPC   C4B49102   4.340  39.917   7.304
 3682POPC   NC349103   4.033  32.134   5.316
 3682POPC   PO449104   3.459  32.607   5.439
 3682POPC   GL149105   3.643  32.394   5.787
 3682POPC   GL249106   3.953  32.452   5.707
 3682POPC   C1A49107   3.571  32.270   6.209
 3682POPC   D2A49108   3.475  32.067   6.601
 3682POPC   C3A49109   3.742  31.997   6.952
 3682POPC   C4A49110   3.820  32.203   7.343
 3682POPC   C1B49111   4.079  32.274   6.112
 3682POPC   C2B49112   3.994  32.197   6.543
 3682POPC   C3B49113   4.116  32.359   6.944
 3682POPC   C4B49114   3.965  32.680   7.225
 3683POPC   NC349115  31.052  33.741   5.152
 3683POPC   PO449116  30.427  34.030   5.330
 3683POPC   GL149117  30.612  33.765   5.624
 3683POPC   GL249118  30.977  33.809   5.637
 3683POPC   C1A49119  30.705  33.788   6.073
 3683POPC   D2A49120  30.725  33.893   6.495
 3683POPC   C3A49121  30.587  33.629   6.828
 3683POPC   C4A49122  30.695  33.816   7.202
 3683POPC   C1B49123  31.171  33.623   5.994
 3683POPC   C2B49124  31.156  33.608   6.434
 3683POPC   C3B49125  31.088  33.766   6.848
 3683POPC   C4B49126  31.169  33.684   7.281
 3684POPC   NC349127   0.762  29.989   5.343
 3684POPC   PO449128   1.366  29.742   5.323
 3684POPC   GL149129   1.148  29.855   5.742
 3684POPC   GL249130   0.950  30.198   5.778
 3684POPC   C1A49131   1.333  29.900   6.187
 3684POPC   D2A49132   1.290  30.110   6.609
 3684POPC   C3A49133   1.312  29.876   6.989
 3684POPC   C4A49134   1.032  29.730   7.282
 3684POPC   C1B49135   0.877  30.126   6.222
 3684POPC   C2B49136   0.818  30.327   6.615
 3684POPC   C3B49137   0.875  30.152   7.037
 3684POPC   C4B49138   0.939  30.206   7.511
 3685POPC   NC349139  44.587   0.970   5.172
 3685POPC   PO449140  44.836   1.557   5.319
 3685POPC   GL149141  44.641   1.331   5.671
 3685POPC   GL249142  44.615   0.961   5.714
 3685POPC   C1A49143  44.529   1.418   6.106
 3685POPC   D2A49144  44.410   1.307   6.508
 3685POPC   C3A49145  44.757   1.215   6.780
 3685POPC   C4A49146  44.595   1.216   7.184
 3685POPC   C1B49147  44.416   0.906   6.144
 3685POPC   C2B49148  44.543   0.781   6.576
 3685POPC   C3B49149  44.603   0.718   7.011
 3685POPC   C4B49150  44.718   0.825   7.466
 3686POPC   NC349151  43.725  42.024   5.695
 3686POPC   PO449152  44.074  42.595   5.461
 3686POPC   GL149153  43.933  42.477   5.864
 3686POPC   GL249154  43.579  42.548   5.828
 3686POPC   C1A49155  44.012  42.277   6.297
 3686POPC   D2A49156  44.007  42.116   6.743
 3686POPC   C3A49157  44.173  42.293   7.160
 3686POPC   C4A49158  44.119  42.608   7.513
 3686POPC   C1B49159  43.483  42.287   6.223
 3686POPC   C2B49160  43.475  42.158   6.641
 3686POPC   C3B49161  43.584  42.207   7.054
 3686POPC   C4B49162  43.659  42.396   7.452
 3687POPC   NC349163  11.590  25.114   5.369
 3687POPC   PO449164  11.110  25.468   5.222
 3687POPC   GL149165  11.149  25.228   5.660
 3687POPC   GL249166  11.431  25.024   5.830
 3687POPC   C1A49167  11.007  25.202   6.116
 3687POPC   D2A49168  11.188  25.146   6.547
 3687POPC   C3A49169  10.986  24.965   6.902
 3687POPC   C4A49170  11.017  25.106   7.313
 3687POPC   C1B49171  11.598  25.138   6.231
 3687POPC   C2B49172  11.699  25.118   6.683
 3687POPC   C3B49173  11.468  25.009   7.046
 3687POPC   C4B49174  11.466  25.060   7.524
 3688POPC   NC349175  26.642  44.840   5.464
 3688POPC   PO449176  27.283  44.815   5.169
 3688POPC   GL149177  27.070  44.599   5.664
 3688POPC   GL249178  26.741  44.427   5.783
 3688POPC   C1A49179  26.859  44.762   6.126
 3688POPC   D2A49180  26.817  44.665   6.575
 3688POPC   C3A49181  26.798   0.041   6.851
 3688POPC   C4A49182  26.862  44.893   7.285
 3688POPC   C1B49183  26.459  44.465   6.208
 3688POPC   C2B49184  26.390  44.434   6.678
 3688POPC   C3B49185  26.663  44.472   7.069
 3688POPC   C4B49186  26.643  44.278   7.501
 3689POPC   NC349187   0.616  27.142   5.517
 3689POPC   PO449188   0.376  27.696   5.228
 3689POPC   GL149189   0.469  27.707   5.671
 3689POPC   GL249190   0.801  27.606   5.742
 3689POPC   C1A49191   0.388  27.475   6.075
 3689POPC   D2A49192   0.076  27.472   6.414
 3689POPC   C3A49193   0.199  27.492   6.845
 3689POPC   C4A49194   0.278  27.749   7.207
 3689POPC   C1B49195   0.710  27.875   6.106
 3689POPC   C2B49196   0.526  27.748   6.505
 3689POPC   C3B49197   0.691  27.615   6.896
 3689POPC   C4B49198   0.740  27.454   7.291
 3690POPC   NC349199   3.227  22.561   5.440
 3690POPC   PO449200   3.674  22.942   5.158
 3690POPC   GL149201   3.575  22.835   5.685
 3690POPC   GL249202   3.252  22.842   5.881
 3690POPC   C1A49203   3.752  22.670   6.093
 3690POPC   D2A49204   3.866  22.780   6.522
 3690POPC   C3A49205   3.673  22.740   6.923
 3690POPC   C4A49206   3.914  22.878   7.263
 3690POPC   C1B49207   3.466  23.078   6.230
 3690POPC   C2B49208   3.510  23.146   6.676
 3690POPC   C3B49209   3.548  23.219   7.113
 3690POPC   C4B49210   3.239  23.172   7.366
 3691POPC   NC349211  36.288   0.848   5.499
 3691POPC   PO449212  36.962   1.017   5.412
 3691POPC   GL149213  36.902   1.032   5.870
 3691POPC   GL249214  36.530   1.043   5.910
 3691POPC   C1A49215  37.165   1.169   6.242
 3691POPC   D2A49216  37.066   1.421   6.604
 3691POPC   C3A49217  37.099   1.284   7.038
 3691POPC   C4A49218  37.070   1.406   7.502
 3691POPC   C1B49219  36.659   1.217   6.308
 3691POPC   C2B49220  36.648   1.141   6.747
 3691POPC   C3B49221  36.607   1.265   7.165
 3691POPC   C4B49222  36.686   1.020   7.549
 3692POPC   NC349223  31.230   4.621   5.290
 3692POPC   PO449224  31.718   4.287   5.515
 3692POPC   GL149225  31.344   4.318   5.824
 3692POPC   GL249226  31.169   3.991   5.873
 3692POPC   C1A49227  31.272   4.292   6.293
 3692POPC   D2A49228  31.622   4.231   6.604
 3692POPC   C3A49229  31.562   4.289   7.030
 3692POPC   C4A49230  31.574   4.480   7.438
 3692POPC   C1B49231  31.594   3.934   6.101
 3692POPC   C2B49232  31.654   3.748   6.507
 3692POPC   C3B49233  31.369   3.853   6.846
 3692POPC   C4B49234  31.226   3.972   7.286
 3693POPC   NC349235   4.391  13.783   5.256
 3693POPC   PO449236   3.842  13.660   5.504
 3693POPC   GL149237   4.086  13.516   5.808
 3693POPC   GL249238   3.933  13.191   5.800
 3693POPC   C1A49239   4.278  13.621   6.222
 3693POPC   D2A49240   4.177  13.563   6.633
 3693POPC   C3A49241   4.321  13.703   7.037
 3693POPC   C4A49242   4.493  14.049   7.275
 3693POPC   C1B49243   3.894  13.279   6.218
 3693POPC   C2B49244   3.914  13.116   6.622
 3693POPC   C3B49245   3.906  13.352   7.008
 3693POPC   C4B49246   4.018  13.451   7.428
 3694POPC   NC349247   1.864  26.786   5.331
 3694POPC   PO449248   2.277  27.243   5.496
 3694POPC   GL149249   1.979  26.978   5.780
 3694POPC   GL249250   1.573  26.955   5.717
 3694POPC   C1A49251   2.070  26.687   6.117
 3694POPC   D2A49252   2.279  26.795   6.514
 3694POPC   C3A49253   2.206  26.654   6.942
 3694POPC   C4A49254   2.142  26.958   7.272
 3694POPC   C1B49255   1.552  26.789   6.125
 3694POPC   C2B49256   1.760  26.698   6.525
 3694POPC   C3B49257   1.745  26.862   6.926
 3694POPC   C4B49258   1.782  26.592   7.261
 3695POPC   NC349259   1.083   6.756   5.490
 3695POPC   PO449260   1.690   6.629   5.390
 3695POPC   GL149261   1.595   6.433   5.834
 3695POPC   GL249262   1.226   6.498   5.940
 3695POPC   C1A49263   1.532   6.311   6.315
 3695POPC   D2A49264   1.236   6.338   6.680
 3695POPC   C3A49265   1.230   6.378   7.119
 3695POPC   C4A49266   1.307   6.461   7.550
 3695POPC   C1B49267   1.261   6.747   6.360
 3695POPC   C2B49268   1.256   6.864   6.822
 3695POPC   C3B49269   1.138   6.881   7.291
 3695POPC   C4B49270   1.005   7.188   7.625
 3696POPC   NC349271  20.145  25.241   5.475
 3696POPC   PO449272  19.782  25.743   5.192
 3696POPC   GL149273  19.668  25.327   5.606
 3696POPC   GL249274  19.768  24.999   5.730
 3696POPC   C1A49275  19.570  25.303   6.086
 3696POPC   D2A49276  19.670  25.509   6.480
 3696POPC   C3A49277  19.868  25.422   6.893
 3696POPC   C4A49278  19.709  25.234   7.269
 3696POPC   C1B49279  20.026  25.075   6.111
 3696POPC   C2B49280  19.996  25.036   6.561
 3696POPC   C3B49281  19.725  24.903   6.904
 3696POPC   C4B49282  19.730  24.710   7.343
 3697POPC   NC349283  39.117  17.253   5.458
 3697POPC   PO449284  39.512  17.718   5.390
 3697POPC   GL149285  39.373  17.552   5.777
 3697POPC   GL249286  39.152  17.805   5.786
 3697POPC   C1A49287  39.125  17.457   6.193
 3697POPC   D2A49288  39.293  17.567   6.623
 3697POPC   C3A49289  39.107  17.403   7.041
 3697POPC   C4A49290  39.154  17.385   7.513
 3697POPC   C1B49291  39.434  17.865   6.173
 3697POPC   C2B49292  39.579  17.986   6.580
 3697POPC   C3B49293  39.713  17.866   6.974
 3697POPC   C4B49294  39.387  17.795   7.264
 3698POPC   NC349295  16.222  28.591   5.502
 3698POPC   PO449296  16.052  27.925   5.381
 3698POPC   GL149297  15.987  28.221   5.778
 3698POPC   GL249298  15.662  28.374   5.830
 3698POPC   C1A49299  16.141  28.499   6.162
 3698POPC   D2A49300  16.174  28.792   6.557
 3698POPC   C3A49301  16.253  28.562   6.973
 3698POPC   C4A49302  16.030  28.505   7.389
 3698POPC   C1B49303  15.651  28.373   6.292
 3698POPC   C2B49304  15.651  28.137   6.710
 3698POPC   C3B49305  15.692  28.163   7.184
 3698POPC   C4B49306  15.566  28.411   7.575
 3699POPC   NC349307  12.201  28.188   5.384
 3699POPC   PO449308  11.722  28.566   5.544
 3699POPC   GL149309  11.964  28.353   5.854
 3699POPC   GL249310  12.245  28.082   5.881
 3699POPC   C1A49311  11.930  28.234   6.267
 3699POPC   D2A49312  11.992  28.062   6.623
 3699POPC   C3A49313  11.879  28.275   6.993
 3699POPC   C4A49314  12.234  28.450   7.148
 3699POPC   C1B49315  12.436  28.091   6.314
 3699POPC   C2B49316  12.490  28.156   6.756
 3699POPC   C3B49317  12.537  28.063   7.173
 3699POPC   C4B49318  12.268  28.140   7.540
 3700POPC   NC349319   6.009  24.020   5.410
 3700POPC   PO449320   5.919  24.639   5.294
 3700POPC   GL149321   6.148  24.572   5.673
 3700POPC   GL249322   5.857  24.420   5.811
 3700POPC   C1A49323   6.163  24.696   6.137
 3700POPC   D2A49324   5.866  24.781   6.501
 3700POPC   C3A49325   5.832  24.691   6.960
 3700POPC   C4A49326   5.940  24.342   7.244
 3700POPC   C1B49327   5.842  24.279   6.254
 3700POPC   C2B49328   5.835  24.236   6.713
 3700POPC   C3B49329   5.507  24.168   7.025
 3700POPC   C4B49330   5.503  24.076   7.461
 3701POPC   NC349331  37.741  18.606   5.427
 3701POPC   PO449332  37.513  18.062   5.156
 3701POPC   GL149333  37.547  18.205   5.657
 3701POPC   GL249334  37.271  18.384   5.720
 3701POPC   C1A49335  37.757  18.031   6.094
 3701POPC   D2A49336  37.790  17.824   6.540
 3701POPC   C3A49337  37.939  18.126   6.877
 3701POPC   C4A49338  37.909  18.611   6.963
 3701POPC   C1B49339  37.258  18.072   6.054
 3701POPC   C2B49340  37.349  18.103   6.468
 3701POPC   C3B49341  37.394  18.053   6.899
 3701POPC   C4B49342  37.576  18.318   7.214
 3702POPC   NC349343  34.513  18.523   5.507
 3702POPC   PO449344  34.899  18.066   5.461
 3702POPC   GL149345  34.546  18.102   5.831
 3702POPC   GL249346  34.387  18.388   5.986
 3702POPC   C1A49347  34.304  17.920   6.196
 3702POPC   D2A49348  34.150  18.023   6.660
 3702POPC   C3A49349  34.463  18.167   6.982
 3702POPC   C4A49350  34.584  18.113   7.432
 3702POPC   C1B49351  34.530  18.323   6.421
 3702POPC   C2B49352  34.895  18.261   6.709
 3702POPC   C3B49353  34.974  18.306   7.179
 3702POPC   C4B49354  34.776  18.580   7.522
 3703POPC   NC349355  20.691  28.196   5.203
 3703POPC   PO449356  20.914  28.804   5.481
 3703POPC   GL149357  20.659  28.526   5.791
 3703POPC   GL249358  20.716  28.132   5.741
 3703POPC   C1A49359  20.332  28.467   6.176
 3703POPC   D2A49360  20.143  28.500   6.615
 3703POPC   C3A49361  20.345  28.291   6.953
 3703POPC   C4A49362  20.609  28.494   7.198
 3703POPC   C1B49363  20.788  28.229   6.182
 3703POPC   C2B49364  20.707  28.391   6.588
 3703POPC   C3B49365  20.827  28.131   6.925
 3703POPC   C4B49366  20.799  28.039   7.326
 3704POPC   NC349367  21.332  29.516   5.449
 3704POPC   PO449368  21.590  28.986   5.187
 3704POPC   GL149369  21.444  29.060   5.648
 3704POPC   GL249370  21.640  29.365   5.812
 3704POPC   C1A49371  21.230  28.980   6.055
 3704POPC   D2A49372  21.062  28.975   6.522
 3704POPC   C3A49373  21.325  28.881   6.913
 3704POPC   C4A49374  21.262  28.970   7.372
 3704POPC   C1B49375  21.465  29.393   6.249
 3704POPC   C2B49376  21.445  29.324   6.709
 3704POPC   C3B49377  21.515  29.349   7.167
 3704POPC   C4B49378  21.750  29.202   7.545
 3705POPC   NC349379   4.068  34.548   5.148
 3705POPC   PO449380   3.394  34.587   5.328
 3705POPC   GL149381   3.604  34.684   5.710
 3705POPC   GL249382   3.259  34.625   5.856
 3705POPC   C1A49383   3.653  34.652   6.168
 3705POPC   D2A49384   3.456  34.402   6.504
 3705POPC   C3A49385   3.471  34.493   6.961
 3705POPC   C4A49386   3.477  34.447   7.405
 3705POPC   C1B49387   3.183  34.887   6.230
 3705POPC   C2B49388   3.220  34.836   6.682
 3705POPC   C3B49389   3.263  34.963   7.102
 3705POPC   C4B49390   3.220  34.859   7.549
 3706POPC   NC349391  25.940  13.275   5.486
 3706POPC   PO449392  25.698  13.922   5.442
 3706POPC   GL149393  25.905  13.711   5.780
 3706POPC   GL249394  25.795  13.377   5.968
 3706POPC   C1A49395  25.949  13.831   6.206
 3706POPC   D2A49396  25.933  13.514   6.493
 3706POPC   C3A49397  26.172  13.610   6.841
 3706POPC   C4A49398  26.109  13.616   7.259
 3706POPC   C1B49399  26.230  13.409   6.081
 3706POPC   C2B49400  26.447  13.351   6.466
 3706POPC   C3B49401  26.359  13.137   6.811
 3706POPC   C4B49402  26.213  13.116   7.221
 3707POPC   NC349403  27.969  35.526   5.362
 3707POPC   PO449404  28.548  35.145   5.147
 3707POPC   GL149405  28.568  35.438   5.586
 3707POPC   GL249406  28.255  35.431   5.768
 3707POPC   C1A49407  28.642  35.428   6.101
 3707POPC   D2A49408  28.526  35.433   6.576
 3707POPC   C3A49409  28.270  35.126   6.838
 3707POPC   C4A49410  28.177  35.188   7.292
 3707POPC   C1B49411  28.126  35.620   6.173
 3707POPC   C2B49412  28.004  35.531   6.600
 3707POPC   C3B49413  28.223  35.611   6.992
 3707POPC   C4B49414  28.157  35.681   7.430
 3708POPC   NC349415   7.029  13.608   5.370
 3708POPC   PO449416   6.388  13.705   5.407
 3708POPC   GL149417   6.496  13.499   5.815
 3708POPC   GL249418   6.840  13.584   5.840
 3708POPC   C1A49419   6.486  13.375   6.275
 3708POPC   D2A49420   6.657  13.588   6.625
 3708POPC   C3A49421   6.447  13.618   7.035
 3708POPC   C4A49422   6.496  13.705   7.478
 3708POPC   C1B49423   6.999  13.564   6.237
 3708POPC   C2B49424   7.176  13.548   6.639
 3708POPC   C3B49425   6.972  13.687   7.000
 3708POPC   C4B49426   6.857  13.427   7.268
 3709POPC   NC349427  40.170  38.690   5.402
 3709POPC   PO449428  39.754  38.236   5.518
 3709POPC   GL149429  39.924  38.514   5.828
 3709POPC   GL249430  40.132  38.793   5.895
 3709POPC   C1A49431  39.994  38.458   6.252
 3709POPC   D2A49432  39.779  38.228   6.522
 3709POPC   C3A49433  39.783  38.495   6.834
 3709POPC   C4A49434  40.036  38.656   7.144
 3709POPC   C1B49435  40.428  38.772   6.238
 3709POPC   C2B49436  40.315  38.754   6.692
 3709POPC   C3B49437  40.372  39.008   7.075
 3709POPC   C4B49438  40.231  38.984   7.508
 3710POPC   NC349439  42.016  24.475   5.289
 3710POPC   PO449440  42.442  24.888   5.616
 3710POPC   GL149441  42.440  24.480   5.809
 3710POPC   GL249442  42.120  24.328   5.772
 3710POPC   C1A49443  42.559  24.437   6.220
 3710POPC   D2A49444  42.364  24.635   6.540
 3710POPC   C3A49445  42.531  24.478   6.910
 3710POPC   C4A49446  42.336  24.449   7.314
 3710POPC   C1B49447  42.128  24.153   6.179
 3710POPC   C2B49448  42.332  24.113   6.584
 3710POPC   C3B49449  42.116  24.148   6.975
 3710POPC   C4B49450  41.812  23.884   7.160
 3711POPC   NC349451  42.572  35.334   5.435
 3711POPC   PO449452  43.202  35.356   5.084
 3711POPC   GL149453  43.150  35.361   5.644
 3711POPC   GL249454  43.437  35.384   5.859
 3711POPC   C1A49455  43.032  35.310   6.134
 3711POPC   D2A49456  43.206  35.413   6.570
 3711POPC   C3A49457  42.939  35.304   6.906
 3711POPC   C4A49458  42.894  35.550   7.258
 3711POPC   C1B49459  43.487  35.650   6.219
 3711POPC   C2B49460  43.528  35.838   6.632
 3711POPC   C3B49461  43.337  35.706   7.019
 3711POPC   C4B49462  43.437  35.591   7.446
 3712POPC   NC349463  38.205  33.793   5.430
 3712POPC   PO449464  38.827  33.498   5.508
 3712POPC   GL149465  38.580  33.703   5.786
 3712POPC   GL249466  38.766  33.932   5.958
 3712POPC   C1A49467  38.353  33.620   6.163
 3712POPC   D2A49468  38.091  33.510   6.493
 3712POPC   C3A49469  38.294  33.575   6.906
 3712POPC   C4A49470  38.496  33.726   7.304
 3712POPC   C1B49471  38.366  34.119   6.113
 3712POPC   C2B49472  38.281  33.996   6.530
 3712POPC   C3B49473  38.360  34.077   6.949
 3712POPC   C4B49474  38.093  34.138   7.256
 3713POPC   NC349475  16.576  22.084   5.238
 3713POPC   PO449476  17.290  22.197   5.234
 3713POPC   GL149477  17.083  22.144   5.662
 3713POPC   GL249478  16.739  22.030   5.724
 3713POPC   C1A49479  16.956  22.265   6.122
 3713POPC   D2A49480  16.843  22.026   6.523
 3713POPC   C3A49481  17.049  22.188   6.917
 3713POPC   C4A49482  16.850  22.225   7.294
 3713POPC   C1B49483  16.488  22.026   6.120
 3713POPC   C2B49484  16.297  22.065   6.514
 3713POPC   C3B49485  16.479  22.101   6.921
 3713POPC   C4B49486  16.434  21.933   7.337
 3714POPC   NC349487   4.775   9.105   5.432
 3714POPC   PO449488   5.395   8.872   5.339
 3714POPC   GL149489   5.201   9.062   5.737
 3714POPC   GL249490   4.968   8.783   5.830
 3714POPC   C1A49491   5.078   9.149   6.194
 3714POPC   D2A49492   5.234   9.268   6.583
 3714POPC   C3A49493   5.034   9.183   6.967
 3714POPC   C4A49494   4.863   9.122   7.386
 3714POPC   C1B49495   5.331   8.712   6.135
 3714POPC   C2B49496   5.306   8.742   6.593
 3714POPC   C3B49497   5.092   8.693   6.989
 3714POPC   C4B49498   5.182   8.478   7.335
 3715POPC   NC349499   2.542  37.134   5.391
 3715POPC   PO449500   3.010  36.665   5.472
 3715POPC   GL149501   2.902  36.918   5.802
 3715POPC   GL249502   2.558  36.829   5.840
 3715POPC   C1A49503   2.899  36.772   6.241
 3715POPC   D2A49504   2.617  36.643   6.585
 3715POPC   C3A49505   2.897  36.739   6.915
 3715POPC   C4A49506   3.042  36.920   7.272
 3715POPC   C1B49507   2.330  36.912   6.225
 3715POPC   C2B49508   2.308  37.073   6.658
 3715POPC   C3B49509   2.384  36.815   7.052
 3715POPC   C4B49510   2.575  36.942   7.486
 3716POPC   NC349511  27.691   1.800   5.416
 3716POPC   PO449512  27.698   2.523   5.260
 3716POPC   GL149513  27.775   2.230   5.650
 3716POPC   GL249514  27.443   2.182   5.772
 3716POPC   C1A49515  27.814   2.180   6.104
 3716POPC   D2A49516  27.998   2.231   6.480
 3716POPC   C3A49517  27.786   2.039   6.821
 3716POPC   C4A49518  27.736   2.119   7.238
 3716POPC   C1B49519  27.298   2.071   6.209
 3716POPC   C2B49520  27.316   1.918   6.650
 3716POPC   C3B49521  27.224   1.990   7.095
 3716POPC   C4B49522  27.347   1.862   7.524
 3717POPC   NC349523  15.329   4.190   5.185
 3717POPC   PO449524  14.955   3.703   5.307
 3717POPC   GL149525  15.177   3.953   5.679
 3717POPC   GL249526  15.368   4.284   5.689
 3717POPC   C1A49527  15.135   4.017   6.143
 3717POPC   D2A49528  15.374   3.991   6.518
 3717POPC   C3A49529  15.160   4.019   6.898
 3717POPC   C4A49530  15.295   4.175   7.289
 3717POPC   C1B49531  15.268   4.517   6.073
 3717POPC   C2B49532  15.171   4.446   6.510
 3717POPC   C3B49533  15.103   4.569   6.908
 3717POPC   C4B49534  14.929   4.972   7.104
 3718POPC   NC349535  35.927  34.888   5.347
 3718POPC   PO449536  36.521  34.493   5.492
 3718POPC   GL149537  36.230  34.617   5.827
 3718POPC   GL249538  35.936  34.441   5.656
 3718POPC   C1A49539  36.281  34.640   6.316
 3718POPC   D2A49540  36.131  34.887   6.667
 3718POPC   C3A49541  36.084  34.674   7.036
 3718POPC   C4A49542  36.189  34.237   7.074
 3718POPC   C1B49543  35.824  34.461   6.135
 3718POPC   C2B49544  35.914  34.385   6.595
 3718POPC   C3B49545  35.688  34.366   6.991
 3718POPC   C4B49546  35.683  34.583   7.424
 3719POPC   NC349547  35.568  41.505   5.385
 3719POPC   PO449548  35.049  41.820   5.436
 3719POPC   GL149549  34.975  41.686   5.829
 3719POPC   GL249550  35.329  41.621   5.853
 3719POPC   C1A49551  35.074  41.820   6.256
 3719POPC   D2A49552  35.375  41.792   6.588
 3719POPC   C3A49553  35.319  41.399   6.768
 3719POPC   C4A49554  35.237  41.429   7.184
 3719POPC   C1B49555  35.647  41.682   6.162
 3719POPC   C2B49556  35.899  41.455   6.473
 3719POPC   C3B49557  35.828  41.400   6.904
 3719POPC   C4B49558  35.682  41.766   7.116
 3720POPC   NC349559   2.014  43.497   5.596
 3720POPC   PO449560   1.967  42.815   5.446
 3720POPC   GL149561   2.035  43.037   5.818
 3720POPC   GL249562   2.202  42.802   5.970
 3720POPC   C1A49563   2.107  43.225   6.247
 3720POPC   D2A49564   2.069  43.068   6.637
 3720POPC   C3A49565   2.172  43.285   7.008
 3720POPC   C4A49566   1.783  43.321   7.240
 3720POPC   C1B49567   2.415  42.787   6.361
 3720POPC   C2B49568   2.359  42.679   6.783
 3720POPC   C3B49569   2.036  42.804   7.077
 3720POPC   C4B49570   2.384  42.885   7.288
 3721POPC   NC349571   7.821  13.865   4.912
 3721POPC   PO449572   8.287  13.544   5.302
 3721POPC   GL149573   8.210  13.741   5.709
 3721POPC   GL249574   8.545  13.806   5.803
 3721POPC   C1A49575   7.921  13.703   6.089
 3721POPC   D2A49576   7.995  13.491   6.482
 3721POPC   C3A49577   7.974  13.591   6.952
 3721POPC   C4A49578   8.219  13.934   7.164
 3721POPC   C1B49579   8.398  13.843   6.227
 3721POPC   C2B49580   8.330  13.853   6.657
 3721POPC   C3B49581   8.473  13.543   6.950
 3721POPC   C4B49582   8.640  13.627   7.324
 3722POPC   NC349583  24.230  16.236   5.447
 3722POPC   PO449584  24.812  15.907   5.389
 3722POPC   GL149585  24.607  15.843   5.797
 3722POPC   GL249586  24.763  15.518   5.869
 3722POPC   C1A49587  24.420  16.115   6.112
 3722POPC   D2A49588  24.284  16.421   6.439
 3722POPC   C3A49589  24.340  16.333   6.880
 3722POPC   C4A49590  24.386  15.972   7.108
 3722POPC   C1B49591  24.738  15.682   6.305
 3722POPC   C2B49592  24.591  15.657   6.758
 3722POPC   C3B49593  24.598  15.515   7.225
 3722POPC   C4B49594  24.859  15.563   7.597
 3723POPC   NC349595  29.237  15.466   5.461
 3723POPC   PO449596  28.998  14.864   5.634
 3723POPC   GL149597  29.331  15.049   5.857
 3723POPC   GL249598  29.247  15.395   5.959
 3723POPC   C1A49599  29.510  15.093   6.270
 3723POPC   D2A49600  29.342  15.267   6.625
 3723POPC   C3A49601  29.135  14.967   6.872
 3723POPC   C4A49602  29.143  14.865   7.297
 3723POPC   C1B49603  28.958  15.160   6.234
 3723POPC   C2B49604  28.817  15.291   6.632
 3723POPC   C3B49605  29.051  15.457   7.009
 3723POPC   C4B49606  29.203  15.421   7.464
 3724POPC   NC349607   8.351  38.391   5.422
 3724POPC   PO449608   7.776  38.778   5.323
 3724POPC   GL149609   7.921  38.551   5.701
 3724POPC   GL249610   8.256  38.626   5.849
 3724POPC   C1A49611   7.779  38.505   6.125
 3724POPC   D2A49612   7.841  38.785   6.476
 3724POPC   C3A49613   7.927  38.564   6.857
 3724POPC   C4A49614   8.092  38.739   7.217
 3724POPC   C1B49615   8.348  38.272   6.103
 3724POPC   C2B49616   8.467  38.251   6.522
 3724POPC   C3B49617   8.426  38.485   6.884
 3724POPC   C4B49618   8.229  38.211   7.177
 3725POPC   NC349619  37.146  18.307   5.233
 3725POPC   PO449620  36.523  18.096   5.401
 3725POPC   GL149621  36.755  18.383   5.666
 3725POPC   GL249622  36.842  18.054   5.794
 3725POPC   C1A49623  36.928  18.470   6.099
 3725POPC   D2A49624  36.923  18.414   6.555
 3725POPC   C3A49625  37.169  18.517   6.942
 3725POPC   C4A49626  37.016  18.526   7.379
 3725POPC   C1B49627  36.780  17.969   6.233
 3725POPC   C2B49628  36.925  17.879   6.653
 3725POPC   C3B49629  36.871  18.124   7.003
 3725POPC   C4B49630  36.721  18.065   7.369
 3726POPC   NC349631  42.789   4.219   5.415
 3726POPC   PO449632  43.397   4.189   5.164
 3726POPC   GL149633  43.312   4.252   5.660
 3726POPC   GL249634  42.995   4.432   5.843
 3726POPC   C1A49635  43.298   4.175   6.155
 3726POPC   D2A49636  43.324   4.361   6.618
 3726POPC   C3A49637  43.193   4.243   7.061
 3726POPC   C4A49638  43.062   4.382   7.503
 3726POPC   C1B49639  42.893   4.439   6.329
 3726POPC   C2B49640  42.862   4.569   6.794
 3726POPC   C3B49641  42.732   4.707   7.234
 3726POPC   C4B49642  42.618   4.574   7.676
 3727POPC   NC349643  12.576  27.774   5.099
 3727POPC   PO449644  12.862  27.316   5.566
 3727POPC   GL149645  12.610  27.615   5.816
 3727POPC   GL249646  12.747  27.947   5.905
 3727POPC   C1A49647  12.641  27.610   6.272
 3727POPC   D2A49648  12.793  27.738   6.680
 3727POPC   C3A49649  12.611  27.575   7.056
 3727POPC   C4A49650  12.846  27.342   7.338
 3727POPC   C1B49651  13.044  27.953   6.278
 3727POPC   C2B49652  13.229  27.986   6.725
 3727POPC   C3B49653  13.020  27.927   7.140
 3727POPC   C4B49654  13.097  27.858   7.597
 3728POPC   NC349655  30.754  29.534   5.749
 3728POPC   PO449656  30.947  28.985   5.408
 3728POPC   GL149657  30.875  29.012   5.850
 3728POPC   GL249658  30.500  29.097   5.887
 3728POPC   C1A49659  30.882  29.160   6.289
 3728POPC   D2A49660  30.648  29.250   6.651
 3728POPC   C3A49661  30.861  29.338   7.023
 3728POPC   C4A49662  30.603  29.386   7.347
 3728POPC   C1B49663  30.463  28.863   6.299
 3728POPC   C2B49664  30.791  28.734   6.621
 3728POPC   C3B49665  30.694  28.734   7.058
 3728POPC   C4B49666  30.493  28.881   7.420
 3729POPC   NC349667   9.131  11.316   5.480
 3729POPC   PO449668   8.860  11.779   5.125
 3729POPC   GL149669   8.824  11.722   5.643
 3729POPC   GL249670   8.595  11.927   5.852
 3729POPC   C1A49671   8.964  11.532   6.065
 3729POPC   D2A49672   9.029  11.566   6.527
 3729POPC   C3A49673   8.976  11.274   6.887
 3729POPC   C4A49674   9.305  11.250   7.214
 3729POPC   C1B49675   8.735  11.917   6.295
 3729POPC   C2B49676   8.795  11.933   6.778
 3729POPC   C3B49677   9.014  11.725   7.105
 3729POPC   C4B49678   8.891  11.467   7.474
 3730POPC   NC349679  15.016  18.474   5.027
 3730POPC   PO449680  15.382  18.176   5.510
 3730POPC   GL149681  15.232  18.191   5.892
 3730POPC   GL249682  15.274  18.560   5.844
 3730POPC   C1A49683  15.091  18.054   6.311
 3730POPC   D2A49684  14.926  18.032   6.757
 3730POPC   C3A49685  15.202  17.969   7.114
 3730POPC   C4A49686  15.428  17.948   7.512
 3730POPC   C1B49687  15.089  18.596   6.227
 3730POPC   C2B49688  15.066  18.516   6.653
 3730POPC   C3B49689  15.143  18.505   7.109
 3730POPC   C4B49690  15.467  18.616   7.417
 3731POPC   NC349691  28.339  17.068   5.355
 3731POPC   PO449692  28.174  17.687   5.302
 3731POPC   GL149693  28.254  17.491   5.712
 3731POPC   GL249694  27.984  17.303   5.806
 3731POPC   C1A49695  28.420  17.458   6.159
 3731POPC   D2A49696  28.574  17.640   6.566
 3731POPC   C3A49697  28.379  17.422   6.952
 3731POPC   C4A49698  28.394  17.605   7.395
 3731POPC   C1B49699  27.962  17.208   6.231
 3731POPC   C2B49700  28.069  17.096   6.672
 3731POPC   C3B49701  28.013  17.080   7.118
 3731POPC   C4B49702  27.927  17.392   7.453
 3732POPC   NC349703   7.566  11.091   5.481
 3732POPC   PO449704   7.520  11.708   5.712
 3732POPC   GL149705   7.495  11.348   5.977
 3732POPC   GL249706   7.204  11.138   5.907
 3732POPC   C1A49707   7.531  11.336   6.433
 3732POPC   D2A49708   7.573  11.073   6.793
 3732POPC   C3A49709   7.642  11.361   7.116
 3732POPC   C4A49710   7.400  11.725   7.004
 3732POPC   C1B49711   7.042  11.273   6.316
 3732POPC   C2B49712   7.097  11.383   6.760
 3732POPC   C3B49713   7.192  11.121   7.118
 3732POPC   C4B49714   7.340  10.728   7.169
 3733POPC   NC349715  13.430  15.821   5.430
 3733POPC   PO449716  13.816  16.331   5.550
 3733POPC   GL149717  13.691  16.073   5.869
 3733POPC   GL249718  13.874  15.785   5.785
 3733POPC   C1A49719  13.642  16.166   6.319
 3733POPC   D2A49720  13.593  16.325   6.761
 3733POPC   C3A49721  13.486  15.971   7.023
 3733POPC   C4A49722  13.329  15.543   7.021
 3733POPC   C1B49723  13.777  15.671   6.214
 3733POPC   C2B49724  13.829  15.718   6.669
 3733POPC   C3B49725  13.840  15.545   7.099
 3733POPC   C4B49726  13.767  15.834   7.443
 3734POPC   NC349727  12.647  23.905   5.445
 3734POPC   PO449728  13.203  23.388   5.421
 3734POPC   GL149729  12.966  23.600   5.744
 3734POPC   GL249730  12.685  23.357   5.661
 3734POPC   C1A49731  12.818  23.922   6.086
 3734POPC   D2A49732  12.542  24.008   6.463
 3734POPC   C3A49733  12.734  24.026   6.889
 3734POPC   C4A49734  12.816  23.860   7.310
 3734POPC   C1B49735  12.760  23.263   6.067
 3734POPC   C2B49736  12.782  23.541   6.429
 3734POPC   C3B49737  12.779  23.515   6.882
 3734POPC   C4B49738  12.621  23.374   7.272
 3735POPC   NC349739   6.519  31.998   5.418
 3735POPC   PO449740   6.888  32.558   5.206
 3735POPC   GL149741   6.766  32.403   5.649
 3735POPC   GL249742   6.396  32.352   5.755
 3735POPC   C1A49743   6.861  32.394   6.103
 3735POPC   D2A49744   6.840  32.083   6.468
 3735POPC   C3A49745   6.866  32.252   6.889
 3735POPC   C4A49746   7.055  32.657   7.100
 3735POPC   C1B49747   6.443  32.101   6.111
 3735POPC   C2B49748   6.352  32.235   6.525
 3735POPC   C3B49749   6.337  32.208   6.948
 3735POPC   C4B49750   6.479  31.992   7.293
 3736POPC   NC349751  31.978  36.769   5.263
 3736POPC   PO449752  32.613  37.068   5.214
 3736POPC   GL149753  32.488  36.865   5.638
 3736POPC   GL249754  32.137  36.771   5.744
 3736POPC   C1A49755  32.471  36.852   6.116
 3736POPC   D2A49756  32.287  36.805   6.533
 3736POPC   C3A49757  32.408  36.962   6.951
 3736POPC   C4A49758  32.295  36.721   7.332
 3736POPC   C1B49759  31.954  37.012   6.103
 3736POPC   C2B49760  31.780  36.934   6.532
 3736POPC   C3B49761  31.910  36.760   6.933
 3736POPC   C4B49762  31.989  37.099   7.194
 3737POPC   NC349763   4.585  40.594   5.577
 3737POPC   PO449764   4.087  40.998   5.376
 3737POPC   GL149765   4.239  40.946   5.744
 3737POPC   GL249766   4.113  40.609   5.797
 3737POPC   C1A49767   4.361  40.885   6.164
 3737POPC   D2A49768   4.194  40.900   6.557
 3737POPC   C3A49769   4.422  40.665   6.837
 3737POPC   C4A49770   4.389  40.754   7.240
 3737POPC   C1B49771   3.957  40.575   6.213
 3737POPC   C2B49772   4.064  40.363   6.616
 3737POPC   C3B49773   4.114  40.325   7.091
 3737POPC   C4B49774   4.128  40.427   7.542
 3738POPC   NC349775  28.656  29.725   5.446
 3738POPC   PO449776  28.298  30.267   5.362
 3738POPC   GL149777  28.189  30.062   5.752
 3738POPC   GL249778  28.225  29.693   5.794
 3738POPC   C1A49779  28.333  29.994   6.185
 3738POPC   D2A49780  28.454  29.776   6.535
 3738POPC   C3A49781  28.490  29.967   6.919
 3738POPC   C4A49782  28.187  29.877   7.233
 3738POPC   C1B49783  28.448  29.444   6.128
 3738POPC   C2B49784  28.589  29.304   6.539
 3738POPC   C3B49785  28.443  29.441   6.971
 3738POPC   C4B49786  28.665  29.664   7.311
 3739POPC   NC349787  15.215  20.518   5.241
 3739POPC   PO449788  15.188  19.779   5.385
 3739POPC   GL149789  15.080  19.868   5.802
 3739POPC   GL249790  15.379  19.927   6.018
 3739POPC   C1A49791  14.981  19.625   6.164
 3739POPC   D2A49792  15.243  19.695   6.540
 3739POPC   C3A49793  14.961  19.665   6.891
 3739POPC   C4A49794  14.823  19.753   7.296
 3739POPC   C1B49795  15.084  20.122   6.285
 3739POPC   C2B49796  15.091  20.322   6.674
 3739POPC   C3B49797  15.076  20.151   7.072
 3739POPC   C4B49798  15.341  20.048   7.443
 3740POPC   NC349799  40.806  23.406   5.375
 3740POPC   PO449800  40.849  22.802   5.302
 3740POPC   GL149801  40.748  23.001   5.701
 3740POPC   GL249802  41.034  22.814   5.834
 3740POPC   C1A49803  40.603  22.868   6.111
 3740POPC   D2A49804  40.591  23.000   6.519
 3740POPC   C3A49805  40.619  22.721   6.854
 3740POPC   C4A49806  40.563  22.720   7.280
 3740POPC   C1B49807  41.162  22.998   6.235
 3740POPC   C2B49808  41.074  22.995   6.693
 3740POPC   C3B49809  41.039  22.947   7.136
 3740POPC   C4B49810  41.155  23.391   7.165
 3741POPC   NC349811  20.390  31.652   5.460
 3741POPC   PO449812  20.690  31.213   4.996
 3741POPC   GL149813  20.734  31.285   5.527
 3741POPC   GL249814  20.899  31.602   5.642
 3741POPC   C1A49815  20.580  31.410   6.032
 3741POPC   D2A49816  20.701  31.291   6.503
 3741POPC   C3A49817  20.590  31.430   6.912
 3741POPC   C4A49818  20.486  31.389   7.331
 3741POPC   C1B49819  20.901  31.826   6.051
 3741POPC   C2B49820  20.725  31.833   6.470
 3741POPC   C3B49821  20.902  31.825   6.869
 3741POPC   C4B49822  20.958  31.617   7.299
 3742POPC   NC349823  14.679  28.429   5.468
 3742POPC   PO449824  14.309  27.965   5.155
 3742POPC   GL149825  14.434  28.044   5.649
 3742POPC   GL249826  14.141  28.240   5.766
 3742POPC   C1A49827  14.512  28.321   6.104
 3742POPC   D2A49828  14.530  28.500   6.561
 3742POPC   C3A49829  14.676  28.222   6.930
 3742POPC   C4A49830  14.699  28.370   7.371
 3742POPC   C1B49831  14.054  28.084   6.192
 3742POPC   C2B49832  14.243  28.092   6.598
 3742POPC   C3B49833  14.213  28.387   6.981
 3742POPC   C4B49834  14.253  28.084   7.334
 3743POPC   NC349835   2.902  35.749   5.325
 3743POPC   PO449836   2.558  35.132   5.390
 3743POPC   GL149837   2.748  35.363   5.768
 3743POPC   GL249838   3.084  35.561   5.818
 3743POPC   C1A49839   2.855  35.380   6.215
 3743POPC   D2A49840   2.685  35.510   6.595
 3743POPC   C3A49841   2.868  35.412   6.992
 3743POPC   C4A49842   2.692  35.515   7.409
 3743POPC   C1B49843   3.045  35.841   6.247
 3743POPC   C2B49844   3.067  35.835   6.729
 3743POPC   C3B49845   3.091  35.855   7.195
 3743POPC   C4B49846   2.891  35.948   7.589
 3744POPC   NC349847   9.281  22.959   5.421
 3744POPC   PO449848   8.606  22.685   5.529
 3744POPC   GL149849   8.977  22.813   5.813
 3744POPC   GL249850   8.880  23.143   5.859
 3744POPC   C1A49851   9.172  22.897   6.275
 3744POPC   D2A49852   9.023  22.720   6.709
 3744POPC   C3A49853   9.060  22.955   7.122
 3744POPC   C4A49854   9.297  22.816   7.540
 3744POPC   C1B49855   8.661  22.869   6.209
 3744POPC   C2B49856   8.570  23.045   6.618
 3744POPC   C3B49857   8.540  22.945   7.026
 3744POPC   C4B49858   8.691  22.595   7.188
 3745POPC   NC349859  43.541  30.490   5.510
 3745POPC   PO449860  43.907  31.132   5.450
 3745POPC   GL149861  44.018  30.816   5.767
 3745POPC   GL249862  44.118  30.472   5.875
 3745POPC   C1A49863  44.185  30.897   6.183
 3745POPC   D2A49864  44.257  30.610   6.501
 3745POPC   C3A49865  43.990  30.660   6.864
 3745POPC   C4A49866  43.842  30.615   7.291
 3745POPC   C1B49867  43.798  30.544   6.208
 3745POPC   C2B49868  43.547  30.388   6.569
 3745POPC   C3B49869  43.529  30.292   7.033
 3745POPC   C4B49870  43.496  30.339   7.545
 3746POPC   NC349871  12.634  24.740   5.478
 3746POPC   PO449872  13.023  24.195   5.420
 3746POPC   GL149873  13.027  24.346   5.798
 3746POPC   GL249874  12.694  24.371   5.844
 3746POPC   C1A49875  13.179  24.300   6.196
 3746POPC   D2A49876  13.026  24.331   6.587
 3746POPC   C3A49877  13.220  24.216   6.958
 3746POPC   C4A49878  13.139  24.365   7.380
 3746POPC   C1B49879  12.674  24.487   6.246
 3746POPC   C2B49880  12.546  24.481   6.665
 3746POPC   C3B49881  12.825  24.538   7.013
 3746POPC   C4B49882  12.776  24.715   7.454
 3747POPC   NC349883  25.655  33.673   5.480
 3747POPC   PO449884  25.148  33.878   5.171
 3747POPC   GL149885  25.170  33.910   5.682
 3747POPC   GL249886  25.429  33.749   5.914
 3747POPC   C1A49887  25.028  33.964   6.175
 3747POPC   D2A49888  24.844  34.127   6.613
 3747POPC   C3A49889  25.049  33.982   7.039
 3747POPC   C4A49890  25.362  33.600   7.106
 3747POPC   C1B49891  25.521  34.093   6.208
 3747POPC   C2B49892  25.377  34.048   6.637
 3747POPC   C3B49893  25.579  34.060   7.042
 3747POPC   C4B49894  25.755  33.830   7.382
 3748POPC   NC349895   5.342   2.170   5.470
 3748POPC   PO449896   5.167   1.500   5.520
 3748POPC   GL149897   4.926   1.705   5.820
 3748POPC   GL249898   5.065   2.047   5.898
 3748POPC   C1A49899   5.032   1.699   6.254
 3748POPC   D2A49900   5.043   1.985   6.579
 3748POPC   C3A49901   4.875   1.836   6.950
 3748POPC   C4A49902   5.133   1.787   7.290
 3748POPC   C1B49903   5.305   2.307   6.208
 3748POPC   C2B49904   5.444   2.296   6.633
 3748POPC   C3B49905   5.202   2.292   7.002
 3748POPC   C4B49906   4.749   2.326   6.996
 3749POPC   NC349907  20.475  44.934   5.363
 3749POPC   PO449908  20.665  44.274   5.298
 3749POPC   GL149909  20.569  44.508   5.709
 3749POPC   GL249910  20.705  44.837   5.825
 3749POPC   C1A49911  20.470  44.573   6.173
 3749POPC   D2A49912  20.406  44.700   6.605
 3749POPC   C3A49913  20.531  44.681   7.053
 3749POPC   C4A49914  20.484  44.579   7.517
 3749POPC   C1B49915  20.490   0.079   6.192
 3749POPC   C2B49916  20.281   0.184   6.608
 3749POPC   C3B49917  20.471   0.184   7.007
 3749POPC   C4B49918  20.410   0.061   7.424
 3750POPC   NC349919  15.764   4.560   5.467
 3750POPC   PO449920  15.971   5.136   5.587
 3750POPC   GL149921  16.182   4.959   5.946
 3750POPC   GL249922  16.141   4.574   5.877
 3750POPC   C1A49923  16.029   5.042   6.401
 3750POPC   D2A49924  15.765   5.284   6.750
 3750POPC   C3A49925  15.918   5.117   7.171
 3750POPC   C4A49926  16.273   4.799   7.177
 3750POPC   C1B49927  15.774   4.655   6.105
 3750POPC   C2B49928  15.591   4.754   6.463
 3750POPC   C3B49929  15.745   4.776   6.852
 3750POPC   C4B49930  15.489   4.736   7.206
 3751POPC   NC349931  43.247  39.896   5.454
 3751POPC   PO449932  42.671  40.093   5.192
 3751POPC   GL149933  42.808  40.096   5.681
 3751POPC   GL249934  43.118  39.977   5.919
 3751POPC   C1A49935  42.787  40.257   6.141
 3751POPC   D2A49936  42.883  40.422   6.558
 3751POPC   C3A49937  42.785  40.185   6.961
 3751POPC   C4A49938  42.953  39.810   7.187
 3751POPC   C1B49939  43.313  40.340   6.157
 3751POPC   C2B49940  43.412  40.397   6.598
 3751POPC   C3B49941  43.316  40.180   6.994
 3751POPC   C4B49942  43.307  40.079   7.433
 3752POPC   NC349943  28.973  25.801   5.658
 3752POPC   PO449944  29.327  26.288   5.506
 3752POPC   GL149945  29.371  26.089   5.879
 3752POPC   GL249946  29.483  25.743   5.841
 3752POPC   C1A49947  29.219  26.139   6.279
 3752POPC   D2A49948  29.185  26.372   6.635
 3752POPC   C3A49949  29.230  26.124   6.976
 3752POPC   C4A49950  28.889  26.202   7.218
 3752POPC   C1B49951  29.348  25.646   6.258
 3752POPC   C2B49952  29.057  25.461   6.565
 3752POPC   C3B49953  29.042  25.633   6.992
 3752POPC   C4B49954  29.159  25.814   7.390
 3753POPC   NC349955   2.130  18.608   5.229
 3753POPC   PO449956   1.742  18.129   5.430
 3753POPC   GL149957   1.951  18.387   5.729
 3753POPC   GL249958   1.733  18.646   5.885
 3753POPC   C1A49959   2.184  18.270   6.128
 3753POPC   D2A49960   2.267  18.095   6.572
 3753POPC   C3A49961   2.204  18.363   6.946
 3753POPC   C4A49962   2.201  18.361   7.398
 3753POPC   C1B49963   1.701  18.358   6.267
 3753POPC   C2B49964   1.703  18.109   6.652
 3753POPC   C3B49965   1.869  17.982   7.029
 3753POPC   C4B49966   1.820  18.041   7.473
 3754POPC   NC349967  31.698   1.483   5.266
 3754POPC   PO449968  32.378   1.300   5.350
 3754POPC   GL149969  32.207   1.220   5.750
 3754POPC   GL249970  32.532   1.292   5.852
 3754POPC   C1A49971  32.180   1.253   6.219
 3754POPC   D2A49972  32.335   1.071   6.627
 3754POPC   C3A49973  32.487   1.372   6.948
 3754POPC   C4A49974  32.371   1.391   7.396
 3754POPC   C1B49975  32.647   0.998   6.178
 3754POPC   C2B49976  32.792   0.813   6.524
 3754POPC   C3B49977  32.770   0.956   6.898
 3754POPC   C4B49978  32.446   0.910   7.221
 3755POPC   NC349979   8.752   7.673   5.355
 3755POPC   PO449980   9.035   7.194   5.391
 3755POPC   GL149981   9.036   7.269   5.866
 3755POPC   GL249982   9.369   7.318   6.021
 3755POPC   C1A49983   8.787   7.439   6.244
 3755POPC   D2A49984   8.658   7.611   6.683
 3755POPC   C3A49985   8.798   7.376   7.060
 3755POPC   C4A49986   9.148   7.229   7.333
 3755POPC   C1B49987   9.252   7.578   6.411
 3755POPC   C2B49988   9.292   7.509   6.887
 3755POPC   C3B49989   9.615   7.363   7.185
 3755POPC   C4B49990   9.698   7.049   7.495
 3756POPC   NC349991  23.534   7.816   5.244
 3756POPC   PO449992  24.034   8.233   5.116
 3756POPC   GL149993  23.983   8.094   5.583
 3756POPC   GL249994  23.651   7.986   5.698
 3756POPC   C1A49995  23.950   8.208   6.042
 3756POPC   D2A49996  23.671   8.342   6.387
 3756POPC   C3A49997  23.732   8.243   6.832
 3756POPC   C4A49998  23.968   8.437   7.191
 3756POPC   C1B49999  23.489   7.948   6.122
 3756POPC   C2B50000  23.387   7.931   6.589
 3756POPC   C3B50001  23.330   7.881   7.020
 3756POPC   C4B50002  23.572   8.128   7.316
 3757POPC   NC350003  15.536  23.001   5.509
 3757POPC   PO450004  14.882  22.744   5.370
 3757POPC   GL150005  14.942  22.917   5.814
 3757POPC   GL250006  15.306  22.950   5.974
 3757POPC   C1A50007  14.922  22.801   6.261
 3757POPC   D2A50008  15.071  22.909   6.652
 3757POPC   C3A50009  14.843  22.748   6.956
 3757POPC   C4A50010  14.926  22.572   7.327
 3757POPC   C1B50011  15.207  23.271   6.320
 3757POPC   C2B50012  15.250  23.366   6.774
 3757POPC   C3B50013  15.273  23.038   7.116
 3757POPC   C4B50014  15.627  22.737   7.139
 3758POPC   NC350015  22.325  19.724   5.138
 3758POPC   PO450016  21.965  20.226   5.453
 3758POPC   GL150017  22.070  20.008   5.821
 3758POPC   GL250018  22.261  19.693   5.695
 3758POPC   C1A50019  22.178  20.177   6.231
 3758POPC   D2A50020  22.381  20.147   6.612
 3758POPC   C3A50021  22.074  20.203   6.925
 3758POPC   C4A50022  22.016  20.002   7.320
 3758POPC   C1B50023  22.349  19.682   6.155
 3758POPC   C2B50024  22.153  19.546   6.571
 3758POPC   C3B50025  22.201  19.609   7.020
 3758POPC   C4B50026  22.593  19.506   7.248
 3759POPC   NC350027  28.675  27.192   5.448
 3759POPC   PO450028  28.421  27.801   5.483
 3759POPC   GL150029  28.408  27.631   5.909
 3759POPC   GL250030  28.388  27.278   5.884
 3759POPC   C1A50031  28.522  27.594   6.381
 3759POPC   D2A50032  28.623  27.714   6.822
 3759POPC   C3A50033  28.342  27.790   7.181
 3759POPC   C4A50034  28.069  27.466   7.476
 3759POPC   C1B50035  28.624  27.120   6.250
 3759POPC   C2B50036  28.535  27.017   6.679
 3759POPC   C3B50037  28.365  27.304   7.003
 3759POPC   C4B50038  28.543  27.373   7.401
 3760POPC   NC350039  31.354  43.398   5.352
 3760POPC   PO450040  31.687  42.956   5.695
 3760POPC   GL150041  31.661  43.198   6.026
 3760POPC   GL250042  31.367  43.364   5.881
 3760POPC   C1A50043  31.685  43.042   6.444
 3760POPC   D2A50044  31.472  42.688   6.691
 3760POPC   C3A50045  31.476  42.912   7.062
 3760POPC   C4A50046  31.709  43.288   7.002
 3760POPC   C1B50047  31.210  43.182   6.276
 3760POPC   C2B50048  31.258  43.229   6.732
 3760POPC   C3B50049  31.232  43.378   7.164
 3760POPC   C4B50050  31.012  43.194   7.526
 3761POPC   NC350051   3.286  10.751   5.416
 3761POPC   PO450052   3.834  10.399   5.327
 3761POPC   GL150053   3.769  10.606   5.743
 3761POPC   GL250054   3.537  10.898   5.861
 3761POPC   C1A50055   3.717  10.505   6.186
 3761POPC   D2A50056   3.718  10.737   6.568
 3761POPC   C3A50057   3.705  10.461   6.895
 3761POPC   C4A50058   3.579  10.354   7.284
 3761POPC   C1B50059   3.270  10.760   6.223
 3761POPC   C2B50060   3.214  10.767   6.674
 3761POPC   C3B50061   3.222  10.693   7.092
 3761POPC   C4B50062   3.492  11.025   7.153
 3762POPC   NC350063  24.378  21.643   5.409
 3762POPC   PO450064  24.601  20.968   5.470
 3762POPC   GL150065  24.607  21.178   5.842
 3762POPC   GL250066  24.273  21.273   5.843
 3762POPC   C1A50067  24.503  21.004   6.258
 3762POPC   D2A50068  24.218  21.041   6.613
 3762POPC   C3A50069  24.509  21.094   6.952
 3762POPC   C4A50070  24.816  21.202   7.264
 3762POPC   C1B50071  24.369  21.481   6.225
 3762POPC   C2B50072  24.459  21.521   6.646
 3762POPC   C3B50073  24.237  21.549   7.036
 3762POPC   C4B50074  24.252  21.705   7.471
 3763POPC   NC350075  35.673   1.636   5.514
 3763POPC   PO450076  35.159   2.025   5.401
 3763POPC   GL150077  35.300   1.856   5.784
 3763POPC   GL250078  35.221   1.507   5.758
 3763POPC   C1A50079  35.488   1.937   6.163
 3763POPC   D2A50080  35.360   1.902   6.581
 3763POPC   C3A50081  35.515   2.083   6.972
 3763POPC   C4A50082  35.306   2.165   7.385
 3763POPC   C1B50083  35.210   1.499   6.228
 3763POPC   C2B50084  34.938   1.602   6.600
 3763POPC   C3B50085  35.120   1.729   7.009
 3763POPC   C4B50086  35.467   1.707   7.324
 3764POPC   NC350087   7.650   6.577   5.319
 3764POPC   PO450088   7.086   6.754   5.352
 3764POPC   GL150089   7.363   6.811   5.732
 3764POPC   GL250090   7.385   6.486   5.799
 3764POPC   C1A50091   7.546   6.731   6.208
 3764POPC   D2A50092   7.324   6.660   6.637
 3764POPC   C3A50093   7.502   6.646   7.066
 3764POPC   C4A50094   7.414   6.825   7.466
 3764POPC   C1B50095   7.173   6.378   6.231
 3764POPC   C2B50096   7.124   6.180   6.648
 3764POPC   C3B50097   7.282   6.180   7.082
 3764POPC   C4B50098   7.345   6.322   7.513
 3765POPC   NC350099  44.052  22.568   5.465
 3765POPC   PO450100  43.841  21.931   5.364
 3765POPC   GL150101  43.808  21.995   5.793
 3765POPC   GL250102  43.855  22.361   5.896
 3765POPC   C1A50103  43.785  21.891   6.209
 3765POPC   D2A50104  43.826  22.111   6.609
 3765POPC   C3A50105  43.942  21.872   6.995
 3765POPC   C4A50106  43.711  21.762   7.419
 3765POPC   C1B50107  44.141  22.642   6.171
 3765POPC   C2B50108  44.260  22.498   6.598
 3765POPC   C3B50109  44.085  22.372   6.970
 3765POPC   C4B50110  43.809  22.257   7.262
 3766POPC   NC350111  39.411   0.145   5.469
 3766POPC   PO450112  38.834   0.510   5.356
 3766POPC   GL150113  39.077   0.495   5.741
 3766POPC   GL250114  38.908   0.798   5.814
 3766POPC   C1A50115  39.379   0.398   6.120
 3766POPC   D2A50116  39.395   0.120   6.506
 3766POPC   C3A50117  39.402   0.265   6.952
 3766POPC   C4A50118  39.020   0.357   7.232
 3766POPC   C1B50119  39.033   0.755   6.216
 3766POPC   C2B50120  39.108   0.544   6.578
 3766POPC   C3B50121  39.210   0.732   6.937
 3766POPC   C4B50122  39.105   0.858   7.341
 3767POPC   NC350123  36.123  31.010   5.348
 3767POPC   PO450124  36.227  31.695   5.386
 3767POPC   GL150125  36.201  31.388   5.734
 3767POPC   GL250126  35.894  31.214   5.762
 3767POPC   C1A50127  36.354  31.263   6.165
 3767POPC   D2A50128  36.505  31.298   6.596
 3767POPC   C3A50129  36.229  31.534   6.860
 3767POPC   C4A50130  36.286  31.722   7.244
 3767POPC   C1B50131  35.935  30.989   6.127
 3767POPC   C2B50132  35.975  31.199   6.526
 3767POPC   C3B50133  36.088  31.034   6.906
 3767POPC   C4B50134  35.879  31.047   7.280
 3768POPC   NC350135  11.470  34.755   5.526
 3768POPC   PO450136  10.954  34.290   5.522
 3768POPC   GL150137  11.182  34.485   5.863
 3768POPC   GL250138  11.545  34.496   5.941
 3768POPC   C1A50139  11.063  34.635   6.267
 3768POPC   D2A50140  11.337  34.611   6.571
 3768POPC   C3A50141  11.191  34.721   6.943
 3768POPC   C4A50142  11.202  34.651   7.354
 3768POPC   C1B50143  11.797  34.384   6.296
 3768POPC   C2B50144  11.832  34.544   6.724
 3768POPC   C3B50145  11.788  34.444   7.164
 3768POPC   C4B50146  11.691  34.608   7.564
 3769POPC   NC350147  21.333  38.706   5.505
 3769POPC   PO450148  21.672  38.137   5.529
 3769POPC   GL150149  21.497  38.324   5.857
 3769POPC   GL250150  21.159  38.263   5.782
 3769POPC   C1A50151  21.621  38.324   6.271
 3769POPC   D2A50152  21.569  38.077   6.632
 3769POPC   C3A50153  21.369  38.341   6.931
 3769POPC   C4A50154  21.694  38.486   7.216
 3769POPC   C1B50155  21.097  38.415   6.236
 3769POPC   C2B50156  20.844  38.457   6.624
 3769POPC   C3B50157  20.898  38.631   7.025
 3769POPC   C4B50158  21.227  38.673   7.307
 3770POPC   NC350159   1.141  39.524   5.361
 3770POPC   PO450160   1.031  40.125   5.291
 3770POPC   GL150161   1.137  39.997   5.719
 3770POPC   GL250162   0.943  39.691   5.815
 3770POPC   C1A50163   1.397  40.200   6.085
 3770POPC   D2A50164   1.474  40.516   6.455
 3770POPC   C3A50165   1.329  40.345   6.858
 3770POPC   C4A50166   1.444  40.072   7.196
 3770POPC   C1B50167   1.343  39.668   6.065
 3770POPC   C2B50168   1.537  39.817   6.452
 3770POPC   C3B50169   1.469  39.676   6.884
 3770POPC   C4B50170   1.136  39.656   7.178
 3771POPC   NC350171  36.034  22.405   5.443
 3771POPC   PO450172  36.275  22.978   5.478
 3771POPC   GL150173  36.390  22.953   5.895
 3771POPC   GL250174  36.424  23.316   5.977
 3771POPC   C1A50175  36.388  22.907   6.336
 3771POPC   D2A50176  36.472  23.190   6.665
 3771POPC   C3A50177  36.345  23.028   7.080
 3771POPC   C4A50178  36.146  22.996   7.479
 3771POPC   C1B50179  36.075  23.300   6.317
 3771POPC   C2B50180  35.968  23.117   6.733
 3771POPC   C3B50181  35.845  22.852   7.091
 3771POPC   C4B50182  35.634  22.901   7.518
 3772POPC   NC350183  17.510  21.851   5.033
 3772POPC   PO450184  17.650  22.347   5.573
 3772POPC   GL150185  17.475  22.299   5.935
 3772POPC   GL250186  17.758  22.206   6.055
 3772POPC   C1A50187  17.332  21.942   6.171
 3772POPC   D2A50188  17.354  21.983   6.568
 3772POPC   C3A50189  17.408  21.772   6.932
 3772POPC   C4A50190  17.478  21.991   7.301
 3772POPC   C1B50191  17.789  22.544   6.319
 3772POPC   C2B50192  17.461  22.533   6.598
 3772POPC   C3B50193  17.565  22.310   6.929
 3772POPC   C4B50194  17.916  22.295   7.200
 3773POPC   NC350195  42.601  32.743   5.404
 3773POPC   PO450196  41.917  33.020   5.523
 3773POPC   GL150197  42.227  32.941   5.854
 3773POPC   GL250198  42.462  33.201   5.836
 3773POPC   C1A50199  42.223  33.144   6.292
 3773POPC   D2A50200  42.337  33.306   6.717
 3773POPC   C3A50201  42.344  32.961   7.026
 3773POPC   C4A50202  42.006  32.698   7.220
 3773POPC   C1B50203  42.673  32.965   6.156
 3773POPC   C2B50204  42.850  33.096   6.540
 3773POPC   C3B50205  42.793  33.205   6.973
 3773POPC   C4B50206  42.714  33.116   7.401
 3774POPC   NC350207  11.592  26.771   5.340
 3774POPC   PO450208  11.260  27.274   5.212
 3774POPC   GL150209  11.295  26.936   5.683
 3774POPC   GL250210  11.062  26.689   5.827
 3774POPC   C1A50211  11.422  26.964   6.143
 3774POPC   D2A50212  11.699  26.854   6.512
 3774POPC   C3A50213  11.656  27.102   6.871
 3774POPC   C4A50214  11.597  26.912   7.237
 3774POPC   C1B50215  11.322  26.472   6.158
 3774POPC   C2B50216  11.374  26.437   6.610
 3774POPC   C3B50217  11.235  26.701   6.954
 3774POPC   C4B50218  10.906  26.628   7.233
 3775POPC   NC350219  27.228   1.276   5.540
 3775POPC   PO450220  26.697   1.577   5.170
 3775POPC   GL150221  26.708   1.329   5.592
 3775POPC   GL250222  26.822   0.961   5.679
 3775POPC   C1A50223  26.752   1.313   6.061
 3775POPC   D2A50224  26.582   1.297   6.481
 3775POPC   C3A50225  26.611   1.263   6.918
 3775POPC   C4A50226  27.009   1.277   7.113
 3775POPC   C1B50227  27.023   0.858   6.112
 3775POPC   C2B50228  26.929   0.920   6.561
 3775POPC   C3B50229  27.122   0.801   6.947
 3775POPC   C4B50230  27.141   0.824   7.414
 3776POPC   NC350231  38.664  40.731   5.309
 3776POPC   PO450232  38.165  41.154   5.371
 3776POPC   GL150233  38.287  40.909   5.720
 3776POPC   GL250234  38.544  41.091   5.870
 3776POPC   C1A50235  38.401  40.636   6.099
 3776POPC   D2A50236  38.637  40.626   6.503
 3776POPC   C3A50237  38.481  40.499   6.942
 3776POPC   C4A50238  38.649  40.565   7.365
 3776POPC   C1B50239  38.199  41.144   6.201
 3776POPC   C2B50240  38.262  41.289   6.622
 3776POPC   C3B50241  38.528  41.023   6.906
 3776POPC   C4B50242  38.616  41.071   7.336
 3777POPC   NC350243  21.313  39.697   5.510
 3777POPC   PO450244  21.117  39.073   5.695
 3777POPC   GL150245  21.472  39.281   5.852
 3777POPC   GL250246  21.248  39.534   5.993
 3777POPC   C1A50247  21.559  39.190   6.288
 3777POPC   D2A50248  21.220  39.258   6.587
 3777POPC   C3A50249  21.240  39.046   6.969
 3777POPC   C4A50250  21.636  39.002   7.197
 3777POPC   C1B50251  21.642  39.678   6.191
 3777POPC   C2B50252  21.790  39.583   6.596
 3777POPC   C3B50253  21.562  39.455   6.950
 3777POPC   C4B50254  21.594  39.516   7.380
 3778POPC   NC350255  20.973  19.057   5.405
 3778POPC   PO450256  20.313  19.114   5.325
 3778POPC   GL150257  20.583  19.033   5.729
 3778POPC   GL250258  20.769  19.340   5.833
 3778POPC   C1A50259  20.805  18.961   6.178
 3778POPC   D2A50260  20.561  19.006   6.589
 3778POPC   C3A50261  20.618  19.331   6.857
 3778POPC   C4A50262  20.837  19.305   7.226
 3778POPC   C1B50263  20.386  19.240   6.127
 3778POPC   C2B50264  20.245  19.384   6.493
 3778POPC   C3B50265  20.097  19.261   6.864
 3778POPC   C4B50266  20.310  19.243   7.251
 3779POPC   NC350267   6.267  20.011   5.501
 3779POPC   PO450268   6.931  19.789   5.400
 3779POPC   GL150269   6.671  19.784   5.745
 3779POPC   GL250270   6.794  20.095   5.927
 3779POPC   C1A50271   6.459  19.774   6.120
 3779POPC   D2A50272   6.589  19.951   6.511
 3779POPC   C3A50273   6.367  19.799   6.853
 3779POPC   C4A50274   6.409  19.951   7.268
 3779POPC   C1B50275   6.971  19.720   6.191
 3779POPC   C2B50276   7.047  19.758   6.635
 3779POPC   C3B50277   6.846  19.955   6.996
 3779POPC   C4B50278   6.885  19.888   7.440
 3780POPC   NC350279  42.177  34.416   5.390
 3780POPC   PO450280  42.296  35.046   5.152
 3780POPC   GL150281  42.341  34.862   5.577
 3780POPC   GL250282  42.018  34.835   5.727
 3780POPC   C1A50283  42.377  34.632   6.025
 3780POPC   D2A50284  42.267  34.326   6.390
 3780POPC   C3A50285  42.345  34.401   6.842
 3780POPC   C4A50286  42.705  34.402   7.134
 3780POPC   C1B50287  41.977  34.927   6.185
 3780POPC   C2B50288  42.294  34.811   6.512
 3780POPC   C3B50289  42.599  34.872   6.823
 3780POPC   C4B50290  42.370  34.797   7.192
 3781POPC   NC350291  41.701   2.536   5.443
 3781POPC   PO450292  41.158   2.875   5.428
 3781POPC   GL150293  41.429   2.830   5.769
 3781POPC   GL250294  41.712   3.022   5.677
 3781POPC   C1A50295  41.554   2.566   6.125
 3781POPC   D2A50296  41.868   2.620   6.445
 3781POPC   C3A50297  41.639   2.625   6.841
 3781POPC   C4A50298  41.505   2.673   7.277
 3781POPC   C1B50299  41.778   3.029   6.120
 3781POPC   C2B50300  41.596   3.058   6.548
 3781POPC   C3B50301  41.723   3.102   7.009
 3781POPC   C4B50302  41.676   3.135   7.474
 3782POPC   NC350303  25.353   2.704   5.370
 3782POPC   PO450304  24.931   3.229   5.478
 3782POPC   GL150305  25.065   2.931   5.825
 3782POPC   GL250306  25.406   2.806   5.868
 3782POPC   C1A50307  25.181   3.016   6.272
 3782POPC   D2A50308  25.480   2.818   6.545
 3782POPC   C3A50309  25.338   2.832   6.964
 3782POPC   C4A50310  25.581   2.879   7.323
 3782POPC   C1B50311  25.203   2.517   6.190
 3782POPC   C2B50312  25.167   2.423   6.663
 3782POPC   C3B50313  25.337   2.360   7.119
 3782POPC   C4B50314  25.299   2.105   7.491
 3783POPC   NC350315  17.645  35.500   5.440
 3783POPC   PO450316  17.153  35.154   5.563
 3783POPC   GL150317  17.541  35.196   5.846
 3783POPC   GL250318  17.624  35.543   5.952
 3783POPC   C1A50319  17.774  35.089   6.223
 3783POPC   D2A50320  17.721  34.860   6.631
 3783POPC   C3A50321  17.769  35.171   6.979
 3783POPC   C4A50322  17.544  35.228   7.402
 3783POPC   C1B50323  17.706  35.646   6.402
 3783POPC   C2B50324  17.876  35.660   6.821
 3783POPC   C3B50325  17.595  35.762   7.184
 3783POPC   C4B50326  17.532  35.893   7.633
 3784POPC   NC350327  25.189  15.594   5.419
 3784POPC   PO450328  25.514  16.297   5.449
 3784POPC   GL150329  25.333  16.187   5.802
 3784POPC   GL250330  25.135  15.895   5.822
 3784POPC   C1A50331  25.427  16.062   6.215
 3784POPC   D2A50332  25.181  15.910   6.560
 3784POPC   C3A50333  25.368  16.106   6.908
 3784POPC   C4A50334  25.338  16.012   7.311
 3784POPC   C1B50335  24.922  16.165   6.132
 3784POPC   C2B50336  24.709  16.146   6.542
 3784POPC   C3B50337  24.850  16.157   6.955
 3784POPC   C4B50338  24.841  16.004   7.376
 3785POPC   NC350339  23.829  10.371   5.427
 3785POPC   PO450340  23.634  11.043   5.369
 3785POPC   GL150341  23.494  10.946   5.798
 3785POPC   GL250342  23.783  10.789   5.835
 3785POPC   C1A50343  23.479  10.762   6.251
 3785POPC   D2A50344  23.464  10.696   6.721
 3785POPC   C3A50345  23.680  10.380   7.000
 3785POPC   C4A50346  23.671  10.343   7.453
 3785POPC   C1B50347  23.877  11.119   6.148
 3785POPC   C2B50348  23.998  11.079   6.587
 3785POPC   C3B50349  23.889  10.854   6.960
 3785POPC   C4B50350  24.021  10.783   7.360
 3786POPC   NC350351   4.444  26.633   5.353
 3786POPC   PO450352   4.033  27.074   5.564
 3786POPC   GL150353   4.283  26.778   5.812
 3786POPC   GL250354   4.630  26.865   5.780
 3786POPC   C1A50355   4.303  26.607   6.222
 3786POPC   D2A50356   3.965  26.796   6.476
 3786POPC   C3A50357   4.061  26.866   6.927
 3786POPC   C4A50358   4.305  26.745   7.287
 3786POPC   C1B50359   4.826  27.125   6.109
 3786POPC   C2B50360   4.703  26.986   6.545
 3786POPC   C3B50361   4.687  26.815   6.963
 3786POPC   C4B50362   4.740  27.017   7.371
 3787POPC   NC350363  13.456  18.120   5.520
 3787POPC   PO450364  13.999  18.633   5.507
 3787POPC   GL150365  13.778  18.368   5.804
 3787POPC   GL250366  13.420  18.483   5.842
 3787POPC   C1A50367  13.598  18.161   6.201
 3787POPC   D2A50368  13.437  17.977   6.619
 3787POPC   C3A50369  13.594  18.218   6.942
 3787POPC   C4A50370  13.773  18.188   7.344
 3787POPC   C1B50371  13.184  18.560   6.155
 3787POPC   C2B50372  13.217  18.418   6.534
 3787POPC   C3B50373  13.097  18.379   6.938
 3787POPC   C4B50374  13.325  18.490   7.301
 3788POPC   NC350375  32.583  28.970   5.620
 3788POPC   PO450376  32.975  29.509   5.416
 3788POPC   GL150377  33.096  29.337   5.871
 3788POPC   GL250378  32.820  29.162   6.043
 3788POPC   C1A50379  33.221  29.352   6.335
 3788POPC   D2A50380  33.003  29.174   6.690
 3788POPC   C3A50381  33.128  29.387   7.071
 3788POPC   C4A50382  33.538  29.594   7.090
 3788POPC   C1B50383  33.157  28.873   6.220
 3788POPC   C2B50384  33.263  28.715   6.631
 3788POPC   C3B50385  33.267  28.910   7.041
 3788POPC   C4B50386  33.174  28.969   7.488
 3789POPC   NC350387  10.673  43.118   5.462
 3789POPC   PO450388  10.284  42.553   5.170
 3789POPC   GL150389  10.476  42.664   5.644
 3789POPC   GL250390  10.874  42.705   5.695
 3789POPC   C1A50391  10.305  42.828   6.074
 3789POPC   D2A50392  10.102  42.929   6.500
 3789POPC   C3A50393  10.292  43.137   6.865
 3789POPC   C4A50394  10.176  43.126   7.288
 3789POPC   C1B50395  10.820  42.973   6.083
 3789POPC   C2B50396  10.669  42.973   6.499
 3789POPC   C3B50397  10.812  43.211   6.860
 3789POPC   C4B50398  10.651  43.361   7.254
 3790POPC   NC350399   6.655  42.705   5.604
 3790POPC   PO450400   6.684  43.458   5.482
 3790POPC   GL150401   6.626  43.182   5.848
 3790POPC   GL250402   6.957  43.099   5.941
 3790POPC   C1A50403   6.566  42.878   6.221
 3790POPC   D2A50404   6.405  42.827   6.647
 3790POPC   C3A50405   6.378  43.225   6.876
 3790POPC   C4A50406   6.615  43.309   7.238
 3790POPC   C1B50407   7.005  43.468   6.182
 3790POPC   C2B50408   7.158  43.419   6.617
 3790POPC   C3B50409   7.142  43.101   6.898
 3790POPC   C4B50410   6.942  42.904   7.234
 3791POPC   NC350411  33.262  13.960   5.293
 3791POPC   PO450412  33.771  13.479   5.378
 3791POPC   GL150413  33.854  13.528   5.794
 3791POPC   GL250414  33.582  13.721   5.866
 3791POPC   C1A50415  33.969  13.582   6.231
 3791POPC   D2A50416  33.913  13.426   6.657
 3791POPC   C3A50417  33.962  13.697   7.003
 3791POPC   C4A50418  33.823  13.658   7.402
 3791POPC   C1B50419  33.549  13.905   6.245
 3791POPC   C2B50420  33.738  13.901   6.588
 3791POPC   C3B50421  33.500  13.923   6.909
 3791POPC   C4B50422  33.524  14.091   7.255
 3792POPC   NC350423   5.434  33.430   5.397
 3792POPC   PO450424   4.812  33.197   5.640
 3792POPC   GL150425   5.215  33.076   5.813
 3792POPC   GL250426   5.370  32.761   5.766
 3792POPC   C1A50427   5.115  32.906   6.237
 3792POPC   D2A50428   4.997  33.166   6.585
 3792POPC   C3A50429   5.048  33.012   6.972
 3792POPC   C4A50430   4.811  32.908   7.313
 3792POPC   C1B50431   5.618  32.905   6.142
 3792POPC   C2B50432   5.497  32.917   6.599
 3792POPC   C3B50433   5.506  32.797   7.035
 3792POPC   C4B50434   5.299  32.864   7.464
 3793POPC   NC350435  41.323  31.622   5.423
 3793POPC   PO450436  41.336  31.058   5.852
 3793POPC   GL150437  41.490  31.480   5.888
 3793POPC   GL250438  41.815  31.489   5.745
 3793POPC   C1A50439  41.547  31.545   6.313
 3793POPC   D2A50440  41.649  31.145   6.486
 3793POPC   C3A50441  41.734  31.265   6.864
 3793POPC   C4A50442  41.489  31.585   7.083
 3793POPC   C1B50443  41.894  31.817   6.066
 3793POPC   C2B50444  41.759  32.024   6.426
 3793POPC   C3B50445  41.835  31.809   6.807
 3793POPC   C4B50446  41.961  31.815   7.263
 3794POPC   NC350447   1.859  39.622   5.265
 3794POPC   PO450448   1.746  40.297   5.238
 3794POPC   GL150449   1.996  40.044   5.572
 3794POPC   GL250450   2.358  40.148   5.672
 3794POPC   C1A50451   1.887  39.980   6.028
 3794POPC   D2A50452   2.050  39.932   6.467
 3794POPC   C3A50453   1.820  40.057   6.836
 3794POPC   C4A50454   1.963  40.071   7.271
 3794POPC   C1B50455   2.412  39.842   6.016
 3794POPC   C2B50456   2.565  39.858   6.455
 3794POPC   C3B50457   2.343  39.923   6.895
 3794POPC   C4B50458   2.444  40.182   7.266
 3795POPC   NC350459  34.314  25.052   5.460
 3795POPC   PO450460  34.984  25.203   5.299
 3795POPC   GL150461  34.803  25.064   5.691
 3795POPC   GL250462  34.605  25.332   5.827
 3795POPC   C1A50463  34.896  25.086   6.155
 3795POPC   D2A50464  34.747  25.321   6.546
 3795POPC   C3A50465  34.835  25.161   6.963
 3795POPC   C4A50466  34.593  25.101   7.339
 3795POPC   C1B50467  34.410  25.544   6.208
 3795POPC   C2B50468  34.311  25.611   6.650
 3795POPC   C3B50469  34.350  25.468   7.066
 3795POPC   C4B50470  34.191  25.391   7.491
 3796POPC   NC350471  39.555  42.667   5.512
 3796POPC   PO450472  39.290  43.275   5.491
 3796POPC   GL150473  39.050  43.191   5.835
 3796POPC   GL250474  39.197  42.872   5.834
 3796POPC   C1A50475  39.003  43.206   6.271
 3796POPC   D2A50476  38.873  43.231   6.680
 3796POPC   C3A50477  39.190  43.284   7.019
 3796POPC   C4A50478  39.146  43.435   7.410
 3796POPC   C1B50479  39.364  42.845   6.248
 3796POPC   C2B50480  39.353  42.960   6.673
 3796POPC   C3B50481  39.423  42.826   7.115
 3796POPC   C4B50482  39.223  42.945   7.501
 3797POPC   NC350483   4.430   2.343   5.431
 3797POPC   PO450484   4.293   2.933   5.204
 3797POPC   GL150485   4.295   2.747   5.704
 3797POPC   GL250486   4.604   2.521   5.867
 3797POPC   C1A50487   4.334   2.819   6.182
 3797POPC   D2A50488   4.634   2.980   6.498
 3797POPC   C3A50489   4.550   2.934   6.958
 3797POPC   C4A50490   4.166   2.926   7.166
 3797POPC   C1B50491   4.754   2.494   6.317
 3797POPC   C2B50492   4.422   2.518   6.650
 3797POPC   C3B50493   4.251   2.449   7.061
 3797POPC   C4B50494   4.491   2.560   7.442
 3798POPC   NC350495  31.537  37.955   5.325
 3798POPC   PO450496  31.768  37.209   5.442
 3798POPC   GL150497  31.608  37.617   5.692
 3798POPC   GL250498  31.696  38.036   5.780
 3798POPC   C1A50499  31.413  37.574   6.092
 3798POPC   D2A50500  31.295  37.401   6.478
 3798POPC   C3A50501  31.571  37.352   6.828
 3798POPC   C4A50502  31.409  37.453   7.226
 3798POPC   C1B50503  31.583  38.047   6.175
 3798POPC   C2B50504  31.682  37.799   6.516
 3798POPC   C3B50505  31.744  37.855   6.922
 3798POPC   C4B50506  31.542  37.944   7.312
 3799POPC   NC350507   2.040  21.751   5.246
 3799POPC   PO450508   1.626  21.296   5.456
 3799POPC   GL150509   1.960  21.443   5.752
 3799POPC   GL250510   1.902  21.705   5.995
 3799POPC   C1A50511   2.138  21.273   6.157
 3799POPC   D2A50512   1.934  21.394   6.568
 3799POPC   C3A50513   2.089  21.269   6.969
 3799POPC   C4A50514   1.864  21.260   7.371
 3799POPC   C1B50515   2.237  21.754   6.338
 3799POPC   C2B50516   2.263  21.779   6.796
 3799POPC   C3B50517   2.157  21.705   7.249
 3799POPC   C4B50518   2.218  21.668   7.730
 3800POPC   NC350519   6.397  23.470   5.392
 3800POPC   PO450520   7.040  23.438   5.660
 3800POPC   GL150521   6.798  23.568   6.009
 3800POPC   GL250522   6.583  23.722   5.862
 3800POPC   C1A50523   6.698  23.716   6.407
 3800POPC   D2A50524   6.611  23.992   6.715
 3800POPC   C3A50525   6.913  24.036   7.009
 3800POPC   C4A50526   6.927  24.070   7.414
 3800POPC   C1B50527   6.256  23.884   6.106
 3800POPC   C2B50528   6.104  23.849   6.514
 3800POPC   C3B50529   6.170  23.900   6.957
 3800POPC   C4B50530   6.522  23.710   7.146
 3801POPC   NC350531  35.236  38.737   5.413
 3801POPC   PO450532  34.922  38.070   5.505
 3801POPC   GL150533  35.149  38.390   5.822
 3801POPC   GL250534  35.442  38.644   5.869
 3801POPC   C1A50535  35.104  38.536   6.273
 3801POPC   D2A50536  35.191  38.440   6.740
 3801POPC   C3A50537  35.484  38.666   6.980
 3801POPC   C4A50538  35.715  38.675   7.357
 3801POPC   C1B50539  35.595  38.309   6.137
 3801POPC   C2B50540  35.699  38.044   6.504
 3801POPC   C3B50541  35.659  38.182   6.908
 3801POPC   C4B50542  35.930  38.180   7.236
 3802POPC   NC350543  22.424  37.294   5.515
 3802POPC   PO450544  22.001  37.679   5.205
 3802POPC   GL150545  22.043  37.642   5.670
 3802POPC   GL250546  21.932  37.314   5.719
 3802POPC   C1A50547  22.248  37.537   6.102
 3802POPC   D2A50548  22.370  37.324   6.513
 3802POPC   C3A50549  22.264  37.556   6.907
 3802POPC   C4A50550  22.443  37.487   7.310
 3802POPC   C1B50551  21.759  37.320   6.143
 3802POPC   C2B50552  21.909  37.570   6.494
 3802POPC   C3B50553  21.781  37.685   6.888
 3802POPC   C4B50554  21.734  37.478   7.261
 3803POPC   NC350555  20.418  30.928   5.284
 3803POPC   PO450556  20.900  30.535   5.422
 3803POPC   GL150557  20.809  30.817   5.728
 3803POPC   GL250558  20.511  30.636   5.800
 3803POPC   C1A50559  20.691  30.902   6.178
 3803POPC   D2A50560  20.748  30.673   6.571
 3803POPC   C3A50561  20.656  30.889   6.970
 3803POPC   C4A50562  20.920  31.116   7.258
 3803POPC   C1B50563  20.643  30.376   6.166
 3803POPC   C2B50564  20.553  30.173   6.558
 3803POPC   C3B50565  20.637  30.260   6.992
 3803POPC   C4B50566  20.405  30.526   7.271
 3804POPC   NC350567  17.177  10.931   5.583
 3804POPC   PO450568  17.458  10.420   5.281
 3804POPC   GL150569  17.566  10.301   5.741
 3804POPC   GL250570  17.923  10.229   5.812
 3804POPC   C1A50571  17.570  10.084   6.144
 3804POPC   D2A50572  17.471  10.312   6.493
 3804POPC   C3A50573  17.559  10.256   6.895
 3804POPC   C4A50574  17.181  10.312   7.146
 3804POPC   C1B50575  17.801  10.530   6.151
 3804POPC   C2B50576  17.922  10.584   6.604
 3804POPC   C3B50577  17.803  10.679   7.079
 3804POPC   C4B50578  17.853  10.623   7.554
 3805POPC   NC350579  12.549   5.053   5.385
 3805POPC   PO450580  13.159   4.947   5.393
 3805POPC   GL150581  13.124   5.029   5.828
 3805POPC   GL250582  12.779   4.915   5.825
 3805POPC   C1A50583  12.966   5.086   6.285
 3805POPC   D2A50584  13.168   5.085   6.693
 3805POPC   C3A50585  12.934   5.235   7.039
 3805POPC   C4A50586  12.707   5.183   7.427
 3805POPC   C1B50587  12.978   4.616   6.094
 3805POPC   C2B50588  12.884   4.496   6.516
 3805POPC   C3B50589  12.915   4.697   6.927
 3805POPC   C4B50590  12.646   4.664   7.288
 3806POPC   NC350591  26.424  12.236   5.484
 3806POPC   PO450592  25.809  12.170   5.229
 3806POPC   GL150593  25.925  12.221   5.711
 3806POPC   GL250594  26.225  12.408   5.910
 3806POPC   C1A50595  25.867  11.984   6.131
 3806POPC   D2A50596  26.080  11.840   6.526
 3806POPC   C3A50597  25.915  11.848   6.975
 3806POPC   C4A50598  25.812  11.938   7.415
 3806POPC   C1B50599  26.114  12.388   6.325
 3806POPC   C2B50600  26.008  12.303   6.749
 3806POPC   C3B50601  26.276  12.182   7.116
 3806POPC   C4B50602  26.534  12.451   7.397
 3807POPC   NC350603  34.477  32.538   5.501
 3807POPC   PO450604  35.053  32.200   5.290
 3807POPC   GL150605  34.863  32.314   5.728
 3807POPC   GL250606  34.906  32.090   5.958
 3807POPC   C1A50607  34.620  32.528   6.132
 3807POPC   D2A50608  34.582  32.555   6.614
 3807POPC   C3A50609  34.239  32.386   6.882
 3807POPC   C4A50610  34.301  32.439   7.336
 3807POPC   C1B50611  34.562  32.047   6.289
 3807POPC   C2B50612  34.643  32.039   6.713
 3807POPC   C3B50613  34.679  32.225   7.085
 3807POPC   C4B50614  34.862  32.131   7.445
 3808POPC   NC350615   8.639  40.752   5.355
 3808POPC   PO450616   9.237  40.510   5.433
 3808POPC   GL150617   9.003  40.867   5.690
 3808POPC   GL250618   9.184  41.034   5.974
 3808POPC   C1A50619   8.705  40.948   6.079
 3808POPC   D2A50620   8.836  41.141   6.493
 3808POPC   C3A50621   9.023  40.873   6.825
 3808POPC   C4A50622   8.954  40.905   7.255
 3808POPC   C1B50623   9.057  40.566   6.098
 3808POPC   C2B50624   9.245  40.301   6.426
 3808POPC   C3B50625   9.176  40.312   6.871
 3808POPC   C4B50626   9.353  40.508   7.248
 3809POPC   NC350627  30.599   8.768   5.431
 3809POPC   PO450628  30.557   8.104   5.423
 3809POPC   GL150629  30.472   8.376   5.770
 3809POPC   GL250630  30.807   8.486   5.816
 3809POPC   C1A50631  30.556   8.267   6.209
 3809POPC   D2A50632  30.435   8.368   6.603
 3809POPC   C3A50633  30.589   8.109   6.878
 3809POPC   C4A50634  30.596   8.112   7.283
 3809POPC   C1B50635  31.061   8.298   6.155
 3809POPC   C2B50636  30.977   8.379   6.598
 3809POPC   C3B50637  31.143   8.233   6.989
 3809POPC   C4B50638  31.130   7.868   7.239
 3810POPC   NC350639  16.697   2.211   5.438
 3810POPC   PO450640  16.624   1.578   5.453
 3810POPC   GL150641  16.734   1.772   5.825
 3810POPC   GL250642  16.590   2.080   5.913
 3810POPC   C1A50643  16.702   1.713   6.264
 3810POPC   D2A50644  16.929   1.802   6.623
 3810POPC   C3A50645  16.715   1.697   6.966
 3810POPC   C4A50646  16.664   1.859   7.380
 3810POPC   C1B50647  16.788   2.235   6.273
 3810POPC   C2B50648  16.830   2.364   6.679
 3810POPC   C3B50649  16.979   2.132   7.039
 3810POPC   C4B50650  17.010   2.232   7.466
 3811POPC   NC350651  44.539  36.710   5.097
 3811POPC   PO450652  44.454  36.120   5.457
 3811POPC   GL150653  44.706  36.115   5.822
 3811POPC   GL250654  44.784  35.785   5.808
 3811POPC   C1A50655  44.904  36.299   6.179
 3811POPC   D2A50656  44.646  36.348   6.548
 3811POPC   C3A50657  44.547  36.223   6.940
 3811POPC   C4A50658  44.383  35.831   6.988
 3811POPC   C1B50659  44.919  35.803   6.251
 3811POPC   C2B50660   0.087  36.084   6.605
 3811POPC   C3B50661  44.988  36.010   7.048
 3811POPC   C4B50662   0.190  35.867   7.403
 3812POPC   NC350663   8.860   4.045   5.315
 3812POPC   PO450664   8.852   4.706   5.410
 3812POPC   GL150665   9.017   4.449   5.776
 3812POPC   GL250666   9.065   4.078   5.781
 3812POPC   C1A50667   9.003   4.388   6.234
 3812POPC   D2A50668   8.872   4.548   6.612
 3812POPC   C3A50669   9.060   4.372   6.937
 3812POPC   C4A50670   8.961   4.600   7.311
 3812POPC   C1B50671   8.669   4.074   6.020
 3812POPC   C2B50672   8.625   4.119   6.476
 3812POPC   C3B50673   8.593   4.114   6.917
 3812POPC   C4B50674   8.902   3.963   7.199
 3813POPC   NC350675  12.837  18.172   5.208
 3813POPC   PO450676  13.279  18.622   5.371
 3813POPC   GL150677  12.929  18.484   5.690
 3813POPC   GL250678  12.979  18.142   5.721
 3813POPC   C1A50679  12.720  18.309   6.121
 3813POPC   D2A50680  12.715  18.463   6.558
 3813POPC   C3A50681  12.635  18.161   6.948
 3813POPC   C4A50682  12.798  18.342   7.360
 3813POPC   C1B50683  13.125  18.021   6.132
 3813POPC   C2B50684  12.929  18.000   6.529
 3813POPC   C3B50685  13.008  17.809   6.908
 3813POPC   C4B50686  13.137  17.968   7.301
 3814POPC   NC350687  19.147  37.529   5.468
 3814POPC   PO450688  19.242  38.184   5.672
 3814POPC   GL150689  19.149  37.814   5.916
 3814POPC   GL250690  18.801  37.793   5.908
 3814POPC   C1A50691  19.067  37.485   6.235
 3814POPC   D2A50692  18.793  37.471   6.603
 3814POPC   C3A50693  19.006  37.437   6.967
 3814POPC   C4A50694  19.183  37.400   7.380
 3814POPC   C1B50695  18.894  37.970   6.352
 3814POPC   C2B50696  18.967  38.030   6.821
 3814POPC   C3B50697  18.916  37.870   7.245
 3814POPC   C4B50698  18.683  37.511   7.372
 3815POPC   NC350699  15.647  42.750   5.434
 3815POPC   PO450700  15.895  43.283   5.100
 3815POPC   GL150701  15.997  43.158   5.581
 3815POPC   GL250702  15.937  43.499   5.673
 3815POPC   C1A50703  15.816  42.999   6.078
 3815POPC   D2A50704  15.708  42.833   6.541
 3815POPC   C3A50705  15.638  42.999   6.962
 3815POPC   C4A50706  15.800  42.964   7.365
 3815POPC   C1B50707  15.845  43.520   6.117
 3815POPC   C2B50708  15.795  43.341   6.520
 3815POPC   C3B50709  15.704  43.494   6.910
 3815POPC   C4B50710  15.988  43.438   7.265
 3816POPC   NC350711   6.204  15.740   5.518
 3816POPC   PO450712   6.653  16.221   5.368
 3816POPC   GL150713   6.479  16.078   5.768
 3816POPC   GL250714   6.120  16.180   5.753
 3816POPC   C1A50715   6.577  15.885   6.164
 3816POPC   D2A50716   6.766  15.647   6.495
 3816POPC   C3A50717   6.660  15.873   6.854
 3816POPC   C4A50718   6.504  15.785   7.251
 3816POPC   C1B50719   6.234  16.304   6.180
 3816POPC   C2B50720   6.279  16.122   6.608
 3816POPC   C3B50721   6.269  16.210   7.067
 3816POPC   C4B50722   6.384  16.215   7.507
 3817POPC   NC350723  43.416  31.258   5.459
 3817POPC   PO450724  42.775  31.574   5.575
 3817POPC   GL150725  42.854  31.417   5.988
 3817POPC   GL250726  43.227  31.352   5.973
 3817POPC   C1A50727  43.030  31.556   6.412
 3817POPC   D2A50728  43.357  31.417   6.712
 3817POPC   C3A50729  43.135  31.171   7.027
 3817POPC   C4A50730  42.860  31.419   7.312
 3817POPC   C1B50731  43.451  31.724   6.214
 3817POPC   C2B50732  43.387  31.950   6.626
 3817POPC   C3B50733  43.471  31.900   7.062
 3817POPC   C4B50734  43.347  31.535   7.304
 3818POPC   NC350735   6.631  30.101   5.255
 3818POPC   PO450736   6.592  29.477   5.462
 3818POPC   GL150737   6.752  29.761   5.758
 3818POPC   GL250738   6.629  30.084   5.765
 3818POPC   C1A50739   6.758  29.730   6.205
 3818POPC   D2A50740   6.706  29.478   6.584
 3818POPC   C3A50741   6.825  29.678   6.979
 3818POPC   C4A50742   6.882  30.107   7.138
 3818POPC   C1B50743   6.496  30.157   6.205
 3818POPC   C2B50744   6.547  29.974   6.606
 3818POPC   C3B50745   6.341  29.837   6.960
 3818POPC   C4B50746   6.344  30.074   7.350
 3819POPC   NC350747  22.821  17.135   5.346
 3819POPC   PO450748  23.090  16.467   5.296
 3819POPC   GL150749  23.146  16.524   5.741
 3819POPC   GL250750  23.003  16.858   5.769
 3819POPC   C1A50751  22.979  16.355   6.156
 3819POPC   D2A50752  22.760  16.418   6.571
 3819POPC   C3A50753  22.975  16.440   6.964
 3819POPC   C4A50754  22.932  16.631   7.358
 3819POPC   C1B50755  22.790  16.826   6.203
 3819POPC   C2B50756  23.008  16.920   6.596
 3819POPC   C3B50757  23.254  16.872   6.966
 3819POPC   C4B50758  23.328  16.953   7.384
 3820POPC   NC350759  11.188   1.313   5.142
 3820POPC   PO450760  11.667   1.456   5.630
 3820POPC   GL150761  11.328   1.213   5.855
 3820POPC   GL250762  10.936   1.218   5.797
 3820POPC   C1A50763  11.111   1.380   6.233
 3820POPC   D2A50764  11.080   1.240   6.622
 3820POPC   C3A50765  11.231   1.431   6.980
 3820POPC   C4A50766  11.550   1.269   7.260
 3820POPC   C1B50767  10.738   0.963   6.171
 3820POPC   C2B50768  10.784   0.834   6.630
 3820POPC   C3B50769  10.736   1.108   6.975
 3820POPC   C4B50770  10.944   1.170   7.329
 3821POPC   NC350771   4.938  23.049   5.456
 3821POPC   PO450772   5.406  22.635   5.300
 3821POPC   GL150773   5.096  22.677   5.787
 3821POPC   GL250774   4.989  23.063   5.951
 3821POPC   C1A50775   5.170  22.760   6.286
 3821POPC   D2A50776   4.935  22.777   6.696
 3821POPC   C3A50777   5.231  22.778   7.031
 3821POPC   C4A50778   5.398  22.911   7.379
 3821POPC   C1B50779   4.936  23.391   6.235
 3821POPC   C2B50780   4.893  23.330   6.668
 3821POPC   C3B50781   5.032  23.234   7.080
 3821POPC   C4B50782   4.974  23.152   7.540
 3822POPC   NC350783   8.365  24.776   5.483
 3822POPC   PO450784   8.052  24.134   5.392
 3822POPC   GL150785   8.146  24.420   5.775
 3822POPC   GL250786   7.940  24.683   5.821
 3822POPC   C1A50787   8.250  24.583   6.210
 3822POPC   D2A50788   8.076  24.693   6.630
 3822POPC   C3A50789   8.334  24.506   6.969
 3822POPC   C4A50790   8.380  24.182   7.259
 3822POPC   C1B50791   7.735  24.519   6.191
 3822POPC   C2B50792   7.717  24.289   6.584
 3822POPC   C3B50793   7.880  24.260   7.016
 3822POPC   C4B50794   8.017  24.492   7.381
 3823POPC   NC350795  13.710  41.925   5.233
 3823POPC   PO450796  13.245  41.383   5.283
 3823POPC   GL150797  13.495  41.603   5.618
 3823POPC   GL250798  13.392  41.924   5.642
 3823POPC   C1A50799  13.750  41.666   6.026
 3823POPC   D2A50800  13.859  41.410   6.418
 3823POPC   C3A50801  13.823  41.572   6.839
 3823POPC   C4A50802  13.809  41.581   7.272
 3823POPC   C1B50803  13.333  41.964   6.108
 3823POPC   C2B50804  13.487  41.805   6.512
 3823POPC   C3B50805  13.365  41.811   6.957
 3823POPC   C4B50806  13.220  42.109   7.280
 3824POPC   NC350807   1.589  21.777   5.544
 3824POPC   PO450808   2.046  22.226   5.229
 3824POPC   GL150809   1.935  22.134   5.712
 3824POPC   GL250810   1.688  22.197   5.900
 3824POPC   C1A50811   2.078  22.200   6.192
 3824POPC   D2A50812   1.996  22.368   6.629
 3824POPC   C3A50813   2.089  22.192   7.035
 3824POPC   C4A50814   1.942  22.098   7.480
 3824POPC   C1B50815   1.624  22.429   6.272
 3824POPC   C2B50816   1.509  22.525   6.672
 3824POPC   C3B50817   1.764  22.670   6.976
 3824POPC   C4B50818   1.637  22.450   7.277
 3825POPC   NC350819  19.237   9.193   5.431
 3825POPC   PO450820  18.872   8.626   5.597
 3825POPC   GL150821  19.108   8.903   5.820
 3825POPC   GL250822  18.897   9.205   5.803
 3825POPC   C1A50823  19.181   8.904   6.238
 3825POPC   D2A50824  19.056   8.737   6.614
 3825POPC   C3A50825  19.225   8.841   7.010
 3825POPC   C4A50826  19.061   8.791   7.400
 3825POPC   C1B50827  18.626   9.007   6.077
 3825POPC   C2B50828  18.667   9.104   6.480
 3825POPC   C3B50829  18.789   9.082   6.872
 3825POPC   C4B50830  18.898   9.318   7.210
 3826POPC   NC350831   6.173  14.112   5.475
 3826POPC   PO450832   5.649  14.543   5.579
 3826POPC   GL150833   5.966  14.405   5.842
 3826POPC   GL250834   6.167  14.669   5.805
 3826POPC   C1A50835   6.165  14.305   6.236
 3826POPC   D2A50836   5.971  14.174   6.633
 3826POPC   C3A50837   5.904  14.307   7.050
 3826POPC   C4A50838   5.719  14.233   7.463
 3826POPC   C1B50839   6.373  14.777   6.181
 3826POPC   C2B50840   6.338  14.629   6.619
 3826POPC   C3B50841   6.048  14.768   6.949
 3826POPC   C4B50842   5.998  14.658   7.438
 3827POPC   NC350843   1.435  32.347   5.219
 3827POPC   PO450844   0.951  32.001   5.461
 3827POPC   GL150845   1.307  32.043   5.667
 3827POPC   GL250846   1.294  32.375   5.711
 3827POPC   C1A50847   1.303  31.995   6.099
 3827POPC   D2A50848   1.301  32.228   6.474
 3827POPC   C3A50849   1.203  32.034   6.888
 3827POPC   C4A50850   1.110  32.251   7.262
 3827POPC   C1B50851   1.082  32.459   6.060
 3827POPC   C2B50852   0.866  32.549   6.423
 3827POPC   C3B50853   1.055  32.528   6.805
 3827POPC   C4B50854   0.903  32.687   7.144
 3828POPC   NC350855   6.052  17.719   5.316
 3828POPC   PO450856   5.775  17.048   5.442
 3828POPC   GL150857   5.835  17.419   5.720
 3828POPC   GL250858   6.154  17.563   5.815
 3828POPC   C1A50859   5.628  17.476   6.122
 3828POPC   D2A50860   5.744  17.345   6.542
 3828POPC   C3A50861   5.768  17.004   6.826
 3828POPC   C4A50862   5.753  17.259   7.182
 3828POPC   C1B50863   6.075  17.687   6.277
 3828POPC   C2B50864   6.086  17.665   6.744
 3828POPC   C3B50865   5.969  17.811   7.144
 3828POPC   C4B50866   6.201  17.865   7.532
 3829POPC   NC350867  36.628  12.112   5.182
 3829POPC   PO450868  37.158  11.683   5.211
 3829POPC   GL150869  37.100  11.861   5.687
 3829POPC   GL250870  36.833  11.842   5.980
 3829POPC   C1A50871  37.287  11.960   6.137
 3829POPC   D2A50872  37.427  12.187   6.522
 3829POPC   C3A50873  37.252  12.144   6.957
 3829POPC   C4A50874  37.107  12.333   7.352
 3829POPC   C1B50875  36.850  12.122   6.324
 3829POPC   C2B50876  36.775  12.140   6.722
 3829POPC   C3B50877  36.716  12.099   7.142
 3829POPC   C4B50878  36.660  11.759   7.368
 3830POPC   NC350879  21.284  34.522   5.395
 3830POPC   PO450880  21.952  34.292   5.408
 3830POPC   GL150881  21.663  34.398   5.748
 3830POPC   GL250882  21.667  34.776   5.791
 3830POPC   C1A50883  21.339  34.400   6.101
 3830POPC   D2A50884  21.126  34.521   6.513
 3830POPC   C3A50885  21.170  34.360   6.955
 3830POPC   C4A50886  21.597  34.376   7.169
 3830POPC   C1B50887  21.409  34.906   6.178
 3830POPC   C2B50888  21.260  35.037   6.579
 3830POPC   C3B50889  21.432  34.783   6.895
 3830POPC   C4B50890  21.480  34.841   7.325
 3831POPC   NC350891  11.725  39.103   5.238
 3831POPC   PO450892  11.905  39.751   5.195
 3831POPC   GL150893  11.872  39.665   5.672
 3831POPC   GL250894  12.053  39.875   5.921
 3831POPC   C1A50895  11.823  39.458   6.113
 3831POPC   D2A50896  11.700  39.457   6.584
 3831POPC   C3A50897  11.866  39.265   6.974
 3831POPC   C4A50898  11.954  39.512   7.326
 3831POPC   C1B50899  12.067  39.850   6.395
 3831POPC   C2B50900  12.091  39.716   6.844
 3831POPC   C3B50901  12.400  39.489   7.118
 3831POPC   C4B50902  12.423  39.479   7.586
 3832POPC   NC350903   7.834  39.201   5.569
 3832POPC   PO450904   7.177  39.178   5.471
 3832POPC   GL150905   7.396  39.351   5.824
 3832POPC   GL250906   7.619  39.638   5.757
 3832POPC   C1A50907   7.220  39.350   6.247
 3832POPC   D2A50908   7.124  39.385   6.682
 3832POPC   C3A50909   7.198  39.218   7.105
 3832POPC   C4A50910   7.311  39.273   7.551
 3832POPC   C1B50911   7.556  39.727   6.210
 3832POPC   C2B50912   7.528  39.728   6.689
 3832POPC   C3B50913   7.569  39.587   7.143
 3832POPC   C4B50914   7.395  39.771   7.538
 3833POPC   NC350915   4.105  37.079   5.369
 3833POPC   PO450916   4.282  37.828   5.335
 3833POPC   GL150917   4.184  37.515   5.708
 3833POPC   GL250918   4.493  37.344   5.881
 3833POPC   C1A50919   4.079  37.625   6.163
 3833POPC   D2A50920   4.337  37.892   6.483
 3833POPC   C3A50921   4.493  37.839   6.921
 3833POPC   C4A50922   4.268  37.838   7.355
 3833POPC   C1B50923   4.503  37.405   6.328
 3833POPC   C2B50924   4.200  37.405   6.657
 3833POPC   C3B50925   4.255  37.418   7.078
 3833POPC   C4B50926   4.658  37.413   7.256
 3834POPC   NC350927   2.565  44.141   5.360
 3834POPC   PO450928   2.420  43.598   5.795
 3834POPC   GL150929   2.816  43.772   5.810
 3834POPC   GL250930   2.749  44.113   5.832
 3834POPC   C1A50931   2.971  43.762   6.218
 3834POPC   D2A50932   2.700  43.937   6.535
 3834POPC   C3A50933   2.628  43.685   6.900
 3834POPC   C4A50934   2.414  43.643   7.298
 3834POPC   C1B50935   3.025  44.267   6.152
 3834POPC   C2B50936   3.134  44.225   6.596
 3834POPC   C3B50937   2.832  44.239   6.927
 3834POPC   C4B50938   2.799  43.991   7.273
 3835POPC   NC350939  42.682  39.070   5.475
 3835POPC   PO450940  42.061  39.325   5.389
 3835POPC   GL150941  42.252  39.252   5.764
 3835POPC   GL250942  42.281  38.892   5.791
 3835POPC   C1A50943  42.352  39.185   6.199
 3835POPC   D2A50944  42.341  39.372   6.583
 3835POPC   C3A50945  42.420  39.205   6.957
 3835POPC   C4A50946  42.318  39.352   7.353
 3835POPC   C1B50947  42.051  38.770   6.143
 3835POPC   C2B50948  42.091  38.916   6.566
 3835POPC   C3B50949  42.162  38.777   6.957
 3835POPC   C4B50950  42.094  38.928   7.370
 3836POPC   NC350951  12.045   4.778   5.163
 3836POPC   PO450952  12.266   5.382   5.273
 3836POPC   GL150953  12.086   5.027   5.633
 3836POPC   GL250954  12.280   4.721   5.720
 3836POPC   C1A50955  11.990   4.844   6.121
 3836POPC   D2A50956  12.030   4.922   6.612
 3836POPC   C3A50957  11.998   4.845   7.086
 3836POPC   C4A50958  11.776   4.986   7.477
 3836POPC   C1B50959  12.463   4.641   6.142
 3836POPC   C2B50960  12.551   4.877   6.522
 3836POPC   C3B50961  12.475   4.992   6.944
 3836POPC   C4B50962  12.255   5.292   7.195
 3837POPC   NC350963   0.647  40.166   5.543
 3837POPC   PO450964   0.085  39.795   5.392
 3837POPC   GL150965   0.373  39.774   5.733
 3837POPC   GL250966   0.242  40.056   5.892
 3837POPC   C1A50967   0.590  39.813   6.159
 3837POPC   D2A50968   0.434  39.841   6.583
 3837POPC   C3A50969   0.661  39.827   6.966
 3837POPC   C4A50970   0.363  39.702   7.269
 3837POPC   C1B50971   0.386  40.343   6.218
 3837POPC   C2B50972   0.581  40.357   6.644
 3837POPC   C3B50973   0.473  40.283   7.092
 3837POPC   C4B50974   0.635  40.173   7.483
 3838POPC   NC350975  31.839  12.141   5.336
 3838POPC   PO450976  32.513  12.072   5.265
 3838POPC   GL150977  32.339  12.041   5.710
 3838POPC   GL250978  32.139  11.755   5.689
 3838POPC   C1A50979  32.206  12.236   6.146
 3838POPC   D2A50980  32.431  12.424   6.518
 3838POPC   C3A50981  32.346  12.259   6.914
 3838POPC   C4A50982  31.953  12.185   7.095
 3838POPC   C1B50983  32.311  11.724   6.126
 3838POPC   C2B50984  32.292  11.915   6.544
 3838POPC   C3B50985  32.171  11.758   6.972
 3838POPC   C4B50986  32.359  11.694   7.382
 3839POPC   NC350987  42.085  31.760   5.399
 3839POPC   PO450988  42.444  32.303   5.427
 3839POPC   GL150989  42.479  32.308   5.850
 3839POPC   GL250990  42.339  31.977   5.834
 3839POPC   C1A50991  42.637  32.448   6.237
 3839POPC   D2A50992  42.620  32.630   6.660
 3839POPC   C3A50993  42.617  32.290   6.979
 3839POPC   C4A50994  42.287  32.221   7.222
 3839POPC   C1B50995  42.271  32.083   6.282
 3839POPC   C2B50996  42.176  32.187   6.711
 3839POPC   C3B50997  41.822  32.262   7.027
 3839POPC   C4B50998  41.875  32.272   7.504
 3840POPC   NC350999  14.482  44.198   5.242
 3840POPC   PO451000  14.560  43.635   5.700
 3840POPC   GL151001  14.514  43.965   6.047
 3840POPC   GL251002  14.293  44.190   5.802
 3840POPC   C1A51003  14.631  43.970   6.496
 3840POPC   D2A51004  14.911  43.723   6.793
 3840POPC   C3A51005  14.657  43.786   7.165
 3840POPC   C4A51006  14.345  44.129   7.139
 3840POPC   C1B51007  14.034  43.872   6.032
 3840POPC   C2B51008  14.152  43.724   6.412
 3840POPC   C3B51009  14.044  43.807   6.834
 3840POPC   C4B51010  14.132  43.681   7.249
 3841POPC   NC351011  31.536  25.310   5.318
 3841POPC   PO451012  30.903  25.649   5.421
 3841POPC   GL151013  31.226  25.503   5.690
 3841POPC   GL251014  31.163  25.675   5.984
 3841POPC   C1A51015  31.354  25.149   5.981
 3841POPC   D2A51016  31.589  24.917   6.321
 3841POPC   C3A51017  31.625  24.979   6.794
 3841POPC   C4A51018  31.616  24.953   7.247
 3841POPC   C1B51019  31.619  25.570   6.055
 3841POPC   C2B51020  31.717  25.394   6.444
 3841POPC   C3B51021  31.689  25.492   6.876
 3841POPC   C4B51022  31.433  25.491   7.255
 3842POPC   NC351023   2.235  31.976   5.468
 3842POPC   PO451024   1.868  32.532   5.271
 3842POPC   GL151025   1.797  32.302   5.641
 3842POPC   GL251026   2.118  32.368   5.777
 3842POPC   C1A51027   1.649  32.409   6.090
 3842POPC   D2A51028   1.797  32.318   6.520
 3842POPC   C3A51029   1.558  32.386   6.906
 3842POPC   C4A51030   1.793  32.324   7.260
 3842POPC   C1B51031   2.200  32.241   6.195
 3842POPC   C2B51032   2.313  32.149   6.612
 3842POPC   C3B51033   2.271  32.318   7.018
 3842POPC   C4B51034   2.253  32.273   7.458
 3843POPC   NC351035  22.744  16.251   5.547
 3843POPC   PO451036  22.272  15.894   5.340
 3843POPC   GL151037  22.112  15.971   5.777
 3843POPC   GL251038  22.411  16.045   5.863
 3843POPC   C1A51039  22.111  16.013   6.270
 3843POPC   D2A51040  22.404  16.002   6.641
 3843POPC   C3A51041  22.212  15.908   7.057
 3843POPC   C4A51042  22.016  16.133   7.405
 3843POPC   C1B51043  22.457  16.370   6.170
 3843POPC   C2B51044  22.251  16.486   6.534
 3843POPC   C3B51045  22.237  16.414   6.954
 3843POPC   C4B51046  22.532  16.301   7.242
 3844POPC   NC351047  31.400   3.271   5.428
 3844POPC   PO451048  31.976   3.506   5.300
 3844POPC   GL151049  31.779   3.560   5.736
 3844POPC   GL251050  31.426   3.537   5.848
 3844POPC   C1A51051  31.754   3.374   6.175
 3844POPC   D2A51052  31.487   3.262   6.524
 3844POPC   C3A51053  31.683   3.382   6.892
 3844POPC   C4A51054  31.694   3.683   7.228
 3844POPC   C1B51055  31.213   3.589   6.228
 3844POPC   C2B51056  30.931   3.318   6.444
 3844POPC   C3B51057  31.020   3.203   6.843
 3844POPC   C4B51058  31.206   3.471   7.112
 3845POPC   NC351059  24.742  35.126   5.489
 3845POPC   PO451060  24.022  34.990   5.439
 3845POPC   GL151061  24.291  35.109   5.788
 3845POPC   GL251062  24.403  35.451   5.708
 3845POPC   C1A51063  24.290  35.262   6.243
 3845POPC   D2A51064  24.488  35.220   6.660
 3845POPC   C3A51065  24.314  35.279   7.081
 3845POPC   C4A51066  24.203  35.236   7.528
 3845POPC   C1B51067  24.618  35.607   6.065
 3845POPC   C2B51068  24.591  35.707   6.518
 3845POPC   C3B51069  24.698  35.598   6.966
 3845POPC   C4B51070  24.555  35.599   7.401
 3846POPC   NC351071   9.685  40.619   5.360
 3846POPC   PO451072   9.494  41.151   5.561
 3846POPC   GL151073   9.634  40.792   5.854
 3846POPC   GL251074   9.927  40.508   5.795
 3846POPC   C1A51075   9.469  40.773   6.287
 3846POPC   D2A51076   9.397  41.090   6.575
 3846POPC   C3A51077   9.536  40.893   6.934
 3846POPC   C4A51078   9.707  40.883   7.351
 3846POPC   C1B51079   9.912  40.553   6.235
 3846POPC   C2B51080   9.681  40.471   6.641
 3846POPC   C3B51081   9.859  40.516   7.024
 3846POPC   C4B51082  10.194  40.685   7.262
 3847POPC   NC351083  20.298   9.884   5.316
 3847POPC   PO451084  19.658   9.444   5.467
 3847POPC   GL151085  19.849   9.647   5.812
 3847POPC   GL251086  20.024   9.370   5.924
 3847POPC   C1A51087  19.767   9.914   6.210
 3847POPC   D2A51088  19.518   9.948   6.614
 3847POPC   C3A51089  19.765   9.919   6.985
 3847POPC   C4A51090  20.192   9.901   7.138
 3847POPC   C1B51091  19.678   9.402   6.241
 3847POPC   C2B51092  19.725   9.466   6.682
 3847POPC   C3B51093  19.948   9.449   7.073
 3847POPC   C4B51094  19.763   9.473   7.459
 3848POPC   NC351095  25.883  27.662   5.441
 3848POPC   PO451096  26.085  27.250   5.789
 3848POPC   GL151097  26.004  27.665   5.929
 3848POPC   GL251098  25.661  27.754   5.934
 3848POPC   C1A51099  26.065  27.910   6.254
 3848POPC   D2A51100  26.038  27.690   6.623
 3848POPC   C3A51101  25.902  27.781   7.021
 3848POPC   C4A51102  26.044  27.937   7.423
 3848POPC   C1B51103  25.692  27.459   6.317
 3848POPC   C2B51104  25.708  27.335   6.775
 3848POPC   C3B51105  25.746  27.264   7.228
 3848POPC   C4B51106  25.594  27.286   7.690
 3849POPC   NC351107  27.847  19.105   5.308
 3849POPC   PO451108  27.223  18.842   5.140
 3849POPC   GL151109  27.358  19.075   5.547
 3849POPC   GL251110  27.284  19.419   5.699
 3849POPC   C1A51111  27.545  19.046   5.983
 3849POPC   D2A51112  27.672  18.729   6.330
 3849POPC   C3A51113  27.686  18.928   6.748
 3849POPC   C4A51114  27.805  18.973   7.177
 3849POPC   C1B51115  27.299  19.626   6.159
 3849POPC   C2B51116  27.386  19.623   6.646
 3849POPC   C3B51117  27.153  19.422   7.029
 3849POPC   C4B51118  27.257  19.004   7.252
 3850POPC   NC351119   6.889   2.470   5.122
 3850POPC   PO451120   6.398   2.954   5.430
 3850POPC   GL151121   6.443   2.688   5.794
 3850POPC   GL251122   6.781   2.589   5.661
 3850POPC   C1A51123   6.330   2.629   6.259
 3850POPC   D2A51124   6.410   2.969   6.559
 3850POPC   C3A51125   6.475   2.840   6.989
 3850POPC   C4A51126   6.436   2.418   7.184
 3850POPC   C1B51127   6.819   2.663   6.119
 3850POPC   C2B51128   6.775   2.455   6.522
 3850POPC   C3B51129   6.887   2.462   6.950
 3850POPC   C4B51130   6.853   2.716   7.301
 3851POPC   NC351131   2.756  21.718   5.442
 3851POPC   PO451132   2.166  21.239   5.335
 3851POPC   GL151133   2.487  21.341   5.704
 3851POPC   GL251134   2.827  21.183   5.785
 3851POPC   C1A51135   2.610  21.473   6.148
 3851POPC   D2A51136   2.453  21.351   6.581
 3851POPC   C3A51137   2.582  21.448   7.026
 3851POPC   C4A51138   2.384  21.277   7.415
 3851POPC   C1B51139   3.065  21.252   6.194
 3851POPC   C2B51140   2.979  21.480   6.572
 3851POPC   C3B51141   3.055  21.251   6.953
 3851POPC   C4B51142   3.028  21.435   7.342
 3852POPC   NC351143  26.167  14.111   5.424
 3852POPC   PO451144  26.081  14.836   5.411
 3852POPC   GL151145  26.145  14.556   5.747
 3852POPC   GL251146  25.966  14.219   5.855
 3852POPC   C1A51147  25.991  14.616   6.151
 3852POPC   D2A51148  25.953  14.309   6.492
 3852POPC   C3A51149  26.037  14.515   6.908
 3852POPC   C4A51150  25.967  14.697   7.317
 3852POPC   C1B51151  26.307  14.197   6.124
 3852POPC   C2B51152  26.398  14.063   6.583
 3852POPC   C3B51153  26.421  14.034   7.025
 3852POPC   C4B51154  26.088  14.136   7.291
 3853POPC   NC351155   5.381  27.017   5.482
 3853POPC   PO451156   4.898  26.595   5.408
 3853POPC   GL151157   5.109  26.661   5.789
 3853POPC   GL251158   5.487  26.641   5.855
 3853POPC   C1A51159   4.866  26.623   6.174
 3853POPC   D2A51160   4.910  26.488   6.579
 3853POPC   C3A51161   5.159  26.776   6.795
 3853POPC   C4A51162   5.159  26.792   7.230
 3853POPC   C1B51163   5.290  26.907   6.216
 3853POPC   C2B51164   5.134  27.247   6.519
 3853POPC   C3B51165   5.023  27.252   6.961
 3853POPC   C4B51166   5.443  27.189   7.104
 3854POPC   NC351167  15.557  25.360   5.480
 3854POPC   PO451168  15.075  25.019   5.318
 3854POPC   GL151169  15.126  25.163   5.772
 3854POPC   GL251170  14.799  25.024   5.852
 3854POPC   C1A51171  15.371  25.224   6.209
 3854POPC   D2A51172  15.562  25.457   6.602
 3854POPC   C3A51173  15.407  25.266   6.987
 3854POPC   C4A51174  15.310  25.511   7.397
 3854POPC   C1B51175  14.962  24.831   6.220
 3854POPC   C2B51176  15.086  24.977   6.639
 3854POPC   C3B51177  14.905  25.215   6.999
 3854POPC   C4B51178  15.024  25.102   7.420
 3855POPC   NC351179  27.104  22.250   5.443
 3855POPC   PO451180  26.459  22.021   5.349
 3855POPC   GL151181  26.610  21.863   5.787
 3855POPC   GL251182  26.957  21.868   5.785
 3855POPC   C1A51183  26.705  21.894   6.242
 3855POPC   D2A51184  27.030  22.026   6.576
 3855POPC   C3A51185  26.863  21.922   7.002
 3855POPC   C4A51186  26.707  21.923   7.444
 3855POPC   C1B51187  27.057  22.206   6.079
 3855POPC   C2B51188  26.942  22.495   6.416
 3855POPC   C3B51189  26.937  22.466   6.870
 3855POPC   C4B51190  26.965  22.357   7.309
 3856POPC   NC351191  31.456  17.009   5.365
 3856POPC   PO451192  31.322  16.373   5.274
 3856POPC   GL151193  31.338  16.644   5.714
 3856POPC   GL251194  31.102  16.946   5.748
 3856POPC   C1A51195  31.609  16.657   6.123
 3856POPC   D2A51196  31.555  16.757   6.565
 3856POPC   C3A51197  31.581  16.561   6.961
 3856POPC   C4A51198  31.880  16.694   7.258
 3856POPC   C1B51199  31.122  16.780   6.171
 3856POPC   C2B51200  31.070  16.665   6.582
 3856POPC   C3B51201  31.102  16.835   6.951
 3856POPC   C4B51202  31.169  16.781   7.358
 3857POPC   NC351203  40.235   4.775   5.293
 3857POPC   PO451204  40.114   5.388   5.312
 3857POPC   GL151205  40.266   5.127   5.684
 3857POPC   GL251206  39.968   4.952   5.783
 3857POPC   C1A51207  40.305   5.006   6.165
 3857POPC   D2A51208  40.166   5.222   6.571
 3857POPC   C3A51209  40.234   5.046   6.993
 3857POPC   C4A51210  40.159   4.949   7.437
 3857POPC   C1B51211  39.781   4.886   6.210
 3857POPC   C2B51212  39.692   5.059   6.631
 3857POPC   C3B51213  39.727   5.101   7.062
 3857POPC   C4B51214  39.674   4.789   7.339
 3858POPC   NC351215   5.511  13.363   5.518
 3858POPC   PO451216   4.821  13.640   5.364
 3858POPC   GL151217   4.881  13.788   5.790
 3858POPC   GL251218   4.616  13.524   5.815
 3858POPC   C1A51219   5.211  13.766   6.176
 3858POPC   D2A51220   5.191  13.527   6.582
 3858POPC   C3A51221   5.270  13.669   7.012
 3858POPC   C4A51222   5.284  13.946   7.344
 3858POPC   C1B51223   4.777  13.499   6.205
 3858POPC   C2B51224   4.695  13.716   6.559
 3858POPC   C3B51225   4.778  13.511   6.904
 3858POPC   C4B51226   4.812  13.654   7.277
 3859POPC   NC351227   0.827  29.085   5.463
 3859POPC   PO451228   0.349  28.671   5.327
 3859POPC   GL151229   0.357  28.934   5.706
 3859POPC   GL251230   0.656  28.784   5.844
 3859POPC   C1A51231   0.235  29.309   5.994
 3859POPC   D2A51232   0.156  29.265   6.443
 3859POPC   C3A51233   0.273  29.480   6.838
 3859POPC   C4A51234   0.633  29.424   7.153
 3859POPC   C1B51235   0.579  28.986   6.216
 3859POPC   C2B51236   0.449  28.867   6.614
 3859POPC   C3B51237   0.614  28.823   7.027
 3859POPC   C4B51238   0.657  28.553   7.394
 3860POPC   NC351239  29.128  18.508   5.294
 3860POPC   PO451240  29.365  19.132   5.296
 3860POPC   GL151241  29.063  18.954   5.600
 3860POPC   GL251242  29.224  19.153   5.816
 3860POPC   C1A51243  28.808  18.967   6.018
 3860POPC   D2A51244  28.904  19.030   6.460
 3860POPC   C3A51245  28.785  18.795   6.805
 3860POPC   C4A51246  28.824  18.946   7.221
 3860POPC   C1B51247  29.295  18.823   6.147
 3860POPC   C2B51248  29.410  18.847   6.589
 3860POPC   C3B51249  29.277  18.943   6.997
 3860POPC   C4B51250  29.315  18.789   7.414
 3861POPC   NC351251  18.382  23.147   5.398
 3861POPC   PO451252  18.345  23.747   5.309
 3861POPC   GL151253  18.358  23.745   5.759
 3861POPC   GL251254  18.690  23.812   5.831
 3861POPC   C1A51255  18.352  23.627   6.207
 3861POPC   D2A51256  18.209  23.400   6.563
 3861POPC   C3A51257  18.307  23.659   6.905
 3861POPC   C4A51258  18.244  23.608   7.331
 3861POPC   C1B51259  18.593  24.082   6.148
 3861POPC   C2B51260  18.428  24.071   6.544
 3861POPC   C3B51261  18.628  24.046   6.929
 3861POPC   C4B51262  18.503  24.044   7.342
 3862POPC   NC351263  41.371  34.142   5.474
 3862POPC   PO451264  41.842  33.697   5.451
 3862POPC   GL151265  41.731  33.667   5.859
 3862POPC   GL251266  41.921  33.360   5.906
 3862POPC   C1A51267  41.492  33.905   6.190
 3862POPC   D2A51268  41.367  34.219   6.535
 3862POPC   C3A51269  41.415  34.040   6.952
 3862POPC   C4A51270  41.529  33.667   7.168
 3862POPC   C1B51271  41.876  33.535   6.316
 3862POPC   C2B51272  41.684  33.574   6.683
 3862POPC   C3B51273  41.986  33.651   6.970
 3862POPC   C4B51274  41.951  33.492   7.377
 3863POPC   NC351275  19.825  27.760   5.449
 3863POPC   PO451276  20.079  27.205   5.739
 3863POPC   GL151277  19.996  27.645   5.910
 3863POPC   GL251278  19.676  27.894   5.921
 3863POPC   C1A51279  20.155  27.922   6.209
 3863POPC   D2A51280  20.063  27.984   6.638
 3863POPC   C3A51281  19.966  27.640   6.912
 3863POPC   C4A51282  19.857  27.684   7.343
 3863POPC   C1B51283  19.573  27.512   6.118
 3863POPC   C2B51284  19.661  27.351   6.518
 3863POPC   C3B51285  19.532  27.336   6.936
 3863POPC   C4B51286  19.443  27.404   7.392
 3864POPC   NC351287  40.387   0.868   5.417
 3864POPC   PO451288  40.944   1.321   5.466
 3864POPC   GL151289  40.765   1.083   5.788
 3864POPC   GL251290  40.422   1.210   5.792
 3864POPC   C1A51291  40.896   1.029   6.221
 3864POPC   D2A51292  40.988   0.895   6.647
 3864POPC   C3A51293  40.918   1.244   6.921
 3864POPC   C4A51294  40.829   1.461   7.319
 3864POPC   C1B51295  40.391   0.911   6.150
 3864POPC   C2B51296  40.492   0.975   6.602
 3864POPC   C3B51297  40.419   1.202   7.012
 3864POPC   C4B51298  40.319   1.308   7.439
 3865POPC   NC351299  36.007  35.728   5.409
 3865POPC   PO451300  36.314  35.127   5.416
 3865POPC   GL151301  36.097  35.141   5.776
 3865POPC   GL251302  36.105  35.491   5.859
 3865POPC   C1A51303  35.969  34.993   6.180
 3865POPC   D2A51304  35.843  35.261   6.483
 3865POPC   C3A51305  35.781  35.179   6.895
 3865POPC   C4A51306  35.843  35.047   7.314
 3865POPC   C1B51307  36.353  35.304   6.200
 3865POPC   C2B51308  36.304  35.401   6.639
 3865POPC   C3B51309  36.274  35.275   7.045
 3865POPC   C4B51310  36.218  35.331   7.476
 3866POPC   NC351311   9.887  39.552   5.431
 3866POPC   PO451312   9.768  40.178   5.393
 3866POPC   GL151313   9.734  39.983   5.791
 3866POPC   GL251314  10.054  39.852   5.816
 3866POPC   C1A51315   9.687  40.077   6.239
 3866POPC   D2A51316   9.594  39.920   6.660
 3866POPC   C3A51317   9.599  40.076   7.089
 3866POPC   C4A51318   9.507  39.940   7.510
 3866POPC   C1B51319  10.047  39.692   6.261
 3866POPC   C2B51320  10.288  39.725   6.666
 3866POPC   C3B51321  10.042  39.834   6.987
 3866POPC   C4B51322   9.957  39.698   7.373
 3867POPC   NC351323  22.268  11.813   5.408
 3867POPC   PO451324  21.975  12.376   5.413
 3867POPC   GL151325  22.051  12.148   5.792
 3867POPC   GL251326  22.051  11.808   5.853
 3867POPC   C1A51327  22.224  12.206   6.212
 3867POPC   D2A51328  22.501  12.369   6.546
 3867POPC   C3A51329  22.251  12.300   6.919
 3867POPC   C4A51330  22.152  12.141   7.310
 3867POPC   C1B51331  21.789  11.656   6.167
 3867POPC   C2B51332  22.007  11.796   6.492
 3867POPC   C3B51333  21.996  11.824   6.916
 3867POPC   C4B51334  21.768  11.746   7.283
 3868POPC   NC351335  13.187  19.080   5.440
 3868POPC   PO451336  12.515  19.259   5.267
 3868POPC   GL151337  12.732  18.980   5.688
 3868POPC   GL251338  13.078  19.023   5.915
 3868POPC   C1A51339  12.719  18.809   6.153
 3868POPC   D2A51340  13.015  18.891   6.527
 3868POPC   C3A51341  12.865  19.035   6.924
 3868POPC   C4A51342  12.927  18.838   7.333
 3868POPC   C1B51343  12.882  19.291   6.245
 3868POPC   C2B51344  13.043  19.483   6.612
 3868POPC   C3B51345  13.226  19.400   6.980
 3868POPC   C4B51346  13.013  19.331   7.364
 3869POPC   NC351347  37.162  12.753   5.200
 3869POPC   PO451348  37.646  13.131   5.374
 3869POPC   GL151349  37.733  13.133   5.827
 3869POPC   GL251350  37.960  13.421   5.890
 3869POPC   C1A51351  37.604  12.825   6.158
 3869POPC   D2A51352  37.271  12.646   6.403
 3869POPC   C3A51353  37.391  12.649   6.846
 3869POPC   C4A51354  37.741  12.784   7.097
 3869POPC   C1B51355  37.960  13.186   6.286
 3869POPC   C2B51356  37.775  13.028   6.639
 3869POPC   C3B51357  37.966  13.228   6.983
 3869POPC   C4B51358  38.126  13.041   7.360
 3870POPC   NC351359  12.186  27.165   5.008
 3870POPC   PO451360  12.136  27.735   5.353
 3870POPC   GL151361  12.078  27.591   5.790
 3870POPC   GL251362  12.229  27.248   5.790
 3870POPC   C1A51363  12.079  27.723   6.236
 3870POPC   D2A51364  12.294  27.661   6.646
 3870POPC   C3A51365  12.121  27.816   7.041
 3870POPC   C4A51366  12.108  27.658   7.437
 3870POPC   C1B51367  12.284  27.254   6.227
 3870POPC   C2B51368  12.129  27.185   6.622
 3870POPC   C3B51369  12.117  27.306   7.032
 3870POPC   C4B51370  12.004  27.154   7.407
 3871POPC   NC351371  44.964  27.627   5.455
 3871POPC   PO451372  44.309  27.752   5.407
 3871POPC   GL151373  44.400  27.539   5.787
 3871POPC   GL251374  44.519  27.875   5.868
 3871POPC   C1A51375  44.568  27.492   6.234
 3871POPC   D2A51376  44.644  27.351   6.691
 3871POPC   C3A51377  44.757  27.634   7.048
 3871POPC   C4A51378  44.869  27.566   7.469
 3871POPC   C1B51379  44.476  28.028   6.283
 3871POPC   C2B51380  44.490  27.896   6.678
 3871POPC   C3B51381  44.375  28.057   7.063
 3871POPC   C4B51382  44.451  27.857   7.433
 3872POPC   NC351383  42.574  40.948   5.306
 3872POPC   PO451384  42.359  41.529   5.520
 3872POPC   GL151385  42.368  41.250   5.839
 3872POPC   GL251386  42.658  41.015   5.845
 3872POPC   C1A51387  42.151  41.447   6.176
 3872POPC   D2A51388  42.279  41.696   6.544
 3872POPC   C3A51389  42.166  41.570   6.962
 3872POPC   C4A51390  42.233  41.820   7.311
 3872POPC   C1B51391  42.579  41.163   6.294
 3872POPC   C2B51392  42.740  41.455   6.605
 3872POPC   C3B51393  42.701  41.707   6.979
 3872POPC   C4B51394  42.594  41.450   7.314
 3873POPC   NC351395   1.097  13.142   5.469
 3873POPC   PO451396   1.538  12.679   5.446
 3873POPC   GL151397   1.376  12.820   5.840
 3873POPC   GL251398   1.007  12.834   5.865
 3873POPC   C1A51399   1.381  12.681   6.285
 3873POPC   D2A51400   1.508  12.467   6.699
 3873POPC   C3A51401   1.504  12.783   7.036
 3873POPC   C4A51402   1.554  12.783   7.483
 3873POPC   C1B51403   0.919  12.889   6.309
 3873POPC   C2B51404   1.082  12.786   6.723
 3873POPC   C3B51405   0.999  12.695   7.152
 3873POPC   C4B51406   0.743  12.890   7.463
 3874POPC   NC351407  29.564  23.519   5.510
 3874POPC   PO451408  30.098  23.852   5.491
 3874POPC   GL151409  30.069  23.890   5.901
 3874POPC   GL251410  29.785  23.675   5.945
 3874POPC   C1A51411  29.934  23.990   6.300
 3874POPC   D2A51412  29.792  23.726   6.621
 3874POPC   C3A51413  29.960  23.794   6.989
 3874POPC   C4A51414  29.946  23.793   7.421
 3874POPC   C1B51415  30.047  23.483   6.264
 3874POPC   C2B51416  30.146  23.377   6.726
 3874POPC   C3B51417  30.181  23.390   7.215
 3874POPC   C4B51418  30.244  23.456   7.688
 3875POPC   NC351419  26.600   7.715   5.318
 3875POPC   PO451420  26.823   8.333   5.482
 3875POPC   GL151421  26.838   8.183   5.895
 3875POPC   GL251422  26.959   7.861   5.895
 3875POPC   C1A51423  26.694   8.047   6.311
 3875POPC   D2A51424  26.876   8.034   6.697
 3875POPC   C3A51425  26.883   8.393   6.952
 3875POPC   C4A51426  26.655   8.526   7.320
 3875POPC   C1B51427  27.127   7.654   6.273
 3875POPC   C2B51428  27.305   7.744   6.690
 3875POPC   C3B51429  27.051   7.738   7.072
 3875POPC   C4B51430  26.670   7.937   7.182
 3876POPC   NC351431  13.421  17.372   5.350
 3876POPC   PO451432  13.809  17.830   5.601
 3876POPC   GL151433  13.517  17.725   5.912
 3876POPC   GL251434  13.449  17.371   5.869
 3876POPC   C1A51435  13.610  17.601   6.347
 3876POPC   D2A51436  13.852  17.654   6.749
 3876POPC   C3A51437  13.580  17.743   7.099
 3876POPC   C4A51438  13.507  17.697   7.535
 3876POPC   C1B51439  13.874  17.316   6.038
 3876POPC   C2B51440  13.949  17.206   6.472
 3876POPC   C3B51441  13.856  17.171   6.909
 3876POPC   C4B51442  13.648  17.273   7.283
 3877POPC   NC351443   6.512  27.437   5.304
 3877POPC   PO451444   6.853  28.013   5.470
 3877POPC   GL151445   6.555  27.775   5.685
 3877POPC   GL251446   6.714  27.428   5.784
 3877POPC   C1A51447   6.388  27.717   6.072
 3877POPC   D2A51448   6.362  27.896   6.466
 3877POPC   C3A51449   6.625  27.611   6.728
 3877POPC   C4A51450   6.551  27.468   7.145
 3877POPC   C1B51451   6.757  27.392   6.249
 3877POPC   C2B51452   6.722  27.091   6.597
 3877POPC   C3B51453   6.895  27.113   7.011
 3877POPC   C4B51454   7.024  27.412   7.347
 3878POPC   NC351455   7.236  20.848   5.566
 3878POPC   PO451456   7.373  21.539   5.422
 3878POPC   GL151457   7.639  21.357   5.792
 3878POPC   GL251458   7.845  21.029   5.746
 3878POPC   C1A51459   7.508  21.341   6.259
 3878POPC   D2A51460   7.177  21.477   6.570
 3878POPC   C3A51461   7.088  21.311   6.984
 3878POPC   C4A51462   7.048  20.877   7.119
 3878POPC   C1B51463   7.992  21.185   6.150
 3878POPC   C2B51464   7.920  21.296   6.590
 3878POPC   C3B51465   7.838  21.102   6.982
 3878POPC   C4B51466   7.488  21.149   7.256
 3879POPC   NC351467  24.682  17.936   5.308
 3879POPC   PO451468  24.253  17.368   5.483
 3879POPC   GL151469  24.581  17.449   5.800
 3879POPC   GL251470  24.735  17.777   5.805
 3879POPC   C1A51471  24.724  17.230   6.163
 3879POPC   D2A51472  24.600  17.139   6.555
 3879POPC   C3A51473  24.672  17.428   6.881
 3879POPC   C4A51474  24.713  17.154   7.221
 3879POPC   C1B51475  24.601  17.717   6.259
 3879POPC   C2B51476  24.364  17.889   6.609
 3879POPC   C3B51477  24.301  17.796   7.043
 3879POPC   C4B51478  24.560  17.602   7.384
 3880POPC   NC351479  18.166   0.966   5.305
 3880POPC   PO451480  18.224   1.634   5.276
 3880POPC   GL151481  18.196   1.371   5.647
 3880POPC   GL251482  18.468   1.128   5.697
 3880POPC   C1A51483  18.068   1.240   6.075
 3880POPC   D2A51484  17.886   1.256   6.488
 3880POPC   C3A51485  18.091   1.358   6.852
 3880POPC   C4A51486  17.937   1.435   7.264
 3880POPC   C1B51487  18.510   1.020   6.124
 3880POPC   C2B51488  18.297   0.947   6.532
 3880POPC   C3B51489  18.470   1.012   6.921
 3880POPC   C4B51490  18.461   1.299   7.232
 3881POPC   NC351491  39.462  41.926   5.657
 3881POPC   PO451492  39.066  41.410   5.453
 3881POPC   GL151493  39.155  41.562   5.870
 3881POPC   GL251494  39.504  41.502   5.943
 3881POPC   C1A51495  39.200  41.848   6.227
 3881POPC   D2A51496  39.317  41.993   6.622
 3881POPC   C3A51497  39.151  41.744   6.938
 3881POPC   C4A51498  39.240  41.590   7.322
 3881POPC   C1B51499  39.517  41.479   6.401
 3881POPC   C2B51500  39.357  41.260   6.769
 3881POPC   C3B51501  39.031  41.194   7.078
 3881POPC   C4B51502  39.052  41.204   7.562
 3882POPC   NC351503  32.536  42.845   5.384
 3882POPC   PO451504  31.898  43.148   5.240
 3882POPC   GL151505  32.171  43.060   5.704
 3882POPC   GL251506  32.515  42.994   5.853
 3882POPC   C1A51507  32.182  43.220   6.162
 3882POPC   D2A51508  32.098  43.383   6.578
 3882POPC   C3A51509  32.242  43.238   6.984
 3882POPC   C4A51510  32.417  43.534   7.234
 3882POPC   C1B51511  32.570  42.773   6.215
 3882POPC   C2B51512  32.441  42.945   6.605
 3882POPC   C3B51513  32.450  42.763   7.027
 3882POPC   C4B51514  32.657  42.597   7.390
 3883POPC   NC351515   8.435  25.530   5.402
 3883POPC   PO451516   7.932  24.973   5.410
 3883POPC   GL151517   8.137  25.224   5.721
 3883POPC   GL251518   8.341  25.007   5.936
 3883POPC   C1A51519   8.185  25.450   6.145
 3883POPC   D2A51520   8.127  25.217   6.557
 3883POPC   C3A51521   8.123  25.421   6.910
 3883POPC   C4A51522   8.330  25.413   7.267
 3883POPC   C1B51523   7.907  25.019   6.160
 3883POPC   C2B51524   7.605  25.082   6.477
 3883POPC   C3B51525   7.726  25.039   6.901
 3883POPC   C4B51526   8.136  24.941   7.129
 3884POPC   NC351527  38.999   6.463   5.110
 3884POPC   PO451528  39.472   6.843   5.403
 3884POPC   GL151529  39.361   6.481   5.685
 3884POPC   GL251530  39.064   6.610   5.725
 3884POPC   C1A51531  39.200   6.291   6.106
 3884POPC   D2A51532  39.151   6.460   6.542
 3884POPC   C3A51533  39.428   6.414   6.863
 3884POPC   C4A51534  39.628   6.421   7.263
 3884POPC   C1B51535  39.218   6.803   6.144
 3884POPC   C2B51536  39.044   6.977   6.573
 3884POPC   C3B51537  39.060   6.782   6.998
 3884POPC   C4B51538  38.939   6.853   7.434
 3885POPC   NC351539  38.308   3.425   5.450
 3885POPC   PO451540  38.860   3.204   5.805
 3885POPC   GL151541  38.729   3.612   5.940
 3885POPC   GL251542  38.964   3.890   5.852
 3885POPC   C1A51543  38.358   3.629   6.200
 3885POPC   D2A51544  38.186   3.283   6.495
 3885POPC   C3A51545  38.214   3.366   6.948
 3885POPC   C4A51546  38.264   3.172   7.351
 3885POPC   C1B51547  38.851   3.963   6.294
 3885POPC   C2B51548  38.547   3.860   6.620
 3885POPC   C3B51549  38.607   3.712   7.017
 3885POPC   C4B51550  38.721   3.358   7.242
 3886POPC   NC351551  32.993  14.487   5.422
 3886POPC   PO451552  33.482  14.153   5.646
 3886POPC   GL151553  33.155  14.141   5.843
 3886POPC   GL251554  32.812  14.124   5.742
 3886POPC   C1A51555  33.135  14.259   6.228
 3886POPC   D2A51556  32.949  14.434   6.590
 3886POPC   C3A51557  33.107  14.278   6.960
 3886POPC   C4A51558  33.208  14.455   7.353
 3886POPC   C1B51559  32.645  14.304   6.150
 3886POPC   C2B51560  32.436  14.415   6.547
 3886POPC   C3B51561  32.513  14.590   6.922
 3886POPC   C4B51562  32.721  14.510   7.278
 3887POPC   NC351563  14.228  16.116   5.532
 3887POPC   PO451564  14.836  15.849   5.390
 3887POPC   GL151565  14.603  15.881   5.791
 3887POPC   GL251566  14.541  16.211   5.919
 3887POPC   C1A51567  14.602  15.832   6.261
 3887POPC   D2A51568  14.350  15.790   6.653
 3887POPC   C3A51569  14.546  16.008   7.028
 3887POPC   C4A51570  14.791  15.884   7.408
 3887POPC   C1B51571  14.157  16.092   6.184
 3887POPC   C2B51572  14.060  16.205   6.615
 3887POPC   C3B51573  14.029  16.034   7.037
 3887POPC   C4B51574  14.217  16.068   7.473
 3888POPC   NC351575   5.397  40.739   5.459
 3888POPC   PO451576   4.788  41.004   5.660
 3888POPC   GL151577   5.131  40.890   5.886
 3888POPC   GL251578   5.414  41.121   5.779
 3888POPC   C1A51579   5.140  40.610   6.273
 3888POPC   D2A51580   4.894  40.454   6.672
 3888POPC   C3A51581   4.895  40.757   7.057
 3888POPC   C4A51582   4.825  40.765   7.526
 3888POPC   C1B51583   5.594  40.876   6.101
 3888POPC   C2B51584   5.470  40.959   6.501
 3888POPC   C3B51585   5.468  40.889   6.916
 3888POPC   C4B51586   5.354  40.710   7.277
 3889POPC   NC351587  24.305  20.246   5.586
 3889POPC   PO451588  23.761  19.775   5.372
 3889POPC   GL151589  23.690  19.965   5.768
 3889POPC   GL251590  23.627  19.607   5.852
 3889POPC   C1A51591  23.511  20.001   6.191
 3889POPC   D2A51592  23.386  19.837   6.582
 3889POPC   C3A51593  23.544  19.982   6.939
 3889POPC   C4A51594  23.759  19.944   7.299
 3889POPC   C1B51595  23.514  19.463   6.258
 3889POPC   C2B51596  23.560  19.327   6.705
 3889POPC   C3B51597  23.616  19.426   7.154
 3889POPC   C4B51598  23.765  19.544   7.604
 3890POPC   NC351599  44.141   3.168   5.450
 3890POPC   PO451600  43.698   2.790   5.186
 3890POPC   GL151601  43.670   2.907   5.713
 3890POPC   GL251602  43.979   3.057   5.921
 3890POPC   C1A51603  43.698   2.701   6.185
 3890POPC   D2A51604  43.609   2.578   6.667
 3890POPC   C3A51605  43.861   2.552   7.067
 3890POPC   C4A51606  43.955   2.500   7.523
 3890POPC   C1B51607  43.984   3.115   6.346
 3890POPC   C2B51608  44.050   2.907   6.716
 3890POPC   C3B51609  44.122   2.995   7.117
 3890POPC   C4B51610  44.026   2.995   7.510
 3891POPC   NC351611  25.045  42.795   5.724
 3891POPC   PO451612  25.063  43.412   5.574
 3891POPC   GL151613  25.094  43.280   5.962
 3891POPC   GL251614  25.432  43.179   5.882
 3891POPC   C1A51615  24.981  43.478   6.348
 3891POPC   D2A51616  24.859  43.508   6.790
 3891POPC   C3A51617  25.145  43.279   7.090
 3891POPC   C4A51618  25.331  43.413   7.498
 3891POPC   C1B51619  25.473  43.291   6.327
 3891POPC   C2B51620  25.536  43.181   6.765
 3891POPC   C3B51621  25.621  43.095   7.205
 3891POPC   C4B51622  25.504  42.971   7.653
 3892POPC   NC351623  22.759  12.680   5.491
 3892POPC   PO451624  22.946  13.329   5.287
 3892POPC   GL151625  22.910  13.187   5.728
 3892POPC   GL251626  23.093  12.848   5.829
 3892POPC   C1A51627  22.986  13.192   6.170
 3892POPC   D2A51628  23.134  12.950   6.510
 3892POPC   C3A51629  22.834  12.871   6.824
 3892POPC   C4A51630  22.938  12.948   7.249
 3892POPC   C1B51631  22.936  12.591   6.182
 3892POPC   C2B51632  23.063  12.432   6.604
 3892POPC   C3B51633  23.009  12.453   7.046
 3892POPC   C4B51634  22.663  12.286   7.226
 3893POPC   NC351635   3.184  32.877   5.136
 3893POPC   PO451636   3.785  33.239   5.333
 3893POPC   GL151637   3.834  33.208   5.764
 3893POPC   GL251638   3.734  32.895   5.824
 3893POPC   C1A51639   3.741  33.262   6.190
 3893POPC   D2A51640   3.688  33.109   6.601
 3893POPC   C3A51641   3.356  32.939   6.830
 3893POPC   C4A51642   3.460  32.947   7.243
 3893POPC   C1B51643   3.531  32.780   6.219
 3893POPC   C2B51644   3.660  32.574   6.620
 3893POPC   C3B51645   3.517  32.466   7.027
 3893POPC   C4B51646   3.118  32.543   7.212
 3894POPC   NC351647  28.063   3.087   5.452
 3894POPC   PO451648  28.669   2.667   5.449
 3894POPC   GL151649  28.380   2.747   5.796
 3894POPC   GL251650  28.216   2.418   5.884
 3894POPC   C1A51651  28.314   2.760   6.270
 3894POPC   D2A51652  28.404   2.484   6.625
 3894POPC   C3A51653  28.075   2.459   6.942
 3894POPC   C4A51654  28.103   2.735   7.262
 3894POPC   C1B51655  28.589   2.386   6.119
 3894POPC   C2B51656  28.910   2.440   6.412
 3894POPC   C3B51657  28.850   2.452   6.860
 3894POPC   C4B51658  28.539   2.457   7.176
 3895POPC   NC351659  17.575   2.435   5.666
 3895POPC   PO451660  17.524   1.930   5.194
 3895POPC   GL151661  17.435   1.933   5.669
 3895POPC   GL251662  17.145   2.077   5.885
 3895POPC   C1A51663  17.631   1.855   6.097
 3895POPC   D2A51664  17.499   1.644   6.540
 3895POPC   C3A51665  17.361   1.813   6.931
 3895POPC   C4A51666  17.508   1.767   7.365
 3895POPC   C1B51667  17.263   2.074   6.349
 3895POPC   C2B51668  17.673   2.155   6.545
 3895POPC   C3B51669  17.775   2.339   6.934
 3895POPC   C4B51670  17.473   2.273   7.257
 3896POPC   NC351671   1.037  22.443   5.614
 3896POPC   PO451672   1.548  22.957   5.520
 3896POPC   GL151673   1.169  22.925   5.807
 3896POPC   GL251674   1.351  22.679   5.942
 3896POPC   C1A51675   0.918  22.778   6.220
 3896POPC   D2A51676   1.013  22.672   6.692
 3896POPC   C3A51677   0.888  22.932   7.065
 3896POPC   C4A51678   0.962  23.014   7.534
 3896POPC   C1B51679   1.389  22.906   6.344
 3896POPC   C2B51680   1.388  23.031   6.786
 3896POPC   C3B51681   1.363  22.884   7.215
 3896POPC   C4B51682   1.359  22.754   7.679
 3897POPC   NC351683  10.815  25.068   5.282
 3897POPC   PO451684  10.190  25.151   5.587
 3897POPC   GL151685  10.608  25.070   5.763
 3897POPC   GL251686  10.674  25.422   5.745
 3897POPC   C1A51687  10.605  24.874   6.182
 3897POPC   D2A51688  10.183  24.991   6.409
 3897POPC   C3A51689  10.211  25.101   6.840
 3897POPC   C4A51690  10.537  25.072   7.115
 3897POPC   C1B51691  10.489  25.353   6.181
 3897POPC   C2B51692  10.655  25.224   6.580
 3897POPC   C3B51693  10.858  25.438   6.930
 3897POPC   C4B51694  10.687  25.510   7.332
 3898POPC   NC351695   7.679   3.644   5.546
 3898POPC   PO451696   7.471   4.276   5.424
 3898POPC   GL151697   7.354   4.307   5.816
 3898POPC   GL251698   7.166   4.587   5.736
 3898POPC   C1A51699   7.579   4.376   6.189
 3898POPC   D2A51700   7.544   4.530   6.614
 3898POPC   C3A51701   7.661   4.281   6.971
 3898POPC   C4A51702   7.341   4.112   7.197
 3898POPC   C1B51703   7.152   4.685   6.158
 3898POPC   C2B51704   7.006   4.613   6.549
 3898POPC   C3B51705   7.112   4.501   6.955
 3898POPC   C4B51706   6.884   4.638   7.300
 3899POPC   NC351707  23.078  36.968   5.294
 3899POPC   PO451708  23.354  36.426   5.200
 3899POPC   GL151709  23.149  36.571   5.627
 3899POPC   GL251710  23.253  36.909   5.772
 3899POPC   C1A51711  22.976  36.613   6.081
 3899POPC   D2A51712  22.720  36.886   6.394
 3899POPC   C3A51713  22.843  36.819   6.831
 3899POPC   C4A51714  22.850  36.581   7.214
 3899POPC   C1B51715  23.081  37.164   6.113
 3899POPC   C2B51716  23.041  37.250   6.564
 3899POPC   C3B51717  23.103  37.202   7.012
 3899POPC   C4B51718  22.769  37.086   7.298
 3900POPC   NC351719  22.310  17.917   5.551
 3900POPC   PO451720  22.020  17.402   5.078
 3900POPC   GL151721  22.070  17.396   5.620
 3900POPC   GL251722  21.935  17.632   5.867
 3900POPC   C1A51723  22.384  17.469   6.042
 3900POPC   D2A51724  22.545  17.776   6.410
 3900POPC   C3A51725  22.359  17.703   6.836
 3900POPC   C4A51726  22.314  17.342   7.133
 3900POPC   C1B51727  22.042  17.685   6.342
 3900POPC   C2B51728  21.871  17.804   6.715
 3900POPC   C3B51729  21.884  17.643   7.129
 3900POPC   C4B51730  21.839  17.521   7.581
 3901POPC   NC351731  12.039  44.293   5.479
 3901POPC   PO451732  11.930  43.640   5.435
 3901POPC   GL151733  11.870  43.830   5.864
 3901POPC   GL251734  11.662  44.151   5.805
 3901POPC   C1A51735  12.123  43.942   6.259
 3901POPC   D2A51736  12.108  44.330   6.533
 3901POPC   C3A51737  11.916  44.263   6.942
 3901POPC   C4A51738  12.153  44.133   7.291
 3901POPC   C1B51739  11.649  44.106   6.255
 3901POPC   C2B51740  11.746  43.828   6.615
 3901POPC   C3B51741  11.826  43.751   7.057
 3901POPC   C4B51742  11.666  43.982   7.395
 3902POPC   NC351743  17.524  32.367   5.370
 3902POPC   PO451744  17.295  31.742   5.411
 3902POPC   GL151745  17.552  31.968   5.722
 3902POPC   GL251746  17.393  32.281   5.850
 3902POPC   C1A51747  17.512  31.926   6.185
 3902POPC   D2A51748  17.618  32.180   6.563
 3902POPC   C3A51749  17.514  32.052   6.946
 3902POPC   C4A51750  17.609  31.963   7.337
 3902POPC   C1B51751  17.512  32.520   6.167
 3902POPC   C2B51752  17.665  32.695   6.528
 3902POPC   C3B51753  17.498  32.587   6.909
 3902POPC   C4B51754  17.526  32.483   7.331
 3903POPC   NC351755  40.356  41.678   5.445
 3903POPC   PO451756  39.661  41.605   5.386
 3903POPC   GL151757  39.953  41.489   5.716
 3903POPC   GL251758  39.942  41.830   5.844
 3903POPC   C1A51759  40.009  41.433   6.192
 3903POPC   D2A51760  40.286  41.304   6.587
 3903POPC   C3A51761  40.151  41.491   6.982
 3903POPC   C4A51762  39.965  41.373   7.408
 3903POPC   C1B51763  39.739  41.973   6.249
 3903POPC   C2B51764  39.797  41.818   6.665
 3903POPC   C3B51765  39.666  41.626   7.034
 3903POPC   C4B51766  39.952  41.880   7.283
 3904POPC   NC351767  18.527   2.679   5.482
 3904POPC   PO451768  17.854   2.562   5.319
 3904POPC   GL151769  18.013   2.708   5.744
 3904POPC   GL251770  18.060   3.061   5.721
 3904POPC   C1A51771  17.815   2.729   6.175
 3904POPC   D2A51772  18.007   2.578   6.534
 3904POPC   C3A51773  18.106   2.761   6.891
 3904POPC   C4A51774  18.066   2.588   7.278
 3904POPC   C1B51775  18.156   3.088   6.191
 3904POPC   C2B51776  18.444   3.052   6.547
 3904POPC   C3B51777  18.629   3.070   6.939
 3904POPC   C4B51778  18.296   3.070   7.248
 3905POPC   NC351779  36.931  20.024   5.127
 3905POPC   PO451780  37.093  19.551   5.534
 3905POPC   GL151781  36.957  19.876   5.837
 3905POPC   GL251782  37.073  20.231   5.751
 3905POPC   C1A51783  36.704  19.944   6.238
 3905POPC   D2A51784  36.427  19.951   6.624
 3905POPC   C3A51785  36.673  19.984   6.990
 3905POPC   C4A51786  36.628  19.873   7.411
 3905POPC   C1B51787  37.149  20.217   6.217
 3905POPC   C2B51788  37.027  20.096   6.636
 3905POPC   C3B51789  37.160  19.850   7.012
 3905POPC   C4B51790  37.096  20.085   7.387
 3906POPC   NC351791  25.489  43.572   5.521
 3906POPC   PO451792  25.417  44.208   5.469
 3906POPC   GL151793  25.052  44.110   5.765
 3906POPC   GL251794  25.173  43.793   5.883
 3906POPC   C1A51795  24.933  44.029   6.250
 3906POPC   D2A51796  24.997  44.033   6.712
 3906POPC   C3A51797  25.293  44.059   7.016
 3906POPC   C4A51798  25.113  43.755   7.220
 3906POPC   C1B51799  25.388  43.796   6.288
 3906POPC   C2B51800  25.334  43.644   6.711
 3906POPC   C3B51801  25.581  43.619   7.085
 3906POPC   C4B51802  25.543  43.889   7.483
 3907POPC   NC351803  16.965  36.455   5.408
 3907POPC   PO451804  16.946  36.992   5.382
 3907POPC   GL151805  16.924  37.115   5.844
 3907POPC   GL251806  17.232  37.297   5.886
 3907POPC   C1A51807  16.795  36.979   6.300
 3907POPC   D2A51808  17.048  36.718   6.615
 3907POPC   C3A51809  17.157  36.760   7.052
 3907POPC   C4A51810  16.984  36.755   7.467
 3907POPC   C1B51811  17.090  37.391   6.328
 3907POPC   C2B51812  16.966  37.212   6.755
 3907POPC   C3B51813  16.681  37.018   7.116
 3907POPC   C4B51814  16.333  36.981   7.474
 3908POPC   NC351815  17.705  30.592   5.395
 3908POPC   PO451816  17.088  30.301   5.377
 3908POPC   GL151817  17.237  30.575   5.751
 3908POPC   GL251818  17.578  30.486   5.895
 3908POPC   C1A51819  17.290  30.811   6.173
 3908POPC   D2A51820  17.437  30.706   6.598
 3908POPC   C3A51821  17.532  31.053   6.875
 3908POPC   C4A51822  17.338  30.974   7.241
 3908POPC   C1B51823  17.834  30.603   6.295
 3908POPC   C2B51824  17.928  30.745   6.762
 3908POPC   C3B51825  17.707  30.608   7.142
 3908POPC   C4B51826  17.700  30.539   7.599
 3909POPC   NC351827  15.672  18.571   5.521
 3909POPC   PO451828  16.176  18.172   5.473
 3909POPC   GL151829  15.923  18.217   5.851
 3909POPC   GL251830  15.878  18.552   5.988
 3909POPC   C1A51831  16.062  18.188   6.286
 3909POPC   D2A51832  15.944  18.348   6.669
 3909POPC   C3A51833  16.092  18.102   6.998
 3909POPC   C4A51834  16.107  17.891   7.354
 3909POPC   C1B51835  15.550  18.380   6.253
 3909POPC   C2B51836  15.451  18.189   6.667
 3909POPC   C3B51837  15.610  18.273   7.061
 3909POPC   C4B51838  15.946  18.565   7.157
 3910POPC   NC351839  37.647  11.095   5.025
 3910POPC   PO451840  37.433  11.421   5.592
 3910POPC   GL151841  37.746  11.224   5.855
 3910POPC   GL251842  37.548  10.933   5.890
 3910POPC   C1A51843  37.907  11.279   6.284
 3910POPC   D2A51844  38.015  11.494   6.687
 3910POPC   C3A51845  37.894  11.392   7.082
 3910POPC   C4A51846  37.543  11.384   7.361
 3910POPC   C1B51847  37.396  11.178   6.226
 3910POPC   C2B51848  37.487  11.372   6.570
 3910POPC   C3B51849  37.482  11.188   6.906
 3910POPC   C4B51850  37.166  11.046   7.139
 3911POPC   NC351851  16.784   3.046   5.643
 3911POPC   PO451852  17.122   2.442   5.523
 3911POPC   GL151853  16.852   2.537   5.861
 3911POPC   GL251854  16.523   2.617   5.777
 3911POPC   C1A51855  16.800   2.767   6.255
 3911POPC   D2A51856  16.998   2.852   6.644
 3911POPC   C3A51857  16.674   2.862   6.936
 3911POPC   C4A51858  16.524   2.994   7.334
 3911POPC   C1B51859  16.353   2.467   6.142
 3911POPC   C2B51860  16.296   2.259   6.543
 3911POPC   C3B51861  16.459   2.158   6.955
 3911POPC   C4B51862  16.615   2.455   7.239
 3912POPC   NC351863  26.797  31.469   5.272
 3912POPC   PO451864  26.978  32.068   5.412
 3912POPC   GL151865  26.952  31.699   5.744
 3912POPC   GL251866  26.854  31.308   5.767
 3912POPC   C1A51867  26.903  31.559   6.208
 3912POPC   D2A51868  27.002  31.299   6.609
 3912POPC   C3A51869  26.934  31.508   7.018
 3912POPC   C4A51870  26.523  31.626   7.186
 3912POPC   C1B51871  26.649  31.116   6.179
 3912POPC   C2B51872  26.615  30.934   6.611
 3912POPC   C3B51873  26.742  31.036   7.034
 3912POPC   C4B51874  26.619  31.177   7.426
 3913POPC   NC351875  11.788  16.277   5.494
 3913POPC   PO451876  12.316  15.750   5.495
 3913POPC   GL151877  12.104  15.769   5.867
 3913POPC   GL251878  12.412  15.634   6.006
 3913POPC   C1A51879  11.970  15.916   6.284
 3913POPC   D2A51880  12.056  16.217   6.617
 3913POPC   C3A51881  11.977  16.070   7.025
 3913POPC   C4A51882  11.656  15.937   7.256
 3913POPC   C1B51883  12.465  15.800   6.413
 3913POPC   C2B51884  12.283  15.673   6.810
 3913POPC   C3B51885  12.476  15.521   7.187
 3913POPC   C4B51886  12.582  15.629   7.613
 3914POPC   NC351887  34.745   2.095   5.206
 3914POPC   PO451888  34.277   1.649   5.258
 3914POPC   GL151889  34.450   1.664   5.706
 3914POPC   GL251890  34.788   1.830   5.741
 3914POPC   C1A51891  34.534   1.671   6.170
 3914POPC   D2A51892  34.394   1.877   6.535
 3914POPC   C3A51893  34.593   1.888   6.917
 3914POPC   C4A51894  34.376   1.818   7.291
 3914POPC   C1B51895  34.960   1.950   6.180
 3914POPC   C2B51896  34.907   2.133   6.585
 3914POPC   C3B51897  34.947   2.222   7.022
 3914POPC   C4B51898  34.846   1.943   7.388
 3915POPC   NC351899   9.870  41.712   5.477
 3915POPC   PO451900   9.280  41.803   5.518
 3915POPC   GL151901   9.541  41.565   5.851
 3915POPC   GL251902   9.863  41.356   5.840
 3915POPC   C1A51903   9.768  41.739   6.193
 3915POPC   D2A51904   9.622  41.767   6.600
 3915POPC   C3A51905   9.664  41.428   6.866
 3915POPC   C4A51906   9.714  41.657   7.216
 3915POPC   C1B51907   9.738  41.194   6.205
 3915POPC   C2B51908   9.899  40.948   6.555
 3915POPC   C3B51909  10.033  41.046   6.942
 3915POPC   C4B51910  10.016  41.281   7.317
 3916POPC   NC351911   6.670  32.857   4.929
 3916POPC   PO451912   6.601  33.379   5.383
 3916POPC   GL151913   6.679  33.162   5.800
 3916POPC   GL251914   6.516  32.850   5.818
 3916POPC   C1A51915   6.729  33.069   6.262
 3916POPC   D2A51916   6.746  33.287   6.669
 3916POPC   C3A51917   6.735  33.083   7.083
 3916POPC   C4A51918   6.619  32.981   7.521
 3916POPC   C1B51919   6.429  32.644   6.230
 3916POPC   C2B51920   6.651  32.643   6.644
 3916POPC   C3B51921   6.561  32.624   7.089
 3916POPC   C4B51922   6.254  32.600   7.323
 3917POPC   NC351923   4.700  17.517   5.649
 3917POPC   PO451924   4.120  17.398   5.300
 3917POPC   GL151925   4.179  17.423   5.766
 3917POPC   GL251926   4.349  17.710   5.976
 3917POPC   C1A51927   4.184  17.266   6.200
 3917POPC   D2A51928   4.058  17.519   6.569
 3917POPC   C3A51929   4.005  17.273   6.904
 3917POPC   C4A51930   3.911  17.358   7.320
 3917POPC   C1B51931   4.609  17.526   6.330
 3917POPC   C2B51932   4.510  17.365   6.738
 3917POPC   C3B51933   4.332  17.620   7.049
 3917POPC   C4B51934   4.377  17.514   7.456
 3918POPC   NC351935  37.046  26.598   5.167
 3918POPC   PO451936  37.188  26.018   5.455
 3918POPC   GL151937  37.120  26.113   5.848
 3918POPC   GL251938  36.757  26.095   5.850
 3918POPC   C1A51939  37.031  26.187   6.269
 3918POPC   D2A51940  36.927  25.960   6.620
 3918POPC   C3A51941  37.100  25.956   7.062
 3918POPC   C4A51942  37.109  25.993   7.550
 3918POPC   C1B51943  36.720  25.780   6.165
 3918POPC   C2B51944  36.632  25.546   6.520
 3918POPC   C3B51945  36.666  25.677   6.940
 3918POPC   C4B51946  36.675  25.806   7.361
 3919POPC   NC351947   1.965   6.265   5.480
 3919POPC   PO451948   2.446   6.787   5.204
 3919POPC   GL151949   2.200   6.676   5.644
 3919POPC   GL251950   1.921   6.876   5.780
 3919POPC   C1A51951   2.242   6.631   6.124
 3919POPC   D2A51952   2.150   6.936   6.458
 3919POPC   C3A51953   2.181   6.894   6.891
 3919POPC   C4A51954   2.082   6.547   7.154
 3919POPC   C1B51955   1.750   6.756   6.203
 3919POPC   C2B51956   1.723   6.660   6.681
 3919POPC   C3B51957   1.615   6.730   7.148
 3919POPC   C4B51958   1.771   6.675   7.590
 3920POPC   NC351959   1.761  22.603   5.309
 3920POPC   PO451960   2.242  22.960   5.525
 3920POPC   GL151961   1.965  22.989   5.849
 3920POPC   GL251962   1.854  22.670   5.852
 3920POPC   C1A51963   1.803  23.176   6.253
 3920POPC   D2A51964   1.932  23.050   6.671
 3920POPC   C3A51965   1.788  23.202   7.090
 3920POPC   C4A51966   1.808  22.939   7.453
 3920POPC   C1B51967   2.076  22.719   6.259
 3920POPC   C2B51968   2.361  22.728   6.600
 3920POPC   C3B51969   2.279  22.814   7.016
 3920POPC   C4B51970   2.128  22.576   7.352
 3921POPC   NC351971   0.659  26.612   5.238
 3921POPC   PO451972   0.171  27.039   5.579
 3921POPC   GL151973   0.361  26.795   5.869
 3921POPC   GL251974   0.616  27.011   6.007
 3921POPC   C1A51975   0.232  26.803   6.320
 3921POPC   D2A51976   0.060  27.022   6.672
 3921POPC   C3A51977   0.137  26.823   7.061
 3921POPC   C4A51978   0.512  26.596   7.144
 3921POPC   C1B51979   0.691  26.628   6.219
 3921POPC   C2B51980   0.801  26.534   6.623
 3921POPC   C3B51981   0.946  26.798   6.911
 3921POPC   C4B51982   0.833  26.945   7.316
 3922POPC   NC351983  42.830  33.682   5.227
 3922POPC   PO451984  43.522  33.517   5.310
 3922POPC   GL151985  43.196  33.471   5.645
 3922POPC   GL251986  42.830  33.573   5.734
 3922POPC   C1A51987  43.268  33.624   6.083
 3922POPC   D2A51988  43.254  33.893   6.449
 3922POPC   C3A51989  43.346  33.732   6.863
 3922POPC   C4A51990  43.471  33.819   7.270
 3922POPC   C1B51991  42.770  33.471   6.179
 3922POPC   C2B51992  42.788  33.632   6.625
 3922POPC   C3B51993  42.890  33.718   7.061
 3922POPC   C4B51994  43.113  33.466   7.318
 3923POPC   NC351995   2.014   6.937   5.244
 3923POPC   PO451996   2.159   7.504   5.268
 3923POPC   GL151997   2.170   7.366   5.747
 3923POPC   GL251998   2.369   7.108   5.901
 3923POPC   C1A51999   1.898   7.262   6.141
 3923POPC   D2A52000   1.638   7.141   6.526
 3923POPC   C3A52001   1.741   7.208   6.961
 3923POPC   C4A52002   1.947   7.076   7.310
 3923POPC   C1B52003   2.368   7.365   6.281
 3923POPC   C2B52004   2.121   7.411   6.657
 3923POPC   C3B52005   2.103   7.596   7.066
 3923POPC   C4B52006   2.253   7.881   7.390
 3924POPC   NC352007  40.952  38.887   5.327
 3924POPC   PO452008  40.588  39.401   5.198
 3924POPC   GL152009  40.710  39.209   5.656
 3924POPC   GL252010  40.604  38.869   5.727
 3924POPC   C1A52011  40.746  39.212   6.151
 3924POPC   D2A52012  40.687  39.094   6.621
 3924POPC   C3A52013  40.751  39.340   7.015
 3924POPC   C4A52014  40.702  39.168   7.474
 3924POPC   C1B52015  40.984  38.794   5.987
 3924POPC   C2B52016  41.109  38.940   6.392
 3924POPC   C3B52017  41.136  38.833   6.822
 3924POPC   C4B52018  40.833  38.798   7.121
 3925POPC   NC352019  18.012   4.582   5.667
 3925POPC   PO452020  18.421   4.171   5.306
 3925POPC   GL152021  18.398   4.214   5.777
 3925POPC   GL252022  18.096   4.063   5.826
 3925POPC   C1A52023  18.315   4.424   6.225
 3925POPC   D2A52024  18.174   4.323   6.645
 3925POPC   C3A52025  18.319   4.507   7.056
 3925POPC   C4A52026  18.043   4.660   7.365
 3925POPC   C1B52027  18.373   3.911   6.176
 3925POPC   C2B52028  18.495   3.927   6.601
 3925POPC   C3B52029  18.321   4.000   7.007
 3925POPC   C4B52030  18.501   4.135   7.369
 3926POPC   NC352031  10.154  30.719   5.436
 3926POPC   PO452032   9.582  30.914   5.402
 3926POPC   GL152033   9.463  30.691   5.794
 3926POPC   GL252034   9.841  30.703   5.913
 3926POPC   C1A52035   9.382  30.608   6.244
 3926POPC   D2A52036   9.786  30.708   6.435
 3926POPC   C3A52037   9.993  30.715   6.815
 3926POPC   C4A52038   9.811  30.716   7.220
 3926POPC   C1B52039  10.113  31.024   6.206
 3926POPC   C2B52040  10.234  31.148   6.697
 3926POPC   C3B52041  10.147  31.086   7.183
 3926POPC   C4B52042   9.912  31.077   7.605
 3927POPC   NC352043  33.887   1.610   5.033
 3927POPC   PO452044  33.569   2.157   5.263
 3927POPC   GL152045  33.953   2.036   5.591
 3927POPC   GL252046  33.741   1.945   5.801
 3927POPC   C1A52047  34.117   1.978   6.103
 3927POPC   D2A52048  34.008   2.232   6.509
 3927POPC   C3A52049  34.099   2.076   6.933
 3927POPC   C4A52050  33.990   2.135   7.374
 3927POPC   C1B52051  33.615   2.162   6.149
 3927POPC   C2B52052  33.438   2.216   6.511
 3927POPC   C3B52053  33.599   2.233   6.895
 3927POPC   C4B52054  33.509   1.985   7.206
 3928POPC   NC352055  30.817  18.680   5.399
 3928POPC   PO452056  31.295  18.328   5.381
 3928POPC   GL152057  31.282  18.161   5.844
 3928POPC   GL252058  31.129  17.831   5.820
 3928POPC   C1A52059  31.450  18.095   6.296
 3928POPC   D2A52060  31.532  18.074   6.756
 3928POPC   C3A52061  31.724  18.083   7.181
 3928POPC   C4A52062  31.821  17.767   7.528
 3928POPC   C1B52063  30.959  17.970   6.227
 3928POPC   C2B52064  31.039  18.188   6.630
 3928POPC   C3B52065  31.150  18.121   7.085
 3928POPC   C4B52066  31.334  17.898   7.434
 3929POPC   NC352067   7.029  29.585   5.360
 3929POPC   PO452068   7.507  29.133   5.252
 3929POPC   GL152069   7.482  29.247   5.716
 3929POPC   GL252070   7.296  28.924   5.798
 3929POPC   C1A52071   7.633  29.410   6.168
 3929POPC   D2A52072   7.685  29.615   6.591
 3929POPC   C3A52073   7.609  29.331   6.944
 3929POPC   C4A52074   7.453  29.149   7.354
 3929POPC   C1B52075   7.235  29.002   6.232
 3929POPC   C2B52076   7.486  28.986   6.570
 3929POPC   C3B52077   7.442  28.814   6.964
 3929POPC   C4B52078   7.074  28.792   7.227
 3930POPC   NC352079   4.917  44.301   5.669
 3930POPC   PO452080   5.069  44.814   5.190
 3930POPC   GL152081   5.157  44.768   5.652
 3930POPC   GL252082   5.351  44.492   5.857
 3930POPC   C1A52083   5.047  44.870   6.117
 3930POPC   D2A52084   5.119   0.057   6.549
 3930POPC   C3A52085   4.933  44.949   6.930
 3930POPC   C4A52086   5.182  44.852   7.301
 3930POPC   C1B52087   5.124  44.391   6.284
 3930POPC   C2B52088   4.964  44.483   6.717
 3930POPC   C3B52089   4.877  44.464   7.205
 3930POPC   C4B52090   4.725  44.263   7.599
 3931POPC   NC352091  40.511  31.188   5.408
 3931POPC   PO452092  40.888  31.782   5.328
 3931POPC   GL152093  40.741  31.626   5.720
 3931POPC   GL252094  40.961  31.389   5.743
 3931POPC   C1A52095  40.678  31.474   6.192
 3931POPC   D2A52096  40.619  31.252   6.620
 3931POPC   C3A52097  40.558  31.444   7.043
 3931POPC   C4A52098  40.592  31.354   7.528
 3931POPC   C1B52099  41.097  31.748   6.058
 3931POPC   C2B52100  41.084  31.722   6.509
 3931POPC   C3B52101  41.048  31.444   6.860
 3931POPC   C4B52102  41.014  31.545   7.281
 3932POPC   NC352103  39.590  20.054   5.651
 3932POPC   PO452104  39.016  20.059   5.291
 3932POPC   GL152105  38.947  19.704   5.770
 3932POPC   GL252106  39.302  19.631   5.771
 3932POPC   C1A52107  39.136  19.692   6.254
 3932POPC   D2A52108  39.421  19.878   6.577
 3932POPC   C3A52109  39.203  19.966   6.960
 3932POPC   C4A52110  39.014  19.851   7.364
 3932POPC   C1B52111  39.578  19.433   6.098
 3932POPC   C2B52112  39.442  19.348   6.529
 3932POPC   C3B52113  39.607  19.533   6.934
 3932POPC   C4B52114  39.493  19.715   7.310
 3933POPC   NC352115  23.742  40.481   5.521
 3933POPC   PO452116  23.329  40.853   5.300
 3933POPC   GL152117  23.287  40.866   5.772
 3933POPC   GL252118  23.334  40.533   5.863
 3933POPC   C1A52119  23.334  40.925   6.265
 3933POPC   D2A52120  23.682  40.847   6.605
 3933POPC   C3A52121  23.687  40.953   7.077
 3933POPC   C4A52122  23.958  41.005   7.472
 3933POPC   C1B52123  23.488  40.436   6.291
 3933POPC   C2B52124  23.687  40.318   6.681
 3933POPC   C3B52125  23.909  40.515   6.993
 3933POPC   C4B52126  23.733  40.561   7.397
 3934POPC   NC352127   4.812  32.068   5.663
 3934POPC   PO452128   4.361  32.490   5.316
 3934POPC   GL152129   4.444  32.393   5.718
 3934POPC   GL252130   4.311  32.034   5.735
 3934POPC   C1A52131   4.554  32.511   6.141
 3934POPC   D2A52132   4.494  32.314   6.542
 3934POPC   C3A52133   4.631  32.513   6.910
 3934POPC   C4A52134   4.456  32.522   7.311
 3934POPC   C1B52135   4.347  31.794   6.142
 3934POPC   C2B52136   4.299  31.788   6.584
 3934POPC   C3B52137   4.459  31.952   6.958
 3934POPC   C4B52138   4.272  32.003   7.357
 3935POPC   NC352139  41.990  18.494   5.601
 3935POPC   PO452140  42.622  18.594   5.549
 3935POPC   GL152141  42.438  18.358   5.854
 3935POPC   GL252142  42.674  18.074   5.827
 3935POPC   C1A52143  42.174  18.389   6.252
 3935POPC   D2A52144  42.023  18.246   6.655
 3935POPC   C3A52145  42.256  18.412   7.003
 3935POPC   C4A52146  42.324  18.636   7.346
 3935POPC   C1B52147  42.604  18.118   6.291
 3935POPC   C2B52148  42.535  18.084   6.734
 3935POPC   C3B52149  42.538  18.037   7.182
 3935POPC   C4B52150  42.625  18.256   7.545
 3936POPC   NC352151  13.826  11.588   5.473
 3936POPC   PO452152  13.542  10.998   5.523
 3936POPC   GL152153  13.653  11.295   5.843
 3936POPC   GL252154  13.386  11.477   5.961
 3936POPC   C1A52155  13.860  11.499   6.198
 3936POPC   D2A52156  13.928  11.257   6.599
 3936POPC   C3A52157  13.815  11.420   6.999
 3936POPC   C4A52158  13.867  11.321   7.407
 3936POPC   C1B52159  13.463  11.199   6.330
 3936POPC   C2B52160  13.404  11.213   6.781
 3936POPC   C3B52161  13.370  11.283   7.256
 3936POPC   C4B52162  13.136  11.058   7.613
 3937POPC   NC352163   6.699  37.888   5.417
 3937POPC   PO452164   6.880  37.180   5.316
 3937POPC   GL152165   6.719  37.435   5.653
 3937POPC   GL252166   7.016  37.556   5.753
 3937POPC   C1A52167   6.626  37.384   6.124
 3937POPC   D2A52168   6.402  37.489   6.538
 3937POPC   C3A52169   6.559  37.622   6.966
 3937POPC   C4A52170   6.554  37.398   7.359
 3937POPC   C1B52171   7.094  37.595   6.203
 3937POPC   C2B52172   6.968  37.558   6.631
 3937POPC   C3B52173   6.979  37.327   7.014
 3937POPC   C4B52174   7.040  37.481   7.452
 3938POPC   NC352175  15.876   5.574   5.505
 3938POPC   PO452176  15.835   6.183   5.663
 3938POPC   GL152177  15.834   5.894   5.951
 3938POPC   GL252178  16.182   5.910   5.965
 3938POPC   C1A52179  15.834   5.831   6.414
 3938POPC   D2A52180  16.065   5.979   6.782
 3938POPC   C3A52181  15.809   5.966   7.114
 3938POPC   C4A52182  15.665   5.617   7.246
 3938POPC   C1B52183  16.148   5.509   6.156
 3938POPC   C2B52184  16.218   5.493   6.593
 3938POPC   C3B52185  16.142   5.545   7.035
 3938POPC   C4B52186  16.272   5.887   7.291
 3939POPC   NC352187   8.024  16.335   5.339
 3939POPC   PO452188   8.377  16.828   5.407
 3939POPC   GL152189   8.308  16.573   5.766
 3939POPC   GL252190   7.970  16.473   5.872
 3939POPC   C1A52191   8.512  16.533   6.183
 3939POPC   D2A52192   8.467  16.742   6.595
 3939POPC   C3A52193   8.454  16.507   6.997
 3939POPC   C4A52194   8.283  16.657   7.410
 3939POPC   C1B52195   8.093  16.820   6.189
 3939POPC   C2B52196   8.008  17.012   6.604
 3939POPC   C3B52197   8.091  16.889   7.003
 3939POPC   C4B52198   7.820  17.022   7.332
 3940POPC   NC352199  14.560   2.665   5.396
 3940POPC   PO452200  13.900   2.810   5.393
 3940POPC   GL152201  14.137   2.590   5.721
 3940POPC   GL252202  14.501   2.735   5.891
 3940POPC   C1A52203  14.115   2.620   6.175
 3940POPC   D2A52204  14.463   2.714   6.440
 3940POPC   C3A52205  14.401   2.606   6.829
 3940POPC   C4A52206  14.082   2.561   7.074
 3940POPC   C1B52207  14.726   3.052   6.166
 3940POPC   C2B52208  14.660   3.206   6.575
 3940POPC   C3B52209  14.754   2.992   6.926
 3940POPC   C4B52210  14.794   3.153   7.304
 3941POPC   NC352211  41.077  20.896   5.404
 3941POPC   PO452212  40.519  20.524   5.252
 3941POPC   GL152213  40.631  20.607   5.694
 3941POPC   GL252214  40.946  20.472   5.691
 3941POPC   C1A52215  40.680  20.561   6.198
 3941POPC   D2A52216  40.310  20.578   6.540
 3941POPC   C3A52217  40.438  20.542   6.993
 3941POPC   C4A52218  40.745  20.727   7.250
 3941POPC   C1B52219  41.181  20.569   6.062
 3941POPC   C2B52220  41.134  20.693   6.515
 3941POPC   C3B52221  41.124  20.514   6.937
 3941POPC   C4B52222  41.275  20.523   7.353
 3942POPC   NC352223  24.096  20.048   5.167
 3942POPC   PO452224  24.720  19.850   5.461
 3942POPC   GL152225  24.510  19.812   5.820
 3942POPC   GL252226  24.164  19.751   5.718
 3942POPC   C1A52227  24.477  19.991   6.246
 3942POPC   D2A52228  24.379  19.756   6.622
 3942POPC   C3A52229  24.404  19.948   7.047
 3942POPC   C4A52230  24.514  20.245   7.359
 3942POPC   C1B52231  24.011  19.787   6.135
 3942POPC   C2B52232  23.881  19.674   6.531
 3942POPC   C3B52233  23.991  19.670   6.940
 3942POPC   C4B52234  24.173  19.569   7.327
 3943POPC   NC352235  14.514   4.738   5.258
 3943POPC   PO452236  14.779   5.396   5.319
 3943POPC   GL152237  14.606   5.136   5.736
 3943POPC   GL252238  14.522   4.747   5.776
 3943POPC   C1A52239  14.566   5.026   6.202
 3943POPC   D2A52240  14.294   5.042   6.571
 3943POPC   C3A52241  14.443   5.080   6.955
 3943POPC   C4A52242  14.549   5.308   7.296
 3943POPC   C1B52243  14.200   4.673   6.109
 3943POPC   C2B52244  14.237   4.534   6.530
 3943POPC   C3B52245  14.057   4.564   6.914
 3943POPC   C4B52246  14.189   4.765   7.289
 3944POPC   NC352247  34.504  40.996   5.338
 3944POPC   PO452248  34.468  40.390   5.627
 3944POPC   GL152249  34.729  40.709   5.775
 3944POPC   GL252250  34.621  41.036   5.828
 3944POPC   C1A52251  34.902  40.798   6.200
 3944POPC   D2A52252  34.894  40.545   6.599
 3944POPC   C3A52253  34.658  40.684   6.953
 3944POPC   C4A52254  34.756  40.740   7.382
 3944POPC   C1B52255  34.324  41.057   6.162
 3944POPC   C2B52256  34.395  40.931   6.569
 3944POPC   C3B52257  34.404  41.117   6.967
 3944POPC   C4B52258  34.290  40.994   7.399
 3945POPC   NC352259  38.953  11.547   5.420
 3945POPC   PO452260  39.589  11.559   5.213
 3945POPC   GL152261  39.410  11.445   5.645
 3945POPC   GL252262  39.102  11.232   5.793
 3945POPC   C1A52263  39.519  11.388   6.070
 3945POPC   D2A52264  39.366  11.219   6.466
 3945POPC   C3A52265  39.349  11.473   6.874
 3945POPC   C4A52266  39.291  11.230   7.243
 3945POPC   C1B52267  39.031  11.522   6.125
 3945POPC   C2B52268  38.948  11.526   6.569
 3945POPC   C3B52269  38.859  11.489   7.051
 3945POPC   C4B52270  39.034  11.645   7.446
 3946POPC   NC352271  41.783  22.633   5.347
 3946POPC   PO452272  41.937  23.379   5.429
 3946POPC   GL152273  41.850  23.006   5.774
 3946POPC   GL252274  41.546  22.743   5.788
 3946POPC   C1A52275  41.814  22.779   6.221
 3946POPC   D2A52276  41.541  22.749   6.590
 3946POPC   C3A52277  41.742  22.809   6.992
 3946POPC   C4A52278  41.524  23.019   7.300
 3946POPC   C1B52279  41.365  22.499   6.145
 3946POPC   C2B52280  41.495  22.247   6.516
 3946POPC   C3B52281  41.650  22.267   6.953
 3946POPC   C4B52282  41.411  22.501   7.278
 3947POPC   NC352283  16.002  41.148   5.424
 3947POPC   PO452284  15.676  40.664   5.448
 3947POPC   GL152285  15.892  40.829   5.822
 3947POPC   GL252286  15.639  41.095   5.811
 3947POPC   C1A52287  16.123  40.802   6.243
 3947POPC   D2A52288  15.994  40.584   6.599
 3947POPC   C3A52289  15.929  40.735   7.019
 3947POPC   C4A52290  16.203  40.881   7.345
 3947POPC   C1B52291  15.881  41.224   6.193
 3947POPC   C2B52292  15.991  41.126   6.653
 3947POPC   C3B52293  15.895  41.233   7.104
 3947POPC   C4B52294  15.725  41.062   7.496
 3948POPC   NC352295  43.744  42.930   5.383
 3948POPC   PO452296  44.278  43.362   5.465
 3948POPC   GL152297  44.122  43.179   5.856
 3948POPC   GL252298  43.821  43.015   5.876
 3948POPC   C1A52299  43.979  43.232   6.322
 3948POPC   D2A52300  43.679  43.424   6.641
 3948POPC   C3A52301  43.816  43.352   7.036
 3948POPC   C4A52302  44.159  43.075   7.075
 3948POPC   C1B52303  43.792  42.763   6.251
 3948POPC   C2B52304  44.018  42.683   6.631
 3948POPC   C3B52305  43.861  42.643   7.013
 3948POPC   C4B52306  43.730  42.897   7.287
 3949POPC   NC352307  38.604   0.094   5.366
 3949POPC   PO452308  38.118   0.571   5.474
 3949POPC   GL152309  38.447   0.408   5.733
 3949POPC   GL252310  38.193   0.184   5.837
 3949POPC   C1A52311  38.695   0.376   6.100
 3949POPC   D2A52312  38.717   0.113   6.465
 3949POPC   C3A52313  38.698   0.346   6.840
 3949POPC   C4A52314  38.499   0.467   7.225
 3949POPC   C1B52315  38.188   0.536   6.148
 3949POPC   C2B52316  38.006   0.782   6.485
 3949POPC   C3B52317  38.198   0.759   6.888
 3949POPC   C4B52318  38.257   0.894   7.299
 3950POPC   NC352319   1.425  17.779   5.487
 3950POPC   PO452320   1.202  17.236   5.196
 3950POPC   GL152321   1.261  17.314   5.701
 3950POPC   GL252322   1.093  17.601   5.866
 3950POPC   C1A52323   1.475  17.410   6.152
 3950POPC   D2A52324   1.499  17.608   6.591
 3950POPC   C3A52325   1.347  17.377   6.971
 3950POPC   C4A52326   1.310  17.457   7.417
 3950POPC   C1B52327   0.900  17.325   6.207
 3950POPC   C2B52328   0.739  17.287   6.670
 3950POPC   C3B52329   0.864  17.382   7.151
 3950POPC   C4B52330   0.951  17.109   7.509
 3951POPC   NC352331  20.180  33.230   5.339
 3951POPC   PO452332  19.487  32.954   5.304
 3951POPC   GL152333  19.772  32.959   5.649
 3951POPC   GL252334  19.750  33.309   5.803
 3951POPC   C1A52335  19.850  32.872   6.086
 3951POPC   D2A52336  19.809  33.055   6.474
 3951POPC   C3A52337  19.810  32.807   6.829
 3951POPC   C4A52338  19.648  32.770   7.227
 3951POPC   C1B52339  20.104  33.341   6.117
 3951POPC   C2B52340  20.298  33.229   6.507
 3951POPC   C3B52341  20.067  33.268   6.861
 3951POPC   C4B52342  19.998  33.131   7.240
 3952POPC   NC352343  18.432   8.601   5.479
 3952POPC   PO452344  18.035   8.002   5.473
 3952POPC   GL152345  18.261   8.196   5.798
 3952POPC   GL252346  18.036   8.495   5.783
 3952POPC   C1A52347  18.376   8.100   6.246
 3952POPC   D2A52348  18.192   7.929   6.652
 3952POPC   C3A52349  18.292   8.066   7.110
 3952POPC   C4A52350  18.690   8.213   7.391
 3952POPC   C1B52351  18.219   8.603   6.143
 3952POPC   C2B52352  18.099   8.439   6.535
 3952POPC   C3B52353  18.115   8.603   6.945
 3952POPC   C4B52354  18.310   8.531   7.303
 3953POPC   NC352355  10.123  42.079   5.165
 3953POPC   PO452356   9.584  42.340   5.252
 3953POPC   GL152357   9.671  42.358   5.728
 3953POPC   GL252358   9.563  42.072   5.836
 3953POPC   C1A52359   9.990  42.280   6.103
 3953POPC   D2A52360  10.235  42.440   6.491
 3953POPC   C3A52361  10.001  42.596   6.904
 3953POPC   C4A52362   9.931  42.611   7.384
 3953POPC   C1B52363   9.493  42.185   6.254
 3953POPC   C2B52364   9.776  42.251   6.579
 3953POPC   C3B52365   9.857  42.097   6.974
 3953POPC   C4B52366   9.450  42.169   7.151
 3954POPC   NC352367  37.542   4.468   5.641
 3954POPC   PO452368  37.992   4.083   5.320
 3954POPC   GL152369  37.990   4.244   5.769
 3954POPC   GL252370  38.183   4.515   5.907
 3954POPC   C1A52371  37.879   4.116   6.181
 3954POPC   D2A52372  38.007   4.296   6.588
 3954POPC   C3A52373  37.845   4.040   6.869
 3954POPC   C4A52374  37.533   4.038   7.183
 3954POPC   C1B52375  37.848   4.615   6.221
 3954POPC   C2B52376  37.524   4.430   6.529
 3954POPC   C3B52377  37.607   4.502   6.984
 3954POPC   C4B52378  37.459   4.634   7.414
 3955POPC   NC352379  38.078  27.182   5.461
 3955POPC   PO452380  37.455  26.837   5.279
 3955POPC   GL152381  37.641  26.858   5.744
 3955POPC   GL252382  37.987  26.753   5.767
 3955POPC   C1A52383  37.771  27.042   6.196
 3955POPC   D2A52384  37.633  27.179   6.633
 3955POPC   C3A52385  37.551  26.913   7.023
 3955POPC   C4A52386  37.606  27.084   7.494
 3955POPC   C1B52387  37.832  26.545   6.166
 3955POPC   C2B52388  37.836  26.672   6.633
 3955POPC   C3B52389  37.858  26.497   7.057
 3955POPC   C4B52390  37.789  26.619   7.523
 3956POPC   NC352391  11.293   0.324   5.033
 3956POPC   PO452392  11.479   0.626   5.584
 3956POPC   GL152393  11.228   0.440   5.858
 3956POPC   GL252394  11.026   0.720   5.825
 3956POPC   C1A52395  11.282   0.363   6.284
 3956POPC   D2A52396  11.517   0.228   6.616
 3956POPC   C3A52397  11.398   0.394   7.008
 3956POPC   C4A52398  11.458   0.296   7.422
 3956POPC   C1B52399  11.223   0.857   6.203
 3956POPC   C2B52400  11.303   0.764   6.613
 3956POPC   C3B52401  11.242   0.906   7.010
 3956POPC   C4B52402  11.263   0.762   7.437
 3957POPC   NC352403  33.656  38.810   5.355
 3957POPC   PO452404  33.980  38.350   5.690
 3957POPC   GL152405  33.643  38.334   5.893
 3957POPC   GL252406  33.610  38.690   5.849
 3957POPC   C1A52407  33.687  38.363   6.341
 3957POPC   D2A52408  33.899  38.662   6.570
 3957POPC   C3A52409  33.969  38.580   6.969
 3957POPC   C4A52410  33.766  38.321   7.263
 3957POPC   C1B52411  33.478  38.871   6.195
 3957POPC   C2B52412  33.371  38.736   6.546
 3957POPC   C3B52413  33.511  38.861   6.904
 3957POPC   C4B52414  33.659  38.844   7.285
 3958POPC   NC352415  13.358   1.330   5.478
 3958POPC   PO452416  13.629   0.778   5.443
 3958POPC   GL152417  13.788   0.987   5.797
 3958POPC   GL252418  13.785   1.331   5.800
 3958POPC   C1A52419  13.733   1.047   6.242
 3958POPC   D2A52420  13.630   1.355   6.551
 3958POPC   C3A52421  13.302   1.255   6.814
 3958POPC   C4A52422  13.404   0.980   7.088
 3958POPC   C1B52423  14.004   1.488   6.203
 3958POPC   C2B52424  13.942   1.745   6.608
 3958POPC   C3B52425  13.853   1.631   7.061
 3958POPC   C4B52426  13.995   1.757   7.492
 3959POPC   NC352427  18.781  21.938   5.308
 3959POPC   PO452428  19.263  22.355   5.301
 3959POPC   GL152429  18.998  22.238   5.688
 3959POPC   GL252430  18.612  22.287   5.698
 3959POPC   C1A52431  19.112  22.067   6.101
 3959POPC   D2A52432  19.367  22.035   6.480
 3959POPC   C3A52433  19.161  22.008   6.898
 3959POPC   C4A52434  19.312  22.172   7.273
 3959POPC   C1B52435  18.708  22.387   6.148
 3959POPC   C2B52436  18.832  22.274   6.582
 3959POPC   C3B52437  18.765  22.360   7.036
 3959POPC   C4B52438  18.973  22.529   7.406
 3960POPC   NC352439   8.750  12.216   5.268
 3960POPC   PO452440   9.285  11.907   5.549
 3960POPC   GL152441   9.090  12.105   5.882
 3960POPC   GL252442   9.080  12.461   5.742
 3960POPC   C1A52443   9.176  12.232   6.327
 3960POPC   D2A52444   9.396  12.400   6.725
 3960POPC   C3A52445   9.292  12.179   7.136
 3960POPC   C4A52446   9.165  11.937   7.529
 3960POPC   C1B52447   8.741  12.408   6.074
 3960POPC   C2B52448   8.682  12.346   6.520
 3960POPC   C3B52449   8.866  12.415   6.925
 3960POPC   C4B52450   8.822  12.257   7.350
 3961POPC   NC352451  25.904  32.619   5.378
 3961POPC   PO452452  25.967  33.353   5.305
 3961POPC   GL152453  25.956  33.107   5.707
 3961POPC   GL252454  25.762  33.287   5.954
 3961POPC   C1A52455  26.032  32.860   6.117
 3961POPC   D2A52456  26.275  32.926   6.532
 3961POPC   C3A52457  26.063  32.826   6.939
 3961POPC   C4A52458  26.204  32.899   7.383
 3961POPC   C1B52459  26.213  33.345   6.142
 3961POPC   C2B52460  26.396  33.467   6.554
 3961POPC   C3B52461  26.291  33.285   6.967
 3961POPC   C4B52462  25.864  33.244   7.226
 3962POPC   NC352463  10.442  30.090   5.401
 3962POPC   PO452464  10.905  29.638   5.350
 3962POPC   GL152465  10.631  29.753   5.746
 3962POPC   GL252466  10.374  30.034   5.896
 3962POPC   C1A52467  10.479  29.628   6.169
 3962POPC   D2A52468  10.605  29.591   6.586
 3962POPC   C3A52469  10.607  29.916   6.881
 3962POPC   C4A52470  10.661  29.917   7.278
 3962POPC   C1B52471  10.125  29.969   6.298
 3962POPC   C2B52472  10.115  29.896   6.763
 3962POPC   C3B52473  10.147  29.876   7.238
 3962POPC   C4B52474  10.319  30.193   7.523
 3963POPC   NC352475  21.075  27.709   5.082
 3963POPC   PO452476  21.052  27.156   5.513
 3963POPC   GL152477  21.222  27.493   5.869
 3963POPC   GL252478  21.165  27.849   5.808
 3963POPC   C1A52479  21.364  27.539   6.314
 3963POPC   D2A52480  21.564  27.725   6.706
 3963POPC   C3A52481  21.475  27.490   7.079
 3963POPC   C4A52482  21.510  27.333   7.504
 3963POPC   C1B52483  21.260  28.020   6.230
 3963POPC   C2B52484  21.077  27.825   6.626
 3963POPC   C3B52485  20.997  27.648   7.042
 3963POPC   C4B52486  21.182  27.732   7.483
 3964POPC   NC352487  28.931  10.416   5.345
 3964POPC   PO452488  29.045   9.695   5.325
 3964POPC   GL152489  29.066   9.976   5.700
 3964POPC   GL252490  29.178   9.717   5.881
 3964POPC   C1A52491  29.202  10.096   6.182
 3964POPC   D2A52492  29.264   9.837   6.536
 3964POPC   C3A52493  29.056   9.993   6.889
 3964POPC   C4A52494  28.981   9.843   7.273
 3964POPC   C1B52495  29.117   9.431   6.183
 3964POPC   C2B52496  28.878   9.441   6.546
 3964POPC   C3B52497  29.106   9.490   6.912
 3964POPC   C4B52498  29.289   9.398   7.295
 3965POPC   NC352499   0.582  43.027   5.503
 3965POPC   PO452500   0.475  42.368   5.242
 3965POPC   GL152501   0.522  42.510   5.644
 3965POPC   GL252502   0.248  42.673   5.723
 3965POPC   C1A52503   0.597  42.316   6.046
 3965POPC   D2A52504   0.415  42.164   6.437
 3965POPC   C3A52505   0.565  42.281   6.842
 3965POPC   C4A52506   0.689  42.015   7.145
 3965POPC   C1B52507   0.346  42.757   6.183
 3965POPC   C2B52508   0.293  42.778   6.659
 3965POPC   C3B52509   0.222  42.588   7.082
 3965POPC   C4B52510   0.475  42.411   7.434
 3966POPC   NC352511   9.296   4.831   5.454
 3966POPC   PO452512   8.904   5.282   5.685
 3966POPC   GL152513   9.056   4.954   5.896
 3966POPC   GL252514   9.418   5.037   5.901
 3966POPC   C1A52515   9.119   4.972   6.332
 3966POPC   D2A52516   9.261   5.185   6.677
 3966POPC   C3A52517   8.967   5.127   6.992
 3966POPC   C4A52518   8.804   5.346   7.327
 3966POPC   C1B52519   9.402   4.636   6.106
 3966POPC   C2B52520   9.381   4.602   6.559
 3966POPC   C3B52521   9.360   4.784   6.992
 3966POPC   C4B52522   9.296   5.000   7.355
 3967POPC   NC352523  43.577   3.798   5.008
 3967POPC   PO452524  44.173   3.662   5.310
 3967POPC   GL152525  43.976   3.577   5.758
 3967POPC   GL252526  43.649   3.413   5.791
 3967POPC   C1A52527  43.832   3.574   6.223
 3967POPC   D2A52528  43.624   3.516   6.634
 3967POPC   C3A52529  43.881   3.488   6.975
 3967POPC   C4A52530  43.828   3.756   7.341
 3967POPC   C1B52531  43.491   3.178   6.128
 3967POPC   C2B52532  43.510   3.044   6.547
 3967POPC   C3B52533  43.619   3.013   6.982
 3967POPC   C4B52534  43.578   3.281   7.327
 3968POPC   NC352535  36.241   3.441   5.445
 3968POPC   PO452536  35.646   3.809   5.330
 3968POPC   GL152537  35.821   3.748   5.776
 3968POPC   GL252538  36.087   3.503   5.908
 3968POPC   C1A52539  35.867   3.783   6.253
 3968POPC   D2A52540  35.947   3.543   6.651
 3968POPC   C3A52541  36.164   3.721   7.029
 3968POPC   C4A52542  36.011   3.777   7.474
 3968POPC   C1B52543  36.370   3.513   6.264
 3968POPC   C2B52544  36.384   3.291   6.663
 3968POPC   C3B52545  36.155   3.209   7.036
 3968POPC   C4B52546  36.343   3.391   7.366
 3969POPC   NC352547  26.995  21.538   5.371
 3969POPC   PO452548  27.587  21.123   5.381
 3969POPC   GL152549  27.548  21.424   5.727
 3969POPC   GL252550  27.235  21.445   5.810
 3969POPC   C1A52551  27.624  21.318   6.162
 3969POPC   D2A52552  27.563  21.007   6.498
 3969POPC   C3A52553  27.768  21.150   6.843
 3969POPC   C4A52554  27.780  21.383   7.188
 3969POPC   C1B52555  27.218  21.658   6.184
 3969POPC   C2B52556  27.421  21.580   6.578
 3969POPC   C3B52557  27.295  21.396   6.956
 3969POPC   C4B52558  27.085  21.563   7.309
 3970POPC   NC352559  36.016  40.345   5.424
 3970POPC   PO452560  35.981  39.708   5.324
 3970POPC   GL152561  36.135  39.883   5.734
 3970POPC   GL252562  36.289  40.192   5.813
 3970POPC   C1A52563  36.125  39.883   6.226
 3970POPC   D2A52564  36.371  39.890   6.647
 3970POPC   C3A52565  36.145  39.793   7.041
 3970POPC   C4A52566  36.158  39.859   7.498
 3970POPC   C1B52567  36.093  40.416   6.125
 3970POPC   C2B52568  36.164  40.356   6.540
 3970POPC   C3B52569  35.981  40.253   6.925
 3970POPC   C4B52570  36.117  40.363   7.337
 3971POPC   NC352571  17.961  36.381   5.374
 3971POPC   PO452572  17.779  36.988   5.433
 3971POPC   GL152573  17.604  36.922   5.811
 3971POPC   GL252574  17.290  36.775   5.724
 3971POPC   C1A52575  17.774  36.795   6.257
 3971POPC   D2A52576  17.564  36.637   6.668
 3971POPC   C3A52577  17.692  36.712   7.092
 3971POPC   C4A52578  17.484  36.960   7.440
 3971POPC   C1B52579  17.275  36.888   6.184
 3971POPC   C2B52580  17.472  37.120   6.520
 3971POPC   C3B52581  17.460  37.158   6.943
 3971POPC   C4B52582  17.135  37.245   7.227
 3972POPC   NC352583   4.572   3.309   5.214
 3972POPC   PO452584   4.108   3.712   5.139
 3972POPC   GL152585   4.224   3.589   5.626
 3972POPC   GL252586   3.922   3.588   5.859
 3972POPC   C1A52587   4.322   3.417   6.115
 3972POPC   D2A52588   4.284   3.345   6.604
 3972POPC   C3A52589   4.599   3.458   6.960
 3972POPC   C4A52590   4.637   3.676   7.372
 3972POPC   C1B52591   3.995   3.813   6.242
 3972POPC   C2B52592   3.893   3.735   6.663
 3972POPC   C3B52593   4.076   3.561   7.038
 3972POPC   C4B52594   4.267   3.357   7.371
 3973POPC   NC352595  21.071  16.630   5.085
 3973POPC   PO452596  21.565  16.941   5.329
 3973POPC   GL152597  21.699  16.747   5.713
 3973POPC   GL252598  21.417  16.526   5.789
 3973POPC   C1A52599  21.534  16.863   6.146
 3973POPC   D2A52600  21.388  16.815   6.605
 3973POPC   C3A52601  21.642  16.629   6.970
 3973POPC   C4A52602  21.562  16.597   7.424
 3973POPC   C1B52603  21.372  16.395   6.250
 3973POPC   C2B52604  21.339  16.297   6.709
 3973POPC   C3B52605  21.254  16.289   7.161
 3973POPC   C4B52606  21.490  16.107   7.528
 3974POPC   NC352607  44.893  40.290   5.268
 3974POPC   PO452608  44.253  40.241   5.378
 3974POPC   GL152609  44.428  40.128   5.748
 3974POPC   GL252610  44.790  40.242   5.761
 3974POPC   C1A52611  44.282  40.065   6.165
 3974POPC   D2A52612  44.344  40.335   6.518
 3974POPC   C3A52613  44.582  40.152   6.858
 3974POPC   C4A52614  44.445  39.915   7.209
 3974POPC   C1B52615  44.846  40.193   6.227
 3974POPC   C2B52616   0.084  40.229   6.623
 3974POPC   C3B52617  44.993  40.420   7.007
 3974POPC   C4B52618   0.000  40.058   7.248
 3975POPC   NC352619  14.266  31.887   5.381
 3975POPC   PO452620  14.467  32.508   5.481
 3975POPC   GL152621  14.312  32.345   5.835
 3975POPC   GL252622  14.447  32.015   5.853
 3975POPC   C1A52623  14.402  32.392   6.251
 3975POPC   D2A52624  14.479  32.231   6.657
 3975POPC   C3A52625  14.554  32.438   7.053
 3975POPC   C4A52626  14.489  32.452   7.518
 3975POPC   C1B52627  14.646  31.922   6.263
 3975POPC   C2B52628  14.581  31.723   6.654
 3975POPC   C3B52629  14.356  31.875   7.005
 3975POPC   C4B52630  14.431  31.941   7.424
 3976POPC   NC352631   1.744   1.017   5.293
 3976POPC   PO452632   2.221   1.483   5.433
 3976POPC   GL152633   1.878   1.440   5.711
 3976POPC   GL252634   1.976   1.095   5.762
 3976POPC   C1A52635   1.751   1.547   6.157
 3976POPC   D2A52636   1.713   1.785   6.579
 3976POPC   C3A52637   1.831   1.531   6.976
 3976POPC   C4A52638   1.766   1.090   7.143
 3976POPC   C1B52639   2.208   0.846   6.083
 3976POPC   C2B52640   2.291   0.876   6.528
 3976POPC   C3B52641   2.183   0.716   6.959
 3976POPC   C4B52642   2.148   0.858   7.408
 3977POPC   NC352643  31.231  16.183   4.848
 3977POPC   PO452644  31.211  15.801   5.422
 3977POPC   GL152645  31.352  15.759   5.797
 3977POPC   GL252646  31.338  16.132   5.830
 3977POPC   C1A52647  31.487  15.815   6.208
 3977POPC   D2A52648  31.640  15.725   6.579
 3977POPC   C3A52649  31.387  15.885   6.903
 3977POPC   C4A52650  31.510  15.846   7.310
 3977POPC   C1B52651  31.273  16.277   6.265
 3977POPC   C2B52652  31.029  16.158   6.648
 3977POPC   C3B52653  31.111  16.322   7.073
 3977POPC   C4B52654  31.445  16.357   7.417
 3978POPC   NC352655  19.610  40.804   5.536
 3978POPC   PO452656  20.147  40.467   5.522
 3978POPC   GL152657  20.023  40.745   5.862
 3978POPC   GL252658  20.108  41.106   5.861
 3978POPC   C1A52659  19.922  40.605   6.275
 3978POPC   D2A52660  20.076  40.357   6.605
 3978POPC   C3A52661  19.938  40.526   6.980
 3978POPC   C4A52662  19.711  40.524   7.416
 3978POPC   C1B52663  19.875  41.124   6.276
 3978POPC   C2B52664  19.792  41.160   6.749
 3978POPC   C3B52665  19.763  40.952   7.155
 3978POPC   C4B52666  19.889  41.007   7.613
 3979POPC   NC352667  29.172  16.350   5.547
 3979POPC   PO452668  28.748  16.882   5.455
 3979POPC   GL152669  28.916  16.704   5.862
 3979POPC   GL252670  28.939  16.357   5.982
 3979POPC   C1A52671  29.183  16.746   6.266
 3979POPC   D2A52672  29.311  16.960   6.658
 3979POPC   C3A52673  29.224  16.804   7.077
 3979POPC   C4A52674  29.192  16.859   7.544
 3979POPC   C1B52675  28.714  16.557   6.300
 3979POPC   C2B52676  28.866  16.671   6.680
 3979POPC   C3B52677  28.805  16.483   7.043
 3979POPC   C4B52678  28.752  16.684   7.388
 3980POPC   NC352679  25.031  31.904   5.478
 3980POPC   PO452680  25.372  31.272   5.406
 3980POPC   GL152681  25.045  31.410   5.659
 3980POPC   GL252682  25.286  31.608   5.823
 3980POPC   C1A52683  24.882  31.460   6.100
 3980POPC   D2A52684  24.967  31.540   6.534
 3980POPC   C3A52685  25.201  31.408   6.898
 3980POPC   C4A52686  24.929  31.478   7.236
 3980POPC   C1B52687  25.284  31.814   6.196
 3980POPC   C2B52688  25.459  31.734   6.587
 3980POPC   C3B52689  25.448  31.892   6.977
 3980POPC   C4B52690  25.208  31.898   7.356
 3981POPC   NC352691   1.183  34.855   5.461
 3981POPC   PO452692   1.239  34.232   5.606
 3981POPC   GL152693   1.086  34.524   5.871
 3981POPC   GL252694   1.410  34.618   5.977
 3981POPC   C1A52695   1.022  34.606   6.305
 3981POPC   D2A52696   1.219  34.601   6.697
 3981POPC   C3A52697   0.973  34.413   7.002
 3981POPC   C4A52698   1.065  34.169   7.305
 3981POPC   C1B52699   1.298  34.193   6.248
 3981POPC   C2B52700   1.250  34.067   6.682
 3981POPC   C3B52701   1.480  34.258   7.004
 3981POPC   C4B52702   1.537  34.334   7.420
 3982POPC   NC352703  15.584  19.967   5.560
 3982POPC   PO452704  16.254  19.968   5.453
 3982POPC   GL152705  16.095  19.967   5.871
 3982POPC   GL252706  15.844  20.213   5.915
 3982POPC   C1A52707  16.063  19.716   6.259
 3982POPC   D2A52708  16.217  19.658   6.681
 3982POPC   C3A52709  15.867  19.496   6.908
 3982POPC   C4A52710  15.721  19.495   7.329
 3982POPC   C1B52711  15.749  20.126   6.324
 3982POPC   C2B52712  15.815  19.989   6.748
 3982POPC   C3B52713  15.913  19.939   7.200
 3982POPC   C4B52714  15.835  20.172   7.599
 3983POPC   NC352715  15.479  21.482   5.271
 3983POPC   PO452716  14.991  21.117   5.568
 3983POPC   GL152717  14.994  21.360   5.893
 3983POPC   GL252718  15.341  21.474   5.859
 3983POPC   C1A52719  15.128  21.229   6.296
 3983POPC   D2A52720  15.440  21.409   6.596
 3983POPC   C3A52721  15.387  21.182   6.950
 3983POPC   C4A52722  14.984  21.072   7.063
 3983POPC   C1B52723  15.195  21.730   6.236
 3983POPC   C2B52724  15.239  21.901   6.663
 3983POPC   C3B52725  15.181  21.709   7.066
 3983POPC   C4B52726  14.946  21.721   7.465
 3984POPC   NC352727  12.207  12.596   5.299
 3984POPC   PO452728  11.988  11.988   5.330
 3984POPC   GL152729  12.098  12.166   5.746
 3984POPC   GL252730  12.303  12.464   5.786
 3984POPC   C1A52731  11.984  12.015   6.187
 3984POPC   D2A52732  11.949  12.113   6.654
 3984POPC   C3A52733  11.875  11.880   7.056
 3984POPC   C4A52734  12.051  11.634   7.421
 3984POPC   C1B52735  12.197  12.469   6.216
 3984POPC   C2B52736  12.403  12.348   6.595
 3984POPC   C3B52737  12.316  12.205   7.033
 3984POPC   C4B52738  12.088  12.147   7.440
 3985POPC   NC352739   9.109  41.383   5.614
 3985POPC   PO452740   8.497  41.183   5.493
 3985POPC   GL152741   8.668  41.484   5.881
 3985POPC   GL252742   8.886  41.808   5.850
 3985POPC   C1A52743   8.686  41.726   6.328
 3985POPC   D2A52744   8.700  41.739   6.815
 3985POPC   C3A52745   8.897  41.355   7.009
 3985POPC   C4A52746   9.314  41.254   7.189
 3985POPC   C1B52747   9.201  41.700   6.204
 3985POPC   C2B52748   9.162  41.547   6.622
 3985POPC   C3B52749   9.240  41.727   7.031
 3985POPC   C4B52750   9.328  41.745   7.501
 3986POPC   NC352751  31.941  12.833   5.334
 3986POPC   PO452752  32.563  12.844   5.103
 3986POPC   GL152753  32.474  12.778   5.614
 3986POPC   GL252754  32.130  12.864   5.843
 3986POPC   C1A52755  32.548  12.693   6.097
 3986POPC   D2A52756  32.491  12.959   6.499
 3986POPC   C3A52757  32.560  12.882   6.947
 3986POPC   C4A52758  32.484  12.592   7.275
 3986POPC   C1B52759  32.041  12.710   6.305
 3986POPC   C2B52760  32.072  12.701   6.800
 3986POPC   C3B52761  32.079  12.952   7.206
 3986POPC   C4B52762  31.927  12.967   7.691
 3987POPC   NC352763  30.177  29.097   5.430
 3987POPC   PO452764  29.753  29.537   5.335
 3987POPC   GL152765  29.642  29.291   5.736
 3987POPC   GL252766  29.573  28.940   5.871
 3987POPC   C1A52767  29.499  29.330   6.200
 3987POPC   D2A52768  29.578  29.183   6.654
 3987POPC   C3A52769  29.881  29.323   6.953
 3987POPC   C4A52770  29.663  29.302   7.308
 3987POPC   C1B52771  29.812  28.907   6.280
 3987POPC   C2B52772  30.030  28.878   6.711
 3987POPC   C3B52773  30.035  28.875   7.206
 3987POPC   C4B52774  30.090  28.840   7.716
 3988POPC   NC352775  32.088  40.161   5.385
 3988POPC   PO452776  32.283  39.555   5.551
 3988POPC   GL152777  32.424  39.801   5.867
 3988POPC   GL252778  32.450  40.141   5.774
 3988POPC   C1A52779  32.535  39.861   6.282
 3988POPC   D2A52780  32.493  40.173   6.574
 3988POPC   C3A52781  32.309  40.029   6.947
 3988POPC   C4A52782  32.539  39.843   7.248
 3988POPC   C1B52783  32.172  40.219   6.127
 3988POPC   C2B52784  31.970  40.152   6.530
 3988POPC   C3B52785  31.908  40.342   6.928
 3988POPC   C4B52786  32.069  40.430   7.327
 3989POPC   NC352787  36.102  23.398   5.538
 3989POPC   PO452788  36.351  23.975   5.483
 3989POPC   GL152789  36.236  23.796   5.866
 3989POPC   GL252790  35.943  23.641   5.962
 3989POPC   C1A52791  36.352  23.715   6.296
 3989POPC   D2A52792  36.129  23.718   6.685
 3989POPC   C3A52793  36.361  23.552   7.020
 3989POPC   C4A52794  36.314  23.511   7.443
 3989POPC   C1B52795  35.780  23.845   6.305
 3989POPC   C2B52796  35.835  24.149   6.602
 3989POPC   C3B52797  35.732  24.121   6.994
 3989POPC   C4B52798  35.894  23.742   7.189
 3990POPC   NC352799  36.815  20.975   5.302
 3990POPC   PO452800  36.637  21.525   5.491
 3990POPC   GL152801  36.890  21.266   5.751
 3990POPC   GL252802  37.171  21.480   5.832
 3990POPC   C1A52803  36.994  21.120   6.178
 3990POPC   D2A52804  36.928  21.254   6.599
 3990POPC   C3A52805  36.869  21.020   6.962
 3990POPC   C4A52806  36.628  21.302   7.240
 3990POPC   C1B52807  37.117  21.700   6.258
 3990POPC   C2B52808  37.118  21.714   6.747
 3990POPC   C3B52809  37.115  21.430   7.137
 3990POPC   C4B52810  37.176  21.494   7.632
 3991POPC   NC352811  18.118  24.869   5.274
 3991POPC   PO452812  18.142  25.503   5.338
 3991POPC   GL152813  18.219  25.154   5.694
 3991POPC   GL252814  18.119  24.764   5.769
 3991POPC   C1A52815  18.574  24.993   5.943
 3991POPC   D2A52816  18.741  25.008   6.372
 3991POPC   C3A52817  18.456  25.120   6.715
 3991POPC   C4A52818  18.378  25.230   7.159
 3991POPC   C1B52819  18.120  24.949   6.194
 3991POPC   C2B52820  18.007  24.898   6.629
 3991POPC   C3B52821  17.887  25.081   7.049
 3991POPC   C4B52822  17.969  25.125   7.502
 3992POPC   NC352823  30.495  17.043   5.636
 3992POPC   PO452824  30.351  16.378   5.389
 3992POPC   GL152825  30.612  16.369   5.772
 3992POPC   GL252826  30.678  16.685   5.934
 3992POPC   C1A52827  30.761  16.265   6.194
 3992POPC   D2A52828  30.604  16.581   6.443
 3992POPC   C3A52829  30.651  16.492   6.850
 3992POPC   C4A52830  30.688  16.650   7.239
 3992POPC   C1B52831  30.688  17.045   6.234
 3992POPC   C2B52832  30.436  17.058   6.567
 3992POPC   C3B52833  30.627  17.032   6.928
 3992POPC   C4B52834  30.843  17.173   7.273
 3993POPC   NC352835  35.973  26.150   5.233
 3993POPC   PO452836  36.647  26.338   5.296
 3993POPC   GL152837  36.319  26.066   5.606
 3993POPC   GL252838  35.986  26.189   5.748
 3993POPC   C1A52839  36.247  25.931   6.085
 3993POPC   D2A52840  36.401  26.012   6.537
 3993POPC   C3A52841  36.199  25.930   6.935
 3993POPC   C4A52842  36.233  26.085   7.380
 3993POPC   C1B52843  35.819  26.198   6.208
 3993POPC   C2B52844  35.867  26.238   6.679
 3993POPC   C3B52845  35.774  26.228   7.146
 3993POPC   C4B52846  35.748  26.310   7.604
 3994POPC   NC352847  42.136   3.849   5.759
 3994POPC   PO452848  42.322   4.440   5.394
 3994POPC   GL152849  42.426   4.266   5.779
 3994POPC   GL252850  42.078   4.358   5.869
 3994POPC   C1A52851  42.454   4.207   6.219
 3994POPC   D2A52852  42.382   4.536   6.538
 3994POPC   C3A52853  42.385   4.435   6.962
 3994POPC   C4A52854  42.617   4.207   7.274
 3994POPC   C1B52855  41.943   4.373   6.305
 3994POPC   C2B52856  41.879   4.429   6.766
 3994POPC   C3B52857  41.972   4.279   7.195
 3994POPC   C4B52858  41.897   3.936   7.428
 3995POPC   NC352859   9.212   0.814   5.493
 3995POPC   PO452860   8.834   0.355   5.380
 3995POPC   GL152861   8.975   0.433   5.778
 3995POPC   GL252862   8.725   0.704   5.791
 3995POPC   C1A52863   9.168   0.356   6.197
 3995POPC   D2A52864   9.424   0.463   6.572
 3995POPC   C3A52865   9.235   0.322   6.953
 3995POPC   C4A52866   9.093   0.454   7.356
 3995POPC   C1B52867   8.620   0.392   6.150
 3995POPC   C2B52868   8.826   0.395   6.566
 3995POPC   C3B52869   8.747   0.519   6.957
 3995POPC   C4B52870   8.634   0.257   7.277
 3996POPC   NC352871  15.046  26.212   5.366
 3996POPC   PO452872  15.635  25.943   5.213
 3996POPC   GL152873  15.414  26.153   5.674
 3996POPC   GL252874  15.151  25.897   5.763
 3996POPC   C1A52875  15.332  26.184   6.154
 3996POPC   D2A52876  15.437  25.967   6.577
 3996POPC   C3A52877  15.579  26.174   6.982
 3996POPC   C4A52878  15.483  26.005   7.411
 3996POPC   C1B52879  15.077  25.674   6.152
 3996POPC   C2B52880  15.060  25.508   6.572
 3996POPC   C3B52881  15.098  25.704   6.969
 3996POPC   C4B52882  14.697  25.677   7.175
 3997POPC   NC352883   9.568  28.794   5.712
 3997POPC   PO452884   9.281  29.239   5.318
 3997POPC   GL152885   9.442  29.334   5.744
 3997POPC   GL252886   9.804  29.340   5.679
 3997POPC   C1A52887   9.546  29.259   6.180
 3997POPC   D2A52888   9.847  29.014   6.448
 3997POPC   C3A52889   9.789  29.002   6.905
 3997POPC   C4A52890   9.637  29.239   7.260
 3997POPC   C1B52891  10.032  29.403   6.071
 3997POPC   C2B52892  10.078  29.466   6.518
 3997POPC   C3B52893  10.076  29.423   6.986
 3997POPC   C4B52894  10.084  29.396   7.450
 3998POPC   NC352895  33.449  42.451   5.490
 3998POPC   PO452896  34.096  42.110   5.529
 3998POPC   GL152897  33.818  42.322   5.832
 3998POPC   GL252898  33.508  42.112   5.871
 3998POPC   C1A52899  33.644  42.527   6.222
 3998POPC   D2A52900  33.624  42.767   6.633
 3998POPC   C3A52901  33.710  42.636   7.062
 3998POPC   C4A52902  33.502  42.565   7.478
 3998POPC   C1B52903  33.586  42.015   6.303
 3998POPC   C2B52904  33.485  42.253   6.699
 3998POPC   C3B52905  33.508  42.175   7.143
 3998POPC   C4B52906  33.514  42.072   7.586
 3999POPC   NC352907  15.111   0.060   5.220
 3999POPC   PO452908  15.285   0.654   5.457
 3999POPC   GL152909  15.035   0.537   5.820
 3999POPC   GL252910  15.310   0.441   5.955
 3999POPC   C1A52911  14.878   0.414   6.244
 3999POPC   D2A52912  14.803   0.352   6.700
 3999POPC   C3A52913  15.145   0.438   7.015
 3999POPC   C4A52914  15.142   0.541   7.472
 3999POPC   C1B52915  15.522   0.751   6.126
 3999POPC   C2B52916  15.729   0.677   6.487
 3999POPC   C3B52917  15.643   0.891   6.856
 3999POPC   C4B52918  15.470   0.905   7.248
 4000POPC   NC352919  19.813  12.078   5.042
 4000POPC   PO452920  19.429  11.662   5.409
 4000POPC   GL152921  19.645  11.945   5.698
 4000POPC   GL252922  19.764  11.680   5.837
 4000POPC   C1A52923  19.789  12.017   6.187
 4000POPC   D2A52924  19.878  11.720   6.553
 4000POPC   C3A52925  19.764  11.846   6.971
 4000POPC   C4A52926  19.931  12.074   7.330
 4000POPC   C1B52927  20.221  11.744   6.056
 4000POPC   C2B52928  20.408  11.735   6.494
 4000POPC   C3B52929  20.292  11.874   6.924
 4000POPC   C4B52930  20.359  11.753   7.352
 4001POPC   NC352931   5.839  15.370   5.238
 4001POPC   PO452932   5.777  14.767   5.116
 4001POPC   GL152933   5.857  15.016   5.600
 4001POPC   GL252934   5.655  14.930   5.893
 4001POPC   C1A52935   6.047  15.170   6.050
 4001POPC   D2A52936   5.807  15.190   6.476
 4001POPC   C3A52937   5.989  15.297   6.905
 4001POPC   C4A52938   6.287  15.079   7.243
 4001POPC   C1B52939   5.854  14.715   6.245
 4001POPC   C2B52940   5.682  14.611   6.631
 4001POPC   C3B52941   5.545  14.974   6.879
 4001POPC   C4B52942   5.750  15.059   7.268
 4002POPC   NC352943  26.310   1.330   5.145
 4002POPC   PO452944  25.936   0.958   5.357
 4002POPC   GL152945  26.206   1.105   5.764
 4002POPC   GL252946  26.267   1.460   5.821
 4002POPC   C1A52947  26.145   1.190   6.253
 4002POPC   D2A52948  26.117   1.241   6.734
 4002POPC   C3A52949  26.189   0.910   7.051
 4002POPC   C4A52950  26.322   0.917   7.509
 4002POPC   C1B52951  26.354   1.670   6.230
 4002POPC   C2B52952  26.349   1.704   6.695
 4002POPC   C3B52953  26.089   1.668   7.090
 4002POPC   C4B52954  25.814   1.829   7.458
 4003POPC   NC352955  25.518  18.302   5.519
 4003POPC   PO452956  25.149  18.716   5.122
 4003POPC   GL152957  25.074  18.540   5.605
 4003POPC   GL252958  25.050  18.168   5.687
 4003POPC   C1A52959  25.259  18.473   6.072
 4003POPC   D2A52960  25.184  18.384   6.523
 4003POPC   C3A52961  25.475  18.518   6.837
 4003POPC   C4A52962  25.512  18.381   7.262
 4003POPC   C1B52963  24.966  18.072   6.166
 4003POPC   C2B52964  24.885  17.940   6.635
 4003POPC   C3B52965  24.867  17.866   7.079
 4003POPC   C4B52966  24.897  17.944   7.576
 4004POPC   NC352967  42.461  23.362   5.316
 4004POPC   PO452968  42.621  22.684   5.270
 4004POPC   GL152969  42.407  22.925   5.592
 4004POPC   GL252970  42.648  23.157   5.748
 4004POPC   C1A52971  42.282  22.807   6.009
 4004POPC   D2A52972  42.343  22.837   6.458
 4004POPC   C3A52973  42.159  22.575   6.779
 4004POPC   C4A52974  42.284  22.679   7.202
 4004POPC   C1B52975  42.484  23.252   6.183
 4004POPC   C2B52976  42.373  23.298   6.664
 4004POPC   C3B52977  42.324  23.180   7.104
 4004POPC   C4B52978  42.550  23.403   7.478
 4005POPC   NC352979   0.774  32.448   5.491
 4005POPC   PO452980   0.277  32.135   5.319
 4005POPC   GL152981   0.318  32.289   5.770
 4005POPC   GL252982   0.554  32.536   5.956
 4005POPC   C1A52983   0.192  32.268   6.220
 4005POPC   D2A52984   0.299  32.377   6.663
 4005POPC   C3A52985   0.117  32.191   7.054
 4005POPC   C4A52986   0.143  32.260   7.557
 4005POPC   C1B52987   0.716  32.135   6.122
 4005POPC   C2B52988   0.826  32.039   6.545
 4005POPC   C3B52989   0.697  32.201   6.954
 4005POPC   C4B52990   0.533  32.042   7.319
 4006POPC   NC352991  37.979  41.595   5.328
 4006POPC   PO452992  37.316  41.586   5.334
 4006POPC   GL152993  37.566  41.425   5.658
 4006POPC   GL252994  37.677  41.704   5.762
 4006POPC   C1A52995  37.675  41.353   6.131
 4006POPC   D2A52996  37.772  41.146   6.526
 4006POPC   C3A52997  37.645  41.331   6.920
 4006POPC   C4A52998  37.778  41.464   7.324
 4006POPC   C1B52999  37.505  41.873   6.152
 4006POPC   C2B53000  37.447  42.042   6.562
 4006POPC   C3B53001  37.295  41.756   6.886
 4006POPC   C4B53002  37.325  41.718   7.322
 4007POPC   NC353003   8.995  19.451   5.329
 4007POPC   PO453004   9.207  20.158   5.423
 4007POPC   GL153005   9.069  19.812   5.676
 4007POPC   GL253006   8.760  19.740   5.736
 4007POPC   C1A53007   9.145  19.693   6.119
 4007POPC   D2A53008   9.048  19.861   6.530
 4007POPC   C3A53009   8.974  19.593   6.889
 4007POPC   C4A53010   9.128  19.804   7.283
 4007POPC   C1B53011   8.669  19.963   6.166
 4007POPC   C2B53012   8.531  19.939   6.624
 4007POPC   C3B53013   8.634  19.932   7.080
 4007POPC   C4B53014   8.693  19.965   7.544
 4008POPC   NC353015  34.284  11.623   5.310
 4008POPC   PO453016  34.689  11.080   5.463
 4008POPC   GL153017  34.630  11.354   5.783
 4008POPC   GL253018  34.888  11.595   5.917
 4008POPC   C1A53019  34.635  11.239   6.210
 4008POPC   D2A53020  34.402  11.001   6.495
 4008POPC   C3A53021  34.318  11.143   6.911
 4008POPC   C4A53022  34.681  11.021   7.193
 4008POPC   C1B53023  34.645  11.725   6.324
 4008POPC   C2B53024  34.666  11.447   6.697
 4008POPC   C3B53025  34.721  11.526   7.138
 4008POPC   C4B53026  34.898  11.770   7.487
 4009POPC   NC353027  33.346  35.502   5.471
 4009POPC   PO453028  33.954  35.155   5.381
 4009POPC   GL153029  33.780  35.363   5.723
 4009POPC   GL253030  33.499  35.117   5.770
 4009POPC   C1A53031  33.654  35.404   6.161
 4009POPC   D2A53032  33.482  35.315   6.557
 4009POPC   C3A53033  33.833  35.189   6.811
 4009POPC   C4A53034  34.074  35.420   7.113
 4009POPC   C1B53035  33.264  35.045   6.172
 4009POPC   C2B53036  33.118  34.965   6.585
 4009POPC   C3B53037  33.352  35.047   6.969
 4009POPC   C4B53038  33.561  35.368   7.202
 4010POPC   NC353039  14.934  10.230   5.467
 4010POPC   PO453040  14.251  10.383   5.554
 4010POPC   GL153041  14.537  10.326   5.880
 4010POPC   GL253042  14.742  10.591   5.800
 4010POPC   C1A53043  14.491  10.410   6.311
 4010POPC   D2A53044  14.217  10.715   6.474
 4010POPC   C3A53045  14.139  10.646   6.907
 4010POPC   C4A53046  14.197  10.235   7.160
 4010POPC   C1B53047  14.703  10.862   6.164
 4010POPC   C2B53048  14.790  10.726   6.583
 4010POPC   C3B53049  14.665  10.467   6.899
 4010POPC   C4B53050  14.506  10.637   7.234
 4011POPC   NC353051   6.011   3.243   5.387
 4011POPC   PO453052   5.745   3.907   5.361
 4011POPC   GL153053   6.001   3.825   5.755
 4011POPC   GL253054   6.004   3.466   5.847
 4011POPC   C1A53055   5.799   3.823   6.162
 4011POPC   D2A53056   5.753   3.622   6.549
 4011POPC   C3A53057   5.790   3.843   6.902
 4011POPC   C4A53058   5.670   3.764   7.326
 4011POPC   C1B53059   6.225   3.538   6.233
 4011POPC   C2B53060   6.266   3.466   6.629
 4011POPC   C3B53061   6.072   3.437   6.969
 4011POPC   C4B53062   6.343   3.297   7.220
 4012POPC   NC353063  18.538  25.757   5.398
 4012POPC   PO453064  18.076  26.200   5.535
 4012POPC   GL153065  18.338  25.984   5.820
 4012POPC   GL253066  18.230  25.657   5.812
 4012POPC   C1A53067  18.199  25.959   6.233
 4012POPC   D2A53068  18.039  26.219   6.530
 4012POPC   C3A53069  18.054  26.059   6.883
 4012POPC   C4A53070  18.332  25.979   7.201
 4012POPC   C1B53071  18.230  25.448   6.201
 4012POPC   C2B53072  18.200  25.587   6.627
 4012POPC   C3B53073  18.019  25.577   7.019
 4012POPC   C4B53074  18.111  25.608   7.455
 4013POPC   NC353075  20.572  32.208   5.159
 4013POPC   PO453076  20.272  32.772   5.323
 4013POPC   GL153077  20.402  32.470   5.763
 4013POPC   GL253078  20.474  32.131   5.663
 4013POPC   C1A53079  20.735  32.424   6.128
 4013POPC   D2A53080  20.898  32.315   6.572
 4013POPC   C3A53081  20.684  32.472   6.924
 4013POPC   C4A53082  20.585  32.537   7.358
 4013POPC   C1B53083  20.422  32.030   6.086
 4013POPC   C2B53084  20.354  32.198   6.518
 4013POPC   C3B53085  20.408  32.030   6.962
 4013POPC   C4B53086  20.761  32.083   7.270
 4014POPC   NC353087  23.853  17.696   5.404
 4014POPC   PO453088  23.283  17.259   5.282
 4014POPC   GL153089  23.510  17.427   5.679
 4014POPC   GL253090  23.851  17.344   5.827
 4014POPC   C1A53091  23.524  17.673   6.085
 4014POPC   D2A53092  23.851  17.758   6.433
 4014POPC   C3A53093  23.734  17.612   6.874
 4014POPC   C4A53094  23.352  17.426   7.083
 4014POPC   C1B53095  24.179  17.400   6.183
 4014POPC   C2B53096  24.178  17.403   6.660
 4014POPC   C3B53097  24.232  17.300   7.106
 4014POPC   C4B53098  24.133  17.405   7.568
 4015POPC   NC353099   3.487  35.037   5.338
 4015POPC   PO453100   3.376  35.706   5.439
 4015POPC   GL153101   3.622  35.401   5.709
 4015POPC   GL253102   3.368  35.137   5.819
 4015POPC   C1A53103   3.810  35.161   6.069
 4015POPC   D2A53104   3.643  35.043   6.490
 4015POPC   C3A53105   3.763  35.094   6.921
 4015POPC   C4A53106   3.662  35.136   7.372
 4015POPC   C1B53107   3.376  35.396   6.198
 4015POPC   C2B53108   3.220  35.353   6.609
 4015POPC   C3B53109   3.379  35.453   7.022
 4015POPC   C4B53110   3.188  35.384   7.426
 4016POPC   NC353111   9.067  31.912   5.557
 4016POPC   PO453112   8.908  31.187   5.451
 4016POPC   GL153113   8.869  31.332   5.867
 4016POPC   GL253114   9.099  31.604   5.957
 4016POPC   C1A53115   8.782  31.431   6.307
 4016POPC   D2A53116   8.955  31.761   6.519
 4016POPC   C3A53117   8.887  31.665   6.915
 4016POPC   C4A53118   8.808  31.589   7.287
 4016POPC   C1B53119   9.330  31.480   6.315
 4016POPC   C2B53120   9.342  31.477   6.754
 4016POPC   C3B53121   9.331  31.577   7.189
 4016POPC   C4B53122   9.179  31.414   7.585
 4017POPC   NC353123   3.529  13.280   5.505
 4017POPC   PO453124   3.844  12.678   5.317
 4017POPC   GL153125   3.670  12.706   5.788
 4017POPC   GL253126   3.473  12.980   5.917
 4017POPC   C1A53127   3.365  12.509   6.144
 4017POPC   D2A53128   3.211  12.604   6.597
 4017POPC   C3A53129   3.543  12.773   6.838
 4017POPC   C4A53130   3.635  12.727   7.223
 4017POPC   C1B53131   3.498  12.970   6.339
 4017POPC   C2B53132   3.255  13.147   6.647
 4017POPC   C3B53133   3.265  13.087   7.102
 4017POPC   C4B53134   3.551  13.268   7.348
 4018POPC   NC353135   6.464  41.958   5.639
 4018POPC   PO453136   7.000  41.827   5.231
 4018POPC   GL153137   6.807  41.599   5.705
 4018POPC   GL253138   6.935  41.386   5.971
 4018POPC   C1A53139   6.488  41.518   6.145
 4018POPC   D2A53140   6.457  41.259   6.553
 4018POPC   C3A53141   6.449  41.446   6.961
 4018POPC   C4A53142   6.368  41.828   7.131
 4018POPC   C1B53143   6.922  41.459   6.415
 4018POPC   C2B53144   6.774  41.771   6.666
 4018POPC   C3B53145   6.898  41.687   7.058
 4018POPC   C4B53146   6.873  41.440   7.405
 4019POPC   NC353147  30.935   0.883   5.506
 4019POPC   PO453148  30.462   1.470   5.443
 4019POPC   GL153149  30.572   1.398   5.845
 4019POPC   GL253150  30.561   1.019   5.838
 4019POPC   C1A53151  30.519   1.578   6.273
 4019POPC   D2A53152  30.571   1.593   6.739
 4019POPC   C3A53153  30.630   1.264   7.057
 4019POPC   C4A53154  30.730   1.418   7.473
 4019POPC   C1B53155  30.795   1.135   6.219
 4019POPC   C2B53156  30.948   1.188   6.634
 4019POPC   C3B53157  31.072   0.912   6.960
 4019POPC   C4B53158  31.109   1.127   7.330
 4020POPC   NC353159  11.774  29.017   5.446
 4020POPC   PO453160  12.303  29.355   5.341
 4020POPC   GL153161  12.079  29.290   5.755
 4020POPC   GL253162  11.986  28.904   5.884
 4020POPC   C1A53163  12.147  29.259   6.203
 4020POPC   D2A53164  11.980  29.046   6.545
 4020POPC   C3A53165  12.075  29.291   6.927
 4020POPC   C4A53166  11.829  29.424   7.263
 4020POPC   C1B53167  12.209  28.669   6.214
 4020POPC   C2B53168  12.145  28.559   6.644
 4020POPC   C3B53169  11.955  28.812   6.994
 4020POPC   C4B53170  12.396  28.954   7.130
 4021POPC   NC353171  28.830  29.021   5.236
 4021POPC   PO453172  28.297  29.421   5.381
 4021POPC   GL153173  28.253  29.145   5.755
 4021POPC   GL253174  28.612  29.138   5.738
 4021POPC   C1A53175  28.105  29.039   6.214
 4021POPC   D2A53176  28.288  28.930   6.660
 4021POPC   C3A53177  28.082  29.042   7.056
 4021POPC   C4A53178  28.107  29.371   7.408
 4021POPC   C1B53179  28.598  28.927   6.157
 4021POPC   C2B53180  28.780  28.825   6.560
 4021POPC   C3B53181  28.740  29.020   6.996
 4021POPC   C4B53182  28.867  28.974   7.463
 4022POPC   NC353183  24.452   8.208   5.298
 4022POPC   PO453184  24.551   7.527   5.264
 4022POPC   GL153185  24.616   7.867   5.652
 4022POPC   GL253186  24.716   8.264   5.716
 4022POPC   C1A53187  24.471   8.050   6.094
 4022POPC   D2A53188  24.236   8.259   6.456
 4022POPC   C3A53189  24.232   8.107   6.886
 4022POPC   C4A53190  24.151   7.869   7.264
 4022POPC   C1B53191  24.858   8.427   6.136
 4022POPC   C2B53192  24.954   8.530   6.594
 4022POPC   C3B53193  24.909   8.465   7.048
 4022POPC   C4B53194  24.500   8.492   7.203
 4023POPC   NC353195  11.777   2.944   5.154
 4023POPC   PO453196  12.356   2.969   5.556
 4023POPC   GL153197  12.303   3.027   6.011
 4023POPC   GL253198  12.353   2.680   6.034
 4023POPC   C1A53199  11.985   2.921   6.360
 4023POPC   D2A53200  11.687   2.926   6.704
 4023POPC   C3A53201  11.861   3.021   7.108
 4023POPC   C4A53202  11.829   2.762   7.513
 4023POPC   C1B53203  12.052   2.414   6.298
 4023POPC   C2B53204  11.750   2.412   6.627
 4023POPC   C3B53205  11.816   2.527   7.038
 4023POPC   C4B53206  12.239   2.693   7.198
 4024POPC   NC353207   9.618  12.187   5.411
 4024POPC   PO453208  10.194  11.826   5.517
 4024POPC   GL153209   9.918  12.107   5.864
 4024POPC   GL253210   9.568  12.264   5.900
 4024POPC   C1A53211   9.846  12.298   6.332
 4024POPC   D2A53212   9.910  12.527   6.751
 4024POPC   C3A53213  10.029  12.245   7.129
 4024POPC   C4A53214  10.032  11.774   7.278
 4024POPC   C1B53215   9.539  11.906   6.155
 4024POPC   C2B53216   9.762  11.809   6.518
 4024POPC   C3B53217   9.684  11.915   6.925
 4024POPC   C4B53218   9.508  11.707   7.262
 4025POPC   NC353219   0.105  23.938   5.439
 4025POPC   PO453220   0.704  23.679   5.402
 4025POPC   GL153221   0.409  23.689   5.760
 4025POPC   GL253222   0.674  23.814   5.909
 4025POPC   C1A53223   0.265  23.839   6.195
 4025POPC   D2A53224   0.473  23.889   6.628
 4025POPC   C3A53225   0.399  23.729   7.059
 4025POPC   C4A53226   0.734  23.760   7.366
 4025POPC   C1B53227   0.748  23.603   6.257
 4025POPC   C2B53228   0.792  23.243   6.466
 4025POPC   C3B53229   0.719  23.369   6.871
 4025POPC   C4B53230   0.588  23.272   7.302
 4026POPC   NC353231  18.839  40.209   5.526
 4026POPC   PO453232  19.285  39.654   5.467
 4026POPC   GL153233  19.155  39.903   5.817
 4026POPC   GL253234  18.852  39.708   5.791
 4026POPC   C1A53235  19.151  40.180   6.202
 4026POPC   D2A53236  19.055  40.009   6.632
 4026POPC   C3A53237  19.187  40.174   7.004
 4026POPC   C4A53238  19.286  39.870   7.286
 4026POPC   C1B53239  18.836  39.780   6.230
 4026POPC   C2B53240  18.631  39.728   6.632
 4026POPC   C3B53241  18.745  39.849   7.094
 4026POPC   C4B53242  18.814  39.531   7.423
 4027POPC   NC353243  43.317  20.068   5.398
 4027POPC   PO453244  42.869  19.541   5.343
 4027POPC   GL153245  42.948  19.797   5.682
 4027POPC   GL253246  43.301  19.736   5.772
 4027POPC   C1A53247  42.922  19.834   6.134
 4027POPC   D2A53248  42.713  19.893   6.526
 4027POPC   C3A53249  42.915  19.734   6.882
 4027POPC   C4A53250  42.994  19.953   7.232
 4027POPC   C1B53251  43.439  19.901   6.148
 4027POPC   C2B53252  43.269  19.830   6.537
 4027POPC   C3B53253  43.432  19.929   6.963
 4027POPC   C4B53254  43.430  19.810   7.426
 4028POPC   NC353255  21.522  20.182   5.588
 4028POPC   PO453256  21.176  19.613   5.404
 4028POPC   GL153257  21.217  19.822   5.791
 4028POPC   GL253258  21.371  19.525   5.890
 4028POPC   C1A53259  21.130  20.135   6.149
 4028POPC   D2A53260  21.309  20.258   6.582
 4028POPC   C3A53261  21.199  20.142   7.068
 4028POPC   C4A53262  21.165  20.199   7.577
 4028POPC   C1B53263  21.143  19.626   6.274
 4028POPC   C2B53264  21.235  19.756   6.694
 4028POPC   C3B53265  21.547  19.738   7.027
 4028POPC   C4B53266  21.466  19.477   7.360
 4029POPC   NC353267  14.559  41.494   5.505
 4029POPC   PO453268  14.524  42.028   5.193
 4029POPC   GL153269  14.411  41.948   5.711
 4029POPC   GL253270  14.383  41.608   5.944
 4029POPC   C1A53271  14.472  42.029   6.180
 4029POPC   D2A53272  14.766  41.902   6.535
 4029POPC   C3A53273  14.607  41.950   6.952
 4029POPC   C4A53274  14.173  41.892   7.067
 4029POPC   C1B53275  14.392  41.557   6.385
 4029POPC   C2B53276  14.548  41.463   6.777
 4029POPC   C3B53277  14.263  41.387   7.099
 4029POPC   C4B53278  13.874  41.106   7.121
 4030POPC   NC353279   6.126   2.523   5.429
 4030POPC   PO453280   5.666   2.924   5.419
 4030POPC   GL153281   5.942   2.856   5.762
 4030POPC   GL253282   5.960   2.496   5.892
 4030POPC   C1A53283   6.066   3.031   6.127
 4030POPC   D2A53284   5.897   3.135   6.493
 4030POPC   C3A53285   5.985   2.913   6.846
 4030POPC   C4A53286   5.857   3.038   7.193
 4030POPC   C1B53287   5.843   2.288   6.246
 4030POPC   C2B53288   5.928   2.460   6.612
 4030POPC   C3B53289   5.779   2.431   7.009
 4030POPC   C4B53290   5.964   2.584   7.360
 4031POPC   NC353291  13.069  44.844   5.548
 4031POPC   PO453292  12.474  44.478   5.392
 4031POPC   GL153293  12.740  44.493   5.745
 4031POPC   GL253294  12.646  44.810   5.873
 4031POPC   C1A53295  12.763  44.380   6.191
 4031POPC   D2A53296  12.632  44.577   6.561
 4031POPC   C3A53297  12.828  44.467   6.944
 4031POPC   C4A53298  12.612  44.415   7.326
 4031POPC   C1B53299  12.728   0.032   6.274
 4031POPC   C2B53300  12.797   0.142   6.690
 4031POPC   C3B53301  12.676  44.929   7.068
 4031POPC   C4B53302  12.972  44.774   7.392
 4032POPC   NC353303  39.251   4.718   5.267
 4032POPC   PO453304  39.231   5.382   5.356
 4032POPC   GL153305  39.095   5.042   5.642
 4032POPC   GL253306  39.436   4.941   5.725
 4032POPC   C1A53307  38.980   4.931   6.074
 4032POPC   D2A53308  38.929   5.023   6.522
 4032POPC   C3A53309  38.757   5.008   6.931
 4032POPC   C4A53310  38.919   5.193   7.295
 4032POPC   C1B53311  39.339   5.283   6.027
 4032POPC   C2B53312  39.298   5.383   6.466
 4032POPC   C3B53313  39.252   5.241   6.899
 4032POPC   C4B53314  39.389   5.412   7.317
 4033POPC   NC353315  43.236  28.027   5.346
 4033POPC   PO453316  43.541  27.462   5.621
 4033POPC   GL153317  43.205  27.704   5.770
 4033POPC   GL253318  43.208  28.079   5.866
 4033POPC   C1A53319  42.996  27.631   6.129
 4033POPC   D2A53320  43.158  27.537   6.495
 4033POPC   C3A53321  42.937  27.318   6.800
 4033POPC   C4A53322  43.015  27.334   7.251
 4033POPC   C1B53323  43.176  28.098   6.332
 4033POPC   C2B53324  43.412  27.957   6.662
 4033POPC   C3B53325  43.264  27.702   6.969
 4033POPC   C4B53326  43.490  27.610   7.291
 4034POPC   NC353327  27.232  15.316   5.225
 4034POPC   PO453328  26.564  15.111   5.078
 4034POPC   GL153329  26.726  15.265   5.519
 4034POPC   GL253330  27.060  15.215   5.693
 4034POPC   C1A53331  26.682  15.398   5.985
 4034POPC   D2A53332  26.858  15.320   6.440
 4034POPC   C3A53333  26.696  15.404   6.862
 4034POPC   C4A53334  26.832  15.364   7.280
 4034POPC   C1B53335  26.963  14.969   6.065
 4034POPC   C2B53336  26.861  14.805   6.448
 4034POPC   C3B53337  26.894  14.913   6.848
 4034POPC   C4B53338  26.938  14.793   7.252
 4035POPC   NC353339  38.704  20.133   5.643
 4035POPC   PO453340  38.396  20.741   5.541
 4035POPC   GL153341  38.555  20.776   5.918
 4035POPC   GL253342  38.402  20.441   5.965
 4035POPC   C1A53343  38.391  20.847   6.302
 4035POPC   D2A53344  38.262  20.541   6.576
 4035POPC   C3A53345  38.440  20.597   6.970
 4035POPC   C4A53346  38.243  20.826   7.308
 4035POPC   C1B53347  38.672  20.372   6.286
 4035POPC   C2B53348  38.595  20.174   6.662
 4035POPC   C3B53349  38.726  20.163   7.058
 4035POPC   C4B53350  39.004  20.429   7.152
 4036POPC   NC353351   0.367   4.037   5.416
 4036POPC   PO453352   0.727   4.598   5.465
 4036POPC   GL153353   0.578   4.419   5.835
 4036POPC   GL253354   0.638   4.049   5.879
 4036POPC   C1A53355   0.651   4.435   6.273
 4036POPC   D2A53356   0.406   4.321   6.621
 4036POPC   C3A53357   0.572   4.371   7.023
 4036POPC   C4A53358   0.554   4.766   7.192
 4036POPC   C1B53359   0.256   4.129   6.142
 4036POPC   C2B53360   0.076   3.929   6.522
 4036POPC   C3B53361   0.166   4.026   6.995
 4036POPC   C4B53362   0.466   3.899   7.331
 4037POPC   NC353363   6.967   4.128   5.452
 4037POPC   PO453364   6.440   4.551   5.358
 4037POPC   GL153365   6.665   4.466   5.741
 4037POPC   GL253366   6.668   4.130   5.874
 4037POPC   C1A53367   6.626   4.525   6.187
 4037POPC   D2A53368   6.603   4.272   6.528
 4037POPC   C3A53369   6.590   4.469   6.898
 4037POPC   C4A53370   6.435   4.363   7.289
 4037POPC   C1B53371   7.005   4.179   6.175
 4037POPC   C2B53372   7.092   4.105   6.601
 4037POPC   C3B53373   6.861   4.032   6.966
 4037POPC   C4B53374   6.872   4.133   7.381
 4038POPC   NC353375  19.723  39.268   5.397
 4038POPC   PO453376  20.002  38.671   5.599
 4038POPC   GL153377  19.791  38.996   5.823
 4038POPC   GL253378  19.972  39.372   5.842
 4038POPC   C1A53379  19.616  39.159   6.165
 4038POPC   D2A53380  19.778  39.450   6.473
 4038POPC   C3A53381  19.957  39.357   6.872
 4038POPC   C4A53382  19.932  39.002   7.161
 4038POPC   C1B53383  19.662  39.652   6.022
 4038POPC   C2B53384  19.450  39.808   6.393
 4038POPC   C3B53385  19.508  39.684   6.853
 4038POPC   C4B53386  19.714  39.567   7.274
 4039POPC   NC353387  33.570  34.911   5.276
 4039POPC   PO453388  33.305  34.349   5.379
 4039POPC   GL153389  33.541  34.325   5.777
 4039POPC   GL253390  33.710  34.648   5.724
 4039POPC   C1A53391  33.912  34.333   6.095
 4039POPC   D2A53392  34.004  34.499   6.508
 4039POPC   C3A53393  34.029  34.238   6.883
 4039POPC   C4A53394  34.031  34.388   7.290
 4039POPC   C1B53395  33.733  34.834   6.144
 4039POPC   C2B53396  33.579  34.779   6.564
 4039POPC   C3B53397  33.713  34.668   6.955
 4039POPC   C4B53398  33.853  34.913   7.278
 4040POPC   NC353399   2.245  38.721   5.066
 4040POPC   PO453400   1.895  38.353   5.322
 4040POPC   GL153401   1.921  38.402   5.753
 4040POPC   GL253402   1.844  38.105   5.867
 4040POPC   C1A53403   1.915  38.522   6.187
 4040POPC   D2A53404   1.795  38.519   6.623
 4040POPC   C3A53405   2.057  38.590   6.980
 4040POPC   C4A53406   1.791  38.423   7.276
 4040POPC   C1B53407   2.180  38.070   6.171
 4040POPC   C2B53408   2.160  37.947   6.582
 4040POPC   C3B53409   1.974  38.098   6.924
 4040POPC   C4B53410   2.154  38.079   7.319
 4041POPC   NC353411  44.719  33.603   5.439
 4041POPC   PO453412  44.201  34.117   5.308
 4041POPC   GL153413  44.357  34.001   5.806
 4041POPC   GL253414  44.708  33.830   5.891
 4041POPC   C1A53415  44.356  33.850   6.243
 4041POPC   D2A53416  44.705  33.729   6.506
 4041POPC   C3A53417  44.608  33.876   6.908
 4041POPC   C4A53418  44.407  33.719   7.250
 4041POPC   C1B53419   0.092  33.662   6.113
 4041POPC   C2B53420   0.144  33.417   6.508
 4041POPC   C3B53421   0.076  33.637   6.895
 4041POPC   C4B53422  44.913  33.642   7.306
 4042POPC   NC353423  20.608  38.008   5.504
 4042POPC   PO453424  20.884  38.622   5.425
 4042POPC   GL153425  20.806  38.611   5.875
 4042POPC   GL253426  20.469  38.498   5.832
 4042POPC   C1A53427  20.614  38.742   6.263
 4042POPC   D2A53428  20.331  38.504   6.493
 4042POPC   C3A53429  20.390  38.460   6.935
 4042POPC   C4A53430  20.553  38.480   7.360
 4042POPC   C1B53431  20.621  38.205   6.172
 4042POPC   C2B53432  20.549  38.014   6.589
 4042POPC   C3B53433  20.741  38.095   6.991
 4042POPC   C4B53434  20.997  38.193   7.312
 4043POPC   NC353435  40.954  28.724   5.585
 4043POPC   PO453436  40.962  29.439   5.466
 4043POPC   GL153437  40.788  29.213   5.804
 4043POPC   GL253438  40.425  29.214   5.803
 4043POPC   C1A53439  40.855  29.047   6.221
 4043POPC   D2A53440  40.692  28.984   6.647
 4043POPC   C3A53441  40.962  29.190   6.952
 4043POPC   C4A53442  41.097  29.103   7.354
 4043POPC   C1B53443  40.349  29.107   6.264
 4043POPC   C2B53444  40.297  29.338   6.661
 4043POPC   C3B53445  40.469  29.229   7.060
 4043POPC   C4B53446  40.639  29.320   7.479
 4044POPC   NC353447   5.246  30.532   5.504
 4044POPC   PO453448   4.688  30.770   5.149
 4044POPC   GL153449   4.733  30.735   5.635
 4044POPC   GL253450   4.779  30.365   5.698
 4044POPC   C1A53451   4.849  30.848   6.115
 4044POPC   D2A53452   5.010  31.056   6.535
 4044POPC   C3A53453   5.137  30.870   6.945
 4044POPC   C4A53454   5.416  30.516   7.127
 4044POPC   C1B53455   5.017  30.357   6.110
 4044POPC   C2B53456   5.096  30.538   6.532
 4044POPC   C3B53457   4.950  30.405   6.948
 4044POPC   C4B53458   5.001  30.284   7.394
 4045POPC   NC353459   7.827  35.023   5.574
 4045POPC   PO453460   7.398  35.430   5.236
 4045POPC   GL153461   7.330  35.338   5.670
 4045POPC   GL253462   7.295  34.998   5.727
 4045POPC   C1A53463   7.410  35.440   6.129
 4045POPC   D2A53464   7.494  35.766   6.492
 4045POPC   C3A53465   7.585  35.674   6.964
 4045POPC   C4A53466   7.511  35.530   7.394
 4045POPC   C1B53467   7.308  34.901   6.202
 4045POPC   C2B53468   7.316  34.945   6.673
 4045POPC   C3B53469   7.295  35.238   7.030
 4045POPC   C4B53470   7.001  35.518   7.301
 4046POPC   NC353471  32.908  33.788   5.374
 4046POPC   PO453472  33.510  33.487   5.570
 4046POPC   GL153473  33.255  33.858   5.840
 4046POPC   GL253474  32.944  33.767   5.892
 4046POPC   C1A53475  33.063  34.063   6.266
 4046POPC   D2A53476  32.951  33.880   6.661
 4046POPC   C3A53477  33.060  34.072   7.035
 4046POPC   C4A53478  33.124  34.247   7.453
 4046POPC   C1B53479  33.180  33.580   6.260
 4046POPC   C2B53480  33.080  33.368   6.626
 4046POPC   C3B53481  32.928  33.481   7.022
 4046POPC   C4B53482  32.755  33.288   7.435
 4047POPC   NC353483  14.214  17.975   5.433
 4047POPC   PO453484  14.713  17.435   5.441
 4047POPC   GL153485  14.480  17.590   5.753
 4047POPC   GL253486  14.652  17.905   5.760
 4047POPC   C1A53487  14.347  17.435   6.161
 4047POPC   D2A53488  14.372  17.588   6.577
 4047POPC   C3A53489  14.327  17.382   6.963
 4047POPC   C4A53490  14.060  17.581   7.281
 4047POPC   C1B53491  14.437  17.933   6.160
 4047POPC   C2B53492  14.448  18.102   6.586
 4047POPC   C3B53493  14.399  17.916   6.982
 4047POPC   C4B53494  14.761  17.668   7.113
 4048POPC   NC353495  35.466  32.564   5.352
 4048POPC   PO453496  35.478  31.937   5.663
 4048POPC   GL153497  35.364  32.360   5.823
 4048POPC   GL253498  35.187  32.697   5.736
 4048POPC   C1A53499  35.523  32.478   6.208
 4048POPC   D2A53500  35.596  32.193   6.532
 4048POPC   C3A53501  35.603  32.251   6.955
 4048POPC   C4A53502  35.456  31.893   7.175
 4048POPC   C1B53503  35.086  32.722   6.149
 4048POPC   C2B53504  35.025  32.334   6.405
 4048POPC   C3B53505  35.109  32.281   6.828
 4048POPC   C4B53506  35.179  32.485   7.215
 4049POPC   NC353507  23.653  34.770   5.634
 4049POPC   PO453508  23.743  34.282   5.181
 4049POPC   GL153509  23.888  34.322   5.667
 4049POPC   GL253510  24.095  34.590   5.769
 4049POPC   C1A53511  23.726  34.414   6.147
 4049POPC   D2A53512  23.719  34.685   6.525
 4049POPC   C3A53513  23.705  34.518   6.922
 4049POPC   C4A53514  23.509  34.414   7.295
 4049POPC   C1B53515  24.033  34.829   6.141
 4049POPC   C2B53516  24.201  34.816   6.530
 4049POPC   C3B53517  23.999  34.926   6.920
 4049POPC   C4B53518  23.846  34.812   7.333
 4050POPC   NC353519  42.693  20.716   5.525
 4050POPC   PO453520  42.117  20.704   5.073
 4050POPC   GL153521  42.130  20.787   5.581
 4050POPC   GL253522  42.311  20.547   5.828
 4050POPC   C1A53523  42.009  20.830   6.079
 4050POPC   D2A53524  42.090  20.591   6.473
 4050POPC   C3A53525  42.065  20.752   6.914
 4050POPC   C4A53526  42.323  20.627   7.257
 4050POPC   C1B53527  42.561  20.366   6.182
 4050POPC   C2B53528  42.594  20.469   6.636
 4050POPC   C3B53529  42.619  20.226   7.010
 4050POPC   C4B53530  42.699  20.331   7.427
 4051POPC   NC353531  32.323  37.354   5.468
 4051POPC   PO453532  31.944  37.808   5.194
 4051POPC   GL153533  32.093  37.771   5.640
 4051POPC   GL253534  32.391  37.736   5.856
 4051POPC   C1A53535  31.943  37.661   6.085
 4051POPC   D2A53536  32.188  37.700   6.512
 4051POPC   C3A53537  32.068  37.466   6.856
 4051POPC   C4A53538  31.936  37.584   7.296
 4051POPC   C1B53539  32.333  37.352   6.188
 4051POPC   C2B53540  32.583  37.275   6.546
 4051POPC   C3B53541  32.566  37.573   6.866
 4051POPC   C4B53542  32.424  37.411   7.222
 4052POPC   NC353543  35.867  17.599   5.354
 4052POPC   PO453544  36.352  17.219   5.442
 4052POPC   GL153545  36.125  17.359   5.823
 4052POPC   GL253546  36.224  17.700   5.894
 4052POPC   C1A53547  36.235  17.304   6.290
 4052POPC   D2A53548  36.087  17.171   6.722
 4052POPC   C3A53549  36.281  17.326   7.099
 4052POPC   C4A53550  36.324  17.655   7.417
 4052POPC   C1B53551  36.202  17.812   6.352
 4052POPC   C2B53552  35.987  17.695   6.778
 4052POPC   C3B53553  35.869  17.803   7.233
 4052POPC   C4B53554  35.908  17.839   7.707
 4053POPC   NC353555   4.319  36.448   5.359
 4053POPC   PO453556   4.618  37.069   5.388
 4053POPC   GL153557   4.418  36.860   5.736
 4053POPC   GL253558   4.604  36.621   5.953
 4053POPC   C1A53559   4.302  36.962   6.189
 4053POPC   D2A53560   4.479  36.885   6.631
 4053POPC   C3A53561   4.249  36.895   7.031
 4053POPC   C4A53562   4.353  37.066   7.454
 4053POPC   C1B53563   4.368  36.483   6.326
 4053POPC   C2B53564   4.370  36.348   6.717
 4053POPC   C3B53565   4.606  36.519   7.038
 4053POPC   C4B53566   4.380  36.570   7.419
 4054POPC   NC353567  20.060  37.440   5.558
 4054POPC   PO453568  19.488  37.865   5.305
 4054POPC   GL153569  19.602  37.679   5.716
 4054POPC   GL253570  19.653  37.955   5.933
 4054POPC   C1A53571  19.585  37.525   6.177
 4054POPC   D2A53572  19.834  37.764   6.483
 4054POPC   C3A53573  19.918  37.646   6.900
 4054POPC   C4A53574  19.722  37.522   7.288
 4054POPC   C1B53575  19.419  38.040   6.307
 4054POPC   C2B53576  19.323  37.741   6.616
 4054POPC   C3B53577  19.374  37.780   7.047
 4054POPC   C4B53578  19.382  37.850   7.523
 4055POPC   NC353579  15.439  31.702   5.461
 4055POPC   PO453580  14.733  31.800   5.303
 4055POPC   GL153581  14.990  31.523   5.635
 4055POPC   GL253582  15.300  31.287   5.737
 4055POPC   C1A53583  15.140  31.644   6.086
 4055POPC   D2A53584  15.088  31.755   6.539
 4055POPC   C3A53585  15.180  31.504   6.913
 4055POPC   C4A53586  15.043  31.181   7.220
 4055POPC   C1B53587  15.551  31.333   6.135
 4055POPC   C2B53588  15.489  31.221   6.578
 4055POPC   C3B53589  15.585  31.201   7.033
 4055POPC   C4B53590  15.754  31.482   7.341
 4056POPC   NC353591  30.386   5.925   5.259
 4056POPC   PO453592  29.657   5.927   5.380
 4056POPC   GL153593  29.900   5.850   5.761
 4056POPC   GL253594  30.136   5.634   5.639
 4056POPC   C1A53595  30.097   5.924   6.171
 4056POPC   D2A53596  30.007   5.772   6.570
 4056POPC   C3A53597  30.006   6.033   6.899
 4056POPC   C4A53598  29.856   6.097   7.288
 4056POPC   C1B53599  30.353   5.515   6.016
 4056POPC   C2B53600  30.435   5.525   6.448
 4056POPC   C3B53601  30.280   5.444   6.862
 4056POPC   C4B53602  29.977   5.564   7.155
 4057POPC   NC353603  22.258  34.743   5.343
 4057POPC   PO453604  22.541  34.286   5.694
 4057POPC   GL153605  22.181  34.572   5.857
 4057POPC   GL253606  22.249  34.930   5.816
 4057POPC   C1A53607  21.846  34.528   6.199
 4057POPC   D2A53608  21.675  34.403   6.599
 4057POPC   C3A53609  21.979  34.582   6.887
 4057POPC   C4A53610  21.984  34.693   7.323
 4057POPC   C1B53611  22.430  35.029   6.236
 4057POPC   C2B53612  22.289  35.013   6.688
 4057POPC   C3B53613  22.434  35.057   7.138
 4057POPC   C4B53614  22.385  34.867   7.585
 4058POPC   NC353615  38.369  13.985   5.575
 4058POPC   PO453616  38.470  13.301   5.535
 4058POPC   GL153617  38.464  13.576   5.908
 4058POPC   GL253618  38.735  13.830   5.898
 4058POPC   C1A53619  38.202  13.676   6.297
 4058POPC   D2A53620  38.012  13.729   6.736
 4058POPC   C3A53621  38.249  13.652   7.085
 4058POPC   C4A53622  38.637  13.559   7.272
 4058POPC   C1B53623  38.577  14.047   6.265
 4058POPC   C2B53624  38.506  13.881   6.685
 4058POPC   C3B53625  38.608  14.053   7.064
 4058POPC   C4B53626  38.386  14.001   7.437
 4059POPC   NC353627  32.466   1.734   5.511
 4059POPC   PO453628  31.817   1.891   5.535
 4059POPC   GL153629  32.140   2.036   5.821
 4059POPC   GL253630  32.375   2.255   5.636
 4059POPC   C1A53631  32.139   1.913   6.267
 4059POPC   D2A53632  32.019   2.031   6.720
 4059POPC   C3A53633  32.215   1.796   7.075
 4059POPC   C4A53634  32.196   1.846   7.546
 4059POPC   C1B53635  32.483   2.346   6.056
 4059POPC   C2B53636  32.492   2.211   6.470
 4059POPC   C3B53637  32.500   2.274   6.881
 4059POPC   C4B53638  32.503   2.163   7.282
 4060POPC   NC353639   4.320  18.639   5.199
 4060POPC   PO453640   4.983  18.737   5.280
 4060POPC   GL153641   4.650  18.602   5.640
 4060POPC   GL253642   4.254  18.513   5.729
 4060POPC   C1A53643   4.627  18.307   6.037
 4060POPC   D2A53644   4.499  18.148   6.475
 4060POPC   C3A53645   4.731  18.342   6.850
 4060POPC   C4A53646   4.638  18.427   7.306
 4060POPC   C1B53647   4.164  18.509   6.218
 4060POPC   C2B53648   4.207  18.497   6.717
 4060POPC   C3B53649   4.273  18.150   7.055
 4060POPC   C4B53650   3.995  17.867   7.336
 4061POPC   NC353651  10.235  15.784   5.471
 4061POPC   PO453652  10.739  16.249   5.331
 4061POPC   GL153653  10.513  16.149   5.730
 4061POPC   GL253654  10.672  15.821   5.817
 4061POPC   C1A53655  10.354  16.023   6.175
 4061POPC   D2A53656  10.544  15.879   6.576
 4061POPC   C3A53657  10.360  15.933   6.982
 4061POPC   C4A53658  10.505  16.172   7.337
 4061POPC   C1B53659  10.580  15.545   6.178
 4061POPC   C2B53660  10.458  15.373   6.600
 4061POPC   C3B53661  10.780  15.483   6.896
 4061POPC   C4B53662  10.771  15.753   7.240
 4062POPC   NC353663  21.307  24.195   5.444
 4062POPC   PO453664  21.146  23.582   5.492
 4062POPC   GL153665  21.259  23.678   5.908
 4062POPC   GL253666  21.511  23.442   5.946
 4062POPC   C1A53667  21.298  23.732   6.367
 4062POPC   D2A53668  21.006  23.682   6.719
 4062POPC   C3A53669  21.049  23.884   7.172
 4062POPC   C4A53670  20.970  24.004   7.618
 4062POPC   C1B53671  21.624  23.301   6.325
 4062POPC   C2B53672  21.654  23.196   6.742
 4062POPC   C3B53673  21.545  23.268   7.173
 4062POPC   C4B53674  21.741  23.537   7.497
 4063POPC   NC353675   7.953  29.213   5.401
 4063POPC   PO453676   8.380  29.667   5.258
 4063POPC   GL153677   8.387  29.339   5.671
 4063POPC   GL253678   8.071  29.274   5.911
 4063POPC   C1A53679   8.477  29.024   6.064
 4063POPC   D2A53680   8.430  28.936   6.504
 4063POPC   C3A53681   8.628  29.231   6.775
 4063POPC   C4A53682   8.551  29.468   7.142
 4063POPC   C1B53683   7.940  28.992   6.287
 4063POPC   C2B53684   7.955  28.935   6.769
 4063POPC   C3B53685   7.890  28.926   7.214
 4063POPC   C4B53686   7.905  28.691   7.615
 4064POPC   NC353687  23.354  16.817   5.122
 4064POPC   PO453688  23.824  16.467   5.424
 4064POPC   GL153689  23.688  16.568   5.819
 4064POPC   GL253690  23.527  16.900   5.764
 4064POPC   C1A53691  23.807  16.589   6.271
 4064POPC   D2A53692  23.638  16.842   6.612
 4064POPC   C3A53693  23.774  16.823   7.056
 4064POPC   C4A53694  23.775  17.196   7.252
 4064POPC   C1B53695  23.320  16.755   6.172
 4064POPC   C2B53696  23.277  16.489   6.541
 4064POPC   C3B53697  23.512  16.418   6.886
 4064POPC   C4B53698  23.428  16.438   7.283
 4065POPC   NC353699  12.273  19.517   5.574
 4065POPC   PO453700  11.940  19.992   5.142
 4065POPC   GL153701  11.969  20.006   5.608
 4065POPC   GL253702  11.849  19.703   5.768
 4065POPC   C1A53703  12.124  20.021   6.074
 4065POPC   D2A53704  12.188  19.859   6.510
 4065POPC   C3A53705  12.214  20.021   6.945
 4065POPC   C4A53706  12.069  19.905   7.391
 4065POPC   C1B53707  11.966  19.534   6.165
 4065POPC   C2B53708  12.012  19.367   6.539
 4065POPC   C3B53709  12.083  19.533   6.904
 4065POPC   C4B53710  12.005  19.397   7.250
 4066POPC   NC353711  43.938  40.578   5.214
 4066POPC   PO453712  44.404  40.925   5.587
 4066POPC   GL153713  44.726  40.745   5.804
 4066POPC   GL253714  44.509  40.538   6.043
 4066POPC   C1A53715  44.979  40.688   6.157
 4066POPC   D2A53716  44.778  40.611   6.566
 4066POPC   C3A53717  44.787  40.902   6.885
 4066POPC   C4A53718  44.874  41.247   7.144
 4066POPC   C1B53719  44.479  40.873   6.255
 4066POPC   C2B53720  44.306  40.836   6.641
 4066POPC   C3B53721  44.360  40.614   7.017
 4066POPC   C4B53722  44.431  40.958   7.280
 4067POPC   NC353723  44.548  23.389   5.477
 4067POPC   PO453724  44.629  24.033   5.470
 4067POPC   GL153725  44.796  23.743   5.798
 4067POPC   GL253726  44.477  23.656   5.893
 4067POPC   C1A53727  44.842  23.582   6.234
 4067POPC   D2A53728  44.942  23.812   6.620
 4067POPC   C3A53729  44.820  23.605   6.986
 4067POPC   C4A53730  44.455  23.320   7.044
 4067POPC   C1B53731  44.547  24.015   6.183
 4067POPC   C2B53732  44.445  24.138   6.605
 4067POPC   C3B53733  44.594  24.049   7.004
 4067POPC   C4B53734  44.474  23.745   7.335
 4068POPC   NC353735  38.422   7.096   5.626
 4068POPC   PO453736  38.627   6.480   5.379
 4068POPC   GL153737  38.320   6.579   5.699
 4068POPC   GL253738  38.595   6.671   5.866
 4068POPC   C1A53739  38.236   6.629   6.182
 4068POPC   D2A53740  38.229   6.334   6.511
 4068POPC   C3A53741  38.222   6.453   6.937
 4068POPC   C4A53742  38.310   6.231   7.293
 4068POPC   C1B53743  38.759   6.659   6.279
 4068POPC   C2B53744  38.611   6.696   6.688
 4068POPC   C3B53745  38.534   6.799   7.130
 4068POPC   C4B53746  38.445   7.063   7.477
 4069POPC   NC353747   3.117  19.434   5.089
 4069POPC   PO453748   3.669  19.193   5.351
 4069POPC   GL153749   3.459  19.231   5.782
 4069POPC   GL253750   3.448  18.925   5.926
 4069POPC   C1A53751   3.423  19.282   6.276
 4069POPC   D2A53752   3.591  19.114   6.650
 4069POPC   C3A53753   3.506  19.374   6.984
 4069POPC   C4A53754   3.661  19.273   7.374
 4069POPC   C1B53755   3.743  18.820   6.230
 4069POPC   C2B53756   3.706  18.522   6.531
 4069POPC   C3B53757   3.353  18.636   6.743
 4069POPC   C4B53758   3.375  18.895   7.119
 4070POPC   NC353759  35.231  15.119   5.334
 4070POPC   PO453760  35.330  15.673   5.030
 4070POPC   GL153761  35.459  15.521   5.547
 4070POPC   GL253762  35.637  15.753   5.795
 4070POPC   C1A53763  35.374  15.252   5.998
 4070POPC   D2A53764  35.528  15.050   6.412
 4070POPC   C3A53765  35.221  14.954   6.773
 4070POPC   C4A53766  35.170  14.953   7.246
 4070POPC   C1B53767  35.684  15.593   6.209
 4070POPC   C2B53768  35.505  15.524   6.617
 4070POPC   C3B53769  35.495  15.315   7.024
 4070POPC   C4B53770  35.573  15.214   7.466
 4071POPC   NC353771  34.340  34.941   5.559
 4071POPC   PO453772  34.589  34.382   5.370
 4071POPC   GL153773  34.631  34.555   5.787
 4071POPC   GL253774  34.928  34.744   5.879
 4071POPC   C1A53775  34.502  34.607   6.227
 4071POPC   D2A53776  34.695  34.589   6.657
 4071POPC   C3A53777  34.519  34.402   7.029
 4071POPC   C4A53778  34.498  34.395   7.506
 4071POPC   C1B53779  34.988  34.836   6.314
 4071POPC   C2B53780  35.045  34.960   6.745
 4071POPC   C3B53781  34.842  34.815   7.110
 4071POPC   C4B53782  34.780  34.816   7.555
 4072POPC   NC353783  29.498  33.187   5.577
 4072POPC   PO453784  30.195  33.058   5.371
 4072POPC   GL153785  29.984  33.111   5.734
 4072POPC   GL253786  29.793  32.772   5.663
 4072POPC   C1A53787  30.107  33.232   6.180
 4072POPC   D2A53788  30.255  33.290   6.626
 4072POPC   C3A53789  29.992  33.164   6.969
 4072POPC   C4A53790  29.713  32.848   6.950
 4072POPC   C1B53791  30.087  32.685   5.993
 4072POPC   C2B53792  30.079  32.773   6.437
 4072POPC   C3B53793  30.232  32.728   6.837
 4072POPC   C4B53794  30.223  32.746   7.251
 4073POPC   NC353795  27.491  32.980   5.100
 4073POPC   PO453796  27.873  33.423   5.469
 4073POPC   GL153797  27.650  33.158   5.788
 4073POPC   GL253798  27.439  32.838   5.749
 4073POPC   C1A53799  27.688  33.251   6.237
 4073POPC   D2A53800  27.768  33.113   6.681
 4073POPC   C3A53801  27.660  33.340   7.094
 4073POPC   C4A53802  27.502  33.296   7.548
 4073POPC   C1B53803  27.390  32.831   6.220
 4073POPC   C2B53804  27.351  32.771   6.697
 4073POPC   C3B53805  27.627  32.815   7.080
 4073POPC   C4B53806  28.007  32.559   7.209
 4074POPC   NC353807  43.222   0.157   5.429
 4074POPC   PO453808  42.917  44.535   5.327
 4074POPC   GL153809  43.229  44.664   5.700
 4074POPC   GL253810  43.464  44.382   5.850
 4074POPC   C1A53811  43.356  44.958   6.075
 4074POPC   D2A53812  43.547  44.863   6.498
 4074POPC   C3A53813  43.358  44.996   6.880
 4074POPC   C4A53814  43.471  44.854   7.263
 4074POPC   C1B53815  43.244  44.488   6.234
 4074POPC   C2B53816  43.033  44.789   6.524
 4074POPC   C3B53817  43.006  44.611   6.940
 4074POPC   C4B53818  43.355  44.373   7.136
 4075POPC   NC353819   8.130  10.688   5.329
 4075POPC   PO453820   8.654  11.160   5.534
 4075POPC   GL153821   8.277  10.880   5.786
 4075POPC   GL253822   8.216  10.484   5.779
 4075POPC   C1A53823   7.987  10.733   6.161
 4075POPC   D2A53824   7.941  10.762   6.619
 4075POPC   C3A53825   8.263  10.664   6.953
 4075POPC   C4A53826   8.202  10.537   7.393
 4075POPC   C1B53827   8.142  10.242   6.178
 4075POPC   C2B53828   7.993  10.218   6.619
 4075POPC   C3B53829   8.167  10.160   7.027
 4075POPC   C4B53830   8.581  10.261   7.186
 4076POPC   NC353831   9.142  38.246   5.522
 4076POPC   PO453832   8.965  38.896   5.418
 4076POPC   GL153833   9.082  38.685   5.800
 4076POPC   GL253834   8.771  38.481   5.811
 4076POPC   C1A53835   9.202  38.627   6.234
 4076POPC   D2A53836   9.250  38.322   6.584
 4076POPC   C3A53837   9.079  38.457   6.990
 4076POPC   C4A53838   9.042  38.782   7.320
 4076POPC   C1B53839   8.866  38.238   6.190
 4076POPC   C2B53840   8.889  37.976   6.578
 4076POPC   C3B53841   8.701  38.069   6.985
 4076POPC   C4B53842   8.678  38.400   7.309
 4077POPC   NC353843  13.112  26.159   5.129
 4077POPC   PO453844  12.510  25.853   5.037
 4077POPC   GL153845  12.595  26.029   5.524
 4077POPC   GL253846  12.967  26.142   5.637
 4077POPC   C1A53847  12.635  25.984   6.030
 4077POPC   D2A53848  12.900  25.960   6.430
 4077POPC   C3A53849  12.775  26.046   6.878
 4077POPC   C4A53850  12.584  25.984   7.304
 4077POPC   C1B53851  13.097  26.311   6.073
 4077POPC   C2B53852  13.297  26.290   6.498
 4077POPC   C3B53853  13.134  26.417   6.908
 4077POPC   C4B53854  13.024  26.221   7.303
 4078POPC   NC353855  42.446  39.717   5.341
 4078POPC   PO453856  41.843  40.032   5.443
 4078POPC   GL153857  42.014  39.760   5.742
 4078POPC   GL253858  42.317  39.939   5.783
 4078POPC   C1A53859  42.111  39.653   6.176
 4078POPC   D2A53860  42.183  39.846   6.588
 4078POPC   C3A53861  42.453  39.759   6.938
 4078POPC   C4A53862  42.098  39.744   7.151
 4078POPC   C1B53863  42.289  40.143   6.159
 4078POPC   C2B53864  42.400  40.285   6.554
 4078POPC   C3B53865  42.211  40.254   6.931
 4078POPC   C4B53866  42.317  40.181   7.319
 4079POPC   NC353867   2.329  25.036   5.497
 4079POPC   PO453868   1.765  25.493   5.388
 4079POPC   GL153869   1.947  25.293   5.741
 4079POPC   GL253870   2.256  25.471   5.798
 4079POPC   C1A53871   1.975  25.265   6.207
 4079POPC   D2A53872   1.803  25.408   6.603
 4079POPC   C3A53873   1.986  25.182   6.931
 4079POPC   C4A53874   1.794  25.039   7.263
 4079POPC   C1B53875   2.475  25.260   6.144
 4079POPC   C2B53876   2.329  25.327   6.583
 4079POPC   C3B53877   2.502  25.442   6.989
 4079POPC   C4B53878   2.239  25.347   7.345
 4080POPC   NC353879  32.214   2.696   5.347
 4080POPC   PO453880  32.659   3.075   5.656
 4080POPC   GL153881  32.330   2.808   5.852
 4080POPC   GL253882  32.027   2.571   5.834
 4080POPC   C1A53883  32.315   2.802   6.283
 4080POPC   D2A53884  32.601   2.687   6.593
 4080POPC   C3A53885  32.466   2.785   6.981
 4080POPC   C4A53886  32.602   2.913   7.340
 4080POPC   C1B53887  31.996   2.407   6.263
 4080POPC   C2B53888  32.112   2.532   6.675
 4080POPC   C3B53889  32.101   2.465   7.106
 4080POPC   C4B53890  32.281   2.572   7.490
 4081POPC   NC353891   6.145   8.396   5.172
 4081POPC   PO453892   5.738   7.952   5.420
 4081POPC   GL153893   5.718   8.099   5.823
 4081POPC   GL253894   5.958   8.350   5.774
 4081POPC   C1A53895   5.836   8.160   6.260
 4081POPC   D2A53896   6.049   8.022   6.613
 4081POPC   C3A53897   5.806   8.076   6.962
 4081POPC   C4A53898   5.579   8.163   7.294
 4081POPC   C1B53899   5.836   8.643   6.098
 4081POPC   C2B53900   5.807   8.630   6.541
 4081POPC   C3B53901   6.085   8.489   6.860
 4081POPC   C4B53902   6.005   8.453   7.269
 4082POPC   NC353903  38.263  16.972   5.534
 4082POPC   PO453904  38.704  16.536   5.162
 4082POPC   GL153905  38.680  16.679   5.582
 4082POPC   GL253906  38.408  16.480   5.700
 4082POPC   C1A53907  38.663  16.910   6.013
 4082POPC   D2A53908  38.437  16.973   6.408
 4082POPC   C3A53909  38.698  16.952   6.756
 4082POPC   C4A53910  38.730  17.049   7.174
 4082POPC   C1B53911  38.303  16.538   6.168
 4082POPC   C2B53912  38.369  16.505   6.648
 4082POPC   C3B53913  38.306  16.740   7.051
 4082POPC   C4B53914  38.419  16.701   7.513
 4083POPC   NC353915  10.296  29.404   5.402
 4083POPC   PO453916   9.992  28.807   5.482
 4083POPC   GL153917  10.441  28.883   5.694
 4083POPC   GL253918  10.563  29.245   5.814
 4083POPC   C1A53919  10.618  28.855   6.111
 4083POPC   D2A53920  10.434  29.122   6.412
 4083POPC   C3A53921  10.544  29.141   6.843
 4083POPC   C4A53922  10.323  28.989   7.231
 4083POPC   C1B53923  10.867  29.305   6.199
 4083POPC   C2B53924  11.117  29.435   6.566
 4083POPC   C3B53925  10.944  29.550   6.994
 4083POPC   C4B53926  10.559  29.435   7.256
 4084POPC   NC353927   6.512  22.477   5.397
 4084POPC   PO453928   6.542  21.789   5.289
 4084POPC   GL153929   6.455  22.043   5.650
 4084POPC   GL253930   6.798  22.135   5.707
 4084POPC   C1A53931   6.406  22.289   6.059
 4084POPC   D2A53932   6.428  22.221   6.531
 4084POPC   C3A53933   6.327  22.523   6.866
 4084POPC   C4A53934   6.288  22.370   7.296
 4084POPC   C1B53935   6.895  22.178   6.150
 4084POPC   C2B53936   6.907  22.405   6.528
 4084POPC   C3B53937   6.765  22.254   6.946
 4084POPC   C4B53938   6.901  21.916   7.192
 4085POPC   NC353939  34.489  17.851   5.401
 4085POPC   PO453940  34.384  17.213   5.497
 4085POPC   GL153941  34.500  17.537   5.817
 4085POPC   GL253942  34.847  17.673   5.790
 4085POPC   C1A53943  34.619  17.460   6.253
 4085POPC   D2A53944  34.791  17.231   6.612
 4085POPC   C3A53945  34.693  17.339   7.080
 4085POPC   C4A53946  34.435  17.647   7.325
 4085POPC   C1B53947  34.827  17.919   6.197
 4085POPC   C2B53948  34.629  17.836   6.609
 4085POPC   C3B53949  34.844  17.825   7.003
 4085POPC   C4B53950  34.959  17.744   7.406
 4086POPC   NC353951  38.538  38.923   5.594
 4086POPC   PO453952  38.242  38.344   5.479
 4086POPC   GL153953  38.359  38.176   5.864
 4086POPC   GL253954  38.588  38.483   5.880
 4086POPC   C1A53955  38.411  38.244   6.291
 4086POPC   D2A53956  38.464  38.595   6.522
 4086POPC   C3A53957  38.331  38.384   6.867
 4086POPC   C4A53958  38.354  38.532   7.268
 4086POPC   C1B53959  38.888  38.428   6.211
 4086POPC   C2B53960  38.863  38.309   6.636
 4086POPC   C3B53961  38.784  38.309   7.062
 4086POPC   C4B53962  38.860  38.649   7.338
 4087POPC   NC353963  36.875   0.519   5.331
 4087POPC   PO453964  36.404   0.217   5.632
 4087POPC   GL153965  36.673   0.552   5.790
 4087POPC   GL253966  36.883   0.309   5.912
 4087POPC   C1A53967  36.708   0.687   6.234
 4087POPC   D2A53968  36.906   0.404   6.529
 4087POPC   C3A53969  36.791   0.414   6.966
 4087POPC   C4A53970  36.931   0.596   7.349
 4087POPC   C1B53971  37.243   0.172   6.169
 4087POPC   C2B53972  37.421   0.253   6.555
 4087POPC   C3B53973  37.281   0.232   6.980
 4087POPC   C4B53974  37.117   0.114   7.394
 4088POPC   NC353975  30.623  32.916   5.519
 4088POPC   PO453976  31.145  33.326   5.353
 4088POPC   GL153977  30.823  33.302   5.797
 4088POPC   GL253978  30.702  32.942   6.001
 4088POPC   C1A53979  30.684  33.329   6.300
 4088POPC   D2A53980  30.622  32.940   6.597
 4088POPC   C3A53981  30.518  33.122   7.034
 4088POPC   C4A53982  30.289  33.470   7.259
 4088POPC   C1B53983  30.991  32.640   6.195
 4088POPC   C2B53984  31.083  32.589   6.636
 4088POPC   C3B53985  31.112  32.796   7.023
 4088POPC   C4B53986  30.807  32.869   7.366
 4089POPC   NC353987  44.895  28.737   5.356
 4089POPC   PO453988  44.253  28.728   5.614
 4089POPC   GL153989  44.537  29.045   5.826
 4089POPC   GL253990  44.854  29.117   5.704
 4089POPC   C1A53991  44.681  29.259   6.230
 4089POPC   D2A53992  44.758  29.518   6.614
 4089POPC   C3A53993  44.776  29.393   7.034
 4089POPC   C4A53994  44.760  29.090   7.371
 4089POPC   C1B53995  44.964  28.870   6.056
 4089POPC   C2B53996  44.932  28.813   6.512
 4089POPC   C3B53997   0.063  28.985   6.924
 4089POPC   C4B53998   0.188  28.801   7.314
 4090POPC   NC353999  42.575  28.516   5.371
 4090POPC   PO454000  41.967  28.750   5.344
 4090POPC   GL154001  42.143  28.452   5.694
 4090POPC   GL254002  42.466  28.575   5.881
 4090POPC   C1A54003  42.047  28.442   6.145
 4090POPC   D2A54004  41.876  28.352   6.557
 4090POPC   C3A54005  42.199  28.352   6.859
 4090POPC   C4A54006  42.233  28.561   7.249
 4090POPC   C1B54007  42.449  28.704   6.363
 4090POPC   C2B54008  42.507  28.760   6.839
 4090POPC   C3B54009  42.738  28.481   7.108
 4090POPC   C4B54010  42.881  28.040   7.041
 4091POPC   NC354011  13.934  10.714   5.464
 4091POPC   PO454012  13.806  10.139   5.084
 4091POPC   GL154013  13.763  10.251   5.629
 4091POPC   GL254014  13.567  10.543   5.797
 4091POPC   C1A54015  13.930  10.370   6.118
 4091POPC   D2A54016  14.012  10.261   6.581
 4091POPC   C3A54017  13.717  10.369   6.936
 4091POPC   C4A54018  13.764  10.476   7.375
 4091POPC   C1B54019  13.525  10.689   6.225
 4091POPC   C2B54020  13.729  10.793   6.621
 4091POPC   C3B54021  13.704  10.902   7.056
 4091POPC   C4B54022  13.311  10.766   7.218
 4092POPC   NC354023  12.580   1.514   5.631
 4092POPC   PO454024  12.992   1.058   5.282
 4092POPC   GL154025  12.958   1.014   5.766
 4092POPC   GL254026  13.293   1.068   5.906
 4092POPC   C1A54027  12.715   1.035   6.184
 4092POPC   D2A54028  12.558   0.989   6.614
 4092POPC   C3A54029  12.815   1.074   6.949
 4092POPC   C4A54030  13.000   1.176   7.309
 4092POPC   C1B54031  13.192   1.166   6.319
 4092POPC   C2B54032  12.883   1.413   6.554
 4092POPC   C3B54033  12.916   1.569   6.978
 4092POPC   C4B54034  13.005   1.912   7.208
 4093POPC   NC354035  23.267  20.570   5.524
 4093POPC   PO454036  23.884  20.396   5.425
 4093POPC   GL154037  23.817  20.715   5.722
 4093POPC   GL254038  23.558  20.562   5.947
 4093POPC   C1A54039  24.009  20.849   6.117
 4093POPC   D2A54040  23.859  20.668   6.504
 4093POPC   C3A54041  23.914  20.727   6.926
 4093POPC   C4A54042  23.571  20.509   7.112
 4093POPC   C1B54043  23.900  20.329   6.104
 4093POPC   C2B54044  23.927  20.162   6.490
 4093POPC   C3B54045  23.997  20.205   6.887
 4093POPC   C4B54046  24.039  20.364   7.270
 4094POPC   NC354047  27.338  33.495   5.498
 4094POPC   PO454048  27.655  34.129   5.397
 4094POPC   GL154049  27.400  33.969   5.758
 4094POPC   GL254050  27.730  33.957   5.889
 4094POPC   C1A54051  27.378  33.767   6.207
 4094POPC   D2A54052  27.609  33.612   6.595
 4094POPC   C3A54053  27.316  33.677   6.926
 4094POPC   C4A54054  27.485  33.758   7.361
 4094POPC   C1B54055  27.921  33.929   6.288
 4094POPC   C2B54056  27.986  33.960   6.724
 4094POPC   C3B54057  27.959  33.783   7.116
 4094POPC   C4B54058  27.905  34.014   7.492
 4095POPC   NC354059   1.562  43.120   5.325
 4095POPC   PO454060   0.966  42.782   5.571
 4095POPC   GL154061   1.250  42.837   5.959
 4095POPC   GL254062   1.524  42.947   5.793
 4095POPC   C1A54063   1.316  42.947   6.424
 4095POPC   D2A54064   1.101  43.266   6.707
 4095POPC   C3A54065   1.105  43.395   7.150
 4095POPC   C4A54066   1.018  43.613   7.585
 4095POPC   C1B54067   1.612  43.269   6.093
 4095POPC   C2B54068   1.656  43.351   6.537
 4095POPC   C3B54069   1.598  43.039   6.860
 4095POPC   C4B54070   1.312  42.886   7.167
 4096POPC   NC354071  17.050   4.362   5.532
 4096POPC   PO454072  16.536   4.714   5.309
 4096POPC   GL154073  16.619   4.524   5.733
 4096POPC   GL254074  16.608   4.147   5.776
 4096POPC   C1A54075  16.720   4.472   6.184
 4096POPC   D2A54076  16.487   4.521   6.572
 4096POPC   C3A54077  16.728   4.496   6.950
 4096POPC   C4A54078  16.698   4.356   7.350
 4096POPC   C1B54079  16.819   3.968   6.151
 4096POPC   C2B54080  16.819   4.074   6.610
 4096POPC   C3B54081  16.738   3.930   7.056
 4096POPC   C4B54082  16.933   3.920   7.481
 4097POPC   NC354083  21.647  33.088   5.442
 4097POPC   PO454084  21.154  32.669   5.375
 4097POPC   GL154085  21.390  32.758   5.747
 4097POPC   GL254086  21.088  32.785   5.948
 4097POPC   C1A54087  21.620  32.707   6.148
 4097POPC   D2A54088  21.697  33.006   6.519
 4097POPC   C3A54089  21.414  32.950   6.904
 4097POPC   C4A54090  21.412  32.800   7.353
 4097POPC   C1B54091  21.204  32.916   6.379
 4097POPC   C2B54092  21.146  33.306   6.629
 4097POPC   C3B54093  21.024  33.288   7.057
 4097POPC   C4B54094  20.918  32.879   7.212
 4098POPC   NC354095   6.247  38.337   5.352
 4098POPC   PO454096   5.587  38.630   5.445
 4098POPC   GL154097   5.833  38.370   5.745
 4098POPC   GL254098   6.161  38.578   5.797
 4098POPC   C1A54099   5.637  38.218   6.156
 4098POPC   D2A54100   5.529  38.495   6.522
 4098POPC   C3A54101   5.725  38.489   6.950
 4098POPC   C4A54102   5.787  38.109   7.181
 4098POPC   C1B54103   5.945  38.624   6.196
 4098POPC   C2B54104   5.900  38.838   6.575
 4098POPC   C3B54105   6.166  38.779   6.918
 4098POPC   C4B54106   6.089  38.778   7.357
 4099POPC   NC354107  41.206  20.126   5.373
 4099POPC   PO454108  40.695  19.815   5.574
 4099POPC   GL154109  40.631  19.814   5.967
 4099POPC   GL254110  40.586  20.154   5.932
 4099POPC   C1A54111  40.897  19.805   6.330
 4099POPC   D2A54112  41.259  19.950   6.591
 4099POPC   C3A54113  41.102  19.911   7.009
 4099POPC   C4A54114  40.893  19.526   7.188
 4099POPC   C1B54115  40.352  20.109   6.294
 4099POPC   C2B54116  40.353  20.107   6.725
 4099POPC   C3B54117  40.568  19.957   7.071
 4099POPC   C4B54118  40.828  20.223   7.301
 4100POPC   NC354119  10.162   3.460   5.490
 4100POPC   PO454120  10.820   3.476   5.295
 4100POPC   GL154121  10.745   3.533   5.724
 4100POPC   GL254122  10.446   3.716   5.831
 4100POPC   C1A54123  10.714   3.463   6.161
 4100POPC   D2A54124  10.571   3.501   6.562
 4100POPC   C3A54125  10.690   3.263   6.893
 4100POPC   C4A54126  10.579   3.266   7.320
 4100POPC   C1B54127  10.384   3.910   6.288
 4100POPC   C2B54128  10.363   3.913   6.764
 4100POPC   C3B54129  10.592   3.742   7.136
 4100POPC   C4B54130  10.535   3.818   7.628
 4101POPC   NC354131   2.137  33.930   5.217
 4101POPC   PO454132   1.782  33.487   5.567
 4101POPC   GL154133   2.148  33.718   5.729
 4101POPC   GL254134   2.072  34.048   5.769
 4101POPC   C1A54135   2.262  33.762   6.181
 4101POPC   D2A54136   2.078  33.603   6.569
 4101POPC   C3A54137   2.120  33.639   7.043
 4101POPC   C4A54138   1.887  33.555   7.469
 4101POPC   C1B54139   2.260  34.256   6.176
 4101POPC   C2B54140   2.283  34.083   6.618
 4101POPC   C3B54141   2.272  34.143   7.065
 4101POPC   C4B54142   1.902  34.045   7.251
 4102POPC   NC354143   3.124  16.560   5.387
 4102POPC   PO454144   2.619  16.922   5.545
 4102POPC   GL154145   2.871  16.907   5.907
 4102POPC   GL254146   2.919  16.569   5.851
 4102POPC   C1A54147   3.086  16.758   6.288
 4102POPC   D2A54148   2.907  16.455   6.593
 4102POPC   C3A54149   2.858  16.617   7.009
 4102POPC   C4A54150   2.560  16.903   7.190
 4102POPC   C1B54151   2.605  16.493   6.157
 4102POPC   C2B54152   2.401  16.317   6.533
 4102POPC   C3B54153   2.367  16.485   6.919
 4102POPC   C4B54154   2.444  16.322   7.319
 4103POPC   NC354155   0.553  18.815   5.270
 4103POPC   PO454156   0.187  19.344   5.261
 4103POPC   GL154157   0.317  19.142   5.644
 4103POPC   GL254158   0.684  19.158   5.726
 4103POPC   C1A54159   0.275  19.219   6.101
 4103POPC   D2A54160   0.390  19.372   6.509
 4103POPC   C3A54161   0.163  19.248   6.882
 4103POPC   C4A54162   0.187  19.366   7.320
 4103POPC   C1B54163   0.752  19.075   6.209
 4103POPC   C2B54164   0.641  18.952   6.687
 4103POPC   C3B54165   0.871  18.853   7.117
 4103POPC   C4B54166   1.024  19.151   7.465
 4104POPC   NC354167   3.347   5.850   5.106
 4104POPC   PO454168   3.814   5.618   5.510
 4104POPC   GL154169   3.461   5.750   5.726
 4104POPC   GL254170   3.584   5.550   6.008
 4104POPC   C1A54171   3.354   6.008   6.075
 4104POPC   D2A54172   3.301   5.828   6.464
 4104POPC   C3A54173   3.345   5.976   6.899
 4104POPC   C4A54174   3.231   5.663   7.252
 4104POPC   C1B54175   3.845   5.921   6.104
 4104POPC   C2B54176   3.742   6.079   6.486
 4104POPC   C3B54177   3.882   5.903   6.861
 4104POPC   C4B54178   3.710   5.931   7.254
 4105POPC   NC354179  33.222   0.007   5.590
 4105POPC   PO454180  33.018   0.633   5.372
 4105POPC   GL154181  33.095   0.459   5.792
 4105POPC   GL254182  32.820   0.234   5.830
 4105POPC   C1A54183  33.304   0.327   6.193
 4105POPC   D2A54184  33.079   0.387   6.565
 4105POPC   C3A54185  33.223   0.328   7.011
 4105POPC   C4A54186  33.454   0.633   7.280
 4105POPC   C1B54187  32.626   0.430   6.178
 4105POPC   C2B54188  32.456   0.426   6.586
 4105POPC   C3B54189  32.731   0.457   6.928
 4105POPC   C4B54190  32.770   0.133   7.165
 4106POPC   NC354191  39.911  11.833   5.420
 4106POPC   PO454192  39.818  12.401   5.225
 4106POPC   GL154193  39.810  12.223   5.733
 4106POPC   GL254194  40.094  12.008   5.866
 4106POPC   C1A54195  39.658  12.195   6.212
 4106POPC   D2A54196  39.723  11.979   6.680
 4106POPC   C3A54197  39.836  11.839   7.145
 4106POPC   C4A54198  39.909  11.876   7.642
 4106POPC   C1B54199  40.338  11.686   6.115
 4106POPC   C2B54200  40.280  11.610   6.563
 4106POPC   C3B54201  40.274  11.931   6.881
 4106POPC   C4B54202  40.575  12.252   7.054
 4107POPC   NC354203  13.970  13.976   5.410
 4107POPC   PO454204  13.895  14.693   5.427
 4107POPC   GL154205  13.669  14.569   5.826
 4107POPC   GL254206  13.624  14.223   5.766
 4107POPC   C1A54207  13.722  14.367   6.245
 4107POPC   D2A54208  13.545  14.460   6.612
 4107POPC   C3A54209  13.736  14.519   6.990
 4107POPC   C4A54210  13.534  14.569   7.359
 4107POPC   C1B54211  13.877  13.930   6.029
 4107POPC   C2B54212  13.819  13.899   6.414
 4107POPC   C3B54213  13.771  14.047   6.802
 4107POPC   C4B54214  13.531  14.076   7.192
 4108POPC   NC354215   1.783  29.892   5.212
 4108POPC   PO454216   2.406  30.150   5.298
 4108POPC   GL154217   2.289  29.872   5.621
 4108POPC   GL254218   1.932  29.785   5.710
 4108POPC   C1A54219   2.350  29.872   6.071
 4108POPC   D2A54220   2.390  29.697   6.491
 4108POPC   C3A54221   2.199  29.842   6.848
 4108POPC   C4A54222   2.243  29.747   7.268
 4108POPC   C1B54223   1.734  29.545   6.077
 4108POPC   C2B54224   1.549  29.487   6.503
 4108POPC   C3B54225   1.738  29.556   6.918
 4108POPC   C4B54226   1.783  29.955   7.156
 4109POPC   NC354227  26.708  25.130   5.327
 4109POPC   PO454228  27.214  25.356   5.313
 4109POPC   GL154229  27.070  25.229   5.751
 4109POPC   GL254230  26.744  25.027   5.856
 4109POPC   C1A54231  26.980  25.324   6.209
 4109POPC   D2A54232  26.976  25.141   6.638
 4109POPC   C3A54233  26.854  25.369   7.009
 4109POPC   C4A54234  26.927  25.479   7.414
 4109POPC   C1B54235  26.582  25.001   6.336
 4109POPC   C2B54236  26.500  25.040   6.833
 4109POPC   C3B54237  26.429  25.231   7.283
 4109POPC   C4B54238  26.529  25.336   7.723
 4110POPC   NC354239  42.263  27.564   5.399
 4110POPC   PO454240  42.919  27.665   5.352
 4110POPC   GL154241  42.669  27.524   5.754
 4110POPC   GL254242  42.356  27.730   5.870
 4110POPC   C1A54243  42.507  27.377   6.198
 4110POPC   D2A54244  42.276  27.468   6.605
 4110POPC   C3A54245  42.530  27.679   6.895
 4110POPC   C4A54246  42.618  27.629   7.308
 4110POPC   C1B54247  42.124  27.935   6.237
 4110POPC   C2B54248  41.950  27.859   6.673
 4110POPC   C3B54249  42.097  27.904   7.095
 4110POPC   C4B54250  42.437  28.098   7.276
 4111POPC   NC354251  10.742  26.258   5.453
 4111POPC   PO454252  10.229  25.931   5.317
 4111POPC   GL154253  10.444  25.991   5.745
 4111POPC   GL254254  10.281  25.738   5.913
 4111POPC   C1A54255  10.693  26.281   6.120
 4111POPC   D2A54256  10.817  26.288   6.602
 4111POPC   C3A54257  10.498  26.357   6.974
 4111POPC   C4A54258  10.516  26.412   7.461
 4111POPC   C1B54259  10.717  25.782   6.112
 4111POPC   C2B54260  10.764  25.758   6.547
 4111POPC   C3B54261  10.753  25.926   6.992
 4111POPC   C4B54262  10.427  25.930   7.297
 4112POPC   NC354263  44.968  16.382   5.079
 4112POPC   PO454264  44.602  16.925   5.321
 4112POPC   GL154265  44.700  16.950   5.769
 4112POPC   GL254266  44.393  17.007   5.907
 4112POPC   C1A54267  44.830  17.066   6.231
 4112POPC   D2A54268  44.737  17.059   6.713
 4112POPC   C3A54269  44.841  16.801   7.107
 4112POPC   C4A54270  44.710  16.712   7.560
 4112POPC   C1B54271  44.474  16.690   6.252
 4112POPC   C2B54272  44.505  16.594   6.721
 4112POPC   C3B54273  44.359  16.620   7.169
 4112POPC   C4B54274  44.228  16.503   7.605
 4113POPC   NC354275  16.594  42.522   5.294
 4113POPC   PO454276  16.354  41.920   5.130
 4113POPC   GL154277  16.570  42.093   5.589
 4113POPC   GL254278  16.492  42.448   5.775
 4113POPC   C1A54279  16.712  42.096   6.065
 4113POPC   D2A54280  16.607  42.149   6.516
 4113POPC   C3A54281  16.907  42.305   6.866
 4113POPC   C4A54282  16.850  42.524   7.276
 4113POPC   C1B54283  16.350  42.533   6.210
 4113POPC   C2B54284  16.534  42.646   6.619
 4113POPC   C3B54285  16.417  42.490   7.020
 4113POPC   C4B54286  16.263  42.665   7.385
 4114POPC   NC354287   9.127  24.788   5.408
 4114POPC   PO454288   8.627  24.388   5.506
 4114POPC   GL154289   8.795  24.687   5.792
 4114POPC   GL254290   9.166  24.641   5.898
 4114POPC   C1A54291   8.758  24.834   6.191
 4114POPC   D2A54292   8.631  24.650   6.560
 4114POPC   C3A54293   8.807  24.696   6.950
 4114POPC   C4A54294   8.845  24.340   7.190
 4114POPC   C1B54295   9.200  24.638   6.364
 4114POPC   C2B54296   9.293  24.645   6.802
 4114POPC   C3B54297   9.332  24.407   7.155
 4114POPC   C4B54298   9.215  24.384   7.594
 4115POPC   NC354299  38.090  29.753   5.455
 4115POPC   PO454300  38.570  30.233   5.293
 4115POPC   GL154301  38.605  29.961   5.711
 4115POPC   GL254302  38.293  29.954   5.910
 4115POPC   C1A54303  38.686  29.953   6.208
 4115POPC   D2A54304  38.331  29.959   6.542
 4115POPC   C3A54305  38.448  29.968   6.996
 4115POPC   C4A54306  38.807  29.834   7.209
 4115POPC   C1B54307  38.104  29.667   6.164
 4115POPC   C2B54308  38.114  29.480   6.570
 4115POPC   C3B54309  38.034  29.630   6.981
 4115POPC   C4B54310  38.135  29.708   7.426
 4116POPC   NC354311  17.222   0.764   5.564
 4116POPC   PO454312  17.790   0.738   5.181
 4116POPC   GL154313  17.669   0.473   5.624
 4116POPC   GL254314  17.340   0.313   5.812
 4116POPC   C1A54315  17.739   0.366   6.109
 4116POPC   D2A54316  17.620   0.222   6.530
 4116POPC   C3A54317  17.720   0.415   6.930
 4116POPC   C4A54318  17.621   0.399   7.368
 4116POPC   C1B54319  17.286   0.616   6.189
 4116POPC   C2B54320  17.291   0.638   6.647
 4116POPC   C3B54321  17.185   0.354   6.977
 4116POPC   C4B54322  17.110   0.492   7.391
 4117POPC   NC354323  28.451  20.902   5.314
 4117POPC   PO454324  28.412  20.325   5.344
 4117POPC   GL154325  28.542  20.585   5.711
 4117POPC   GL254326  28.229  20.589   5.836
 4117POPC   C1A54327  28.544  20.810   6.143
 4117POPC   D2A54328  28.575  21.024   6.529
 4117POPC   C3A54329  28.613  20.876   6.932
 4117POPC   C4A54330  28.610  20.882   7.368
 4117POPC   C1B54331  28.113  20.345   6.252
 4117POPC   C2B54332  28.077  20.346   6.733
 4117POPC   C3B54333  28.015  20.308   7.176
 4117POPC   C4B54334  28.063  20.109   7.630
 4118POPC   NC354335  29.639   6.457   5.502
 4118POPC   PO454336  30.267   6.718   5.414
 4118POPC   GL154337  30.025   6.706   5.788
 4118POPC   GL254338  30.042   6.342   5.837
 4118POPC   C1A54339  29.852   6.668   6.203
 4118POPC   D2A54340  30.049   6.419   6.554
 4118POPC   C3A54341  29.818   6.517   6.936
 4118POPC   C4A54342  29.864   6.667   7.386
 4118POPC   C1B54343  29.688   6.209   6.095
 4118POPC   C2B54344  29.629   6.147   6.533
 4118POPC   C3B54345  29.471   6.130   6.939
 4118POPC   C4B54346  29.455   6.406   7.274
 4119POPC   NC354347  32.351  13.745   5.303
 4119POPC   PO454348  31.898  14.139   5.388
 4119POPC   GL154349  32.077  13.823   5.762
 4119POPC   GL254350  31.823  13.605   5.938
 4119POPC   C1A54351  32.268  13.592   6.187
 4119POPC   D2A54352  32.195  13.547   6.670
 4119POPC   C3A54353  32.454  13.407   7.060
 4119POPC   C4A54354  32.473  13.139   7.457
 4119POPC   C1B54355  31.808  13.816   6.370
 4119POPC   C2B54356  32.044  14.042   6.722
 4119POPC   C3B54357  32.120  13.826   7.119
 4119POPC   C4B54358  32.061  13.903   7.576
 4120POPC   NC354359  36.697  34.948   5.573
 4120POPC   PO454360  37.319  34.640   5.308
 4120POPC   GL154361  37.065  34.609   5.726
 4120POPC   GL254362  37.101  34.895   5.924
 4120POPC   C1A54363  37.055  34.453   6.175
 4120POPC   D2A54364  37.039  34.693   6.558
 4120POPC   C3A54365  37.023  34.516   6.945
 4120POPC   C4A54366  36.779  34.563   7.292
 4120POPC   C1B54367  36.724  34.858   6.184
 4120POPC   C2B54368  36.618  35.005   6.555
 4120POPC   C3B54369  36.573  34.855   6.942
 4120POPC   C4B54370  36.406  34.884   7.371
 4121POPC   NC354371   5.411  22.311   5.627
 4121POPC   PO454372   6.064  22.356   5.482
 4121POPC   GL154373   5.969  22.075   5.849
 4121POPC   GL254374   5.625  21.999   5.973
 4121POPC   C1A54375   5.989  22.122   6.298
 4121POPC   D2A54376   5.907  22.381   6.616
 4121POPC   C3A54377   5.964  22.151   6.982
 4121POPC   C4A54378   5.771  22.031   7.358
 4121POPC   C1B54379   5.512  22.359   6.255
 4121POPC   C2B54380   5.402  22.485   6.660
 4121POPC   C3B54381   5.485  22.347   7.089
 4121POPC   C4B54382   5.491  22.423   7.560
 4122POPC   NC354383   7.274  37.824   5.349
 4122POPC   PO454384   7.541  37.182   5.369
 4122POPC   GL154385   7.513  37.402   5.770
 4122POPC   GL254386   7.491  37.797   5.817
 4122POPC   C1A54387   7.599  37.491   6.201
 4122POPC   D2A54388   7.895  37.642   6.476
 4122POPC   C3A54389   7.725  37.513   6.828
 4122POPC   C4A54390   7.407  37.563   7.112
 4122POPC   C1B54391   7.429  37.984   6.269
 4122POPC   C2B54392   7.368  37.901   6.720
 4122POPC   C3B54393   7.052  37.936   7.076
 4122POPC   C4B54394   6.982  37.972   7.547
 4123POPC   NC354395  41.358   3.299   5.399
 4123POPC   PO454396  41.875   3.717   5.405
 4123POPC   GL154397  41.692   3.533   5.785
 4123POPC   GL254398  41.339   3.566   5.845
 4123POPC   C1A54399  41.685   3.515   6.249
 4123POPC   D2A54400  41.797   3.517   6.689
 4123POPC   C3A54401  41.419   3.502   6.907
 4123POPC   C4A54402  41.548   3.590   7.298
 4123POPC   C1B54403  41.274   3.186   6.101
 4123POPC   C2B54404  41.088   3.150   6.505
 4123POPC   C3B54405  41.230   3.002   6.913
 4123POPC   C4B54406  41.169   3.185   7.294
 4124POPC   NC354407  14.962   9.418   5.354
 4124POPC   PO454408  15.332   9.972   5.502
 4124POPC   GL154409  15.072   9.787   5.764
 4124POPC   GL254410  14.996  10.089   5.947
 4124POPC   C1A54411  15.044   9.592   6.174
 4124POPC   D2A54412  15.245   9.576   6.601
 4124POPC   C3A54413  15.026   9.591   7.015
 4124POPC   C4A54414  14.818   9.246   7.228
 4124POPC   C1B54415  15.117  10.050   6.379
 4124POPC   C2B54416  14.999  10.072   6.826
 4124POPC   C3B54417  15.117  10.080   7.278
 4124POPC   C4B54418  15.374   9.941   7.652
 4125POPC   NC354419  30.801  40.307   5.444
 4125POPC   PO454420  30.964  39.693   5.459
 4125POPC   GL154421  30.788  39.864   5.793
 4125POPC   GL254422  31.029  40.089   5.852
 4125POPC   C1A54423  30.701  39.861   6.223
 4125POPC   D2A54424  30.601  39.622   6.581
 4125POPC   C3A54425  30.562  39.879   6.972
 4125POPC   C4A54426  30.316  40.110   7.326
 4125POPC   C1B54427  31.064  40.210   6.269
 4125POPC   C2B54428  30.950  40.068   6.673
 4125POPC   C3B54429  30.952  40.251   7.077
 4125POPC   C4B54430  30.988  40.673   7.216
 4126POPC   NC354431  43.472  21.607   5.468
 4126POPC   PO454432  42.950  21.135   5.420
 4126POPC   GL154433  43.062  21.417   5.752
 4126POPC   GL254434  43.375  21.215   5.844
 4126POPC   C1A54435  42.915  21.425   6.214
 4126POPC   D2A54436  43.101  21.388   6.659
 4126POPC   C3A54437  42.889  21.354   7.056
 4126POPC   C4A54438  42.812  21.542   7.447
 4126POPC   C1B54439  43.402  21.571   6.118
 4126POPC   C2B54440  43.395  21.800   6.515
 4126POPC   C3B54441  43.489  21.666   6.920
 4126POPC   C4B54442  43.365  21.389   7.241
 4127POPC   NC354443  14.947  15.394   5.350
 4127POPC   PO454444  15.562  15.259   5.329
 4127POPC   GL154445  15.284  15.126   5.723
 4127POPC   GL254446  15.465  14.862   5.932
 4127POPC   C1A54447  15.052  15.096   6.183
 4127POPC   D2A54448  14.981  14.987   6.679
 4127POPC   C3A54449  15.211  15.181   7.071
 4127POPC   C4A54450  15.116  15.469   7.452
 4127POPC   C1B54451  15.505  14.947   6.394
 4127POPC   C2B54452  15.662  15.035   6.819
 4127POPC   C3B54453  15.776  15.325   7.156
 4127POPC   C4B54454  15.630  15.570   7.534
 4128POPC   NC354455  17.947  44.363   5.346
 4128POPC   PO454456  17.247  44.399   5.504
 4128POPC   GL154457  17.408  44.742   5.831
 4128POPC   GL254458  17.721  44.932   5.819
 4128POPC   C1A54459  17.286  44.948   6.209
 4128POPC   D2A54460  17.495  44.725   6.552
 4128POPC   C3A54461  17.380  44.761   6.972
 4128POPC   C4A54462  17.394  44.325   7.172
 4128POPC   C1B54463  17.840  44.596   6.156
 4128POPC   C2B54464  18.069  44.389   6.540
 4128POPC   C3B54465  17.837  44.483   6.934
 4128POPC   C4B54466  17.749  44.713   7.313
 4129POPC   NC354467  21.116  25.010   5.418
 4129POPC   PO454468  20.581  25.162   5.347
 4129POPC   GL154469  20.590  25.223   5.780
 4129POPC   GL254470  20.848  25.007   5.872
 4129POPC   C1A54471  20.414  25.465   6.113
 4129POPC   D2A54472  20.169  25.506   6.460
 4129POPC   C3A54473  20.364  25.576   6.841
 4129POPC   C4A54474  20.698  25.420   7.077
 4129POPC   C1B54475  20.789  25.169   6.290
 4129POPC   C2B54476  20.498  25.129   6.627
 4129POPC   C3B54477  20.575  24.930   7.002
 4129POPC   C4B54478  20.983  24.989   7.205
 4130POPC   NC354479  32.186  38.181   5.302
 4130POPC   PO454480  32.448  38.793   5.306
 4130POPC   GL154481  32.353  38.565   5.726
 4130POPC   GL254482  32.197  38.253   5.805
 4130POPC   C1A54483  32.297  38.616   6.207
 4130POPC   D2A54484  32.479  38.513   6.628
 4130POPC   C3A54485  32.243  38.525   7.049
 4130POPC   C4A54486  31.943  38.639   7.421
 4130POPC   C1B54487  32.110  38.118   6.222
 4130POPC   C2B54488  32.096  38.173   6.661
 4130POPC   C3B54489  32.250  37.983   7.045
 4130POPC   C4B54490  32.192  38.181   7.458
 4131POPC   NC354491  36.241  41.741   5.403
 4131POPC   PO454492  35.802  41.289   5.048
 4131POPC   GL154493  36.004  41.332   5.585
 4131POPC   GL254494  36.343  41.286   5.739
 4131POPC   C1A54495  36.139  41.624   6.037
 4131POPC   D2A54496  36.351  41.770   6.456
 4131POPC   C3A54497  36.236  41.699   6.895
 4131POPC   C4A54498  36.122  41.547   7.322
 4131POPC   C1B54499  36.391  41.194   6.197
 4131POPC   C2B54500  36.293  41.183   6.661
 4131POPC   C3B54501  36.465  41.265   7.074
 4131POPC   C4B54502  36.488  41.203   7.519
 4132POPC   NC354503  38.856  13.076   5.463
 4132POPC   PO454504  39.477  13.171   5.348
 4132POPC   GL154505  39.279  13.038   5.763
 4132POPC   GL254506  38.991  13.261   5.926
 4132POPC   C1A54507  39.004  12.748   6.022
 4132POPC   D2A54508  38.784  12.813   6.418
 4132POPC   C3A54509  39.013  12.921   6.813
 4132POPC   C4A54510  38.984  13.160   7.209
 4132POPC   C1B54511  39.276  13.080   6.283
 4132POPC   C2B54512  39.514  12.939   6.646
 4132POPC   C3B54513  39.462  13.162   7.040
 4132POPC   C4B54514  39.409  13.292   7.490
 4133POPC   NC354515   5.037  31.651   5.240
 4133POPC   PO454516   5.534  31.276   5.389
 4133POPC   GL154517   5.167  31.460   5.682
 4133POPC   GL254518   4.867  31.243   5.755
 4133POPC   C1A54519   4.977  31.612   6.104
 4133POPC   D2A54520   5.173  31.555   6.499
 4133POPC   C3A54521   4.963  31.551   6.912
 4133POPC   C4A54522   5.121  31.750   7.277
 4133POPC   C1B54523   5.236  31.170   6.081
 4133POPC   C2B54524   5.512  31.171   6.434
 4133POPC   C3B54525   5.410  31.283   6.853
 4133POPC   C4B54526   5.291  31.251   7.292
 4134POPC   NC354527  20.861  36.069   5.303
 4134POPC   PO454528  20.255  36.112   5.452
 4134POPC   GL154529  20.555  36.089   5.805
 4134POPC   GL254530  20.916  35.930   5.817
 4134POPC   C1A54531  20.548  36.300   6.210
 4134POPC   D2A54532  20.683  36.546   6.565
 4134POPC   C3A54533  20.613  36.296   6.927
 4134POPC   C4A54534  20.608  36.338   7.331
 4134POPC   C1B54535  20.695  35.806   6.192
 4134POPC   C2B54536  20.605  35.916   6.580
 4134POPC   C3B54537  20.745  35.785   6.956
 4134POPC   C4B54538  20.586  35.814   7.338
 4135POPC   NC354539  26.797   3.839   5.209
 4135POPC   PO454540  27.185   3.442   5.451
 4135POPC   GL154541  26.909   3.606   5.769
 4135POPC   GL254542  26.744   3.259   5.779
 4135POPC   C1A54543  26.877   3.621   6.250
 4135POPC   D2A54544  27.017   3.320   6.573
 4135POPC   C3A54545  26.912   3.451   7.009
 4135POPC   C4A54546  26.795   3.419   7.451
 4135POPC   C1B54547  26.662   3.163   6.212
 4135POPC   C2B54548  26.512   3.356   6.638
 4135POPC   C3B54549  26.425   3.343   7.109
 4135POPC   C4B54550  26.306   3.567   7.534
 4136POPC   NC354551  35.401  13.319   5.255
 4136POPC   PO454552  35.484  13.974   5.445
 4136POPC   GL154553  35.286  13.736   5.765
 4136POPC   GL254554  35.205  13.383   5.717
 4136POPC   C1A54555  35.390  13.805   6.200
 4136POPC   D2A54556  35.666  13.759   6.542
 4136POPC   C3A54557  35.477  13.675   6.918
 4136POPC   C4A54558  35.536  13.794   7.336
 4136POPC   C1B54559  35.019  13.459   6.107
 4136POPC   C2B54560  35.172  13.422   6.514
 4136POPC   C3B54561  34.964  13.414   6.884
 4136POPC   C4B54562  35.097  13.557   7.263
 4137POPC   NC354563  21.686  30.281   5.727
 4137POPC   PO454564  21.398  30.560   5.213
 4137POPC   GL154565  21.335  30.678   5.665
 4137POPC   GL254566  21.592  30.851   5.818
 4137POPC   C1A54567  21.180  30.806   6.092
 4137POPC   D2A54568  21.146  30.998   6.523
 4137POPC   C3A54569  21.154  30.696   6.887
 4137POPC   C4A54570  21.578  30.509   7.042
 4137POPC   C1B54571  21.556  31.183   6.155
 4137POPC   C2B54572  21.609  31.300   6.576
 4137POPC   C3B54573  21.533  31.019   6.899
 4137POPC   C4B54574  21.370  30.903   7.300
 4138POPC   NC354575   6.207  33.236   5.178
 4138POPC   PO454576   5.575  32.943   5.320
 4138POPC   GL154577   5.777  33.180   5.690
 4138POPC   GL254578   6.163  33.277   5.717
 4138POPC   C1A54579   5.770  33.386   6.089
 4138POPC   D2A54580   5.865  33.260   6.505
 4138POPC   C3A54581   5.869  33.416   6.920
 4138POPC   C4A54582   5.637  33.237   7.277
 4138POPC   C1B54583   6.216  33.115   6.147
 4138POPC   C2B54584   6.307  33.018   6.586
 4138POPC   C3B54585   6.083  32.939   6.956
 4138POPC   C4B54586   6.146  33.087   7.350
 4139POPC   NC354587  28.797  36.978   5.496
 4139POPC   PO454588  28.119  36.761   5.493
 4139POPC   GL154589  28.383  36.760   5.844
 4139POPC   GL254590  28.667  36.556   5.817
 4139POPC   C1A54591  28.353  36.769   6.283
 4139POPC   D2A54592  28.081  36.945   6.590
 4139POPC   C3A54593  28.248  36.949   6.983
 4139POPC   C4A54594  28.097  36.732   7.326
 4139POPC   C1B54595  28.818  36.537   6.234
 4139POPC   C2B54596  28.723  36.465   6.684
 4139POPC   C3B54597  28.549  36.540   7.114
 4139POPC   C4B54598  28.571  36.815   7.494
 4140POPC   NC354599  29.383  36.887   5.364
 4140POPC   PO454600  29.570  36.349   5.542
 4140POPC   GL154601  29.463  36.743   5.842
 4140POPC   GL254602  29.112  36.872   5.885
 4140POPC   C1A54603  29.424  36.815   6.300
 4140POPC   D2A54604  29.126  36.902   6.595
 4140POPC   C3A54605  29.249  36.873   7.006
 4140POPC   C4A54606  29.011  36.658   7.288
 4140POPC   C1B54607  28.797  37.059   6.208
 4140POPC   C2B54608  28.724  37.218   6.647
 4140POPC   C3B54609  28.770  37.042   7.059
 4140POPC   C4B54610  29.090  37.158   7.398
 4141POPC   NC354611  42.539  37.415   5.529
 4141POPC   PO454612  42.091  37.642   5.117
 4141POPC   GL154613  42.074  37.738   5.628
 4141POPC   GL254614  42.332  37.940   5.795
 4141POPC   C1A54615  42.136  37.643   6.125
 4141POPC   D2A54616  42.263  37.901   6.513
 4141POPC   C3A54617  42.102  37.799   6.947
 4141POPC   C4A54618  42.177  38.059   7.308
 4141POPC   C1B54619  42.629  37.826   6.139
 4141POPC   C2B54620  42.700  37.613   6.544
 4141POPC   C3B54621  42.612  37.746   6.957
 4141POPC   C4B54622  42.505  37.656   7.381
 4142POPC   NC354623  26.951  10.553   5.339
 4142POPC   PO454624  26.706  10.024   5.397
 4142POPC   GL154625  26.787  10.298   5.810
 4142POPC   GL254626  27.045  10.601   5.874
 4142POPC   C1A54627  26.801  10.414   6.286
 4142POPC   D2A54628  27.016  10.266   6.674
 4142POPC   C3A54629  27.026  10.373   7.123
 4142POPC   C4A54630  26.752  10.356   7.484
 4142POPC   C1B54631  27.177  10.759   6.336
 4142POPC   C2B54632  27.130  10.777   6.807
 4142POPC   C3B54633  26.901  10.878   7.194
 4142POPC   C4B54634  26.926  10.806   7.649
 4143POPC   NC354635  37.750  22.412   5.366
 4143POPC   PO454636  37.413  21.965   5.216
 4143POPC   GL154637  37.511  21.993   5.646
 4143POPC   GL254638  37.408  22.349   5.730
 4143POPC   C1A54639  37.595  22.002   6.089
 4143POPC   D2A54640  37.539  21.873   6.501
 4143POPC   C3A54641  37.842  21.960   6.808
 4143POPC   C4A54642  37.984  21.792   7.177
 4143POPC   C1B54643  37.592  22.523   6.128
 4143POPC   C2B54644  37.678  22.383   6.532
 4143POPC   C3B54645  37.775  22.471   6.941
 4143POPC   C4B54646  37.708  22.194   7.291
 4144POPC   NC354647  33.054  30.766   5.432
 4144POPC   PO454648  32.492  30.382   5.348
 4144POPC   GL154649  32.769  30.451   5.730
 4144POPC   GL254650  32.649  30.791   5.806
 4144POPC   C1A54651  33.022  30.633   6.132
 4144POPC   D2A54652  33.311  30.696   6.521
 4144POPC   C3A54653  33.165  30.574   6.924
 4144POPC   C4A54654  33.097  30.364   7.344
 4144POPC   C1B54655  32.631  30.966   6.206
 4144POPC   C2B54656  32.893  30.995   6.568
 4144POPC   C3B54657  32.763  30.982   6.981
 4144POPC   C4B54658  32.993  30.852   7.322
 4145POPC   NC354659  40.053  28.697   5.147
 4145POPC   PO454660  40.069  29.321   5.232
 4145POPC   GL154661  39.949  29.339   5.638
 4145POPC   GL254662  39.948  28.951   5.623
 4145POPC   C1A54663  40.064  29.488   6.068
 4145POPC   D2A54664  39.843  29.373   6.437
 4145POPC   C3A54665  39.797  29.478   6.883
 4145POPC   C4A54666  39.876  29.321   7.293
 4145POPC   C1B54667  39.901  28.975   6.067
 4145POPC   C2B54668  39.934  28.868   6.514
 4145POPC   C3B54669  40.011  29.006   6.928
 4145POPC   C4B54670  40.202  28.919   7.354
 4146POPC   NC354671  42.022  30.091   5.598
 4146POPC   PO454672  41.616  29.667   5.152
 4146POPC   GL154673  41.550  29.710   5.721
 4146POPC   GL254674  41.648  30.000   5.937
 4146POPC   C1A54675  41.560  29.595   6.201
 4146POPC   D2A54676  41.718  29.829   6.561
 4146POPC   C3A54677  41.580  29.758   7.007
 4146POPC   C4A54678  41.728  29.986   7.386
 4146POPC   C1B54679  41.254  29.997   6.223
 4146POPC   C2B54680  41.205  29.916   6.690
 4146POPC   C3B54681  41.223  30.120   7.112
 4146POPC   C4B54682  40.909  30.073   7.415
 4147POPC   NC354683   1.701  37.169   5.533
 4147POPC   PO454684   2.259  36.746   5.425
 4147POPC   GL154685   2.023  36.827   5.775
 4147POPC   GL254686   2.149  37.170   5.793
 4147POPC   C1A54687   1.868  36.670   6.174
 4147POPC   D2A54688   2.054  36.646   6.599
 4147POPC   C3A54689   1.825  36.592   6.977
 4147POPC   C4A54690   1.959  36.794   7.345
 4147POPC   C1B54691   1.890  37.194   6.179
 4147POPC   C2B54692   1.897  37.389   6.588
 4147POPC   C3B54693   1.880  37.133   6.950
 4147POPC   C4B54694   1.737  37.242   7.335
 4148POPC   NC354695  27.340  30.913   5.428
 4148POPC   PO454696  27.935  30.691   5.342
 4148POPC   GL154697  27.727  30.722   5.715
 4148POPC   GL254698  27.489  30.463   5.654
 4148POPC   C1A54699  27.698  30.835   6.165
 4148POPC   D2A54700  27.684  30.672   6.584
 4148POPC   C3A54701  27.928  30.909   6.884
 4148POPC   C4A54702  28.004  30.768   7.289
 4148POPC   C1B54703  27.480  30.386   6.110
 4148POPC   C2B54704  27.504  30.189   6.521
 4148POPC   C3B54705  27.430  30.356   6.922
 4148POPC   C4B54706  27.499  30.705   7.187
 4149POPC   NC354707  10.653  19.414   5.581
 4149POPC   PO454708  10.175  19.951   5.698
 4149POPC   GL154709  10.605  19.850   5.881
 4149POPC   GL254710  10.715  20.201   5.735
 4149POPC   C1A54711  10.811  19.502   6.198
 4149POPC   D2A54712  10.868  19.332   6.643
 4149POPC   C3A54713  10.630  19.599   6.959
 4149POPC   C4A54714  10.462  19.835   7.346
 4149POPC   C1B54715  10.811  20.291   6.175
 4149POPC   C2B54716  10.826  20.074   6.571
 4149POPC   C3B54717  10.792  20.104   7.034
 4149POPC   C4B54718  10.826  20.193   7.500
 4150POPC   NC354719  41.641  43.761   5.618
 4150POPC   PO454720  41.796  43.169   5.362
 4150POPC   GL154721  41.621  43.261   5.795
 4150POPC   GL254722  41.308  43.455   5.849
 4150POPC   C1A54723  41.647  43.135   6.251
 4150POPC   D2A54724  41.712  43.057   6.697
 4150POPC   C3A54725  41.411  42.999   7.074
 4150POPC   C4A54726  41.459  42.971   7.553
 4150POPC   C1B54727  41.160  43.297   6.228
 4150POPC   C2B54728  41.184  43.134   6.631
 4150POPC   C3B54729  41.139  43.425   7.010
 4150POPC   C4B54730  41.108  43.329   7.466
 4151POPC   NC354731  20.829  33.712   5.648
 4151POPC   PO454732  20.225  33.767   5.235
 4151POPC   GL154733  20.362  33.908   5.672
 4151POPC   GL254734  20.633  34.171   5.726
 4151POPC   C1A54735  20.348  33.861   6.111
 4151POPC   D2A54736  20.613  33.658   6.424
 4151POPC   C3A54737  20.411  33.657   6.818
 4151POPC   C4A54738  20.508  33.674   7.239
 4151POPC   C1B54739  20.851  34.159   6.151
 4151POPC   C2B54740  20.801  34.126   6.588
 4151POPC   C3B54741  20.891  33.917   6.964
 4151POPC   C4B54742  20.779  34.129   7.351
 4152POPC   NC354743  10.814  39.430   5.489
 4152POPC   PO454744  11.324  38.964   5.404
 4152POPC   GL154745  11.213  39.239   5.811
 4152POPC   GL254746  11.113  39.608   5.860
 4152POPC   C1A54747  11.319  39.375   6.265
 4152POPC   D2A54748  11.194  39.256   6.717
 4152POPC   C3A54749  11.340  39.216   7.149
 4152POPC   C4A54750  11.180  38.943   7.496
 4152POPC   C1B54751  11.060  39.843   6.251
 4152POPC   C2B54752  11.166  39.764   6.689
 4152POPC   C3B54753  11.074  39.663   7.141
 4152POPC   C4B54754  11.108  39.451   7.566
 4153POPC   NC354755  38.723  27.944   5.523
 4153POPC   PO454756  38.126  27.844   5.391
 4153POPC   GL154757  38.371  27.557   5.708
 4153POPC   GL254758  38.737  27.429   5.699
 4153POPC   C1A54759  38.324  27.331   6.118
 4153POPC   D2A54760  38.348  27.531   6.532
 4153POPC   C3A54761  38.341  27.300   6.909
 4153POPC   C4A54762  38.218  27.445   7.279
 4153POPC   C1B54763  38.708  27.637   6.124
 4153POPC   C2B54764  38.830  27.738   6.542
 4153POPC   C3B54765  38.640  27.729   6.934
 4153POPC   C4B54766  38.734  27.465   7.248
 4154POPC   NC354767  42.249   0.123   5.459
 4154POPC   PO454768  42.755   0.501   5.430
 4154POPC   GL154769  42.481   0.639   5.743
 4154POPC   GL254770  42.108   0.628   5.720
 4154POPC   C1A54771  42.390   0.582   6.176
 4154POPC   D2A54772  42.236   0.617   6.585
 4154POPC   C3A54773  42.467   0.607   6.967
 4154POPC   C4A54774  42.506   0.261   7.281
 4154POPC   C1B54775  41.963   0.913   6.077
 4154POPC   C2B54776  41.927   1.014   6.536
 4154POPC   C3B54777  41.908   0.807   6.944
 4154POPC   C4B54778  42.066   0.544   7.275
 4155POPC   NC354779   1.068  10.055   5.389
 4155POPC   PO454780   1.470   9.625   5.372
 4155POPC   GL154781   1.625   9.785   5.752
 4155POPC   GL254782   1.381   9.621   5.950
 4155POPC   C1A54783   1.596  10.040   6.131
 4155POPC   D2A54784   1.364   9.990   6.520
 4155POPC   C3A54785   1.530   9.948   6.932
 4155POPC   C4A54786   1.327  10.008   7.297
 4155POPC   C1B54787   1.716   9.542   6.273
 4155POPC   C2B54788   1.643   9.491   6.745
 4155POPC   C3B54789   1.273   9.493   7.079
 4155POPC   C4B54790   1.163   9.162   7.411
 4156POPC   NC354791   4.113   5.648   5.171
 4156POPC   PO454792   4.729   5.976   5.325
 4156POPC   GL154793   4.441   5.772   5.618
 4156POPC   GL254794   4.520   5.462   5.853
 4156POPC   C1A54795   4.374   5.934   6.012
 4156POPC   D2A54796   4.250   5.934   6.439
 4156POPC   C3A54797   4.420   5.710   6.789
 4156POPC   C4A54798   4.498   5.783   7.217
 4156POPC   C1B54799   4.127   5.482   6.077
 4156POPC   C2B54800   3.903   5.546   6.460
 4156POPC   C3B54801   4.001   5.382   6.871
 4156POPC   C4B54802   4.041   5.556   7.266
 4157POPC   NC354803  21.894   6.288   5.740
 4157POPC   PO454804  21.675   5.733   5.650
 4157POPC   GL154805  21.538   5.868   6.040
 4157POPC   GL254806  21.715   6.137   6.222
 4157POPC   C1A54807  21.426   5.789   6.459
 4157POPC   D2A54808  21.408   6.082   6.791
 4157POPC   C3A54809  21.300   5.887   7.190
 4157POPC   C4A54810  21.511   5.939   7.549
 4157POPC   C1B54811  21.247   6.240   6.292
 4157POPC   C2B54812  20.940   6.393   6.626
 4157POPC   C3B54813  21.033   6.317   7.068
 4157POPC   C4B54814  21.489   6.371   7.240
 4158POPC   NC354815   1.120   1.831   5.405
 4158POPC   PO454816   1.599   2.256   5.559
 4158POPC   GL154817   1.347   1.959   5.840
 4158POPC   GL254818   0.936   1.962   5.862
 4158POPC   C1A54819   1.309   1.804   6.243
 4158POPC   D2A54820   1.095   1.854   6.621
 4158POPC   C3A54821   1.334   1.703   6.939
 4158POPC   C4A54822   1.525   1.732   7.350
 4158POPC   C1B54823   1.033   2.227   6.216
 4158POPC   C2B54824   0.991   2.517   6.557
 4158POPC   C3B54825   0.985   2.385   6.988
 4158POPC   C4B54826   1.139   2.065   7.257
 4159POPC   NC354827  33.783  25.520   5.722
 4159POPC   PO454828  33.611  24.969   5.364
 4159POPC   GL154829  33.789  25.021   5.814
 4159POPC   GL254830  34.125  25.157   5.925
 4159POPC   C1A54831  33.723  25.165   6.245
 4159POPC   D2A54832  33.990  25.220   6.579
 4159POPC   C3A54833  33.839  25.462   6.867
 4159POPC   C4A54834  33.739  25.375   7.246
 4159POPC   C1B54835  34.391  25.029   6.297
 4159POPC   C2B54836  34.400  24.986   6.777
 4159POPC   C3B54837  34.103  25.028   7.124
 4159POPC   C4B54838  33.822  24.908   7.476
 4160POPC   NC354839  23.762  32.704   5.320
 4160POPC   PO454840  23.474  33.284   5.310
 4160POPC   GL154841  23.764  33.144   5.676
 4160POPC   GL254842  23.756  32.802   5.810
 4160POPC   C1A54843  23.822  33.158   6.165
 4160POPC   D2A54844  23.580  33.122   6.563
 4160POPC   C3A54845  23.808  33.222   6.920
 4160POPC   C4A54846  23.696  33.320   7.322
 4160POPC   C1B54847  23.452  32.726   6.147
 4160POPC   C2B54848  23.559  32.606   6.564
 4160POPC   C3B54849  23.911  32.730   6.825
 4160POPC   C4B54850  23.879  32.834   7.257
 4161POPC   NC354851   3.579  14.022   5.394
 4161POPC   PO454852   3.102  13.505   5.437
 4161POPC   GL154853   3.240  13.681   5.806
 4161POPC   GL254854   3.538  13.799   5.854
 4161POPC   C1A54855   3.393  13.478   6.211
 4161POPC   D2A54856   3.652  13.541   6.579
 4161POPC   C3A54857   3.409  13.549   6.919
 4161POPC   C4A54858   3.237  13.672   7.274
 4161POPC   C1B54859   3.815  13.836   6.179
 4161POPC   C2B54860   3.942  14.006   6.567
 4161POPC   C3B54861   3.783  13.898   6.978
 4161POPC   C4B54862   3.995  13.943   7.361
 4162POPC   NC354863  30.134  12.713   4.908
 4162POPC   PO454864  29.939  12.556   5.535
 4162POPC   GL154865  29.786  12.745   5.926
 4162POPC   GL254866  29.548  13.089   5.867
 4162POPC   C1A54867  30.038  12.596   6.278
 4162POPC   D2A54868  30.298  12.795   6.566
 4162POPC   C3A54869  30.029  12.796   6.906
 4162POPC   C4A54870  30.206  12.862   7.262
 4162POPC   C1B54871  29.639  13.092   6.286
 4162POPC   C2B54872  29.925  13.194   6.596
 4162POPC   C3B54873  29.976  13.301   7.016
 4162POPC   C4B54874  29.739  13.020   7.313
 4163POPC   NC354875  30.097  35.286   5.246
 4163POPC   PO454876  29.430  35.607   5.240
 4163POPC   GL154877  29.737  35.510   5.629
 4163POPC   GL254878  30.117  35.569   5.738
 4163POPC   C1A54879  29.730  35.206   6.004
 4163POPC   D2A54880  29.813  35.021   6.438
 4163POPC   C3A54881  29.610  35.157   6.844
 4163POPC   C4A54882  29.642  35.530   7.113
 4163POPC   C1B54883  29.979  35.609   6.203
 4163POPC   C2B54884  29.985  35.506   6.663
 4163POPC   C3B54885  30.124  35.631   7.085
 4163POPC   C4B54886  30.226  35.509   7.526
 4164POPC   NC354887   1.493  28.365   5.659
 4164POPC   PO454888   1.001  27.917   5.400
 4164POPC   GL154889   1.037  28.159   5.790
 4164POPC   GL254890   1.103  28.533   5.916
 4164POPC   C1A54891   1.183  28.067   6.197
 4164POPC   D2A54892   0.972  27.978   6.575
 4164POPC   C3A54893   1.056  28.188   6.944
 4164POPC   C4A54894   1.333  28.057   7.227
 4164POPC   C1B54895   1.429  28.495   6.278
 4164POPC   C2B54896   1.471  28.225   6.630
 4164POPC   C3B54897   1.561  28.456   7.000
 4164POPC   C4B54898   1.525  28.543   7.423
 4165POPC   NC354899  29.738   3.613   5.460
 4165POPC   PO454900  30.369   3.587   5.495
 4165POPC   GL154901  30.180   3.594   5.911
 4165POPC   GL254902  29.807   3.705   5.963
 4165POPC   C1A54903  30.091   3.590   6.363
 4165POPC   D2A54904  29.651   3.544   6.526
 4165POPC   C3A54905  29.662   3.660   6.948
 4165POPC   C4A54906  29.823   3.450   7.296
 4165POPC   C1B54907  29.496   3.957   6.228
 4165POPC   C2B54908  29.343   4.025   6.662
 4165POPC   C3B54909  29.578   4.152   7.037
 4165POPC   C4B54910  29.817   3.971   7.341
 4166POPC   NC354911  36.704  14.154   5.520
 4166POPC   PO454912  36.437  14.721   5.340
 4166POPC   GL154913  36.573  14.548   5.789
 4166POPC   GL254914  36.949  14.518   5.840
 4166POPC   C1A54915  36.623  14.316   6.177
 4166POPC   D2A54916  36.898  14.190   6.506
 4166POPC   C3A54917  36.768  14.257   6.926
 4166POPC   C4A54918  36.627  14.331   7.364
 4166POPC   C1B54919  37.304  14.647   6.094
 4166POPC   C2B54920  37.290  14.781   6.506
 4166POPC   C3B54921  37.256  14.475   6.813
 4166POPC   C4B54922  37.143  14.436   7.218
 4167POPC   NC354923   5.463  16.726   5.301
 4167POPC   PO454924   4.938  17.182   5.425
 4167POPC   GL154925   5.088  16.805   5.678
 4167POPC   GL254926   4.813  16.558   5.682
 4167POPC   C1A54927   5.098  16.656   6.140
 4167POPC   D2A54928   5.066  16.583   6.616
 4167POPC   C3A54929   5.373  16.621   6.954
 4167POPC   C4A54930   5.511  16.840   7.348
 4167POPC   C1B54931   4.665  16.890   6.007
 4167POPC   C2B54932   4.735  16.998   6.465
 4167POPC   C3B54933   4.824  16.947   6.931
 4167POPC   C4B54934   4.946  16.606   7.250
 4168POPC   NC354935  27.889   8.357   5.530
 4168POPC   PO454936  28.498   8.258   5.319
 4168POPC   GL154937  28.410   8.248   5.724
 4168POPC   GL254938  28.750   8.354   5.758
 4168POPC   C1A54939  28.185   8.269   6.122
 4168POPC   D2A54940  28.145   8.504   6.511
 4168POPC   C3A54941  28.312   8.227   6.818
 4168POPC   C4A54942  28.247   8.039   7.197
 4168POPC   C1B54943  28.692   8.086   6.114
 4168POPC   C2B54944  28.732   8.028   6.545
 4168POPC   C3B54945  28.812   8.217   6.927
 4168POPC   C4B54946  28.736   8.087   7.328
 4169POPC   NC354947  13.560   0.558   5.049
 4169POPC   PO454948  13.869   0.117   5.474
 4169POPC   GL154949  13.701   0.419   5.819
 4169POPC   GL254950  13.980   0.585   6.027
 4169POPC   C1A54951  13.438   0.639   6.134
 4169POPC   D2A54952  13.410   0.766   6.586
 4169POPC   C3A54953  13.670   0.571   6.922
 4169POPC   C4A54954  13.678   0.675   7.394
 4169POPC   C1B54955  13.794   0.291   6.294
 4169POPC   C2B54956  13.929   0.074   6.605
 4169POPC   C3B54957  13.753  44.998   6.935
 4169POPC   C4B54958  13.551   0.194   7.256
 4170POPC   NC354959  19.572   3.734   5.368
 4170POPC   PO454960  19.751   2.997   5.459
 4170POPC   GL154961  19.723   3.386   5.748
 4170POPC   GL254962  20.006   3.585   5.884
 4170POPC   C1A54963  19.632   3.466   6.223
 4170POPC   D2A54964  19.367   3.568   6.617
 4170POPC   C3A54965  19.557   3.593   7.057
 4170POPC   C4A54966  19.667   3.503   7.497
 4170POPC   C1B54967  20.086   3.628   6.364
 4170POPC   C2B54968  19.873   3.361   6.695
 4170POPC   C3B54969  19.955   3.282   7.138
 4170POPC   C4B54970  20.218   3.626   7.298
 4171POPC   NC354971  38.385  31.535   5.375
 4171POPC   PO454972  38.796  31.044   5.563
 4171POPC   GL154973  38.464  31.244   5.793
 4171POPC   GL254974  38.431  31.632   5.858
 4171POPC   C1A54975  38.313  31.279   6.187
 4171POPC   D2A54976  38.524  31.467   6.505
 4171POPC   C3A54977  38.274  31.494   6.860
 4171POPC   C4A54978  38.376  31.252   7.196
 4171POPC   C1B54979  38.720  31.812   6.133
 4171POPC   C2B54980  38.987  31.721   6.466
 4171POPC   C3B54981  38.874  31.581   6.868
 4171POPC   C4B54982  38.612  31.724   7.165
 4172POPC   NC354983   2.888   0.213   5.584
 4172POPC   PO454984   2.410  44.821   5.195
 4172POPC   GL154985   2.587  44.636   5.592
 4172POPC   GL254986   2.943  44.545   5.612
 4172POPC   C1A54987   2.559  44.533   6.044
 4172POPC   D2A54988   2.679  44.473   6.478
 4172POPC   C3A54989   2.491  44.636   6.849
 4172POPC   C4A54990   2.628  44.960   7.145
 4172POPC   C1B54991   3.013  44.750   6.012
 4172POPC   C2B54992   3.117  44.719   6.432
 4172POPC   C3B54993   3.122  44.672   6.890
 4172POPC   C4B54994   3.234  44.357   7.205
 4173POPC   NC354995  21.001   9.664   5.050
 4173POPC   PO454996  21.538  10.021   5.353
 4173POPC   GL154997  21.419   9.646   5.685
 4173POPC   GL254998  21.313   9.888   5.937
 4173POPC   C1A54999  21.344   9.410   6.141
 4173POPC   D2A55000  21.391   9.572   6.601
 4173POPC   C3A55001  21.365   9.436   7.073
 4173POPC   C4A55002  21.433   9.543   7.537
 4173POPC   C1B55003  21.522  10.167   6.222
 4173POPC   C2B55004  21.461  10.086   6.636
 4173POPC   C3B55005  21.483  10.013   7.051
 4173POPC   C4B55006  21.770   9.746   7.206
 4174POPC   NC355007  24.693  22.589   5.321
 4174POPC   PO455008  24.816  21.936   5.421
 4174POPC   GL155009  24.596  21.785   5.851
 4174POPC   GL255010  24.206  21.798   5.866
 4174POPC   C1A55011  24.499  21.985   6.274
 4174POPC   D2A55012  24.429  22.339   6.574
 4174POPC   C3A55013  24.621  22.187   6.943
 4174POPC   C4A55014  24.689  21.738   7.110
 4174POPC   C1B55015  24.007  21.828   6.297
 4174POPC   C2B55016  24.159  21.939   6.715
 4174POPC   C3B55017  24.168  22.072   7.146
 4174POPC   C4B55018  24.085  22.222   7.580
 4175POPC   NC355019  44.968  36.078   5.396
 4175POPC   PO455020   0.662  36.214   5.422
 4175POPC   GL155021   0.356  36.358   5.740
 4175POPC   GL255022   0.220  36.066   5.860
 4175POPC   C1A55023   0.413  36.367   6.223
 4175POPC   D2A55024   0.613  36.255   6.617
 4175POPC   C3A55025   0.374  36.337   6.965
 4175POPC   C4A55026  44.963  36.535   6.896
 4175POPC   C1B55027   0.426  35.847   6.226
 4175POPC   C2B55028   0.302  35.632   6.617
 4175POPC   C3B55029   0.456  35.816   6.963
 4175POPC   C4B55030   0.669  35.716   7.329
 4176POPC   NC355031  15.149   3.289   5.221
 4176POPC   PO455032  14.579   3.127   5.558
 4176POPC   GL155033  14.867   3.407   5.808
 4176POPC   GL255034  15.231   3.446   5.722
 4176POPC   C1A55035  15.000   3.490   6.230
 4176POPC   D2A55036  14.911   3.654   6.632
 4176POPC   C3A55037  15.105   3.454   6.984
 4176POPC   C4A55038  15.446   3.691   7.193
 4176POPC   C1B55039  15.471   3.619   6.097
 4176POPC   C2B55040  15.412   3.500   6.557
 4176POPC   C3B55041  15.550   3.203   6.861
 4176POPC   C4B55042  15.634   3.240   7.294
 4177POPC   NC355043  24.151  20.957   5.391
 4177POPC   PO455044  24.469  20.360   5.160
 4177POPC   GL155045  24.768  20.466   5.551
 4177POPC   GL255046  24.898  20.199   5.770
 4177POPC   C1A55047  24.674  20.561   6.044
 4177POPC   D2A55048  24.334  20.505   6.395
 4177POPC   C3A55049  24.396  20.548   6.866
 4177POPC   C4A55050  24.372  20.736   7.286
 4177POPC   C1B55051  25.020  20.133   6.211
 4177POPC   C2B55052  25.075  20.343   6.632
 4177POPC   C3B55053  24.874  20.414   7.016
 4177POPC   C4B55054  24.858  20.648   7.364
 4178POPC   NC355055   7.143  30.578   5.377
 4178POPC   PO455056   7.783  30.467   5.202
 4178POPC   GL155057   7.633  30.482   5.683
 4178POPC   GL255058   7.379  30.728   5.831
 4178POPC   C1A55059   7.629  30.444   6.172
 4178POPC   D2A55060   7.724  30.621   6.587
 4178POPC   C3A55061   7.463  30.588   6.937
 4178POPC   C4A55062   7.572  30.740   7.329
 4178POPC   C1B55063   7.449  30.937   6.250
 4178POPC   C2B55064   7.209  30.922   6.636
 4178POPC   C3B55065   7.167  31.002   7.077
 4178POPC   C4B55066   7.078  31.366   7.273
 4179POPC   NC355067  29.630  29.925   5.557
 4179POPC   PO455068  30.324  29.586   5.605
 4179POPC   GL155069  29.973  29.693   5.859
 4179POPC   GL255070  30.024  30.052   5.854
 4179POPC   C1A55071  29.818  29.793   6.295
 4179POPC   D2A55072  29.677  30.109   6.620
 4179POPC   C3A55073  29.767  30.033   7.074
 4179POPC   C4A55074  29.887  29.730   7.418
 4179POPC   C1B55075  30.315  29.911   6.191
 4179POPC   C2B55076  30.468  29.777   6.608
 4179POPC   C3B55077  30.296  29.684   7.019
 4179POPC   C4B55078  30.249  30.051   7.242
 4180POPC   NC355079   9.182  25.577   5.314
 4180POPC   PO455080   8.706  25.110   5.470
 4180POPC   GL155081   9.041  25.159   5.786
 4180POPC   GL255082   9.270  25.457   5.792
 4180POPC   C1A55083   9.018  25.276   6.231
 4180POPC   D2A55084   9.027  25.058   6.638
 4180POPC   C3A55085   8.770  25.234   6.996
 4180POPC   C4A55086   8.767  25.251   7.454
 4180POPC   C1B55087   9.468  25.533   6.184
 4180POPC   C2B55088   9.297  25.501   6.608
 4180POPC   C3B55089   9.238  25.454   7.072
 4180POPC   C4B55090   9.503  25.622   7.387
 4181POPC   NC355091  33.718  14.737   5.211
 4181POPC   PO455092  33.754  15.386   5.127
 4181POPC   GL155093  33.721  15.155   5.549
 4181POPC   GL255094  33.992  14.983   5.688
 4181POPC   C1A55095  33.689  15.192   6.025
 4181POPC   D2A55096  33.969  15.231   6.405
 4181POPC   C3A55097  33.676  15.205   6.768
 4181POPC   C4A55098  33.616  15.418   7.161
 4181POPC   C1B55099  34.000  14.794   6.111
 4181POPC   C2B55100  33.831  14.760   6.524
 4181POPC   C3B55101  34.041  14.836   6.906
 4181POPC   C4B55102  33.907  14.977   7.275
 4182POPC   NC355103  43.249  40.726   5.359
 4182POPC   PO455104  42.675  40.576   5.555
 4182POPC   GL155105  43.026  40.640   5.830
 4182POPC   GL255106  43.250  40.956   5.816
 4182POPC   C1A55107  42.985  40.805   6.239
 4182POPC   D2A55108  42.920  40.956   6.657
 4182POPC   C3A55109  43.100  40.663   6.932
 4182POPC   C4A55110  43.136  40.546   7.326
 4182POPC   C1B55111  43.464  40.968   6.231
 4182POPC   C2B55112  43.560  40.887   6.667
 4182POPC   C3B55113  43.434  40.989   7.086
 4182POPC   C4B55114  43.319  40.967   7.520
 4183POPC   NC355115  30.886  39.321   5.188
 4183POPC   PO455116  30.363  38.895   5.412
 4183POPC   GL155117  30.630  39.258   5.654
 4183POPC   GL255118  30.386  39.514   5.745
 4183POPC   C1A55119  30.779  39.359   6.124
 4183POPC   D2A55120  30.863  39.167   6.582
 4183POPC   C3A55121  30.801  39.364   6.962
 4183POPC   C4A55122  30.945  39.178   7.260
 4183POPC   C1B55123  30.322  39.140   6.045
 4183POPC   C2B55124  30.379  39.090   6.469
 4183POPC   C3B55125  30.310  39.226   6.888
 4183POPC   C4B55126  30.276  39.066   7.300
 4184POPC   NC355127  30.622   3.710   5.143
 4184POPC   PO455128  31.037   3.554   5.530
 4184POPC   GL155129  30.845   3.435   5.909
 4184POPC   GL255130  30.580   3.236   5.811
 4184POPC   C1A55131  30.602   3.684   6.220
 4184POPC   D2A55132  30.472   3.876   6.623
 4184POPC   C3A55133  30.727   3.632   6.908
 4184POPC   C4A55134  30.623   3.239   7.137
 4184POPC   C1B55135  30.474   3.181   6.234
 4184POPC   C2B55136  30.403   3.291   6.656
 4184POPC   C3B55137  30.223   3.541   6.987
 4184POPC   C4B55138  30.321   3.491   7.447
 4185POPC   NC355139  41.764   0.078   5.078
 4185POPC   PO455140  41.589   0.641   5.457
 4185POPC   GL155141  41.578   0.649   5.875
 4185POPC   GL255142  41.222   0.750   5.886
 4185POPC   C1A55143  41.769   0.481   6.282
 4185POPC   D2A55144  41.818   0.360   6.725
 4185POPC   C3A55145  41.568   0.372   7.082
 4185POPC   C4A55146  41.830   0.089   7.248
 4185POPC   C1B55147  41.352   0.810   6.287
 4185POPC   C2B55148  41.498   0.740   6.644
 4185POPC   C3B55149  41.375   0.831   7.012
 4185POPC   C4B55150  41.618   0.827   7.362
 4186POPC   NC355151  15.569   6.357   5.334
 4186POPC   PO455152  14.931   6.384   5.286
 4186POPC   GL155153  15.153   6.494   5.689
 4186POPC   GL255154  15.347   6.225   5.834
 4186POPC   C1A55155  15.235   6.636   6.146
 4186POPC   D2A55156  14.953   6.650   6.534
 4186POPC   C3A55157  15.165   6.730   6.931
 4186POPC   C4A55158  15.455   6.982   7.176
 4186POPC   C1B55159  15.579   6.251   6.241
 4186POPC   C2B55160  15.674   6.284   6.674
 4186POPC   C3B55161  15.483   6.338   7.067
 4186POPC   C4B55162  15.194   6.452   7.369
 4187POPC   NC355163  34.991  42.908   5.477
 4187POPC   PO455164  34.340  43.055   5.399
 4187POPC   GL155165  34.436  43.032   5.845
 4187POPC   GL255166  34.794  43.098   5.910
 4187POPC   C1A55167  34.423  43.228   6.252
 4187POPC   D2A55168  34.474  43.084   6.661
 4187POPC   C3A55169  34.351  43.404   6.939
 4187POPC   C4A55170  34.521  43.425   7.335
 4187POPC   C1B55171  34.813  42.865   6.307
 4187POPC   C2B55172  34.978  42.918   6.719
 4187POPC   C3B55173  34.801  42.928   7.139
 4187POPC   C4B55174  34.860  42.653   7.503
 4188POPC   NC355175  20.065  19.495   5.216
 4188POPC   PO455176  19.581  19.050   5.334
 4188POPC   GL155177  19.697  19.264   5.693
 4188POPC   GL255178  20.029  19.117   5.774
 4188POPC   C1A55179  19.535  19.187   6.127
 4188POPC   D2A55180  19.642  18.987   6.516
 4188POPC   C3A55181  19.597  19.178   6.886
 4188POPC   C4A55182  19.777  19.142   7.261
 4188POPC   C1B55183  19.998  18.869   6.172
 4188POPC   C2B55184  20.053  18.698   6.636
 4188POPC   C3B55185  20.113  18.780   7.100
 4188POPC   C4B55186  20.108  18.910   7.570
 4189POPC   NC355187  38.011  43.167   5.359
 4189POPC   PO455188  37.334  43.120   5.411
 4189POPC   GL155189  37.614  43.107   5.739
 4189POPC   GL255190  37.734  43.442   5.704
 4189POPC   C1A55191  37.797  42.907   6.142
 4189POPC   D2A55192  37.878  42.777   6.598
 4189POPC   C3A55193  37.607  42.973   6.939
 4189POPC   C4A55194  37.625  43.009   7.391
 4189POPC   C1B55195  38.047  43.376   6.020
 4189POPC   C2B55196  38.181  43.489   6.422
 4189POPC   C3B55197  37.944  43.340   6.786
 4189POPC   C4B55198  37.783  43.481   7.179
 4190POPC   NC355199   2.733  22.410   5.174
 4190POPC   PO455200   2.364  21.967   5.523
 4190POPC   GL155201   2.666  22.082   5.829
 4190POPC   GL255202   2.774  22.447   5.789
 4190POPC   C1A55203   2.758  21.950   6.261
 4190POPC   D2A55204   2.977  22.073   6.641
 4190POPC   C3A55205   2.803  21.912   6.992
 4190POPC   C4A55206   3.033  21.979   7.330
 4190POPC   C1B55207   2.541  22.407   6.204
 4190POPC   C2B55208   2.486  22.227   6.608
 4190POPC   C3B55209   2.579  22.391   7.009
 4190POPC   C4B55210   2.488  22.171   7.371
 4191POPC   NC355211  39.481  18.173   5.318
 4191POPC   PO455212  38.874  18.443   5.226
 4191POPC   GL155213  39.056  18.325   5.635
 4191POPC   GL255214  39.372  18.400   5.756
 4191POPC   C1A55215  39.019  18.180   6.078
 4191POPC   D2A55216  38.833  17.973   6.430
 4191POPC   C3A55217  39.040  17.950   6.825
 4191POPC   C4A55218  39.102  18.199   7.144
 4191POPC   C1B55219  39.504  18.371   6.155
 4191POPC   C2B55220  39.245  18.346   6.512
 4191POPC   C3B55221  39.419  18.508   6.869
 4191POPC   C4B55222  39.592  18.323   7.189
 4192POPC   NC355223  42.423  19.674   5.386
 4192POPC   PO455224  42.392  20.363   5.374
 4192POPC   GL155225  42.422  20.066   5.714
 4192POPC   GL255226  42.052  19.992   5.683
 4192POPC   C1A55227  42.410  19.792   6.097
 4192POPC   D2A55228  42.334  19.532   6.477
 4192POPC   C3A55229  42.306  19.736   6.886
 4192POPC   C4A55230  42.564  19.698   7.245
 4192POPC   C1B55231  42.072  20.173   6.110
 4192POPC   C2B55232  42.238  20.101   6.512
 4192POPC   C3B55233  42.129  20.245   6.907
 4192POPC   C4B55234  42.210  20.082   7.307
 4193POPC   NC355235  35.188  24.729   5.604
 4193POPC   PO455236  34.485  24.585   5.447
 4193POPC   GL155237  34.731  24.504   5.773
 4193POPC   GL255238  34.986  24.205   5.762
 4193POPC   C1A55239  34.491  24.502   6.170
 4193POPC   D2A55240  34.540  24.283   6.567
 4193POPC   C3A55241  34.360  24.333   6.996
 4193POPC   C4A55242  34.371  24.645   7.338
 4193POPC   C1B55243  34.987  24.435   6.198
 4193POPC   C2B55244  34.790  24.745   6.520
 4193POPC   C3B55245  34.762  24.644   6.967
 4193POPC   C4B55246  34.845  24.395   7.367
 4194POPC   NC355247  17.501  20.932   5.795
 4194POPC   PO455248  17.741  20.523   5.333
 4194POPC   GL155249  17.551  20.388   5.752
 4194POPC   GL255250  17.173  20.488   5.802
 4194POPC   C1A55251  17.503  20.440   6.203
 4194POPC   D2A55252  17.581  20.701   6.572
 4194POPC   C3A55253  17.523  20.539   6.993
 4194POPC   C4A55254  17.613  20.840   7.300
 4194POPC   C1B55255  17.075  20.716   6.211
 4194POPC   C2B55256  17.081  20.531   6.593
 4194POPC   C3B55257  17.124  20.811   6.895
 4194POPC   C4B55258  17.026  20.873   7.278
 4195POPC   NC355259  36.573   4.233   5.569
 4195POPC   PO455260  37.220   4.078   5.487
 4195POPC   GL155261  36.984   3.980   5.836
 4195POPC   GL255262  36.685   3.748   5.780
 4195POPC   C1A55263  37.046   4.208   6.225
 4195POPC   D2A55264  37.049   4.088   6.636
 4195POPC   C3A55265  37.120   4.399   6.902
 4195POPC   C4A55266  37.103   4.282   7.294
 4195POPC   C1B55267  36.598   3.977   6.179
 4195POPC   C2B55268  36.594   4.321   6.508
 4195POPC   C3B55269  36.620   4.282   6.956
 4195POPC   C4B55270  36.668   3.888   7.163
 4196POPC   NC355271  19.498  26.118   5.404
 4196POPC   PO455272  19.966  25.720   5.703
 4196POPC   GL155273  19.681  25.946   5.927
 4196POPC   GL255274  19.409  25.723   5.834
 4196POPC   C1A55275  19.691  26.184   6.327
 4196POPC   D2A55276  19.524  26.363   6.704
 4196POPC   C3A55277  19.685  26.191   7.116
 4196POPC   C4A55278  19.771  26.050   7.554
 4196POPC   C1B55279  19.316  25.834   6.296
 4196POPC   C2B55280  19.427  25.845   6.766
 4196POPC   C3B55281  19.556  25.711   7.196
 4196POPC   C4B55282  19.478  25.581   7.657
 4197POPC   NC355283  15.196  23.794   5.500
 4197POPC   PO455284  14.593  23.519   5.253
 4197POPC   GL155285  14.787  23.453   5.738
 4197POPC   GL255286  15.148  23.404   5.818
 4197POPC   C1A55287  14.922  23.692   6.158
 4197POPC   D2A55288  15.151  23.856   6.500
 4197POPC   C3A55289  14.951  23.773   6.884
 4197POPC   C4A55290  14.780  23.781   7.256
 4197POPC   C1B55291  15.453  23.656   6.110
 4197POPC   C2B55292  15.631  23.617   6.517
 4197POPC   C3B55293  15.478  23.806   6.905
 4197POPC   C4B55294  15.385  23.566   7.247
 4198POPC   NC355295  35.155  44.688   5.278
 4198POPC   PO455296  35.707  44.659   5.653
 4198POPC   GL155297  35.403  44.594   5.919
 4198POPC   GL255298  35.158  44.445   5.728
 4198POPC   C1A55299  35.490  44.594   6.344
 4198POPC   D2A55300  35.601  44.337   6.659
 4198POPC   C3A55301  35.441  44.520   7.008
 4198POPC   C4A55302  35.191  44.729   7.251
 4198POPC   C1B55303  34.899  44.433   6.078
 4198POPC   C2B55304  34.981  44.500   6.483
 4198POPC   C3B55305  34.890  44.553   6.880
 4198POPC   C4B55306  34.849  44.359   7.259
 4199POPC   NC355307  17.049  33.904   5.364
 4199POPC   PO455308  16.375  33.821   5.354
 4199POPC   GL155309  16.597  33.644   5.727
 4199POPC   GL255310  16.962  33.674   5.812
 4199POPC   C1A55311  16.518  33.688   6.187
 4199POPC   D2A55312  16.678  33.523   6.571
 4199POPC   C3A55313  16.579  33.658   7.006
 4199POPC   C4A55314  16.660  34.029   7.253
 4199POPC   C1B55315  17.028  33.779   6.257
 4199POPC   C2B55316  17.051  33.840   6.711
 4199POPC   C3B55317  17.088  33.782   7.143
 4199POPC   C4B55318  17.100  34.022   7.533
 4200POPC   NC355319  16.389  26.786   5.286
 4200POPC   PO455320  17.017  26.890   5.319
 4200POPC   GL155321  17.002  26.624   5.738
 4200POPC   GL255322  16.661  26.512   5.830
 4200POPC   C1A55323  16.960  26.682   6.240
 4200POPC   D2A55324  17.032  27.025   6.584
 4200POPC   C3A55325  16.882  26.985   7.047
 4200POPC   C4A55326  17.115  26.857   7.467
 4200POPC   C1B55327  16.472  26.827   6.170
 4200POPC   C2B55328  16.512  26.956   6.630
 4200POPC   C3B55329  16.481  26.693   7.014
 4200POPC   C4B55330  16.828  26.461   7.207
 4201POPC   NC355331  32.651  29.257   5.183
 4201POPC   PO455332  32.058  29.052   5.494
 4201POPC   GL155333  32.180  29.151   5.857
 4201POPC   GL255334  32.237  28.814   5.974
 4201POPC   C1A55335  32.339  29.434   6.141
 4201POPC   D2A55336  32.345  29.588   6.561
 4201POPC   C3A55337  32.444  29.293   6.881
 4201POPC   C4A55338  32.129  29.119   7.132
 4201POPC   C1B55339  31.899  29.018   6.243
 4201POPC   C2B55340  31.792  29.057   6.671
 4201POPC   C3B55341  31.772  28.732   6.993
 4201POPC   C4B55342  32.162  28.611   7.176
 4202POPC   NC355343  10.063  44.446   5.570
 4202POPC   PO455344   9.622  44.932   5.405
 4202POPC   GL155345   9.599  44.647   5.777
 4202POPC   GL255346   9.854  44.807   5.917
 4202POPC   C1A55347   9.596  44.558   6.258
 4202POPC   D2A55348   9.451  44.493   6.657
 4202POPC   C3A55349   9.730  44.578   7.015
 4202POPC   C4A55350   9.960  44.620   7.387
 4202POPC   C1B55351  10.089  44.786   6.301
 4202POPC   C2B55352  10.248  44.738   6.718
 4202POPC   C3B55353  10.189  44.947   7.093
 4202POPC   C4B55354  10.208  45.000   7.582
 4203POPC   NC355355  28.502   9.575   5.385
 4203POPC   PO455356  28.171  10.174   5.401
 4203POPC   GL155357  28.341   9.832   5.800
 4203POPC   GL255358  28.664   9.567   5.859
 4203POPC   C1A55359  28.343   9.678   6.274
 4203POPC   D2A55360  28.092   9.895   6.600
 4203POPC   C3A55361  28.011   9.866   7.056
 4203POPC   C4A55362  28.218   9.582   7.341
 4203POPC   C1B55363  28.749   9.921   6.123
 4203POPC   C2B55364  28.656   9.928   6.575
 4203POPC   C3B55365  28.478   9.604   6.837
 4203POPC   C4B55366  28.681   9.424   7.202
 4204POPC   NC355367   2.999   8.252   5.415
 4204POPC   PO455368   2.285   8.347   5.295
 4204POPC   GL155369   2.500   8.256   5.761
 4204POPC   GL255370   2.835   8.077   5.867
 4204POPC   C1A55371   2.586   8.285   6.253
 4204POPC   D2A55372   2.659   8.357   6.704
 4204POPC   C3A55373   2.863   8.596   7.052
 4204POPC   C4A55374   3.321   8.644   7.106
 4204POPC   C1B55375   3.061   8.024   6.268
 4204POPC   C2B55376   2.924   7.871   6.695
 4204POPC   C3B55377   2.940   8.088   7.073
 4204POPC   C4B55378   2.665   8.169   7.377
 4205POPC   NC355379  21.732  20.524   5.157
 4205POPC   PO455380  21.574  21.103   5.453
 4205POPC   GL155381  21.651  20.699   5.697
 4205POPC   GL255382  21.341  20.622   5.841
 4205POPC   C1A55383  21.712  20.489   6.154
 4205POPC   D2A55384  21.638  20.671   6.580
 4205POPC   C3A55385  21.598  20.443   6.982
 4205POPC   C4A55386  21.568  20.435   7.421
 4205POPC   C1B55387  21.329  20.848   6.206
 4205POPC   C2B55388  21.136  20.931   6.577
 4205POPC   C3B55389  21.117  20.626   6.863
 4205POPC   C4B55390  21.025  20.580   7.269
 4206POPC   NC355391  28.400  14.099   5.184
 4206POPC   PO455392  28.170  13.485   5.602
 4206POPC   GL155393  28.253  13.620   5.999
 4206POPC   GL255394  28.097  13.944   5.992
 4206POPC   C1A55395  28.525  13.549   6.332
 4206POPC   D2A55396  28.637  13.836   6.652
 4206POPC   C3A55397  28.499  13.676   7.028
 4206POPC   C4A55398  28.553  13.558   7.445
 4206POPC   C1B55399  28.273  14.057   6.372
 4206POPC   C2B55400  28.124  14.008   6.784
 4206POPC   C3B55401  28.217  14.120   7.178
 4206POPC   C4B55402  28.627  14.068   7.335
 4207POPC   NC355403  31.149  35.223   5.593
 4207POPC   PO455404  30.566  35.340   5.257
 4207POPC   GL155405  30.667  35.465   5.704
 4207POPC   GL255406  30.979  35.705   5.760
 4207POPC   C1A55407  30.516  35.245   6.113
 4207POPC   D2A55408  30.339  35.065   6.520
 4207POPC   C3A55409  30.451  35.254   6.945
 4207POPC   C4A55410  30.714  35.470   7.292
 4207POPC   C1B55411  30.935  35.581   6.227
 4207POPC   C2B55412  30.910  35.394   6.675
 4207POPC   C3B55413  30.951  35.099   7.026
 4207POPC   C4B55414  31.060  35.140   7.504
 4208POPC   NC355415   4.851  12.311   5.246
 4208POPC   PO455416   5.470  12.168   5.288
 4208POPC   GL155417   5.189  12.149   5.653
 4208POPC   GL255418   4.976  11.844   5.715
 4208POPC   C1A55419   5.318  12.003   6.077
 4208POPC   D2A55420   5.287  11.773   6.468
 4208POPC   C3A55421   5.209  12.014   6.863
 4208POPC   C4A55422   4.989  12.386   7.079
 4208POPC   C1B55423   4.811  11.952   6.130
 4208POPC   C2B55424   4.718  12.104   6.553
 4208POPC   C3B55425   4.696  11.970   7.000
 4208POPC   C4B55426   5.002  11.942   7.328
 4209POPC   NC355427  11.430  25.801   5.163
 4209POPC   PO455428  11.312  26.415   5.472
 4209POPC   GL155429  11.128  26.133   5.815
 4209POPC   GL255430  11.069  25.775   5.705
 4209POPC   C1A55431  11.147  26.010   6.285
 4209POPC   D2A55432  11.201  25.917   6.743
 4209POPC   C3A55433  11.288  26.198   7.064
 4209POPC   C4A55434  11.676  26.422   7.075
 4209POPC   C1B55435  11.353  25.583   6.039
 4209POPC   C2B55436  11.507  25.573   6.490
 4209POPC   C3B55437  11.390  25.487   6.930
 4209POPC   C4B55438  11.163  25.716   7.251
 4210POPC   NC355439  10.523  21.971   5.481
 4210POPC   PO455440  10.271  22.479   5.221
 4210POPC   GL155441  10.457  22.471   5.685
 4210POPC   GL255442  10.565  22.182   5.932
 4210POPC   C1A55443  10.385  22.587   6.149
 4210POPC   D2A55444  10.602  22.653   6.577
 4210POPC   C3A55445  10.384  22.485   6.970
 4210POPC   C4A55446  10.485  22.090   7.193
 4210POPC   C1B55447  10.725  22.161   6.369
 4210POPC   C2B55448  10.809  22.225   6.811
 4210POPC   C3B55449  10.949  21.919   7.111
 4210POPC   C4B55450  10.887  21.750   7.540
 4211POPC   NC355451  31.844  26.253   5.440
 4211POPC   PO455452  32.502  26.091   5.427
 4211POPC   GL155453  32.257  26.229   5.740
 4211POPC   GL255454  32.061  25.924   5.788
 4211POPC   C1A55455  32.143  26.339   6.142
 4211POPC   D2A55456  32.161  26.136   6.538
 4211POPC   C3A55457  32.051  26.277   6.923
 4211POPC   C4A55458  32.048  26.183   7.360
 4211POPC   C1B55459  32.219  25.783   6.179
 4211POPC   C2B55460  32.126  25.637   6.629
 4211POPC   C3B55461  32.131  25.754   7.081
 4211POPC   C4B55462  31.865  25.729   7.509
 4212POPC   NC355463  16.220  31.559   5.274
 4212POPC   PO455464  15.742  31.193   5.480
 4212POPC   GL155465  15.931  31.475   5.794
 4212POPC   GL255466  15.888  31.805   5.690
 4212POPC   C1A55467  16.046  31.527   6.248
 4212POPC   D2A55468  15.971  31.386   6.682
 4212POPC   C3A55469  16.180  31.603   7.024
 4212POPC   C4A55470  16.242  31.540   7.469
 4212POPC   C1B55471  15.674  31.847   6.093
 4212POPC   C2B55472  15.765  31.904   6.525
 4212POPC   C3B55473  15.701  31.782   6.928
 4212POPC   C4B55474  15.899  31.966   7.290
 4213POPC   NC355475   6.200  40.256   5.553
 4213POPC   PO455476   6.306  39.603   5.685
 4213POPC   GL155477   5.990  39.849   5.863
 4213POPC   GL255478   5.644  39.837   5.725
 4213POPC   C1A55479   5.947  40.130   6.217
 4213POPC   D2A55480   6.166  40.296   6.575
 4213POPC   C3A55481   6.059  40.115   6.954
 4213POPC   C4A55482   6.121  40.015   7.366
 4213POPC   C1B55483   5.575  39.760   6.184
 4213POPC   C2B55484   5.749  39.748   6.635
 4213POPC   C3B55485   5.640  39.839   7.074
 4213POPC   C4B55486   5.643  40.245   7.306
 4214POPC   NC355487  39.332  14.209   5.381
 4214POPC   PO455488  38.758  14.199   5.407
 4214POPC   GL155489  39.062  14.216   5.813
 4214POPC   GL255490  39.398  14.398   5.860
 4214POPC   C1A55491  39.080  14.227   6.278
 4214POPC   D2A55492  38.985  14.006   6.655
 4214POPC   C3A55493  39.113  14.146   7.037
 4214POPC   C4A55494  39.276  14.458   7.266
 4214POPC   C1B55495  39.577  14.148   6.204
 4214POPC   C2B55496  39.487  14.136   6.655
 4214POPC   C3B55497  39.629  14.112   7.097
 4214POPC   C4B55498  39.417  13.978   7.439
 4215POPC   NC355499   4.207  33.595   5.221
 4215POPC   PO455500   4.519  34.149   5.561
 4215POPC   GL155501   4.323  33.874   5.811
 4215POPC   GL255502   4.649  33.845   5.995
 4215POPC   C1A55503   4.206  33.942   6.246
 4215POPC   D2A55504   4.452  34.118   6.591
 4215POPC   C3A55505   4.203  34.167   6.969
 4215POPC   C4A55506   3.975  33.804   7.168
 4215POPC   C1B55507   4.781  33.535   6.270
 4215POPC   C2B55508   4.568  33.453   6.648
 4215POPC   C3B55509   4.450  33.517   7.078
 4215POPC   C4B55510   4.669  33.438   7.460
 4216POPC   NC355511   1.760  23.370   5.589
 4216POPC   PO455512   2.006  23.859   5.162
 4216POPC   GL155513   2.079  23.765   5.646
 4216POPC   GL255514   2.247  23.451   5.715
 4216POPC   C1A55515   2.050  23.803   6.135
 4216POPC   D2A55516   1.723  23.670   6.468
 4216POPC   C3A55517   1.870  23.739   6.894
 4216POPC   C4A55518   2.040  24.043   7.179
 4216POPC   C1B55519   2.251  23.337   6.108
 4216POPC   C2B55520   2.190  23.483   6.538
 4216POPC   C3B55521   2.277  23.344   6.946
 4216POPC   C4B55522   2.133  23.557   7.301
 4217POPC   NC355523  37.509  35.090   5.135
 4217POPC   PO455524  37.048  35.335   5.610
 4217POPC   GL155525  36.836  35.350   5.966
 4217POPC   GL255526  36.612  35.679   5.941
 4217POPC   C1A55527  37.077  35.189   6.354
 4217POPC   D2A55528  37.395  35.060   6.670
 4217POPC   C3A55529  37.091  35.028   6.982
 4217POPC   C4A55530  36.786  35.216   7.222
 4217POPC   C1B55531  36.719  35.592   6.378
 4217POPC   C2B55532  36.811  35.435   6.751
 4217POPC   C3B55533  36.644  35.656   7.059
 4217POPC   C4B55534  36.602  35.642   7.461
 4218POPC   NC355535  12.590  15.354   5.457
 4218POPC   PO455536  12.985  14.759   5.384
 4218POPC   GL155537  12.903  15.041   5.730
 4218POPC   GL255538  13.183  14.957   5.904
 4218POPC   C1A55539  12.834  15.330   6.121
 4218POPC   D2A55540  12.604  15.306   6.540
 4218POPC   C3A55541  12.877  15.310   6.913
 4218POPC   C4A55542  12.968  15.367   7.340
 4218POPC   C1B55543  12.851  14.822   6.184
 4218POPC   C2B55544  12.971  14.931   6.576
 4218POPC   C3B55545  12.831  14.800   6.983
 4218POPC   C4B55546  12.598  15.030   7.269
 4219POPC   NC355547  26.880  29.283   5.379
 4219POPC   PO455548  26.237  29.024   5.398
 4219POPC   GL155549  26.501  29.190   5.791
 4219POPC   GL255550  26.777  29.425   5.852
 4219POPC   C1A55551  26.633  29.168   6.279
 4219POPC   D2A55552  26.544  29.255   6.757
 4219POPC   C3A55553  26.624  28.986   7.149
 4219POPC   C4A55554  26.755  29.078   7.589
 4219POPC   C1B55555  26.909  29.606   6.229
 4219POPC   C2B55556  27.041  29.428   6.633
 4219POPC   C3B55557  26.936  29.393   7.085
 4219POPC   C4B55558  27.189  29.335   7.438
 4220POPC   NC355559  25.221  13.998   5.489
 4220POPC   PO455560  25.158  14.703   5.485
 4220POPC   GL155561  25.174  14.425   5.774
 4220POPC   GL255562  25.520  14.392   5.696
 4220POPC   C1A55563  25.049  14.401   6.199
 4220POPC   D2A55564  25.233  14.594   6.556
 4220POPC   C3A55565  25.235  14.392   6.954
 4220POPC   C4A55566  25.163  14.705   7.296
 4220POPC   C1B55567  25.550  14.275   6.131
 4220POPC   C2B55568  25.470  14.104   6.523
 4220POPC   C3B55569  25.693  14.132   6.899
 4220POPC   C4B55570  25.629  14.348   7.264
 4221POPC   NC355571  30.146  33.601   5.297
 4221POPC   PO455572  29.468  33.614   5.388
 4221POPC   GL155573  29.767  33.627   5.708
 4221POPC   GL255574  29.983  33.924   5.654
 4221POPC   C1A55575  29.757  33.692   6.161
 4221POPC   D2A55576  29.772  33.443   6.537
 4221POPC   C3A55577  29.944  33.667   6.875
 4221POPC   C4A55578  29.715  33.852   7.193
 4221POPC   C1B55579  30.223  33.690   5.963
 4221POPC   C2B55580  30.234  33.752   6.407
 4221POPC   C3B55581  30.275  34.047   6.749
 4221POPC   C4B55582  30.220  33.979   7.203
 4222POPC   NC355583   9.584  28.732   5.199
 4222POPC   PO455584   9.893  28.129   5.459
 4222POPC   GL155585   9.788  28.337   5.835
 4222POPC   GL255586  10.047  28.592   5.946
 4222POPC   C1A55587   9.669  28.504   6.255
 4222POPC   D2A55588   9.782  28.545   6.644
 4222POPC   C3A55589   9.440  28.604   6.883
 4222POPC   C4A55590   9.523  28.744   7.286
 4222POPC   C1B55591  10.082  28.202   6.233
 4222POPC   C2B55592   9.895  28.052   6.625
 4222POPC   C3B55593   9.765  28.194   7.020
 4222POPC   C4B55594   9.800  28.364   7.460
 4223POPC   NC355595  36.479  40.989   5.345
 4223POPC   PO455596  35.909  40.780   5.528
 4223POPC   GL155597  36.049  40.896   5.897
 4223POPC   GL255598  36.353  40.773   5.842
 4223POPC   C1A55599  35.959  40.916   6.321
 4223POPC   D2A55600  35.785  40.681   6.641
 4223POPC   C3A55601  36.036  40.767   6.953
 4223POPC   C4A55602  36.039  41.067   7.248
 4223POPC   C1B55603  36.517  40.684   6.257
 4223POPC   C2B55604  36.670  40.425   6.570
 4223POPC   C3B55605  36.474  40.435   6.960
 4223POPC   C4B55606  36.443  40.757   7.246
 4224POPC   NC355607   2.366  30.573   5.485
 4224POPC   PO455608   1.721  30.723   5.247
 4224POPC   GL155609   1.927  30.786   5.729
 4224POPC   GL255610   2.139  31.074   5.798
 4224POPC   C1A55611   2.044  30.831   6.251
 4224POPC   D2A55612   1.884  30.896   6.740
 4224POPC   C3A55613   1.938  30.562   7.068
 4224POPC   C4A55614   2.297  30.260   7.142
 4224POPC   C1B55615   2.396  31.218   6.168
 4224POPC   C2B55616   2.458  31.106   6.616
 4224POPC   C3B55617   2.337  30.926   7.014
 4224POPC   C4B55618   2.015  31.073   7.267
 4225POPC   NC355619  11.580   0.179   5.553
 4225POPC   PO455620  12.278   0.385   5.476
 4225POPC   GL155621  12.128   0.222   5.847
 4225POPC   GL255622  11.869   0.480   5.881
 4225POPC   C1A55623  12.150   0.323   6.290
 4225POPC   D2A55624  12.426   0.504   6.595
 4225POPC   C3A55625  12.209   0.559   6.991
 4225POPC   C4A55626  12.239   0.189   7.236
 4225POPC   C1B55627  11.709   0.655   6.267
 4225POPC   C2B55628  11.790   0.671   6.711
 4225POPC   C3B55629  11.723   0.757   7.136
 4225POPC   C4B55630  11.906   0.505   7.447
 4226POPC   NC355631  26.765   2.029   5.346
 4226POPC   PO455632  27.269   1.723   5.634
 4226POPC   GL155633  26.959   2.006   5.826
 4226POPC   GL255634  26.685   1.797   5.860
 4226POPC   C1A55635  26.810   2.251   6.193
 4226POPC   D2A55636  26.973   2.312   6.631
 4226POPC   C3A55637  26.677   2.264   6.997
 4226POPC   C4A55638  26.848   2.137   7.425
 4226POPC   C1B55639  26.876   1.752   6.308
 4226POPC   C2B55640  26.875   1.683   6.766
 4226POPC   C3B55641  26.617   1.778   7.120
 4226POPC   C4B55642  26.321   2.048   7.376
 4227POPC   NC355643   7.240  37.068   5.046
 4227POPC   PO455644   7.520  36.514   5.396
 4227POPC   GL155645   7.641  36.795   5.793
 4227POPC   GL255646   7.954  36.677   5.944
 4227POPC   C1A55647   7.559  36.969   6.235
 4227POPC   D2A55648   7.370  37.206   6.612
 4227POPC   C3A55649   7.512  37.071   7.041
 4227POPC   C4A55650   7.497  36.674   7.274
 4227POPC   C1B55651   7.955  36.670   6.367
 4227POPC   C2B55652   7.675  36.716   6.710
 4227POPC   C3B55653   7.952  36.696   7.050
 4227POPC   C4B55654   7.998  36.610   7.474
 4228POPC   NC355655   1.416   2.779   5.531
 4228POPC   PO455656   0.979   2.278   5.305
 4228POPC   GL155657   1.125   2.418   5.728
 4228POPC   GL255658   0.874   2.614   5.697
 4228POPC   C1A55659   1.360   2.592   6.133
 4228POPC   D2A55660   1.584   2.771   6.489
 4228POPC   C3A55661   1.375   2.687   6.868
 4228POPC   C4A55662   1.196   2.782   7.265
 4228POPC   C1B55663   0.832   2.728   6.109
 4228POPC   C2B55664   0.732   2.975   6.469
 4228POPC   C3B55665   0.914   2.950   6.856
 4228POPC   C4B55666   0.895   3.174   7.229
 4229POPC   NC355667   0.063  25.339   5.708
 4229POPC   PO455668  44.521  25.591   5.392
 4229POPC   GL155669  44.563  25.450   5.815
 4229POPC   GL255670  44.791  25.678   6.007
 4229POPC   C1A55671  44.572  25.132   6.148
 4229POPC   D2A55672  44.427  25.281   6.542
 4229POPC   C3A55673  44.697  25.181   6.817
 4229POPC   C4A55674  44.632  24.968   7.151
 4229POPC   C1B55675  44.881  25.465   6.399
 4229POPC   C2B55676   0.206  25.219   6.620
 4229POPC   C3B55677   0.131  25.242   7.069
 4229POPC   C4B55678  44.797  25.474   7.277
 4230POPC   NC355679  43.295  44.151   5.428
 4230POPC   PO455680  42.788  43.792   5.599
 4230POPC   GL155681  43.102  43.979   5.853
 4230POPC   GL255682  42.932  44.267   5.835
 4230POPC   C1A55683  43.367  43.955   6.235
 4230POPC   D2A55684  43.227  43.632   6.520
 4230POPC   C3A55685  43.144  43.663   6.955
 4230POPC   C4A55686  43.419  43.654   7.308
 4230POPC   C1B55687  42.893  44.115   6.288
 4230POPC   C2B55688  43.079  44.153   6.695
 4230POPC   C3B55689  42.919  44.129   7.116
 4230POPC   C4B55690  42.910  43.817   7.387
 4231POPC   NC355691  19.786  30.865   5.584
 4231POPC   PO455692  20.284  30.387   5.425
 4231POPC   GL155693  20.016  30.478   5.846
 4231POPC   GL255694  19.601  30.525   5.924
 4231POPC   C1A55695  20.199  30.618   6.268
 4231POPC   D2A55696  20.283  30.569   6.727
 4231POPC   C3A55697  19.975  30.694   7.009
 4231POPC   C4A55698  20.109  31.071   7.168
 4231POPC   C1B55699  19.309  30.861   6.178
 4231POPC   C2B55700  19.338  31.079   6.619
 4231POPC   C3B55701  19.392  30.956   7.085
 4231POPC   C4B55702  19.670  30.828   7.448
 4232POPC   NC355703  10.236  20.308   5.416
 4232POPC   PO455704  10.678  20.765   5.410
 4232POPC   GL155705  10.413  20.665   5.755
 4232POPC   GL255706  10.274  20.949   5.920
 4232POPC   C1A55707  10.349  20.528   6.175
 4232POPC   D2A55708  10.626  20.636   6.502
 4232POPC   C3A55709  10.464  20.630   6.882
 4232POPC   C4A55710  10.423  20.396   7.227
 4232POPC   C1B55711  10.670  21.017   6.132
 4232POPC   C2B55712  10.807  21.136   6.545
 4232POPC   C3B55713  10.608  21.129   6.911
 4232POPC   C4B55714  10.493  20.977   7.281
 4233POPC   NC355715  18.290   5.247   5.081
 4233POPC   PO455716  18.479   4.656   5.558
 4233POPC   GL155717  18.262   4.976   5.896
 4233POPC   GL255718  18.153   5.353   5.752
 4233POPC   C1A55719  18.049   5.055   6.225
 4233POPC   D2A55720  17.934   4.738   6.475
 4233POPC   C3A55721  18.295   4.833   6.676
 4233POPC   C4A55722  18.267   5.054   7.034
 4233POPC   C1B55723  18.310   5.482   6.125
 4233POPC   C2B55724  18.273   5.433   6.577
 4233POPC   C3B55725  18.303   5.574   7.026
 4233POPC   C4B55726  18.001   5.383   7.322
 4234POPC   NC355727   3.141   0.921   5.275
 4234POPC   PO455728   3.759   0.852   5.543
 4234POPC   GL155729   3.557   1.036   5.909
 4234POPC   GL255730   3.209   1.119   5.796
 4234POPC   C1A55731   3.687   1.250   6.331
 4234POPC   D2A55732   3.809   1.334   6.790
 4234POPC   C3A55733   3.577   1.060   7.077
 4234POPC   C4A55734   3.115   1.052   7.210
 4234POPC   C1B55735   3.159   1.264   6.239
 4234POPC   C2B55736   3.285   1.261   6.679
 4234POPC   C3B55737   3.354   1.506   7.051
 4234POPC   C4B55738   3.170   1.568   7.457
 4235POPC   NC355739   1.786  24.150   5.435
 4235POPC   PO455740   1.938  24.789   5.525
 4235POPC   GL155741   2.038  24.800   5.985
 4235POPC   GL255742   2.408  24.761   5.993
 4235POPC   C1A55743   1.829  24.605   6.399
 4235POPC   D2A55744   1.666  24.189   6.610
 4235POPC   C3A55745   1.602  24.251   7.052
 4235POPC   C4A55746   1.703  24.558   7.381
 4235POPC   C1B55747   2.280  24.381   6.271
 4235POPC   C2B55748   2.168  24.246   6.708
 4235POPC   C3B55749   2.089  24.548   7.049
 4235POPC   C4B55750   2.217  24.831   7.403
 4236POPC   NC355751  41.674  44.425   5.330
 4236POPC   PO455752  41.331   0.043   5.250
 4236POPC   GL155753  41.294  44.783   5.645
 4236POPC   GL255754  41.074  44.459   5.625
 4236POPC   C1A55755  41.579  44.846   6.032
 4236POPC   D2A55756  41.784  44.945   6.436
 4236POPC   C3A55757  41.558  44.905   6.844
 4236POPC   C4A55758  41.629  44.629   7.230
 4236POPC   C1B55759  41.266  44.441   6.044
 4236POPC   C2B55760  41.317  44.616   6.453
 4236POPC   C3B55761  41.416  44.407   6.835
 4236POPC   C4B55762  41.253  44.285   7.238
 4237POPC   NC355763  44.309  25.099   5.474
 4237POPC   PO455764  43.687  25.194   5.560
 4237POPC   GL155765  43.696  25.449   5.889
 4237POPC   GL255766  44.035  25.528   5.752
 4237POPC   C1A55767  43.653  25.371   6.345
 4237POPC   D2A55768  43.954  25.446   6.702
 4237POPC   C3A55769  43.809  25.261   7.121
 4237POPC   C4A55770  43.614  25.359   7.507
 4237POPC   C1B55771  44.124  25.364   6.146
 4237POPC   C2B55772  44.023  24.998   6.434
 4237POPC   C3B55773  44.165  24.972   6.882
 4237POPC   C4B55774  44.158  24.961   7.364
 4238POPC   NC355775  26.378  32.020   5.421
 4238POPC   PO455776  25.748  32.230   5.143
 4238POPC   GL155777  25.941  32.175   5.608
 4238POPC   GL255778  26.010  31.858   5.775
 4238POPC   C1A55779  25.976  32.328   6.048
 4238POPC   D2A55780  25.967  32.490   6.497
 4238POPC   C3A55781  26.336  32.415   6.769
 4238POPC   C4A55782  26.292  32.442   7.203
 4238POPC   C1B55783  25.814  31.862   6.200
 4238POPC   C2B55784  25.934  31.977   6.633
 4238POPC   C3B55785  25.874  32.200   7.020
 4238POPC   C4B55786  25.720  32.027   7.401
 4239POPC   NC355787  25.623  35.350   5.456
 4239POPC   PO455788  24.879  35.574   5.440
 4239POPC   GL155789  25.048  35.405   5.836
 4239POPC   GL255790  25.047  35.039   5.883
 4239POPC   C1A55791  25.296  35.383   6.230
 4239POPC   D2A55792  25.482  35.466   6.652
 4239POPC   C3A55793  25.392  35.192   7.006
 4239POPC   C4A55794  25.461  35.162   7.450
 4239POPC   C1B55795  24.828  35.168   6.255
 4239POPC   C2B55796  24.989  35.277   6.647
 4239POPC   C3B55797  24.878  35.118   7.037
 4239POPC   C4B55798  24.994  35.357   7.370
 4240POPC   NC355799  19.334  19.458   5.340
 4240POPC   PO455800  19.166  20.097   5.506
 4240POPC   GL155801  19.037  19.730   5.712
 4240POPC   GL255802  19.351  19.640   5.824
 4240POPC   C1A55803  18.857  19.799   6.124
 4240POPC   D2A55804  18.964  19.818   6.560
 4240POPC   C3A55805  19.169  20.047   6.873
 4240POPC   C4A55806  18.812  20.112   7.150
 4240POPC   C1B55807  19.353  19.675   6.241
 4240POPC   C2B55808  19.271  19.411   6.589
 4240POPC   C3B55809  19.169  19.533   6.970
 4240POPC   C4B55810  19.424  19.567   7.285
 4241POPC   NC355811  29.604  34.427   5.450
 4241POPC   PO455812  30.054  34.776   5.072
 4241POPC   GL155813  30.076  34.714   5.579
 4241POPC   GL255814  30.223  34.378   5.722
 4241POPC   C1A55815  30.169  34.753   6.075
 4241POPC   D2A55816  30.167  34.551   6.509
 4241POPC   C3A55817  29.999  34.799   6.862
 4241POPC   C4A55818  29.731  34.683   7.238
 4241POPC   C1B55819  30.035  34.162   6.126
 4241POPC   C2B55820  29.801  34.066   6.539
 4241POPC   C3B55821  29.852  34.280   6.946
 4241POPC   C4B55822  30.222  34.476   7.169
 4242POPC   NC355823  34.175  40.058   5.471
 4242POPC   PO455824  34.858  39.844   5.365
 4242POPC   GL155825  34.796  39.945   5.784
 4242POPC   GL255826  34.498  39.768   5.786
 4242POPC   C1A55827  34.865  40.077   6.213
 4242POPC   D2A55828  34.671  39.975   6.598
 4242POPC   C3A55829  34.463  40.219   6.882
 4242POPC   C4A55830  34.781  40.234   7.173
 4242POPC   C1B55831  34.485  39.677   6.228
 4242POPC   C2B55832  34.294  39.649   6.657
 4242POPC   C3B55833  34.494  39.731   7.034
 4242POPC   C4B55834  34.376  39.966   7.372
 4243POPC   NC355835  12.113  29.769   5.416
 4243POPC   PO455836  11.859  30.432   5.385
 4243POPC   GL155837  11.894  30.108   5.724
 4243POPC   GL255838  12.046  30.338   5.890
 4243POPC   C1A55839  11.937  29.749   6.093
 4243POPC   D2A55840  11.828  29.547   6.527
 4243POPC   C3A55841  11.983  29.784   6.894
 4243POPC   C4A55842  12.019  29.893   7.331
 4243POPC   C1B55843  11.796  30.217   6.239
 4243POPC   C2B55844  12.023  30.237   6.602
 4243POPC   C3B55845  11.941  30.275   6.998
 4243POPC   C4B55846  11.604  30.203   7.243
 4244POPC   NC355847   0.577  28.125   5.338
 4244POPC   PO455848   0.007  28.019   5.694
 4244POPC   GL155849   0.207  28.425   5.784
 4244POPC   GL255850   0.544  28.286   5.833
 4244POPC   C1A55851   0.308  28.548   6.211
 4244POPC   D2A55852   0.179  28.303   6.548
 4244POPC   C3A55853   0.212  28.495   6.914
 4244POPC   C4A55854   0.271  28.266   7.286
 4244POPC   C1B55855   0.776  28.381   6.245
 4244POPC   C2B55856   0.669  28.408   6.656
 4244POPC   C3B55857   0.544  28.098   6.904
 4244POPC   C4B55858   0.729  27.973   7.283
 4245POPC   NC355859  33.868  41.705   5.450
 4245POPC   PO455860  33.387  41.222   5.608
 4245POPC   GL155861  33.494  41.548   5.957
 4245POPC   GL255862  33.827  41.715   5.947
 4245POPC   C1A55863  33.615  41.490   6.409
 4245POPC   D2A55864  33.981  41.242   6.622
 4245POPC   C3A55865  33.997  41.400   7.022
 4245POPC   C4A55866  33.614  41.385   7.222
 4245POPC   C1B55867  34.112  41.576   6.242
 4245POPC   C2B55868  34.021  41.749   6.614
 4245POPC   C3B55869  33.677  41.785   6.869
 4245POPC   C4B55870  33.832  41.817   7.292
 4246POPC   NC355871  22.404  18.732   5.386
 4246POPC   PO455872  22.121  19.354   5.300
 4246POPC   GL155873  22.274  19.167   5.709
 4246POPC   GL255874  22.132  18.840   5.804
 4246POPC   C1A55875  22.207  19.183   6.181
 4246POPC   D2A55876  21.915  18.973   6.478
 4246POPC   C3A55877  21.949  19.147   6.891
 4246POPC   C4A55878  22.183  19.171   7.272
 4246POPC   C1B55879  22.425  18.741   6.151
 4246POPC   C2B55880  22.331  18.710   6.635
 4246POPC   C3B55881  22.162  18.702   7.090
 4246POPC   C4B55882  22.361  18.757   7.529
 4247POPC   NC355883   3.697   0.312   5.408
 4247POPC   PO455884   3.025   0.472   5.209
 4247POPC   GL155885   3.225   0.600   5.669
 4247POPC   GL255886   3.437   0.364   5.846
 4247POPC   C1A55887   3.226   0.718   6.151
 4247POPC   D2A55888   3.179   0.529   6.592
 4247POPC   C3A55889   3.391   0.595   6.996
 4247POPC   C4A55890   3.461   0.682   7.447
 4247POPC   C1B55891   3.258   0.172   6.218
 4247POPC   C2B55892   3.423   0.066   6.634
 4247POPC   C3B55893   3.726   0.196   6.892
 4247POPC   C4B55894   3.657   0.250   7.291
 4248POPC   NC355895  24.808  10.614   5.385
 4248POPC   PO455896  24.255  10.291   5.590
 4248POPC   GL155897  24.247  10.603   5.870
 4248POPC   GL255898  24.553  10.756   5.808
 4248POPC   C1A55899  24.054  10.654   6.290
 4248POPC   D2A55900  24.246  10.612   6.698
 4248POPC   C3A55901  24.175  10.372   7.098
 4248POPC   C4A55902  24.180  10.353   7.589
 4248POPC   C1B55903  24.580  10.506   6.228
 4248POPC   C2B55904  24.752  10.568   6.641
 4248POPC   C3B55905  24.609  10.666   7.058
 4248POPC   C4B55906  24.652  10.314   7.275
 4249POPC   NC355907  36.283  21.803   5.477
 4249POPC   PO455908  35.784  22.045   5.528
 4249POPC   GL155909  36.195  22.129   5.864
 4249POPC   GL255910  36.460  21.820   5.944
 4249POPC   C1A55911  36.316  22.399   6.272
 4249POPC   D2A55912  36.292  22.612   6.743
 4249POPC   C3A55913  36.332  22.286   7.101
 4249POPC   C4A55914  36.319  22.083   7.534
 4249POPC   C1B55915  36.615  21.589   6.331
 4249POPC   C2B55916  36.624  21.799   6.760
 4249POPC   C3B55917  36.366  21.754   7.135
 4249POPC   C4B55918  36.302  21.552   7.548
 4250POPC   NC355919  28.114  10.664   5.486
 4250POPC   PO455920  28.794  10.858   5.251
 4250POPC   GL155921  28.635  10.686   5.696
 4250POPC   GL255922  28.597  10.298   5.728
 4250POPC   C1A55923  28.453  10.802   6.134
 4250POPC   D2A55924  28.112  10.770   6.463
 4250POPC   C3A55925  28.207  10.808   6.898
 4250POPC   C4A55926  28.184  10.714   7.351
 4250POPC   C1B55927  28.335  10.251   6.118
 4250POPC   C2B55928  28.377  10.361   6.550
 4250POPC   C3B55929  28.264  10.298   6.967
 4250POPC   C4B55930  28.513   9.989   7.161
 4251POPC   NC355931  29.235  18.049   5.665
 4251POPC   PO455932  28.687  18.416   5.463
 4251POPC   GL155933  28.940  18.479   5.846
 4251POPC   GL255934  28.879  18.129   6.009
 4251POPC   C1A55935  28.813  18.547   6.295
 4251POPC   D2A55936  28.687  18.176   6.484
 4251POPC   C3A55937  28.757  18.182   6.878
 4251POPC   C4A55938  29.076  18.115   7.116
 4251POPC   C1B55939  29.223  18.254   6.304
 4251POPC   C2B55940  29.150  18.443   6.706
 4251POPC   C3B55941  29.425  18.449   7.057
 4251POPC   C4B55942  29.570  18.036   7.173
 4252POPC   NC355943  37.915  10.215   5.419
 4252POPC   PO455944  37.463  10.717   5.274
 4252POPC   GL155945  37.580  10.474   5.674
 4252POPC   GL255946  37.930  10.571   5.778
 4252POPC   C1A55947  37.626  10.324   6.134
 4252POPC   D2A55948  37.480  10.371   6.593
 4252POPC   C3A55949  37.682  10.216   7.001
 4252POPC   C4A55950  38.116  10.354   7.090
 4252POPC   C1B55951  37.929  10.750   6.184
 4252POPC   C2B55952  37.722  10.865   6.528
 4252POPC   C3B55953  37.758  10.723   6.929
 4252POPC   C4B55954  37.662  10.900   7.292
 4253POPC   NC355955  14.411  31.166   5.698
 4253POPC   PO455956  14.310  30.558   5.468
 4253POPC   GL155957  14.518  30.684   5.837
 4253POPC   GL255958  14.185  30.759   5.929
 4253POPC   C1A55959  14.565  30.829   6.295
 4253POPC   D2A55960  14.696  30.699   6.727
 4253POPC   C3A55961  14.453  30.868   7.061
 4253POPC   C4A55962  14.566  31.116   7.446
 4253POPC   C1B55963  14.004  30.359   6.039
 4253POPC   C2B55964  13.982  30.107   6.424
 4253POPC   C3B55965  14.007  30.187   6.876
 4253POPC   C4B55966  14.034  30.490   7.244
 4254POPC   NC355967  25.590  23.026   5.252
 4254POPC   PO455968  25.003  22.914   5.320
 4254POPC   GL155969  25.205  22.934   5.764
 4254POPC   GL255970  25.508  22.768   5.723
 4254POPC   C1A55971  25.281  22.862   6.271
 4254POPC   D2A55972  25.254  22.729   6.756
 4254POPC   C3A55973  25.071  22.898   7.172
 4254POPC   C4A55974  25.000  22.956   7.661
 4254POPC   C1B55975  25.743  22.995   6.050
 4254POPC   C2B55976  25.695  23.169   6.482
 4254POPC   C3B55977  25.603  23.061   6.918
 4254POPC   C4B55978  25.618  22.648   7.130
 4255POPC   NC355979  18.766  33.295   4.995
 4255POPC   PO455980  18.139  33.051   5.217
 4255POPC   GL155981  18.306  33.024   5.678
 4255POPC   GL255982  18.035  32.874   5.728
 4255POPC   C1A55983  18.459  33.085   6.108
 4255POPC   D2A55984  18.605  33.048   6.536
 4255POPC   C3A55985  18.336  33.266   6.842
 4255POPC   C4A55986  18.212  33.353   7.261
 4255POPC   C1B55987  18.115  32.700   6.127
 4255POPC   C2B55988  18.131  32.898   6.508
 4255POPC   C3B55989  18.301  32.772   6.899
 4255POPC   C4B55990  18.104  32.844   7.302
 4256POPC   NC355991   3.837  16.972   5.351
 4256POPC   PO455992   3.512  16.297   5.353
 4256POPC   GL155993   3.429  16.410   5.794
 4256POPC   GL255994   3.389  16.797   5.828
 4256POPC   C1A55995   3.699  16.443   6.190
 4256POPC   D2A55996   3.662  16.238   6.615
 4256POPC   C3A55997   3.364  16.493   6.848
 4256POPC   C4A55998   3.344  16.609   7.269
 4256POPC   C1B55999   3.474  17.126   6.183
 4256POPC   C2B56000   3.571  17.193   6.647
 4256POPC   C3B56001   3.663  16.925   7.027
 4256POPC   C4B56002   3.711  16.899   7.486
 4257POPC   NC356003   2.605  36.425   5.457
 4257POPC   PO456004   3.047  36.116   5.093
 4257POPC   GL156005   3.001  36.146   5.620
 4257POPC   GL256006   2.760  35.928   5.792
 4257POPC   C1A56007   2.838  36.299   6.091
 4257POPC   D2A56008   2.998  36.304   6.533
 4257POPC   C3A56009   2.834  36.252   6.959
 4257POPC   C4A56010   3.033  36.370   7.338
 4257POPC   C1B56011   2.527  35.848   6.169
 4257POPC   C2B56012   2.565  36.010   6.590
 4257POPC   C3B56013   2.573  35.828   7.011
 4257POPC   C4B56014   2.409  35.957   7.415
 4258POPC   NC356015   4.109  34.357   5.630
 4258POPC   PO456016   4.515  34.715   5.226
 4258POPC   GL156017   4.424  34.773   5.708
 4258POPC   GL256018   4.100  34.772   5.912
 4258POPC   C1A56019   4.528  34.763   6.202
 4258POPC   D2A56020   4.476  34.617   6.666
 4258POPC   C3A56021   4.550  34.885   7.025
 4258POPC   C4A56022   4.207  35.148   7.173
 4258POPC   C1B56023   4.107  34.478   6.311
 4258POPC   C2B56024   3.933  34.590   6.726
 4258POPC   C3B56025   3.935  34.589   7.190
 4258POPC   C4B56026   4.016  34.224   7.468
 4259POPC   NC356027   9.845  33.675   5.221
 4259POPC   PO456028   9.346  34.056   5.449
 4259POPC   GL156029   9.617  33.919   5.784
 4259POPC   GL256030   9.957  34.001   5.698
 4259POPC   C1A56031   9.726  33.860   6.239
 4259POPC   D2A56032   9.509  33.842   6.665
 4259POPC   C3A56033   9.622  33.761   7.106
 4259POPC   C4A56034   9.969  33.546   7.273
 4259POPC   C1B56035   9.951  34.301   6.082
 4259POPC   C2B56036   9.860  34.254   6.545
 4259POPC   C3B56037  10.010  34.060   6.958
 4259POPC   C4B56038   9.924  34.029   7.429
 4260POPC   NC356039  12.717   2.656   5.481
 4260POPC   PO456040  13.059   3.326   5.435
 4260POPC   GL156041  13.113   2.956   5.705
 4260POPC   GL256042  12.793   3.038   5.837
 4260POPC   C1A56043  13.141   2.720   6.116
 4260POPC   D2A56044  13.001   2.498   6.523
 4260POPC   C3A56045  13.131   2.733   6.930
 4260POPC   C4A56046  13.100   2.880   7.381
 4260POPC   C1B56047  12.732   2.995   6.273
 4260POPC   C2B56048  12.465   2.739   6.525
 4260POPC   C3B56049  12.639   2.632   6.883
 4260POPC   C4B56050  12.689   2.996   7.111
 4261POPC   NC356051  27.984  31.166   5.460
 4261POPC   PO456052  27.232  31.360   5.398
 4261POPC   GL156053  27.415  31.472   5.819
 4261POPC   GL256054  27.649  31.223   5.843
 4261POPC   C1A56055  27.397  31.458   6.292
 4261POPC   D2A56056  27.536  31.160   6.619
 4261POPC   C3A56057  27.348  31.178   7.025
 4261POPC   C4A56058  27.367  31.519   7.318
 4261POPC   C1B56059  27.872  31.306   6.237
 4261POPC   C2B56060  28.009  31.544   6.586
 4261POPC   C3B56061  27.830  31.462   6.991
 4261POPC   C4B56062  28.090  31.274   7.266
 4262POPC   NC356063   9.406  13.954   5.530
 4262POPC   PO456064   9.863  13.557   5.214
 4262POPC   GL156065   9.761  13.499   5.699
 4262POPC   GL256066   9.520  13.243   5.813
 4262POPC   C1A56067   9.855  13.342   6.163
 4262POPC   D2A56068   9.636  13.445   6.557
 4262POPC   C3A56069   9.880  13.733   6.748
 4262POPC   C4A56070  10.021  13.709   7.122
 4262POPC   C1B56071   9.422  13.633   6.114
 4262POPC   C2B56072   9.256  13.781   6.553
 4262POPC   C3B56073   9.419  13.748   6.981
 4262POPC   C4B56074   9.607  13.396   7.122
 4263POPC   NC356075  15.613   0.333   5.540
 4263POPC   PO456076  16.254   0.650   5.404
 4263POPC   GL156077  16.250   0.428   5.782
 4263POPC   GL256078  15.920   0.536   5.899
 4263POPC   C1A56079  16.255   0.212   6.180
 4263POPC   D2A56080  16.210   0.407   6.568
 4263POPC   C3A56081  16.243   0.154   6.926
 4263POPC   C4A56082  16.167   0.377   7.312
 4263POPC   C1B56083  15.734   0.248   6.195
 4263POPC   C2B56084  15.828   0.070   6.604
 4263POPC   C3B56085  15.805   0.400   6.924
 4263POPC   C4B56086  15.632   0.420   7.316
 4264POPC   NC356087  29.669   2.653   5.189
 4264POPC   PO456088  30.073   3.118   5.228
 4264POPC   GL156089  29.989   2.857   5.627
 4264POPC   GL256090  30.095   3.073   5.903
 4264POPC   C1A56091  29.798   2.668   6.045
 4264POPC   D2A56092  29.848   2.511   6.494
 4264POPC   C3A56093  29.692   2.662   6.923
 4264POPC   C4A56094  29.636   2.429   7.306
 4264POPC   C1B56095  29.958   3.092   6.354
 4264POPC   C2B56096  29.894   3.175   6.806
 4264POPC   C3B56097  30.122   3.059   7.181
 4264POPC   C4B56098  30.055   3.104   7.645
 4265POPC   NC356099  37.562   4.013   5.183
 4265POPC   PO456100  37.595   3.355   5.413
 4265POPC   GL156101  37.661   3.537   5.824
 4265POPC   GL256102  37.640   3.881   5.704
 4265POPC   C1A56103  37.726   3.486   6.299
 4265POPC   D2A56104  37.703   3.157   6.639
 4265POPC   C3A56105  37.709   3.251   7.085
 4265POPC   C4A56106  37.858   3.652   7.195
 4265POPC   C1B56107  37.420   3.887   6.101
 4265POPC   C2B56108  37.511   3.917   6.501
 4265POPC   C3B56109  37.516   3.635   6.802
 4265POPC   C4B56110  37.264   3.611   7.140
 4266POPC   NC356111   0.824  31.568   5.366
 4266POPC   PO456112   1.391  31.224   5.448
 4266POPC   GL156113   1.341  31.505   5.752
 4266POPC   GL256114   1.039  31.620   5.815
 4266POPC   C1A56115   1.437  31.502   6.180
 4266POPC   D2A56116   1.376  31.721   6.533
 4266POPC   C3A56117   1.300  31.498   6.887
 4266POPC   C4A56118   1.212  31.389   7.311
 4266POPC   C1B56119   0.929  31.644   6.226
 4266POPC   C2B56120   0.832  31.507   6.631
 4266POPC   C3B56121   0.855  31.697   7.037
 4266POPC   C4B56122   0.970  31.811   7.460
 4267POPC   NC356123  24.349   9.863   5.465
 4267POPC   PO456124  24.762   9.399   5.675
 4267POPC   GL156125  24.583   9.677   5.945
 4267POPC   GL256126  24.592  10.054   5.890
 4267POPC   C1A56127  24.394   9.786   6.335
 4267POPC   D2A56128  24.443  10.137   6.611
 4267POPC   C3A56129  24.453   9.937   7.002
 4267POPC   C4A56130  24.254   9.559   7.175
 4267POPC   C1B56131  24.845   9.997   6.246
 4267POPC   C2B56132  24.862   9.608   6.516
 4267POPC   C3B56133  24.714   9.473   6.927
 4267POPC   C4B56134  24.862   9.763   7.247
 4268POPC   NC356135  42.701  22.237   5.382
 4268POPC   PO456136  42.207  21.799   5.201
 4268POPC   GL156137  42.308  21.993   5.634
 4268POPC   GL256138  42.662  21.840   5.744
 4268POPC   C1A56139  42.128  22.290   5.986
 4268POPC   D2A56140  41.994  22.128   6.408
 4268POPC   C3A56141  42.252  22.053   6.765
 4268POPC   C4A56142  42.196  22.179   7.154
 4268POPC   C1B56143  42.596  22.139   6.085
 4268POPC   C2B56144  42.525  22.361   6.470
 4268POPC   C3B56145  42.657  22.346   6.929
 4268POPC   C4B56146  42.662  21.966   7.210
 4269POPC   NC356147  30.512   4.936   5.331
 4269POPC   PO456148  31.181   5.115   5.355
 4269POPC   GL156149  30.927   4.915   5.644
 4269POPC   GL256150  30.704   5.197   5.726
 4269POPC   C1A56151  30.993   4.690   6.025
 4269POPC   D2A56152  30.973   4.821   6.435
 4269POPC   C3A56153  30.957   4.870   6.871
 4269POPC   C4A56154  31.066   5.236   7.077
 4269POPC   C1B56155  30.677   5.117   6.156
 4269POPC   C2B56156  30.524   5.014   6.615
 4269POPC   C3B56157  30.540   5.057   7.096
 4269POPC   C4B56158  30.452   5.416   7.346
 4270POPC   NC356159   4.035  27.533   5.506
 4270POPC   PO456160   4.486  27.955   5.323
 4270POPC   GL156161   4.496  27.748   5.767
 4270POPC   GL256162   4.435  27.357   5.793
 4270POPC   C1A56163   4.360  27.642   6.207
 4270POPC   D2A56164   4.051  27.699   6.498
 4270POPC   C3A56165   4.120  27.723   6.898
 4270POPC   C4A56166   4.401  27.729   7.175
 4270POPC   C1B56167   4.332  27.127   6.189
 4270POPC   C2B56168   4.248  27.241   6.623
 4270POPC   C3B56169   4.417  27.247   7.032
 4270POPC   C4B56170   4.284  27.264   7.462
 4271POPC   NC356171  18.053  24.146   5.339
 4271POPC   PO456172  18.468  24.590   5.384
 4271POPC   GL156173  18.561  24.473   5.789
 4271POPC   GL256174  18.280  24.257   5.782
 4271POPC   C1A56175  18.455  24.565   6.241
 4271POPC   D2A56176  18.546  24.596   6.684
 4271POPC   C3A56177  18.289  24.709   7.033
 4271POPC   C4A56178  18.366  24.803   7.471
 4271POPC   C1B56179  18.070  24.227   6.161
 4271POPC   C2B56180  18.055  24.390   6.571
 4271POPC   C3B56181  18.109  24.173   6.960
 4271POPC   C4B56182  18.070  24.348   7.361
 4272POPC   NC356183  10.755  31.108   5.588
 4272POPC   PO456184  10.570  30.529   5.434
 4272POPC   GL156185  10.461  30.700   5.851
 4272POPC   GL256186  10.795  30.785   5.965
 4272POPC   C1A56187  10.464  30.659   6.321
 4272POPC   D2A56188  10.716  30.915   6.587
 4272POPC   C3A56189  10.603  30.873   7.030
 4272POPC   C4A56190  10.305  30.598   7.218
 4272POPC   C1B56191  10.789  30.332   6.049
 4272POPC   C2B56192  10.588  30.144   6.408
 4272POPC   C3B56193  10.516  30.405   6.785
 4272POPC   C4B56194  10.761  30.391   7.175
 4273POPC   NC356195  16.329  11.619   5.543
 4273POPC   PO456196  16.965  11.320   5.436
 4273POPC   GL156197  16.938  11.264   5.879
 4273POPC   GL256198  16.599  11.128   5.941
 4273POPC   C1A56199  17.095  11.223   6.294
 4273POPC   D2A56200  16.793  10.995   6.565
 4273POPC   C3A56201  16.732  11.078   6.976
 4273POPC   C4A56202  17.010  11.254   7.275
 4273POPC   C1B56203  16.634  11.435   6.294
 4273POPC   C2B56204  16.786  11.538   6.732
 4273POPC   C3B56205  16.602  11.528   7.155
 4273POPC   C4B56206  16.239  11.226   7.165
 4274POPC   NC356207  30.789  31.140   5.353
 4274POPC   PO456208  30.443  30.569   5.462
 4274POPC   GL156209  30.691  30.747   5.801
 4274POPC   GL256210  30.971  30.581   5.650
 4274POPC   C1A56211  30.660  30.859   6.275
 4274POPC   D2A56212  30.492  30.701   6.687
 4274POPC   C3A56213  30.567  30.852   7.109
 4274POPC   C4A56214  30.953  30.934   7.360
 4274POPC   C1B56215  31.033  30.461   6.085
 4274POPC   C2B56216  31.081  30.627   6.483
 4274POPC   C3B56217  30.999  30.662   6.888
 4274POPC   C4B56218  31.195  30.291   7.040
 4275POPC   NC356219   9.938   2.585   5.764
 4275POPC   PO456220  10.530   2.898   5.411
 4275POPC   GL156221  10.655   3.015   5.866
 4275POPC   GL256222  10.370   3.192   5.868
 4275POPC   C1A56223  10.779   3.013   6.361
 4275POPC   D2A56224  10.684   2.744   6.704
 4275POPC   C3A56225  10.763   2.809   7.126
 4275POPC   C4A56226  10.519   2.593   7.363
 4275POPC   C1B56227  10.279   2.978   6.246
 4275POPC   C2B56228  10.263   3.074   6.646
 4275POPC   C3B56229  10.296   2.960   7.043
 4275POPC   C4B56230  10.203   2.965   7.478
 4276POPC   NC356231  13.943   6.173   5.383
 4276POPC   PO456232  13.822   5.561   5.486
 4276POPC   GL156233  13.713   5.506   5.924
 4276POPC   GL256234  13.606   5.831   5.963
 4276POPC   C1A56235  13.883   5.646   6.353
 4276POPC   D2A56236  13.681   5.806   6.765
 4276POPC   C3A56237  13.781   5.789   7.228
 4276POPC   C4A56238  13.655   5.552   7.612
 4276POPC   C1B56239  13.337   5.614   6.285
 4276POPC   C2B56240  13.185   5.605   6.723
 4276POPC   C3B56241  13.265   5.800   7.142
 4276POPC   C4B56242  13.420   6.023   7.525
 4277POPC   NC356243  39.563  41.141   5.461
 4277POPC   PO456244  39.437  40.538   5.133
 4277POPC   GL156245  39.148  40.826   5.530
 4277POPC   GL256246  39.243  41.050   5.830
 4277POPC   C1A56247  38.934  40.701   5.994
 4277POPC   D2A56248  39.153  40.773   6.435
 4277POPC   C3A56249  38.987  40.693   6.883
 4277POPC   C4A56250  39.136  40.747   7.313
 4277POPC   C1B56251  39.589  41.020   6.150
 4277POPC   C2B56252  39.683  40.839   6.557
 4277POPC   C3B56253  39.529  40.779   6.982
 4277POPC   C4B56254  39.500  41.144   7.263
 4278POPC   NC356255  20.735  21.836   5.587
 4278POPC   PO456256  21.063  22.437   5.783
 4278POPC   GL156257  20.783  22.194   5.942
 4278POPC   GL256258  20.479  22.372   5.971
 4278POPC   C1A56259  20.750  22.208   6.363
 4278POPC   D2A56260  20.560  22.096   6.701
 4278POPC   C3A56261  20.824  22.293   6.972
 4278POPC   C4A56262  20.761  22.219   7.374
 4278POPC   C1B56263  20.275  22.035   6.263
 4278POPC   C2B56264  20.065  22.095   6.669
 4278POPC   C3B56265  20.202  21.920   7.091
 4278POPC   C4B56266  20.277  22.150   7.502
 4279POPC   NC356267  10.030   5.419   5.236
 4279POPC   PO456268   9.777   4.859   5.442
 4279POPC   GL156269   9.905   4.885   5.862
 4279POPC   GL256270   9.944   5.247   5.953
 4279POPC   C1A56271   9.763   4.914   6.294
 4279POPC   D2A56272   9.726   4.988   6.706
 4279POPC   C3A56273   9.931   4.790   7.004
 4279POPC   C4A56274   9.749   4.740   7.400
 4279POPC   C1B56275   9.935   5.388   6.416
 4279POPC   C2B56276   9.710   5.477   6.825
 4279POPC   C3B56277   9.741   5.259   7.239
 4279POPC   C4B56278   9.947   5.421   7.648
 4280POPC   NC356279  41.078  41.465   5.286
 4280POPC   PO456280  40.464  41.235   5.516
 4280POPC   GL156281  40.765  41.505   5.697
 4280POPC   GL256282  40.951  41.253   5.766
 4280POPC   C1A56283  40.959  41.723   6.031
 4280POPC   D2A56284  40.968  41.904   6.446
 4280POPC   C3A56285  41.138  41.686   6.789
 4280POPC   C4A56286  40.992  41.845   7.177
 4280POPC   C1B56287  40.643  41.314   6.149
 4280POPC   C2B56288  40.815  41.354   6.560
 4280POPC   C3B56289  40.680  41.466   6.977
 4280POPC   C4B56290  40.447  41.237   7.310
 4281POPC   NC356291  25.036  37.558   5.524
 4281POPC   PO456292  24.470  37.265   5.181
 4281POPC   GL156293  24.295  37.431   5.633
 4281POPC   GL256294  24.327  37.777   5.750
 4281POPC   C1A56295  24.161  37.373   6.102
 4281POPC   D2A56296  24.328  37.480   6.524
 4281POPC   C3A56297  24.220  37.351   6.948
 4281POPC   C4A56298  24.527  37.463   7.262
 4281POPC   C1B56299  24.254  37.880   6.213
 4281POPC   C2B56300  24.131  37.963   6.673
 4281POPC   C3B56301  24.234  38.044   7.119
 4281POPC   C4B56302  24.348  38.317   7.510
 4282POPC   NC356303  16.593  11.802   5.013
 4282POPC   PO456304  16.358  12.088   5.569
 4282POPC   GL156305  16.532  11.854   5.954
 4282POPC   GL256306  16.885  11.760   5.937
 4282POPC   C1A56307  16.602  11.936   6.404
 4282POPC   D2A56308  16.384  12.071   6.768
 4282POPC   C3A56309  16.592  12.046   7.167
 4282POPC   C4A56310  16.491  11.826   7.568
 4282POPC   C1B56311  17.084  11.748   6.370
 4282POPC   C2B56312  17.000  12.013   6.764
 4282POPC   C3B56313  17.246  12.136   7.145
 4282POPC   C4B56314  17.281  12.190   7.617
 4283POPC   NC356315   6.884  26.489   5.369
 4283POPC   PO456316   6.512  27.016   5.140
 4283POPC   GL156317   6.519  26.901   5.590
 4283POPC   GL256318   6.491  26.542   5.715
 4283POPC   C1A56319   6.547  26.962   6.050
 4283POPC   D2A56320   6.373  26.765   6.425
 4283POPC   C3A56321   6.581  26.618   6.823
 4283POPC   C4A56322   6.788  26.658   7.192
 4283POPC   C1B56323   6.844  26.557   5.994
 4283POPC   C2B56324   6.852  26.563   6.410
 4283POPC   C3B56325   7.048  26.350   6.761
 4283POPC   C4B56326   7.166  26.231   7.167
 4284POPC   NC356327  20.054  23.149   5.367
 4284POPC   PO456328  19.627  22.685   5.575
 4284POPC   GL156329  19.621  23.072   5.805
 4284POPC   GL256330  19.972  23.115   5.882
 4284POPC   C1A56331  19.667  23.094   6.268
 4284POPC   D2A56332  19.912  23.135   6.605
 4284POPC   C3A56333  19.622  22.970   6.908
 4284POPC   C4A56334  19.392  22.792   7.248
 4284POPC   C1B56335  19.988  22.710   6.118
 4284POPC   C2B56336  19.984  22.619   6.562
 4284POPC   C3B56337  20.132  22.846   6.948
 4284POPC   C4B56338  19.925  22.764   7.304
 4285POPC   NC356339   7.664  26.167   5.405
 4285POPC   PO456340   7.236  25.684   5.498
 4285POPC   GL156341   7.441  25.879   5.793
 4285POPC   GL256342   7.277  26.212   5.797
 4285POPC   C1A56343   7.335  25.888   6.209
 4285POPC   D2A56344   7.451  26.046   6.588
 4285POPC   C3A56345   7.245  25.829   6.873
 4285POPC   C4A56346   7.214  25.694   7.261
 4285POPC   C1B56347   7.651  26.287   6.089
 4285POPC   C2B56348   7.746  26.465   6.504
 4285POPC   C3B56349   7.629  26.391   6.938
 4285POPC   C4B56350   7.640  26.008   7.182
 4286POPC   NC356351  36.545  37.255   5.469
 4286POPC   PO456352  36.584  37.966   5.608
 4286POPC   GL156353  36.223  37.690   5.774
 4286POPC   GL256354  36.166  37.319   5.890
 4286POPC   C1A56355  35.951  37.753   6.132
 4286POPC   D2A56356  36.008  37.574   6.526
 4286POPC   C3A56357  35.821  37.684   6.892
 4286POPC   C4A56358  35.917  37.603   7.303
 4286POPC   C1B56359  36.469  37.457   6.192
 4286POPC   C2B56360  36.511  37.520   6.629
 4286POPC   C3B56361  36.279  37.399   6.992
 4286POPC   C4B56362  35.883  37.158   7.011
 4287POPC   NC356363  41.591  19.361   5.302
 4287POPC   PO456364  41.638  18.749   5.472
 4287POPC   GL156365  41.622  18.860   5.867
 4287POPC   GL256366  41.454  19.160   5.782
 4287POPC   C1A56367  41.526  18.928   6.298
 4287POPC   D2A56368  41.487  19.036   6.730
 4287POPC   C3A56369  41.660  18.846   7.113
 4287POPC   C4A56370  41.451  18.900   7.540
 4287POPC   C1B56371  41.775  19.330   6.056
 4287POPC   C2B56372  41.895  19.252   6.493
 4287POPC   C3B56373  41.840  19.364   6.924
 4287POPC   C4B56374  41.796  19.259   7.359
 4288POPC   NC356375   4.306  43.599   5.304
 4288POPC   PO456376   3.826  44.173   5.340
 4288POPC   GL156377   4.136  44.101   5.709
 4288POPC   GL256378   4.223  43.737   5.771
 4288POPC   C1A56379   4.324  44.073   6.146
 4288POPC   D2A56380   4.512  44.207   6.524
 4288POPC   C3A56381   4.313  44.008   6.910
 4288POPC   C4A56382   4.333  44.083   7.332
 4288POPC   C1B56383   4.319  43.524   6.156
 4288POPC   C2B56384   4.486  43.696   6.538
 4288POPC   C3B56385   4.631  43.576   6.925
 4288POPC   C4B56386   4.377  43.593   7.285
 4289POPC   NC356387  27.014   8.748   5.444
 4289POPC   PO456388  26.476   8.969   5.195
 4289POPC   GL156389  26.574   8.925   5.651
 4289POPC   GL256390  26.559   8.620   5.814
 4289POPC   C1A56391  26.804   9.030   6.043
 4289POPC   D2A56392  26.750   9.039   6.500
 4289POPC   C3A56393  26.979   9.336   6.798
 4289POPC   C4A56394  27.199   9.283   7.225
 4289POPC   C1B56395  26.688   8.561   6.218
 4289POPC   C2B56396  27.024   8.584   6.476
 4289POPC   C3B56397  27.113   8.844   6.792
 4289POPC   C4B56398  26.728   8.942   7.031
 4290POPC   NC356399  21.404   8.663   5.119
 4290POPC   PO456400  21.281   9.340   5.258
 4290POPC   GL156401  21.414   9.001   5.543
 4290POPC   GL256402  21.164   9.074   5.780
 4290POPC   C1A56403  21.619   8.945   5.971
 4290POPC   D2A56404  21.566   8.841   6.407
 4290POPC   C3A56405  21.574   9.107   6.754
 4290POPC   C4A56406  21.569   8.960   7.188
 4290POPC   C1B56407  21.096   8.839   6.134
 4290POPC   C2B56408  21.104   9.020   6.518
 4290POPC   C3B56409  21.178   8.779   6.875
 4290POPC   C4B56410  21.033   8.856   7.285
 4291POPC   NC356411  34.062  40.248   4.825
 4291POPC   PO456412  33.718  39.900   5.181
 4291POPC   GL156413  33.713  39.888   5.681
 4291POPC   GL256414  34.013  39.909   5.926
 4291POPC   C1A56415  33.551  39.930   6.133
 4291POPC   D2A56416  33.653  40.111   6.550
 4291POPC   C3A56417  33.537  39.969   6.983
 4291POPC   C4A56418  33.803  40.133   7.338
 4291POPC   C1B56419  33.951  39.599   6.264
 4291POPC   C2B56420  33.793  39.619   6.704
 4291POPC   C3B56421  33.983  39.668   7.140
 4291POPC   C4B56422  33.988  39.725   7.602
 4292POPC   NC356423  21.287  42.065   5.439
 4292POPC   PO456424  21.615  42.663   5.219
 4292POPC   GL156425  21.393  42.537   5.625
 4292POPC   GL256426  21.592  42.280   5.799
 4292POPC   C1A56427  21.289  42.604   6.075
 4292POPC   D2A56428  21.130  42.693   6.478
 4292POPC   C3A56429  21.345  42.660   6.846
 4292POPC   C4A56430  21.201  42.472   7.180
 4292POPC   C1B56431  21.422  42.134   6.204
 4292POPC   C2B56432  21.260  42.199   6.632
 4292POPC   C3B56433  21.444  42.057   7.030
 4292POPC   C4B56434  21.694  42.241   7.378
 4293POPC   NC356435  22.180  39.796   5.528
 4293POPC   PO456436  22.524  40.413   5.466
 4293POPC   GL156437  22.277  40.249   5.883
 4293POPC   GL256438  21.971  40.036   5.979
 4293POPC   C1A56439  22.242  40.139   6.378
 4293POPC   D2A56440  22.238  39.827   6.738
 4293POPC   C3A56441  22.415  40.000   7.115
 4293POPC   C4A56442  22.471  39.828   7.534
 4293POPC   C1B56443  21.673  40.198   6.323
 4293POPC   C2B56444  21.481  40.272   6.755
 4293POPC   C3B56445  21.726  40.427   7.164
 4293POPC   C4B56446  22.029  40.121   7.419
 4294POPC   NC356447  12.693  17.222   5.386
 4294POPC   PO456448  13.113  17.806   5.355
 4294POPC   GL156449  13.017  17.627   5.815
 4294POPC   GL256450  12.694  17.486   5.821
 4294POPC   C1A56451  13.100  17.542   6.332
 4294POPC   D2A56452  13.348  17.419   6.758
 4294POPC   C3A56453  13.168  17.428   7.208
 4294POPC   C4A56454  13.039  17.572   7.644
 4294POPC   C1B56455  12.651  17.756   6.166
 4294POPC   C2B56456  12.613  17.606   6.583
 4294POPC   C3B56457  12.506  17.627   6.988
 4294POPC   C4B56458  12.668  17.407   7.326
 4295POPC   NC356459   1.357  14.547   5.306
 4295POPC   PO456460   0.907  14.911   5.505
 4295POPC   GL156461   1.159  14.590   5.808
 4295POPC   GL256462   1.239  14.226   5.760
 4295POPC   C1A56463   1.094  14.355   6.240
 4295POPC   D2A56464   1.019  14.076   6.616
 4295POPC   C3A56465   1.084  14.280   7.021
 4295POPC   C4A56466   0.827  14.549   7.302
 4295POPC   C1B56467   1.559  14.207   6.099
 4295POPC   C2B56468   1.516  14.136   6.525
 4295POPC   C3B56469   1.500  13.943   6.927
 4295POPC   C4B56470   1.528  14.239   7.269
 4296POPC   NC356471  26.482  18.563   5.474
 4296POPC   PO456472  26.589  17.939   5.176
 4296POPC   GL156473  26.642  17.987   5.668
 4296POPC   GL256474  26.924  18.163   5.872
 4296POPC   C1A56475  26.594  17.962   6.172
 4296POPC   D2A56476  26.947  18.072   6.514
 4296POPC   C3A56477  26.931  17.891   6.937
 4296POPC   C4A56478  26.546  18.013   7.153
 4296POPC   C1B56479  26.732  18.447   6.236
 4296POPC   C2B56480  26.713  18.502   6.708
 4296POPC   C3B56481  26.970  18.368   7.065
 4296POPC   C4B56482  27.102  18.540   7.481
 4297POPC   NC356483  22.190  35.794   5.330
 4297POPC   PO456484  22.374  35.194   5.309
 4297POPC   GL156485  22.187  35.414   5.663
 4297POPC   GL256486  21.868  35.280   5.777
 4297POPC   C1A56487  22.192  35.468   6.110
 4297POPC   D2A56488  22.040  35.635   6.486
 4297POPC   C3A56489  22.110  35.453   6.887
 4297POPC   C4A56490  21.785  35.636   7.156
 4297POPC   C1B56491  21.911  35.042   6.167
 4297POPC   C2B56492  21.785  34.943   6.566
 4297POPC   C3B56493  21.846  35.057   7.011
 4297POPC   C4B56494  22.026  35.235   7.385
 4298POPC   NC356495  21.220  42.931   5.234
 4298POPC   PO456496  21.354  43.552   5.352
 4298POPC   GL156497  21.318  43.207   5.679
 4298POPC   GL256498  21.623  42.992   5.653
 4298POPC   C1A56499  21.123  43.085   6.097
 4298POPC   D2A56500  20.858  43.182   6.445
 4298POPC   C3A56501  21.072  43.092   6.842
 4298POPC   C4A56502  21.281  42.974   7.241
 4298POPC   C1B56503  21.628  43.164   6.081
 4298POPC   C2B56504  21.531  43.009   6.473
 4298POPC   C3B56505  21.591  43.154   6.881
 4298POPC   C4B56506  21.714  43.271   7.272
 4299POPC   NC356507   7.782   0.594   5.367
 4299POPC   PO456508   7.167   0.282   5.311
 4299POPC   GL156509   7.359   0.452   5.686
 4299POPC   GL256510   7.216   0.759   5.739
 4299POPC   C1A56511   7.522   0.355   6.113
 4299POPC   D2A56512   7.421   0.526   6.510
 4299POPC   C3A56513   7.422   0.290   6.851
 4299POPC   C4A56514   7.505   0.151   7.232
 4299POPC   C1B56515   7.072   0.622   6.134
 4299POPC   C2B56516   6.922   0.662   6.592
 4299POPC   C3B56517   7.042   0.619   7.035
 4299POPC   C4B56518   7.451   0.654   7.211
 4300POPC   NC356519  34.275  35.619   5.298
 4300POPC   PO456520  34.781  35.130   5.507
 4300POPC   GL156521  34.657  35.535   5.738
 4300POPC   GL256522  34.282  35.579   5.807
 4300POPC   C1A56523  34.648  35.539   6.208
 4300POPC   D2A56524  34.837  35.441   6.634
 4300POPC   C3A56525  34.542  35.173   6.851
 4300POPC   C4A56526  34.410  35.067   7.264
 4300POPC   C1B56527  34.136  35.682   6.222
 4300POPC   C2B56528  34.294  35.641   6.669
 4300POPC   C3B56529  34.529  35.672   7.074
 4300POPC   C4B56530  34.311  35.678   7.518
 4301POPC   NC356531  13.726  21.413   5.449
 4301POPC   PO456532  13.202  20.945   5.398
 4301POPC   GL156533  13.402  21.170   5.776
 4301POPC   GL256534  13.391  21.544   5.799
 4301POPC   C1A56535  13.683  21.269   6.162
 4301POPC   D2A56536  13.871  21.420   6.578
 4301POPC   C3A56537  13.740  21.166   6.942
 4301POPC   C4A56538  13.677  21.219   7.409
 4301POPC   C1B56539  13.414  21.759   6.226
 4301POPC   C2B56540  13.584  21.873   6.651
 4301POPC   C3B56541  13.695  21.678   7.056
 4301POPC   C4B56542  13.446  21.664   7.484
 4302POPC   NC356543  41.165  24.201   5.588
 4302POPC   PO456544  41.521  24.668   5.294
 4302POPC   GL156545  41.464  24.600   5.768
 4302POPC   GL256546  41.112  24.676   5.833
 4302POPC   C1A56547  41.615  24.288   6.145
 4302POPC   D2A56548  41.820  24.274   6.569
 4302POPC   C3A56549  41.604  24.309   6.974
 4302POPC   C4A56550  41.813  24.370   7.388
 4302POPC   C1B56551  41.230  24.585   6.266
 4302POPC   C2B56552  41.123  24.573   6.747
 4302POPC   C3B56553  41.325  24.690   7.169
 4302POPC   C4B56554  41.433  24.683   7.621
 4303POPC   NC356555  23.138  17.764   5.361
 4303POPC   PO456556  22.505  17.478   5.391
 4303POPC   GL156557  22.751  17.652   5.717
 4303POPC   GL256558  23.012  17.414   5.717
 4303POPC   C1A56559  22.974  17.752   6.107
 4303POPC   D2A56560  23.185  17.592   6.493
 4303POPC   C3A56561  22.958  17.714   6.857
 4303POPC   C4A56562  23.026  17.775   7.286
 4303POPC   C1B56563  23.108  17.244   6.095
 4303POPC   C2B56564  22.770  17.315   6.360
 4303POPC   C3B56565  22.678  17.309   6.769
 4303POPC   C4B56566  22.877  17.194   7.148
 4304POPC   NC356567  29.686  28.181   5.422
 4304POPC   PO456568  30.001  28.715   5.236
 4304POPC   GL156569  29.949  28.568   5.722
 4304POPC   GL256570  29.679  28.340   5.911
 4304POPC   C1A56571  30.070  28.476   6.184
 4304POPC   D2A56572  29.751  28.442   6.531
 4304POPC   C3A56573  29.955  28.429   6.938
 4304POPC   C4A56574  30.085  28.410   7.389
 4304POPC   C1B56575  29.822  27.998   6.189
 4304POPC   C2B56576  30.024  28.005   6.586
 4304POPC   C3B56577  29.801  27.925   6.943
 4304POPC   C4B56578  29.922  27.927   7.357
 4305POPC   NC356579   2.282  35.480   5.521
 4305POPC   PO456580   1.736  35.106   5.522
 4305POPC   GL156581   1.919  35.114   5.910
 4305POPC   GL256582   2.270  35.050   5.799
 4305POPC   C1A56583   1.874  35.350   6.318
 4305POPC   D2A56584   2.187  35.652   6.520
 4305POPC   C3A56585   2.094  35.702   6.929
 4305POPC   C4A56586   1.738  35.500   7.117
 4305POPC   C1B56587   2.352  35.312   6.165
 4305POPC   C2B56588   2.305  35.162   6.589
 4305POPC   C3B56589   2.375  35.240   7.026
 4305POPC   C4B56590   2.025  35.069   7.252
 4306POPC   NC356591  13.991  22.372   5.545
 4306POPC   PO456592  14.490  21.967   5.424
 4306POPC   GL156593  14.468  22.186   5.776
 4306POPC   GL256594  14.482  22.558   5.672
 4306POPC   C1A56595  14.312  22.055   6.184
 4306POPC   D2A56596  14.267  21.752   6.507
 4306POPC   C3A56597  14.315  21.825   6.919
 4306POPC   C4A56598  14.222  22.076   7.237
 4306POPC   C1B56599  14.508  22.542   6.124
 4306POPC   C2B56600  14.440  22.429   6.525
 4306POPC   C3B56601  14.207  22.564   6.868
 4306POPC   C4B56602  14.438  22.545   7.212
 4307POPC   NC356603  44.218  25.924   5.493
 4307POPC   PO456604  43.587  26.008   5.463
 4307POPC   GL156605  43.819  25.991   5.831
 4307POPC   GL256606  44.039  26.284   5.818
 4307POPC   C1A56607  43.882  25.818   6.228
 4307POPC   D2A56608  43.957  25.996   6.629
 4307POPC   C3A56609  44.059  25.838   7.024
 4307POPC   C4A56610  43.843  25.795   7.393
 4307POPC   C1B56611  44.180  26.319   6.259
 4307POPC   C2B56612  43.936  26.510   6.615
 4307POPC   C3B56613  43.870  26.330   7.025
 4307POPC   C4B56614  44.139  26.266   7.360
 4308POPC   NC356615  39.321  11.913   5.009
 4308POPC   PO456616  39.022  11.952   5.626
 4308POPC   GL156617  39.350  11.884   5.929
 4308POPC   GL256618  39.166  12.165   6.091
 4308POPC   C1A56619  39.364  11.787   6.386
 4308POPC   D2A56620  39.085  12.049   6.614
 4308POPC   C3A56621  38.990  11.983   7.035
 4308POPC   C4A56622  39.123  12.153   7.435
 4308POPC   C1B56623  39.282  12.510   6.369
 4308POPC   C2B56624  39.337  12.474   6.766
 4308POPC   C3B56625  39.466  12.202   7.062
 4308POPC   C4B56626  39.668  12.286   7.435
 4309POPC   NC356627  19.095  32.742   5.456
 4309POPC   PO456628  18.707  32.279   5.498
 4309POPC   GL156629  18.870  32.478   5.850
 4309POPC   GL256630  19.180  32.330   5.765
 4309POPC   C1A56631  19.024  32.361   6.256
 4309POPC   D2A56632  18.923  32.122   6.578
 4309POPC   C3A56633  18.976  32.261   7.005
 4309POPC   C4A56634  19.106  31.947   7.288
 4309POPC   C1B56635  19.442  32.575   6.037
 4309POPC   C2B56636  19.425  32.703   6.466
 4309POPC   C3B56637  19.421  32.480   6.858
 4309POPC   C4B56638  19.422  32.325   7.291
 4310POPC   NC356639  38.279  17.774   5.297
 4310POPC   PO456640  38.660  17.195   5.375
 4310POPC   GL156641  38.509  17.395   5.771
 4310POPC   GL256642  38.355  17.753   5.805
 4310POPC   C1A56643  38.596  17.442   6.226
 4310POPC   D2A56644  38.788  17.485   6.642
 4310POPC   C3A56645  38.562  17.514   7.046
 4310POPC   C4A56646  38.256  17.238   7.253
 4310POPC   C1B56647  38.115  17.629   6.172
 4310POPC   C2B56648  38.209  17.414   6.581
 4310POPC   C3B56649  38.044  17.596   6.941
 4310POPC   C4B56650  38.165  17.823   7.248
 4311POPC   NC356651   5.897  22.781   5.369
 4311POPC   PO456652   5.364  23.053   5.638
 4311POPC   GL156653   5.624  22.756   5.824
 4311POPC   GL256654   5.798  23.068   5.960
 4311POPC   C1A56655   5.941  22.610   6.122
 4311POPC   D2A56656   5.989  22.895   6.479
 4311POPC   C3A56657   5.756  22.808   6.864
 4311POPC   C4A56658   5.845  22.645   7.254
 4311POPC   C1B56659   5.453  23.196   6.255
 4311POPC   C2B56660   5.366  23.114   6.668
 4311POPC   C3B56661   5.578  23.255   7.027
 4311POPC   C4B56662   5.806  23.207   7.423
 4312POPC   NC356663  32.248  33.191   5.255
 4312POPC   PO456664  32.721  32.780   5.472
 4312POPC   GL156665  32.557  32.968   5.838
 4312POPC   GL256666  32.354  33.245   5.741
 4312POPC   C1A56667  32.459  32.877   6.282
 4312POPC   D2A56668  32.452  33.089   6.702
 4312POPC   C3A56669  32.456  32.987   7.140
 4312POPC   C4A56670  32.440  32.575   7.297
 4312POPC   C1B56671  32.079  33.216   6.068
 4312POPC   C2B56672  32.091  33.417   6.445
 4312POPC   C3B56673  31.981  33.309   6.818
 4312POPC   C4B56674  32.012  33.260   7.200
 4313POPC   NC356675  16.712  30.548   5.288
 4313POPC   PO456676  16.682  31.096   5.625
 4313POPC   GL156677  16.533  30.692   5.785
 4313POPC   GL256678  16.746  30.357   5.779
 4313POPC   C1A56679  16.351  30.720   6.200
 4313POPC   D2A56680  16.356  30.997   6.566
 4313POPC   C3A56681  16.367  30.724   6.930
 4313POPC   C4A56682  16.418  30.667   7.350
 4313POPC   C1B56683  16.847  30.551   6.182
 4313POPC   C2B56684  16.770  30.673   6.616
 4313POPC   C3B56685  16.865  30.516   7.054
 4313POPC   C4B56686  17.225  30.493   7.388
 4314POPC   NC356687  34.375   9.570   5.008
 4314POPC   PO456688  33.805   9.902   5.171
 4314POPC   GL156689  33.736   9.902   5.650
 4314POPC   GL256690  34.033  10.037   5.810
 4314POPC   C1A56691  33.704   9.752   6.111
 4314POPC   D2A56692  33.908   9.660   6.532
 4314POPC   C3A56693  33.726   9.745   6.975
 4314POPC   C4A56694  33.915   9.692   7.428
 4314POPC   C1B56695  33.970  10.177   6.254
 4314POPC   C2B56696  33.889  10.134   6.690
 4314POPC   C3B56697  34.143  10.015   7.052
 4314POPC   C4B56698  34.237  10.161   7.461
 4315POPC   NC356699   1.343  13.890   5.261
 4315POPC   PO456700   0.696  13.870   5.399
 4315POPC   GL156701   1.070  13.740   5.681
 4315POPC   GL256702   1.242  13.439   5.842
 4315POPC   C1A56703   1.152  13.852   6.133
 4315POPC   D2A56704   1.273  13.635   6.527
 4315POPC   C3A56705   1.073  13.653   6.924
 4315POPC   C4A56706   1.203  13.712   7.325
 4315POPC   C1B56707   1.404  13.210   6.215
 4315POPC   C2B56708   1.636  13.294   6.616
 4315POPC   C3B56709   1.490  13.345   7.032
 4315POPC   C4B56710   1.219  13.137   7.344
 4316POPC   NC356711  12.042  20.583   5.415
 4316POPC   PO456712  12.276  21.192   5.183
 4316POPC   GL156713  12.145  21.057   5.679
 4316POPC   GL256714  11.850  20.811   5.816
 4316POPC   C1A56715  12.214  20.896   6.151
 4316POPC   D2A56716  11.999  20.751   6.540
 4316POPC   C3A56717  12.168  20.582   6.930
 4316POPC   C4A56718  12.391  20.834   7.259
 4316POPC   C1B56719  11.828  20.451   6.156
 4316POPC   C2B56720  11.845  20.260   6.619
 4316POPC   C3B56721  11.791  20.270   7.110
 4316POPC   C4B56722  11.675  20.219   7.579
 4317POPC   NC356723  27.819   7.361   5.475
 4317POPC   PO456724  27.104   7.621   5.442
 4317POPC   GL156725  27.437   7.629   5.802
 4317POPC   GL256726  27.526   7.282   5.885
 4317POPC   C1A56727  27.642   7.707   6.243
 4317POPC   D2A56728  27.990   7.631   6.576
 4317POPC   C3A56729  27.867   7.736   6.995
 4317POPC   C4A56730  27.520   7.555   7.158
 4317POPC   C1B56731  27.410   7.206   6.292
 4317POPC   C2B56732  27.538   7.302   6.695
 4317POPC   C3B56733  27.554   7.059   7.059
 4317POPC   C4B56734  27.426   6.920   7.427
 4318POPC   NC356735  22.016  17.002   5.274
 4318POPC   PO456736  22.365  16.489   5.333
 4318POPC   GL156737  22.218  16.516   5.736
 4318POPC   GL256738  22.529  16.675   5.785
 4318POPC   C1A56739  21.961  16.550   6.120
 4318POPC   D2A56740  21.881  16.819   6.510
 4318POPC   C3A56741  22.073  16.903   6.915
 4318POPC   C4A56742  22.041  16.701   7.329
 4318POPC   C1B56743  22.273  16.960   6.024
 4318POPC   C2B56744  22.318  17.078   6.454
 4318POPC   C3B56745  22.543  16.830   6.771
 4318POPC   C4B56746  22.510  16.837   7.194
 4319POPC   NC356747  38.696  21.078   5.510
 4319POPC   PO456748  38.212  21.431   5.372
 4319POPC   GL156749  38.293  21.263   5.788
 4319POPC   GL256750  38.577  21.492   5.813
 4319POPC   C1A56751  38.349  21.379   6.249
 4319POPC   D2A56752  38.389  21.759   6.538
 4319POPC   C3A56753  38.351  21.556   6.895
 4319POPC   C4A56754  38.496  21.126   6.993
 4319POPC   C1B56755  38.825  21.217   6.123
 4319POPC   C2B56756  39.026  21.220   6.517
 4319POPC   C3B56757  38.879  21.436   6.863
 4319POPC   C4B56758  38.919  21.288   7.260
 4320POPC   NC356759  16.315  19.449   5.457
 4320POPC   PO456760  16.100  18.778   5.576
 4320POPC   GL156761  15.894  19.047   5.844
 4320POPC   GL256762  15.544  19.026   5.717
 4320POPC   C1A56763  16.000  19.159   6.281
 4320POPC   D2A56764  16.359  19.159   6.585
 4320POPC   C3A56765  16.188  19.119   7.003
 4320POPC   C4A56766  16.308  18.867   7.347
 4320POPC   C1B56767  15.517  18.888   6.144
 4320POPC   C2B56768  15.713  18.772   6.520
 4320POPC   C3B56769  15.534  18.787   6.910
 4320POPC   C4B56770  15.733  19.016   7.215
 4321POPC   NC356771  16.472   4.302   5.117
 4321POPC   PO456772  15.840   4.097   5.351
 4321POPC   GL156773  15.754   3.934   5.750
 4321POPC   GL256774  16.088   4.024   5.835
 4321POPC   C1A56775  15.650   4.145   6.120
 4321POPC   D2A56776  15.828   4.291   6.504
 4321POPC   C3A56777  15.595   4.305   6.890
 4321POPC   C4A56778  15.866   4.419   7.273
 4321POPC   C1B56779  16.300   4.146   6.207
 4321POPC   C2B56780  16.285   4.043   6.637
 4321POPC   C3B56781  16.287   4.257   7.019
 4321POPC   C4B56782  16.283   4.039   7.390
 4322POPC   NC356783  35.837  27.904   5.409
 4322POPC   PO456784  35.389  27.408   5.338
 4322POPC   GL156785  35.431  27.458   5.763
 4322POPC   GL256786  35.745  27.457   5.739
 4322POPC   C1A56787  35.421  27.407   6.215
 4322POPC   D2A56788  35.176  27.294   6.598
 4322POPC   C3A56789  35.207  27.436   7.027
 4322POPC   C4A56790  35.148  27.878   7.144
 4322POPC   C1B56791  35.701  27.805   6.059
 4322POPC   C2B56792  35.638  27.748   6.533
 4322POPC   C3B56793  35.627  27.755   6.992
 4322POPC   C4B56794  35.600  27.490   7.367
 4323POPC   NC356795   2.062   7.948   5.244
 4323POPC   PO456796   1.566   8.240   5.584
 4323POPC   GL156797   1.977   8.237   5.720
 4323POPC   GL256798   2.100   7.896   5.741
 4323POPC   C1A56799   2.091   8.212   6.164
 4323POPC   D2A56800   2.142   8.351   6.608
 4323POPC   C3A56801   1.922   8.105   6.955
 4323POPC   C4A56802   1.592   8.140   7.271
 4323POPC   C1B56803   2.406   7.821   6.044
 4323POPC   C2B56804   2.434   7.836   6.512
 4323POPC   C3B56805   2.433   7.980   6.930
 4323POPC   C4B56806   2.314   8.405   7.096
 4324POPC   NC356807  28.478   1.453   5.413
 4324POPC   PO456808  28.222   0.841   5.697
 4324POPC   GL156809  28.431   1.131   5.929
 4324POPC   GL256810  28.266   1.465   5.889
 4324POPC   C1A56811  28.260   1.141   6.362
 4324POPC   D2A56812  28.063   1.181   6.780
 4324POPC   C3A56813  28.349   1.063   7.098
 4324POPC   C4A56814  28.820   1.124   7.166
 4324POPC   C1B56815  28.562   1.537   6.233
 4324POPC   C2B56816  28.517   1.467   6.675
 4324POPC   C3B56817  28.544   1.535   7.086
 4324POPC   C4B56818  28.686   1.505   7.504
 4325POPC   NC356819  11.723  26.261   5.644
 4325POPC   PO456820  12.106  26.742   5.253
 4325POPC   GL156821  12.004  26.772   5.668
 4325POPC   GL256822  12.199  26.481   5.706
 4325POPC   C1A56823  12.018  26.832   6.114
 4325POPC   D2A56824  12.238  26.702   6.518
 4325POPC   C3A56825  12.076  26.781   6.925
 4325POPC   C4A56826  12.052  26.660   7.315
 4325POPC   C1B56827  12.307  26.372   6.117
 4325POPC   C2B56828  12.652  26.402   6.418
 4325POPC   C3B56829  12.664  26.596   6.819
 4325POPC   C4B56830  12.513  26.476   7.215
 4326POPC   NC356831  18.994  11.555   5.307
 4326POPC   PO456832  19.362  10.964   5.369
 4326POPC   GL156833  19.115  11.149   5.705
 4326POPC   GL256834  19.331  11.398   5.831
 4326POPC   C1A56835  19.035  11.119   6.178
 4326POPC   D2A56836  18.923  10.926   6.612
 4326POPC   C3A56837  18.741  11.134   6.984
 4326POPC   C4A56838  18.976  11.292   7.377
 4326POPC   C1B56839  19.437  11.523   6.268
 4326POPC   C2B56840  19.374  11.549   6.737
 4326POPC   C3B56841  19.315  11.671   7.180
 4326POPC   C4B56842  19.446  12.016   7.504
 4327POPC   NC356843   2.962  25.844   5.446
 4327POPC   PO456844   2.391  26.251   5.438
 4327POPC   GL156845   2.505  25.974   5.809
 4327POPC   GL256846   2.864  26.020   5.904
 4327POPC   C1A56847   2.546  25.985   6.316
 4327POPC   D2A56848   2.711  25.873   6.743
 4327POPC   C3A56849   2.792  26.175   7.101
 4327POPC   C4A56850   2.706  26.265   7.565
 4327POPC   C1B56851   3.038  25.846   6.271
 4327POPC   C2B56852   3.223  25.998   6.628
 4327POPC   C3B56853   3.159  25.828   7.016
 4327POPC   C4B56854   3.025  25.884   7.444
 4328POPC   NC356855  12.278  42.892   5.025
 4328POPC   PO456856  11.858  43.062   5.490
 4328POPC   GL156857  12.110  43.258   5.798
 4328POPC   GL256858  11.901  43.104   6.030
 4328POPC   C1A56859  12.276  43.446   6.203
 4328POPC   D2A56860  12.217  43.578   6.664
 4328POPC   C3A56861  12.276  43.233   6.996
 4328POPC   C4A56862  12.271  42.809   7.207
 4328POPC   C1B56863  11.799  43.340   6.385
 4328POPC   C2B56864  11.782  43.305   6.808
 4328POPC   C3B56865  11.819  43.231   7.248
 4328POPC   C4B56866  11.808  43.490   7.626
 4329POPC   NC356867  15.594  24.621   5.347
 4329POPC   PO456868  16.266  24.334   5.326
 4329POPC   GL156869  16.022  24.509   5.656
 4329POPC   GL256870  16.145  24.804   5.813
 4329POPC   C1A56871  15.971  24.412   6.110
 4329POPC   D2A56872  16.099  24.564   6.528
 4329POPC   C3A56873  16.036  24.310   6.902
 4329POPC   C4A56874  16.253  24.458   7.255
 4329POPC   C1B56875  15.830  24.905   6.156
 4329POPC   C2B56876  15.722  24.981   6.610
 4329POPC   C3B56877  15.905  24.809   7.015
 4329POPC   C4B56878  15.829  24.716   7.482
 4330POPC   NC356879   2.610  10.028   5.560
 4330POPC   PO456880   2.860  10.535   5.183
 4330POPC   GL156881   2.802  10.628   5.637
 4330POPC   GL256882   2.854  10.338   5.884
 4330POPC   C1A56883   2.773  10.804   6.064
 4330POPC   D2A56884   2.822  10.551   6.421
 4330POPC   C3A56885   2.728  10.661   6.836
 4330POPC   C4A56886   2.793  10.384   7.187
 4330POPC   C1B56887   3.167  10.212   6.213
 4330POPC   C2B56888   3.276  10.275   6.650
 4330POPC   C3B56889   3.199  10.116   7.051
 4330POPC   C4B56890   3.115  10.113   7.523
 4331POPC   NC356891  10.011   0.213   5.458
 4331POPC   PO456892   9.605   0.659   5.649
 4331POPC   GL156893   9.740   0.351   5.869
 4331POPC   GL256894   9.470   0.154   5.854
 4331POPC   C1A56895   9.892   0.506   6.233
 4331POPC   D2A56896   9.838   0.800   6.521
 4331POPC   C3A56897   9.852   0.568   6.897
 4331POPC   C4A56898   9.575   0.596   7.246
 4331POPC   C1B56899   9.626   0.072   6.273
 4331POPC   C2B56900   9.733  44.947   6.673
 4331POPC   C3B56901   9.708   0.106   7.090
 4331POPC   C4B56902   9.754   0.196   7.532
 4332POPC   NC356903  17.275  27.200   5.075
 4332POPC   PO456904  17.713  27.036   5.584
 4332POPC   GL156905  17.551  26.689   5.874
 4332POPC   GL256906  17.326  26.922   5.998
 4332POPC   C1A56907  17.479  26.570   6.350
 4332POPC   D2A56908  17.160  26.554   6.706
 4332POPC   C3A56909  17.350  26.792   7.019
 4332POPC   C4A56910  17.708  26.672   7.245
 4332POPC   C1B56911  17.648  27.066   6.235
 4332POPC   C2B56912  17.571  27.017   6.620
 4332POPC   C3B56913  17.742  27.131   6.959
 4332POPC   C4B56914  17.576  27.155   7.353
 4333POPC   NC356915   9.339   2.936   5.270
 4333POPC   PO456916   9.009   3.578   5.515
 4333POPC   GL156917   8.833   3.609   5.918
 4333POPC   GL256918   9.144   3.603   6.018
 4333POPC   C1A56919   8.812   3.486   6.375
 4333POPC   D2A56920   8.941   3.734   6.745
 4333POPC   C3A56921   9.125   3.495   7.087
 4333POPC   C4A56922   8.928   3.124   7.292
 4333POPC   C1B56923   9.111   3.906   6.287
 4333POPC   C2B56924   9.363   4.073   6.594
 4333POPC   C3B56925   9.371   3.933   7.008
 4333POPC   C4B56926   9.349   3.859   7.452
 4334POPC   NC356927  11.096   2.367   5.305
 4334POPC   PO456928  11.441   1.738   5.218
 4334POPC   GL156929  11.432   2.117   5.599
 4334POPC   GL256930  11.639   1.926   5.852
 4334POPC   C1A56931  11.279   2.231   6.050
 4334POPC   D2A56932  11.372   2.096   6.496
 4334POPC   C3A56933  11.126   1.935   6.886
 4334POPC   C4A56934  11.246   2.099   7.315
 4334POPC   C1B56935  11.570   1.678   6.238
 4334POPC   C2B56936  11.582   1.668   6.674
 4334POPC   C3B56937  11.627   2.011   6.962
 4334POPC   C4B56938  11.634   1.772   7.310
 4335POPC   NC356939  40.285  20.872   5.080
 4335POPC   PO456940  39.914  20.436   5.520
 4335POPC   GL156941  39.883  20.498   5.949
 4335POPC   GL256942  40.217  20.533   6.009
 4335POPC   C1A56943  39.876  20.827   6.282
 4335POPC   D2A56944  39.972  20.958   6.692
 4335POPC   C3A56945  39.921  20.632   7.008
 4335POPC   C4A56946  39.769  20.544   7.453
 4335POPC   C1B56947  40.378  20.955   6.203
 4335POPC   C2B56948  40.502  21.078   6.628
 4335POPC   C3B56949  40.322  21.046   7.061
 4335POPC   C4B56950  40.192  20.820   7.404
 4336POPC   NC356951  39.775  34.216   5.424
 4336POPC   PO456952  39.976  34.834   5.463
 4336POPC   GL156953  40.051  34.525   5.797
 4336POPC   GL256954  39.863  34.214   5.922
 4336POPC   C1A56955  40.108  34.583   6.221
 4336POPC   D2A56956  39.881  34.430   6.566
 4336POPC   C3A56957  40.068  34.564   6.935
 4336POPC   C4A56958  39.951  34.740   7.281
 4336POPC   C1B56959  40.173  34.083   6.251
 4336POPC   C2B56960  40.342  34.222   6.651
 4336POPC   C3B56961  40.225  34.122   7.093
 4336POPC   C4B56962  40.216  34.362   7.475
 4337POPC   NC356963  19.643  34.765   5.394
 4337POPC   PO456964  20.170  34.350   5.504
 4337POPC   GL156965  19.993  34.706   5.785
 4337POPC   GL256966  19.636  34.813   5.890
 4337POPC   C1A56967  20.224  34.879   6.133
 4337POPC   D2A56968  20.079  34.658   6.459
 4337POPC   C3A56969  20.116  34.562   6.878
 4337POPC   C4A56970  20.096  34.593   7.302
 4337POPC   C1B56971  19.557  34.644   6.283
 4337POPC   C2B56972  19.596  34.728   6.718
 4337POPC   C3B56973  19.639  34.446   7.078
 4337POPC   C4B56974  19.756  34.283   7.515
 4338POPC   NC356975  29.740  25.644   5.413
 4338POPC   PO456976  30.091  26.231   5.383
 4338POPC   GL156977  29.884  26.101   5.758
 4338POPC   GL256978  30.038  25.786   5.805
 4338POPC   C1A56979  29.754  25.990   6.207
 4338POPC   D2A56980  29.592  25.939   6.628
 4338POPC   C3A56981  29.742  26.198   6.983
 4338POPC   C4A56982  29.648  25.908   7.320
 4338POPC   C1B56983  30.211  25.738   6.198
 4338POPC   C2B56984  30.070  25.685   6.619
 4338POPC   C3B56985  30.100  25.835   7.048
 4338POPC   C4B56986  30.471  25.916   7.270
 4339POPC   NC356987  27.656  25.398   5.425
 4339POPC   PO456988  27.968  26.001   5.442
 4339POPC   GL156989  27.976  25.624   5.789
 4339POPC   GL256990  27.617  25.503   5.917
 4339POPC   C1A56991  28.014  25.385   6.221
 4339POPC   D2A56992  27.992  25.099   6.613
 4339POPC   C3A56993  27.849  25.166   7.058
 4339POPC   C4A56994  27.735  24.935   7.439
 4339POPC   C1B56995  27.495  25.218   6.278
 4339POPC   C2B56996  27.469  25.081   6.733
 4339POPC   C3B56997  27.334  25.213   7.165
 4339POPC   C4B56998  27.310  25.187   7.603
 4340POPC   NC356999   0.451   2.274   5.325
 4340POPC   PO457000   0.682   1.607   5.446
 4340POPC   GL157001   0.497   1.646   5.859
 4340POPC   GL257002   0.317   1.958   5.788
 4340POPC   C1A57003   0.343   1.780   6.291
 4340POPC   D2A57004   0.124   2.135   6.541
 4340POPC   C3A57005   0.142   1.962   6.952
 4340POPC   C4A57006   0.536   1.849   7.177
 4340POPC   C1B57007   0.542   2.204   6.116
 4340POPC   C2B57008   0.649   2.116   6.588
 4340POPC   C3B57009   0.473   2.334   6.972
 4340POPC   C4B57010   0.218   2.253   7.381
 4341POPC   NC357011  29.902  10.430   5.497
 4341POPC   PO457012  29.751  11.020   5.274
 4341POPC   GL157013  29.921  10.900   5.768
 4341POPC   GL257014  29.790  10.589   5.956
 4341POPC   C1A57015  30.091  10.818   6.273
 4341POPC   D2A57016  29.909  10.538   6.654
 4341POPC   C3A57017  30.169  10.198   6.874
 4341POPC   C4A57018  30.281  10.141   7.343
 4341POPC   C1B57019  29.656  10.269   6.304
 4341POPC   C2B57020  29.716  10.026   6.719
 4341POPC   C3B57021  29.727  10.292   7.113
 4341POPC   C4B57022  29.611  10.740   7.050
 4342POPC   NC357023  38.237   2.434   5.341
 4342POPC   PO457024  38.536   3.025   5.334
 4342POPC   GL157025  38.524   2.768   5.731
 4342POPC   GL257026  38.767   2.471   5.742
 4342POPC   C1A57027  38.373   2.915   6.157
 4342POPC   D2A57028  38.418   2.760   6.582
 4342POPC   C3A57029  38.537   2.950   6.969
 4342POPC   C4A57030  38.406   2.684   7.325
 4342POPC   C1B57031  38.854   2.673   6.162
 4342POPC   C2B57032  38.938   2.792   6.600
 4342POPC   C3B57033  38.866   2.575   6.998
 4342POPC   C4B57034  38.916   2.583   7.412
 4343POPC   NC357035   9.915  24.862   5.346
 4343POPC   PO457036   9.399  24.389   5.418
 4343POPC   GL157037   9.767  24.513   5.690
 4343POPC   GL257038   9.959  24.288   5.892
 4343POPC   C1A57039   9.873  24.773   6.058
 4343POPC   D2A57040   9.722  24.693   6.502
 4343POPC   C3A57041   9.877  24.736   6.934
 4343POPC   C4A57042   9.939  24.593   7.362
 4343POPC   C1B57043   9.577  24.342   6.157
 4343POPC   C2B57044   9.525  24.230   6.632
 4343POPC   C3B57045   9.785  24.245   7.031
 4343POPC   C4B57046   9.652  24.129   7.453
 4344POPC   NC357047   6.078  39.265   5.485
 4344POPC   PO457048   5.409  39.399   5.510
 4344POPC   GL157049   5.711  39.346   5.883
 4344POPC   GL257050   5.936  39.046   5.918
 4344POPC   C1A57051   5.777  39.296   6.355
 4344POPC   D2A57052   6.143  39.289   6.675
 4344POPC   C3A57053   6.107  39.598   7.012
 4344POPC   C4A57054   5.921  39.562   7.447
 4344POPC   C1B57055   5.535  38.899   6.089
 4344POPC   C2B57056   5.364  38.982   6.488
 4344POPC   C3B57057   5.542  39.145   6.834
 4344POPC   C4B57058   5.863  39.160   7.116
 4345POPC   NC357059   1.037  38.331   5.057
 4345POPC   PO457060   1.452  38.532   5.558
 4345POPC   GL157061   1.419  38.411   5.915
 4345POPC   GL257062   1.073  38.373   5.894
 4345POPC   C1A57063   1.495  38.247   6.296
 4345POPC   D2A57064   1.282  38.442   6.605
 4345POPC   C3A57065   1.404  38.301   6.980
 4345POPC   C4A57066   1.283  38.286   7.418
 4345POPC   C1B57067   0.960  38.709   6.185
 4345POPC   C2B57068   1.043  38.895   6.572
 4345POPC   C3B57069   1.058  38.712   6.980
 4345POPC   C4B57070   0.898  38.605   7.362
 4346POPC   NC357071   6.254  29.211   5.222
 4346POPC   PO457072   5.524  29.162   5.315
 4346POPC   GL157073   5.743  29.185   5.767
 4346POPC   GL257074   5.786  28.849   5.929
 4346POPC   C1A57075   5.862  29.342   6.219
 4346POPC   D2A57076   6.199  29.335   6.546
 4346POPC   C3A57077   6.010  29.372   6.945
 4346POPC   C4A57078   5.864  29.251   7.351
 4346POPC   C1B57079   6.053  28.856   6.272
 4346POPC   C2B57080   5.979  28.902   6.693
 4346POPC   C3B57081   6.139  28.875   7.088
 4346POPC   C4B57082   5.947  28.744   7.442
 4347POPC   NC357083   4.502   8.074   5.486
 4347POPC   PO457084   4.343   8.770   5.410
 4347POPC   GL157085   4.489   8.489   5.854
 4347POPC   GL257086   4.365   8.138   5.965
 4347POPC   C1A57087   4.404   8.468   6.356
 4347POPC   D2A57088   4.173   8.450   6.775
 4347POPC   C3A57089   4.273   8.120   7.098
 4347POPC   C4A57090   4.579   7.760   7.122
 4347POPC   C1B57091   4.001   8.151   6.233
 4347POPC   C2B57092   3.937   7.992   6.642
 4347POPC   C3B57093   3.882   7.813   7.048
 4347POPC   C4B57094   3.959   7.945   7.484
 4348POPC   NC357095  20.993   7.150   5.630
 4348POPC   PO457096  21.570   7.554   5.580
 4348POPC   GL157097  21.298   7.519   5.974
 4348POPC   GL257098  21.083   7.247   6.107
 4348POPC   C1A57099  21.301   7.574   6.435
 4348POPC   D2A57100  21.253   7.789   6.820
 4348POPC   C3A57101  21.424   7.514   7.100
 4348POPC   C4A57102  21.514   7.183   7.376
 4348POPC   C1B57103  21.075   7.092   6.507
 4348POPC   C2B57104  21.002   7.249   6.938
 4348POPC   C3B57105  21.028   7.347   7.381
 4348POPC   C4B57106  21.173   7.149   7.774
 4349POPC   NC357107   6.559  19.375   5.406
 4349POPC   PO457108   6.474  18.728   5.522
 4349POPC   GL157109   6.762  18.864   5.861
 4349POPC   GL257110   6.904  19.206   5.742
 4349POPC   C1A57111   6.689  18.878   6.331
 4349POPC   D2A57112   6.318  18.961   6.575
 4349POPC   C3A57113   6.429  19.069   6.966
 4349POPC   C4A57114   6.873  19.006   7.085
 4349POPC   C1B57115   6.613  19.306   6.078
 4349POPC   C2B57116   6.555  19.432   6.508
 4349POPC   C3B57117   6.733  19.469   6.917
 4349POPC   C4B57118   6.537  19.471   7.281
 4350POPC   NC357119  16.281   6.153   5.505
 4350POPC   PO457120  15.887   6.673   5.225
 4350POPC   GL157121  15.937   6.692   5.710
 4350POPC   GL257122  16.174   6.467   5.913
 4350POPC   C1A57123  15.776   6.718   6.161
 4350POPC   D2A57124  15.544   6.787   6.563
 4350POPC   C3A57125  15.791   6.721   6.938
 4350POPC   C4A57126  16.137   6.890   7.167
 4350POPC   C1B57127  16.106   6.296   6.329
 4350POPC   C2B57128  16.163   6.470   6.739
 4350POPC   C3B57129  16.116   6.377   7.158
 4350POPC   C4B57130  16.023   6.236   7.544
 4351POPC   NC357131   8.578   5.139   5.393
 4351POPC   PO457132   7.968   4.831   5.322
 4351POPC   GL157133   8.095   4.673   5.743
 4351POPC   GL257134   8.481   4.609   5.775
 4351POPC   C1A57135   8.167   4.859   6.140
 4351POPC   D2A57136   8.176   5.092   6.510
 4351POPC   C3A57137   7.968   4.900   6.831
 4351POPC   C4A57138   8.039   5.010   7.252
 4351POPC   C1B57139   8.664   4.756   6.175
 4351POPC   C2B57140   8.673   5.017   6.566
 4351POPC   C3B57141   8.462   5.064   6.957
 4351POPC   C4B57142   8.471   4.734   7.232
 4352POPC   NC357143   8.640  15.673   5.102
 4352POPC   PO457144   8.538  15.045   5.402
 4352POPC   GL157145   8.738  15.119   5.843
 4352POPC   GL257146   8.998  15.401   5.802
 4352POPC   C1A57147   8.770  14.951   6.288
 4352POPC   D2A57148   9.086  15.009   6.643
 4352POPC   C3A57149   8.983  15.165   7.060
 4352POPC   C4A57150   9.071  15.125   7.516
 4352POPC   C1B57151   9.161  15.313   6.222
 4352POPC   C2B57152   9.378  15.461   6.619
 4352POPC   C3B57153   9.379  15.491   7.082
 4352POPC   C4B57154   9.416  15.497   7.544
 4353POPC   NC357155   1.875  36.392   5.457
 4353POPC   PO457156   2.399  35.919   5.467
 4353POPC   GL157157   2.283  36.239   5.805
 4353POPC   GL257158   1.926  36.209   5.929
 4353POPC   C1A57159   2.308  36.342   6.251
 4353POPC   D2A57160   2.059  36.141   6.598
 4353POPC   C3A57161   2.227  36.240   7.005
 4353POPC   C4A57162   2.027  36.299   7.414
 4353POPC   C1B57163   1.845  35.845   6.186
 4353POPC   C2B57164   1.672  35.777   6.622
 4353POPC   C3B57165   1.708  36.014   7.035
 4353POPC   C4B57166   1.794  35.857   7.483
 4354POPC   NC357167  21.359  36.115   5.539
 4354POPC   PO457168  21.936  36.515   5.383
 4354POPC   GL157169  21.692  36.363   5.804
 4354POPC   GL257170  21.364  36.362   5.987
 4354POPC   C1A57171  21.638  35.984   6.151
 4354POPC   D2A57172  21.536  35.902   6.583
 4354POPC   C3A57173  21.568  36.171   6.954
 4354POPC   C4A57174  21.529  36.469   7.317
 4354POPC   C1B57175  21.052  36.218   6.279
 4354POPC   C2B57176  21.067  36.135   6.702
 4354POPC   C3B57177  21.088  36.261   7.123
 4354POPC   C4B57178  21.033  36.009   7.468
 4355POPC   NC357179  13.010  42.493   5.195
 4355POPC   PO457180  12.541  42.080   5.144
 4355POPC   GL157181  12.855  42.209   5.596
 4355POPC   GL257182  12.917  41.929   5.793
 4355POPC   C1A57183  12.915  42.286   6.136
 4355POPC   D2A57184  13.146  42.193   6.555
 4355POPC   C3A57185  12.932  42.337   6.938
 4355POPC   C4A57186  12.726  42.568   7.288
 4355POPC   C1B57187  12.677  41.846   6.203
 4355POPC   C2B57188  12.643  42.068   6.566
 4355POPC   C3B57189  12.592  41.941   6.975
 4355POPC   C4B57190  12.721  42.048   7.387
 4356POPC   NC357191  40.734  18.890   5.092
 4356POPC   PO457192  40.799  18.251   5.250
 4356POPC   GL157193  40.834  18.213   5.708
 4356POPC   GL257194  40.603  18.467   5.810
 4356POPC   C1A57195  40.891  18.143   6.198
 4356POPC   D2A57196  40.824  18.295   6.613
 4356POPC   C3A57197  41.025  18.182   6.986
 4356POPC   C4A57198  41.221  17.894   7.196
 4356POPC   C1B57199  40.455  18.419   6.247
 4356POPC   C2B57200  40.344  18.433   6.689
 4356POPC   C3B57201  40.576  18.400   7.068
 4356POPC   C4B57202  40.888  18.667   7.247
 4357POPC   NC357203  34.316   1.195   5.343
 4357POPC   PO457204  35.057   1.031   5.362
 4357POPC   GL157205  34.775   1.235   5.686
 4357POPC   GL257206  34.487   0.996   5.775
 4357POPC   C1A57207  34.771   1.204   6.146
 4357POPC   D2A57208  34.593   0.886   6.433
 4357POPC   C3A57209  34.475   1.111   6.796
 4357POPC   C4A57210  34.703   1.412   7.058
 4357POPC   C1B57211  34.242   1.269   6.040
 4357POPC   C2B57212  34.137   1.408   6.465
 4357POPC   C3B57213  34.230   1.537   6.884
 4357POPC   C4B57214  34.254   1.307   7.260
 4358POPC   NC357215  17.213   3.726   5.461
 4358POPC   PO457216  17.830   3.912   5.400
 4358POPC   GL157217  17.645   3.719   5.745
 4358POPC   GL257218  17.576   3.407   5.668
 4358POPC   C1A57219  17.386   3.636   6.127
 4358POPC   D2A57220  17.446   3.835   6.519
 4358POPC   C3A57221  17.447   3.551   6.878
 4358POPC   C4A57222  17.452   3.664   7.312
 4358POPC   C1B57223  17.703   3.249   6.049
 4358POPC   C2B57224  17.731   3.377   6.473
 4358POPC   C3B57225  17.923   3.234   6.830
 4358POPC   C4B57226  17.820   3.272   7.251
 4359POPC   NC357227  12.833  41.584   5.324
 4359POPC   PO457228  12.425  41.958   5.641
 4359POPC   GL157229  12.621  41.523   5.802
 4359POPC   GL257230  13.027  41.436   5.772
 4359POPC   C1A57231  12.801  41.352   6.202
 4359POPC   D2A57232  12.975  41.626   6.548
 4359POPC   C3A57233  12.912  41.484   6.952
 4359POPC   C4A57234  13.039  41.643   7.333
 4359POPC   C1B57235  13.305  41.445   6.185
 4359POPC   C2B57236  13.375  41.322   6.662
 4359POPC   C3B57237  13.390  41.313   7.133
 4359POPC   C4B57238  13.315  41.302   7.589
 4360POPC   NC357239  16.061   3.606   5.480
 4360POPC   PO457240  15.629   3.084   5.371
 4360POPC   GL157241  15.678   3.186   5.827
 4360POPC   GL257242  15.944   3.437   5.938
 4360POPC   C1A57243  15.686   3.177   6.296
 4360POPC   D2A57244  16.049   3.294   6.561
 4360POPC   C3A57245  16.009   3.417   6.999
 4360POPC   C4A57246  16.024   3.590   7.411
 4360POPC   C1B57247  15.957   3.742   6.264
 4360POPC   C2B57248  15.819   3.791   6.680
 4360POPC   C3B57249  15.884   3.937   7.076
 4360POPC   C4B57250  15.744   3.995   7.509
 4361POPC   NC357251   4.026  28.535   5.123
 4361POPC   PO457252   4.108  28.105   5.698
 4361POPC   GL157253   4.199  28.393   6.011
 4361POPC   GL257254   4.157  28.126   6.217
 4361POPC   C1A57255   4.111  28.716   6.272
 4361POPC   D2A57256   4.237  28.580   6.648
 4361POPC   C3A57257   4.005  28.670   6.985
 4361POPC   C4A57258   4.206  28.618   7.354
 4361POPC   C1B57259   4.581  28.096   6.341
 4361POPC   C2B57260   4.542  28.037   6.764
 4361POPC   C3B57261   4.288  28.214   7.061
 4361POPC   C4B57262   4.189  28.121   7.486
 4362POPC   NC357263   3.080  25.104   5.295
 4362POPC   PO457264   2.571  25.578   5.420
 4362POPC   GL157265   2.869  25.404   5.708
 4362POPC   GL257266   2.868  25.056   5.780
 4362POPC   C1A57267   2.977  25.343   6.156
 4362POPC   D2A57268   2.810  25.403   6.538
 4362POPC   C3A57269   2.943  25.136   6.854
 4362POPC   C4A57270   3.108  25.343   7.204
 4362POPC   C1B57271   2.888  24.826   6.172
 4362POPC   C2B57272   2.592  24.850   6.505
 4362POPC   C3B57273   2.444  24.917   6.919
 4362POPC   C4B57274   2.645  25.040   7.271
 4363POPC   NC357275   8.705  14.605   5.385
 4363POPC   PO457276   9.102  14.113   5.188
 4363POPC   GL157277   8.872  14.203   5.676
 4363POPC   GL257278   8.868  14.598   5.857
 4363POPC   C1A57279   8.982  14.224   6.151
 4363POPC   D2A57280   8.774  14.124   6.530
 4363POPC   C3A57281   8.893  14.381   6.873
 4363POPC   C4A57282   8.928  14.274   7.306
 4363POPC   C1B57283   9.223  14.728   6.173
 4363POPC   C2B57284   9.333  14.572   6.581
 4363POPC   C3B57285   9.352  14.530   7.037
 4363POPC   C4B57286   9.238  14.668   7.463
 4364POPC   NC357287   0.191  38.295   5.589
 4364POPC   PO457288   0.763  38.543   5.368
 4364POPC   GL157289   0.604  38.563   5.773
 4364POPC   GL257290   0.457  38.870   5.700
 4364POPC   C1A57291   0.607  38.334   6.174
 4364POPC   D2A57292   0.756  38.462   6.588
 4364POPC   C3A57293   0.430  38.426   6.874
 4364POPC   C4A57294   0.429  38.381   7.288
 4364POPC   C1B57295   0.442  38.860   6.177
 4364POPC   C2B57296   0.353  38.878   6.637
 4364POPC   C3B57297   0.573  38.871   7.067
 4364POPC   C4B57298   0.483  38.823   7.538
 4365POPC   NC357299   6.365  40.985   5.426
 4365POPC   PO457300   5.850  40.568   5.461
 4365POPC   GL157301   6.094  40.715   5.796
 4365POPC   GL257302   5.990  41.020   5.768
 4365POPC   C1A57303   6.031  40.647   6.213
 4365POPC   D2A57304   5.714  40.520   6.508
 4365POPC   C3A57305   5.889  40.591   6.903
 4365POPC   C4A57306   5.851  40.782   7.280
 4365POPC   C1B57307   6.101  41.156   6.161
 4365POPC   C2B57308   5.967  41.033   6.565
 4365POPC   C3B57309   6.168  41.017   6.957
 4365POPC   C4B57310   6.103  41.255   7.325
 4366POPC   NC357311  36.775  24.705   5.440
 4366POPC   PO457312  36.999  24.074   5.277
 4366POPC   GL157313  37.032  24.290   5.736
 4366POPC   GL257314  36.740  24.457   5.902
 4366POPC   C1A57315  37.132  24.313   6.220
 4366POPC   D2A57316  36.796  24.556   6.523
 4366POPC   C3A57317  36.721  24.404   6.947
 4366POPC   C4A57318  37.097  24.189   7.036
 4366POPC   C1B57319  37.040  24.787   6.106
 4366POPC   C2B57320  37.253  24.789   6.543
 4366POPC   C3B57321  37.108  24.788   6.944
 4366POPC   C4B57322  36.852  24.785   7.280
 4367POPC   NC357323  21.088  10.000   5.486
 4367POPC   PO457324  20.642   9.518   5.299
 4367POPC   GL157325  20.456   9.573   5.706
 4367POPC   GL257326  20.649   9.873   5.727
 4367POPC   C1A57327  20.265   9.824   6.064
 4367POPC   D2A57328  20.235   9.882   6.531
 4367POPC   C3A57329  20.397   9.533   6.783
 4367POPC   C4A57330  20.620   9.566   7.149
 4367POPC   C1B57331  20.866   9.646   6.051
 4367POPC   C2B57332  20.879   9.503   6.483
 4367POPC   C3B57333  20.979   9.750   6.845
 4367POPC   C4B57334  21.068   9.793   7.266
 4368POPC   NC357335  35.713  31.602   5.467
 4368POPC   PO457336  35.064  31.348   5.455
 4368POPC   GL157337  35.377  31.302   5.773
 4368POPC   GL257338  35.244  31.567   5.932
 4368POPC   C1A57339  35.651  31.424   6.173
 4368POPC   D2A57340  35.636  31.667   6.573
 4368POPC   C3A57341  35.729  31.456   6.957
 4368POPC   C4A57342  35.496  31.397   7.310
 4368POPC   C1B57343  35.018  31.231   6.155
 4368POPC   C2B57344  34.931  31.166   6.594
 4368POPC   C3B57345  35.096  31.313   7.013
 4368POPC   C4B57346  35.048  31.172   7.455
 4369POPC   NC357347   2.732  27.257   5.484
 4369POPC   PO457348   2.666  27.874   5.354
 4369POPC   GL157349   2.831  27.709   5.731
 4369POPC   GL257350   3.156  27.515   5.700
 4369POPC   C1A57351   2.870  27.495   6.146
 4369POPC   D2A57352   2.659  27.585   6.543
 4369POPC   C3A57353   2.840  27.426   6.923
 4369POPC   C4A57354   2.543  27.467   7.235
 4369POPC   C1B57355   3.207  27.877   6.015
 4369POPC   C2B57356   3.131  27.770   6.504
 4369POPC   C3B57357   3.111  27.844   6.977
 4369POPC   C4B57358   2.976  27.668   7.386
 4370POPC   NC357359   5.144  21.482   5.497
 4370POPC   PO457360   4.776  21.966   5.273
 4370POPC   GL157361   4.759  21.688   5.756
 4370POPC   GL257362   4.804  21.333   5.841
 4370POPC   C1A57363   5.119  21.514   6.171
 4370POPC   D2A57364   5.495  21.367   6.453
 4370POPC   C3A57365   5.438  21.489   6.894
 4370POPC   C4A57366   5.162  21.304   7.157
 4370POPC   C1B57367   4.778  21.136   6.238
 4370POPC   C2B57368   4.943  21.146   6.651
 4370POPC   C3B57369   4.706  21.173   7.017
 4370POPC   C4B57370   4.774  21.095   7.474
 4371POPC   NC357371  32.838  42.194   5.295
 4371POPC   PO457372  33.111  42.781   5.380
 4371POPC   GL157373  32.894  42.631   5.757
 4371POPC   GL257374  33.014  42.314   5.792
 4371POPC   C1A57375  33.077  42.615   6.213
 4371POPC   D2A57376  32.986  42.402   6.614
 4371POPC   C3A57377  33.137  42.503   7.037
 4371POPC   C4A57378  33.085  42.291   7.429
 4371POPC   C1B57379  33.047  42.080   6.201
 4371POPC   C2B57380  33.182  41.845   6.558
 4371POPC   C3B57381  33.083  42.010   6.932
 4371POPC   C4B57382  32.700  42.220   7.066
 4372POPC   NC357383  34.793  37.620   5.427
 4372POPC   PO457384  34.219  37.841   5.377
 4372POPC   GL157385  34.376  37.646   5.757
 4372POPC   GL257386  34.613  37.877   5.871
 4372POPC   C1A57387  34.453  37.512   6.197
 4372POPC   D2A57388  34.385  37.729   6.578
 4372POPC   C3A57389  34.290  37.522   6.930
 4372POPC   C4A57390  34.401  37.656   7.334
 4372POPC   C1B57391  34.926  37.693   6.107
 4372POPC   C2B57392  34.887  37.629   6.524
 4372POPC   C3B57393  34.786  37.635   6.934
 4372POPC   C4B57394  35.012  37.596   7.299
 4373POPC   NC357395  34.410  38.228   5.571
 4373POPC   PO457396  34.804  38.802   5.588
 4373POPC   GL157397  34.467  38.704   5.856
 4373POPC   GL257398  34.663  38.405   5.974
 4373POPC   C1A57399  34.318  38.589   6.279
 4373POPC   D2A57400  34.415  38.560   6.699
 4373POPC   C3A57401  34.530  38.832   6.979
 4373POPC   C4A57402  34.849  38.568   7.118
 4373POPC   C1B57403  34.659  38.132   6.337
 4373POPC   C2B57404  34.730  38.135   6.773
 4373POPC   C3B57405  34.629  38.081   7.203
 4373POPC   C4B57406  34.760  37.904   7.626
 4374POPC   NC357407  19.353   6.637   5.169
 4374POPC   PO457408  19.976   6.475   5.341
 4374POPC   GL157409  19.837   6.534   5.736
 4374POPC   GL257410  19.915   6.863   5.748
 4374POPC   C1A57411  19.711   6.427   6.148
 4374POPC   D2A57412  19.887   6.415   6.555
 4374POPC   C3A57413  19.731   6.703   6.837
 4374POPC   C4A57414  19.791   6.561   7.226
 4374POPC   C1B57415  19.863   6.910   6.182
 4374POPC   C2B57416  20.161   6.879   6.502
 4374POPC   C3B57417  20.214   6.807   6.931
 4374POPC   C4B57418  19.996   7.071   7.208
 4375POPC   NC357419  10.183  15.120   5.117
 4375POPC   PO457420  10.664  15.480   5.447
 4375POPC   GL157421  10.446  15.228   5.784
 4375POPC   GL257422  10.171  15.020   5.613
 4375POPC   C1A57423  10.535  15.028   6.225
 4375POPC   D2A57424  10.813  14.994   6.620
 4375POPC   C3A57425  10.639  14.997   7.023
 4375POPC   C4A57426  10.449  15.331   7.262
 4375POPC   C1B57427  10.050  14.907   6.030
 4375POPC   C2B57428  10.080  14.932   6.474
 4375POPC   C3B57429  10.156  15.023   6.879
 4375POPC   C4B57430  10.228  14.871   7.301
 4376POPC   NC357431  12.394  14.580   5.440
 4376POPC   PO457432  11.771  14.306   5.393
 4376POPC   GL157433  12.014  14.375   5.754
 4376POPC   GL257434  12.327  14.232   5.854
 4376POPC   C1A57435  11.909  14.392   6.170
 4376POPC   D2A57436  12.038  14.576   6.567
 4376POPC   C3A57437  11.856  14.556   6.963
 4376POPC   C4A57438  12.003  14.364   7.359
 4376POPC   C1B57439  12.383  14.602   6.161
 4376POPC   C2B57440  12.490  14.765   6.610
 4376POPC   C3B57441  12.345  14.647   7.072
 4376POPC   C4B57442  12.356  14.693   7.593
 4377POPC   NC357443   0.525  24.911   5.597
 4377POPC   PO457444   0.303  24.345   5.264
 4377POPC   GL157445   0.407  24.219   5.743
 4377POPC   GL257446   0.410  24.508   5.885
 4377POPC   C1A57447   0.586  24.221   6.240
 4377POPC   D2A57448   0.443  24.400   6.659
 4377POPC   C3A57449   0.632  24.227   7.054
 4377POPC   C4A57450   0.448  24.182   7.481
 4377POPC   C1B57451   0.404  24.740   6.276
 4377POPC   C2B57452  44.987  24.804   6.441
 4377POPC   C3B57453   0.041  24.786   6.869
 4377POPC   C4B57454   0.274  24.630   7.218
 4378POPC   NC357455  16.433   5.165   5.487
 4378POPC   PO457456  17.137   5.422   5.570
 4378POPC   GL157457  16.832   5.150   5.806
 4378POPC   GL257458  16.582   5.373   5.913
 4378POPC   C1A57459  16.647   4.985   6.233
 4378POPC   D2A57460  16.922   4.814   6.566
 4378POPC   C3A57461  16.941   4.959   7.000
 4378POPC   C4A57462  16.851   4.826   7.386
 4378POPC   C1B57463  16.977   5.384   6.230
 4378POPC   C2B57464  16.857   5.336   6.628
 4378POPC   C3B57465  16.511   5.166   6.840
 4378POPC   C4B57466  16.531   5.247   7.252
 4379POPC   NC357467  26.133  22.353   5.284
 4379POPC   PO457468  25.800  21.820   5.414
 4379POPC   GL157469  26.077  22.034   5.743
 4379POPC   GL257470  26.345  22.298   5.782
 4379POPC   C1A57471  26.174  21.994   6.197
 4379POPC   D2A57472  26.049  22.269   6.567
 4379POPC   C3A57473  26.034  22.090   6.979
 4379POPC   C4A57474  26.337  21.799   7.101
 4379POPC   C1B57475  26.460  22.400   6.239
 4379POPC   C2B57476  26.542  22.172   6.662
 4379POPC   C3B57477  26.488  22.296   7.110
 4379POPC   C4B57478  26.121  22.528   7.281
 4380POPC   NC357479  40.495   1.620   5.425
 4380POPC   PO457480  40.999   2.090   5.339
 4380POPC   GL157481  40.820   1.994   5.727
 4380POPC   GL257482  40.892   1.666   5.835
 4380POPC   C1A57483  40.676   2.043   6.155
 4380POPC   D2A57484  40.744   2.381   6.460
 4380POPC   C3A57485  40.716   2.211   6.869
 4380POPC   C4A57486  40.952   1.959   7.150
 4380POPC   C1B57487  40.644   1.478   6.163
 4380POPC   C2B57488  40.463   1.494   6.575
 4380POPC   C3B57489  40.561   1.690   6.960
 4380POPC   C4B57490  40.488   1.816   7.407
 4381POPC   NC357491  33.770  32.256   5.475
 4381POPC   PO457492  34.418  32.083   5.660
 4381POPC   GL157493  34.053  32.184   5.916
 4381POPC   GL257494  33.807  31.905   5.876
 4381POPC   C1A57495  33.781  32.215   6.313
 4381POPC   D2A57496  33.387  32.227   6.603
 4381POPC   C3A57497  33.455  32.234   7.027
 4381POPC   C4A57498  33.804  32.447   7.215
 4381POPC   C1B57499  34.099  31.756   6.209
 4381POPC   C2B57500  34.129  31.948   6.625
 4381POPC   C3B57501  33.918  31.984   7.024
 4381POPC   C4B57502  34.060  31.892   7.439
 4382POPC   NC357503  23.440  43.273   5.370
 4382POPC   PO457504  23.962  42.792   5.142
 4382POPC   GL157505  23.819  43.017   5.615
 4382POPC   GL257506  24.004  43.284   5.799
 4382POPC   C1A57507  23.608  43.144   6.093
 4382POPC   D2A57508  23.474  43.303   6.583
 4382POPC   C3A57509  23.588  43.230   7.062
 4382POPC   C4A57510  23.809  43.240   7.499
 4382POPC   C1B57511  23.997  43.459   6.244
 4382POPC   C2B57512  23.966  43.417   6.714
 4382POPC   C3B57513  24.124  43.175   7.094
 4382POPC   C4B57514  24.329  43.050   7.493
 4383POPC   NC357515  38.845   4.196   5.431
 4383POPC   PO457516  39.405   3.957   5.360
 4383POPC   GL157517  39.346   4.205   5.717
 4383POPC   GL257518  39.136   4.506   5.721
 4383POPC   C1A57519  39.337   4.080   6.142
 4383POPC   D2A57520  39.255   4.242   6.532
 4383POPC   C3A57521  38.975   4.057   6.827
 4383POPC   C4A57522  39.101   4.256   7.199
 4383POPC   C1B57523  39.344   4.590   6.076
 4383POPC   C2B57524  39.343   4.742   6.459
 4383POPC   C3B57525  39.398   4.717   6.892
 4383POPC   C4B57526  39.149   4.760   7.215
 4384POPC   NC357527  38.025  24.841   5.470
 4384POPC   PO457528  37.288  24.701   5.476
 4384POPC   GL157529  37.505  24.495   5.809
 4384POPC   GL257530  37.866  24.505   5.833
 4384POPC   C1A57531  37.579  24.607   6.219
 4384POPC   D2A57532  37.782  24.500   6.577
 4384POPC   C3A57533  37.514  24.467   6.909
 4384POPC   C4A57534  37.332  24.534   7.328
 4384POPC   C1B57535  38.068  24.768   6.140
 4384POPC   C2B57536  38.230  24.744   6.541
 4384POPC   C3B57537  38.048  24.797   6.948
 4384POPC   C4B57538  37.813  24.647   7.269
 4385POPC   NC357539  18.496  35.915   5.420
 4385POPC   PO457540  17.839  35.926   5.331
 4385POPC   GL157541  18.097  35.888   5.797
 4385POPC   GL257542  18.481  35.876   5.930
 4385POPC   C1A57543  18.149  35.966   6.316
 4385POPC   D2A57544  18.395  35.904   6.724
 4385POPC   C3A57545  18.196  35.900   7.137
 4385POPC   C4A57546  17.896  36.126   7.369
 4385POPC   C1B57547  18.516  36.295   6.158
 4385POPC   C2B57548  18.619  36.521   6.590
 4385POPC   C3B57549  18.652  36.299   6.980
 4385POPC   C4B57550  18.706  35.873   7.152
 4386POPC   NC357551  28.191  28.271   5.453
 4386POPC   PO457552  28.767  28.552   5.224
 4386POPC   GL157553  28.689  28.414   5.657
 4386POPC   GL257554  28.450  28.644   5.753
 4386POPC   C1A57555  28.731  28.423   6.143
 4386POPC   D2A57556  28.478  28.347   6.526
 4386POPC   C3A57557  28.610  28.233   6.929
 4386POPC   C4A57558  28.707  28.554   7.202
 4386POPC   C1B57559  28.204  28.537   6.137
 4386POPC   C2B57560  27.995  28.554   6.550
 4386POPC   C3B57561  28.148  28.508   6.979
 4386POPC   C4B57562  27.892  28.238   7.237
 4387POPC   NC357563   6.800  12.636   5.317
 4387POPC   PO457564   6.176  12.876   5.326
 4387POPC   GL157565   6.511  12.980   5.669
 4387POPC   GL257566   6.632  12.664   5.820
 4387POPC   C1A57567   6.831  13.126   6.005
 4387POPC   D2A57568   6.913  13.112   6.492
 4387POPC   C3A57569   6.628  13.142   6.887
 4387POPC   C4A57570   6.430  13.172   7.329
 4387POPC   C1B57571   6.492  12.839   6.227
 4387POPC   C2B57572   6.511  12.691   6.644
 4387POPC   C3B57573   6.350  12.734   7.059
 4387POPC   C4B57574   6.614  12.700   7.405
 4388POPC   NC357575   8.551   3.514   5.484
 4388POPC   PO457576   7.937   3.282   5.389
 4388POPC   GL157577   8.043   3.495   5.844
 4388POPC   GL257578   8.313   3.688   5.889
 4388POPC   C1A57579   7.940   3.436   6.288
 4388POPC   D2A57580   7.856   3.604   6.661
 4388POPC   C3A57581   7.987   3.395   6.968
 4388POPC   C4A57582   8.161   3.513   7.320
 4388POPC   C1B57583   8.372   3.719   6.310
 4388POPC   C2B57584   8.419   3.592   6.737
 4388POPC   C3B57585   8.623   3.503   7.138
 4388POPC   C4B57586   8.540   3.353   7.601
 4389POPC   NC357587  26.850  19.150   5.241
 4389POPC   PO457588  26.920  18.622   5.633
 4389POPC   GL157589  26.870  19.053   5.741
 4389POPC   GL257590  26.632  19.320   5.667
 4389POPC   C1A57591  27.025  19.217   6.097
 4389POPC   D2A57592  26.972  19.329   6.525
 4389POPC   C3A57593  27.007  18.974   6.805
 4389POPC   C4A57594  26.771  18.803   7.147
 4389POPC   C1B57595  26.518  19.306   6.092
 4389POPC   C2B57596  26.398  19.419   6.523
 4389POPC   C3B57597  26.601  19.285   6.899
 4389POPC   C4B57598  26.722  19.259   7.331
 4390POPC   NC357599  35.275  26.510   5.385
 4390POPC   PO457600  35.109  25.900   5.361
 4390POPC   GL157601  35.210  26.059   5.759
 4390POPC   GL257602  35.491  26.287   5.771
 4390POPC   C1A57603  35.380  25.914   6.162
 4390POPC   D2A57604  35.634  25.814   6.528
 4390POPC   C3A57605  35.425  25.931   6.913
 4390POPC   C4A57606  35.330  25.786   7.336
 4390POPC   C1B57607  35.401  26.482   6.130
 4390POPC   C2B57608  35.376  26.303   6.524
 4390POPC   C3B57609  35.318  26.437   6.936
 4390POPC   C4B57610  35.451  26.611   7.300
 4391POPC   NC357611  43.170  34.529   5.380
 4391POPC   PO457612  42.900  35.030   5.371
 4391POPC   GL157613  42.822  34.817   5.762
 4391POPC   GL257614  42.696  34.494   5.632
 4391POPC   C1A57615  42.809  34.824   6.238
 4391POPC   D2A57616  43.075  34.919   6.575
 4391POPC   C3A57617  43.099  34.713   6.975
 4391POPC   C4A57618  43.278  34.725   7.384
 4391POPC   C1B57619  42.809  34.349   6.050
 4391POPC   C2B57620  42.777  34.370   6.519
 4391POPC   C3B57621  43.044  34.175   6.829
 4391POPC   C4B57622  43.183  34.230   7.239
 4392POPC   NC357623   9.552  14.182   5.064
 4392POPC   PO457624   9.305  14.432   5.594
 4392POPC   GL157625   9.649  14.357   5.876
 4392POPC   GL257626   9.748  14.010   5.910
 4392POPC   C1A57627   9.754  14.562   6.272
 4392POPC   D2A57628   9.988  14.432   6.633
 4392POPC   C3A57629   9.859  14.627   6.986
 4392POPC   C4A57630   9.774  14.634   7.388
 4392POPC   C1B57631   9.479  14.130   6.277
 4392POPC   C2B57632   9.574  14.153   6.707
 4392POPC   C3B57633   9.708  14.151   7.106
 4392POPC   C4B57634   9.435  14.221   7.439
 4393POPC   NC357635  21.935  41.615   5.172
 4393POPC   PO457636  21.247  41.607   5.326
 4393POPC   GL157637  21.321  41.533   5.765
 4393POPC   GL257638  21.084  41.244   5.791
 4393POPC   C1A57639  21.532  41.654   6.182
 4393POPC   D2A57640  21.385  41.712   6.612
 4393POPC   C3A57641  21.536  41.550   7.013
 4393POPC   C4A57642  21.487  41.729   7.442
 4393POPC   C1B57643  21.243  41.221   6.194
 4393POPC   C2B57644  21.400  41.182   6.578
 4393POPC   C3B57645  21.168  41.143   6.942
 4393POPC   C4B57646  21.256  41.280   7.353
 4394POPC   NC357647  24.304  31.251   5.268
 4394POPC   PO457648  24.559  31.880   5.287
 4394POPC   GL157649  24.522  31.571   5.665
 4394POPC   GL257650  24.594  31.166   5.768
 4394POPC   C1A57651  24.317  31.520   6.078
 4394POPC   D2A57652  24.458  31.340   6.471
 4394POPC   C3A57653  24.537  31.558   6.871
 4394POPC   C4A57654  24.367  31.554   7.313
 4394POPC   C1B57655  24.773  30.999   6.229
 4394POPC   C2B57656  24.811  31.070   6.731
 4394POPC   C3B57657  24.565  31.115   7.153
 4394POPC   C4B57658  24.334  31.121   7.595
 4395POPC   NC357659  32.875   4.095   5.327
 4395POPC   PO457660  33.321   4.576   5.402
 4395POPC   GL157661  33.092   4.293   5.798
 4395POPC   GL257662  32.766   4.100   5.893
 4395POPC   C1A57663  33.009   4.281   6.305
 4395POPC   D2A57664  33.041   4.452   6.763
 4395POPC   C3A57665  33.210   4.255   7.152
 4395POPC   C4A57666  33.079   4.207   7.603
 4395POPC   C1B57667  32.517   4.085   6.280
 4395POPC   C2B57668  32.635   4.142   6.733
 4395POPC   C3B57669  32.721   4.138   7.191
 4395POPC   C4B57670  32.731   3.841   7.545
 4396POPC   NC357671  37.487  31.364   5.298
 4396POPC   PO457672  38.125  31.142   5.413
 4396POPC   GL157673  37.963  31.430   5.759
 4396POPC   GL257674  37.626  31.631   5.743
 4396POPC   C1A57675  37.811  31.425   6.193
 4396POPC   D2A57676  37.581  31.563   6.554
 4396POPC   C3A57677  37.750  31.424   6.958
 4396POPC   C4A57678  37.440  31.266   7.211
 4396POPC   C1B57679  37.647  31.906   6.131
 4396POPC   C2B57680  37.422  32.043   6.520
 4396POPC   C3B57681  37.588  31.927   6.949
 4396POPC   C4B57682  37.602  31.739   7.352
 4397POPC   NC357683  23.079  32.481   5.518
 4397POPC   PO457684  22.623  31.999   5.458
 4397POPC   GL157685  22.862  32.143   5.826
 4397POPC   GL257686  23.254  32.078   5.804
 4397POPC   C1A57687  22.980  32.302   6.223
 4397POPC   D2A57688  22.996  32.654   6.513
 4397POPC   C3A57689  23.075  32.509   6.931
 4397POPC   C4A57690  23.000  32.712   7.325
 4397POPC   C1B57691  23.489  32.169   6.191
 4397POPC   C2B57692  23.318  32.154   6.601
 4397POPC   C3B57693  23.354  31.995   7.004
 4397POPC   C4B57694  23.226  32.213   7.392
 4398POPC   NC357695  34.620  41.978   5.486
 4398POPC   PO457696  34.218  41.393   5.377
 4398POPC   GL157697  34.498  41.514   5.706
 4398POPC   GL257698  34.345  41.776   5.854
 4398POPC   C1A57699  34.638  41.455   6.152
 4398POPC   D2A57700  34.480  41.484   6.585
 4398POPC   C3A57701  34.779  41.512   6.921
 4398POPC   C4A57702  34.763  41.262   7.288
 4398POPC   C1B57703  34.583  41.954   6.218
 4398POPC   C2B57704  34.456  42.024   6.634
 4398POPC   C3B57705  34.348  41.788   7.021
 4398POPC   C4B57706  34.301  41.949   7.428
 4399POPC   NC357707  12.957  22.989   5.383
 4399POPC   PO457708  12.286  22.801   5.397
 4399POPC   GL157709  12.604  22.821   5.749
 4399POPC   GL257710  12.900  22.618   5.785
 4399POPC   C1A57711  12.613  22.785   6.202
 4399POPC   D2A57712  12.734  23.060   6.544
 4399POPC   C3A57713  12.708  22.975   6.957
 4399POPC   C4A57714  12.416  22.859   7.246
 4399POPC   C1B57715  13.115  22.748   6.195
 4399POPC   C2B57716  13.121  22.732   6.639
 4399POPC   C3B57717  13.227  22.930   6.998
 4399POPC   C4B57718  13.096  23.255   7.201
 4400POPC   NC357719  20.920  37.063   5.214
 4400POPC   PO457720  20.827  37.656   5.297
 4400POPC   GL157721  20.736  37.562   5.749
 4400POPC   GL257722  20.514  37.291   5.747
 4400POPC   C1A57723  20.749  37.668   6.207
 4400POPC   D2A57724  20.901  37.496   6.600
 4400POPC   C3A57725  20.678  37.590   6.958
 4400POPC   C4A57726  20.735  37.726   7.375
 4400POPC   C1B57727  20.324  37.329   6.166
 4400POPC   C2B57728  20.331  37.525   6.567
 4400POPC   C3B57729  20.282  37.271   6.935
 4400POPC   C4B57730  20.446  37.298   7.338
 4401POPC   NC357731  40.279  18.220   5.456
 4401POPC   PO457732  39.654  18.606   5.380
 4401POPC   GL157733  39.885  18.383   5.745
 4401POPC   GL257734  39.743  18.028   5.773
 4401POPC   C1A57735  39.975  18.573   6.176
 4401POPC   D2A57736  39.837  18.415   6.567
 4401POPC   C3A57737  39.945  18.601   6.944
 4401POPC   C4A57738  40.113  18.363   7.294
 4401POPC   C1B57739  39.934  18.051   6.203
 4401POPC   C2B57740  40.319  17.972   6.478
 4401POPC   C3B57741  40.250  17.979   6.931
 4401POPC   C4B57742  40.495  17.966   7.305
 4402POPC   NC357743  44.379  31.012   5.352
 4402POPC   PO457744  44.761  30.446   5.357
 4402POPC   GL157745  44.622  30.445   5.792
 4402POPC   GL257746  44.541  30.795   5.805
 4402POPC   C1A57747  44.501  30.234   6.186
 4402POPC   D2A57748  44.724  30.317   6.575
 4402POPC   C3A57749  44.531  30.508   6.932
 4402POPC   C4A57750  44.771  30.638   7.279
 4402POPC   C1B57751  44.672  30.735   6.231
 4402POPC   C2B57752  44.586  31.004   6.596
 4402POPC   C3B57753  44.621  31.069   7.035
 4402POPC   C4B57754  44.288  30.852   7.262
 4403POPC   NC357755   2.339  28.995   5.028
 4403POPC   PO457756   2.803  29.422   5.407
 4403POPC   GL157757   2.930  29.223   5.759
 4403POPC   GL257758   3.187  29.482   5.772
 4403POPC   C1A57759   2.732  29.044   6.135
 4403POPC   D2A57760   2.556  29.214   6.516
 4403POPC   C3A57761   2.676  29.051   6.905
 4403POPC   C4A57762   2.405  28.966   7.246
 4403POPC   C1B57763   3.231  29.298   6.167
 4403POPC   C2B57764   3.071  29.140   6.523
 4403POPC   C3B57765   3.141  29.322   6.891
 4403POPC   C4B57766   3.070  29.130   7.257
 4404POPC   NC357767   8.817  32.734   5.456
 4404POPC   PO457768   8.649  32.025   5.334
 4404POPC   GL157769   8.806  32.333   5.728
 4404POPC   GL257770   9.157  32.311   5.849
 4404POPC   C1A57771   8.796  32.447   6.189
 4404POPC   D2A57772   8.965  32.258   6.574
 4404POPC   C3A57773   8.732  32.228   6.956
 4404POPC   C4A57774   8.757  32.444   7.357
 4404POPC   C1B57775   9.281  32.038   6.192
 4404POPC   C2B57776   9.512  31.933   6.543
 4404POPC   C3B57777   9.274  31.991   6.895
 4404POPC   C4B57778   9.081  32.026   7.274
 4405POPC   NC357779  17.286  43.621   5.239
 4405POPC   PO457780  17.892  43.963   5.078
 4405POPC   GL157781  17.957  43.905   5.600
 4405POPC   GL257782  17.961  43.544   5.676
 4405POPC   C1A57783  17.913  44.071   6.103
 4405POPC   D2A57784  17.630  44.168   6.523
 4405POPC   C3A57785  17.670  43.943   6.952
 4405POPC   C4A57786  17.339  43.599   7.077
 4405POPC   C1B57787  17.681  43.603   6.045
 4405POPC   C2B57788  17.718  43.627   6.514
 4405POPC   C3B57789  17.803  43.448   6.941
 4405POPC   C4B57790  17.693  43.455   7.411
 4406POPC   NC357791   6.831  43.927   5.405
 4406POPC   PO457792   6.287  44.341   5.620
 4406POPC   GL157793   6.462  43.944   5.797
 4406POPC   GL257794   6.270  43.602   5.804
 4406POPC   C1A57795   6.627  43.924   6.221
 4406POPC   D2A57796   6.664  44.065   6.651
 4406POPC   C3A57797   6.769  43.685   6.876
 4406POPC   C4A57798   7.062  43.548   7.162
 4406POPC   C1B57799   6.329  43.501   6.262
 4406POPC   C2B57800   6.285  43.729   6.683
 4406POPC   C3B57801   6.325  43.762   7.156
 4406POPC   C4B57802   6.214  43.806   7.615
 4407POPC   NC357803  33.712  27.893   5.213
 4407POPC   PO457804  33.565  27.297   5.362
 4407POPC   GL157805  33.676  27.553   5.745
 4407POPC   GL257806  33.790  27.918   5.716
 4407POPC   C1A57807  33.772  27.431   6.197
 4407POPC   D2A57808  33.590  27.340   6.636
 4407POPC   C3A57809  33.742  27.450   7.065
 4407POPC   C4A57810  33.771  27.435   7.525
 4407POPC   C1B57811  33.860  27.965   6.144
 4407POPC   C2B57812  33.952  27.768   6.540
 4407POPC   C3B57813  34.024  27.884   6.963
 4407POPC   C4B57814  33.714  27.931   7.292
 4408POPC   NC357815  14.539   3.658   5.512
 4408POPC   PO457816  14.415   4.291   5.248
 4408POPC   GL157817  14.437   4.194   5.723
 4408POPC   GL257818  14.772   4.243   5.852
 4408POPC   C1A57819  14.400   4.152   6.204
 4408POPC   D2A57820  14.632   4.221   6.621
 4408POPC   C3A57821  14.320   4.146   6.956
 4408POPC   C4A57822  14.406   3.951   7.329
 4408POPC   C1B57823  14.750   4.545   6.214
 4408POPC   C2B57824  14.709   4.752   6.627
 4408POPC   C3B57825  14.588   4.590   7.017
 4408POPC   C4B57826  14.780   4.235   7.160
 4409POPC   NC357827   6.946  35.534   5.352
 4409POPC   PO457828   6.334  35.142   5.408
 4409POPC   GL157829   6.456  35.317   5.789
 4409POPC   GL257830   6.805  35.237   5.733
 4409POPC   C1A57831   6.491  35.530   6.203
 4409POPC   D2A57832   6.276  35.582   6.584
 4409POPC   C3A57833   6.501  35.539   6.974
 4409POPC   C4A57834   6.421  35.284   7.331
 4409POPC   C1B57835   6.845  35.152   6.165
 4409POPC   C2B57836   6.762  35.314   6.598
 4409POPC   C3B57837   6.806  35.120   7.028
 4409POPC   C4B57838   6.755  34.856   7.396
 4410POPC   NC357839  28.085  27.482   5.485
 4410POPC   PO457840  27.753  28.094   5.406
 4410POPC   GL157841  27.995  27.952   5.799
 4410POPC   GL257842  27.842  27.659   5.902
 4410POPC   C1A57843  28.120  27.888   6.272
 4410POPC   D2A57844  28.102  27.678   6.712
 4410POPC   C3A57845  27.853  27.749   7.112
 4410POPC   C4A57846  27.622  27.706   7.516
 4410POPC   C1B57847  27.621  27.730   6.302
 4410POPC   C2B57848  27.538  27.625   6.742
 4410POPC   C3B57849  27.510  27.367   7.142
 4410POPC   C4B57850  27.256  27.327   7.531
 4411POPC   NC357851   4.602   6.434   5.376
 4411POPC   PO457852   4.107   6.857   5.400
 4411POPC   GL157853   4.396   6.837   5.759
 4411POPC   GL257854   4.455   6.508   5.851
 4411POPC   C1A57855   4.282   6.864   6.208
 4411POPC   D2A57856   4.478   6.716   6.587
 4411POPC   C3A57857   4.167   6.774   6.906
 4411POPC   C4A57858   4.407   6.603   7.196
 4411POPC   C1B57859   4.131   6.373   6.101
 4411POPC   C2B57860   4.096   6.422   6.501
 4411POPC   C3B57861   4.251   6.257   6.850
 4411POPC   C4B57862   4.159   6.169   7.252
 4412POPC   NC357863   3.710  38.904   5.415
 4412POPC   PO457864   3.379  38.259   5.347
 4412POPC   GL157865   3.545  38.433   5.720
 4412POPC   GL257866   3.872  38.588   5.806
 4412POPC   C1A57867   3.594  38.317   6.142
 4412POPC   D2A57868   3.469  38.541   6.499
 4412POPC   C3A57869   3.585  38.388   6.855
 4412POPC   C4A57870   3.508  38.516   7.226
 4412POPC   C1B57871   3.825  38.796   6.233
 4412POPC   C2B57872   3.967  38.708   6.644
 4412POPC   C3B57873   3.993  38.620   7.067
 4412POPC   C4B57874   3.867  38.717   7.507
 4413POPC   NC357875  12.661  29.453   5.598
 4413POPC   PO457876  13.290  29.289   5.488
 4413POPC   GL157877  13.045  29.195   5.863
 4413POPC   GL257878  12.951  28.846   5.827
 4413POPC   C1A57879  12.748  29.216   6.248
 4413POPC   D2A57880  12.522  29.171   6.668
 4413POPC   C3A57881  12.777  29.311   7.056
 4413POPC   C4A57882  13.158  29.256   7.422
 4413POPC   C1B57883  13.090  28.835   6.268
 4413POPC   C2B57884  13.026  29.021   6.669
 4413POPC   C3B57885  13.048  28.898   7.103
 4413POPC   C4B57886  13.013  28.750   7.570
 4414POPC   NC357887   9.320  17.528   5.389
 4414POPC   PO457888   8.668  17.635   5.416
 4414POPC   GL157889   8.968  17.471   5.758
 4414POPC   GL257890   9.171  17.160   5.766
 4414POPC   C1A57891   8.926  17.585   6.177
 4414POPC   D2A57892   8.765  17.626   6.559
 4414POPC   C3A57893   8.899  17.730   6.940
 4414POPC   C4A57894   9.141  17.694   7.262
 4414POPC   C1B57895   9.287  17.225   6.198
 4414POPC   C2B57896   9.260  17.433   6.615
 4414POPC   C3B57897   9.095  17.265   6.999
 4414POPC   C4B57898   9.198  17.215   7.421
 4415POPC   NC357899  41.871  41.990   5.126
 4415POPC   PO457900  41.476  42.505   5.422
 4415POPC   GL157901  41.853  42.526   5.674
 4415POPC   GL257902  41.841  42.182   5.747
 4415POPC   C1A57903  41.901  42.613   6.118
 4415POPC   D2A57904  41.575  42.656   6.415
 4415POPC   C3A57905  41.633  42.564   6.850
 4415POPC   C4A57906  41.545  42.535   7.284
 4415POPC   C1B57907  41.570  42.185   6.138
 4415POPC   C2B57908  41.482  42.003   6.547
 4415POPC   C3B57909  41.374  42.123   6.949
 4415POPC   C4B57910  41.593  42.020   7.282
 4416POPC   NC357911   8.739  39.313   5.411
 4416POPC   PO457912   9.409  39.528   5.516
 4416POPC   GL157913   9.098  39.296   5.800
 4416POPC   GL257914   8.756  39.076   5.856
 4416POPC   C1A57915   8.937  39.427   6.178
 4416POPC   D2A57916   8.744  39.218   6.502
 4416POPC   C3A57917   8.897  39.395   6.860
 4416POPC   C4A57918   8.986  39.278   7.254
 4416POPC   C1B57919   8.613  38.795   6.184
 4416POPC   C2B57920   8.797  38.649   6.554
 4416POPC   C3B57921   8.796  38.890   6.901
 4416POPC   C4B57922   8.561  38.934   7.249
 4417POPC   NC357923  15.442  34.353   5.446
 4417POPC   PO457924  14.783  34.438   5.422
 4417POPC   GL157925  15.040  34.454   5.812
 4417POPC   GL257926  15.336  34.256   5.929
 4417POPC   C1A57927  14.964  34.497   6.277
 4417POPC   D2A57928  15.002  34.677   6.709
 4417POPC   C3A57929  14.953  34.390   7.065
 4417POPC   C4A57930  14.853  34.125   7.432
 4417POPC   C1B57931  15.428  34.663   6.130
 4417POPC   C2B57932  15.523  34.745   6.582
 4417POPC   C3B57933  15.410  34.661   7.040
 4417POPC   C4B57934  15.092  34.770   7.378
 4418POPC   NC357935   2.846  12.629   5.049
 4418POPC   PO457936   3.231  12.903   5.476
 4418POPC   GL157937   3.036  12.688   5.786
 4418POPC   GL257938   2.692  12.622   5.713
 4418POPC   C1A57939   2.948  12.810   6.218
 4418POPC   D2A57940   2.784  12.966   6.629
 4418POPC   C3A57941   2.824  12.826   7.068
 4418POPC   C4A57942   3.147  12.565   7.276
 4418POPC   C1B57943   2.446  12.693   6.131
 4418POPC   C2B57944   2.296  12.986   6.511
 4418POPC   C3B57945   2.426  13.159   6.952
 4418POPC   C4B57946   2.463  13.105   7.400
 4419POPC   NC357947   3.678  30.245   5.457
 4419POPC   PO457948   3.567  29.518   5.413
 4419POPC   GL157949   3.577  29.829   5.746
 4419POPC   GL257950   3.282  30.016   5.777
 4419POPC   C1A57951   3.659  30.097   6.139
 4419POPC   D2A57952   3.817  30.195   6.569
 4419POPC   C3A57953   3.543  30.130   6.875
 4419POPC   C4A57954   3.511  29.955   7.274
 4419POPC   C1B57955   3.208  29.821   6.163
 4419POPC   C2B57956   3.372  29.743   6.566
 4419POPC   C3B57957   3.136  29.835   6.931
 4419POPC   C4B57958   3.114  29.642   7.301
 4420POPC   NC357959   7.233  44.825   5.225
 4420POPC   PO457960   7.821  44.533   5.418
 4420POPC   GL157961   7.567  44.425   5.770
 4420POPC   GL257962   7.844  44.306   5.947
 4420POPC   C1A57963   7.385  44.542   6.182
 4420POPC   D2A57964   7.396  44.910   6.496
 4420POPC   C3A57965   7.276  44.780   6.933
 4420POPC   C4A57966   7.210  44.436   7.244
 4420POPC   C1B57967   7.874  44.721   6.086
 4420POPC   C2B57968   7.937  44.871   6.493
 4420POPC   C3B57969   7.796  44.922   6.892
 4420POPC   C4B57970   7.674  44.677   7.258
 4421POPC   NC357971  19.706  31.734   5.323
 4421POPC   PO457972  20.161  31.234   5.541
 4421POPC   GL157973  19.876  31.531   5.774
 4421POPC   GL257974  20.006  31.870   5.769
 4421POPC   C1A57975  19.588  31.558   6.163
 4421POPC   D2A57976  19.689  31.666   6.602
 4421POPC   C3A57977  19.618  31.386   6.924
 4421POPC   C4A57978  19.709  31.337   7.356
 4421POPC   C1B57979  19.971  31.898   6.242
 4421POPC   C2B57980  20.216  31.704   6.586
 4421POPC   C3B57981  20.092  31.588   7.004
 4421POPC   C4B57982  20.098  31.695   7.422
 4422POPC   NC357983   3.316  32.140   5.498
 4422POPC   PO457984   2.683  31.976   5.430
 4422POPC   GL157985   2.840  31.993   5.842
 4422POPC   GL257986   3.118  32.258   5.941
 4422POPC   C1A57987   2.713  32.123   6.233
 4422POPC   D2A57988   2.981  32.388   6.468
 4422POPC   C3A57989   2.764  32.397   6.847
 4422POPC   C4A57990   2.724  32.181   7.243
 4422POPC   C1B57991   3.191  31.899   6.213
 4422POPC   C2B57992   2.982  31.895   6.631
 4422POPC   C3B57993   3.155  32.067   7.006
 4422POPC   C4B57994   3.350  32.064   7.402
 4423POPC   NC357995   7.562  17.875   5.178
 4423POPC   PO457996   7.383  17.277   5.363
 4423POPC   GL157997   7.299  17.618   5.714
 4423POPC   GL257998   7.582  17.853   5.736
 4423POPC   C1A57999   7.096  17.554   6.114
 4423POPC   D2A58000   7.168  17.197   6.412
 4423POPC   C3A58001   7.410  17.314   6.787
 4423POPC   C4A58002   7.324  17.137   7.200
 4423POPC   C1B58003   7.641  17.614   6.125
 4423POPC   C2B58004   7.857  17.604   6.538
 4423POPC   C3B58005   7.780  17.802   6.945
 4423POPC   C4B58006   7.467  17.629   7.208
 4424POPC   NC358007  31.271  42.755   5.680
 4424POPC   PO458008  31.650  42.194   5.406
 4424POPC   GL158009  31.577  42.360   5.787
 4424POPC   GL258010  31.279  42.194   5.843
 4424POPC   C1A58011  31.640  42.437   6.222
 4424POPC   D2A58012  31.881  42.172   6.518
 4424POPC   C3A58013  31.730  42.253   6.931
 4424POPC   C4A58014  31.839  42.205   7.377
 4424POPC   C1B58015  31.083  42.344   6.227
 4424POPC   C2B58016  30.966  42.431   6.653
 4424POPC   C3B58017  31.034  42.580   7.072
 4424POPC   C4B58018  31.423  42.473   7.276
 4425POPC   NC358019  22.488  21.909   5.397
 4425POPC   PO458020  21.885  21.892   5.615
 4425POPC   GL158021  22.232  22.013   5.840
 4425POPC   GL258022  22.201  22.394   5.853
 4425POPC   C1A58023  22.155  22.020   6.254
 4425POPC   D2A58024  22.331  22.186   6.562
 4425POPC   C3A58025  22.181  21.960   6.855
 4425POPC   C4A58026  22.093  22.039   7.273
 4425POPC   C1B58027  21.862  22.415   6.152
 4425POPC   C2B58028  21.878  22.398   6.622
 4425POPC   C3B58029  22.144  22.445   6.978
 4425POPC   C4B58030  22.088  22.558   7.391
 4426POPC   NC358031  14.895  32.347   5.371
 4426POPC   PO458032  15.546  32.163   5.445
 4426POPC   GL158033  15.306  32.105   5.845
 4426POPC   GL258034  14.953  32.024   5.776
 4426POPC   C1A58035  15.423  32.290   6.292
 4426POPC   D2A58036  15.343  32.625   6.648
 4426POPC   C3A58037  15.235  32.419   7.051
 4426POPC   C4A58038  15.376  32.034   7.235
 4426POPC   C1B58039  14.922  32.326   6.134
 4426POPC   C2B58040  14.985  32.251   6.594
 4426POPC   C3B58041  14.874  32.032   6.989
 4426POPC   C4B58042  14.915  32.185   7.431
 4427POPC   NC358043  19.567  23.756   5.351
 4427POPC   PO458044  20.183  23.560   5.213
 4427POPC   GL158045  19.939  23.573   5.665
 4427POPC   GL258046  19.758  23.872   5.799
 4427POPC   C1A58047  20.005  23.629   6.157
 4427POPC   D2A58048  19.777  24.006   6.403
 4427POPC   C3A58049  19.789  23.986   6.869
 4427POPC   C4A58050  20.096  23.725   7.102
 4427POPC   C1B58051  19.497  23.633   6.101
 4427POPC   C2B58052  19.613  23.531   6.526
 4427POPC   C3B58053  19.643  23.483   6.958
 4427POPC   C4B58054  19.372  23.664   7.228
 4428POPC   NC358055  44.700   3.716   5.300
 4428POPC   PO458056  44.608   3.104   5.457
 4428POPC   GL158057  44.830   3.411   5.697
 4428POPC   GL258058  44.501   3.558   5.765
 4428POPC   C1A58059  44.921   3.601   6.102
 4428POPC   D2A58060  44.789   3.450   6.502
 4428POPC   C3A58061  44.799   3.693   6.887
 4428POPC   C4A58062  44.965   3.522   7.273
 4428POPC   C1B58063  44.348   3.501   6.200
 4428POPC   C2B58064  44.300   3.382   6.651
 4428POPC   C3B58065  44.499   3.321   7.030
 4428POPC   C4B58066  44.243   3.433   7.361
 4429POPC   NC358067   7.123   5.637   5.611
 4429POPC   PO458068   7.594   6.132   5.400
 4429POPC   GL158069   7.380   5.995   5.844
 4429POPC   GL258070   7.027   6.104   5.857
 4429POPC   C1A58071   7.322   5.803   6.302
 4429POPC   D2A58072   7.271   5.536   6.695
 4429POPC   C3A58073   7.477   5.707   7.069
 4429POPC   C4A58074   7.701   5.973   7.348
 4429POPC   C1B58075   6.844   5.954   6.255
 4429POPC   C2B58076   6.802   5.773   6.687
 4429POPC   C3B58077   6.988   5.727   7.103
 4429POPC   C4B58078   7.205   5.851   7.490
 4430POPC   NC358079  15.994   2.769   5.294
 4430POPC   PO458080  16.434   3.298   5.446
 4430POPC   GL158081  16.161   3.000   5.748
 4430POPC   GL258082  15.899   2.678   5.784
 4430POPC   C1A58083  16.091   2.894   6.201
 4430POPC   D2A58084  16.340   2.771   6.568
 4430POPC   C3A58085  16.159   2.590   6.963
 4430POPC   C4A58086  15.832   2.802   7.179
 4430POPC   C1B58087  15.611   2.664   6.175
 4430POPC   C2B58088  15.678   2.613   6.648
 4430POPC   C3B58089  15.557   2.403   7.061
 4430POPC   C4B58090  15.762   2.393   7.489
 4431POPC   NC358091  18.195  27.464   5.362
 4431POPC   PO458092  18.825  27.542   5.206
 4431POPC   GL158093  18.667  27.732   5.593
 4431POPC   GL258094  18.711  27.425   5.758
 4431POPC   C1A58095  18.418  27.828   5.988
 4431POPC   D2A58096  18.194  27.643   6.350
 4431POPC   C3A58097  18.186  27.753   6.798
 4431POPC   C4A58098  18.215  27.950   7.186
 4431POPC   C1B58099  18.618  27.403   6.205
 4431POPC   C2B58100  18.647  27.546   6.645
 4431POPC   C3B58101  18.514  27.356   7.041
 4431POPC   C4B58102  18.392  27.383   7.473
 4432POPC   NC358103  38.536  38.991   5.051
 4432POPC   PO458104  38.319  39.487   5.523
 4432POPC   GL158105  38.452  39.353   5.914
 4432POPC   GL258106  38.343  39.012   6.055
 4432POPC   C1A58107  38.342  39.450   6.319
 4432POPC   D2A58108  38.318  39.132   6.629
 4432POPC   C3A58109  38.365  39.334   7.039
 4432POPC   C4A58110  38.617  39.544   7.365
 4432POPC   C1B58111  38.722  38.906   6.216
 4432POPC   C2B58112  38.879  38.905   6.616
 4432POPC   C3B58113  38.607  38.868   6.968
 4432POPC   C4B58114  38.517  39.019   7.414
 4433POPC   NC358115  40.639  43.285   5.382
 4433POPC   PO458116  39.926  43.023   5.324
 4433POPC   GL158117  40.023  43.144   5.716
 4433POPC   GL258118  40.374  43.016   5.746
 4433POPC   C1A58119  39.777  43.096   6.088
 4433POPC   D2A58120  39.832  42.896   6.495
 4433POPC   C3A58121  39.825  43.094   6.889
 4433POPC   C4A58122  39.997  42.836   7.224
 4433POPC   C1B58123  40.244  42.914   6.170
 4433POPC   C2B58124  40.292  43.141   6.542
 4433POPC   C3B58125  40.340  43.108   6.951
 4433POPC   C4B58126  40.111  43.332   7.263
 4434POPC   NC358127  16.106  44.494   5.311
 4434POPC   PO458128  15.550  44.902   5.363
 4434POPC   GL158129  15.667  44.811   5.776
 4434POPC   GL258130  15.828  44.476   5.790
 4434POPC   C1A58131  15.696  44.749   6.220
 4434POPC   D2A58132  15.793  44.468   6.546
 4434POPC   C3A58133  15.717  44.611   6.974
 4434POPC   C4A58134  15.872  44.963   7.231
 4434POPC   C1B58135  16.183  44.656   6.085
 4434POPC   C2B58136  16.282  44.764   6.538
 4434POPC   C3B58137  16.218  44.634   6.969
 4434POPC   C4B58138  16.152  44.328   7.273
 4435POPC   NC358139   2.759  26.452   5.626
 4435POPC   PO458140   3.094  26.980   5.488
 4435POPC   GL158141   2.890  26.916   5.853
 4435POPC   GL258142   2.510  26.870   5.778
 4435POPC   C1A58143   2.953  26.718   6.244
 4435POPC   D2A58144   2.829  26.390   6.540
 4435POPC   C3A58145   2.730  26.626   6.903
 4435POPC   C4A58146   2.983  26.625   7.311
 4435POPC   C1B58147   2.526  27.095   6.159
 4435POPC   C2B58148   2.704  27.067   6.551
 4435POPC   C3B58149   2.469  27.089   6.891
 4435POPC   C4B58150   2.649  26.988   7.246
 4436POPC   NC358151  15.342  12.991   5.565
 4436POPC   PO458152  14.929  13.242   5.054
 4436POPC   GL158153  14.868  12.889   5.599
 4436POPC   GL258154  14.898  13.095   5.951
 4436POPC   C1A58155  15.051  12.638   6.039
 4436POPC   D2A58156  15.000  12.414   6.455
 4436POPC   C3A58157  14.937  12.597   6.877
 4436POPC   C4A58158  15.151  12.944   7.139
 4436POPC   C1B58159  15.157  13.070   6.346
 4436POPC   C2B58160  15.372  12.775   6.662
 4436POPC   C3B58161  15.620  12.752   7.068
 4436POPC   C4B58162  15.617  13.120   7.387
 4437POPC   NC358163  12.263  33.924   5.588
 4437POPC   PO458164  11.727  34.363   5.452
 4437POPC   GL158165  11.862  34.108   5.830
 4437POPC   GL258166  12.185  34.156   6.031
 4437POPC   C1A58167  11.845  33.800   6.151
 4437POPC   D2A58168  11.695  33.691   6.539
 4437POPC   C3A58169  11.896  33.536   6.909
 4437POPC   C4A58170  12.191  33.614   7.256
 4437POPC   C1B58171  12.189  34.053   6.462
 4437POPC   C2B58172  11.955  34.048   6.851
 4437POPC   C3B58173  12.196  34.118   7.206
 4437POPC   C4B58174  12.661  34.117   7.236
 4438POPC   NC358175  27.967   5.406   5.619
 4438POPC   PO458176  27.390   5.143   5.381
 4438POPC   GL158177  27.455   5.324   5.803
 4438POPC   GL258178  27.629   5.007   5.945
 4438POPC   C1A58179  27.478   5.362   6.267
 4438POPC   D2A58180  27.555   4.989   6.560
 4438POPC   C3A58181  27.521   5.110   6.982
 4438POPC   C4A58182  27.637   5.556   7.119
 4438POPC   C1B58183  27.922   4.718   6.238
 4438POPC   C2B58184  28.007   4.749   6.690
 4438POPC   C3B58185  27.931   4.722   7.138
 4438POPC   C4B58186  27.989   4.596   7.586
 4439POPC   NC358187  40.573  30.519   5.065
 4439POPC   PO458188  41.035  30.970   5.258
 4439POPC   GL158189  40.855  30.858   5.686
 4439POPC   GL258190  40.559  30.613   5.678
 4439POPC   C1A58191  40.914  30.629   6.110
 4439POPC   D2A58192  41.099  30.411   6.502
 4439POPC   C3A58193  41.014  30.666   6.886
 4439POPC   C4A58194  40.812  31.019   7.150
 4439POPC   C1B58195  40.388  30.504   6.101
 4439POPC   C2B58196  40.590  30.553   6.515
 4439POPC   C3B58197  40.477  30.620   6.950
 4439POPC   C4B58198  40.746  30.530   7.288
 4440POPC   NC358199   3.855  28.503   5.668
 4440POPC   PO458200   3.201  28.342   5.391
 4440POPC   GL158201   3.368  28.366   5.842
 4440POPC   GL258202   3.651  28.137   5.956
 4440POPC   C1A58203   3.239  28.301   6.292
 4440POPC   D2A58204   3.379  28.183   6.708
 4440POPC   C3A58205   3.522  28.523   6.934
 4440POPC   C4A58206   3.390  28.736   7.313
 4440POPC   C1B58207   3.739  28.364   6.346
 4440POPC   C2B58208   3.907  28.165   6.705
 4440POPC   C3B58209   3.792  28.081   7.120
 4440POPC   C4B58210   3.766  28.401   7.376
 4441POPC   NC358211  27.388  18.552   5.478
 4441POPC   PO458212  27.421  17.860   5.415
 4441POPC   GL158213  27.437  18.106   5.805
 4441POPC   GL258214  27.664  18.369   5.858
 4441POPC   C1A58215  27.318  18.299   6.228
 4441POPC   D2A58216  27.233  18.561   6.607
 4441POPC   C3A58217  27.446  18.557   7.022
 4441POPC   C4A58218  27.484  18.210   7.303
 4441POPC   C1B58219  27.838  18.227   6.231
 4441POPC   C2B58220  27.696  18.279   6.643
 4441POPC   C3B58221  27.914  18.297   7.022
 4441POPC   C4B58222  28.041  18.545   7.335
 4442POPC   NC358223   5.551  16.316   5.772
 4442POPC   PO458224   5.799  15.840   5.303
 4442POPC   GL158225   5.707  15.817   5.711
 4442POPC   GL258226   5.381  15.618   5.666
 4442POPC   C1A58227   5.905  15.898   6.138
 4442POPC   D2A58228   5.797  16.199   6.473
 4442POPC   C3A58229   5.793  16.008   6.887
 4442POPC   C4A58230   5.476  16.063   7.188
 4442POPC   C1B58231   5.610  15.472   6.063
 4442POPC   C2B58232   5.546  15.683   6.465
 4442POPC   C3B58233   5.384  15.648   6.874
 4442POPC   C4B58234   5.596  15.550   7.234
 4443POPC   NC358235  29.487   9.683   5.494
 4443POPC   PO458236  30.008   9.980   5.500
 4443POPC   GL158237  29.933  10.092   5.903
 4443POPC   GL258238  29.559  10.130   5.813
 4443POPC   C1A58239  30.077  10.004   6.358
 4443POPC   D2A58240  30.132   9.680   6.716
 4443POPC   C3A58241  29.994   9.750   7.146
 4443POPC   C4A58242  30.196   9.677   7.572
 4443POPC   C1B58243  29.620   9.777   6.147
 4443POPC   C2B58244  29.607   9.416   6.429
 4443POPC   C3B58245  29.620   9.524   6.858
 4443POPC   C4B58246  29.483   9.851   7.146
 4444POPC   NC358247  41.253  35.890   5.527
 4444POPC   PO458248  41.787  36.270   5.534
 4444POPC   GL158249  41.546  36.166   5.869
 4444POPC   GL258250  41.540  35.819   5.984
 4444POPC   C1A58251  41.229  36.200   6.164
 4444POPC   D2A58252  41.229  36.020   6.560
 4444POPC   C3A58253  41.517  36.218   6.850
 4444POPC   C4A58254  41.376  36.022   7.200
 4444POPC   C1B58255  41.689  36.124   6.363
 4444POPC   C2B58256  42.051  36.314   6.566
 4444POPC   C3B58257  42.014  36.438   6.976
 4444POPC   C4B58258  41.825  36.228   7.294
 4445POPC   NC358259  14.656  33.021   5.386
 4445POPC   PO458260  13.925  33.022   5.421
 4445POPC   GL158261  14.252  32.905   5.764
 4445POPC   GL258262  14.416  33.185   5.825
 4445POPC   C1A58263  14.224  32.894   6.240
 4445POPC   D2A58264  14.154  32.700   6.644
 4445POPC   C3A58265  14.169  32.979   6.995
 4445POPC   C4A58266  14.526  32.932   7.196
 4445POPC   C1B58267  14.588  33.272   6.232
 4445POPC   C2B58268  14.532  33.129   6.665
 4445POPC   C3B58269  14.760  33.332   7.016
 4445POPC   C4B58270  14.906  33.219   7.432
 4446POPC   NC358271  44.315  34.463   5.616
 4446POPC   PO458272  43.631  34.517   5.419
 4446POPC   GL158273  43.831  34.514   5.802
 4446POPC   GL258274  43.882  34.177   5.832
 4446POPC   C1A58275  43.715  34.635   6.233
 4446POPC   D2A58276  43.449  34.536   6.607
 4446POPC   C3A58277  43.636  34.592   7.015
 4446POPC   C4A58278  43.692  34.259   7.286
 4446POPC   C1B58279  44.108  34.291   6.199
 4446POPC   C2B58280  44.026  34.426   6.597
 4446POPC   C3B58281  44.102  34.282   6.987
 4446POPC   C4B58282  44.138  34.615   7.260
 4447POPC   NC358283  24.129  12.862   5.516
 4447POPC   PO458284  24.759  12.593   5.315
 4447POPC   GL158285  24.667  12.888   5.694
 4447POPC   GL258286  24.387  12.816   5.939
 4447POPC   C1A58287  24.745  13.141   6.101
 4447POPC   D2A58288  24.452  13.163   6.456
 4447POPC   C3A58289  24.585  13.069   6.872
 4447POPC   C4A58290  24.312  13.032   7.280
 4447POPC   C1B58291  24.705  12.628   6.179
 4447POPC   C2B58292  24.619  12.392   6.554
 4447POPC   C3B58293  24.419  12.399   6.925
 4447POPC   C4B58294  24.647  12.659   7.143
 4448POPC   NC358295  37.084  30.738   5.284
 4448POPC   PO458296  36.941  30.150   5.525
 4448POPC   GL158297  36.898  30.512   5.739
 4448POPC   GL258298  36.613  30.678   5.568
 4448POPC   C1A58299  37.049  30.598   6.171
 4448POPC   D2A58300  36.967  30.374   6.568
 4448POPC   C3A58301  36.962  30.533   6.988
 4448POPC   C4A58302  37.207  30.814   7.214
 4448POPC   C1B58303  36.618  30.841   6.030
 4448POPC   C2B58304  36.745  30.856   6.497
 4448POPC   C3B58305  36.607  30.918   6.942
 4448POPC   C4B58306  36.688  30.816   7.385
 4449POPC   NC358307  27.527  11.011   5.389
 4449POPC   PO458308  27.474  11.636   5.624
 4449POPC   GL158309  27.648  11.282   5.858
 4449POPC   GL258310  27.788  10.931   5.850
 4449POPC   C1A58311  27.549  11.163   6.298
 4449POPC   D2A58312  27.277  11.258   6.680
 4449POPC   C3A58313  27.365  11.172   7.129
 4449POPC   C4A58314  27.514  11.460   7.496
 4449POPC   C1B58315  28.046  11.178   6.173
 4449POPC   C2B58316  27.970  11.236   6.623
 4449POPC   C3B58317  27.870  11.182   7.054
 4449POPC   C4B58318  27.787  11.026   7.477
 4450POPC   NC358319   2.935  14.746   5.402
 4450POPC   PO458320   3.051  15.478   5.511
 4450POPC   GL158321   2.869  15.166   5.765
 4450POPC   GL258322   3.139  14.940   5.813
 4450POPC   C1A58323   2.595  15.066   6.121
 4450POPC   D2A58324   2.538  15.276   6.531
 4450POPC   C3A58325   2.513  15.051   6.916
 4450POPC   C4A58326   2.661  15.098   7.314
 4450POPC   C1B58327   3.090  15.011   6.235
 4450POPC   C2B58328   2.861  14.872   6.567
 4450POPC   C3B58329   3.023  14.978   6.948
 4450POPC   C4B58330   3.155  15.189   7.293
 4451POPC   NC358331  21.737  44.002   5.409
 4451POPC   PO458332  22.340  43.684   5.250
 4451POPC   GL158333  22.184  43.628   5.688
 4451POPC   GL258334  21.893  43.431   5.695
 4451POPC   C1A58335  22.365  43.709   6.106
 4451POPC   D2A58336  22.263  43.599   6.538
 4451POPC   C3A58337  22.403  43.852   6.866
 4451POPC   C4A58338  22.445  43.993   7.272
 4451POPC   C1B58339  21.839  43.642   6.122
 4451POPC   C2B58340  21.793  43.443   6.515
 4451POPC   C3B58341  21.930  43.579   6.936
 4451POPC   C4B58342  21.957  44.010   7.107
 4452POPC   NC358343   6.170   4.100   5.352
 4452POPC   PO458344   5.603   4.434   5.546
 4452POPC   GL158345   5.837   4.293   5.919
 4452POPC   GL258346   6.190   4.390   5.945
 4452POPC   C1A58347   5.813   4.270   6.392
 4452POPC   D2A58348   5.716   4.358   6.830
 4452POPC   C3A58349   5.959   4.228   7.172
 4452POPC   C4A58350   6.056   4.233   7.604
 4452POPC   C1B58351   6.273   4.048   6.176
 4452POPC   C2B58352   6.177   3.965   6.581
 4452POPC   C3B58353   6.348   3.916   6.973
 4452POPC   C4B58354   6.171   3.789   7.347
 4453POPC   NC358355  23.710  43.997   5.494
 4453POPC   PO458356  23.844  44.663   5.342
 4453POPC   GL158357  23.580  44.499   5.665
 4453POPC   GL258358  23.833  44.361   5.839
 4453POPC   C1A58359  23.424  44.616   6.091
 4453POPC   D2A58360  23.694  44.789   6.425
 4453POPC   C3A58361  23.539  44.772   6.825
 4453POPC   C4A58362  23.554  44.535   7.159
 4453POPC   C1B58363  23.763  44.285   6.244
 4453POPC   C2B58364  23.833  44.355   6.646
 4453POPC   C3B58365  24.014  44.584   6.938
 4453POPC   C4B58366  24.171  44.566   7.333
 4454POPC   NC358367  40.171  44.167   5.422
 4454POPC   PO458368  39.796  44.815   5.445
 4454POPC   GL158369  39.991  44.570   5.747
 4454POPC   GL258370  39.800  44.262   5.817
 4454POPC   C1A58371  39.987  44.751   6.146
 4454POPC   D2A58372  40.244  44.879   6.483
 4454POPC   C3A58373  40.045  44.682   6.858
 4454POPC   C4A58374  40.076  44.862   7.263
 4454POPC   C1B58375  39.550  44.480   6.112
 4454POPC   C2B58376  39.642  44.666   6.515
 4454POPC   C3B58377  39.511  44.745   6.932
 4454POPC   C4B58378  39.591  44.669   7.364
 4455POPC   NC358379  19.739   6.088   5.455
 4455POPC   PO458380  19.813   5.455   5.467
 4455POPC   GL158381  19.812   5.743   5.850
 4455POPC   GL258382  20.012   6.060   5.904
 4455POPC   C1A58383  19.576   5.949   6.193
 4455POPC   D2A58384  19.455   6.016   6.622
 4455POPC   C3A58385  19.704   6.091   6.986
 4455POPC   C4A58386  19.911   5.881   7.316
 4455POPC   C1B58387  20.065   5.969   6.364
 4455POPC   C2B58388  20.137   5.877   6.823
 4455POPC   C3B58389  20.342   5.676   7.198
 4455POPC   C4B58390  20.288   5.784   7.660
 4456POPC   NC358391  36.309   1.791   5.157
 4456POPC   PO458392  36.097   2.372   5.414
 4456POPC   GL158393  36.296   2.167   5.763
 4456POPC   GL258394  36.056   1.876   5.845
 4456POPC   C1A58395  36.367   2.109   6.218
 4456POPC   D2A58396  36.193   2.320   6.575
 4456POPC   C3A58397  36.082   2.180   6.980
 4456POPC   C4A58398  36.360   2.091   7.257
 4456POPC   C1B58399  35.958   1.838   6.309
 4456POPC   C2B58400  35.876   1.780   6.728
 4456POPC   C3B58401  36.147   1.656   7.065
 4456POPC   C4B58402  35.958   1.618   7.461
 4457POPC   NC358403  26.948   7.024   5.514
 4457POPC   PO458404  26.354   7.310   5.287
 4457POPC   GL158405  26.666   7.429   5.713
 4457POPC   GL258406  27.000   7.353   5.874
 4457POPC   C1A58407  26.618   7.565   6.163
 4457POPC   D2A58408  26.558   7.625   6.626
 4457POPC   C3A58409  26.619   7.443   7.054
 4457POPC   C4A58410  26.470   7.578   7.517
 4457POPC   C1B58411  26.904   7.163   6.239
 4457POPC   C2B58412  26.983   7.305   6.640
 4457POPC   C3B58413  27.035   7.094   7.000
 4457POPC   C4B58414  27.084   7.309   7.334
 4458POPC   NC358415  44.533  35.412   5.349
 4458POPC   PO458416  44.605  34.740   5.373
 4458POPC   GL158417  44.533  35.089   5.738
 4458POPC   GL258418  44.875  35.213   5.776
 4458POPC   C1A58419  44.559  35.449   6.088
 4458POPC   D2A58420  44.456  35.678   6.473
 4458POPC   C3A58421  44.333  35.366   6.802
 4458POPC   C4A58422  44.357  35.267   7.249
 4458POPC   C1B58423  44.833  35.065   6.244
 4458POPC   C2B58424  44.873  35.321   6.659
 4458POPC   C3B58425  44.781  35.521   7.097
 4458POPC   C4B58426  44.878  35.496   7.573
 4459POPC   NC358427  18.174  21.572   5.423
 4459POPC   PO458428  18.782  21.482   5.166
 4459POPC   GL158429  18.521  21.311   5.685
 4459POPC   GL258430  18.299  21.083   5.730
 4459POPC   C1A58431  18.327  21.474   6.130
 4459POPC   D2A58432  18.174  21.536   6.546
 4459POPC   C3A58433  18.393  21.651   6.899
 4459POPC   C4A58434  18.266  21.459   7.284
 4459POPC   C1B58435  18.347  20.983   6.181
 4459POPC   C2B58436  18.153  21.013   6.621
 4459POPC   C3B58437  18.305  20.980   7.063
 4459POPC   C4B58438  18.104  20.863   7.458
 4460POPC   NC358439  28.748  24.095   5.545
 4460POPC   PO458440  29.128  23.612   5.517
 4460POPC   GL158441  29.252  23.679   5.905
 4460POPC   GL258442  29.019  23.939   5.971
 4460POPC   C1A58443  29.415  23.821   6.286
 4460POPC   D2A58444  29.273  23.634   6.656
 4460POPC   C3A58445  29.454  23.729   7.044
 4460POPC   C4A58446  29.202  23.906   7.331
 4460POPC   C1B58447  28.981  24.090   6.394
 4460POPC   C2B58448  29.054  24.051   6.859
 4460POPC   C3B58449  28.831  24.258   7.202
 4460POPC   C4B58450  28.691  24.299   7.645
 4461POPC   NC358451  31.812   0.736   5.513
 4461POPC   PO458452  31.350   0.199   5.468
 4461POPC   GL158453  31.631   0.349   5.809
 4461POPC   GL258454  31.380   0.621   5.842
 4461POPC   C1A58455  31.686   0.636   6.234
 4461POPC   D2A58456  31.442   0.646   6.666
 4461POPC   C3A58457  31.473   0.321   7.004
 4461POPC   C4A58458  31.787   0.339   7.338
 4461POPC   C1B58459  31.317   0.296   6.199
 4461POPC   C2B58460  31.203   0.144   6.563
 4461POPC   C3B58461  30.959   0.340   6.868
 4461POPC   C4B58462  30.996   0.457   7.282
 4462POPC   NC358463  37.119  42.769   5.140
 4462POPC   PO458464  36.881  43.342   5.388
 4462POPC   GL158465  36.758  43.146   5.764
 4462POPC   GL258466  37.097  43.230   5.894
 4462POPC   C1A58467  36.736  42.918   6.176
 4462POPC   D2A58468  36.719  43.075   6.583
 4462POPC   C3A58469  36.914  42.878   6.932
 4462POPC   C4A58470  36.649  42.966   7.285
 4462POPC   C1B58471  37.312  43.406   6.238
 4462POPC   C2B58472  37.233  43.288   6.669
 4462POPC   C3B58473  37.296  43.390   7.095
 4462POPC   C4B58474  37.125  43.104   7.366
 4463POPC   NC358475   8.568  35.012   5.459
 4463POPC   PO458476   8.057  35.481   5.472
 4463POPC   GL158477   8.092  35.347   5.873
 4463POPC   GL258478   8.402  35.218   5.879
 4463POPC   C1A58479   8.234  35.470   6.280
 4463POPC   D2A58480   8.489  35.711   6.529
 4463POPC   C3A58481   8.405  35.535   6.934
 4463POPC   C4A58482   8.040  35.426   7.174
 4463POPC   C1B58483   8.608  35.081   6.256
 4463POPC   C2B58484   8.760  35.176   6.653
 4463POPC   C3B58485   8.728  34.959   7.057
 4463POPC   C4B58486   8.505  34.904   7.468
 4464POPC   NC358487  30.561  13.544   5.262
 4464POPC   PO458488  31.171  13.563   5.268
 4464POPC   GL158489  30.863  13.665   5.669
 4464POPC   GL258490  30.992  14.017   5.619
 4464POPC   C1A58491  30.636  13.588   6.149
 4464POPC   D2A58492  30.381  13.440   6.583
 4464POPC   C3A58493  30.485  13.487   7.055
 4464POPC   C4A58494  30.921  13.456   7.216
 4464POPC   C1B58495  30.895  14.021   6.077
 4464POPC   C2B58496  30.988  13.959   6.518
 4464POPC   C3B58497  30.800  13.860   6.898
 4464POPC   C4B58498  30.805  13.964   7.321
 4465POPC   NC358499  14.496  29.412   5.473
 4465POPC   PO458500  14.809  28.863   5.532
 4465POPC   GL158501  14.508  29.013   5.834
 4465POPC   GL258502  14.350  29.348   5.977
 4465POPC   C1A58503  14.443  28.920   6.254
 4465POPC   D2A58504  14.443  29.170   6.611
 4465POPC   C3A58505  14.415  28.889   6.957
 4465POPC   C4A58506  14.461  29.046   7.365
 4465POPC   C1B58507  14.010  29.172   6.287
 4465POPC   C2B58508  13.955  29.077   6.729
 4465POPC   C3B58509  14.137  29.323   7.055
 4465POPC   C4B58510  14.191  29.481   7.450
 4466POPC   NC358511   0.207  41.979   5.221
 4466POPC   PO458512   0.257  41.397   5.364
 4466POPC   GL158513   0.358  41.725   5.665
 4466POPC   GL258514   0.624  41.984   5.654
 4466POPC   C1A58515   0.214  41.850   6.064
 4466POPC   D2A58516   0.034  41.819   6.475
 4466POPC   C3A58517   0.342  41.775   6.824
 4466POPC   C4A58518   0.355  41.605   7.273
 4466POPC   C1B58519   0.750  41.797   6.096
 4466POPC   C2B58520   0.879  41.539   6.494
 4466POPC   C3B58521   0.768  41.518   6.955
 4466POPC   C4B58522   0.878  41.635   7.409
 4467POPC   NC358523   2.655  31.486   5.319
 4467POPC   PO458524   3.285  31.275   5.499
 4467POPC   GL158525   2.939  31.488   5.794
 4467POPC   GL258526   2.533  31.545   5.790
 4467POPC   C1A58527   2.803  31.574   6.238
 4467POPC   D2A58528   2.899  31.400   6.665
 4467POPC   C3A58529   2.886  31.549   7.110
 4467POPC   C4A58530   2.462  31.365   7.266
 4467POPC   C1B58531   2.333  31.747   6.138
 4467POPC   C2B58532   2.412  31.643   6.571
 4467POPC   C3B58533   2.475  31.814   6.994
 4467POPC   C4B58534   2.455  31.817   7.499
 4468POPC   NC358535  38.505  36.471   5.516
 4468POPC   PO458536  38.278  35.867   5.389
 4468POPC   GL158537  38.584  36.063   5.799
 4468POPC   GL258538  38.855  36.386   5.891
 4468POPC   C1A58539  38.528  35.908   6.232
 4468POPC   D2A58540  38.186  35.883   6.569
 4468POPC   C3A58541  38.352  35.958   6.981
 4468POPC   C4A58542  38.441  36.063   7.410
 4468POPC   C1B58543  39.000  36.130   6.250
 4468POPC   C2B58544  38.801  36.011   6.657
 4468POPC   C3B58545  38.852  36.179   7.069
 4468POPC   C4B58546  38.754  36.458   7.393
 4469POPC   NC358547  11.938  24.049   5.573
 4469POPC   PO458548  12.280  23.538   5.413
 4469POPC   GL158549  12.234  23.654   5.805
 4469POPC   GL258550  11.887  23.543   5.788
 4469POPC   C1A58551  12.106  23.851   6.188
 4469POPC   D2A58552  11.929  23.992   6.556
 4469POPC   C3A58553  12.214  24.078   6.875
 4469POPC   C4A58554  12.335  23.775   7.161
 4469POPC   C1B58555  11.780  23.266   6.125
 4469POPC   C2B58556  11.836  23.409   6.541
 4469POPC   C3B58557  11.854  23.636   6.935
 4469POPC   C4B58558  11.733  24.031   7.056
 4470POPC   NC358559  15.864  22.219   5.435
 4470POPC   PO458560  16.465  22.540   5.302
 4470POPC   GL158561  16.296  22.338   5.688
 4470POPC   GL258562  16.221  21.975   5.708
 4470POPC   C1A58563  16.064  22.350   6.095
 4470POPC   D2A58564  16.100  22.550   6.502
 4470POPC   C3A58565  15.844  22.384   6.816
 4470POPC   C4A58566  15.962  22.339   7.220
 4470POPC   C1B58567  15.965  21.853   6.120
 4470POPC   C2B58568  15.792  21.931   6.563
 4470POPC   C3B58569  16.018  21.858   6.971
 4470POPC   C4B58570  15.943  21.866   7.447
 4471POPC   NC358571   5.640   1.485   5.589
 4471POPC   PO458572   5.804   2.172   5.471
 4471POPC   GL158573   5.623   2.040   5.860
 4471POPC   GL258574   5.899   1.840   5.881
 4471POPC   C1A58575   5.548   1.853   6.267
 4471POPC   D2A58576   5.804   1.935   6.619
 4471POPC   C3A58577   5.671   1.831   7.002
 4471POPC   C4A58578   5.545   2.081   7.324
 4471POPC   C1B58579   6.092   1.742   6.251
 4471POPC   C2B58580   6.183   1.592   6.643
 4471POPC   C3B58581   5.986   1.366   6.941
 4471POPC   C4B58582   6.061   1.604   7.271
 4472POPC   NC358583  43.038   1.750   5.322
 4472POPC   PO458584  43.178   2.373   5.451
 4472POPC   GL158585  43.018   2.075   5.776
 4472POPC   GL258586  42.807   1.756   5.768
 4472POPC   C1A58587  43.275   1.975   6.165
 4472POPC   D2A58588  43.370   1.678   6.519
 4472POPC   C3A58589  43.266   1.868   6.909
 4472POPC   C4A58590  43.301   2.041   7.287
 4472POPC   C1B58591  42.902   1.656   6.200
 4472POPC   C2B58592  42.896   1.868   6.567
 4472POPC   C3B58593  42.762   1.738   6.970
 4472POPC   C4B58594  42.796   1.971   7.331
 4473POPC   NC358595  35.507  39.652   5.399
 4473POPC   PO458596  35.064  39.098   5.166
 4473POPC   GL158597  35.124  39.204   5.644
 4473POPC   GL258598  35.139  39.549   5.773
 4473POPC   C1A58599  35.202  39.085   6.107
 4473POPC   D2A58600  35.423  38.897   6.474
 4473POPC   C3A58601  35.626  39.132   6.809
 4473POPC   C4A58602  35.561  39.167   7.253
 4473POPC   C1B58603  35.014  39.553   6.226
 4473POPC   C2B58604  35.191  39.358   6.617
 4473POPC   C3B58605  35.175  39.513   7.064
 4473POPC   C4B58606  35.293  39.553   7.508
 4474POPC   NC358607  40.869  27.180   5.317
 4474POPC   PO458608  40.468  26.673   5.391
 4474POPC   GL158609  40.626  26.930   5.729
 4474POPC   GL258610  40.961  26.939   5.791
 4474POPC   C1A58611  40.637  26.809   6.174
 4474POPC   D2A58612  40.681  26.561   6.535
 4474POPC   C3A58613  40.605  26.834   6.886
 4474POPC   C4A58614  40.875  27.014   7.194
 4474POPC   C1B58615  41.092  27.041   6.228
 4474POPC   C2B58616  41.056  26.922   6.658
 4474POPC   C3B58617  41.332  27.072   6.972
 4474POPC   C4B58618  41.357  26.977   7.418
 4475POPC   NC358619   3.469  24.305   5.273
 4475POPC   PO458620   3.861  24.826   5.546
 4475POPC   GL158621   3.657  24.532   5.795
 4475POPC   GL258622   3.583  24.189   5.755
 4475POPC   C1A58623   3.732  24.496   6.222
 4475POPC   D2A58624   3.521  24.627   6.569
 4475POPC   C3A58625   3.705  24.530   6.954
 4475POPC   C4A58626   3.802  24.715   7.338
 4475POPC   C1B58627   3.542  24.032   6.171
 4475POPC   C2B58628   3.531  24.119   6.620
 4475POPC   C3B58629   3.454  24.091   7.068
 4475POPC   C4B58630   3.390  24.426   7.342
 4476POPC   NC358631  20.582  10.843   5.302
 4476POPC   PO458632  20.705  10.149   5.260
 4476POPC   GL158633  20.523  10.360   5.647
 4476POPC   GL258634  20.738  10.628   5.794
 4476POPC   C1A58635  20.583  10.233   6.099
 4476POPC   D2A58636  20.691  10.462   6.484
 4476POPC   C3A58637  20.468  10.364   6.864
 4476POPC   C4A58638  20.658  10.083   7.144
 4476POPC   C1B58639  20.410  10.724   6.141
 4476POPC   C2B58640  20.346  10.824   6.593
 4476POPC   C3B58641  20.417  10.862   7.053
 4476POPC   C4B58642  20.237  10.736   7.471
 4477POPC   NC358643  15.369  20.868   5.632
 4477POPC   PO458644  14.766  20.592   5.336
 4477POPC   GL158645  14.897  20.646   5.783
 4477POPC   GL258646  15.154  20.392   5.840
 4477POPC   C1A58647  14.943  20.667   6.260
 4477POPC   D2A58648  15.206  20.827   6.630
 4477POPC   C3A58649  15.236  20.645   7.078
 4477POPC   C4A58650  15.026  20.438   7.480
 4477POPC   C1B58651  15.416  20.497   6.217
 4477POPC   C2B58652  15.580  20.462   6.666
 4477POPC   C3B58653  15.622  20.331   7.110
 4477POPC   C4B58654  15.533  20.555   7.508
 4478POPC   NC358655  11.338  37.575   5.530
 4478POPC   PO458656  10.931  38.070   5.552
 4478POPC   GL158657  11.154  37.877   5.913
 4478POPC   GL258658  11.510  37.912   5.919
 4478POPC   C1A58659  11.259  37.548   6.238
 4478POPC   D2A58660  11.138  37.339   6.640
 4478POPC   C3A58661  11.328  37.461   7.052
 4478POPC   C4A58662  11.170  37.499   7.477
 4478POPC   C1B58663  11.363  38.023   6.370
 4478POPC   C2B58664  11.136  37.843   6.728
 4478POPC   C3B58665  11.158  37.931   7.169
 4478POPC   C4B58666  11.106  38.063   7.607
 4479POPC   NC358667  29.086  25.105   5.192
 4479POPC   PO458668  28.850  24.571   5.559
 4479POPC   GL158669  29.068  24.455   5.913
 4479POPC   GL258670  29.403  24.291   5.867
 4479POPC   C1A58671  29.204  24.667   6.268
 4479POPC   D2A58672  29.215  24.483   6.643
 4479POPC   C3A58673  29.136  24.623   7.022
 4479POPC   C4A58674  28.823  24.819   7.265
 4479POPC   C1B58675  29.569  24.325   6.294
 4479POPC   C2B58676  29.570  24.151   6.721
 4479POPC   C3B58677  29.479  24.271   7.140
 4479POPC   C4B58678  29.191  24.402   7.502
 4480POPC   NC358679   4.446  25.767   5.129
 4480POPC   PO458680   4.091  26.300   5.325
 4480POPC   GL158681   4.412  26.266   5.690
 4480POPC   GL258682   4.447  25.914   5.696
 4480POPC   C1A58683   4.624  26.187   6.115
 4480POPC   D2A58684   4.703  26.028   6.502
 4480POPC   C3A58685   4.491  26.227   6.835
 4480POPC   C4A58686   4.498  26.113   7.262
 4480POPC   C1B58687   4.153  26.036   6.062
 4480POPC   C2B58688   4.208  25.910   6.508
 4480POPC   C3B58689   4.141  25.835   6.943
 4480POPC   C4B58690   4.015  25.509   7.233
 4481POPC   NC358691  25.667  31.652   5.472
 4481POPC   PO458692  26.346  31.482   5.432
 4481POPC   GL158693  26.046  31.325   5.748
 4481POPC   GL258694  25.697  31.235   5.800
 4481POPC   C1A58695  26.147  31.285   6.180
 4481POPC   D2A58696  26.412  31.404   6.553
 4481POPC   C3A58697  26.278  31.235   6.952
 4481POPC   C4A58698  26.119  31.295   7.350
 4481POPC   C1B58699  25.635  31.386   6.230
 4481POPC   C2B58700  25.884  31.448   6.620
 4481POPC   C3B58701  25.902  31.639   7.037
 4481POPC   C4B58702  25.577  31.544   7.329
 4482POPC   NC358703   3.215  15.940   5.446
 4482POPC   PO458704   3.837  15.683   5.468
 4482POPC   GL158705   3.616  15.904   5.774
 4482POPC   GL258706   3.345  15.718   5.883
 4482POPC   C1A58707   3.725  15.928   6.210
 4482POPC   D2A58708   4.045  15.847   6.545
 4482POPC   C3A58709   3.865  15.845   6.965
 4482POPC   C4A58710   3.559  16.129   7.145
 4482POPC   C1B58711   3.228  15.906   6.249
 4482POPC   C2B58712   3.173  16.030   6.639
 4482POPC   C3B58713   3.194  15.797   6.952
 4482POPC   C4B58714   3.474  15.621   7.209
 4483POPC   NC358715  23.719  14.555   5.415
 4483POPC   PO458716  24.077  14.024   5.446
 4483POPC   GL158717  23.862  14.262   5.816
 4483POPC   GL258718  23.886  14.659   5.881
 4483POPC   C1A58719  23.707  14.318   6.251
 4483POPC   D2A58720  23.859  14.207   6.651
 4483POPC   C3A58721  23.697  14.226   7.071
 4483POPC   C4A58722  23.837  14.158   7.505
 4483POPC   C1B58723  23.540  14.784   6.165
 4483POPC   C2B58724  23.494  14.671   6.603
 4483POPC   C3B58725  23.459  14.670   7.037
 4483POPC   C4B58726  23.570  14.583   7.407
 4484POPC   NC358727  27.545  44.489   5.353
 4484POPC   PO458728  28.019  44.882   5.497
 4484POPC   GL158729  27.833  44.914   5.867
 4484POPC   GL258730  27.573  44.728   5.797
 4484POPC   C1A58731  27.853  44.685   6.262
 4484POPC   D2A58732  27.569  44.534   6.596
 4484POPC   C3A58733  27.745  44.662   6.968
 4484POPC   C4A58734  27.976  44.506   7.255
 4484POPC   C1B58735  27.357  44.713   6.164
 4484POPC   C2B58736  27.195  44.958   6.483
 4484POPC   C3B58737  27.239  44.802   6.899
 4484POPC   C4B58738  27.390  44.888   7.302
 4485POPC   NC358739  31.917  32.411   5.439
 4485POPC   PO458740  32.501  32.041   5.340
 4485POPC   GL158741  32.548  32.326   5.730
 4485POPC   GL258742  32.288  32.561   5.746
 4485POPC   C1A58743  32.460  32.360   6.194
 4485POPC   D2A58744  32.155  32.405   6.549
 4485POPC   C3A58745  32.343  32.265   6.926
 4485POPC   C4A58746  32.330  32.066   7.389
 4485POPC   C1B58747  32.019  32.671   6.106
 4485POPC   C2B58748  32.005  32.896   6.517
 4485POPC   C3B58749  32.041  32.745   6.953
 4485POPC   C4B58750  31.964  32.394   7.246
 4486POPC   NC358751  38.800  30.626   5.394
 4486POPC   PO458752  38.145  30.284   5.565
 4486POPC   GL158753  38.496  30.427   5.841
 4486POPC   GL258754  38.605  30.748   5.920
 4486POPC   C1A58755  38.442  30.400   6.285
 4486POPC   D2A58756  38.677  30.331   6.681
 4486POPC   C3A58757  38.402  30.486   7.002
 4486POPC   C4A58758  38.181  30.710   7.308
 4486POPC   C1B58759  38.625  30.895   6.358
 4486POPC   C2B58760  38.614  30.950   6.822
 4486POPC   C3B58761  38.705  30.864   7.273
 4486POPC   C4B58762  38.876  30.988   7.711
 4487POPC   NC358763   1.473  18.539   5.444
 4487POPC   PO458764   1.037  18.041   5.579
 4487POPC   GL158765   1.209  18.356   5.844
 4487POPC   GL258766   1.479  18.195   5.850
 4487POPC   C1A58767   1.188  18.443   6.278
 4487POPC   D2A58768   1.067  18.663   6.667
 4487POPC   C3A58769   1.171  18.424   7.057
 4487POPC   C4A58770   1.609  18.388   7.156
 4487POPC   C1B58771   1.376  17.944   6.199
 4487POPC   C2B58772   1.197  18.028   6.612
 4487POPC   C3B58773   1.347  17.914   7.025
 4487POPC   C4B58774   1.119  17.922   7.397
 4488POPC   NC358775   0.958   0.436   5.595
 4488POPC   PO458776   1.483   0.159   5.353
 4488POPC   GL158777   1.455   0.362   5.758
 4488POPC   GL258778   1.390   0.740   5.673
 4488POPC   C1A58779   1.298   0.381   6.199
 4488POPC   D2A58780   1.402   0.287   6.630
 4488POPC   C3A58781   1.147   0.417   6.986
 4488POPC   C4A58782   0.957   0.501   7.436
 4488POPC   C1B58783   1.125   0.863   6.043
 4488POPC   C2B58784   1.262   0.846   6.472
 4488POPC   C3B58785   1.487   0.781   6.838
 4488POPC   C4B58786   1.337   0.789   7.262
 4489POPC   NC358787  14.051   0.609   5.520
 4489POPC   PO458788  14.789   0.414   5.403
 4489POPC   GL158789  14.513   0.400   5.809
 4489POPC   GL258790  14.240   0.171   5.807
 4489POPC   C1A58791  14.362   0.355   6.278
 4489POPC   D2A58792  14.122   0.569   6.616
 4489POPC   C3A58793  14.389   0.701   6.967
 4489POPC   C4A58794  14.659   0.460   7.209
 4489POPC   C1B58795  14.135  44.895   6.145
 4489POPC   C2B58796  14.389  44.882   6.523
 4489POPC   C3B58797  14.359   0.154   6.897
 4489POPC   C4B58798  14.059   0.347   7.192
 4490POPC   NC358799  35.876  11.908   5.434
 4490POPC   PO458800  36.553  11.937   5.608
 4490POPC   GL158801  36.207  12.026   5.853
 4490POPC   GL258802  36.436  12.212   6.038
 4490POPC   C1A58803  35.983  12.135   6.246
 4490POPC   D2A58804  35.850  12.244   6.660
 4490POPC   C3A58805  35.870  11.890   6.935
 4490POPC   C4A58806  36.166  11.791   7.271
 4490POPC   C1B58807  36.404  11.849   6.323
 4490POPC   C2B58808  36.347  11.860   6.760
 4490POPC   C3B58809  36.245  12.212   7.009
 4490POPC   C4B58810  36.294  12.254   7.436
 4491POPC   NC358811  32.465  35.943   5.456
 4491POPC   PO458812  33.137  35.902   5.578
 4491POPC   GL158813  33.017  36.102   5.918
 4491POPC   GL258814  32.656  36.178   5.907
 4491POPC   C1A58815  33.166  36.230   6.313
 4491POPC   D2A58816  32.949  36.302   6.695
 4491POPC   C3A58817  33.024  36.099   7.078
 4491POPC   C4A58818  32.980  36.215   7.475
 4491POPC   C1B58819  32.747  35.919   6.300
 4491POPC   C2B58820  32.740  35.826   6.737
 4491POPC   C3B58821  32.537  35.940   7.105
 4491POPC   C4B58822  32.501  36.260   7.367
 4492POPC   NC358823  26.439   4.471   5.322
 4492POPC   PO458824  27.123   4.185   5.275
 4492POPC   GL158825  26.903   4.435   5.603
 4492POPC   GL258826  26.727   4.144   5.636
 4492POPC   C1A58827  26.957   4.500   6.075
 4492POPC   D2A58828  26.842   4.617   6.510
 4492POPC   C3A58829  27.010   4.858   6.867
 4492POPC   C4A58830  27.003   4.598   7.243
 4492POPC   C1B58831  26.708   4.064   6.062
 4492POPC   C2B58832  26.594   4.158   6.502
 4492POPC   C3B58833  26.739   4.111   6.928
 4492POPC   C4B58834  26.642   3.869   7.285
 4493POPC   NC358835  27.844  30.210   5.345
 4493POPC   PO458836  27.576  29.603   5.389
 4493POPC   GL158837  27.722  29.846   5.736
 4493POPC   GL258838  27.420  29.965   5.810
 4493POPC   C1A58839  27.825  30.016   6.155
 4493POPC   D2A58840  27.965  29.903   6.588
 4493POPC   C3A58841  27.758  29.987   6.982
 4493POPC   C4A58842  27.803  30.305   7.315
 4493POPC   C1B58843  27.423  29.708   6.191
 4493POPC   C2B58844  27.508  29.682   6.623
 4493POPC   C3B58845  27.295  29.750   6.997
 4493POPC   C4B58846  27.376  30.044   7.331
 4494POPC   NC358847  14.135   9.980   5.365
 4494POPC   PO458848  14.728   9.821   5.348
 4494POPC   GL158849  14.560   9.829   5.762
 4494POPC   GL258850  14.644   9.509   5.875
 4494POPC   C1A58851  14.622   9.914   6.244
 4494POPC   D2A58852  14.480  10.036   6.691
 4494POPC   C3A58853  14.599   9.885   7.124
 4494POPC   C4A58854  14.390   9.808   7.544
 4494POPC   C1B58855  14.596   9.407   6.339
 4494POPC   C2B58856  14.566   9.491   6.795
 4494POPC   C3B58857  14.345   9.405   7.206
 4494POPC   C4B58858  14.482   9.299   7.639
 4495POPC   NC358859  21.619  17.437   5.307
 4495POPC   PO458860  21.199  17.937   5.403
 4495POPC   GL158861  21.427  17.629   5.747
 4495POPC   GL258862  21.591  17.261   5.794
 4495POPC   C1A58863  21.523  17.647   6.204
 4495POPC   D2A58864  21.385  17.910   6.581
 4495POPC   C3A58865  21.379  17.698   7.001
 4495POPC   C4A58866  21.045  17.771   7.289
 4495POPC   C1B58867  21.860  17.241   6.205
 4495POPC   C2B58868  21.807  17.294   6.702
 4495POPC   C3B58869  21.712  17.151   7.178
 4495POPC   C4B58870  21.752  17.020   7.638
 4496POPC   NC358871   1.300  26.535   5.149
 4496POPC   PO458872   1.066  27.043   5.540
 4496POPC   GL158873   1.066  26.803   5.866
 4496POPC   GL258874   0.956  26.501   5.682
 4496POPC   C1A58875   1.085  26.940   6.302
 4496POPC   D2A58876   1.424  27.095   6.556
 4496POPC   C3A58877   1.318  27.116   7.002
 4496POPC   C4A58878   1.315  26.787   7.305
 4496POPC   C1B58879   1.110  26.366   6.116
 4496POPC   C2B58880   1.296  26.516   6.485
 4496POPC   C3B58881   1.357  26.472   6.898
 4496POPC   C4B58882   0.997  26.355   7.182
 4497POPC   NC358883  44.461  30.102   5.453
 4497POPC   PO458884  44.683  29.449   5.366
 4497POPC   GL158885  44.602  29.595   5.797
 4497POPC   GL258886  44.270  29.782   5.814
 4497POPC   C1A58887  44.863  29.760   6.173
 4497POPC   D2A58888   0.064  29.917   6.561
 4497POPC   C3A58889  44.882  29.901   6.956
 4497POPC   C4A58890  44.649  30.110   7.253
 4497POPC   C1B58891  44.364  29.694   6.252
 4497POPC   C2B58892  44.423  29.896   6.644
 4497POPC   C3B58893  44.372  29.737   7.052
 4497POPC   C4B58894  44.212  29.832   7.460
 4498POPC   NC358895   9.250   3.218   5.718
 4498POPC   PO458896   8.865   2.913   5.263
 4498POPC   GL158897   8.915   2.842   5.772
 4498POPC   GL258898   8.762   3.112   5.884
 4498POPC   C1A58899   9.046   3.018   6.285
 4498POPC   D2A58900   8.945   3.126   6.744
 4498POPC   C3A58901   9.053   2.731   6.989
 4498POPC   C4A58902   9.040   2.602   7.431
 4498POPC   C1B58903   8.606   2.763   6.203
 4498POPC   C2B58904   8.613   2.709   6.689
 4498POPC   C3B58905   8.586   2.616   7.151
 4498POPC   C4B58906   8.561   2.860   7.528
 4499POPC   NC358907  17.732  27.956   5.127
 4499POPC   PO458908  17.285  28.433   5.241
 4499POPC   GL158909  17.347  28.358   5.679
 4499POPC   GL258910  17.698  28.322   5.705
 4499POPC   C1A58911  17.283  28.490   6.109
 4499POPC   D2A58912  17.603  28.651   6.388
 4499POPC   C3A58913  17.521  28.614   6.840
 4499POPC   C4A58914  17.593  28.482   7.264
 4499POPC   C1B58915  17.632  28.097   6.112
 4499POPC   C2B58916  17.526  28.180   6.560
 4499POPC   C3B58917  17.421  28.097   6.984
 4499POPC   C4B58918  17.248  28.070   7.421
 4500POPC   NC358919  41.238   0.950   5.410
 4500POPC   PO458920  41.733   1.414   5.409
 4500POPC   GL158921  41.588   1.166   5.778
 4500POPC   GL258922  41.248   1.268   5.878
 4500POPC   C1A58923  41.596   1.260   6.242
 4500POPC   D2A58924  41.379   1.229   6.659
 4500POPC   C3A58925  41.664   1.256   7.030
 4500POPC   C4A58926  41.671   1.317   7.488
 4500POPC   C1B58927  41.162   1.540   6.259
 4500POPC   C2B58928  41.068   1.682   6.685
 4500POPC   C3B58929  41.277   1.581   7.072
 4500POPC   C4B58930  41.284   1.646   7.519
 4501POPC   NC358931  30.790  44.223   5.374
 4501POPC   PO458932  30.432  44.814   5.565
 4501POPC   GL158933  30.697  44.803   5.925
 4501POPC   GL258934  30.913  44.552   5.835
 4501POPC   C1A58935  30.696  44.644   6.345
 4501POPC   D2A58936  30.777  44.880   6.713
 4501POPC   C3A58937  30.703  44.740   7.142
 4501POPC   C4A58938  30.447  44.905   7.481
 4501POPC   C1B58939  31.148  44.228   6.034
 4501POPC   C2B58940  31.191  44.117   6.476
 4501POPC   C3B58941  30.937  44.173   6.853
 4501POPC   C4B58942  31.049  44.356   7.264
 4502POPC   NC358943   2.636   1.769   5.384
 4502POPC   PO458944   3.208   2.202   5.476
 4502POPC   GL158945   3.127   2.178   5.875
 4502POPC   GL258946   2.784   2.029   5.865
 4502POPC   C1A58947   3.197   2.047   6.270
 4502POPC   D2A58948   3.038   1.726   6.500
 4502POPC   C3A58949   2.796   1.946   6.805
 4502POPC   C4A58950   2.895   1.927   7.236
 4502POPC   C1B58951   2.660   2.030   6.316
 4502POPC   C2B58952   2.522   2.363   6.624
 4502POPC   C3B58953   2.409   2.352   7.064
 4502POPC   C4B58954   2.453   2.129   7.470
 4503POPC   NC358955  22.939  34.104   5.547
 4503POPC   PO458956  22.602  33.533   5.438
 4503POPC   GL158957  22.870  33.587   5.780
 4503POPC   GL258958  22.635  33.829   5.881
 4503POPC   C1A58959  23.020  33.705   6.204
 4503POPC   D2A58960  23.206  33.933   6.564
 4503POPC   C3A58961  22.928  34.130   6.884
 4503POPC   C4A58962  23.040  34.144   7.334
 4503POPC   C1B58963  22.510  33.605   6.242
 4503POPC   C2B58964  22.709  33.736   6.627
 4503POPC   C3B58965  22.857  33.659   7.052
 4503POPC   C4B58966  22.754  33.732   7.497
 4504POPC   NC358967   5.279   3.945   5.469
 4504POPC   PO458968   4.957   3.301   5.471
 4504POPC   GL158969   4.738   3.502   5.827
 4504POPC   GL258970   4.836   3.838   5.839
 4504POPC   C1A58971   4.797   3.506   6.311
 4504POPC   D2A58972   4.999   3.722   6.668
 4504POPC   C3A58973   5.297   3.447   6.891
 4504POPC   C4A58974   5.020   3.190   7.156
 4504POPC   C1B58975   5.179   3.909   6.172
 4504POPC   C2B58976   5.388   4.042   6.568
 4504POPC   C3B58977   5.317   3.977   7.002
 4504POPC   C4B58978   5.145   3.697   7.301
 4505POPC   NC358979  38.543   9.288   5.226
 4505POPC   PO458980  38.041   8.956   5.454
 4505POPC   GL158981  38.415   9.000   5.767
 4505POPC   GL258982  38.516   8.660   5.936
 4505POPC   C1A58983  38.546   9.079   6.238
 4505POPC   D2A58984  38.765   9.202   6.629
 4505POPC   C3A58985  38.463   9.079   6.963
 4505POPC   C4A58986  38.191   8.801   7.231
 4505POPC   C1B58987  38.814   8.598   6.304
 4505POPC   C2B58988  38.911   8.698   6.757
 4505POPC   C3B58989  38.690   8.654   7.169
 4505POPC   C4B58990  38.423   8.337   7.275
 4506POPC   NC358991  42.220  33.425   5.448
 4506POPC   PO458992  42.604  34.076   5.337
 4506POPC   GL158993  42.489  34.018   5.783
 4506POPC   GL258994  42.307  33.705   5.867
 4506POPC   C1A58995  42.566  33.940   6.236
 4506POPC   D2A58996  42.293  33.809   6.552
 4506POPC   C3A58997  42.428  33.892   6.962
 4506POPC   C4A58998  42.437  33.505   7.216
 4506POPC   C1B58999  42.027  33.985   6.117
 4506POPC   C2B59000  41.845  34.041   6.558
 4506POPC   C3B59001  41.912  34.164   7.010
 4506POPC   C4B59002  42.125  33.969   7.377
 4507POPC   NC359003   1.890  15.392   5.327
 4507POPC   PO459004   2.446  15.032   5.425
 4507POPC   GL159005   2.133  15.113   5.776
 4507POPC   GL259006   2.015  15.463   5.830
 4507POPC   C1A59007   2.106  15.171   6.253
 4507POPC   D2A59008   1.872  14.977   6.623
 4507POPC   C3A59009   2.014  15.133   7.021
 4507POPC   C4A59010   2.212  14.878   7.366
 4507POPC   C1B59011   1.824  15.604   6.224
 4507POPC   C2B59012   1.779  15.470   6.673
 4507POPC   C3B59013   1.807  15.611   7.081
 4507POPC   C4B59014   2.029  15.462   7.452
 4508POPC   NC359015  32.976  41.404   5.533
 4508POPC   PO459016  33.255  42.022   5.413
 4508POPC   GL159017  33.087  41.810   5.788
 4508POPC   GL259018  32.730  41.826   5.755
 4508POPC   C1A59019  32.997  41.523   6.181
 4508POPC   D2A59020  32.843  41.434   6.624
 4508POPC   C3A59021  33.202  41.472   6.912
 4508POPC   C4A59022  33.254  41.720   7.294
 4508POPC   C1B59023  32.569  41.804   6.195
 4508POPC   C2B59024  32.667  41.931   6.627
 4508POPC   C3B59025  32.708  41.713   7.050
 4508POPC   C4B59026  32.696  41.627   7.500
 4509POPC   NC359027  24.309  44.731   5.246
 4509POPC   PO459028  24.556  44.097   5.334
 4509POPC   GL159029  24.601  44.474   5.679
 4509POPC   GL259030  24.265  44.621   5.754
 4509POPC   C1A59031  24.622  44.802   6.093
 4509POPC   D2A59032  24.739  44.957   6.555
 4509POPC   C3A59033  24.571  44.678   6.947
 4509POPC   C4A59034  24.665  44.405   7.342
 4509POPC   C1B59035  24.133  44.662   6.198
 4509POPC   C2B59036  24.238  44.878   6.592
 4509POPC   C3B59037  24.217   0.023   7.069
 4509POPC   C4B59038  23.835  44.941   7.326
 4510POPC   NC359039  22.701  30.834   5.260
 4510POPC   PO459040  23.110  30.485   5.547
 4510POPC   GL159041  22.946  30.818   5.734
 4510POPC   GL259042  23.266  30.967   5.744
 4510POPC   C1A59043  22.812  30.797   6.137
 4510POPC   D2A59044  22.748  30.473   6.482
 4510POPC   C3A59045  22.702  30.668   6.868
 4510POPC   C4A59046  22.887  30.729   7.250
 4510POPC   C1B59047  23.310  30.909   6.171
 4510POPC   C2B59048  23.045  30.972   6.527
 4510POPC   C3B59049  22.958  31.095   6.912
 4510POPC   C4B59050  22.934  31.255   7.322
 4511POPC   NC359051  25.210  34.308   5.349
 4511POPC   PO459052  25.443  34.923   5.485
 4511POPC   GL159053  25.421  34.696   5.849
 4511POPC   GL259054  25.585  34.978   6.019
 4511POPC   C1A59055  25.196  34.708   6.273
 4511POPC   D2A59056  25.191  34.799   6.733
 4511POPC   C3A59057  24.945  34.551   7.053
 4511POPC   C4A59058  25.031  34.380   7.479
 4511POPC   C1B59059  25.729  34.576   6.224
 4511POPC   C2B59060  25.755  34.383   6.617
 4511POPC   C3B59061  25.761  34.529   7.007
 4511POPC   C4B59062  25.416  34.703   7.207
 4512POPC   NC359063  40.605  19.349   5.559
 4512POPC   PO459064  41.143  19.037   5.212
 4512POPC   GL159065  40.991  18.941   5.691
 4512POPC   GL259066  40.673  18.970   5.906
 4512POPC   C1A59067  41.075  19.117   6.137
 4512POPC   D2A59068  40.819  19.295   6.480
 4512POPC   C3A59069  40.835  19.079   6.883
 4512POPC   C4A59070  41.178  19.078   7.161
 4512POPC   C1B59071  40.486  18.927   6.289
 4512POPC   C2B59072  40.220  18.923   6.633
 4512POPC   C3B59073  40.379  18.859   7.048
 4512POPC   C4B59074  40.587  19.058   7.376
 4513POPC   NC359075  17.262  40.671   4.994
 4513POPC   PO459076  17.809  40.778   5.411
 4513POPC   GL159077  17.509  40.796   5.697
 4513POPC   GL259078  17.216  40.956   5.509
 4513POPC   C1A59079  17.505  40.564   6.105
 4513POPC   D2A59080  17.632  40.316   6.474
 4513POPC   C3A59081  17.570  40.547   6.841
 4513POPC   C4A59082  17.446  40.464   7.240
 4513POPC   C1B59083  17.165  41.025   5.980
 4513POPC   C2B59084  17.269  40.937   6.407
 4513POPC   C3B59085  17.446  41.053   6.804
 4513POPC   C4B59086  17.599  40.973   7.230
 4514POPC   NC359087  44.990  31.778   5.327
 4514POPC   PO459088   0.487  31.199   5.352
 4514POPC   GL159089   0.553  31.404   5.789
 4514POPC   GL259090   0.534  31.775   5.814
 4514POPC   C1A59091   0.547  31.271   6.231
 4514POPC   D2A59092   0.268  31.323   6.598
 4514POPC   C3A59093   0.492  31.298   6.977
 4514POPC   C4A59094   0.532  31.531   7.376
 4514POPC   C1B59095   0.425  31.766   6.300
 4514POPC   C2B59096   0.432  31.806   6.764
 4514POPC   C3B59097   0.155  31.671   7.047
 4514POPC   C4B59098   0.074  31.285   7.314
 4515POPC   NC359099  32.561  26.594   5.436
 4515POPC   PO459100  31.948  26.713   5.395
 4515POPC   GL159101  32.088  26.909   5.756
 4515POPC   GL259102  32.397  27.071   5.732
 4515POPC   C1A59103  32.012  26.859   6.170
 4515POPC   D2A59104  32.214  26.672   6.518
 4515POPC   C3A59105  31.979  26.781   6.849
 4515POPC   C4A59106  32.052  26.673   7.251
 4515POPC   C1B59107  32.439  27.141   6.185
 4515POPC   C2B59108  32.382  27.150   6.648
 4515POPC   C3B59109  32.466  26.814   6.973
 4515POPC   C4B59110  32.602  26.661   7.381
 4516POPC   NC359111  19.718  11.274   5.416
 4516POPC   PO459112  20.349  11.519   5.190
 4516POPC   GL159113  20.134  11.403   5.685
 4516POPC   GL259114  19.918  11.051   5.837
 4516POPC   C1A59115  19.920  11.372   6.186
 4516POPC   D2A59116  19.989  11.194   6.580
 4516POPC   C3A59117  19.814  11.325   6.963
 4516POPC   C4A59118  20.002  11.165   7.346
 4516POPC   C1B59119  19.534  11.012   6.086
 4516POPC   C2B59120  19.421  11.073   6.530
 4516POPC   C3B59121  19.274  11.097   6.968
 4516POPC   C4B59122  19.481  11.205   7.346
 4517POPC   NC359123  21.921  31.524   5.333
 4517POPC   PO459124  22.410  31.151   5.105
 4517POPC   GL159125  22.311  31.277   5.551
 4517POPC   GL259126  22.607  31.216   5.692
 4517POPC   C1A59127  22.013  31.376   5.957
 4517POPC   D2A59128  21.859  31.684   6.291
 4517POPC   C3A59129  21.865  31.721   6.761
 4517POPC   C4A59130  21.970  31.684   7.213
 4517POPC   C1B59131  22.417  31.111   6.083
 4517POPC   C2B59132  22.150  31.268   6.460
 4517POPC   C3B59133  22.256  31.396   6.894
 4517POPC   C4B59134  22.399  31.155   7.264
 4518POPC   NC359135  21.578  21.576   5.491
 4518POPC   PO459136  20.994  21.444   5.693
 4518POPC   GL159137  21.098  21.266   6.033
 4518POPC   GL259138  21.452  21.261   5.950
 4518POPC   C1A59139  21.154  21.410   6.408
 4518POPC   D2A59140  21.395  21.557   6.708
 4518POPC   C3A59141  21.349  21.475   7.139
 4518POPC   C4A59142  21.678  21.382   7.456
 4518POPC   C1B59143  21.641  21.203   6.405
 4518POPC   C2B59144  21.551  21.087   6.858
 4518POPC   C3B59145  21.541  20.913   7.271
 4518POPC   C4B59146  21.676  20.941   7.730
 4519POPC   NC359147  35.927  28.678   5.472
 4519POPC   PO459148  36.308  28.045   5.365
 4519POPC   GL159149  36.153  28.263   5.697
 4519POPC   GL259150  36.428  28.502   5.684
 4519POPC   C1A59151  35.897  28.307   6.080
 4519POPC   D2A59152  35.856  28.206   6.510
 4519POPC   C3A59153  36.005  28.493   6.835
 4519POPC   C4A59154  35.931  28.409   7.262
 4519POPC   C1B59155  36.295  28.654   6.080
 4519POPC   C2B59156  36.325  28.799   6.504
 4519POPC   C3B59157  36.460  28.750   6.905
 4519POPC   C4B59158  36.426  28.434   7.197
 4520POPC   NC359159   1.091  24.068   5.335
 4520POPC   PO459160   1.586  23.797   5.674
 4520POPC   GL159161   1.176  23.786   5.813
 4520POPC   GL259162   1.054  23.468   5.707
 4520POPC   C1A59163   1.060  23.992   6.198
 4520POPC   D2A59164   0.980  24.144   6.601
 4520POPC   C3A59165   0.937  23.836   6.889
 4520POPC   C4A59166   1.213  23.935   7.190
 4520POPC   C1B59167   1.189  23.348   6.120
 4520POPC   C2B59168   1.214  23.567   6.514
 4520POPC   C3B59169   1.385  23.531   6.919
 4520POPC   C4B59170   1.094  23.398   7.218
 4521POPC   NC359171  11.233  29.429   5.083
 4521POPC   PO459172  11.625  29.562   5.561
 4521POPC   GL159173  11.460  29.878   5.867
 4521POPC   GL259174  11.124  30.016   5.763
 4521POPC   C1A59175  11.445  29.789   6.298
 4521POPC   D2A59176  11.563  30.006   6.669
 4521POPC   C3A59177  11.477  29.756   7.029
 4521POPC   C4A59178  11.523  29.754   7.501
 4521POPC   C1B59179  10.946  29.846   6.170
 4521POPC   C2B59180  11.033  29.939   6.594
 4521POPC   C3B59181  11.159  30.175   6.931
 4521POPC   C4B59182  11.142  30.037   7.331
 4522POPC   NC359183   5.239  38.966   5.457
 4522POPC   PO459184   4.730  39.499   5.451
 4522POPC   GL159185   4.951  39.295   5.780
 4522POPC   GL259186   4.850  38.946   5.806
 4522POPC   C1A59187   5.247  39.326   6.135
 4522POPC   D2A59188   5.298  39.516   6.534
 4522POPC   C3A59189   5.221  39.509   6.974
 4522POPC   C4A59190   5.453  39.405   7.324
 4522POPC   C1B59191   4.830  39.051   6.248
 4522POPC   C2B59192   4.922  39.185   6.674
 4522POPC   C3B59193   4.959  39.067   7.102
 4522POPC   C4B59194   4.849  38.635   7.215
 4523POPC   NC359195  39.762   6.386   5.368
 4523POPC   PO459196  40.112   6.899   5.144
 4523POPC   GL159197  39.926   6.794   5.639
 4523POPC   GL259198  39.856   6.440   5.853
 4523POPC   C1A59199  39.724   6.875   6.092
 4523POPC   D2A59200  39.535   6.819   6.548
 4523POPC   C3A59201  39.725   6.853   6.976
 4523POPC   C4A59202  40.121   6.868   7.224
 4523POPC   C1B59203  39.672   6.385   6.281
 4523POPC   C2B59204  39.889   6.436   6.674
 4523POPC   C3B59205  40.103   6.374   7.068
 4523POPC   C4B59206  40.079   6.437   7.527
 4524POPC   NC359207  10.029  18.985   5.358
 4524POPC   PO459208   9.447  19.285   5.532
 4524POPC   GL159209   9.781  19.209   5.812
 4524POPC   GL259210   9.850  18.869   5.841
 4524POPC   C1A59211   9.906  19.184   6.264
 4524POPC   D2A59212   9.745  19.062   6.696
 4524POPC   C3A59213   9.739  19.171   7.173
 4524POPC   C4A59214   9.865  19.393   7.575
 4524POPC   C1B59215   9.632  18.736   6.240
 4524POPC   C2B59216   9.575  18.562   6.673
 4524POPC   C3B59217   9.462  18.743   7.079
 4524POPC   C4B59218   9.423  18.882   7.518
 4525POPC   NC359219  32.752   1.018   5.321
 4525POPC   PO459220  33.400   1.252   5.528
 4525POPC   GL159221  33.022   1.315   5.682
 4525POPC   GL259222  32.960   0.968   5.788
 4525POPC   C1A59223  32.947   1.418   6.107
 4525POPC   D2A59224  33.088   1.260   6.486
 4525POPC   C3A59225  32.985   1.409   6.856
 4525POPC   C4A59226  32.892   1.317   7.266
 4525POPC   C1B59227  33.175   0.834   6.191
 4525POPC   C2B59228  33.321   0.828   6.639
 4525POPC   C3B59229  33.293   1.031   7.022
 4525POPC   C4B59230  33.314   1.097   7.492
 4526POPC   NC359231  29.902   6.996   5.372
 4526POPC   PO459232  30.038   7.642   5.410
 4526POPC   GL159233  30.074   7.628   5.814
 4526POPC   GL259234  30.041   7.268   5.809
 4526POPC   C1A59235  30.011   7.672   6.262
 4526POPC   D2A59236  30.057   7.436   6.650
 4526POPC   C3A59237  30.275   7.625   6.989
 4526POPC   C4A59238  30.013   7.863   7.274
 4526POPC   C1B59239  30.157   7.106   6.204
 4526POPC   C2B59240  30.061   6.931   6.583
 4526POPC   C3B59241  29.807   7.035   6.922
 4526POPC   C4B59242  29.853   7.380   7.178
 4527POPC   NC359243  14.642  27.654   5.268
 4527POPC   PO459244  14.013  27.778   5.608
 4527POPC   GL159245  14.318  27.572   5.854
 4527POPC   GL259246  14.426  27.783   6.077
 4527POPC   C1A59247  14.264  27.333   6.215
 4527POPC   D2A59248  14.514  27.352   6.598
 4527POPC   C3A59249  14.416  27.682   6.893
 4527POPC   C4A59250  14.327  27.568   7.296
 4527POPC   C1B59251  14.802  27.912   6.167
 4527POPC   C2B59252  14.833  27.831   6.560
 4527POPC   C3B59253  14.937  27.785   6.940
 4527POPC   C4B59254  14.745  27.862   7.332
 4528POPC   NC359255  12.534  31.535   5.527
 4528POPC   PO459256  13.131  31.465   5.123
 4528POPC   GL159257  13.030  31.559   5.577
 4528POPC   GL259258  13.066  31.836   5.757
 4528POPC   C1A59259  12.926  31.412   6.030
 4528POPC   D2A59260  12.725  31.507   6.448
 4528POPC   C3A59261  12.912  31.259   6.770
 4528POPC   C4A59262  12.889  31.058   7.150
 4528POPC   C1B59263  12.690  31.868   6.083
 4528POPC   C2B59264  12.480  31.975   6.475
 4528POPC   C3B59265  12.688  31.936   6.878
 4528POPC   C4B59266  12.754  31.573   7.152
 4529POPC   NC359267  22.333  33.990   5.416
 4529POPC   PO459268  21.922  33.449   5.557
 4529POPC   GL159269  22.147  33.681   5.873
 4529POPC   GL259270  22.140  34.064   5.905
 4529POPC   C1A59271  21.987  33.799   6.292
 4529POPC   D2A59272  21.968  33.909   6.699
 4529POPC   C3A59273  22.315  33.749   6.937
 4529POPC   C4A59274  22.409  33.437   7.208
 4529POPC   C1B59275  22.274  34.244   6.317
 4529POPC   C2B59276  22.359  34.244   6.768
 4529POPC   C3B59277  22.058  34.148   7.141
 4529POPC   C4B59278  21.876  33.722   7.188
 4530POPC   NC359279  36.417  26.801   5.435
 4530POPC   PO459280  35.750  26.560   5.367
 4530POPC   GL159281  36.007  26.712   5.755
 4530POPC   GL259282  36.361  26.524   5.839
 4530POPC   C1A59283  36.178  26.917   6.160
 4530POPC   D2A59284  36.232  27.132   6.592
 4530POPC   C3A59285  36.207  26.944   7.041
 4530POPC   C4A59286  35.955  26.691   7.342
 4530POPC   C1B59287  36.276  26.422   6.247
 4530POPC   C2B59288  36.232  26.607   6.628
 4530POPC   C3B59289  36.221  26.440   6.999
 4530POPC   C4B59290  36.452  26.547   7.359
 4531POPC   NC359291  30.309  30.089   5.427
 4531POPC   PO459292  30.978  29.816   5.455
 4531POPC   GL159293  30.917  30.059   5.801
 4531POPC   GL259294  30.593  30.224   5.830
 4531POPC   C1A59295  30.815  29.951   6.223
 4531POPC   D2A59296  30.966  29.665   6.540
 4531POPC   C3A59297  30.907  29.863   6.915
 4531POPC   C4A59298  30.706  29.872   7.276
 4531POPC   C1B59299  30.535  30.373   6.246
 4531POPC   C2B59300  30.734  30.255   6.617
 4531POPC   C3B59301  30.616  30.308   7.006
 4531POPC   C4B59302  30.809  30.451   7.323
 4532POPC   NC359303   6.371  33.775   5.453
 4532POPC   PO459304   6.999  33.898   5.604
 4532POPC   GL159305   6.729  33.669   5.823
 4532POPC   GL259306   6.555  33.964   5.931
 4532POPC   C1A59307   6.725  33.595   6.252
 4532POPC   D2A59308   6.738  33.873   6.611
 4532POPC   C3A59309   6.741  33.664   7.000
 4532POPC   C4A59310   6.385  33.430   7.108
 4532POPC   C1B59311   6.318  34.059   6.329
 4532POPC   C2B59312   6.370  34.303   6.696
 4532POPC   C3B59313   6.627  34.148   7.041
 4532POPC   C4B59314   6.906  34.000   7.415
 4533POPC   NC359315  30.365  11.906   5.391
 4533POPC   PO459316  30.923  12.224   5.533
 4533POPC   GL159317  30.742  12.025   5.804
 4533POPC   GL259318  30.431  12.171   5.861
 4533POPC   C1A59319  30.997  11.872   6.145
 4533POPC   D2A59320  30.872  11.851   6.568
 4533POPC   C3A59321  31.009  12.121   6.887
 4533POPC   C4A59322  31.145  11.941   7.270
 4533POPC   C1B59323  30.464  11.876   6.216
 4533POPC   C2B59324  30.384  11.661   6.614
 4533POPC   C3B59325  30.627  11.716   7.011
 4533POPC   C4B59326  30.648  12.103   7.242
 4534POPC   NC359327  19.043  34.233   5.030
 4534POPC   PO459328  19.289  33.881   5.567
 4534POPC   GL159329  19.254  33.614   5.925
 4534POPC   GL259330  18.948  33.507   5.809
 4534POPC   C1A59331  19.192  33.737   6.380
 4534POPC   D2A59332  18.825  33.972   6.582
 4534POPC   C3A59333  18.859  33.908   7.024
 4534POPC   C4A59334  19.001  33.751   7.419
 4534POPC   C1B59335  18.866  33.377   6.235
 4534POPC   C2B59336  18.822  33.474   6.698
 4534POPC   C3B59337  19.092  33.449   7.016
 4534POPC   C4B59338  19.227  33.276   7.385
 4535POPC   NC359339   9.277  32.936   5.104
 4535POPC   PO459340   8.815  33.209   5.447
 4535POPC   GL159341   8.866  33.095   5.846
 4535POPC   GL259342   9.103  32.817   5.870
 4535POPC   C1A59343   8.682  32.956   6.242
 4535POPC   D2A59344   8.860  32.753   6.638
 4535POPC   C3A59345   8.754  32.868   7.069
 4535POPC   C4A59346   8.929  33.199   7.327
 4535POPC   C1B59347   9.179  33.024   6.253
 4535POPC   C2B59348   9.324  33.069   6.630
 4535POPC   C3B59349   9.245  32.935   6.992
 4535POPC   C4B59350   9.177  32.493   7.063
 4536POPC   NC359351  19.377  25.583   5.322
 4536POPC   PO459352  19.162  24.956   5.035
 4536POPC   GL159353  19.123  25.156   5.499
 4536POPC   GL259354  18.813  25.355   5.601
 4536POPC   C1A59355  19.097  25.113   5.988
 4536POPC   D2A59356  19.158  25.353   6.410
 4536POPC   C3A59357  19.359  25.277   6.835
 4536POPC   C4A59358  19.214  25.335   7.267
 4536POPC   C1B59359  18.715  25.489   6.041
 4536POPC   C2B59360  18.697  25.545   6.498
 4536POPC   C3B59361  18.838  25.394   6.915
 4536POPC   C4B59362  18.753  25.540   7.343
 4537POPC   NC359363  12.212  22.361   5.545
 4537POPC   PO459364  11.722  21.942   5.337
 4537POPC   GL159365  11.760  22.107   5.777
 4537POPC   GL259366  12.100  21.999   5.858
 4537POPC   C1A59367  11.811  22.151   6.250
 4537POPC   D2A59368  11.994  22.369   6.594
 4537POPC   C3A59369  11.848  22.215   6.999
 4537POPC   C4A59370  12.118  22.397   7.288
 4537POPC   C1B59371  12.129  21.759   6.195
 4537POPC   C2B59372  12.140  21.860   6.621
 4537POPC   C3B59373  12.335  22.110   6.915
 4537POPC   C4B59374  12.539  21.850   7.211
 4538POPC   NC359375  24.966   7.437   5.476
 4538POPC   PO459376  25.642   7.065   5.401
 4538POPC   GL159377  25.592   7.206   5.833
 4538POPC   GL259378  25.307   7.466   5.849
 4538POPC   C1A59379  25.514   7.316   6.282
 4538POPC   D2A59380  25.351   7.514   6.664
 4538POPC   C3A59381  25.342   7.222   7.011
 4538POPC   C4A59382  25.701   7.069   7.257
 4538POPC   C1B59383  24.999   7.466   6.222
 4538POPC   C2B59384  24.840   7.558   6.662
 4538POPC   C3B59385  25.013   7.615   7.080
 4538POPC   C4B59386  24.944   7.470   7.527
 4539POPC   NC359387   3.371  39.580   5.571
 4539POPC   PO459388   3.417  38.950   5.771
 4539POPC   GL159389   3.476  39.312   5.997
 4539POPC   GL259390   3.764  39.562   5.896
 4539POPC   C1A59391   3.333  39.274   6.424
 4539POPC   D2A59392   3.237  38.953   6.722
 4539POPC   C3A59393   3.597  38.960   6.972
 4539POPC   C4A59394   3.572  39.308   7.242
 4539POPC   C1B59395   3.872  39.358   6.315
 4539POPC   C2B59396   3.705  39.459   6.746
 4539POPC   C3B59397   3.897  39.674   7.108
 4539POPC   C4B59398   3.975  39.557   7.563
 4540POPC   NC359399   0.145  20.486   5.549
 4540POPC   PO459400   0.542  21.071   5.500
 4540POPC   GL159401   0.384  20.848   5.843
 4540POPC   GL259402   0.614  20.560   5.912
 4540POPC   C1A59403   0.183  20.665   6.223
 4540POPC   D2A59404   0.341  20.416   6.583
 4540POPC   C3A59405   0.280  20.617   6.980
 4540POPC   C4A59406  44.927  20.513   7.189
 4540POPC   C1B59407   0.731  20.268   6.292
 4540POPC   C2B59408   0.777  20.246   6.800
 4540POPC   C3B59409   0.733  20.496   7.177
 4540POPC   C4B59410   0.831  20.935   7.233
 4541POPC   NC359411  28.891  20.281   5.477
 4541POPC   PO459412  28.850  21.003   5.521
 4541POPC   GL159413  28.985  20.778   5.889
 4541POPC   GL259414  29.229  20.532   5.867
 4541POPC   C1A59415  28.981  20.594   6.324
 4541POPC   D2A59416  28.968  20.300   6.689
 4541POPC   C3A59417  29.014  20.582   7.037
 4541POPC   C4A59418  29.129  20.837   7.380
 4541POPC   C1B59419  29.398  20.870   6.198
 4541POPC   C2B59420  29.575  20.905   6.638
 4541POPC   C3B59421  29.524  20.690   7.044
 4541POPC   C4B59422  29.818  20.521   7.341
 4542POPC   NC359423  44.442  42.898   5.530
 4542POPC   PO459424   0.081  43.215   5.402
 4542POPC   GL159425  44.763  43.207   5.752
 4542POPC   GL259426  44.804  42.852   5.898
 4542POPC   C1A59427  44.510  43.179   6.163
 4542POPC   D2A59428  44.405  43.061   6.590
 4542POPC   C3A59429  44.624  43.258   6.938
 4542POPC   C4A59430  44.527  43.224   7.390
 4542POPC   C1B59431  44.874  42.876   6.347
 4542POPC   C2B59432  44.791  42.774   6.781
 4542POPC   C3B59433  44.502  42.700   7.113
 4542POPC   C4B59434  44.618  42.575   7.519
 4543POPC   NC359435  31.069  11.786   5.467
 4543POPC   PO459436  30.538  11.476   5.449
 4543POPC   GL159437  30.728  11.524   5.840
 4543POPC   GL259438  31.028  11.339   5.826
 4543POPC   C1A59439  30.743  11.445   6.274
 4543POPC   D2A59440  30.565  11.120   6.501
 4543POPC   C3A59441  30.480  11.231   6.896
 4543POPC   C4A59442  30.426  11.007   7.245
 4543POPC   C1B59443  31.111  11.105   6.227
 4543POPC   C2B59444  31.034  11.258   6.673
 4543POPC   C3B59445  30.933  11.225   7.134
 4543POPC   C4B59446  31.064  11.442   7.517
 4544POPC   NC359447  31.737   0.001   5.323
 4544POPC   PO459448  31.189  44.562   5.411
 4544POPC   GL159449  31.486  44.724   5.711
 4544POPC   GL259450  31.251  44.926   5.877
 4544POPC   C1A59451  31.679  44.904   6.110
 4544POPC   D2A59452  31.833  44.717   6.474
 4544POPC   C3A59453  31.678  44.784   6.878
 4544POPC   C4A59454  31.515  44.513   7.200
 4544POPC   C1B59455  31.213  44.699   6.243
 4544POPC   C2B59456  31.237  44.605   6.662
 4544POPC   C3B59457  31.193  44.870   6.994
 4544POPC   C4B59458  31.183  44.879   7.367
 4545POPC   NC359459  22.631  31.583   5.266
 4545POPC   PO459460  23.320  31.366   5.121
 4545POPC   GL159461  23.058  31.372   5.534
 4545POPC   GL259462  22.952  31.655   5.706
 4545POPC   C1A59463  22.968  31.284   6.049
 4545POPC   D2A59464  22.678  31.323   6.460
 4545POPC   C3A59465  22.744  31.539   6.866
 4545POPC   C4A59466  22.580  31.649   7.251
 4545POPC   C1B59467  22.758  31.754   6.144
 4545POPC   C2B59468  22.878  31.909   6.559
 4545POPC   C3B59469  22.858  32.015   7.027
 4545POPC   C4B59470  23.082  31.738   7.366
 4546POPC   NC359471  18.076  22.550   5.542
 4546POPC   PO459472  17.903  21.917   5.256
 4546POPC   GL159473  18.066  22.055   5.658
 4546POPC   GL259474  18.009  21.794   5.859
 4546POPC   C1A59475  18.246  22.198   6.076
 4546POPC   D2A59476  18.400  21.994   6.430
 4546POPC   C3A59477  18.306  22.200   6.809
 4546POPC   C4A59478  18.362  22.058   7.217
 4546POPC   C1B59479  17.811  21.749   6.252
 4546POPC   C2B59480  17.862  21.943   6.659
 4546POPC   C3B59481  17.916  21.789   7.071
 4546POPC   C4B59482  17.925  21.842   7.523
 4547POPC   NC359483   8.775  22.097   5.428
 4547POPC   PO459484   9.272  22.515   5.237
 4547POPC   GL159485   9.190  22.350   5.719
 4547POPC   GL259486   8.897  22.133   5.908
 4547POPC   C1A59487   9.172  22.400   6.203
 4547POPC   D2A59488   8.886  22.168   6.486
 4547POPC   C3A59489   8.960  22.208   6.910
 4547POPC   C4A59490   9.186  22.475   7.179
 4547POPC   C1B59491   9.177  21.872   6.182
 4547POPC   C2B59492   9.338  21.864   6.547
 4547POPC   C3B59493   9.199  21.736   6.947
 4547POPC   C4B59494   9.249  21.903   7.336
 4548POPC   NC359495   7.380  42.331   5.494
 4548POPC   PO459496   7.082  42.855   5.526
 4548POPC   GL159497   7.131  42.598   5.903
 4548POPC   GL259498   7.236  42.216   5.955
 4548POPC   C1A59499   7.388  42.580   6.253
 4548POPC   D2A59500   7.485  42.432   6.637
 4548POPC   C3A59501   7.320  42.627   6.966
 4548POPC   C4A59502   7.258  42.518   7.371
 4548POPC   C1B59503   7.595  42.103   6.257
 4548POPC   C2B59504   7.761  42.014   6.706
 4548POPC   C3B59505   7.532  42.167   7.086
 4548POPC   C4B59506   7.593  42.181   7.546
 4549POPC   NC359507   3.261  30.798   5.464
 4549POPC   PO459508   2.561  30.990   5.547
 4549POPC   GL159509   2.904  30.977   5.832
 4549POPC   GL259510   2.980  30.629   5.899
 4549POPC   C1A59511   2.868  31.061   6.275
 4549POPC   D2A59512   2.894  30.833   6.665
 4549POPC   C3A59513   2.835  31.049   7.040
 4549POPC   C4A59514   2.698  30.937   7.447
 4549POPC   C1B59515   2.604  30.637   6.229
 4549POPC   C2B59516   2.468  30.553   6.686
 4549POPC   C3B59517   2.740  30.526   7.075
 4549POPC   C4B59518   3.109  30.262   7.230
 4550POPC   NC359519  39.521  21.632   5.597
 4550POPC   PO459520  39.090  22.057   5.287
 4550POPC   GL159521  39.222  22.095   5.711
 4550POPC   GL259522  39.528  22.207   5.821
 4550POPC   C1A59523  39.147  22.094   6.166
 4550POPC   D2A59524  39.292  22.230   6.569
 4550POPC   C3A59525  39.076  22.230   6.959
 4550POPC   C4A59526  39.218  22.300   7.383
 4550POPC   C1B59527  39.567  22.502   6.158
 4550POPC   C2B59528  39.750  22.481   6.552
 4550POPC   C3B59529  39.560  22.452   6.983
 4550POPC   C4B59530  39.726  22.318   7.423
 4551POPC   NC359531  34.062  16.685   5.205
 4551POPC   PO459532  33.566  17.113   5.410
 4551POPC   GL159533  33.533  16.833   5.835
 4551POPC   GL259534  33.754  16.530   5.823
 4551POPC   C1A59535  33.452  16.567   6.247
 4551POPC   D2A59536  33.534  16.516   6.706
 4551POPC   C3A59537  33.674  16.865   6.980
 4551POPC   C4A59538  33.668  17.126   7.371
 4551POPC   C1B59539  33.978  16.473   6.245
 4551POPC   C2B59540  34.076  16.570   6.692
 4551POPC   C3B59541  33.908  16.401   7.074
 4551POPC   C4B59542  33.762  16.611   7.439
 4552POPC   NC359543  11.630  43.396   5.691
 4552POPC   PO459544  11.124  43.050   5.391
 4552POPC   GL159545  11.189  43.164   5.788
 4552POPC   GL259546  11.445  42.902   5.767
 4552POPC   C1A59547  11.348  43.126   6.211
 4552POPC   D2A59548  11.177  43.003   6.554
 4552POPC   C3A59549  11.334  43.115   6.940
 4552POPC   C4A59550  11.083  43.097   7.283
 4552POPC   C1B59551  11.632  42.692   6.090
 4552POPC   C2B59552  11.758  42.808   6.503
 4552POPC   C3B59553  11.800  42.799   6.950
 4552POPC   C4B59554  11.487  42.753   7.250
 4553POPC   NC359555  38.767  35.717   5.387
 4553POPC   PO459556  39.453  35.399   5.325
 4553POPC   GL159557  39.361  35.452   5.741
 4553POPC   GL259558  39.032  35.316   5.773
 4553POPC   C1A59559  39.392  35.324   6.191
 4553POPC   D2A59560  39.506  35.329   6.642
 4553POPC   C3A59561  39.267  35.206   7.041
 4553POPC   C4A59562  39.226  35.499   7.383
 4553POPC   C1B59563  39.018  35.689   6.022
 4553POPC   C2B59564  39.144  35.690   6.460
 4553POPC   C3B59565  39.051  35.642   6.903
 4553POPC   C4B59566  38.745  35.700   7.195
 4554POPC   NC359567  37.417  23.357   5.509
 4554POPC   PO459568  37.817  22.804   5.580
 4554POPC   GL159569  37.726  23.107   5.900
 4554POPC   GL259570  37.368  23.088   5.962
 4554POPC   C1A59571  37.704  23.036   6.352
 4554POPC   D2A59572  37.858  23.143   6.758
 4554POPC   C3A59573  37.683  22.984   7.136
 4554POPC   C4A59574  37.712  23.205   7.540
 4554POPC   C1B59575  37.238  22.839   6.337
 4554POPC   C2B59576  37.372  22.776   6.759
 4554POPC   C3B59577  37.329  22.605   7.182
 4554POPC   C4B59578  37.446  22.761   7.614
 4555POPC   NC359579  31.039  36.735   5.122
 4555POPC   PO459580  30.823  37.239   5.385
 4555POPC   GL159581  30.641  36.986   5.726
 4555POPC   GL259582  30.883  36.724   5.659
 4555POPC   C1A59583  30.323  36.822   6.071
 4555POPC   D2A59584  30.466  36.751   6.488
 4555POPC   C3A59585  30.290  36.848   6.892
 4555POPC   C4A59586  30.505  36.792   7.266
 4555POPC   C1B59587  30.841  36.689   6.109
 4555POPC   C2B59588  30.921  36.531   6.522
 4555POPC   C3B59589  30.834  36.730   6.888
 4555POPC   C4B59590  31.042  36.603   7.228
 4556POPC   NC359591  39.786  17.360   5.321
 4556POPC   PO459592  40.218  17.831   5.192
 4556POPC   GL159593  40.050  17.610   5.666
 4556POPC   GL259594  39.812  17.302   5.813
 4556POPC   C1A59595  40.105  17.522   6.153
 4556POPC   D2A59596  39.943  17.649   6.540
 4556POPC   C3A59597  40.087  17.475   6.909
 4556POPC   C4A59598  40.074  17.656   7.305
 4556POPC   C1B59599  39.621  17.354   6.232
 4556POPC   C2B59600  39.678  17.256   6.685
 4556POPC   C3B59601  39.623  17.371   7.120
 4556POPC   C4B59602  39.672  17.276   7.554
 4557POPC   NC359603  34.630  30.193   5.384
 4557POPC   PO459604  34.846  29.539   5.412
 4557POPC   GL159605  34.638  29.729   5.763
 4557POPC   GL259606  34.554  30.078   5.872
 4557POPC   C1A59607  34.357  29.693   6.111
 4557POPC   D2A59608  34.533  29.905   6.487
 4557POPC   C3A59609  34.501  29.767   6.931
 4557POPC   C4A59610  34.420  30.134   7.236
 4557POPC   C1B59611  34.928  29.941   6.127
 4557POPC   C2B59612  35.043  30.034   6.575
 4557POPC   C3B59613  34.964  29.988   7.040
 4557POPC   C4B59614  34.926  30.123   7.481
 4558POPC   NC359615  25.789  10.775   5.488
 4558POPC   PO459616  25.747  10.124   5.456
 4558POPC   GL159617  25.863  10.417   5.832
 4558POPC   GL259618  26.196  10.576   5.755
 4558POPC   C1A59619  25.966  10.684   6.212
 4558POPC   D2A59620  25.802  10.650   6.622
 4558POPC   C3A59621  26.045  10.618   6.986
 4558POPC   C4A59622  26.067  10.285   7.270
 4558POPC   C1B59623  26.317  10.316   6.125
 4558POPC   C2B59624  26.355  10.465   6.584
 4558POPC   C3B59625  26.540  10.504   7.020
 4558POPC   C4B59626  26.444  10.752   7.392
 4559POPC   NC359627  40.184   0.107   5.475
 4559POPC   PO459628  39.656   0.539   5.381
 4559POPC   GL159629  39.876   0.415   5.788
 4559POPC   GL259630  40.242   0.516   5.774
 4559POPC   C1A59631  39.870   0.241   6.247
 4559POPC   D2A59632  39.856   0.121   6.703
 4559POPC   C3A59633  40.062   0.341   7.028
 4559POPC   C4A59634  39.963   0.428   7.449
 4559POPC   C1B59635  40.375   0.372   6.171
 4559POPC   C2B59636  40.198   0.532   6.555
 4559POPC   C3B59637  40.090   0.831   6.887
 4559POPC   C4B59638  40.325   0.788   7.292
 4560POPC   NC359639   3.355  36.429   5.252
 4560POPC   PO459640   3.933  36.283   5.527
 4560POPC   GL159641   3.609  36.149   5.800
 4560POPC   GL259642   3.399  36.421   5.759
 4560POPC   C1A59643   3.542  35.907   6.181
 4560POPC   D2A59644   3.499  36.133   6.569
 4560POPC   C3A59645   3.548  35.931   6.927
 4560POPC   C4A59646   3.624  36.048   7.320
 4560POPC   C1B59647   3.352  36.415   6.178
 4560POPC   C2B59648   3.353  36.668   6.552
 4560POPC   C3B59649   3.355  36.462   6.958
 4560POPC   C4B59650   3.519  36.535   7.387
 4561POPC   NC359651   9.409  38.998   5.512
 4561POPC   PO459652  10.050  39.103   5.339
 4561POPC   GL159653   9.848  39.144   5.778
 4561POPC   GL259654   9.741  39.461   5.903
 4561POPC   C1A59655   9.782  39.157   6.297
 4561POPC   D2A59656   9.821  39.456   6.662
 4561POPC   C3A59657   9.865  39.253   7.048
 4561POPC   C4A59658   9.861  38.799   7.025
 4561POPC   C1B59659   9.491  39.575   6.243
 4561POPC   C2B59660   9.303  39.269   6.532
 4561POPC   C3B59661   9.373  39.163   6.954
 4561POPC   C4B59662   9.479  39.492   7.275
 4562POPC   NC359663   4.946  15.742   5.294
 4562POPC   PO459664   5.263  16.321   5.403
 4562POPC   GL159665   5.084  16.120   5.795
 4562POPC   GL259666   4.887  15.836   5.783
 4562POPC   C1A59667   5.084  16.160   6.280
 4562POPC   D2A59668   5.313  16.118   6.666
 4562POPC   C3A59669   5.033  16.181   6.983
 4562POPC   C4A59670   4.709  16.099   7.262
 4562POPC   C1B59671   5.139  15.690   6.115
 4562POPC   C2B59672   4.987  15.690   6.534
 4562POPC   C3B59673   4.809  15.724   6.937
 4562POPC   C4B59674   5.093  15.709   7.303
 4563POPC   NC359675  29.340   1.455   5.285
 4563POPC   PO459676  28.829   1.110   5.421
 4563POPC   GL159677  28.992   0.980   5.831
 4563POPC   GL259678  29.342   0.839   5.724
 4563POPC   C1A59679  28.947   1.177   6.271
 4563POPC   D2A59680  29.004   1.362   6.719
 4563POPC   C3A59681  29.305   1.241   7.054
 4563POPC   C4A59682  29.405   1.328   7.521
 4563POPC   C1B59683  29.286   0.723   6.173
 4563POPC   C2B59684  29.164   0.833   6.586
 4563POPC   C3B59685  29.144   0.745   7.002
 4563POPC   C4B59686  29.438   0.800   7.318
 4564POPC   NC359687  21.240  40.414   5.378
 4564POPC   PO459688  21.717  39.899   5.577
 4564POPC   GL159689  21.418  40.033   5.893
 4564POPC   GL259690  21.185  40.285   5.862
 4564POPC   C1A59691  21.205  39.941   6.283
 4564POPC   D2A59692  20.987  39.705   6.620
 4564POPC   C3A59693  21.211  39.853   6.973
 4564POPC   C4A59694  21.641  39.937   7.124
 4564POPC   C1B59695  20.917  40.360   6.209
 4564POPC   C2B59696  20.940  40.211   6.623
 4564POPC   C3B59697  20.954  40.293   7.012
 4564POPC   C4B59698  21.247  40.213   7.336
 4565POPC   NC359699  10.825   3.945   5.343
 4565POPC   PO459700  10.128   3.925   5.375
 4565POPC   GL159701  10.239   4.180   5.770
 4565POPC   GL259702  10.629   4.186   5.789
 4565POPC   C1A59703  10.328   4.405   6.184
 4565POPC   D2A59704  10.405   4.441   6.629
 4565POPC   C3A59705  10.138   4.318   6.958
 4565POPC   C4A59706  10.285   4.095   7.289
 4565POPC   C1B59707  10.863   3.970   6.139
 4565POPC   C2B59708  10.851   3.975   6.621
 4565POPC   C3B59709  10.702   4.246   7.001
 4565POPC   C4B59710  10.455   4.608   7.212
 4566POPC   NC359711  38.284  26.354   5.248
 4566POPC   PO459712  38.624  27.016   5.318
 4566POPC   GL159713  38.503  26.934   5.720
 4566POPC   GL259714  38.509  26.580   5.682
 4566POPC   C1A59715  38.333  26.827   6.120
 4566POPC   D2A59716  38.234  26.996   6.506
 4566POPC   C3A59717  38.295  26.775   6.890
 4566POPC   C4A59718  38.051  26.946   7.212
 4566POPC   C1B59719  38.755  26.540   6.097
 4566POPC   C2B59720  38.673  26.700   6.516
 4566POPC   C3B59721  38.729  26.498   6.905
 4566POPC   C4B59722  38.751  26.619   7.275
 4567POPC   NC359723  41.677  17.686   5.348
 4567POPC   PO459724  41.109  17.382   5.256
 4567POPC   GL159725  41.251  17.693   5.668
 4567POPC   GL259726  41.602  17.743   5.866
 4567POPC   C1A59727  41.204  17.739   6.156
 4567POPC   D2A59728  41.183  17.838   6.597
 4567POPC   C3A59729  41.421  17.584   6.833
 4567POPC   C4A59730  41.665  17.503   7.189
 4567POPC   C1B59731  41.659  17.912   6.342
 4567POPC   C2B59732  41.882  17.773   6.756
 4567POPC   C3B59733  42.055  17.834   7.169
 4567POPC   C4B59734  42.025  17.719   7.639
 4568POPC   NC359735  16.511  18.531   5.506
 4568POPC   PO459736  17.089  18.148   5.523
 4568POPC   GL159737  16.829  18.403   5.881
 4568POPC   GL259738  16.415  18.405   5.981
 4568POPC   C1A59739  16.779  18.325   6.329
 4568POPC   D2A59740  16.729  18.420   6.758
 4568POPC   C3A59741  16.987  18.295   7.107
 4568POPC   C4A59742  16.926  17.936   7.408
 4568POPC   C1B59743  16.234  18.670   6.350
 4568POPC   C2B59744  16.316  18.675   6.816
 4568POPC   C3B59745  16.443  18.395   7.199
 4568POPC   C4B59746  16.292  18.422   7.617
 4569POPC   NC359747  37.798   0.155   5.454
 4569POPC   PO459748  37.518  44.566   5.564
 4569POPC   GL159749  37.834  44.746   5.821
 4569POPC   GL259750  37.974  44.447   5.985
 4569POPC   C1A59751  37.714  44.910   6.197
 4569POPC   D2A59752  37.536  44.748   6.553
 4569POPC   C3A59753  37.697  44.936   6.894
 4569POPC   C4A59754  37.977  44.744   7.178
 4569POPC   C1B59755  37.574  44.363   6.189
 4569POPC   C2B59756  37.415  44.254   6.600
 4569POPC   C3B59757  37.592  44.408   6.990
 4569POPC   C4B59758  37.823  44.299   7.368
 4570POPC   NC359759  11.617  32.475   5.395
 4570POPC   PO459760  11.032  32.163   5.206
 4570POPC   GL159761  11.210  32.240   5.606
 4570POPC   GL259762  11.447  31.967   5.711
 4570POPC   C1A59763  11.159  32.370   6.048
 4570POPC   D2A59764  10.966  32.328   6.481
 4570POPC   C3A59765  11.169  32.424   6.905
 4570POPC   C4A59766  11.125  32.575   7.368
 4570POPC   C1B59767  11.331  31.912   6.177
 4570POPC   C2B59768  11.442  32.036   6.619
 4570POPC   C3B59769  11.400  32.015   7.085
 4570POPC   C4B59770  11.377  31.908   7.540
 4571POPC   NC359771   2.976  20.024   5.359
 4571POPC   PO459772   2.502  19.556   5.656
 4571POPC   GL159773   2.802  19.839   5.841
 4571POPC   GL259774   2.740  20.215   5.807
 4571POPC   C1A59775   2.840  20.036   6.269
 4571POPC   D2A59776   3.056  20.043   6.640
 4571POPC   C3A59777   2.935  19.716   6.927
 4571POPC   C4A59778   3.156  19.620   7.277
 4571POPC   C1B59779   2.389  20.268   6.161
 4571POPC   C2B59780   2.336  20.153   6.617
 4571POPC   C3B59781   2.648  20.145   6.975
 4571POPC   C4B59782   2.731  19.933   7.354
 4572POPC   NC359783   9.455  15.671   5.367
 4572POPC   PO459784   9.948  16.176   5.387
 4572POPC   GL159785   9.798  15.886   5.742
 4572POPC   GL259786   9.470  15.707   5.875
 4572POPC   C1A59787   9.874  15.835   6.188
 4572POPC   D2A59788   9.965  16.014   6.586
 4572POPC   C3A59789   9.674  15.875   6.878
 4572POPC   C4A59790   9.765  15.747   7.286
 4572POPC   C1B59791   9.470  16.124   6.075
 4572POPC   C2B59792   9.402  16.220   6.506
 4572POPC   C3B59793   9.651  16.403   6.824
 4572POPC   C4B59794   9.597  16.254   7.239
 4573POPC   NC359795   0.239   1.378   5.485
 4573POPC   PO459796   0.692   0.801   5.489
 4573POPC   GL159797   0.602   1.119   5.818
 4573POPC   GL259798   0.233   1.141   5.932
 4573POPC   C1A59799   0.610   1.105   6.274
 4573POPC   D2A59800   0.323   0.956   6.614
 4573POPC   C3A59801   0.505   1.022   7.028
 4573POPC   C4A59802   0.873   1.034   7.328
 4573POPC   C1B59803   0.079   1.336   6.320
 4573POPC   C2B59804   0.289   1.466   6.716
 4573POPC   C3B59805   0.178   1.416   7.131
 4573POPC   C4B59806   0.082   1.726   7.411
 4574POPC   NC359807  38.647  14.935   5.433
 4574POPC   PO459808  38.024  14.991   5.137
 4574POPC   GL159809  38.251  15.189   5.633
 4574POPC   GL259810  38.508  14.935   5.902
 4574POPC   C1A59811  38.162  15.193   6.110
 4574POPC   D2A59812  38.424  14.912   6.438
 4574POPC   C3A59813  38.463  14.953   6.901
 4574POPC   C4A59814  38.219  15.101   7.247
 4574POPC   C1B59815  38.648  15.299   6.175
 4574POPC   C2B59816  38.537  15.394   6.608
 4574POPC   C3B59817  38.694  15.419   7.009
 4574POPC   C4B59818  38.611  15.376   7.445
 4575POPC   NC359819  15.242   5.303   5.220
 4575POPC   PO459820  15.352   4.637   5.265
 4575POPC   GL159821  15.424   4.991   5.596
 4575POPC   GL259822  15.130   5.268   5.714
 4575POPC   C1A59823  15.409   5.025   6.053
 4575POPC   D2A59824  15.111   4.942   6.366
 4575POPC   C3A59825  15.287   5.030   6.763
 4575POPC   C4A59826  15.409   5.218   7.138
 4575POPC   C1B59827  14.936   5.385   6.133
 4575POPC   C2B59828  14.805   5.280   6.591
 4575POPC   C3B59829  14.993   5.450   6.968
 4575POPC   C4B59830  15.026   5.418   7.408
 4576POPC   NC359831  19.467  24.590   5.135
 4576POPC   PO459832  20.052  24.779   5.375
 4576POPC   GL159833  19.911  24.503   5.690
 4576POPC   GL259834  19.658  24.321   5.583
 4576POPC   C1A59835  19.992  24.529   6.114
 4576POPC   D2A59836  19.813  24.569   6.513
 4576POPC   C3A59837  19.998  24.469   6.931
 4576POPC   C4A59838  20.059  24.214   7.298
 4576POPC   C1B59839  19.536  24.273   6.015
 4576POPC   C2B59840  19.377  24.351   6.431
 4576POPC   C3B59841  19.454  24.477   6.867
 4576POPC   C4B59842  19.522  24.246   7.256
 4577POPC   NC359843  42.700   2.507   5.491
 4577POPC   PO459844  42.054   2.833   5.352
 4577POPC   GL159845  42.180   2.779   5.774
 4577POPC   GL259846  42.007   2.469   5.869
 4577POPC   C1A59847  42.267   2.902   6.216
 4577POPC   D2A59848  42.117   3.127   6.589
 4577POPC   C3A59849  42.268   3.009   7.008
 4577POPC   C4A59850  42.003   2.772   7.284
 4577POPC   C1B59851  42.417   2.423   6.095
 4577POPC   C2B59852  42.583   2.252   6.478
 4577POPC   C3B59853  42.687   2.262   6.906
 4577POPC   C4B59854  42.435   2.521   7.195
 4578POPC   NC359855   2.712   6.286   5.540
 4578POPC   PO459856   2.850   5.565   5.248
 4578POPC   GL159857   2.726   5.585   5.706
 4578POPC   GL259858   2.915   5.874   5.809
 4578POPC   C1A59859   2.496   5.676   6.133
 4578POPC   D2A59860   2.423   5.937   6.529
 4578POPC   C3A59861   2.539   5.753   6.925
 4578POPC   C4A59862   2.707   5.522   7.274
 4578POPC   C1B59863   2.871   5.997   6.253
 4578POPC   C2B59864   2.891   6.097   6.708
 4578POPC   C3B59865   2.898   6.029   7.172
 4578POPC   C4B59866   2.901   5.867   7.602
 4579POPC   NC359867   5.379  17.270   5.528
 4579POPC   PO459868   4.998  17.830   5.507
 4579POPC   GL159869   5.181  17.641   5.855
 4579POPC   GL259870   4.934  17.827   6.038
 4579POPC   C1A59871   5.106  17.359   6.206
 4579POPC   D2A59872   5.017  17.417   6.638
 4579POPC   C3A59873   5.283  17.251   6.937
 4579POPC   C4A59874   5.324  17.527   7.266
 4579POPC   C1B59875   4.971  17.942   6.460
 4579POPC   C2B59876   4.752  17.823   6.833
 4579POPC   C3B59877   4.824  17.496   7.140
 4579POPC   C4B59878   4.888  17.539   7.576
 4580POPC   NC359879  22.358  36.297   5.471
 4580POPC   PO459880  21.760  35.898   5.462
 4580POPC   GL159881  22.050  36.017   5.804
 4580POPC   GL259882  22.367  35.879   5.811
 4580POPC   C1A59883  22.024  36.275   6.206
 4580POPC   D2A59884  21.988  36.132   6.589
 4580POPC   C3A59885  22.044  36.347   6.932
 4580POPC   C4A59886  21.938  36.128   7.330
 4580POPC   C1B59887  22.373  35.925   6.219
 4580POPC   C2B59888  22.466  35.973   6.604
 4580POPC   C3B59889  22.281  35.901   6.967
 4580POPC   C4B59890  22.437  35.799   7.356
 4581POPC   NC359891   7.928   4.381   5.346
 4581POPC   PO459892   8.411   3.936   5.381
 4581POPC   GL159893   8.207   4.162   5.746
 4581POPC   GL259894   7.843   4.099   5.776
 4581POPC   C1A59895   8.258   4.353   6.175
 4581POPC   D2A59896   8.350   4.585   6.573
 4581POPC   C3A59897   8.161   4.436   6.958
 4581POPC   C4A59898   8.226   4.310   7.388
 4581POPC   C1B59899   7.940   3.949   6.179
 4581POPC   C2B59900   8.119   4.062   6.595
 4581POPC   C3B59901   8.119   3.924   7.013
 4581POPC   C4B59902   7.759   3.806   7.195
 4582POPC   NC359903  27.780  10.074   5.629
 4582POPC   PO459904  27.409   9.536   5.289
 4582POPC   GL159905  27.535   9.599   5.721
 4582POPC   GL259906  27.903   9.567   5.660
 4582POPC   C1A59907  27.400   9.650   6.177
 4582POPC   D2A59908  27.605   9.658   6.620
 4582POPC   C3A59909  27.355   9.760   7.010
 4582POPC   C4A59910  27.379   9.789   7.476
 4582POPC   C1B59911  27.891   9.592   6.109
 4582POPC   C2B59912  27.992   9.328   6.469
 4582POPC   C3B59913  28.007   9.386   6.902
 4582POPC   C4B59914  27.722   9.474   7.255
 4583POPC   NC359915  20.145  43.294   5.284
 4583POPC   PO459916  20.815  43.134   5.358
 4583POPC   GL159917  20.735  43.058   5.764
 4583POPC   GL259918  20.919  42.755   5.758
 4583POPC   C1A59919  20.435  43.135   6.101
 4583POPC   D2A59920  20.326  43.226   6.530
 4583POPC   C3A59921  20.563  43.205   6.922
 4583POPC   C4A59922  20.854  43.344   7.248
 4583POPC   C1B59923  20.719  42.710   6.187
 4583POPC   C2B59924  20.660  42.765   6.656
 4583POPC   C3B59925  20.783  42.777   7.109
 4583POPC   C4B59926  20.489  42.914   7.400
 4584POPC   NC359927   1.522  16.956   5.382
 4584POPC   PO459928   0.903  16.712   5.487
 4584POPC   GL159929   1.250  16.797   5.771
 4584POPC   GL259930   1.490  16.518   5.752
 4584POPC   C1A59931   1.407  16.890   6.191
 4584POPC   D2A59932   1.226  17.122   6.549
 4584POPC   C3A59933   1.027  16.948   6.938
 4584POPC   C4A59934   1.324  16.915   7.256
 4584POPC   C1B59935   1.190  16.421   6.087
 4584POPC   C2B59936   1.102  16.609   6.503
 4584POPC   C3B59937   1.387  16.614   6.851
 4584POPC   C4B59938   1.221  16.419   7.241
 4585POPC   NC359939  13.016  40.986   5.324
 4585POPC   PO459940  13.031  40.293   5.460
 4585POPC   GL159941  12.777  40.591   5.815
 4585POPC   GL259942  12.835  40.963   5.821
 4585POPC   C1A59943  12.666  40.823   6.267
 4585POPC   D2A59944  12.733  41.101   6.639
 4585POPC   C3A59945  12.817  40.857   7.000
 4585POPC   C4A59946  12.650  40.476   7.224
 4585POPC   C1B59947  13.144  40.959   6.166
 4585POPC   C2B59948  13.186  40.834   6.613
 4585POPC   C3B59949  13.355  40.799   7.045
 4585POPC   C4B59950  13.412  40.794   7.492
 4586POPC   NC359951  14.563  13.061   5.260
 4586POPC   PO459952  14.017  12.833   5.084
 4586POPC   GL159953  14.094  12.998   5.543
 4586POPC   GL259954  14.368  12.814   5.684
 4586POPC   C1A59955  14.048  12.947   6.042
 4586POPC   D2A59956  14.215  12.735   6.471
 4586POPC   C3A59957  14.158  12.846   6.930
 4586POPC   C4A59958  14.276  13.046   7.340
 4586POPC   C1B59959  14.554  12.721   6.087
 4586POPC   C2B59960  14.716  12.881   6.517
 4586POPC   C3B59961  14.660  12.998   7.009
 4586POPC   C4B59962  14.768  12.913   7.494
 4587POPC   NC359963  15.820   1.877   5.429
 4587POPC   PO459964  16.263   2.406   5.400
 4587POPC   GL159965  16.100   2.163   5.772
 4587POPC   GL259966  16.206   1.773   5.750
 4587POPC   C1A59967  15.903   2.231   6.203
 4587POPC   D2A59968  15.733   2.093   6.609
 4587POPC   C3A59969  15.934   2.058   7.006
 4587POPC   C4A59970  15.831   1.875   7.431
 4587POPC   C1B59971  16.193   1.798   6.221
 4587POPC   C2B59972  16.260   1.780   6.686
 4587POPC   C3B59973  16.239   1.664   7.151
 4587POPC   C4B59974  16.256   1.655   7.618
 4588POPC   NC359975  30.032  22.826   5.298
 4588POPC   PO459976  29.464  23.096   5.328
 4588POPC   GL159977  29.823  23.118   5.674
 4588POPC   GL259978  29.598  23.204   5.944
 4588POPC   C1A59979  30.069  23.014   6.075
 4588POPC   D2A59980  29.906  22.967   6.520
 4588POPC   C3A59981  30.049  22.947   6.983
 4588POPC   C4A59982  30.110  22.932   7.449
 4588POPC   C1B59983  29.574  23.329   6.374
 4588POPC   C2B59984  29.635  23.284   6.833
 4588POPC   C3B59985  29.707  23.243   7.275
 4588POPC   C4B59986  29.800  23.222   7.740
 4589POPC   NC359987  33.390   7.386   5.538
 4589POPC   PO459988  32.849   7.435   5.442
 4589POPC   GL159989  32.931   7.523   5.897
 4589POPC   GL259990  33.252   7.379   6.029
 4589POPC   C1A59991  32.923   7.558   6.372
 4589POPC   D2A59992  33.095   7.339   6.752
 4589POPC   C3A59993  32.810   7.424   7.121
 4589POPC   C4A59994  32.686   7.781   7.381
 4589POPC   C1B59995  33.641   7.381   6.286
 4589POPC   C2B59996  33.671   7.093   6.621
 4589POPC   C3B59997  33.343   6.872   6.846
 4589POPC   C4B59998  33.031   6.975   7.163
 4590POPC   NC359999  10.342  24.218   5.514
 4590POPC   PO460000  10.382  24.783   5.240
 4590POPC   GL160001  10.291  24.666   5.735
 4590POPC   GL260002  10.634  24.517   5.817
 4590POPC   C1A60003  10.272  24.499   6.220
 4590POPC   D2A60004  10.466  24.637   6.632
 4590POPC   C3A60005  10.381  24.580   7.058
 4590POPC   C4A60006  10.783  24.627   7.260
 4590POPC   C1B60007  10.696  24.208   6.162
 4590POPC   C2B60008  10.911  24.153   6.546
 4590POPC   C3B60009  10.748  24.213   6.937
 4590POPC   C4B60010  10.733  23.868   7.175
 4591POPC   NC360011  35.717   2.627   5.384
 4591POPC   PO460012  35.115   2.774   5.531
 4591POPC   GL160013  35.446   2.677   5.858
 4591POPC   GL260014  35.495   2.338   5.837
 4591POPC   C1A60015  35.657   2.734   6.298
 4591POPC   D2A60016  35.845   3.015   6.659
 4591POPC   C3A60017  35.684   2.965   7.126
 4591POPC   C4A60018  35.387   3.051   7.510
 4591POPC   C1B60019  35.264   2.385   6.276
 4591POPC   C2B60020  35.291   2.479   6.738
 4591POPC   C3B60021  35.218   2.628   7.182
 4591POPC   C4B60022  34.883   2.451   7.498
 4592POPC   NC360023  36.443  43.483   5.385
 4592POPC   PO460024  36.064  42.943   5.293
 4592POPC   GL160025  36.231  43.070   5.669
 4592POPC   GL260026  36.046  43.362   5.688
 4592POPC   C1A60027  36.340  43.216   6.083
 4592POPC   D2A60028  36.206  43.204   6.501
 4592POPC   C3A60029  36.334  43.159   6.924
 4592POPC   C4A60030  36.126  42.868   7.201
 4592POPC   C1B60031  35.892  43.480   6.097
 4592POPC   C2B60032  35.745  43.399   6.526
 4592POPC   C3B60033  35.851  43.355   6.971
 4592POPC   C4B60034  35.967  43.666   7.285
 4593POPC   NC360035   5.331   7.686   5.411
 4593POPC   PO460036   4.838   7.221   5.529
 4593POPC   GL160037   5.052   7.334   5.864
 4593POPC   GL260038   5.146   7.677   5.870
 4593POPC   C1A60039   5.162   7.411   6.291
 4593POPC   D2A60040   4.953   7.514   6.651
 4593POPC   C3A60041   5.076   7.220   6.943
 4593POPC   C4A60042   5.118   7.366   7.299
 4593POPC   C1B60043   5.453   7.816   6.150
 4593POPC   C2B60044   5.593   7.759   6.579
 4593POPC   C3B60045   5.431   7.723   7.018
 4593POPC   C4B60046   5.364   7.752   7.498
 4594POPC   NC360047  13.127  27.782   5.603
 4594POPC   PO460048  12.666  28.233   5.262
 4594POPC   GL160049  12.843  28.368   5.621
 4594POPC   GL260050  13.178  28.408   5.611
 4594POPC   C1A60051  12.702  28.445   6.037
 4594POPC   D2A60052  12.845  28.401   6.443
 4594POPC   C3A60053  12.656  28.656   6.758
 4594POPC   C4A60054  12.719  28.543   7.167
 4594POPC   C1B60055  13.230  28.394   6.038
 4594POPC   C2B60056  13.379  28.415   6.465
 4594POPC   C3B60057  13.158  28.483   6.836
 4594POPC   C4B60058  13.209  28.411   7.246
 4595POPC   NC360059  32.254  25.645   5.379
 4595POPC   PO460060  32.005  25.062   5.336
 4595POPC   GL160061  32.189  25.233   5.726
 4595POPC   GL260062  32.541  25.201   5.833
 4595POPC   C1A60063  32.150  25.285   6.178
 4595POPC   D2A60064  32.066  25.037   6.526
 4595POPC   C3A60065  32.141  25.155   6.918
 4595POPC   C4A60066  31.965  25.309   7.254
 4595POPC   C1B60067  32.657  25.443   6.172
 4595POPC   C2B60068  32.526  25.348   6.579
 4595POPC   C3B60069  32.563  25.444   7.000
 4595POPC   C4B60070  32.456  25.177   7.341
 4596POPC   NC360071   9.960   4.434   5.390
 4596POPC   PO460072   9.482   4.177   4.956
 4596POPC   GL160073   9.515   4.129   5.483
 4596POPC   GL260074   9.545   4.439   5.680
 4596POPC   C1A60075   9.525   4.028   5.988
 4596POPC   D2A60076   9.861   3.973   6.349
 4596POPC   C3A60077   9.843   3.920   6.826
 4596POPC   C4A60078   9.797   4.037   7.273
 4596POPC   C1B60079   9.844   4.418   6.064
 4596POPC   C2B60080   9.880   4.470   6.536
 4596POPC   C3B60081   9.637   4.375   6.927
 4596POPC   C4B60082   9.408   4.357   7.309
 4597POPC   NC360083  35.914  24.196   5.452
 4597POPC   PO460084  36.306  24.750   5.529
 4597POPC   GL160085  36.043  24.521   5.863
 4597POPC   GL260086  35.888  24.181   5.945
 4597POPC   C1A60087  35.885  24.590   6.300
 4597POPC   D2A60088  35.686  24.620   6.730
 4597POPC   C3A60089  36.060  24.599   6.988
 4597POPC   C4A60090  36.372  24.909   7.085
 4597POPC   C1B60091  36.197  24.188   6.221
 4597POPC   C2B60092  36.318  24.313   6.623
 4597POPC   C3B60093  36.240  24.123   7.015
 4597POPC   C4B60094  36.027  24.286   7.394
 4598POPC   NC360095  37.655  16.341   5.413
 4598POPC   PO460096  37.519  15.724   5.353
 4598POPC   GL160097  37.790  15.775   5.737
 4598POPC   GL260098  38.004  16.091   5.728
 4598POPC   C1A60099  37.689  15.721   6.202
 4598POPC   D2A60100  37.762  15.604   6.653
 4598POPC   C3A60101  37.764  15.878   7.031
 4598POPC   C4A60102  37.557  16.205   7.264
 4598POPC   C1B60103  38.024  16.110   6.198
 4598POPC   C2B60104  37.919  16.236   6.635
 4598POPC   C3B60105  38.125  16.247   7.055
 4598POPC   C4B60106  38.008  16.361   7.478
 4599POPC   NC360107   8.122  22.542   5.526
 4599POPC   PO460108   8.340  21.839   5.404
 4599POPC   GL160109   8.393  22.063   5.800
 4599POPC   GL260110   8.048  22.117   5.837
 4599POPC   C1A60111   8.478  22.336   6.197
 4599POPC   D2A60112   8.537  22.512   6.659
 4599POPC   C3A60113   8.436  22.192   7.000
 4599POPC   C4A60114   8.404  21.883   7.335
 4599POPC   C1B60115   7.946  22.237   6.269
 4599POPC   C2B60116   8.071  22.001   6.635
 4599POPC   C3B60117   7.935  22.021   7.049
 4599POPC   C4B60118   7.978  22.170   7.440
 4600POPC   NC360119  21.050  44.519   5.450
 4600POPC   PO460120  21.747  44.468   5.430
 4600POPC   GL160121  21.449  44.462   5.806
 4600POPC   GL260122  21.071  44.440   5.942
 4600POPC   C1A60123  21.451  44.617   6.249
 4600POPC   D2A60124  21.295  44.789   6.662
 4600POPC   C3A60125  21.422  44.636   7.078
 4600POPC   C4A60126  21.362  44.721   7.511
 4600POPC   C1B60127  20.936  44.761   6.269
 4600POPC   C2B60128  20.826   0.005   6.654
 4600POPC   C3B60129  20.982  44.912   7.079
 4600POPC   C4B60130  20.959  44.491   7.291
 4601POPC   NC360131  19.235  30.254   5.450
 4601POPC   PO460132  18.599  30.442   5.366
 4601POPC   GL160133  18.698  30.122   5.740
 4601POPC   GL260134  19.009  29.935   5.792
 4601POPC   C1A60135  18.754  30.022   6.220
 4601POPC   D2A60136  18.958  30.121   6.631
 4601POPC   C3A60137  18.953  29.938   7.072
 4601POPC   C4A60138  19.129  30.128   7.475
 4601POPC   C1B60139  19.223  29.736   6.160
 4601POPC   C2B60140  19.306  29.742   6.604
 4601POPC   C3B60141  19.389  29.556   6.989
 4601POPC   C4B60142  19.059  29.410   7.199
 4602POPC   NC360143   0.760  20.605   5.067
 4602POPC   PO460144   1.404  20.591   5.339
 4602POPC   GL160145   1.501  20.537   5.780
 4602POPC   GL260146   1.138  20.507   5.849
 4602POPC   C1A60147   1.437  20.621   6.246
 4602POPC   D2A60148   1.097  20.559   6.532
 4602POPC   C3A60149   1.191  20.657   6.961
 4602POPC   C4A60150   1.521  20.472   7.214
 4602POPC   C1B60151   1.229  20.183   6.121
 4602POPC   C2B60152   1.452  20.153   6.495
 4602POPC   C3B60153   1.291  20.169   6.868
 4602POPC   C4B60154   1.105  20.165   7.258
 4603POPC   NC360155  13.243   3.732   5.259
 4603POPC   PO460156  13.796   3.378   5.162
 4603POPC   GL160157  13.607   3.585   5.576
 4603POPC   GL260158  13.721   3.365   5.822
 4603POPC   C1A60159  13.440   3.728   6.018
 4603POPC   D2A60160  13.280   3.677   6.466
 4603POPC   C3A60161  13.503   3.651   6.883
 4603POPC   C4A60162  13.607   3.499   7.297
 4603POPC   C1B60163  13.878   3.520   6.241
 4603POPC   C2B60164  13.911   3.800   6.607
 4603POPC   C3B60165  14.013   3.735   7.058
 4603POPC   C4B60166  13.972   3.749   7.520
 4604POPC   NC360167   7.206  36.842   5.525
 4604POPC   PO460168   6.543  36.729   5.412
 4604POPC   GL160169   6.522  36.801   5.836
 4604POPC   GL260170   6.814  36.971   5.827
 4604POPC   C1A60171   6.561  36.897   6.273
 4604POPC   D2A60172   6.734  37.086   6.617
 4604POPC   C3A60173   6.583  36.826   6.901
 4604POPC   C4A60174   6.341  36.802   7.233
 4604POPC   C1B60175   7.050  37.032   6.203
 4604POPC   C2B60176   7.129  36.739   6.558
 4604POPC   C3B60177   7.086  36.799   7.003
 4604POPC   C4B60178   6.841  36.965   7.333
 4605POPC   NC360179  14.020  27.327   5.549
 4605POPC   PO460180  13.408  27.565   5.319
 4605POPC   GL160181  13.580  27.561   5.741
 4605POPC   GL260182  13.570  27.208   5.789
 4605POPC   C1A60183  13.790  27.553   6.177
 4605POPC   D2A60184  13.972  27.527   6.592
 4605POPC   C3A60185  13.676  27.587   6.914
 4605POPC   C4A60186  13.840  27.635   7.319
 4605POPC   C1B60187  13.287  27.399   6.113
 4605POPC   C2B60188  13.348  27.527   6.517
 4605POPC   C3B60189  13.174  27.466   6.927
 4605POPC   C4B60190  13.338  27.553   7.312
 4606POPC   NC360191  27.665  23.093   5.412
 4606POPC   PO460192  27.215  22.668   5.292
 4606POPC   GL160193  27.412  22.675   5.695
 4606POPC   GL260194  27.739  22.785   5.852
 4606POPC   C1A60195  27.389  22.589   6.145
 4606POPC   D2A60196  27.510  22.876   6.470
 4606POPC   C3A60197  27.489  22.771   6.923
 4606POPC   C4A60198  27.687  22.845   7.299
 4606POPC   C1B60199  27.884  23.108   6.144
 4606POPC   C2B60200  28.055  23.217   6.532
 4606POPC   C3B60201  27.878  23.171   6.933
 4606POPC   C4B60202  27.892  23.308   7.350
 4607POPC   NC360203  12.303  37.592   5.289
 4607POPC   PO460204  11.789  37.569   5.438
 4607POPC   GL160205  11.983  37.680   5.849
 4607POPC   GL260206  12.341  37.765   5.810
 4607POPC   C1A60207  11.837  37.779   6.298
 4607POPC   D2A60208  11.605  37.626   6.647
 4607POPC   C3A60209  11.817  37.650   7.056
 4607POPC   C4A60210  12.032  37.424   7.416
 4607POPC   C1B60211  12.350  37.740   6.293
 4607POPC   C2B60212  12.218  37.559   6.716
 4607POPC   C3B60213  12.317  37.736   7.149
 4607POPC   C4B60214  12.655  37.898   7.416
 4608POPC   NC360215  28.181   4.495   5.291
 4608POPC   PO460216  28.697   4.220   5.484
 4608POPC   GL160217  28.384   4.335   5.753
 4608POPC   GL260218  28.111   4.098   5.828
 4608POPC   C1A60219  28.388   4.375   6.176
 4608POPC   D2A60220  28.471   4.231   6.567
 4608POPC   C3A60221  28.464   4.561   6.861
 4608POPC   C4A60222  28.370   4.496   7.270
 4608POPC   C1B60223  27.909   4.158   6.230
 4608POPC   C2B60224  27.979   4.144   6.684
 4608POPC   C3B60225  27.828   3.940   7.041
 4608POPC   C4B60226  27.729   4.278   7.286
 4609POPC   NC360227  37.748  14.657   5.437
 4609POPC   PO460228  37.141  14.267   5.389
 4609POPC   GL160229  37.401  14.257   5.746
 4609POPC   GL260230  37.157  14.029   5.902
 4609POPC   C1A60231  37.757  14.377   6.068
 4609POPC   D2A60232  37.784  14.688   6.409
 4609POPC   C3A60233  38.051  14.653   6.765
 4609POPC   C4A60234  37.852  14.660   7.171
 4609POPC   C1B60235  37.360  14.169   6.287
 4609POPC   C2B60236  37.654  14.198   6.645
 4609POPC   C3B60237  37.584  14.167   7.080
 4609POPC   C4B60238  37.183  13.939   7.192
 4610POPC   NC360239  28.749  36.127   5.537
 4610POPC   PO460240  28.068  35.959   5.475
 4610POPC   GL160241  28.288  36.174   5.785
 4610POPC   GL260242  28.486  35.883   5.895
 4610POPC   C1A60243  28.335  36.243   6.227
 4610POPC   D2A60244  28.421  35.946   6.572
 4610POPC   C3A60245  28.300  36.110   6.979
 4610POPC   C4A60246  28.269  36.202   7.415
 4610POPC   C1B60247  28.790  36.014   6.212
 4610POPC   C2B60248  28.942  35.991   6.619
 4610POPC   C3B60249  28.754  35.773   6.935
 4610POPC   C4B60250  28.611  35.844   7.318
 4611POPC   NC360251  44.738  22.762   5.358
 4611POPC   PO460252   0.021  23.404   5.454
 4611POPC   GL160253  44.929  23.241   5.843
 4611POPC   GL260254  44.654  23.034   5.836
 4611POPC   C1A60255  44.940  23.077   6.271
 4611POPC   D2A60256  44.782  23.243   6.637
 4611POPC   C3A60257  44.802  22.947   6.990
 4611POPC   C4A60258  44.870  22.856   7.435
 4611POPC   C1B60259  44.456  23.226   6.189
 4611POPC   C2B60260  44.352  22.990   6.553
 4611POPC   C3B60261  44.219  22.872   6.966
 4611POPC   C4B60262  44.478  22.596   7.189
 4612POPC   NC360263  23.124  22.380   5.464
 4612POPC   PO460264  22.963  21.761   5.385
 4612POPC   GL160265  22.845  22.009   5.754
 4612POPC   GL260266  22.664  22.288   5.689
 4612POPC   C1A60267  23.046  21.987   6.162
 4612POPC   D2A60268  23.185  21.795   6.547
 4612POPC   C3A60269  23.109  21.983   6.950
 4612POPC   C4A60270  23.064  22.386   7.179
 4612POPC   C1B60271  22.623  22.284   6.149
 4612POPC   C2B60272  22.826  22.227   6.576
 4612POPC   C3B60273  22.629  22.157   6.995
 4612POPC   C4B60274  22.567  22.468   7.293
 4613POPC   NC360275  37.301  34.204   5.549
 4613POPC   PO460276  37.785  33.900   5.213
 4613POPC   GL160277  37.659  33.709   5.619
 4613POPC   GL260278  37.315  33.576   5.640
 4613POPC   C1A60279  37.843  33.708   6.060
 4613POPC   D2A60280  37.780  33.983   6.428
 4613POPC   C3A60281  37.877  33.871   6.855
 4613POPC   C4A60282  37.957  33.653   7.267
 4613POPC   C1B60283  37.407  33.434   6.099
 4613POPC   C2B60284  37.559  33.513   6.552
 4613POPC   C3B60285  37.477  33.597   7.026
 4613POPC   C4B60286  37.577  33.989   7.272
 4614POPC   NC360287   8.768  28.069   5.289
 4614POPC   PO460288   9.207  28.617   5.464
 4614POPC   GL160289   8.858  28.553   5.737
 4614POPC   GL260290   8.862  28.196   5.779
 4614POPC   C1A60291   8.722  28.497   6.179
 4614POPC   D2A60292   8.879  28.219   6.511
 4614POPC   C3A60293   8.807  28.313   6.954
 4614POPC   C4A60294   8.831  28.281   7.404
 4614POPC   C1B60295   9.239  28.219   6.075
 4614POPC   C2B60296   9.381  28.210   6.523
 4614POPC   C3B60297   9.250  28.097   6.908
 4614POPC   C4B60298   9.329  28.267   7.260
 4615POPC   NC360299  17.092   1.576   5.495
 4615POPC   PO460300  16.898   0.921   5.263
 4615POPC   GL160301  16.878   1.174   5.695
 4615POPC   GL260302  16.567   1.286   5.869
 4615POPC   C1A60303  17.029   1.331   6.110
 4615POPC   D2A60304  16.871   1.280   6.513
 4615POPC   C3A60305  17.067   1.287   6.907
 4615POPC   C4A60306  17.075   1.523   7.281
 4615POPC   C1B60307  16.384   1.280   6.288
 4615POPC   C2B60308  16.431   1.316   6.738
 4615POPC   C3B60309  16.581   1.223   7.115
 4615POPC   C4B60310  16.290   1.175   7.417
 4616POPC   NC360311  14.717  24.302   5.327
 4616POPC   PO460312  15.393  24.185   5.345
 4616POPC   GL160313  15.110  24.297   5.662
 4616POPC   GL260314  15.126  24.648   5.675
 4616POPC   C1A60315  15.026  24.213   6.102
 4616POPC   D2A60316  15.094  24.423   6.499
 4616POPC   C3A60317  15.144  24.236   6.902
 4616POPC   C4A60318  15.071  24.239   7.342
 4616POPC   C1B60319  15.425  24.568   6.029
 4616POPC   C2B60320  15.583  24.525   6.459
 4616POPC   C3B60321  15.432  24.655   6.879
 4616POPC   C4B60322  15.574  24.383   7.192
 4617POPC   NC360323  40.169  39.425   5.015
 4617POPC   PO460324  39.746  38.919   5.301
 4617POPC   GL160325  39.848  39.144   5.652
 4617POPC   GL260326  40.202  39.221   5.601
 4617POPC   C1A60327  39.739  39.077   6.087
 4617POPC   D2A60328  39.832  39.307   6.468
 4617POPC   C3A60329  39.897  39.047   6.830
 4617POPC   C4A60330  39.820  39.147   7.240
 4617POPC   C1B60331  40.236  39.263   6.088
 4617POPC   C2B60332  40.321  39.461   6.537
 4617POPC   C3B60333  40.164  39.464   6.997
 4617POPC   C4B60334  40.083  39.513   7.471
 4618POPC   NC360335   3.770  11.560   5.084
 4618POPC   PO460336   3.234  11.196   5.257
 4618POPC   GL160337   3.472  11.369   5.614
 4618POPC   GL260338   3.828  11.288   5.661
 4618POPC   C1A60339   3.526  11.413   6.073
 4618POPC   D2A60340   3.488  11.188   6.470
 4618POPC   C3A60341   3.434  11.464   6.809
 4618POPC   C4A60342   3.379  11.525   7.233
 4618POPC   C1B60343   4.019  11.275   6.092
 4618POPC   C2B60344   3.996  11.380   6.503
 4618POPC   C3B60345   3.902  11.198   6.873
 4618POPC   C4B60346   3.882  11.329   7.278
 4619POPC   NC360347  13.861  30.744   5.460
 4619POPC   PO460348  13.296  31.147   5.565
 4619POPC   GL160349  13.396  30.706   5.691
 4619POPC   GL260350  13.659  30.844   5.920
 4619POPC   C1A60351  13.485  30.425   6.081
 4619POPC   D2A60352  13.761  30.575   6.432
 4619POPC   C3A60353  13.645  30.551   6.853
 4619POPC   C4A60354  13.302  30.630   7.100
 4619POPC   C1B60355  13.925  31.033   6.247
 4619POPC   C2B60356  14.076  30.965   6.666
 4619POPC   C3B60357  13.886  30.960   7.056
 4619POPC   C4B60358  14.083  30.975   7.415
 4620POPC   NC360359  12.177  42.264   5.405
 4620POPC   PO460360  11.848  42.729   5.069
 4620POPC   GL160361  11.893  42.590   5.651
 4620POPC   GL260362  11.792  42.248   5.854
 4620POPC   C1A60363  12.120  42.563   6.090
 4620POPC   D2A60364  12.154  42.393   6.528
 4620POPC   C3A60365  12.425  42.439   6.867
 4620POPC   C4A60366  12.279  42.276   7.247
 4620POPC   C1B60367  12.063  42.022   6.185
 4620POPC   C2B60368  12.181  41.860   6.628
 4620POPC   C3B60369  12.081  41.809   7.067
 4620POPC   C4B60370  11.785  42.017   7.325
 4621POPC   NC360371   1.687  42.475   5.270
 4621POPC   PO460372   2.118  42.115   5.399
 4621POPC   GL160373   2.045  42.303   5.795
 4621POPC   GL260374   1.800  42.537   5.834
 4621POPC   C1A60375   2.086  42.378   6.238
 4621POPC   D2A60376   2.260  42.212   6.611
 4621POPC   C3A60377   2.069  42.302   7.022
 4621POPC   C4A60378   2.028  42.089   7.414
 4621POPC   C1B60379   1.764  42.775   6.226
 4621POPC   C2B60380   1.849  42.608   6.627
 4621POPC   C3B60381   1.611  42.531   6.963
 4621POPC   C4B60382   1.617  42.426   7.373
 4622POPC   NC360383  27.767  10.108   4.968
 4622POPC   PO460384  27.648  10.495   5.449
 4622POPC   GL160385  27.542  10.460   5.881
 4622POPC   GL260386  27.361  10.140   5.943
 4622POPC   C1A60387  27.665  10.635   6.269
 4622POPC   D2A60388  27.641  10.846   6.688
 4622POPC   C3A60389  27.717  10.686   7.091
 4622POPC   C4A60390  27.355  10.705   7.366
 4622POPC   C1B60391  27.709  10.092   6.274
 4622POPC   C2B60392  27.823  10.331   6.645
 4622POPC   C3B60393  27.491  10.275   6.912
 4622POPC   C4B60394  27.638  10.167   7.284
 4623POPC   NC360395   4.986  22.387   5.246
 4623POPC   PO460396   5.205  21.905   5.683
 4623POPC   GL160397   4.849  22.220   5.753
 4623POPC   GL260398   4.515  22.120   5.935
 4623POPC   C1A60399   4.804  22.442   6.160
 4623POPC   D2A60400   4.737  22.262   6.573
 4623POPC   C3A60401   5.006  22.281   6.930
 4623POPC   C4A60402   5.037  22.428   7.352
 4623POPC   C1B60403   4.789  21.906   6.206
 4623POPC   C2B60404   4.805  21.636   6.562
 4623POPC   C3B60405   4.895  21.700   6.978
 4623POPC   C4B60406   5.257  21.890   7.191
 4624POPC   NC360407  21.324  28.639   5.334
 4624POPC   PO460408  21.407  27.944   5.351
 4624POPC   GL160409  21.529  28.215   5.741
 4624POPC   GL260410  21.200  28.398   5.821
 4624POPC   C1A60411  21.678  28.380   6.171
 4624POPC   D2A60412  21.647  28.669   6.550
 4624POPC   C3A60413  21.605  28.439   6.960
 4624POPC   C4A60414  21.354  28.040   7.086
 4624POPC   C1B60415  21.195  28.526   6.271
 4624POPC   C2B60416  21.206  28.361   6.675
 4624POPC   C3B60417  21.114  28.483   7.130
 4624POPC   C4B60418  21.371  28.471   7.462
 4625POPC   NC360419  29.201  16.322   5.024
 4625POPC   PO460420  28.964  15.850   5.471
 4625POPC   GL160421  29.224  15.901   5.798
 4625POPC   GL260422  28.946  15.818   5.985
 4625POPC   C1A60423  29.294  16.086   6.215
 4625POPC   D2A60424  29.016  16.188   6.529
 4625POPC   C3A60425  29.254  16.329   6.866
 4625POPC   C4A60426  29.227  16.374   7.333
 4625POPC   C1B60427  29.085  15.655   6.382
 4625POPC   C2B60428  29.370  15.807   6.709
 4625POPC   C3B60429  29.284  15.895   7.131
 4625POPC   C4B60430  28.833  15.919   7.104
 4626POPC   NC360431  20.477  42.651   5.474
 4626POPC   PO460432  20.805  42.134   5.384
 4626POPC   GL160433  20.927  42.240   5.785
 4626POPC   GL260434  20.564  42.319   5.890
 4626POPC   C1A60435  20.935  42.226   6.217
 4626POPC   D2A60436  20.653  42.245   6.496
 4626POPC   C3A60437  20.804  42.319   6.868
 4626POPC   C4A60438  20.862  42.079   7.193
 4626POPC   C1B60439  20.255  42.098   6.188
 4626POPC   C2B60440  20.172  41.959   6.624
 4626POPC   C3B60441  20.240  42.041   7.080
 4626POPC   C4B60442  20.433  42.414   7.238
 4627POPC   NC360443   6.345   9.867   5.499
 4627POPC   PO460444   6.743   9.347   5.336
 4627POPC   GL160445   6.769   9.662   5.685
 4627POPC   GL260446   7.120   9.720   5.727
 4627POPC   C1A60447   6.686   9.959   6.082
 4627POPC   D2A60448   6.608  10.148   6.512
 4627POPC   C3A60449   6.674   9.980   6.943
 4627POPC   C4A60450   6.449   9.776   7.266
 4627POPC   C1B60451   6.917   9.509   6.133
 4627POPC   C2B60452   6.739   9.633   6.566
 4627POPC   C3B60453   6.811   9.482   7.036
 4627POPC   C4B60454   6.878   9.345   7.477
 4628POPC   NC360455  34.269  13.455   5.425
 4628POPC   PO460456  34.967  13.494   5.243
 4628POPC   GL160457  34.726  13.523   5.652
 4628POPC   GL260458  34.770  13.827   5.871
 4628POPC   C1A60459  34.502  13.417   6.048
 4628POPC   D2A60460  34.648  13.545   6.463
 4628POPC   C3A60461  34.416  13.407   6.826
 4628POPC   C4A60462  34.570  13.327   7.227
 4628POPC   C1B60463  34.403  13.914   6.162
 4628POPC   C2B60464  34.259  13.856   6.597
 4628POPC   C3B60465  34.421  13.943   7.022
 4628POPC   C4B60466  34.236  13.993   7.436
 4629POPC   NC360467  31.647  14.838   5.073
 4629POPC   PO460468  31.365  14.377   5.455
 4629POPC   GL160469  31.336  14.595   5.793
 4629POPC   GL260470  31.314  14.269   5.947
 4629POPC   C1A60471  31.366  14.728   6.210
 4629POPC   D2A60472  31.508  14.651   6.629
 4629POPC   C3A60473  31.366  14.823   6.969
 4629POPC   C4A60474  31.345  14.697   7.372
 4629POPC   C1B60475  31.499  14.229   6.309
 4629POPC   C2B60476  31.531  14.133   6.713
 4629POPC   C3B60477  31.513  14.308   7.106
 4629POPC   C4B60478  31.242  14.186   7.471
 4630POPC   NC360479  14.199  43.372   5.555
 4630POPC   PO460480  14.600  42.841   5.411
 4630POPC   GL160481  14.438  42.970   5.812
 4630POPC   GL260482  14.113  42.923   5.836
 4630POPC   C1A60483  14.378  43.199   6.220
 4630POPC   D2A60484  14.567  43.427   6.556
 4630POPC   C3A60485  14.675  43.287   6.965
 4630POPC   C4A60486  14.413  43.281   7.283
 4630POPC   C1B60487  13.982  42.887   6.268
 4630POPC   C2B60488  14.281  42.833   6.620
 4630POPC   C3B60489  14.409  42.838   7.030
 4630POPC   C4B60490  14.257  42.770   7.439
 4631POPC   NC360491  14.179  25.775   5.644
 4631POPC   PO460492  14.578  26.263   5.414
 4631POPC   GL160493  14.712  26.188   5.858
 4631POPC   GL260494  14.610  25.832   5.948
 4631POPC   C1A60495  14.709  26.159   6.337
 4631POPC   D2A60496  14.563  25.873   6.709
 4631POPC   C3A60497  14.315  26.060   7.064
 4631POPC   C4A60498  14.296  26.402   7.390
 4631POPC   C1B60499  14.271  25.883   6.285
 4631POPC   C2B60500  14.028  25.744   6.652
 4631POPC   C3B60501  13.878  25.799   7.097
 4631POPC   C4B60502  13.994  25.990   7.543
 4632POPC   NC360503  13.840  27.996   5.249
 4632POPC   PO460504  13.499  28.547   5.228
 4632POPC   GL160505  13.685  28.442   5.627
 4632POPC   GL260506  13.594  28.095   5.706
 4632POPC   C1A60507  13.744  28.470   6.091
 4632POPC   D2A60508  13.912  28.504   6.548
 4632POPC   C3A60509  13.672  28.449   6.959
 4632POPC   C4A60510  13.740  28.410   7.434
 4632POPC   C1B60511  13.536  27.991   6.149
 4632POPC   C2B60512  13.722  27.993   6.563
 4632POPC   C3B60513  13.897  28.009   6.968
 4632POPC   C4B60514  13.518  28.014   7.201
 4633POPC   NC360515   3.219  29.193   5.331
 4633POPC   PO460516   3.794  28.870   5.368
 4633POPC   GL160517   3.561  28.937   5.752
 4633POPC   GL260518   3.647  29.266   5.846
 4633POPC   C1A60519   3.594  28.912   6.228
 4633POPC   D2A60520   3.584  29.244   6.575
 4633POPC   C3A60521   3.594  29.117   7.023
 4633POPC   C4A60522   3.512  29.239   7.481
 4633POPC   C1B60523   3.670  29.580   6.170
 4633POPC   C2B60524   3.894  29.663   6.552
 4633POPC   C3B60525   3.707  29.621   6.955
 4633POPC   C4B60526   3.849  29.598   7.395
 4634POPC   NC360527  18.497   9.797   5.328
 4634POPC   PO460528  17.875   9.717   5.463
 4634POPC   GL160529  18.214   9.804   5.766
 4634POPC   GL260530  18.427  10.120   5.713
 4634POPC   C1A60531  18.140   9.890   6.190
 4634POPC   D2A60532  17.886   9.978   6.549
 4634POPC   C3A60533  18.104   9.790   6.886
 4634POPC   C4A60534  17.976   9.851   7.298
 4634POPC   C1B60535  18.654  10.016   6.078
 4634POPC   C2B60536  18.655   9.849   6.487
 4634POPC   C3B60537  18.632  10.041   6.908
 4634POPC   C4B60538  18.477   9.946   7.291
 4635POPC   NC360539  32.471  31.579   5.408
 4635POPC   PO460540  31.992  31.182   5.388
 4635POPC   GL160541  32.199  31.137   5.822
 4635POPC   GL260542  32.504  31.326   5.871
 4635POPC   C1A60543  32.167  31.299   6.264
 4635POPC   D2A60544  32.225  31.531   6.642
 4635POPC   C3A60545  32.366  31.300   6.995
 4635POPC   C4A60546  32.324  31.100   7.376
 4635POPC   C1B60547  32.504  31.707   6.177
 4635POPC   C2B60548  32.609  31.933   6.576
 4635POPC   C3B60549  32.495  31.794   6.994
 4635POPC   C4B60550  32.017  31.875   7.007
 4636POPC   NC360551  14.216  20.507   5.216
 4636POPC   PO460552  14.061  21.064   5.643
 4636POPC   GL160553  14.330  20.726   5.822
 4636POPC   GL260554  14.146  20.442   5.734
 4636POPC   C1A60555  14.420  20.706   6.288
 4636POPC   D2A60556  14.685  20.853   6.666
 4636POPC   C3A60557  14.723  20.575   7.023
 4636POPC   C4A60558  14.326  20.479   7.207
 4636POPC   C1B60559  14.129  20.238   6.132
 4636POPC   C2B60560  14.104  20.385   6.556
 4636POPC   C3B60561  13.967  20.196   6.940
 4636POPC   C4B60562  13.811  20.419   7.307
 4637POPC   NC360563  19.486   2.599   5.412
 4637POPC   PO460564  19.732   2.020   5.245
 4637POPC   GL160565  19.820   1.922   5.679
 4637POPC   GL260566  19.861   2.270   5.781
 4637POPC   C1A60567  19.884   1.766   6.131
 4637POPC   D2A60568  19.704   1.892   6.572
 4637POPC   C3A60569  19.811   1.891   7.032
 4637POPC   C4A60570  19.620   2.066   7.417
 4637POPC   C1B60571  19.895   2.275   6.261
 4637POPC   C2B60572  19.955   2.336   6.735
 4637POPC   C3B60573  20.018   2.333   7.195
 4637POPC   C4B60574  20.043   2.390   7.635
 4638POPC   NC360575  21.452   6.927   5.110
 4638POPC   PO460576  21.946   6.684   5.501
 4638POPC   GL160577  21.555   6.741   5.758
 4638POPC   GL260578  21.495   7.084   5.796
 4638POPC   C1A60579  21.290   6.745   6.166
 4638POPC   D2A60580  21.396   6.627   6.617
 4638POPC   C3A60581  21.184   6.785   6.981
 4638POPC   C4A60582  21.208   6.754   7.441
 4638POPC   C1B60583  21.566   7.167   6.265
 4638POPC   C2B60584  21.512   7.119   6.752
 4638POPC   C3B60585  21.688   6.828   7.065
 4638POPC   C4B60586  21.763   6.757   7.523
 4639POPC   NC360587  13.466  16.640   5.458
 4639POPC   PO460588  13.869  17.173   5.358
 4639POPC   GL160589  13.718  16.924   5.788
 4639POPC   GL260590  13.607  16.586   5.947
 4639POPC   C1A60591  13.504  17.005   6.218
 4639POPC   D2A60592  13.578  16.854   6.629
 4639POPC   C3A60593  13.373  16.938   7.010
 4639POPC   C4A60594  13.273  16.581   7.263
 4639POPC   C1B60595  13.903  16.632   6.290
 4639POPC   C2B60596  14.080  16.725   6.689
 4639POPC   C3B60597  13.852  16.667   7.052
 4639POPC   C4B60598  13.723  16.327   7.327
 4640POPC   NC360599  19.938  28.753   5.534
 4640POPC   PO460600  19.490  28.179   5.506
 4640POPC   GL160601  19.661  28.429   5.894
 4640POPC   GL260602  19.864  28.761   6.024
 4640POPC   C1A60603  19.797  28.303   6.300
 4640POPC   D2A60604  19.633  28.292   6.729
 4640POPC   C3A60605  19.886  28.151   7.090
 4640POPC   C4A60606  19.886  28.176   7.529
 4640POPC   C1B60607  19.512  28.792   6.281
 4640POPC   C2B60608  19.371  28.731   6.710
 4640POPC   C3B60609  19.597  28.591   7.137
 4640POPC   C4B60610  19.663  28.625   7.615
 4641POPC   NC360611  24.693  14.772   5.490
 4641POPC   PO460612  24.783  14.115   5.596
 4641POPC   GL160613  24.645  14.414   5.840
 4641POPC   GL260614  24.330  14.455   5.710
 4641POPC   C1A60615  24.620  14.702   6.160
 4641POPC   D2A60616  24.586  14.574   6.561
 4641POPC   C3A60617  24.834  14.690   6.891
 4641POPC   C4A60618  24.796  14.363   7.234
 4641POPC   C1B60619  24.208  14.398   6.167
 4641POPC   C2B60620  23.996  14.690   6.468
 4641POPC   C3B60621  23.979  14.637   6.924
 4641POPC   C4B60622  24.377  14.607   7.102
 4642POPC   NC360623   5.958   0.897   5.072
 4642POPC   PO460624   6.099   1.412   5.647
 4642POPC   GL160625   5.992   1.142   5.923
 4642POPC   GL260626   6.256   0.910   5.945
 4642POPC   C1A60627   5.882   1.267   6.342
 4642POPC   D2A60628   5.589   1.441   6.601
 4642POPC   C3A60629   5.517   1.078   6.836
 4642POPC   C4A60630   5.682   1.028   7.188
 4642POPC   C1B60631   6.042   0.774   6.312
 4642POPC   C2B60632   5.973   0.877   6.743
 4642POPC   C3B60633   6.143   0.832   7.166
 4642POPC   C4B60634   6.295   0.683   7.596
 4643POPC   NC360635  16.211  20.442   5.400
 4643POPC   PO460636  15.567  20.430   5.532
 4643POPC   GL160637  15.821  20.702   5.799
 4643POPC   GL260638  16.168  20.781   5.783
 4643POPC   C1A60639  15.875  20.695   6.236
 4643POPC   D2A60640  16.062  20.636   6.604
 4643POPC   C3A60641  15.867  20.758   6.981
 4643POPC   C4A60642  16.027  20.653   7.405
 4643POPC   C1B60643  16.271  20.414   6.092
 4643POPC   C2B60644  16.234  20.161   6.484
 4643POPC   C3B60645  16.211  20.283   6.938
 4643POPC   C4B60646  16.297  20.224   7.380
 4644POPC   NC360647  20.798  41.687   5.274
 4644POPC   PO460648  20.214  41.336   5.405
 4644POPC   GL160649  20.579  41.343   5.709
 4644POPC   GL260650  20.793  41.692   5.784
 4644POPC   C1A60651  20.647  41.349   6.157
 4644POPC   D2A60652  20.573  41.750   6.378
 4644POPC   C3A60653  20.616  41.802   6.825
 4644POPC   C4A60654  20.540  41.620   7.254
 4644POPC   C1B60655  21.031  41.698   6.181
 4644POPC   C2B60656  20.951  41.473   6.597
 4644POPC   C3B60657  21.033  41.622   7.050
 4644POPC   C4B60658  20.972  41.690   7.518
 4645POPC   NC360659  17.164  10.731   5.066
 4645POPC   PO460660  16.596  10.525   5.307
 4645POPC   GL160661  16.752  10.608   5.715
 4645POPC   GL260662  17.071  10.436   5.617
 4645POPC   C1A60663  16.730  10.669   6.172
 4645POPC   D2A60664  16.845  10.427   6.558
 4645POPC   C3A60665  16.643  10.568   6.921
 4645POPC   C4A60666  16.445  10.733   7.270
 4645POPC   C1B60667  17.178  10.438   6.061
 4645POPC   C2B60668  17.221  10.741   6.399
 4645POPC   C3B60669  17.149  10.735   6.852
 4645POPC   C4B60670  16.982  10.750   7.265
 4646POPC   NC360671   5.522   9.311   5.374
 4646POPC   PO460672   5.964   8.730   5.431
 4646POPC   GL160673   5.741   8.989   5.726
 4646POPC   GL260674   5.970   9.278   5.788
 4646POPC   C1A60675   5.601   9.143   6.141
 4646POPC   D2A60676   5.788   9.171   6.555
 4646POPC   C3A60677   5.573   9.061   6.917
 4646POPC   C4A60678   5.594   8.631   7.047
 4646POPC   C1B60679   6.131   9.054   6.175
 4646POPC   C2B60680   6.221   8.933   6.635
 4646POPC   C3B60681   6.054   8.960   7.074
 4646POPC   C4B60682   6.124   8.885   7.527
 4647POPC   NC360683  38.816  39.627   5.652
 4647POPC   PO460684  38.661  40.289   5.450
 4647POPC   GL160685  38.554  40.035   5.828
 4647POPC   GL260686  38.237  39.841   5.864
 4647POPC   C1A60687  38.632  39.887   6.239
 4647POPC   D2A60688  38.608  40.116   6.609
 4647POPC   C3A60689  38.596  39.876   6.965
 4647POPC   C4A60690  38.516  40.065   7.346
 4647POPC   C1B60691  38.156  40.112   6.191
 4647POPC   C2B60692  38.130  39.951   6.587
 4647POPC   C3B60693  38.109  40.089   6.996
 4647POPC   C4B60694  38.122  39.729   7.258
 4648POPC   NC360695  12.310  26.267   5.076
 4648POPC   PO460696  11.834  25.901   5.379
 4648POPC   GL160697  12.118  25.965   5.754
 4648POPC   GL260698  12.272  25.686   5.801
 4648POPC   C1A60699  12.130  25.904   6.225
 4648POPC   D2A60700  12.402  25.877   6.555
 4648POPC   C3A60701  12.289  26.215   6.827
 4648POPC   C4A60702  12.095  26.148   7.216
 4648POPC   C1B60703  11.949  25.466   6.038
 4648POPC   C2B60704  12.024  25.448   6.481
 4648POPC   C3B60705  11.956  25.709   6.835
 4648POPC   C4B60706  11.675  25.855   7.158
 4649POPC   NC360707  16.108   7.101   5.323
 4649POPC   PO460708  15.681   7.602   5.456
 4649POPC   GL160709  15.870   7.486   5.839
 4649POPC   GL260710  16.221   7.471   5.741
 4649POPC   C1A60711  16.078   7.149   6.119
 4649POPC   D2A60712  16.083   6.944   6.542
 4649POPC   C3A60713  15.880   7.221   6.856
 4649POPC   C4A60714  15.728   7.449   7.212
 4649POPC   C1B60715  16.210   7.663   6.187
 4649POPC   C2B60716  16.382   7.848   6.587
 4649POPC   C3B60717  16.138   7.732   6.950
 4649POPC   C4B60718  16.243   7.395   7.201
 4650POPC   NC360719   8.491  15.487   5.589
 4650POPC   PO460720   9.009  15.838   5.336
 4650POPC   GL160721   8.835  15.900   5.788
 4650POPC   GL260722   8.612  15.676   6.037
 4650POPC   C1A60723   9.067  15.822   6.180
 4650POPC   D2A60724   8.904  15.667   6.563
 4650POPC   C3A60725   9.136  15.896   6.871
 4650POPC   C4A60726   9.200  15.934   7.320
 4650POPC   C1B60727   8.638  16.055   6.322
 4650POPC   C2B60728   8.629  16.075   6.767
 4650POPC   C3B60729   8.696  15.889   7.181
 4650POPC   C4B60730   8.730  16.070   7.598
 4651POPC   NC360731   6.204  14.800   5.299
 4651POPC   PO460732   6.613  14.350   5.396
 4651POPC   GL160733   6.519  14.301   5.828
 4651POPC   GL260734   6.622  14.016   5.781
 4651POPC   C1A60735   6.696  14.395   6.229
 4651POPC   D2A60736   6.983  14.526   6.540
 4651POPC   C3A60737   6.760  14.457   6.899
 4651POPC   C4A60738   6.438  14.549   7.205
 4651POPC   C1B60739   6.573  13.883   6.197
 4651POPC   C2B60740   6.479  14.078   6.566
 4651POPC   C3B60741   6.379  14.109   6.942
 4651POPC   C4B60742   6.706  14.067   7.219
 4652POPC   NC360743  18.522   5.110   5.518
 4652POPC   PO460744  19.088   4.879   5.257
 4652POPC   GL160745  19.028   5.082   5.647
 4652POPC   GL260746  18.974   5.417   5.560
 4652POPC   C1A60747  19.032   5.057   6.105
 4652POPC   D2A60748  19.089   5.074   6.560
 4652POPC   C3A60749  18.938   4.834   6.897
 4652POPC   C4A60750  19.198   4.928   7.258
 4652POPC   C1B60751  18.841   5.541   5.974
 4652POPC   C2B60752  18.740   5.396   6.372
 4652POPC   C3B60753  18.702   5.293   6.818
 4652POPC   C4B60754  18.723   5.140   7.235
 4653POPC   NC360755  10.131  11.333   5.499
 4653POPC   PO460756   9.523  11.087   5.451
 4653POPC   GL160757   9.541  11.439   5.793
 4653POPC   GL260758   9.873  11.571   5.922
 4653POPC   C1A60759   9.473  11.417   6.263
 4653POPC   D2A60760   9.469  11.435   6.741
 4653POPC   C3A60761   9.799  11.381   7.029
 4653POPC   C4A60762   9.779  11.322   7.477
 4653POPC   C1B60763   9.990  11.370   6.358
 4653POPC   C2B60764  10.157  11.158   6.763
 4653POPC   C3B60765  10.200  11.133   7.258
 4653POPC   C4B60766  10.206  11.319   7.731
 4654POPC   NC360767   1.333  30.774   5.477
 4654POPC   PO460768   0.761  30.474   5.369
 4654POPC   GL160769   0.820  30.750   5.717
 4654POPC   GL260770   0.933  31.101   5.645
 4654POPC   C1A60771   0.990  30.640   6.136
 4654POPC   D2A60772   1.340  30.590   6.423
 4654POPC   C3A60773   1.350  30.668   6.868
 4654POPC   C4A60774   1.511  30.996   7.126
 4654POPC   C1B60775   1.040  31.161   6.071
 4654POPC   C2B60776   1.180  31.133   6.506
 4654POPC   C3B60777   1.004  31.075   6.922
 4654POPC   C4B60778   0.794  31.082   7.309
 4655POPC   NC360779  10.779  33.316   5.227
 4655POPC   PO460780  10.371  32.875   5.456
 4655POPC   GL160781  10.472  32.818   5.862
 4655POPC   GL260782  10.786  33.016   5.824
 4655POPC   C1A60783  10.460  33.044   6.250
 4655POPC   D2A60784  10.681  33.026   6.645
 4655POPC   C3A60785  10.336  32.961   6.925
 4655POPC   C4A60786   9.998  33.033   7.199
 4655POPC   C1B60787  10.902  32.782   6.199
 4655POPC   C2B60788  11.151  32.823   6.571
 4655POPC   C3B60789  11.058  32.920   7.004
 4655POPC   C4B60790  10.706  32.895   7.253
 4656POPC   NC360791  37.057  15.614   5.347
 4656POPC   PO460792  36.775  16.256   5.198
 4656POPC   GL160793  36.846  16.096   5.637
 4656POPC   GL260794  37.212  16.021   5.687
 4656POPC   C1A60795  36.704  15.933   6.064
 4656POPC   D2A60796  36.821  16.063   6.498
 4656POPC   C3A60797  36.666  15.880   6.861
 4656POPC   C4A60798  36.758  15.708   7.269
 4656POPC   C1B60799  37.227  15.975   6.157
 4656POPC   C2B60800  37.290  15.819   6.610
 4656POPC   C3B60801  37.173  15.906   7.034
 4656POPC   C4B60802  37.025  16.171   7.366
 4657POPC   NC360803   0.632  44.556   5.695
 4657POPC   PO460804   0.262  44.925   5.270
 4657POPC   GL160805   0.239  44.911   5.740
 4657POPC   GL260806   0.099  44.569   5.805
 4657POPC   C1A60807   0.357  44.828   6.223
 4657POPC   D2A60808   0.349  44.565   6.665
 4657POPC   C3A60809   0.594  44.699   7.043
 4657POPC   C4A60810   0.784   0.054   7.259
 4657POPC   C1B60811   0.112  44.360   6.224
 4657POPC   C2B60812  44.903  44.245   6.636
 4657POPC   C3B60813   0.008  44.183   7.075
 4657POPC   C4B60814   0.361  44.323   7.328
 4658POPC   NC360815   5.343  25.523   5.091
 4658POPC   PO460816   5.067  24.906   5.464
 4658POPC   GL160817   5.298  25.159   5.764
 4658POPC   GL260818   4.998  25.338   5.927
 4658POPC   C1A60819   5.450  25.453   6.099
 4658POPC   D2A60820   5.211  25.439   6.480
 4658POPC   C3A60821   5.415  25.562   6.850
 4658POPC   C4A60822   5.209  25.499   7.222
 4658POPC   C1B60823   4.971  24.957   6.145
 4658POPC   C2B60824   4.991  24.849   6.579
 4658POPC   C3B60825   4.952  25.136   6.927
 4658POPC   C4B60826   4.766  25.160   7.326
 4659POPC   NC360827  12.245  18.899   5.159
 4659POPC   PO460828  12.370  18.262   5.160
 4659POPC   GL160829  12.455  18.236   5.629
 4659POPC   GL260830  12.415  18.566   5.802
 4659POPC   C1A60831  12.263  18.077   6.040
 4659POPC   D2A60832  12.403  18.075   6.484
 4659POPC   C3A60833  12.146  17.993   6.853
 4659POPC   C4A60834  12.180  18.135   7.279
 4659POPC   C1B60835  12.271  18.560   6.258
 4659POPC   C2B60836  12.239  18.503   6.726
 4659POPC   C3B60837  12.550  18.644   7.008
 4659POPC   C4B60838  12.347  18.601   7.325
 4660POPC   NC360839   3.560  26.998   5.496
 4660POPC   PO460840   3.212  26.325   5.594
 4660POPC   GL160841   3.390  26.694   5.888
 4660POPC   GL260842   3.763  26.858   5.938
 4660POPC   C1A60843   3.419  26.970   6.280
 4660POPC   D2A60844   3.179  27.240   6.565
 4660POPC   C3A60845   3.121  26.971   6.925
 4660POPC   C4A60846   3.546  26.890   7.104
 4660POPC   C1B60847   3.835  26.450   6.057
 4660POPC   C2B60848   3.866  26.278   6.454
 4660POPC   C3B60849   3.738  26.473   6.821
 4660POPC   C4B60850   3.858  26.491   7.231
 4661POPC   NC360851  44.197   0.368   5.373
 4661POPC   PO460852  44.871   0.666   5.360
 4661POPC   GL160853  44.783   0.453   5.748
 4661POPC   GL260854  44.507   0.236   5.750
 4661POPC   C1A60855  44.666   0.417   6.213
 4661POPC   D2A60856  44.559   0.100   6.514
 4661POPC   C3A60857  44.727   0.198   6.900
 4661POPC   C4A60858  44.835   0.364   7.288
 4661POPC   C1B60859  44.220   0.454   6.011
 4661POPC   C2B60860  44.189   0.437   6.451
 4661POPC   C3B60861  44.237   0.314   6.893
 4661POPC   C4B60862  44.343   0.393   7.337
 4662POPC   NC360863  28.787  21.479   5.433
 4662POPC   PO460864  29.381  21.858   5.358
 4662POPC   GL160865  29.097  21.720   5.737
 4662POPC   GL260866  29.101  21.345   5.821
 4662POPC   C1A60867  28.881  21.682   6.153
 4662POPC   D2A60868  29.019  21.547   6.563
 4662POPC   C3A60869  28.797  21.352   6.892
 4662POPC   C4A60870  28.899  21.282   7.299
 4662POPC   C1B60871  28.964  21.154   6.229
 4662POPC   C2B60872  29.078  21.001   6.654
 4662POPC   C3B60873  29.306  21.152   7.032
 4662POPC   C4B60874  29.382  21.260   7.497
 4663POPC   NC360875  23.560  12.147   5.218
 4663POPC   PO460876  24.167  11.857   5.139
 4663POPC   GL160877  23.869  11.998   5.578
 4663POPC   GL260878  23.511  11.957   5.685
 4663POPC   C1A60879  23.823  12.120   6.069
 4663POPC   D2A60880  23.879  12.327   6.505
 4663POPC   C3A60881  23.967  12.098   6.882
 4663POPC   C4A60882  23.858  12.248   7.292
 4663POPC   C1B60883  23.374  11.865   6.115
 4663POPC   C2B60884  23.436  12.084   6.485
 4663POPC   C3B60885  23.463  12.230   6.907
 4663POPC   C4B60886  23.519  11.889   7.207
 4664POPC   NC360887  27.000  17.718   5.279
 4664POPC   PO460888  26.543  17.364   5.596
 4664POPC   GL160889  26.702  17.532   5.891
 4664POPC   GL260890  27.036  17.643   5.783
 4664POPC   C1A60891  26.518  17.474   6.272
 4664POPC   D2A60892  26.643  17.663   6.596
 4664POPC   C3A60893  26.561  17.532   6.981
 4664POPC   C4A60894  26.751  17.604   7.367
 4664POPC   C1B60895  27.052  17.651   6.237
 4664POPC   C2B60896  27.097  17.404   6.612
 4664POPC   C3B60897  27.099  17.414   7.051
 4664POPC   C4B60898  27.056  17.214   7.451
 4665POPC   NC360899  11.618  40.064   5.394
 4665POPC   PO460900  10.947  39.890   5.447
 4665POPC   GL160901  11.202  40.116   5.793
 4665POPC   GL260902  11.520  39.970   5.883
 4665POPC   C1A60903  11.317  40.305   6.228
 4665POPC   D2A60904  11.111  40.281   6.650
 4665POPC   C3A60905  11.331  40.157   7.032
 4665POPC   C4A60906  11.266  40.137   7.448
 4665POPC   C1B60907  11.569  39.865   6.291
 4665POPC   C2B60908  11.660  39.962   6.699
 4665POPC   C3B60909  11.558  39.671   7.033
 4665POPC   C4B60910  11.538  39.720   7.502
 4666POPC   NC360911  11.547  31.478   5.373
 4666POPC   PO460912  10.955  31.518   5.592
 4666POPC   GL160913  11.383  31.473   5.837
 4666POPC   GL260914  11.471  31.139   5.932
 4666POPC   C1A60915  11.660  31.529   6.188
 4666POPC   D2A60916  11.420  31.524   6.526
 4666POPC   C3A60917  11.573  31.583   6.890
 4666POPC   C4A60918  11.259  31.533   7.184
 4666POPC   C1B60919  11.068  31.241   6.155
 4666POPC   C2B60920  10.932  31.391   6.518
 4666POPC   C3B60921  10.943  31.243   6.903
 4666POPC   C4B60922  11.067  31.042   7.286
 4667POPC   NC360923   2.381  16.459   5.505
 4667POPC   PO460924   2.104  15.792   5.443
 4667POPC   GL160925   2.091  15.993   5.827
 4667POPC   GL260926   2.428  16.076   5.869
 4667POPC   C1A60927   2.057  16.073   6.253
 4667POPC   D2A60928   1.853  15.988   6.633
 4667POPC   C3A60929   2.120  16.026   6.977
 4667POPC   C4A60930   2.052  15.959   7.415
 4667POPC   C1B60931   2.381  15.675   6.135
 4667POPC   C2B60932   2.220  15.655   6.539
 4667POPC   C3B60933   2.311  15.542   6.951
 4667POPC   C4B60934   2.496  15.777   7.262
 4668POPC   NC360935  34.269  44.479   5.142
 4668POPC   PO460936  34.746  44.939   5.249
 4668POPC   GL160937  34.735  44.716   5.620
 4668POPC   GL260938  34.678  44.379   5.523
 4668POPC   C1A60939  34.620  44.866   6.034
 4668POPC   D2A60940  34.681  44.946   6.471
 4668POPC   C3A60941  34.478  44.845   6.839
 4668POPC   C4A60942  34.690  44.854   7.247
 4668POPC   C1B60943  34.403  44.422   5.899
 4668POPC   C2B60944  34.410  44.510   6.354
 4668POPC   C3B60945  34.176  44.429   6.734
 4668POPC   C4B60946  34.363  44.451   7.154
 4669POPC   NC360947  19.693  38.314   5.585
 4669POPC   PO460948  20.209  37.864   5.698
 4669POPC   GL160949  20.056  38.248   6.018
 4669POPC   GL260950  19.730  38.476   6.040
 4669POPC   C1A60951  19.876  38.269   6.466
 4669POPC   D2A60952  19.905  38.565   6.797
 4669POPC   C3A60953  19.796  38.467   7.168
 4669POPC   C4A60954  19.785  38.031   7.205
 4669POPC   C1B60955  19.924  38.752   6.289
 4669POPC   C2B60956  19.750  38.983   6.609
 4669POPC   C3B60957  19.478  39.072   6.899
 4669POPC   C4B60958  19.357  38.787   7.200
 4670POPC   NC360959  42.967  22.945   5.113
 4670POPC   PO460960  43.621  22.673   5.268
 4670POPC   GL160961  43.313  22.764   5.645
 4670POPC   GL260962  43.157  23.085   5.662
 4670POPC   C1A60963  43.145  22.770   6.105
 4670POPC   D2A60964  42.945  22.668   6.523
 4670POPC   C3A60965  43.171  22.783   6.904
 4670POPC   C4A60966  43.185  22.988   7.295
 4670POPC   C1B60967  43.000  23.271   6.098
 4670POPC   C2B60968  42.877  23.187   6.531
 4670POPC   C3B60969  42.811  23.167   6.968
 4670POPC   C4B60970  42.983  23.441   7.256
 4671POPC   NC360971  42.228  30.983   4.957
 4671POPC   PO460972  42.065  30.486   5.349
 4671POPC   GL160973  42.237  30.481   5.843
 4671POPC   GL260974  42.583  30.371   5.901
 4671POPC   C1A60975  42.294  30.609   6.302
 4671POPC   D2A60976  42.293  30.941   6.648
 4671POPC   C3A60977  42.237  30.697   7.032
 4671POPC   C4A60978  42.181  30.455   7.405
 4671POPC   C1B60979  42.620  30.226   6.321
 4671POPC   C2B60980  42.533  30.390   6.719
 4671POPC   C3B60981  42.542  30.229   7.105
 4671POPC   C4B60982  42.597  30.233   7.565
 4672POPC   NC360983   3.139  38.692   5.512
 4672POPC   PO460984   2.564  38.366   5.291
 4672POPC   GL160985   2.679  38.240   5.721
 4672POPC   GL260986   3.033  38.236   5.745
 4672POPC   C1A60987   2.633  38.311   6.185
 4672POPC   D2A60988   2.692  38.052   6.567
 4672POPC   C3A60989   2.501  38.191   6.956
 4672POPC   C4A60990   2.591  38.347   7.387
 4672POPC   C1B60991   3.103  38.488   6.140
 4672POPC   C2B60992   2.941  38.543   6.566
 4672POPC   C3B60993   2.953  38.472   7.014
 4672POPC   C4B60994   3.097  38.359   7.437
 4673POPC   NC360995  31.663   2.329   5.553
 4673POPC   PO460996  31.191   1.951   5.529
 4673POPC   GL160997  31.310   2.153   5.897
 4673POPC   GL260998  31.663   2.120   6.009
 4673POPC   C1A60999  31.295   1.983   6.343
 4673POPC   D2A61000  31.307   1.566   6.546
 4673POPC   C3A61001  31.589   1.641   6.872
 4673POPC   C4A61002  31.401   1.914   7.193
 4673POPC   C1B61003  31.460   2.472   6.253
 4673POPC   C2B61004  31.353   2.397   6.690
 4673POPC   C3B61005  31.581   2.392   7.071
 4673POPC   C4B61006  31.855   2.084   7.273
 4674POPC   NC361007  41.021  25.581   5.530
 4674POPC   PO461008  40.682  24.991   5.461
 4674POPC   GL161009  40.772  25.228   5.855
 4674POPC   GL261010  40.645  25.580   5.892
 4674POPC   C1A61011  40.527  25.297   6.282
 4674POPC   D2A61012  40.416  25.488   6.676
 4674POPC   C3A61013  40.604  25.295   7.050
 4674POPC   C4A61014  40.678  25.106   7.459
 4674POPC   C1B61015  40.972  25.558   6.218
 4674POPC   C2B61016  40.940  25.495   6.656
 4674POPC   C3B61017  41.019  25.580   7.086
 4674POPC   C4B61018  40.891  25.574   7.499
 4675POPC   NC361019   1.059  15.346   5.462
 4675POPC   PO461020   1.662  14.986   5.336
 4675POPC   GL161021   1.592  15.163   5.750
 4675POPC   GL261022   1.250  15.098   5.864
 4675POPC   C1A61023   1.607  15.134   6.217
 4675POPC   D2A61024   1.345  15.227   6.586
 4675POPC   C3A61025   1.487  15.138   7.011
 4675POPC   C4A61026   1.317  15.271   7.433
 4675POPC   C1B61027   1.174  14.858   6.275
 4675POPC   C2B61028   1.165  14.771   6.764
 4675POPC   C3B61029   0.989  15.003   7.141
 4675POPC   C4B61030   0.953  14.955   7.622
 4676POPC   NC361031  23.358  20.001   5.378
 4676POPC   PO461032  22.741  19.799   5.308
 4676POPC   GL161033  22.773  19.829   5.784
 4676POPC   GL261034  23.147  19.875   5.842
 4676POPC   C1A61035  22.706  20.067   6.172
 4676POPC   D2A61036  22.908  20.034   6.565
 4676POPC   C3A61037  22.664  19.786   6.827
 4676POPC   C4A61038  22.496  20.012   7.156
 4676POPC   C1B61039  23.035  19.667   6.215
 4676POPC   C2B61040  23.028  19.483   6.624
 4676POPC   C3B61041  23.122  19.697   7.044
 4676POPC   C4B61042  23.300  19.662   7.459
 4677POPC   NC361043  34.192  31.038   5.286
 4677POPC   PO461044  33.517  30.838   5.368
 4677POPC   GL161045  33.802  30.872   5.696
 4677POPC   GL261046  34.068  30.642   5.722
 4677POPC   C1A61047  33.733  30.820   6.145
 4677POPC   D2A61048  33.701  31.038   6.565
 4677POPC   C3A61049  33.766  30.793   6.942
 4677POPC   C4A61050  33.509  30.668   7.283
 4677POPC   C1B61051  34.261  30.465   6.105
 4677POPC   C2B61052  34.300  30.406   6.578
 4677POPC   C3B61053  34.320  30.619   6.978
 4677POPC   C4B61054  34.183  30.654   7.397
 4678POPC   NC361055  16.797  44.313   5.444
 4678POPC   PO461056  16.808  43.680   5.190
 4678POPC   GL161057  16.857  43.717   5.628
 4678POPC   GL261058  16.562  43.926   5.703
 4678POPC   C1A61059  16.772  43.627   6.086
 4678POPC   D2A61060  16.643  43.905   6.448
 4678POPC   C3A61061  16.696  43.753   6.873
 4678POPC   C4A61062  16.903  43.756   7.287
 4678POPC   C1B61063  16.491  44.231   6.043
 4678POPC   C2B61064  16.230  44.224   6.403
 4678POPC   C3B61065  16.367  44.165   6.814
 4678POPC   C4B61066  16.646  44.202   7.162
 4679POPC   NC361067   9.755  43.495   5.580
 4679POPC   PO461068   9.567  44.136   5.555
 4679POPC   GL161069   9.691  44.153   5.977
 4679POPC   GL261070  10.006  44.321   6.066
 4679POPC   C1A61071   9.562  44.033   6.408
 4679POPC   D2A61072   9.682  44.083   6.864
 4679POPC   C3A61073   9.562  43.819   7.169
 4679POPC   C4A61074   9.817  43.479   7.208
 4679POPC   C1B61075   9.983  44.338   6.536
 4679POPC   C2B61076  10.145  44.294   6.978
 4679POPC   C3B61077   9.992  44.130   7.355
 4679POPC   C4B61078   9.919  44.266   7.804
 4680POPC   NC361079  27.475  14.424   5.379
 4680POPC   PO461080  28.024  13.984   5.427
 4680POPC   GL161081  27.754  14.207   5.718
 4680POPC   GL261082  27.762  14.614   5.742
 4680POPC   C1A61083  27.544  14.179   6.094
 4680POPC   D2A61084  27.750  14.021   6.440
 4680POPC   C3A61085  27.615  14.137   6.864
 4680POPC   C4A61086  27.751  14.411   7.208
 4680POPC   C1B61087  27.551  14.717   6.164
 4680POPC   C2B61088  27.359  14.537   6.560
 4680POPC   C3B61089  27.371  14.693   6.997
 4680POPC   C4B61090  27.450  14.896   7.424
 4681POPC   NC361091  33.553  11.068   5.114
 4681POPC   PO461092  32.925  11.177   5.436
 4681POPC   GL161093  32.959  11.293   5.873
 4681POPC   GL261094  33.228  11.504   5.962
 4681POPC   C1A61095  33.098  11.105   6.252
 4681POPC   D2A61096  33.390  10.980   6.542
 4681POPC   C3A61097  33.348  11.206   6.917
 4681POPC   C4A61098  33.366  11.070   7.330
 4681POPC   C1B61099  32.861  11.549   6.315
 4681POPC   C2B61100  32.850  11.224   6.683
 4681POPC   C3B61101  32.897  11.158   7.136
 4681POPC   C4B61102  32.876  11.578   7.345
 4682POPC   NC361103   7.461  13.334   5.040
 4682POPC   PO461104   7.374  13.885   5.527
 4682POPC   GL161105   7.363  13.674   5.887
 4682POPC   GL261106   7.283  13.326   5.811
 4682POPC   C1A61107   7.450  13.821   6.291
 4682POPC   D2A61108   7.642  13.809   6.656
 4682POPC   C3A61109   7.463  13.685   7.049
 4682POPC   C4A61110   7.360  13.988   7.394
 4682POPC   C1B61111   7.428  13.267   6.261
 4682POPC   C2B61112   7.597  13.256   6.711
 4682POPC   C3B61113   7.563  13.183   7.162
 4682POPC   C4B61114   7.822  13.038   7.489
 4683POPC   NC361115  25.057  30.580   4.970
 4683POPC   PO461116  24.610  30.917   5.261
 4683POPC   GL161117  24.570  30.640   5.594
 4683POPC   GL261118  24.253  30.744   5.644
 4683POPC   C1A61119  24.649  30.543   6.037
 4683POPC   D2A61120  24.807  30.421   6.452
 4683POPC   C3A61121  24.792  30.567   6.849
 4683POPC   C4A61122  24.686  30.652   7.267
 4683POPC   C1B61123  24.255  30.870   6.093
 4683POPC   C2B61124  24.431  30.774   6.522
 4683POPC   C3B61125  24.295  30.638   6.926
 4683POPC   C4B61126  24.193  30.738   7.320
 4684POPC   NC361127  22.333  41.618   5.620
 4684POPC   PO461128  21.777  41.966   5.417
 4684POPC   GL161129  21.887  41.817   5.832
 4684POPC   GL261130  21.842  41.477   5.805
 4684POPC   C1A61131  22.112  41.698   6.254
 4684POPC   D2A61132  22.363  41.494   6.639
 4684POPC   C3A61133  22.420  41.699   7.082
 4684POPC   C4A61134  22.421  41.765   7.568
 4684POPC   C1B61135  21.826  41.270   6.221
 4684POPC   C2B61136  21.844  41.475   6.624
 4684POPC   C3B61137  22.024  41.359   7.032
 4684POPC   C4B61138  21.776  41.312   7.395
 4685POPC   NC361139  36.083  25.119   5.386
 4685POPC   PO461140  36.084  25.711   5.242
 4685POPC   GL161141  36.172  25.558   5.676
 4685POPC   GL261142  35.853  25.385   5.812
 4685POPC   C1A61143  36.319  25.424   6.094
 4685POPC   D2A61144  36.108  25.559   6.472
 4685POPC   C3A61145  36.258  25.373   6.841
 4685POPC   C4A61146  36.249  25.515   7.217
 4685POPC   C1B61147  35.913  25.088   6.167
 4685POPC   C2B61148  36.039  24.974   6.619
 4685POPC   C3B61149  35.845  25.062   7.050
 4685POPC   C4B61150  35.861  25.297   7.455
 4686POPC   NC361151  37.413  19.220   5.475
 4686POPC   PO461152  38.064  18.908   5.561
 4686POPC   GL161153  37.807  19.136   5.830
 4686POPC   GL261154  37.550  18.869   5.829
 4686POPC   C1A61155  37.733  19.135   6.298
 4686POPC   D2A61156  37.976  19.055   6.700
 4686POPC   C3A61157  37.826  19.105   7.152
 4686POPC   C4A61158  37.461  19.340   7.303
 4686POPC   C1B61159  37.480  18.551   6.138
 4686POPC   C2B61160  37.482  18.629   6.558
 4686POPC   C3B61161  37.441  18.944   6.868
 4686POPC   C4B61162  37.443  18.805   7.294
 4687POPC   NC361163  14.852  42.148   5.503
 4687POPC   PO461164  15.464  42.366   5.233
 4687POPC   GL161165  15.464  42.312   5.720
 4687POPC   GL261166  15.185  42.488   5.874
 4687POPC   C1A61167  15.379  42.137   6.191
 4687POPC   D2A61168  15.199  42.177   6.627
 4687POPC   C3A61169  15.426  42.150   7.044
 4687POPC   C4A61170  15.229  41.888   7.357
 4687POPC   C1B61171  15.261  42.654   6.326
 4687POPC   C2B61172  15.284  42.644   6.798
 4687POPC   C3B61173  15.402  42.616   7.240
 4687POPC   C4B61174  15.479  42.744   7.713
 4688POPC   NC361175  28.616   8.707   5.371
 4688POPC   PO461176  28.204   9.207   5.427
 4688POPC   GL161177  28.402   9.047   5.770
 4688POPC   GL261178  28.238   8.726   5.741
 4688POPC   C1A61179  28.452   9.171   6.213
 4688POPC   D2A61180  28.462   9.096   6.655
 4688POPC   C3A61181  28.104   8.884   6.894
 4688POPC   C4A61182  28.158   9.071   7.294
 4688POPC   C1B61183  28.527   8.651   6.102
 4688POPC   C2B61184  28.662   8.538   6.509
 4688POPC   C3B61185  28.568   8.664   6.909
 4688POPC   C4B61186  28.450   8.497   7.272
 4689POPC   NC361187  29.453  42.373   5.587
 4689POPC   PO461188  30.105  42.445   5.462
 4689POPC   GL161189  30.104  42.557   5.879
 4689POPC   GL261190  29.847  42.310   5.914
 4689POPC   C1A61191  30.168  42.430   6.332
 4689POPC   D2A61192  30.038  42.610   6.754
 4689POPC   C3A61193  30.062  42.348   7.123
 4689POPC   C4A61194  29.800  42.240   7.487
 4689POPC   C1B61195  29.671  42.352   6.329
 4689POPC   C2B61196  29.837  42.137   6.711
 4689POPC   C3B61197  29.830  41.894   7.114
 4689POPC   C4B61198  29.637  41.746   7.523
 4690POPC   NC361199  40.582  36.453   5.044
 4690POPC   PO461200  40.872  35.955   5.282
 4690POPC   GL161201  40.737  36.011   5.729
 4690POPC   GL261202  40.805  36.333   5.839
 4690POPC   C1A61203  40.784  35.952   6.203
 4690POPC   D2A61204  40.716  36.147   6.620
 4690POPC   C3A61205  40.710  35.925   7.010
 4690POPC   C4A61206  40.389  35.806   7.283
 4690POPC   C1B61207  40.839  36.503   6.261
 4690POPC   C2B61208  41.068  36.499   6.675
 4690POPC   C3B61209  40.868  36.426   7.111
 4690POPC   C4B61210  40.769  36.469   7.594
 4691POPC   NC361211   5.418   0.093   5.320
 4691POPC   PO461212   4.974   0.529   5.384
 4691POPC   GL161213   5.156   0.372   5.741
 4691POPC   GL261214   4.955   0.665   5.890
 4691POPC   C1A61215   5.259   0.379   6.186
 4691POPC   D2A61216   5.432   0.505   6.602
 4691POPC   C3A61217   5.287   0.331   6.996
 4691POPC   C4A61218   5.356   0.659   7.254
 4691POPC   C1B61219   4.742   0.271   6.038
 4691POPC   C2B61220   4.648   0.245   6.467
 4691POPC   C3B61221   4.882   0.533   6.749
 4691POPC   C4B61222   4.867   0.751   7.156
 4692POPC   NC361223  30.409  31.822   5.367
 4692POPC   PO461224  31.067  31.559   5.345
 4692POPC   GL161225  30.895  31.522   5.780
 4692POPC   GL261226  30.521  31.611   5.828
 4692POPC   C1A61227  30.766  31.380   6.217
 4692POPC   D2A61228  30.567  31.245   6.625
 4692POPC   C3A61229  30.880  31.214   6.922
 4692POPC   C4A61230  30.962  31.429   7.303
 4692POPC   C1B61231  30.234  31.718   6.190
 4692POPC   C2B61232  30.087  31.867   6.604
 4692POPC   C3B61233  30.271  31.758   6.987
 4692POPC   C4B61234  30.457  31.380   7.177
 4693POPC   NC361235   2.247  22.496   5.574
 4693POPC   PO461236   2.817  22.843   5.356
 4693POPC   GL161237   2.752  22.960   5.753
 4693POPC   GL261238   2.470  22.847   5.958
 4693POPC   C1A61239   2.753  23.258   6.050
 4693POPC   D2A61240   2.562  23.160   6.449
 4693POPC   C3A61241   2.714  23.070   6.828
 4693POPC   C4A61242   2.782  23.016   7.244
 4693POPC   C1B61243   2.852  22.798   6.230
 4693POPC   C2B61244   2.874  22.624   6.626
 4693POPC   C3B61245   3.130  22.752   6.974
 4693POPC   C4B61246   3.013  22.488   7.297
 4694POPC   NC361247  21.608  44.889   5.348
 4694POPC   PO461248  20.944  44.974   5.409
 4694POPC   GL161249  21.235  44.934   5.806
 4694POPC   GL261250  21.602   0.085   5.840
 4694POPC   C1A61251  21.300   0.113   6.249
 4694POPC   D2A61252  21.255   0.317   6.655
 4694POPC   C3A61253  21.446   0.150   7.023
 4694POPC   C4A61254  21.328   0.216   7.441
 4694POPC   C1B61255  21.704   0.430   6.193
 4694POPC   C2B61256  21.651   0.657   6.610
 4694POPC   C3B61257  21.610   0.630   7.085
 4694POPC   C4B61258  21.765   0.501   7.521
 4695POPC   NC361259  11.328  12.442   5.462
 4695POPC   PO461260  11.259  13.114   5.388
 4695POPC   GL161261  11.483  13.032   5.760
 4695POPC   GL261262  11.372  12.713   5.879
 4695POPC   C1A61263  11.373  13.107   6.197
 4695POPC   D2A61264  11.113  13.012   6.585
 4695POPC   C3A61265  11.360  12.990   6.926
 4695POPC   C4A61266  11.403  12.637   7.141
 4695POPC   C1B61267  11.134  12.661   6.237
 4695POPC   C2B61268  10.831  12.574   6.519
 4695POPC   C3B61269  10.922  12.604   6.938
 4695POPC   C4B61270  11.051  12.286   7.251
 4696POPC   NC361271  32.515  40.976   5.385
 4696POPC   PO461272  33.106  40.672   5.307
 4696POPC   GL161273  32.924  40.837   5.705
 4696POPC   GL261274  32.705  41.123   5.840
 4696POPC   C1A61275  32.940  40.809   6.154
 4696POPC   D2A61276  33.134  41.050   6.458
 4696POPC   C3A61277  33.069  40.935   6.862
 4696POPC   C4A61278  33.302  40.997   7.224
 4696POPC   C1B61279  32.540  41.195   6.241
 4696POPC   C2B61280  32.591  40.971   6.620
 4696POPC   C3B61281  32.576  41.000   7.040
 4696POPC   C4B61282  32.856  41.252   7.206
 4697POPC   NC361283  23.064  11.730   5.563
 4697POPC   PO461284  23.141  12.418   5.426
 4697POPC   GL161285  22.925  12.213   5.806
 4697POPC   GL261286  22.581  12.014   5.793
 4697POPC   C1A61287  22.880  12.064   6.256
 4697POPC   D2A61288  23.018  11.831   6.638
 4697POPC   C3A61289  23.021  11.946   7.075
 4697POPC   C4A61290  23.054  12.059   7.516
 4697POPC   C1B61291  22.463  11.734   6.155
 4697POPC   C2B61292  22.503  11.854   6.579
 4697POPC   C3B61293  22.506  11.856   7.003
 4697POPC   C4B61294  22.643  11.697   7.376
 4698POPC   NC361295  29.975  13.926   5.428
 4698POPC   PO461296  29.690  13.390   5.214
 4698POPC   GL161297  29.685  13.587   5.677
 4698POPC   GL261298  29.502  13.901   5.729
 4698POPC   C1A61299  29.877  13.829   6.087
 4698POPC   D2A61300  29.883  13.711   6.534
 4698POPC   C3A61301  30.109  13.827   6.907
 4698POPC   C4A61302  30.164  13.822   7.359
 4698POPC   C1B61303  29.392  14.078   6.139
 4698POPC   C2B61304  29.536  14.131   6.558
 4698POPC   C3B61305  29.560  13.859   6.918
 4698POPC   C4B61306  29.658  13.987   7.319
 4699POPC   NC361307  11.010   3.078   5.492
 4699POPC   PO461308  11.475   2.619   5.237
 4699POPC   GL161309  11.363   2.661   5.670
 4699POPC   GL261310  11.023   2.640   5.761
 4699POPC   C1A61311  11.440   2.726   6.107
 4699POPC   D2A61312  11.286   2.627   6.498
 4699POPC   C3A61313  11.177   2.906   6.801
 4699POPC   C4A61314  11.398   2.782   7.175
 4699POPC   C1B61315  10.877   2.541   6.183
 4699POPC   C2B61316  10.912   2.302   6.577
 4699POPC   C3B61317  11.055   2.431   6.995
 4699POPC   C4B61318  11.019   2.530   7.484
 4700POPC   NC361319  23.527  44.979   5.439
 4700POPC   PO461320  23.413   0.563   5.400
 4700POPC   GL161321  23.686   0.325   5.809
 4700POPC   GL261322  23.763  44.942   5.898
 4700POPC   C1A61323  23.892   0.257   6.280
 4700POPC   D2A61324  23.855   0.161   6.747
 4700POPC   C3A61325  23.885   0.422   7.118
 4700POPC   C4A61326  23.636   0.647   7.417
 4700POPC   C1B61327  23.408   0.134   6.200
 4700POPC   C2B61328  23.368   0.254   6.673
 4700POPC   C3B61329  23.426   0.185   7.151
 4700POPC   C4B61330  23.499   0.203   7.636
 4701POPC   NC361331  38.354  39.923   5.363
 4701POPC   PO461332  37.703  40.012   5.373
 4701POPC   GL161333  37.466  40.193   5.717
 4701POPC   GL261334  37.726  39.986   5.910
 4701POPC   C1A61335  37.508  40.398   6.125
 4701POPC   D2A61336  37.677  40.143   6.449
 4701POPC   C3A61337  37.589  40.231   6.870
 4701POPC   C4A61338  37.286  40.250   7.200
 4701POPC   C1B61339  37.844  39.614   6.150
 4701POPC   C2B61340  37.878  39.478   6.556
 4701POPC   C3B61341  37.766  39.720   6.885
 4701POPC   C4B61342  37.628  39.905   7.269
 4702POPC   NC361343  42.698  35.150   4.955
 4702POPC   PO461344  42.249  35.614   5.242
 4702POPC   GL161345  42.171  35.594   5.695
 4702POPC   GL261346  42.254  35.285   5.826
 4702POPC   C1A61347  42.451  35.671   6.107
 4702POPC   D2A61348  42.707  35.554   6.463
 4702POPC   C3A61349  42.529  35.624   6.864
 4702POPC   C4A61350  42.440  35.325   7.184
 4702POPC   C1B61351  42.441  35.174   6.194
 4702POPC   C2B61352  42.247  35.313   6.580
 4702POPC   C3B61353  41.987  35.378   6.955
 4702POPC   C4B61354  41.991  35.115   7.340
 4703POPC   NC361355  43.260  37.570   5.270
 4703POPC   PO461356  42.717  37.893   5.481
 4703POPC   GL161357  43.003  37.739   5.766
 4703POPC   GL261358  43.014  37.391   5.754
 4703POPC   C1A61359  43.108  37.620   6.198
 4703POPC   D2A61360  43.173  37.799   6.582
 4703POPC   C3A61361  43.085  37.516   6.894
 4703POPC   C4A61362  43.024  37.699   7.275
 4703POPC   C1B61363  43.416  37.263   5.966
 4703POPC   C2B61364  43.491  37.274   6.418
 4703POPC   C3B61365  43.488  37.149   6.852
 4703POPC   C4B61366  43.453  37.374   7.225
 4704POPC   NC361367  30.572  43.483   5.608
 4704POPC   PO461368  30.299  44.108   5.355
 4704POPC   GL161369  30.537  44.220   5.811
 4704POPC   GL261370  30.825  43.930   5.783
 4704POPC   C1A61371  30.707  44.070   6.275
 4704POPC   D2A61372  30.532  43.717   6.558
 4704POPC   C3A61373  30.471  43.905   7.004
 4704POPC   C4A61374  30.558  44.260   7.318
 4704POPC   C1B61375  30.952  43.622   6.092
 4704POPC   C2B61376  31.045  43.625   6.498
 4704POPC   C3B61377  30.891  43.606   6.890
 4704POPC   C4B61378  30.907  43.846   7.254
 4705POPC   NC361379  41.016  37.237   5.447
 4705POPC   PO461380  40.612  36.638   5.466
 4705POPC   GL161381  40.551  36.799   5.867
 4705POPC   GL261382  40.909  36.851   5.872
 4705POPC   C1A61383  40.397  36.790   6.297
 4705POPC   D2A61384  40.615  36.723   6.665
 4705POPC   C3A61385  40.592  37.039   6.936
 4705POPC   C4A61386  40.511  36.777   7.264
 4705POPC   C1B61387  40.842  37.017   6.280
 4705POPC   C2B61388  41.065  37.033   6.636
 4705POPC   C3B61389  41.127  36.873   7.027
 4705POPC   C4B61390  40.994  36.894   7.428
 4706POPC   NC361391   8.105  19.907   5.333
 4706POPC   PO461392   8.530  19.425   5.361
 4706POPC   GL161393   8.268  19.566   5.729
 4706POPC   GL261394   8.304  19.943   5.785
 4706POPC   C1A61395   8.250  19.637   6.194
 4706POPC   D2A61396   8.008  19.819   6.519
 4706POPC   C3A61397   8.163  19.659   6.921
 4706POPC   C4A61398   7.864  19.796   7.213
 4706POPC   C1B61399   8.145  20.138   6.123
 4706POPC   C2B61400   8.196  20.324   6.506
 4706POPC   C3B61401   8.124  20.152   6.900
 4706POPC   C4B61402   8.237  20.146   7.304
 4707POPC   NC361403   9.172  42.257   5.420
 4707POPC   PO461404   8.516  42.263   5.365
 4707POPC   GL161405   8.791  42.469   5.738
 4707POPC   GL261406   9.163  42.423   5.891
 4707POPC   C1A61407   8.801  42.631   6.183
 4707POPC   D2A61408   9.011  42.599   6.587
 4707POPC   C3A61409   8.772  42.718   6.955
 4707POPC   C4A61410   8.798  42.541   7.346
 4707POPC   C1B61411   8.985  42.161   6.213
 4707POPC   C2B61412   9.096  42.059   6.639
 4707POPC   C3B61413   8.945  42.147   7.066
 4707POPC   C4B61414   9.080  42.181   7.531
 4708POPC   NC361415   2.040   0.088   5.068
 4708POPC   PO461416   1.882  44.604   5.507
 4708POPC   GL161417   2.127  44.748   5.874
 4708POPC   GL261418   1.817  44.721   6.013
 4708POPC   C1A61419   2.205  44.768   6.330
 4708POPC   D2A61420   1.871  44.545   6.550
 4708POPC   C3A61421   1.996  44.487   6.956
 4708POPC   C4A61422   1.853  44.585   7.343
 4708POPC   C1B61423   1.788   0.112   6.217
 4708POPC   C2B61424   1.848   0.039   6.599
 4708POPC   C3B61425   1.655  44.896   6.972
 4708POPC   C4B61426   1.773   0.073   7.405
 4709POPC   NC361427  42.055  29.207   5.361
 4709POPC   PO461428  42.713  28.973   5.296
 4709POPC   GL161429  42.455  29.062   5.696
 4709POPC   GL261430  42.136  28.943   5.798
 4709POPC   C1A61431  42.406  29.165   6.171
 4709POPC   D2A61432  42.474  29.290   6.626
 4709POPC   C3A61433  42.326  29.191   7.044
 4709POPC   C4A61434  42.424  29.386   7.463
 4709POPC   C1B61435  41.952  28.939   6.215
 4709POPC   C2B61436  42.035  28.878   6.647
 4709POPC   C3B61437  41.895  28.872   7.067
 4709POPC   C4B61438  42.019  29.084   7.472
 4710POPC   NC361439  23.404  31.774   5.401
 4710POPC   PO461440  23.952  31.466   5.476
 4710POPC   GL161441  23.803  31.383   5.850
 4710POPC   GL261442  23.466  31.460   5.820
 4710POPC   C1A61443  23.748  31.559   6.263
 4710POPC   D2A61444  23.615  31.722   6.645
 4710POPC   C3A61445  23.760  31.420   6.947
 4710POPC   C4A61446  24.053  31.184   7.142
 4710POPC   C1B61447  23.271  31.694   6.157
 4710POPC   C2B61448  23.164  31.490   6.539
 4710POPC   C3B61449  23.265  31.480   6.968
 4710POPC   C4B61450  23.427  31.103   7.186
 4711POPC   NC361451   2.579  23.269   5.385
 4711POPC   PO461452   2.558  23.852   5.627
 4711POPC   GL161453   2.804  23.777   5.915
 4711POPC   GL261454   3.102  23.981   5.850
 4711POPC   C1A61455   2.615  23.672   6.291
 4711POPC   D2A61456   2.675  23.598   6.691
 4711POPC   C3A61457   2.481  23.830   6.967
 4711POPC   C4A61458   2.662  23.535   7.253
 4711POPC   C1B61459   3.079  23.901   6.326
 4711POPC   C2B61460   3.071  23.913   6.775
 4711POPC   C3B61461   2.920  24.107   7.166
 4711POPC   C4B61462   2.942  24.317   7.570
 4712POPC   NC361463  12.698  16.309   5.181
 4712POPC   PO461464  13.100  16.959   5.387
 4712POPC   GL161465  13.186  16.924   5.789
 4712POPC   GL261466  13.091  16.579   5.855
 4712POPC   C1A61467  12.985  17.090   6.122
 4712POPC   D2A61468  13.078  17.032   6.544
 4712POPC   C3A61469  12.838  17.202   6.864
 4712POPC   C4A61470  12.910  16.966   7.236
 4712POPC   C1B61471  12.694  16.651   6.104
 4712POPC   C2B61472  12.557  16.824   6.517
 4712POPC   C3B61473  12.626  16.662   6.933
 4712POPC   C4B61474  12.771  16.382   7.262
 4713POPC   NC361475   2.773  29.862   5.270
 4713POPC   PO461476   3.208  30.336   5.393
 4713POPC   GL161477   2.814  30.191   5.664
 4713POPC   GL261478   2.789  29.813   5.766
 4713POPC   C1A61479   2.806  30.162   6.126
 4713POPC   D2A61480   2.923  30.310   6.537
 4713POPC   C3A61481   2.681  30.071   6.819
 4713POPC   C4A61482   2.708  29.964   7.236
 4713POPC   C1B61483   2.764  29.558   6.128
 4713POPC   C2B61484   2.881  29.620   6.543
 4713POPC   C3B61485   2.677  29.560   6.937
 4713POPC   C4B61486   2.649  29.429   7.373
 4714POPC   NC361487   1.125   8.104   5.556
 4714POPC   PO461488   1.420   8.468   4.999
 4714POPC   GL161489   1.310   8.658   5.517
 4714POPC   GL261490   1.015   8.548   5.759
 4714POPC   C1A61491   1.409   8.649   6.046
 4714POPC   D2A61492   1.498   8.327   6.411
 4714POPC   C3A61493   1.368   8.402   6.875
 4714POPC   C4A61494   1.225   8.503   7.306
 4714POPC   C1B61495   1.011   8.356   6.217
 4714POPC   C2B61496   1.001   8.133   6.648
 4714POPC   C3B61497   1.174   7.952   7.062
 4714POPC   C4B61498   1.066   8.058   7.521
 4715POPC   NC361499  21.839  10.328   5.529
 4715POPC   PO461500  21.926  10.993   5.416
 4715POPC   GL161501  21.608  10.768   5.703
 4715POPC   GL261502  21.383  10.415   5.718
 4715POPC   C1A61503  21.434  10.686   6.139
 4715POPC   D2A61504  21.237  10.555   6.513
 4715POPC   C3A61505  21.483  10.513   6.896
 4715POPC   C4A61506  21.584  10.467   7.345
 4715POPC   C1B61507  21.071  10.335   6.059
 4715POPC   C2B61508  21.002  10.070   6.429
 4715POPC   C3B61509  21.031  10.268   6.879
 4715POPC   C4B61510  21.121  10.272   7.346
 4716POPC   NC361511   6.821  25.476   5.543
 4716POPC   PO461512   6.552  26.125   5.393
 4716POPC   GL161513   6.789  25.999   5.756
 4716POPC   GL261514   6.563  25.745   5.884
 4716POPC   C1A61515   6.854  26.101   6.204
 4716POPC   D2A61516   6.613  26.126   6.579
 4716POPC   C3A61517   6.710  26.034   7.014
 4716POPC   C4A61518   6.547  26.257   7.352
 4716POPC   C1B61519   6.855  25.615   6.201
 4716POPC   C2B61520   6.818  25.652   6.662
 4716POPC   C3B61521   6.763  25.516   7.096
 4716POPC   C4B61522   6.633  25.463   7.523
 4717POPC   NC361523  25.616  36.233   5.372
 4717POPC   PO461524  24.952  36.465   5.310
 4717POPC   GL161525  25.177  36.229   5.660
 4717POPC   GL261526  24.975  35.947   5.814
 4717POPC   C1A61527  25.411  36.132   6.075
 4717POPC   D2A61528  25.207  36.281   6.494
 4717POPC   C3A61529  25.326  36.184   6.919
 4717POPC   C4A61530  25.379  36.142   7.327
 4717POPC   C1B61531  25.016  35.854   6.258
 4717POPC   C2B61532  25.080  35.798   6.695
 4717POPC   C3B61533  25.262  35.690   7.105
 4717POPC   C4B61534  25.100  35.789   7.578
 4718POPC   NC361535  20.623  23.473   5.336
 4718POPC   PO461536  20.234  23.982   5.575
 4718POPC   GL161537  20.552  23.716   5.788
 4718POPC   GL261538  20.395  23.375   5.758
 4718POPC   C1A61539  20.776  23.761   6.214
 4718POPC   D2A61540  20.487  23.780   6.582
 4718POPC   C3A61541  20.595  23.708   7.014
 4718POPC   C4A61542  20.522  23.989   7.344
 4718POPC   C1B61543  20.622  23.300   6.106
 4718POPC   C2B61544  20.685  23.294   6.545
 4718POPC   C3B61545  20.368  23.290   6.823
 4718POPC   C4B61546  20.332  23.284   7.246
 4719POPC   NC361547  32.696   0.285   5.334
 4719POPC   PO461548  32.050   0.362   5.405
 4719POPC   GL161549  32.233   0.415   5.803
 4719POPC   GL261550  32.443   0.733   5.788
 4719POPC   C1A61551  32.043   0.264   6.200
 4719POPC   D2A61552  31.730   0.215   6.535
 4719POPC   C3A61553  31.967   0.206   6.886
 4719POPC   C4A61554  32.270   0.434   7.092
 4719POPC   C1B61555  32.204   0.743   6.218
 4719POPC   C2B61556  31.997   0.671   6.645
 4719POPC   C3B61557  31.919   0.797   7.080
 4719POPC   C4B61558  31.987   1.063   7.451
 4720POPC   NC361559  23.021  14.789   5.640
 4720POPC   PO461560  23.096  14.211   5.396
 4720POPC   GL161561  23.039  14.149   5.823
 4720POPC   GL261562  23.325  14.339   5.913
 4720POPC   C1A61563  22.824  14.321   6.204
 4720POPC   D2A61564  22.814  14.703   6.508
 4720POPC   C3A61565  22.964  14.633   6.932
 4720POPC   C4A61566  22.733  14.345   7.203
 4720POPC   C1B61567  23.264  14.086   6.315
 4720POPC   C2B61568  23.282  14.233   6.760
 4720POPC   C3B61569  23.213  14.199   7.211
 4720POPC   C4B61570  23.362  14.207   7.639
 4721POPC   NC361571   1.191  37.213   5.087
 4721POPC   PO461572   1.526  36.716   5.455
 4721POPC   GL161573   1.263  36.887   5.743
 4721POPC   GL261574   1.140  37.214   5.717
 4721POPC   C1A61575   1.361  36.935   6.172
 4721POPC   D2A61576   1.618  36.946   6.546
 4721POPC   C3A61577   1.388  36.926   6.923
 4721POPC   C4A61578   1.454  36.772   7.324
 4721POPC   C1B61579   0.850  37.044   6.036
 4721POPC   C2B61580   0.787  36.990   6.479
 4721POPC   C3B61581   0.881  37.154   6.883
 4721POPC   C4B61582   0.997  36.988   7.263
 4722POPC   NC361583  29.445  11.125   5.609
 4722POPC   PO461584  28.996  11.490   5.193
 4722POPC   GL161585  29.048  11.446   5.607
 4722POPC   GL261586  28.932  11.121   5.670
 4722POPC   C1A61587  29.148  11.459   6.061
 4722POPC   D2A61588  29.371  11.184   6.344
 4722POPC   C3A61589  29.366  11.319   6.764
 4722POPC   C4A61590  29.371  11.201   7.188
 4722POPC   C1B61591  28.982  10.927   6.070
 4722POPC   C2B61592  28.886  10.863   6.488
 4722POPC   C3B61593  29.132  10.854   6.850
 4722POPC   C4B61594  29.001  10.857   7.242
 4723POPC   NC361595   0.542  41.046   5.355
 4723POPC   PO461596   0.256  40.408   5.512
 4723POPC   GL161597   0.402  40.721   5.773
 4723POPC   GL261598   0.190  41.020   5.761
 4723POPC   C1A61599   0.468  40.869   6.192
 4723POPC   D2A61600   0.220  40.904   6.549
 4723POPC   C3A61601   0.395  40.752   6.903
 4723POPC   C4A61602   0.181  40.847   7.225
 4723POPC   C1B61603   0.387  41.352   6.032
 4723POPC   C2B61604   0.382  41.398   6.476
 4723POPC   C3B61605   0.337  41.252   6.916
 4723POPC   C4B61606   0.613  41.155   7.292
 4724POPC   NC361607   2.440  12.232   5.353
 4724POPC   PO461608   1.797  11.917   5.314
 4724POPC   GL161609   1.887  12.041   5.742
 4724POPC   GL261610   2.231  12.192   5.846
 4724POPC   C1A61611   1.736  11.944   6.155
 4724POPC   D2A61612   1.933  11.840   6.548
 4724POPC   C3A61613   1.796  12.021   6.911
 4724POPC   C4A61614   1.721  11.937   7.317
 4724POPC   C1B61615   2.355  12.023   6.247
 4724POPC   C2B61616   2.404  12.089   6.695
 4724POPC   C3B61617   2.292  12.138   7.131
 4724POPC   C4B61618   2.291  12.271   7.550
 4725POPC   NC361619  12.917  31.097   5.304
 4725POPC   PO461620  12.768  30.430   5.178
 4725POPC   GL161621  12.870  30.655   5.602
 4725POPC   GL261622  12.702  30.982   5.745
 4725POPC   C1A61623  13.037  30.721   6.054
 4725POPC   D2A61624  13.212  30.588   6.482
 4725POPC   C3A61625  12.892  30.665   6.784
 4725POPC   C4A61626  12.811  30.560   7.189
 4725POPC   C1B61627  12.501  31.135   6.136
 4725POPC   C2B61628  12.519  30.982   6.573
 4725POPC   C3B61629  12.411  31.064   7.008
 4725POPC   C4B61630  12.444  30.822   7.417
 4726POPC   NC361631  26.424  35.649   5.447
 4726POPC   PO461632  26.037  35.086   5.466
 4726POPC   GL161633  25.955  35.354   5.843
 4726POPC   GL261634  26.144  35.677   5.876
 4726POPC   C1A61635  25.813  35.468   6.254
 4726POPC   D2A61636  25.996  35.356   6.662
 4726POPC   C3A61637  25.796  35.513   7.066
 4726POPC   C4A61638  25.927  35.329   7.489
 4726POPC   C1B61639  26.319  35.463   6.229
 4726POPC   C2B61640  26.486  35.543   6.629
 4726POPC   C3B61641  26.303  35.481   7.043
 4726POPC   C4B61642  26.144  35.774   7.357
 4727POPC   NC361643   8.341  17.298   5.422
 4727POPC   PO461644   8.024  17.907   5.454
 4727POPC   GL161645   8.188  17.750   5.857
 4727POPC   GL261646   8.477  17.549   5.864
 4727POPC   C1A61647   8.327  17.722   6.315
 4727POPC   D2A61648   8.310  17.729   6.781
 4727POPC   C3A61649   8.070  17.397   6.984
 4727POPC   C4A61650   7.943  17.516   7.396
 4727POPC   C1B61651   8.545  17.224   6.146
 4727POPC   C2B61652   8.431  17.252   6.545
 4727POPC   C3B61653   8.577  17.294   6.917
 4727POPC   C4B61654   8.484  17.525   7.249
 4728POPC   NC361655  16.282  30.086   5.682
 4728POPC   PO461656  16.744  29.725   5.432
 4728POPC   GL161657  16.917  29.848   5.829
 4728POPC   GL261658  17.206  30.063   5.832
 4728POPC   C1A61659  16.820  30.031   6.240
 4728POPC   D2A61660  16.613  30.194   6.657
 4728POPC   C3A61661  16.592  29.944   7.053
 4728POPC   C4A61662  16.540  29.485   7.103
 4728POPC   C1B61663  17.275  30.256   6.202
 4728POPC   C2B61664  17.124  30.307   6.576
 4728POPC   C3B61665  17.319  30.304   6.927
 4728POPC   C4B61666  17.092  30.052   7.184
 4729POPC   NC361667  11.867  15.570   5.419
 4729POPC   PO461668  12.270  15.035   5.437
 4729POPC   GL161669  12.149  15.262   5.776
 4729POPC   GL261670  12.394  15.093   5.975
 4729POPC   C1A61671  11.998  15.400   6.207
 4729POPC   D2A61672  11.663  15.524   6.503
 4729POPC   C3A61673  11.760  15.582   6.902
 4729POPC   C4A61674  11.981  15.390   7.210
 4729POPC   C1B61675  11.965  14.903   6.105
 4729POPC   C2B61676  11.793  15.015   6.510
 4729POPC   C3B61677  12.083  15.028   6.872
 4729POPC   C4B61678  11.977  14.901   7.335
 4730POPC   NC361679   6.422   8.908   5.420
 4730POPC   PO461680   6.926   8.504   5.585
 4730POPC   GL161681   6.652   8.766   5.855
 4730POPC   GL261682   6.615   9.161   5.828
 4730POPC   C1A61683   6.598   8.868   6.284
 4730POPC   D2A61684   6.688   9.133   6.647
 4730POPC   C3A61685   6.577   8.912   7.034
 4730POPC   C4A61686   6.514   8.481   7.190
 4730POPC   C1B61687   6.393   9.494   6.073
 4730POPC   C2B61688   6.238   9.455   6.496
 4730POPC   C3B61689   6.326   9.395   6.910
 4730POPC   C4B61690   6.381   9.279   7.327
 4731POPC   NC361691  31.847  24.639   5.277
 4731POPC   PO461692  31.221  24.909   5.291
 4731POPC   GL161693  31.253  24.734   5.691
 4731POPC   GL261694  31.619  24.723   5.774
 4731POPC   C1A61695  31.157  24.681   6.126
 4731POPC   D2A61696  31.007  24.388   6.421
 4731POPC   C3A61697  31.122  24.465   6.844
 4731POPC   C4A61698  31.266  24.601   7.237
 4731POPC   C1B61699  31.667  24.441   6.157
 4731POPC   C2B61700  31.585  24.488   6.604
 4731POPC   C3B61701  31.641  24.329   7.017
 4731POPC   C4B61702  31.718  24.459   7.435
 4732POPC   NC361703  19.567  36.639   5.504
 4732POPC   PO461704  20.180  36.963   5.519
 4732POPC   GL161705  19.974  36.780   5.835
 4732POPC   GL261706  19.986  36.437   5.750
 4732POPC   C1A61707  19.829  36.922   6.242
 4732POPC   D2A61708  19.890  37.255   6.530
 4732POPC   C3A61709  19.790  37.157   6.943
 4732POPC   C4A61710  20.013  37.013   7.306
 4732POPC   C1B61711  19.930  36.410   6.195
 4732POPC   C2B61712  19.716  36.462   6.609
 4732POPC   C3B61713  19.745  36.668   7.014
 4732POPC   C4B61714  19.729  36.628   7.473
 4733POPC   NC361715  23.459  16.162   5.406
 4733POPC   PO461716  24.032  15.739   5.426
 4733POPC   GL161717  24.017  15.939   5.824
 4733POPC   GL261718  23.688  16.028   5.828
 4733POPC   C1A61719  23.946  16.066   6.265
 4733POPC   D2A61720  24.135  15.929   6.632
 4733POPC   C3A61721  23.879  16.050   6.968
 4733POPC   C4A61722  23.945  15.934   7.361
 4733POPC   C1B61723  23.474  16.218   6.156
 4733POPC   C2B61724  23.503  16.024   6.567
 4733POPC   C3B61725  23.335  15.952   7.005
 4733POPC   C4B61726  23.451  15.931   7.456
 4734POPC   NC361727  44.691  43.410   5.259
 4734POPC   PO461728  44.750  44.068   5.314
 4734POPC   GL161729  44.553  43.809   5.623
 4734POPC   GL261730  44.329  44.001   5.859
 4734POPC   C1A61731  44.668  43.635   6.012
 4734POPC   D2A61732  44.656  43.549   6.478
 4734POPC   C3A61733  44.709  43.783   6.865
 4734POPC   C4A61734  44.809  43.628   7.275
 4734POPC   C1B61735  44.553  44.055   6.270
 4734POPC   C2B61736  44.339  44.056   6.646
 4734POPC   C3B61737  44.072  44.085   6.998
 4734POPC   C4B61738  44.176  44.045   7.437
 4735POPC   NC361739   2.434  20.861   5.426
 4735POPC   PO461740   3.016  20.507   5.426
 4735POPC   GL161741   2.949  20.695   5.823
 4735POPC   GL261742   2.573  20.693   5.885
 4735POPC   C1A61743   2.981  20.602   6.260
 4735POPC   D2A61744   2.742  20.481   6.605
 4735POPC   C3A61745   2.956  20.592   7.001
 4735POPC   C4A61746   2.855  20.462   7.423
 4735POPC   C1B61747   2.606  20.968   6.215
 4735POPC   C2B61748   2.782  20.982   6.603
 4735POPC   C3B61749   2.591  20.949   6.995
 4735POPC   C4B61750   2.797  20.975   7.366
 4736POPC   NC361751  44.865  11.667   5.428
 4736POPC   PO461752  44.434  11.249   5.403
 4736POPC   GL161753  44.676  11.306   5.797
 4736POPC   GL261754   0.003  11.473   5.900
 4736POPC   C1A61755  44.647  11.172   6.219
 4736POPC   D2A61756  44.723  11.463   6.567
 4736POPC   C3A61757  44.615  11.295   6.970
 4736POPC   C4A61758  44.591  11.337   7.437
 4736POPC   C1B61759   0.130  11.284   6.303
 4736POPC   C2B61760   0.085  11.158   6.745
 4736POPC   C3B61761   0.039  11.113   7.202
 4736POPC   C4B61762   0.053  11.236   7.626
 4737POPC   NC361763  15.463  40.255   5.358
 4737POPC   PO461764  16.115  39.938   5.373
 4737POPC   GL161765  16.063  40.173   5.746
 4737POPC   GL261766  15.754  40.010   5.780
 4737POPC   C1A61767  15.907  40.343   6.143
 4737POPC   D2A61768  15.659  40.210   6.522
 4737POPC   C3A61769  15.885  40.209   6.944
 4737POPC   C4A61770  16.122  40.173   7.340
 4737POPC   C1B61771  15.824  39.824   6.192
 4737POPC   C2B61772  15.918  39.788   6.624
 4737POPC   C3B61773  16.014  39.730   7.063
 4737POPC   C4B61774  16.077  39.669   7.490
 4738POPC   NC361775  34.955  34.655   5.376
 4738POPC   PO461776  35.556  34.636   5.271
 4738POPC   GL161777  35.431  34.619   5.703
 4738POPC   GL261778  35.684  34.838   5.810
 4738POPC   C1A61779  35.297  34.431   6.111
 4738POPC   D2A61780  35.398  34.279   6.536
 4738POPC   C3A61781  35.150  34.428   6.899
 4738POPC   C4A61782  35.173  34.530   7.350
 4738POPC   C1B61783  35.478  34.898   6.202
 4738POPC   C2B61784  35.570  34.785   6.613
 4738POPC   C3B61785  35.451  34.823   7.029
 4738POPC   C4B61786  35.319  35.062   7.348
 4739POPC   NC361787  18.940  34.216   5.537
 4739POPC   PO461788  19.034  34.712   5.072
 4739POPC   GL161789  19.150  34.787   5.586
 4739POPC   GL261790  19.204  34.525   5.826
 4739POPC   C1A61791  19.164  34.934   6.090
 4739POPC   D2A61792  19.099  34.711   6.503
 4739POPC   C3A61793  19.143  34.881   6.921
 4739POPC   C4A61794  19.034  34.682   7.325
 4739POPC   C1B61795  19.309  34.215   6.151
 4739POPC   C2B61796  19.285  34.228   6.581
 4739POPC   C3B61797  19.068  34.361   6.925
 4739POPC   C4B61798  19.243  34.213   7.304
 4740POPC   NC361799  11.612  43.330   5.190
 4740POPC   PO461800  11.139  43.843   5.326
 4740POPC   GL161801  11.110  44.014   5.721
 4740POPC   GL261802  11.318  43.763   5.821
 4740POPC   C1A61803  11.026  43.974   6.163
 4740POPC   D2A61804  11.242  43.992   6.548
 4740POPC   C3A61805  11.056  44.129   6.878
 4740POPC   C4A61806  11.120  44.019   7.295
 4740POPC   C1B61807  11.428  43.650   6.226
 4740POPC   C2B61808  11.320  43.493   6.598
 4740POPC   C3B61809  11.167  43.604   6.985
 4740POPC   C4B61810  11.400  43.523   7.311
 4741POPC   NC361811  32.568  27.458   5.436
 4741POPC   PO461812  31.921  27.493   5.487
 4741POPC   GL161813  32.209  27.549   5.812
 4741POPC   GL261814  32.329  27.895   5.786
 4741POPC   C1A61815  32.316  27.666   6.241
 4741POPC   D2A61816  32.247  27.717   6.672
 4741POPC   C3A61817  32.590  27.606   6.918
 4741POPC   C4A61818  32.478  27.270   7.169
 4741POPC   C1B61819  31.906  27.898   6.044
 4741POPC   C2B61820  31.777  27.945   6.478
 4741POPC   C3B61821  31.779  27.781   6.884
 4741POPC   C4B61822  32.099  27.611   7.185
 4742POPC   NC361823  29.030  40.630   5.296
 4742POPC   PO461824  29.473  40.209   5.408
 4742POPC   GL161825  29.284  40.447   5.769
 4742POPC   GL261826  29.278  40.818   5.792
 4742POPC   C1A61827  29.179  40.557   6.230
 4742POPC   D2A61828  29.295  40.775   6.638
 4742POPC   C3A61829  29.275  40.606   7.067
 4742POPC   C4A61830  29.451  40.666   7.489
 4742POPC   C1B61831  29.506  40.973   6.205
 4742POPC   C2B61832  29.541  41.222   6.638
 4742POPC   C3B61833  29.513  41.056   7.079
 4742POPC   C4B61834  29.456  41.262   7.479
 4743POPC   NC361835   7.763  43.247   5.446
 4743POPC   PO461836   8.416  43.040   5.287
 4743POPC   GL161837   8.198  43.003   5.698
 4743POPC   GL261838   8.532  42.927   5.823
 4743POPC   C1A61839   7.972  43.141   6.115
 4743POPC   D2A61840   8.150  43.192   6.554
 4743POPC   C3A61841   8.048  43.422   6.943
 4743POPC   C4A61842   7.895  43.261   7.326
 4743POPC   C1B61843   8.319  42.776   6.213
 4743POPC   C2B61844   8.355  42.740   6.665
 4743POPC   C3B61845   8.319  43.006   7.032
 4743POPC   C4B61846   8.567  42.974   7.393
 4744POPC   NC361847  43.838  44.761   5.252
 4744POPC   PO461848  43.761  44.171   5.423
 4744POPC   GL161849  43.969  44.492   5.722
 4744POPC   GL261850  44.051  44.876   5.708
 4744POPC   C1A61851  43.841  44.636   6.134
 4744POPC   D2A61852  43.954  44.422   6.521
 4744POPC   C3A61853  43.759  44.564   6.890
 4744POPC   C4A61854  43.913  44.497   7.301
 4744POPC   C1B61855  44.237  44.969   6.121
 4744POPC   C2B61856  44.078  44.922   6.551
 4744POPC   C3B61857  44.201  44.810   6.964
 4744POPC   C4B61858  44.084  44.968   7.360
 4745POPC   NC361859  37.472  35.138   5.677
 4745POPC   PO461860  37.680  35.569   5.225
 4745POPC   GL161861  37.746  35.590   5.702
 4745POPC   GL261862  37.950  35.301   5.815
 4745POPC   C1A61863  37.724  35.535   6.194
 4745POPC   D2A61864  37.917  35.417   6.595
 4745POPC   C3A61865  37.730  35.581   6.988
 4745POPC   C4A61866  37.454  35.304   7.238
 4745POPC   C1B61867  37.996  34.986   6.164
 4745POPC   C2B61868  37.899  34.887   6.610
 4745POPC   C3B61869  37.877  35.093   7.031
 4745POPC   C4B61870  37.861  34.998   7.498
 4746POPC   NC361871  39.233  36.571   5.525
 4746POPC   PO461872  39.524  37.264   5.467
 4746POPC   GL161873  39.307  37.201   5.870
 4746POPC   GL261874  39.086  36.917   5.871
 4746POPC   C1A61875  39.277  37.094   6.310
 4746POPC   D2A61876  39.408  36.847   6.653
 4746POPC   C3A61877  39.284  37.017   7.027
 4746POPC   C4A61878  39.538  36.868   7.349
 4746POPC   C1B61879  38.805  36.891   6.203
 4746POPC   C2B61880  38.881  36.964   6.634
 4746POPC   C3B61881  38.830  36.785   7.023
 4746POPC   C4B61882  39.018  36.869   7.448
 4747POPC   NC361883  34.245  12.478   5.634
 4747POPC   PO461884  34.653  12.042   5.194
 4747POPC   GL161885  34.696  12.033   5.672
 4747POPC   GL261886  34.452  11.818   5.869
 4747POPC   C1A61887  34.661  12.208   6.121
 4747POPC   D2A61888  34.763  12.213   6.571
 4747POPC   C3A61889  34.574  12.403   6.952
 4747POPC   C4A61890  34.455  12.430   7.404
 4747POPC   C1B61891  34.146  11.930   6.162
 4747POPC   C2B61892  34.165  12.002   6.567
 4747POPC   C3B61893  34.457  11.885   6.846
 4747POPC   C4B61894  34.500  11.969   7.246
 4748POPC   NC361895  41.341  38.350   5.428
 4748POPC   PO461896  40.651  38.500   5.374
 4748POPC   GL161897  40.774  38.338   5.749
 4748POPC   GL261898  40.444  38.370   5.886
 4748POPC   C1A61899  40.894  38.321   6.177
 4748POPC   D2A61900  40.782  38.552   6.545
 4748POPC   C3A61901  40.823  38.335   6.913
 4748POPC   C4A61902  41.055  38.327   7.271
 4748POPC   C1B61903  40.411  38.168   6.306
 4748POPC   C2B61904  40.268  38.246   6.720
 4748POPC   C3B61905  40.328  38.234   7.151
 4748POPC   C4B61906  40.591  38.475   7.411
 4749POPC   NC361907   6.946  38.775   5.396
 4749POPC   PO461908   7.001  38.163   5.177
 4749POPC   GL161909   6.689  38.373   5.606
 4749POPC   GL261910   6.437  38.133   5.774
 4749POPC   C1A61911   6.718  38.339   6.129
 4749POPC   D2A61912   6.948  38.120   6.491
 4749POPC   C3A61913   7.035  38.448   6.808
 4749POPC   C4A61914   7.040  38.442   7.263
 4749POPC   C1B61915   6.159  38.162   6.129
 4749POPC   C2B61916   6.000  38.242   6.568
 4749POPC   C3B61917   6.219  38.253   6.979
 4749POPC   C4B61918   6.523  38.447   7.226
 4750POPC   NC361919  33.410  15.998   5.524
 4750POPC   PO461920  34.020  16.283   5.435
 4750POPC   GL161921  33.862  16.018   5.752
 4750POPC   GL261922  33.847  15.669   5.598
 4750POPC   C1A61923  33.725  16.015   6.198
 4750POPC   D2A61924  33.853  16.115   6.623
 4750POPC   C3A61925  33.751  15.920   7.006
 4750POPC   C4A61926  33.763  16.087   7.460
 4750POPC   C1B61927  34.016  15.604   6.023
 4750POPC   C2B61928  34.138  15.717   6.452
 4750POPC   C3B61929  34.058  15.531   6.852
 4750POPC   C4B61930  34.053  15.650   7.285
 4751POPC   NC361931  34.155  33.174   5.574
 4751POPC   PO461932  34.774  32.899   5.495
 4751POPC   GL161933  34.715  33.025   5.934
 4751POPC   GL261934  34.362  33.142   6.064
 4751POPC   C1A61935  34.718  33.010   6.396
 4751POPC   D2A61936  34.321  33.072   6.622
 4751POPC   C3A61937  34.337  32.866   7.014
 4751POPC   C4A61938  34.718  32.716   7.215
 4751POPC   C1B61939  34.527  33.497   6.349
 4751POPC   C2B61940  34.771  33.499   6.750
 4751POPC   C3B61941  34.679  33.588   7.208
 4751POPC   C4B61942  34.751  33.481   7.643
 4752POPC   NC361943  30.077  44.460   5.565
 4752POPC   PO461944  29.689   0.087   5.543
 4752POPC   GL161945  29.906  44.869   5.900
 4752POPC   GL261946  30.212  44.634   6.006
 4752POPC   C1A61947  29.805  44.718   6.314
 4752POPC   D2A61948  29.907  44.469   6.657
 4752POPC   C3A61949  29.694  44.538   6.975
 4752POPC   C4A61950  29.822  44.944   7.066
 4752POPC   C1B61951  30.269  44.961   6.281
 4752POPC   C2B61952  30.274  44.832   6.695
 4752POPC   C3B61953  30.373  44.444   6.873
 4752POPC   C4B61954  30.147  44.574   7.229
 4753POPC   NC361955  32.819  28.278   5.293
 4753POPC   PO461956  33.042  28.897   5.574
 4753POPC   GL161957  32.942  28.482   5.836
 4753POPC   GL261958  32.830  28.087   5.788
 4753POPC   C1A61959  32.902  28.441   6.300
 4753POPC   D2A61960  32.695  28.797   6.503
 4753POPC   C3A61961  32.760  28.778   6.936
 4753POPC   C4A61962  33.045  28.462   7.044
 4753POPC   C1B61963  32.773  27.946   6.243
 4753POPC   C2B61964  32.812  28.050   6.704
 4753POPC   C3B61965  32.970  27.974   7.144
 4753POPC   C4B61966  32.844  28.158   7.582
 4754POPC   NC361967  30.929  44.978   5.496
 4754POPC   PO461968  30.533   0.621   5.501
 4754POPC   GL161969  30.605   0.315   5.839
 4754POPC   GL261970  30.947   0.339   5.846
 4754POPC   C1A61971  30.719   0.204   6.294
 4754POPC   D2A61972  30.439   0.311   6.644
 4754POPC   C3A61973  30.494   0.209   7.076
 4754POPC   C4A61974  30.511   0.423   7.503
 4754POPC   C1B61975  30.943   0.652   6.173
 4754POPC   C2B61976  30.744   0.721   6.583
 4754POPC   C3B61977  30.608   0.706   7.034
 4754POPC   C4B61978  30.687   0.891   7.458
 4755POPC   NC361979   7.624  25.441   5.382
 4755POPC   PO461980   7.009  25.265   5.163
 4755POPC   GL161981   7.224  25.164   5.628
 4755POPC   GL261982   7.600  25.152   5.785
 4755POPC   C1A61983   7.223  25.276   6.091
 4755POPC   D2A61984   7.265  25.470   6.501
 4755POPC   C3A61985   7.198  25.293   6.915
 4755POPC   C4A61986   7.329  25.218   7.375
 4755POPC   C1B61987   7.677  25.497   6.122
 4755POPC   C2B61988   7.747  25.597   6.580
 4755POPC   C3B61989   7.648  25.527   7.034
 4755POPC   C4B61990   7.851  25.288   7.357
 4756POPC   NC361991  31.059  27.739   5.575
 4756POPC   PO461992  30.412  27.835   5.480
 4756POPC   GL161993  30.617  27.560   5.801
 4756POPC   GL261994  30.469  27.254   5.885
 4756POPC   C1A61995  30.720  27.550   6.252
 4756POPC   D2A61996  30.905  27.503   6.655
 4756POPC   C3A61997  30.792  27.707   7.027
 4756POPC   C4A61998  31.028  27.523   7.383
 4756POPC   C1B61999  30.794  27.073   6.111
 4756POPC   C2B62000  30.536  27.049   6.475
 4756POPC   C3B62001  30.438  27.182   6.879
 4756POPC   C4B62002  30.543  27.336   7.277
 4757POPC   NC362003  19.837  32.672   5.196
 4757POPC   PO462004  20.154  32.014   5.262
 4757POPC   GL162005  19.986  32.317   5.527
 4757POPC   GL262006  19.658  32.238   5.589
 4757POPC   C1A62007  19.969  32.360   5.991
 4757POPC   D2A62008  19.863  32.446   6.412
 4757POPC   C3A62009  19.880  32.132   6.732
 4757POPC   C4A62010  19.888  32.241   7.140
 4757POPC   C1B62011  19.543  32.048   5.991
 4757POPC   C2B62012  19.446  32.114   6.432
 4757POPC   C3B62013  19.377  31.973   6.857
 4757POPC   C4B62014  19.613  31.815   7.195
 4758POPC   NC362015  39.689  27.996   5.270
 4758POPC   PO462016  40.321  28.303   5.230
 4758POPC   GL162017  40.042  28.368   5.625
 4758POPC   GL262018  39.878  28.045   5.738
 4758POPC   C1A62019  40.146  28.503   6.081
 4758POPC   D2A62020  40.070  28.363   6.514
 4758POPC   C3A62021  40.204  28.546   6.910
 4758POPC   C4A62022  39.997  28.440   7.326
 4758POPC   C1B62023  39.940  28.000   6.169
 4758POPC   C2B62024  39.707  28.002   6.561
 4758POPC   C3B62025  39.881  28.105   6.943
 4758POPC   C4B62026  40.007  27.935   7.352
 4759POPC   NC362027  16.112  41.890   5.530
 4759POPC   PO462028  15.642  41.442   5.351
 4759POPC   GL162029  15.766  41.590   5.763
 4759POPC   GL262030  16.096  41.591   5.951
 4759POPC   C1A62031  15.670  41.699   6.182
 4759POPC   D2A62032  15.927  41.621   6.523
 4759POPC   C3A62033  15.745  41.827   6.811
 4759POPC   C4A62034  15.675  41.688   7.184
 4759POPC   C1B62035  16.391  41.703   6.292
 4759POPC   C2B62036  16.414  41.722   6.707
 4759POPC   C3B62037  16.188  41.641   7.056
 4759POPC   C4B62038  16.333  41.385   7.393
 4760POPC   NC362039   3.540  21.927   5.512
 4760POPC   PO462040   3.125  21.356   5.416
 4760POPC   GL162041   3.303  21.550   5.783
 4760POPC   GL262042   3.002  21.672   5.891
 4760POPC   C1A62043   3.574  21.449   6.175
 4760POPC   D2A62044   3.475  21.346   6.634
 4760POPC   C3A62045   3.761  21.323   7.019
 4760POPC   C4A62046   3.713  21.272   7.478
 4760POPC   C1B62047   3.249  21.830   6.241
 4760POPC   C2B62048   3.452  21.873   6.635
 4760POPC   C3B62049   3.328  21.695   7.014
 4760POPC   C4B62050   3.441  21.705   7.462
 4761POPC   NC362051   5.595  35.680   5.254
 4761POPC   PO462052   4.942  35.399   5.315
 4761POPC   GL162053   5.259  35.509   5.665
 4761POPC   GL262054   5.439  35.175   5.685
 4761POPC   C1A62055   5.147  35.569   6.132
 4761POPC   D2A62056   4.853  35.334   6.438
 4761POPC   C3A62057   5.011  35.107   6.806
 4761POPC   C4A62058   4.932  35.201   7.228
 4761POPC   C1B62059   5.380  35.099   6.144
 4761POPC   C2B62060   5.389  35.337   6.536
 4761POPC   C3B62061   5.480  35.314   6.965
 4761POPC   C4B62062   5.420  35.069   7.341
 4762POPC   NC362063  39.199  20.566   5.328
 4762POPC   PO462064  39.157  20.143   5.793
 4762POPC   GL162065  39.356  20.522   5.843
 4762POPC   GL262066  39.062  20.752   5.789
 4762POPC   C1A62067  39.466  20.514   6.267
 4762POPC   D2A62068  39.172  20.359   6.572
 4762POPC   C3A62069  39.417  20.444   6.888
 4762POPC   C4A62070  39.441  20.759   7.134
 4762POPC   C1B62071  39.013  20.752   6.220
 4762POPC   C2B62072  38.812  20.747   6.605
 4762POPC   C3B62073  38.959  20.889   6.957
 4762POPC   C4B62074  38.758  20.812   7.351
 4763POPC   NC362075   4.697  33.632   5.533
 4763POPC   PO462076   5.294  33.898   5.417
 4763POPC   GL162077   5.343  33.764   5.813
 4763POPC   GL262078   5.091  33.574   5.845
 4763POPC   C1A62079   5.173  33.915   6.218
 4763POPC   D2A62080   4.933  33.912   6.589
 4763POPC   C3A62081   5.232  34.065   6.860
 4763POPC   C4A62082   5.289  34.195   7.257
 4763POPC   C1B62083   5.288  33.410   6.223
 4763POPC   C2B62084   5.325  33.574   6.646
 4763POPC   C3B62085   4.994  33.541   6.989
 4763POPC   C4B62086   5.144  33.334   7.375
 4764POPC   NC362087  19.819   0.689   5.362
 4764POPC   PO462088  19.991   0.046   5.358
 4764POPC   GL162089  19.871   0.296   5.739
 4764POPC   GL262090  20.056   0.585   5.802
 4764POPC   C1A62091  19.627   0.374   6.134
 4764POPC   D2A62092  19.754   0.284   6.571
 4764POPC   C3A62093  19.578   0.517   6.912
 4764POPC   C4A62094  19.645   0.629   7.349
 4764POPC   C1B62095  20.119   0.482   6.227
 4764POPC   C2B62096  20.063   0.663   6.654
 4764POPC   C3B62097  20.077   0.497   7.083
 4764POPC   C4B62098  20.414   0.568   7.398
 4765POPC   NC362099   5.114  20.839   5.408
 4765POPC   PO462100   5.250  20.187   5.296
 4765POPC   GL162101   5.232  20.383   5.747
 4765POPC   GL262102   5.012  20.666   5.893
 4765POPC   C1A62103   5.360  20.391   6.198
 4765POPC   D2A62104   5.498  20.689   6.519
 4765POPC   C3A62105   5.210  20.739   6.846
 4765POPC   C4A62106   5.127  20.796   7.258
 4765POPC   C1B62107   4.909  20.649   6.350
 4765POPC   C2B62108   4.670  20.702   6.734
 4765POPC   C3B62109   4.639  20.692   7.160
 4765POPC   C4B62110   4.389  20.648   7.507
 4766POPC   NC362111  32.467  24.953   5.381
 4766POPC   PO462112  32.207  24.354   5.311
 4766POPC   GL162113  32.170  24.663   5.672
 4766POPC   GL262114  32.496  24.696   5.843
 4766POPC   C1A62115  32.042  24.791   6.071
 4766POPC   D2A62116  32.163  24.549   6.427
 4766POPC   C3A62117  32.035  24.633   6.861
 4766POPC   C4A62118  32.138  24.348   7.188
 4766POPC   C1B62119  32.513  24.918   6.263
 4766POPC   C2B62120  32.503  24.842   6.709
 4766POPC   C3B62121  32.474  24.720   7.127
 4766POPC   C4B62122  32.492  24.517   7.516
 4767POPC   NC362123   8.403  18.983   5.277
 4767POPC   PO462124   8.697  18.473   5.618
 4767POPC   GL162125   8.402  18.884   5.771
 4767POPC   GL262126   8.061  19.058   5.675
 4767POPC   C1A62127   8.321  19.121   6.152
 4767POPC   D2A62128   8.357  19.027   6.593
 4767POPC   C3A62129   8.224  19.147   7.002
 4767POPC   C4A62130   8.157  18.872   7.360
 4767POPC   C1B62131   7.873  19.326   6.025
 4767POPC   C2B62132   7.928  19.307   6.513
 4767POPC   C3B62133   7.753  19.364   6.959
 4767POPC   C4B62134   7.910  19.320   7.410
 4768POPC   NC362135  17.264  22.647   5.585
 4768POPC   PO462136  17.585  23.081   5.177
 4768POPC   GL162137  17.495  23.083   5.701
 4768POPC   GL262138  17.694  22.776   5.873
 4768POPC   C1A62139  17.367  22.990   6.179
 4768POPC   D2A62140  17.548  23.032   6.605
 4768POPC   C3A62141  17.268  22.904   6.927
 4768POPC   C4A62142  17.115  23.034   7.305
 4768POPC   C1B62143  17.915  23.037   6.229
 4768POPC   C2B62144  18.037  22.905   6.684
 4768POPC   C3B62145  17.765  22.789   7.061
 4768POPC   C4B62146  17.599  23.014   7.465
 4769POPC   NC362147  15.552  27.950   5.560
 4769POPC   PO462148  15.166  27.456   5.274
 4769POPC   GL162149  15.148  27.603   5.695
 4769POPC   GL262150  14.815  27.625   5.751
 4769POPC   C1A62151  15.227  27.607   6.135
 4769POPC   D2A62152  15.286  27.567   6.580
 4769POPC   C3A62153  15.450  27.727   6.979
 4769POPC   C4A62154  15.203  27.615   7.325
 4769POPC   C1B62155  14.774  27.365   6.138
 4769POPC   C2B62156  14.983  27.140   6.498
 4769POPC   C3B62157  15.110  27.254   6.940
 4769POPC   C4B62158  14.774  27.362   7.193
 4770POPC   NC362159  22.055  28.906   5.173
 4770POPC   PO462160  22.451  29.493   5.222
 4770POPC   GL162161  22.231  29.221   5.610
 4770POPC   GL262162  21.954  28.952   5.676
 4770POPC   C1A62163  22.199  29.245   6.105
 4770POPC   D2A62164  22.288  29.516   6.506
 4770POPC   C3A62165  22.432  29.398   6.933
 4770POPC   C4A62166  22.203  29.171   7.238
 4770POPC   C1B62167  21.745  28.965   6.095
 4770POPC   C2B62168  21.877  29.141   6.503
 4770POPC   C3B62169  21.823  28.998   6.933
 4770POPC   C4B62170  21.726  28.785   7.302
 4771POPC   NC362171  43.913  38.241   5.294
 4771POPC   PO462172  43.983  38.832   5.328
 4771POPC   GL162173  43.916  38.630   5.726
 4771POPC   GL262174  44.192  38.390   5.761
 4771POPC   C1A62175  43.808  38.591   6.164
 4771POPC   D2A62176  43.600  38.420   6.532
 4771POPC   C3A62177  43.808  38.579   6.907
 4771POPC   C4A62178  43.716  38.463   7.326
 4771POPC   C1B62179  44.085  38.149   6.144
 4771POPC   C2B62180  44.083  38.234   6.589
 4771POPC   C3B62181  44.232  38.300   6.999
 4771POPC   C4B62182  44.158  38.131   7.399
 4772POPC   NC362183   4.723  10.726   5.361
 4772POPC   PO462184   5.454  10.561   5.380
 4772POPC   GL162185   5.175  10.506   5.754
 4772POPC   GL262186   4.821  10.558   5.863
 4772POPC   C1A62187   5.217  10.429   6.195
 4772POPC   D2A62188   5.519  10.553   6.524
 4772POPC   C3A62189   5.349  10.459   6.922
 4772POPC   C4A62190   5.035  10.508   7.225
 4772POPC   C1B62191   4.602  10.601   6.288
 4772POPC   C2B62192   4.589  10.563   6.756
 4772POPC   C3B62193   4.550  10.630   7.210
 4772POPC   C4B62194   4.387  10.737   7.627
 4773POPC   NC362195  34.623  14.612   5.300
 4773POPC   PO462196  34.440  13.923   5.477
 4773POPC   GL162197  34.608  14.290   5.706
 4773POPC   GL262198  34.332  14.554   5.738
 4773POPC   C1A62199  34.809  14.571   6.008
 4773POPC   D2A62200  34.867  14.755   6.419
 4773POPC   C3A62201  34.967  14.496   6.791
 4773POPC   C4A62202  34.917  14.477   7.240
 4773POPC   C1B62203  34.361  14.425   6.158
 4773POPC   C2B62204  34.567  14.303   6.516
 4773POPC   C3B62205  34.437  14.473   6.890
 4773POPC   C4B62206  34.401  14.468   7.298
 4774POPC   NC362207  41.226  16.944   5.215
 4774POPC   PO462208  41.746  16.625   5.202
 4774POPC   GL162209  41.572  16.829   5.655
 4774POPC   GL262210  41.627  17.136   5.917
 4774POPC   C1A62211  41.286  16.796   6.069
 4774POPC   D2A62212  41.244  16.757   6.563
 4774POPC   C3A62213  41.326  16.789   7.044
 4774POPC   C4A62214  41.356  17.074   7.411
 4774POPC   C1B62215  41.683  16.933   6.347
 4774POPC   C2B62216  41.600  17.109   6.774
 4774POPC   C3B62217  41.798  17.004   7.164
 4774POPC   C4B62218  41.743  16.580   7.314
 4775POPC   NC362219  16.723  20.026   5.372
 4775POPC   PO462220  16.712  19.362   5.240
 4775POPC   GL162221  16.704  19.646   5.726
 4775POPC   GL262222  16.907  19.985   5.838
 4775POPC   C1A62223  16.545  19.868   6.161
 4775POPC   D2A62224  16.718  20.059   6.616
 4775POPC   C3A62225  16.551  19.892   7.014
 4775POPC   C4A62226  16.280  19.584   7.210
 4775POPC   C1B62227  17.063  19.715   6.172
 4775POPC   C2B62228  17.169  19.802   6.613
 4775POPC   C3B62229  17.065  19.843   7.048
 4775POPC   C4B62230  16.974  19.550   7.412
 4776POPC   NC362231   9.396  29.781   5.520
 4776POPC   PO462232  10.091  29.802   5.484
 4776POPC   GL162233   9.807  29.854   5.845
 4776POPC   GL262234   9.631  30.187   5.732
 4776POPC   C1A62235   9.675  29.741   6.300
 4776POPC   D2A62236   9.585  29.514   6.689
 4776POPC   C3A62237   9.643  29.793   7.034
 4776POPC   C4A62238   9.667  29.692   7.456
 4776POPC   C1B62239   9.708  30.242   6.162
 4776POPC   C2B62240   9.740  30.221   6.607
 4776POPC   C3B62241   9.886  30.264   7.020
 4776POPC   C4B62242   9.778  30.234   7.429
 4777POPC   NC362243  34.997   2.358   5.677
 4777POPC   PO462244  34.448   2.623   5.363
 4777POPC   GL162245  34.504   2.557   5.782
 4777POPC   GL262246  34.438   2.210   5.786
 4777POPC   C1A62247  34.695   2.751   6.147
 4777POPC   D2A62248  34.862   2.641   6.545
 4777POPC   C3A62249  34.737   2.715   6.988
 4777POPC   C4A62250  34.380   2.831   7.250
 4777POPC   C1B62251  34.523   2.278   6.250
 4777POPC   C2B62252  34.466   2.365   6.720
 4777POPC   C3B62253  34.464   2.326   7.188
 4777POPC   C4B62254  34.410   2.263   7.623
 4778POPC   NC362255   4.837   5.462   5.452
 4778POPC   PO462256   4.806   4.749   5.404
 4778POPC   GL162257   4.851   5.054   5.774
 4778POPC   GL262258   5.181   5.161   5.807
 4778POPC   C1A62259   4.854   5.267   6.200
 4778POPC   D2A62260   4.847   5.350   6.654
 4778POPC   C3A62261   5.167   5.487   6.958
 4778POPC   C4A62262   4.842   5.426   7.230
 4778POPC   C1B62263   5.299   4.982   6.218
 4778POPC   C2B62264   5.285   5.075   6.666
 4778POPC   C3B62265   5.116   4.988   7.086
 4778POPC   C4B62266   5.272   4.853   7.483
 4779POPC   NC362267  15.063  12.197   5.322
 4779POPC   PO462268  15.588  12.579   5.479
 4779POPC   GL162269  15.304  12.276   5.761
 4779POPC   GL262270  14.905  12.224   5.799
 4779POPC   C1A62271  15.255  12.074   6.169
 4779POPC   D2A62272  15.513  12.180   6.500
 4779POPC   C3A62273  15.347  12.302   6.868
 4779POPC   C4A62274  15.190  12.068   7.178
 4779POPC   C1B62275  14.826  11.849   6.023
 4779POPC   C2B62276  14.785  11.822   6.459
 4779POPC   C3B62277  14.844  12.065   6.801
 4779POPC   C4B62278  14.666  12.075   7.185
 4780POPC   NC362279  34.950  31.088   5.075
 4780POPC   PO462280  34.432  30.638   5.344
 4780POPC   GL162281  34.575  30.736   5.780
 4780POPC   GL262282  34.830  30.501   5.885
 4780POPC   C1A62283  34.627  30.855   6.241
 4780POPC   D2A62284  34.446  31.014   6.654
 4780POPC   C3A62285  34.718  30.969   7.064
 4780POPC   C4A62286  34.574  30.983   7.527
 4780POPC   C1B62287  34.729  30.365   6.304
 4780POPC   C2B62288  34.820  30.547   6.707
 4780POPC   C3B62289  34.782  30.474   7.138
 4780POPC   C4B62290  34.958  30.668   7.468
 4781POPC   NC362291  39.440  27.567   5.682
 4781POPC   PO462292  40.055  27.580   5.470
 4781POPC   GL162293  39.973  27.532   5.878
 4781POPC   GL262294  39.775  27.229   5.878
 4781POPC   C1A62295  40.252  27.597   6.237
 4781POPC   D2A62296  40.174  27.796   6.635
 4781POPC   C3A62297  40.204  27.598   7.054
 4781POPC   C4A62298  40.234  27.501   7.544
 4781POPC   C1B62299  39.555  27.075   6.221
 4781POPC   C2B62300  39.635  26.927   6.641
 4781POPC   C3B62301  39.551  27.131   7.011
 4781POPC   C4B62302  39.871  27.245   7.244
 4782POPC   NC362303   1.925   9.538   5.397
 4782POPC   PO462304   2.300  10.132   5.223
 4782POPC   GL162305   2.116   9.947   5.675
 4782POPC   GL262306   2.093   9.592   5.888
 4782POPC   C1A62307   2.106  10.046   6.137
 4782POPC   D2A62308   1.893   9.953   6.547
 4782POPC   C3A62309   2.038   9.877   6.979
 4782POPC   C4A62310   1.822   9.766   7.385
 4782POPC   C1B62311   2.287   9.610   6.331
 4782POPC   C2B62312   2.384   9.361   6.720
 4782POPC   C3B62313   2.259   9.427   7.157
 4782POPC   C4B62314   2.257   9.565   7.581
 4783POPC   NC362315  37.311   2.224   5.328
 4783POPC   PO462316  36.636   2.143   5.173
 4783POPC   GL162317  36.826   2.086   5.633
 4783POPC   GL262318  37.092   2.296   5.792
 4783POPC   C1A62319  36.839   1.905   6.103
 4783POPC   D2A62320  36.734   2.004   6.568
 4783POPC   C3A62321  36.812   1.722   6.938
 4783POPC   C4A62322  36.723   1.742   7.382
 4783POPC   C1B62323  36.731   2.396   6.032
 4783POPC   C2B62324  36.620   2.554   6.428
 4783POPC   C3B62325  36.608   2.417   6.867
 4783POPC   C4B62326  36.846   2.180   7.161
 4784POPC   NC362327  39.173  40.345   5.456
 4784POPC   PO462328  39.279  39.717   5.682
 4784POPC   GL162329  39.083  40.097   5.896
 4784POPC   GL262330  39.342  40.392   5.933
 4784POPC   C1A62331  39.014  40.268   6.319
 4784POPC   D2A62332  39.100  40.061   6.728
 4784POPC   C3A62333  38.979  40.221   7.143
 4784POPC   C4A62334  39.044  40.326   7.597
 4784POPC   C1B62335  39.582  40.103   6.211
 4784POPC   C2B62336  39.604  39.919   6.631
 4784POPC   C3B62337  39.508  40.122   7.037
 4784POPC   C4B62338  39.344  39.964   7.438
 4785POPC   NC362339  27.750  17.541   5.393
 4785POPC   PO462340  27.235  17.233   5.211
 4785POPC   GL162341  27.437  17.262   5.683
 4785POPC   GL262342  27.549  17.604   5.843
 4785POPC   C1A62343  27.405  17.270   6.171
 4785POPC   D2A62344  27.601  17.436   6.543
 4785POPC   C3A62345  27.559  17.200   6.912
 4785POPC   C4A62346  27.531  17.093   7.351
 4785POPC   C1B62347  27.851  17.697   6.156
 4785POPC   C2B62348  28.073  17.612   6.547
 4785POPC   C3B62349  27.907  17.602   6.969
 4785POPC   C4B62350  27.896  17.881   7.318
 4786POPC   NC362351   5.105  37.043   5.351
 4786POPC   PO462352   4.755  36.547   5.463
 4786POPC   GL162353   5.076  36.724   5.744
 4786POPC   GL262354   4.906  37.017   5.826
 4786POPC   C1A62355   5.233  36.678   6.170
 4786POPC   D2A62356   5.049  36.704   6.592
 4786POPC   C3A62357   5.334  36.686   6.908
 4786POPC   C4A62358   5.333  36.881   7.273
 4786POPC   C1B62359   4.822  37.006   6.240
 4786POPC   C2B62360   4.870  37.221   6.637
 4786POPC   C3B62361   4.861  36.988   7.023
 4786POPC   C4B62362   4.838  36.820   7.429
 4787POPC   NC362363  18.968  13.023   5.122
 4787POPC   PO462364  19.359  12.651   5.275
 4787POPC   GL162365  19.156  12.898   5.685
 4787POPC   GL262366  18.849  13.135   5.773
 4787POPC   C1A62367  19.067  12.900   6.179
 4787POPC   D2A62368  18.898  12.831   6.633
 4787POPC   C3A62369  19.079  12.683   7.058
 4787POPC   C4A62370  19.020  12.462   7.481
 4787POPC   C1B62371  18.726  13.291   6.242
 4787POPC   C2B62372  18.692  13.279   6.714
 4787POPC   C3B62373  18.773  13.086   7.130
 4787POPC   C4B62374  18.641  13.232   7.568
 4788POPC   NC362375  42.193  16.691   5.173
 4788POPC   PO462376  42.658  16.956   5.381
 4788POPC   GL162377  42.475  16.976   5.889
 4788POPC   GL262378  42.136  17.063   6.114
 4788POPC   C1A62379  42.549  16.956   6.380
 4788POPC   D2A62380  42.417  16.734   6.740
 4788POPC   C3A62381  42.316  16.854   7.156
 4788POPC   C4A62382  42.556  16.740   7.531
 4788POPC   C1B62383  42.112  16.650   6.344
 4788POPC   C2B62384  42.255  16.284   6.624
 4788POPC   C3B62385  42.400  16.351   7.074
 4788POPC   C4B62386  42.182  16.376   7.463
 4789POPC   NC362387  30.503  35.792   5.248
 4789POPC   PO462388  30.734  36.417   5.280
 4789POPC   GL162389  30.779  36.215   5.699
 4789POPC   GL262390  30.525  35.973   5.722
 4789POPC   C1A62391  30.713  36.193   6.164
 4789POPC   D2A62392  30.853  36.018   6.551
 4789POPC   C3A62393  30.752  36.224   6.965
 4789POPC   C4A62394  30.950  35.957   7.280
 4789POPC   C1B62395  30.456  35.755   6.091
 4789POPC   C2B62396  30.474  35.579   6.506
 4789POPC   C3B62397  30.584  35.752   6.900
 4789POPC   C4B62398  30.456  35.922   7.320
 4790POPC   NC362399  17.216  40.411   5.530
 4790POPC   PO462400  17.792  40.126   5.305
 4790POPC   GL162401  17.657  40.203   5.726
 4790POPC   GL262402  17.937  40.144   5.938
 4790POPC   C1A62403  17.386  40.057   6.076
 4790POPC   D2A62404  17.313  39.870   6.488
 4790POPC   C3A62405  17.304  40.096   6.871
 4790POPC   C4A62406  17.365  39.939   7.277
 4790POPC   C1B62407  17.817  39.877   6.289
 4790POPC   C2B62408  17.769  39.882   6.736
 4790POPC   C3B62409  17.797  40.126   7.071
 4790POPC   C4B62410  17.761  40.151   7.519
 4791POPC   NC362411   9.881  19.649   5.509
 4791POPC   PO462412   9.887  20.223   5.126
 4791POPC   GL162413   9.735  20.163   5.614
 4791POPC   GL262414   9.542  19.910   5.763
 4791POPC   C1A62415   9.686  20.257   6.086
 4791POPC   D2A62416   9.547  20.012   6.459
 4791POPC   C3A62417   9.820  19.943   6.828
 4791POPC   C4A62418  10.025  20.097   7.219
 4791POPC   C1B62419   9.664  19.635   6.118
 4791POPC   C2B62420   9.526  19.500   6.520
 4791POPC   C3B62421   9.477  19.555   6.956
 4791POPC   C4B62422   9.645  19.780   7.305
 4792POPC   NC362423  17.445  34.819   5.503
 4792POPC   PO462424  17.421  34.171   5.442
 4792POPC   GL162425  17.665  34.412   5.798
 4792POPC   GL262426  17.864  34.754   5.826
 4792POPC   C1A62427  17.525  34.549   6.231
 4792POPC   D2A62428  17.338  34.380   6.624
 4792POPC   C3A62429  17.246  34.597   7.035
 4792POPC   C4A62430  17.319  34.487   7.460
 4792POPC   C1B62431  18.017  34.627   6.240
 4792POPC   C2B62432  17.921  34.362   6.597
 4792POPC   C3B62433  17.723  34.437   6.979
 4792POPC   C4B62434  17.731  34.753   7.259
 4793POPC   NC362435  37.617  28.973   5.698
 4793POPC   PO462436  38.219  29.304   5.411
 4793POPC   GL162437  37.972  29.335   5.791
 4793POPC   GL262438  38.140  29.087   5.966
 4793POPC   C1A62439  37.771  29.277   6.239
 4793POPC   D2A62440  37.615  29.430   6.610
 4793POPC   C3A62441  37.643  29.277   7.015
 4793POPC   C4A62442  37.620  29.375   7.461
 4793POPC   C1B62443  37.875  28.773   6.229
 4793POPC   C2B62444  37.772  28.920   6.637
 4793POPC   C3B62445  37.909  28.806   7.028
 4793POPC   C4B62446  37.688  28.880   7.360
 4794POPC   NC362447  44.187  39.189   5.132
 4794POPC   PO462448  43.627  39.570   5.312
 4794POPC   GL162449  43.714  39.376   5.757
 4794POPC   GL262450  43.985  39.157   5.733
 4794POPC   C1A62451  43.665  39.091   6.137
 4794POPC   D2A62452  43.890  39.189   6.550
 4794POPC   C3A62453  43.786  39.094   6.993
 4794POPC   C4A62454  43.686  39.337   7.375
 4794POPC   C1B62455  44.163  39.018   6.146
 4794POPC   C2B62456  44.166  38.752   6.528
 4794POPC   C3B62457  44.287  38.831   6.954
 4794POPC   C4B62458  44.173  38.672   7.336
 4795POPC   NC362459  21.978   7.317   5.651
 4795POPC   PO462460  22.551   7.474   5.402
 4795POPC   GL162461  22.372   7.707   5.774
 4795POPC   GL262462  22.028   7.860   5.758
 4795POPC   C1A62463  22.431   7.605   6.231
 4795POPC   D2A62464  22.280   7.495   6.646
 4795POPC   C3A62465  22.480   7.304   6.975
 4795POPC   C4A62466  22.448   7.599   7.296
 4795POPC   C1B62467  21.856   7.682   6.178
 4795POPC   C2B62468  21.787   7.502   6.587
 4795POPC   C3B62469  21.915   7.365   7.008
 4795POPC   C4B62470  21.864   7.589   7.380
 4796POPC   NC362471  40.310  14.346   5.541
 4796POPC   PO462472  39.761  14.224   5.496
 4796POPC   GL162473  39.963  14.293   5.908
 4796POPC   GL262474  39.862  14.590   6.053
 4796POPC   C1A62475  40.181  14.230   6.314
 4796POPC   D2A62476  39.997  14.170   6.727
 4796POPC   C3A62477  40.137  14.114   7.165
 4796POPC   C4A62478  40.006  14.370   7.478
 4796POPC   C1B62479  39.627  14.598   6.430
 4796POPC   C2B62480  39.662  14.566   6.868
 4796POPC   C3B62481  39.769  14.760   7.219
 4796POPC   C4B62482  39.983  15.162   7.247
 4797POPC   NC362483  18.877  20.413   5.678
 4797POPC   PO462484  19.185  20.838   5.215
 4797POPC   GL162485  19.232  20.778   5.692
 4797POPC   GL262486  19.407  20.447   5.796
 4797POPC   C1A62487  19.125  20.784   6.173
 4797POPC   D2A62488  19.331  20.666   6.579
 4797POPC   C3A62489  19.282  20.921   7.012
 4797POPC   C4A62490  18.903  20.864   7.282
 4797POPC   C1B62491  19.252  20.230   6.195
 4797POPC   C2B62492  18.917  20.335   6.496
 4797POPC   C3B62493  18.961  20.531   6.903
 4797POPC   C4B62494  19.279  20.425   7.214
 4798POPC   NC362495   5.641  28.676   5.477
 4798POPC   PO462496   6.033  28.110   5.540
 4798POPC   GL162497   5.882  28.338   5.875
 4798POPC   GL262498   5.525  28.294   5.821
 4798POPC   C1A62499   6.065  28.333   6.330
 4798POPC   D2A62500   5.950  28.367   6.771
 4798POPC   C3A62501   6.184  28.358   7.152
 4798POPC   C4A62502   5.990  28.250   7.542
 4798POPC   C1B62503   5.561  28.339   6.261
 4798POPC   C2B62504   5.550  28.622   6.597
 4798POPC   C3B62505   5.640  28.689   7.022
 4798POPC   C4B62506   5.556  28.419   7.349
 4799POPC   NC362507  14.521  21.169   5.548
 4799POPC   PO462508  13.963  21.159   5.151
 4799POPC   GL162509  14.178  21.538   5.599
 4799POPC   GL262510  14.507  21.621   5.798
 4799POPC   C1A62511  14.181  21.443   6.128
 4799POPC   D2A62512  14.386  21.265   6.533
 4799POPC   C3A62513  14.233  21.314   6.964
 4799POPC   C4A62514  14.493  21.023   7.145
 4799POPC   C1B62515  14.688  21.606   6.231
 4799POPC   C2B62516  14.875  21.505   6.651
 4799POPC   C3B62517  14.705  21.508   7.060
 4799POPC   C4B62518  14.462  21.645   7.417
 4800POPC   NC362519  21.495  27.172   5.594
 4800POPC   PO462520  21.982  27.524   5.536
 4800POPC   GL162521  21.687  27.711   5.829
 4800POPC   GL262522  21.717  27.417   5.991
 4800POPC   C1A62523  21.766  27.873   6.256
 4800POPC   D2A62524  22.084  27.784   6.598
 4800POPC   C3A62525  21.980  27.532   6.975
 4800POPC   C4A62526  22.007  27.384   7.392
 4800POPC   C1B62527  22.094  27.459   6.210
 4800POPC   C2B62528  22.238  27.266   6.605
 4800POPC   C3B62529  22.347  27.176   7.044
 4800POPC   C4B62530  22.518  27.476   7.339
 4801POPC   NC362531  28.843  34.231   5.581
 4801POPC   PO462532  28.693  33.545   5.514
 4801POPC   GL162533  29.106  33.521   5.766
 4801POPC   GL262534  29.267  33.860   5.816
 4801POPC   C1A62535  29.286  33.499   6.183
 4801POPC   D2A62536  29.338  33.726   6.560
 4801POPC   C3A62537  29.384  33.508   6.953
 4801POPC   C4A62538  29.216  33.783   7.262
 4801POPC   C1B62539  28.982  33.994   6.187
 4801POPC   C2B62540  28.921  34.033   6.654
 4801POPC   C3B62541  29.286  34.159   6.890
 4801POPC   C4B62542  29.382  34.279   7.298
 4802POPC   NC362543  26.466   6.148   5.500
 4802POPC   PO462544  26.868   5.674   5.318
 4802POPC   GL162545  27.025   5.759   5.747
 4802POPC   GL262546  26.758   5.952   5.862
 4802POPC   C1A62547  26.994   5.605   6.188
 4802POPC   D2A62548  26.932   5.891   6.522
 4802POPC   C3A62549  26.805   5.749   6.923
 4802POPC   C4A62550  26.822   5.744   7.369
 4802POPC   C1B62551  26.498   5.630   6.047
 4802POPC   C2B62552  26.520   5.579   6.481
 4802POPC   C3B62553  26.294   5.628   6.846
 4802POPC   C4B62554  26.374   5.534   7.279
 4803POPC   NC362555   5.636  37.517   5.406
 4803POPC   PO462556   6.210  37.854   5.394
 4803POPC   GL162557   5.953  37.768   5.786
 4803POPC   GL262558   5.816  37.398   5.859
 4803POPC   C1A62559   6.004  37.673   6.237
 4803POPC   D2A62560   5.882  37.443   6.592
 4803POPC   C3A62561   6.053  37.731   6.885
 4803POPC   C4A62562   6.084  37.652   7.308
 4803POPC   C1B62563   5.510  37.683   6.100
 4803POPC   C2B62564   5.576  37.858   6.537
 4803POPC   C3B62565   5.557  37.671   6.955
 4803POPC   C4B62566   5.413  37.817   7.334
 4804POPC   NC362567   4.106  42.952   5.291
 4804POPC   PO462568   4.681  43.298   5.363
 4804POPC   GL162569   4.514  43.131   5.736
 4804POPC   GL262570   4.161  43.215   5.741
 4804POPC   C1A62571   4.683  43.148   6.158
 4804POPC   D2A62572   4.474  43.198   6.545
 4804POPC   C3A62573   4.266  43.239   6.910
 4804POPC   C4A62574   4.475  43.091   7.268
 4804POPC   C1B62575   4.175  42.998   6.153
 4804POPC   C2B62576   4.115  42.826   6.585
 4804POPC   C3B62577   4.087  42.790   7.037
 4804POPC   C4B62578   3.762  42.788   7.292
 4805POPC   NC362579   8.893  18.463   5.207
 4805POPC   PO462580   9.294  17.976   5.260
 4805POPC   GL162581   9.127  18.192   5.628
 4805POPC   GL262582   8.900  17.979   5.804
 4805POPC   C1A62583   9.152  18.345   6.092
 4805POPC   D2A62584   9.131  18.673   6.438
 4805POPC   C3A62585   9.034  18.536   6.892
 4805POPC   C4A62586   9.023  18.218   7.241
 4805POPC   C1B62587   8.711  18.077   6.213
 4805POPC   C2B62588   8.812  18.142   6.646
 4805POPC   C3B62589   8.581  18.109   7.016
 4805POPC   C4B62590   8.652  17.953   7.444
 4806POPC   NC362591   2.135  11.300   5.542
 4806POPC   PO462592   1.654  11.108   5.127
 4806POPC   GL162593   1.649  11.376   5.673
 4806POPC   GL262594   1.936  11.182   5.991
 4806POPC   C1A62595   1.587  11.447   6.171
 4806POPC   D2A62596   1.827  11.342   6.557
 4806POPC   C3A62597   1.695  11.435   6.996
 4806POPC   C4A62598   1.794  11.118   7.343
 4806POPC   C1B62599   2.131  11.558   6.164
 4806POPC   C2B62600   2.394  11.585   6.550
 4806POPC   C3B62601   2.208  11.661   6.959
 4806POPC   C4B62602   2.045  11.550   7.368
 4807POPC   NC362603  23.234  18.487   5.460
 4807POPC   PO462604  22.743  18.022   5.355
 4807POPC   GL162605  22.903  18.179   5.745
 4807POPC   GL262606  22.706  18.485   5.767
 4807POPC   C1A62607  23.121  18.241   6.169
 4807POPC   D2A62608  23.244  18.097   6.612
 4807POPC   C3A62609  23.013  18.201   6.997
 4807POPC   C4A62610  22.619  18.021   7.146
 4807POPC   C1B62611  22.606  18.252   6.165
 4807POPC   C2B62612  22.709  18.325   6.592
 4807POPC   C3B62613  22.620  18.518   7.005
 4807POPC   C4B62614  22.789  18.484   7.404
 4808POPC   NC362615  22.457  20.124   5.513
 4808POPC   PO462616  22.188  20.630   5.177
 4808POPC   GL162617  22.179  20.630   5.674
 4808POPC   GL262618  22.397  20.449   5.877
 4808POPC   C1A62619  22.117  20.796   6.128
 4808POPC   D2A62620  22.188  20.628   6.562
 4808POPC   C3A62621  21.997  20.742   6.949
 4808POPC   C4A62622  22.051  20.535   7.325
 4808POPC   C1B62623  22.609  20.575   6.249
 4808POPC   C2B62624  22.706  20.531   6.671
 4808POPC   C3B62625  22.474  20.519   7.041
 4808POPC   C4B62626  22.546  20.768   7.443
 4809POPC   NC362627  35.353  17.980   5.500
 4809POPC   PO462628  35.542  17.301   5.486
 4809POPC   GL162629  35.409  17.545   5.808
 4809POPC   GL262630  35.700  17.739   5.847
 4809POPC   C1A62631  35.137  17.478   6.161
 4809POPC   D2A62632  35.090  17.645   6.550
 4809POPC   C3A62633  35.163  17.423   6.892
 4809POPC   C4A62634  35.383  17.651   7.122
 4809POPC   C1B62635  35.747  17.488   6.239
 4809POPC   C2B62636  35.607  17.319   6.661
 4809POPC   C3B62637  35.742  17.295   7.111
 4809POPC   C4B62638  35.599  17.459   7.540
 4810POPC   NC362639  17.777  31.591   5.363
 4810POPC   PO462640  18.548  31.310   5.387
 4810POPC   GL162641  18.411  31.428   5.775
 4810POPC   GL262642  18.210  31.706   5.628
 4810POPC   C1A62643  18.255  31.301   6.214
 4810POPC   D2A62644  17.976  31.238   6.584
 4810POPC   C3A62645  18.223  31.486   6.864
 4810POPC   C4A62646  18.551  31.365   7.112
 4810POPC   C1B62647  18.155  31.790   6.066
 4810POPC   C2B62648  18.316  31.923   6.479
 4810POPC   C3B62649  18.103  31.978   6.861
 4810POPC   C4B62650  18.119  31.872   7.234
 4811POPC   NC362651   6.556   5.017   5.251
 4811POPC   PO462652   7.167   5.228   5.379
 4811POPC   GL162653   6.858   5.001   5.722
 4811POPC   GL262654   6.460   4.935   5.745
 4811POPC   C1A62655   6.748   5.013   6.192
 4811POPC   D2A62656   6.603   4.940   6.643
 4811POPC   C3A62657   6.680   5.316   6.954
 4811POPC   C4A62658   6.864   5.303   7.380
 4811POPC   C1B62659   6.241   4.867   6.149
 4811POPC   C2B62660   6.187   4.589   6.518
 4811POPC   C3B62661   6.122   4.682   6.966
 4811POPC   C4B62662   6.456   4.911   7.163
 4812POPC   NC362663   2.357  42.526   5.451
 4812POPC   PO462664   2.822  42.030   5.388
 4812POPC   GL162665   2.718  42.253   5.745
 4812POPC   GL262666   3.028  42.406   5.852
 4812POPC   C1A62667   2.586  42.325   6.178
 4812POPC   D2A62668   2.769  42.373   6.606
 4812POPC   C3A62669   2.582  42.202   7.018
 4812POPC   C4A62670   2.519  42.313   7.479
 4812POPC   C1B62671   3.054  42.100   6.153
 4812POPC   C2B62672   3.222  42.075   6.548
 4812POPC   C3B62673   3.084  42.145   6.946
 4812POPC   C4B62674   3.002  42.298   7.344
 4813POPC   NC362675  44.890  25.884   5.260
 4813POPC   PO462676  44.461  26.339   5.501
 4813POPC   GL162677  44.542  26.132   5.873
 4813POPC   GL262678  44.322  25.883   5.979
 4813POPC   C1A62679  44.718  26.152   6.273
 4813POPC   D2A62680  44.954  25.969   6.599
 4813POPC   C3A62681  44.863  25.974   7.035
 4813POPC   C4A62682  44.495  25.892   7.315
 4813POPC   C1B62683  44.374  25.796   6.377
 4813POPC   C2B62684  44.455  26.060   6.722
 4813POPC   C3B62685  44.520  25.658   6.871
 4813POPC   C4B62686  44.309  25.396   7.149
 4814POPC   NC362687  25.746  44.532   5.410
 4814POPC   PO462688  26.384  44.459   5.424
 4814POPC   GL162689  26.180  44.546   5.776
 4814POPC   GL262690  26.041  44.841   5.714
 4814POPC   C1A62691  25.946  44.576   6.162
 4814POPC   D2A62692  25.967  44.717   6.584
 4814POPC   C3A62693  25.950  44.471   6.938
 4814POPC   C4A62694  26.197  44.453   7.279
 4814POPC   C1B62695  26.357  44.950   6.063
 4814POPC   C2B62696  26.410  44.953   6.511
 4814POPC   C3B62697  26.335  44.864   6.959
 4814POPC   C4B62698  26.312  44.944   7.405
 4815POPC   NC362699  35.709   4.179   5.069
 4815POPC   PO462700  35.166   4.384   5.519
 4815POPC   GL162701  35.186   4.241   5.944
 4815POPC   GL262702  35.384   3.939   6.007
 4815POPC   C1A62703  35.195   4.370   6.383
 4815POPC   D2A62704  35.266   4.607   6.744
 4815POPC   C3A62705  35.214   4.390   7.136
 4815POPC   C4A62706  35.165   3.973   7.319
 4815POPC   C1B62707  35.646   4.241   6.205
 4815POPC   C2B62708  35.721   4.410   6.585
 4815POPC   C3B62709  35.706   4.473   7.018
 4815POPC   C4B62710  35.677   4.121   7.263
 4816POPC   NC362711  39.686  11.074   5.404
 4816POPC   PO462712  40.263  11.539   5.469
 4816POPC   GL162713  40.018  11.369   5.829
 4816POPC   GL262714  40.014  11.003   5.816
 4816POPC   C1A62715  39.969  11.270   6.282
 4816POPC   D2A62716  39.803  11.451   6.657
 4816POPC   C3A62717  39.799  11.284   7.086
 4816POPC   C4A62718  40.023  11.443   7.441
 4816POPC   C1B62719  39.680  10.900   6.134
 4816POPC   C2B62720  39.781  10.902   6.612
 4816POPC   C3B62721  40.072  10.848   6.985
 4816POPC   C4B62722  40.082  10.940   7.399
 4817POPC   NC362723   4.779  42.053   5.064
 4817POPC   PO462724   5.354  42.069   5.434
 4817POPC   GL162725   5.240  42.164   5.894
 4817POPC   GL262726   4.894  42.323   5.900
 4817POPC   C1A62727   5.108  42.214   6.353
 4817POPC   D2A62728   4.980  42.456   6.715
 4817POPC   C3A62729   5.001  42.407   7.146
 4817POPC   C4A62730   5.002  41.970   7.249
 4817POPC   C1B62731   4.604  42.129   6.231
 4817POPC   C2B62732   4.642  42.001   6.702
 4817POPC   C3B62733   4.543  42.180   7.124
 4817POPC   C4B62734   4.627  42.104   7.591
 4818POPC   NC362735  13.610  13.316   5.427
 4818POPC   PO462736  13.492  14.006   5.326
 4818POPC   GL162737  13.518  13.711   5.739
 4818POPC   GL262738  13.783  13.442   5.870
 4818POPC   C1A62739  13.453  13.589   6.203
 4818POPC   D2A62740  13.600  13.430   6.590
 4818POPC   C3A62741  13.532  13.617   6.969
 4818POPC   C4A62742  13.224  13.650   7.259
 4818POPC   C1B62743  13.974  13.417   6.260
 4818POPC   C2B62744  14.060  13.590   6.698
 4818POPC   C3B62745  13.914  13.289   7.018
 4818POPC   C4B62746  13.784  13.177   7.425
 4819POPC   NC362747  40.737  39.833   5.222
 4819POPC   PO462748  40.359  40.339   5.466
 4819POPC   GL162749  40.767  40.095   5.671
 4819POPC   GL262750  40.792  39.707   5.707
 4819POPC   C1A62751  40.970  39.992   6.087
 4819POPC   D2A62752  41.193  39.907   6.492
 4819POPC   C3A62753  41.055  39.770   6.906
 4819POPC   C4A62754  40.868  40.050   7.209
 4819POPC   C1B62755  40.560  39.677   6.105
 4819POPC   C2B62756  40.657  39.895   6.496
 4819POPC   C3B62757  40.524  39.827   6.890
 4819POPC   C4B62758  40.517  39.692   7.310
 4820POPC   NC362759  33.556  12.050   5.350
 4820POPC   PO462760  34.202  12.029   5.517
 4820POPC   GL162761  33.832  12.142   5.793
 4820POPC   GL262762  33.546  11.897   5.830
 4820POPC   C1A62763  33.660  12.211   6.217
 4820POPC   D2A62764  33.616  11.973   6.618
 4820POPC   C3A62765  33.862  12.087   6.978
 4820POPC   C4A62766  34.054  12.469   7.069
 4820POPC   C1B62767  33.701  11.674   6.187
 4820POPC   C2B62768  33.616  11.465   6.578
 4820POPC   C3B62769  33.561  11.655   7.025
 4820POPC   C4B62770  33.632  11.898   7.398
 4821POPC   NC362771  30.938  14.580   5.432
 4821POPC   PO462772  30.424  14.047   5.388
 4821POPC   GL162773  30.618  14.345   5.742
 4821POPC   GL262774  30.428  14.622   5.895
 4821POPC   C1A62775  30.884  14.534   6.091
 4821POPC   D2A62776  30.734  14.395   6.483
 4821POPC   C3A62777  30.999  14.370   6.867
 4821POPC   C4A62778  30.882  14.493   7.280
 4821POPC   C1B62779  30.504  14.826   6.309
 4821POPC   C2B62780  30.493  14.783   6.785
 4821POPC   C3B62781  30.510  14.836   7.252
 4821POPC   C4B62782  30.332  14.681   7.656
 4822POPC   NC362783  33.431  43.133   5.408
 4822POPC   PO462784  32.667  43.319   5.476
 4822POPC   GL162785  33.026  43.132   5.762
 4822POPC   GL262786  33.329  42.872   5.838
 4822POPC   C1A62787  32.938  43.117   6.168
 4822POPC   D2A62788  32.739  43.369   6.465
 4822POPC   C3A62789  32.751  43.244   6.902
 4822POPC   C4A62790  32.689  43.117   7.332
 4822POPC   C1B62791  33.433  43.032   6.246
 4822POPC   C2B62792  33.183  43.068   6.627
 4822POPC   C3B62793  33.167  42.989   7.064
 4822POPC   C4B62794  33.085  42.839   7.496
 4823POPC   NC362795  24.264  32.170   5.080
 4823POPC   PO462796  24.729  32.269   5.572
 4823POPC   GL162797  24.656  32.201   5.946
 4823POPC   GL262798  24.839  31.922   5.955
 4823POPC   C1A62799  24.560  32.379   6.306
 4823POPC   D2A62800  24.740  32.544   6.687
 4823POPC   C3A62801  24.418  32.548   6.975
 4823POPC   C4A62802  24.095  32.360   7.154
 4823POPC   C1B62803  24.608  31.861   6.345
 4823POPC   C2B62804  24.520  32.080   6.719
 4823POPC   C3B62805  24.471  32.013   7.116
 4823POPC   C4B62806  24.711  31.888   7.469
 4824POPC   NC362807  14.177   3.190   5.333
 4824POPC   PO462808  14.079   3.765   5.631
 4824POPC   GL162809  14.265   3.432   5.874
 4824POPC   GL262810  14.137   3.087   5.844
 4824POPC   C1A62811  14.493   3.577   6.249
 4824POPC   D2A62812  14.417   3.746   6.667
 4824POPC   C3A62813  14.527   3.521   7.057
 4824POPC   C4A62814  14.430   3.492   7.531
 4824POPC   C1B62815  14.235   3.146   6.293
 4824POPC   C2B62816  14.165   3.311   6.746
 4824POPC   C3B62817  14.081   3.238   7.225
 4824POPC   C4B62818  13.928   3.261   7.677
 4825POPC   NC362819  41.601  37.670   5.393
 4825POPC   PO462820  42.099  37.219   5.574
 4825POPC   GL162821  41.719  37.416   5.804
 4825POPC   GL262822  41.342  37.464   5.797
 4825POPC   C1A62823  41.633  37.708   6.130
 4825POPC   D2A62824  41.803  37.660   6.520
 4825POPC   C3A62825  41.614  37.894   6.787
 4825POPC   C4A62826  41.548  37.643   7.156
 4825POPC   C1B62827  41.166  37.882   6.033
 4825POPC   C2B62828  41.120  38.001   6.517
 4825POPC   C3B62829  41.152  37.908   6.995
 4825POPC   C4B62830  41.221  37.887   7.492
 4826POPC   NC362831  36.709  29.142   5.315
 4826POPC   PO462832  37.299  29.275   5.585
 4826POPC   GL162833  36.896  29.108   5.793
 4826POPC   GL262834  36.555  29.273   5.783
 4826POPC   C1A62835  36.746  28.919   6.181
 4826POPC   D2A62836  36.758  29.068   6.599
 4826POPC   C3A62837  36.942  28.908   6.989
 4826POPC   C4A62838  37.227  29.108   7.270
 4826POPC   C1B62839  36.709  29.425   6.192
 4826POPC   C2B62840  36.739  29.627   6.620
 4826POPC   C3B62841  36.690  29.371   7.006
 4826POPC   C4B62842  36.542  29.075   7.281
 4827POPC   NC362843  38.172  30.736   5.616
 4827POPC   PO462844  37.552  30.707   5.240
 4827POPC   GL162845  37.629  30.505   5.703
 4827POPC   GL262846  37.357  30.254   5.817
 4827POPC   C1A62847  37.572  30.623   6.200
 4827POPC   D2A62848  37.387  30.763   6.655
 4827POPC   C3A62849  37.691  30.818   7.042
 4827POPC   C4A62850  37.709  30.664   7.504
 4827POPC   C1B62851  37.337  30.173   6.267
 4827POPC   C2B62852  37.494  30.280   6.692
 4827POPC   C3B62853  37.515  30.349   7.157
 4827POPC   C4B62854  37.487  30.229   7.638
 4828POPC   NC362855  43.735   2.447   5.492
 4828POPC   PO462856  44.017   1.835   5.366
 4828POPC   GL162857  43.749   1.932   5.695
 4828POPC   GL262858  43.425   1.764   5.697
 4828POPC   C1A62859  43.754   2.140   6.108
 4828POPC   D2A62860  43.658   2.099   6.550
 4828POPC   C3A62861  44.053   2.153   6.799
 4828POPC   C4A62862  44.172   2.003   7.218
 4828POPC   C1B62863  43.655   1.618   6.094
 4828POPC   C2B62864  43.892   1.652   6.518
 4828POPC   C3B62865  43.767   1.761   6.952
 4828POPC   C4B62866  43.622   1.601   7.329
 4829POPC   NC362867  10.635  37.743   5.406
 4829POPC   PO462868  10.101  37.348   5.416
 4829POPC   GL162869  10.315  37.594   5.803
 4829POPC   GL262870  10.670  37.714   5.892
 4829POPC   C1A62871  10.290  37.733   6.252
 4829POPC   D2A62872  10.194  37.712   6.698
 4829POPC   C3A62873  10.314  37.570   7.094
 4829POPC   C4A62874  10.296  37.550   7.559
 4829POPC   C1B62875  10.806  37.801   6.307
 4829POPC   C2B62876  10.684  37.584   6.667
 4829POPC   C3B62877  10.819  37.506   7.072
 4829POPC   C4B62878  10.733  37.769   7.394
 4830POPC   NC362879  17.511  28.831   5.333
 4830POPC   PO462880  17.229  29.367   5.419
 4830POPC   GL162881  17.262  29.055   5.771
 4830POPC   GL262882  17.556  28.827   5.846
 4830POPC   C1A62883  17.063  28.996   6.182
 4830POPC   D2A62884  16.990  29.205   6.585
 4830POPC   C3A62885  17.102  28.910   6.905
 4830POPC   C4A62886  17.376  28.931   7.263
 4830POPC   C1B62887  17.565  29.128   6.202
 4830POPC   C2B62888  17.549  29.121   6.669
 4830POPC   C3B62889  17.615  29.334   7.065
 4830POPC   C4B62890  17.670  29.270   7.526
 4831POPC   NC362891  16.889   8.401   5.406
 4831POPC   PO462892  16.474   7.884   5.522
 4831POPC   GL162893  16.745   8.145   5.808
 4831POPC   GL262894  16.595   8.500   5.793
 4831POPC   C1A62895  17.099   8.261   6.087
 4831POPC   D2A62896  17.037   8.410   6.510
 4831POPC   C3A62897  16.828   8.157   6.813
 4831POPC   C4A62898  16.892   8.283   7.251
 4831POPC   C1B62899  16.674   8.541   6.173
 4831POPC   C2B62900  16.492   8.410   6.538
 4831POPC   C3B62901  16.544   8.561   6.958
 4831POPC   C4B62902  16.428   8.531   7.372
 4832POPC   NC362903  21.781  30.764   5.359
 4832POPC   PO462904  22.393  30.497   5.133
 4832POPC   GL162905  22.418  30.740   5.647
 4832POPC   GL262906  22.107  30.861   5.739
 4832POPC   C1A62907  22.376  30.581   6.107
 4832POPC   D2A62908  22.350  30.783   6.498
 4832POPC   C3A62909  22.239  30.470   6.830
 4832POPC   C4A62910  22.306  30.632   7.233
 4832POPC   C1B62911  21.965  30.881   6.144
 4832POPC   C2B62912  21.834  30.826   6.533
 4832POPC   C3B62913  22.041  30.939   6.888
 4832POPC   C4B62914  21.880  30.941   7.260
 4833POPC   NC362915  39.351   0.847   5.166
 4833POPC   PO462916  39.229   1.404   5.506
 4833POPC   GL162917  39.235   1.193   5.868
 4833POPC   GL262918  39.439   0.874   5.865
 4833POPC   C1A62919  38.967   1.253   6.227
 4833POPC   D2A62920  39.048   1.093   6.625
 4833POPC   C3A62921  38.945   1.396   6.933
 4833POPC   C4A62922  39.084   1.417   7.382
 4833POPC   C1B62923  39.468   1.044   6.305
 4833POPC   C2B62924  39.597   1.075   6.730
 4833POPC   C3B62925  39.404   1.189   7.076
 4833POPC   C4B62926  39.488   1.141   7.525
 4834POPC   NC362927  29.059  19.498   5.413
 4834POPC   PO462928  29.308  20.129   5.347
 4834POPC   GL162929  29.231  20.013   5.792
 4834POPC   GL262930  29.153  19.660   5.898
 4834POPC   C1A62931  29.050  20.059   6.214
 4834POPC   D2A62932  28.913  19.755   6.516
 4834POPC   C3A62933  28.767  19.852   6.919
 4834POPC   C4A62934  29.013  20.072   7.192
 4834POPC   C1B62935  29.196  19.390   6.258
 4834POPC   C2B62936  29.209  19.357   6.698
 4834POPC   C3B62937  29.163  19.548   7.097
 4834POPC   C4B62938  29.354  19.703   7.482
 4835POPC   NC362939  41.951   1.002   5.410
 4835POPC   PO462940  42.573   1.104   5.315
 4835POPC   GL162941  42.330   1.132   5.746
 4835POPC   GL262942  42.067   1.388   5.829
 4835POPC   C1A62943  42.356   1.183   6.233
 4835POPC   D2A62944  42.504   1.139   6.662
 4835POPC   C3A62945  42.303   1.094   7.058
 4835POPC   C4A62946  42.429   1.006   7.480
 4835POPC   C1B62947  42.010   1.571   6.277
 4835POPC   C2B62948  42.055   1.459   6.756
 4835POPC   C3B62949  42.086   1.517   7.231
 4835POPC   C4B62950  42.126   1.374   7.674
 4836POPC   NC362951  40.664  28.016   5.044
 4836POPC   PO462952  41.094  28.264   5.521
 4836POPC   GL162953  40.853  28.345   5.914
 4836POPC   GL262954  40.537  28.336   5.784
 4836POPC   C1A62955  40.654  28.562   6.277
 4836POPC   D2A62956  40.898  28.516   6.650
 4836POPC   C3A62957  40.888  28.682   7.055
 4836POPC   C4A62958  41.032  28.357   7.306
 4836POPC   C1B62959  40.470  28.084   6.177
 4836POPC   C2B62960  40.523  28.162   6.615
 4836POPC   C3B62961  40.381  28.095   7.019
 4836POPC   C4B62962  40.501  28.391   7.329
 4837POPC   NC362963  31.444   7.256   5.398
 4837POPC   PO462964  31.255   6.669   5.563
 4837POPC   GL162965  31.239   7.066   5.838
 4837POPC   GL262966  31.566   7.296   5.893
 4837POPC   C1A62967  31.121   7.251   6.261
 4837POPC   D2A62968  31.078   7.265   6.739
 4837POPC   C3A62969  31.385   7.410   7.096
 4837POPC   C4A62970  31.518   7.189   7.487
 4837POPC   C1B62971  31.467   7.633   6.203
 4837POPC   C2B62972  31.504   7.650   6.657
 4837POPC   C3B62973  31.603   7.873   7.051
 4837POPC   C4B62974  31.625   7.695   7.482
 4838POPC   NC362975  15.502  11.056   5.566
 4838POPC   PO462976  15.168  11.683   5.332
 4838POPC   GL162977  15.133  11.495   5.783
 4838POPC   GL262978  15.025  11.151   5.841
 4838POPC   C1A62979  15.228  11.546   6.254
 4838POPC   D2A62980  15.256  11.762   6.665
 4838POPC   C3A62981  15.030  11.622   7.041
 4838POPC   C4A62982  15.329  11.562   7.331
 4838POPC   C1B62983  15.277  11.035   6.179
 4838POPC   C2B62984  15.228  10.967   6.566
 4838POPC   C3B62985  15.286  11.172   6.973
 4838POPC   C4B62986  15.242  11.029   7.356
 4839POPC   NC362987  38.246  22.940   5.481
 4839POPC   PO462988  38.505  23.509   5.463
 4839POPC   GL162989  38.517  23.231   5.832
 4839POPC   GL262990  38.775  22.991   5.687
 4839POPC   C1A62991  38.217  23.027   6.187
 4839POPC   D2A62992  38.062  22.725   6.544
 4839POPC   C3A62993  38.170  22.802   6.998
 4839POPC   C4A62994  38.162  23.061   7.376
 4839POPC   C1B62995  38.580  22.688   6.004
 4839POPC   C2B62996  38.547  22.591   6.449
 4839POPC   C3B62997  38.615  22.550   6.916
 4839POPC   C4B62998  38.626  22.884   7.268
 4840POPC   NC362999   1.789  38.836   5.481
 4840POPC   PO463000   2.206  39.294   5.188
 4840POPC   GL163001   2.123  39.444   5.684
 4840POPC   GL263002   1.816  39.279   5.800
 4840POPC   C1A63003   2.028  39.517   6.188
 4840POPC   D2A63004   1.830  39.426   6.625
 4840POPC   C3A63005   1.951  39.602   7.065
 4840POPC   C4A63006   1.765  39.670   7.515
 4840POPC   C1B63007   1.884  39.035   6.183
 4840POPC   C2B63008   2.078  38.968   6.590
 4840POPC   C3B63009   2.005  39.095   7.017
 4840POPC   C4B63010   1.905  38.897   7.412
 4841POPC   NC363011   0.839  34.032   5.500
 4841POPC   PO463012   0.250  33.755   5.433
 4841POPC   GL163013   0.539  33.672   5.782
 4841POPC   GL263014   0.533  33.954   5.905
 4841POPC   C1A63015   0.597  33.522   6.195
 4841POPC   D2A63016   0.531  33.752   6.586
 4841POPC   C3A63017   0.561  33.501   6.976
 4841POPC   C4A63018   0.528  33.429   7.422
 4841POPC   C1B63019   0.778  34.188   6.144
 4841POPC   C2B63020   0.763  34.243   6.569
 4841POPC   C3B63021   0.517  34.142   6.927
 4841POPC   C4B63022   0.599  33.921   7.266
 4842POPC   NC363023  29.254  13.558   5.252
 4842POPC   PO463024  28.600  13.659   5.235
 4842POPC   GL163025  28.807  13.573   5.708
 4842POPC   GL263026  29.179  13.516   5.770
 4842POPC   C1A63027  28.937  13.767   6.127
 4842POPC   D2A63028  29.135  13.816   6.535
 4842POPC   C3A63029  29.001  13.528   6.880
 4842POPC   C4A63030  29.046  13.595   7.331
 4842POPC   C1B63031  29.439  13.563   6.158
 4842POPC   C2B63032  29.459  13.441   6.606
 4842POPC   C3B63033  29.457  13.349   7.038
 4842POPC   C4B63034  29.682  13.500   7.411
 4843POPC   NC363035  25.428   8.432   5.421
 4843POPC   PO463036  25.185   7.853   5.420
 4843POPC   GL163037  25.203   8.122   5.778
 4843POPC   GL263038  25.015   7.908   5.969
 4843POPC   C1A63039  25.353   8.265   6.185
 4843POPC   D2A63040  25.500   8.000   6.532
 4843POPC   C3A63041  25.284   8.072   6.940
 4843POPC   C4A63042  25.318   8.309   7.335
 4843POPC   C1B63043  24.975   7.983   6.401
 4843POPC   C2B63044  24.726   8.074   6.746
 4843POPC   C3B63045  24.665   8.003   7.173
 4843POPC   C4B63046  24.981   7.962   7.464
 4844POPC   NC363047  22.237  17.796   5.078
 4844POPC   PO463048  22.103  18.368   5.464
 4844POPC   GL163049  22.209  18.350   5.867
 4844POPC   GL263050  22.147  18.062   6.014
 4844POPC   C1A63051  22.041  18.483   6.282
 4844POPC   D2A63052  22.213  18.165   6.559
 4844POPC   C3A63053  22.149  18.171   6.997
 4844POPC   C4A63054  22.277  18.293   7.396
 4844POPC   C1B63055  21.764  18.089   6.254
 4844POPC   C2B63056  21.706  18.301   6.634
 4844POPC   C3B63057  21.653  18.121   7.043
 4844POPC   C4B63058  21.841  18.047   7.446
 4845POPC   NC363059  31.655  27.864   5.419
 4845POPC   PO463060  31.266  27.316   5.493
 4845POPC   GL163061  31.512  27.495   5.808
 4845POPC   GL263062  31.773  27.286   5.941
 4845POPC   C1A63063  31.429  27.685   6.196
 4845POPC   D2A63064  31.260  27.874   6.597
 4845POPC   C3A63065  31.295  27.807   7.038
 4845POPC   C4A63066  31.603  27.589   7.313
 4845POPC   C1B63067  31.921  27.359   6.358
 4845POPC   C2B63068  31.909  27.289   6.800
 4845POPC   C3B63069  31.874  27.159   7.213
 4845POPC   C4B63070  31.921  27.386   7.634
 4846POPC   NC363071  36.244  18.493   5.443
 4846POPC   PO463072  35.791  18.045   5.390
 4846POPC   GL163073  35.982  18.161   5.773
 4846POPC   GL263074  36.321  18.207   5.869
 4846POPC   C1A63075  35.907  18.206   6.223
 4846POPC   D2A63076  36.017  18.266   6.684
 4846POPC   C3A63077  35.840  18.349   7.125
 4846POPC   C4A63078  35.735  18.321   7.587
 4846POPC   C1B63079  36.437  18.357   6.261
 4846POPC   C2B63080  36.495  18.130   6.643
 4846POPC   C3B63081  36.322  18.008   7.027
 4846POPC   C4B63082  36.206  18.155   7.426
 4847POPC   NC363083  44.469  36.922   5.593
 4847POPC   PO463084  44.969  36.564   5.260
 4847POPC   GL163085  44.877  36.611   5.737
 4847POPC   GL263086  44.943  36.974   5.765
 4847POPC   C1A63087  44.584  36.672   6.150
 4847POPC   D2A63088  44.603  36.845   6.562
 4847POPC   C3A63089  44.516  36.862   6.987
 4847POPC   C4A63090  44.679  36.610   7.300
 4847POPC   C1B63091  44.867  37.103   6.191
 4847POPC   C2B63092  44.876  37.244   6.644
 4847POPC   C3B63093  44.973  37.080   7.039
 4847POPC   C4B63094  44.704  37.180   7.383
 4848POPC   NC363095  36.091  19.426   5.784
 4848POPC   PO463096  36.299  18.948   5.461
 4848POPC   GL163097  36.387  18.760   5.869
 4848POPC   GL263098  36.041  18.653   5.895
 4848POPC   C1A63099  36.472  18.970   6.274
 4848POPC   D2A63100  36.389  19.299   6.618
 4848POPC   C3A63101  36.373  19.155   7.051
 4848POPC   C4A63102  36.151  19.169   7.465
 4848POPC   C1B63103  36.052  18.685   6.338
 4848POPC   C2B63104  36.207  18.765   6.748
 4848POPC   C3B63105  35.946  18.865   7.111
 4848POPC   C4B63106  35.610  18.789   7.410
 4849POPC   NC363107   7.781  18.294   5.532
 4849POPC   PO463108   7.217  18.063   5.448
 4849POPC   GL163109   7.264  18.269   5.811
 4849POPC   GL263110   7.464  18.536   5.865
 4849POPC   C1A63111   7.473  18.109   6.186
 4849POPC   D2A63112   7.347  17.815   6.531
 4849POPC   C3A63113   7.331  18.052   6.922
 4849POPC   C4A63114   7.236  18.139   7.346
 4849POPC   C1B63115   7.129  18.621   6.198
 4849POPC   C2B63116   7.063  18.730   6.664
 4849POPC   C3B63117   7.304  18.716   7.053
 4849POPC   C4B63118   7.631  18.413   7.178
 4850POPC   NC363119  16.927   7.635   5.533
 4850POPC   PO463120  16.559   7.124   5.436
 4850POPC   GL163121  16.705   7.286   5.857
 4850POPC   GL263122  16.655   7.661   5.948
 4850POPC   C1A63123  16.607   7.336   6.317
 4850POPC   D2A63124  16.406   7.324   6.711
 4850POPC   C3A63125  16.708   7.257   7.029
 4850POPC   C4A63126  16.886   7.358   7.429
 4850POPC   C1B63127  16.831   7.848   6.313
 4850POPC   C2B63128  16.898   7.641   6.716
 4850POPC   C3B63129  16.773   7.761   7.127
 4850POPC   C4B63130  16.444   8.044   7.217
 4851POPC   NC363131  39.809  29.663   5.061
 4851POPC   PO463132  39.398  30.152   5.211
 4851POPC   GL163133  39.372  29.820   5.590
 4851POPC   GL263134  39.459  30.119   5.761
 4851POPC   C1A63135  39.329  29.575   6.037
 4851POPC   D2A63136  39.037  29.620   6.436
 4851POPC   C3A63137  39.175  29.551   6.891
 4851POPC   C4A63138  39.282  29.728   7.325
 4851POPC   C1B63139  39.207  30.054   6.129
 4851POPC   C2B63140  39.234  30.203   6.540
 4851POPC   C3B63141  39.121  30.097   6.922
 4851POPC   C4B63142  39.298  30.245   7.311
 4852POPC   NC363143   8.605  27.392   5.515
 4852POPC   PO463144   8.179  26.817   5.375
 4852POPC   GL163145   8.446  26.906   5.703
 4852POPC   GL263146   8.534  26.610   5.813
 4852POPC   C1A63147   8.380  27.010   6.154
 4852POPC   D2A63148   8.059  26.857   6.453
 4852POPC   C3A63149   8.154  26.901   6.921
 4852POPC   C4A63150   8.397  27.086   7.241
 4852POPC   C1B63151   8.234  26.497   6.140
 4852POPC   C2B63152   8.281  26.444   6.615
 4852POPC   C3B63153   8.133  26.406   7.057
 4852POPC   C4B63154   7.983  26.259   7.450
 4853POPC   NC363155  29.769  21.616   5.304
 4853POPC   PO463156  30.220  21.315   5.392
 4853POPC   GL163157  29.941  21.466   5.771
 4853POPC   GL263158  29.586  21.603   5.801
 4853POPC   C1A63159  29.910  21.530   6.234
 4853POPC   D2A63160  29.992  21.228   6.560
 4853POPC   C3A63161  29.953  21.288   6.994
 4853POPC   C4A63162  29.807  21.028   7.292
 4853POPC   C1B63163  29.417  21.405   6.211
 4853POPC   C2B63164  29.512  21.412   6.654
 4853POPC   C3B63165  29.558  21.588   7.096
 4853POPC   C4B63166  29.418  21.765   7.495
 4854POPC   NC363167  17.722  20.042   5.396
 4854POPC   PO463168  17.112  19.760   5.440
 4854POPC   GL163169  17.419  19.859   5.800
 4854POPC   GL263170  17.773  19.723   5.847
 4854POPC   C1A63171  17.530  19.942   6.246
 4854POPC   D2A63172  17.516  20.181   6.626
 4854POPC   C3A63173  17.777  20.073   6.933
 4854POPC   C4A63174  17.544  19.920   7.273
 4854POPC   C1B63175  17.683  19.463   6.256
 4854POPC   C2B63176  17.670  19.624   6.689
 4854POPC   C3B63177  17.878  19.568   7.109
 4854POPC   C4B63178  17.819  19.420   7.545
 4855POPC   NC363179   4.740  11.323   5.147
 4855POPC   PO463180   5.377  11.240   5.416
 4855POPC   GL163181   5.105  11.321   5.787
 4855POPC   GL263182   4.873  11.057   5.731
 4855POPC   C1A63183   4.915  11.455   6.218
 4855POPC   D2A63184   4.848  11.621   6.665
 4855POPC   C3A63185   5.156  11.493   6.967
 4855POPC   C4A63186   5.414  11.643   7.298
 4855POPC   C1B63187   5.013  10.929   6.151
 4855POPC   C2B63188   5.030  10.762   6.574
 4855POPC   C3B63189   5.135  10.937   6.967
 4855POPC   C4B63190   5.003  11.119   7.349
 4856POPC   NC363191  26.446  31.031   5.565
 4856POPC   PO463192  26.979  30.618   5.454
 4856POPC   GL163193  26.803  30.756   5.816
 4856POPC   GL263194  26.504  30.569   5.870
 4856POPC   C1A63195  26.842  30.643   6.239
 4856POPC   D2A63196  26.997  30.438   6.564
 4856POPC   C3A63197  27.089  30.723   6.858
 4856POPC   C4A63198  26.978  30.629   7.273
 4856POPC   C1B63199  26.307  30.716   6.202
 4856POPC   C2B63200  26.329  30.508   6.582
 4856POPC   C3B63201  26.578  30.522   6.936
 4856POPC   C4B63202  26.457  30.714   7.328
 4857POPC   NC363203  25.789   0.531   5.442
 4857POPC   PO463204  26.431   0.265   5.434
 4857POPC   GL163205  26.234   0.603   5.661
 4857POPC   GL263206  26.083   0.319   5.841
 4857POPC   C1A63207  26.047   0.724   6.086
 4857POPC   D2A63208  26.263   0.406   6.338
 4857POPC   C3A63209  26.176   0.347   6.790
 4857POPC   C4A63210  26.317   0.438   7.222
 4857POPC   C1B63211  25.883   0.085   6.225
 4857POPC   C2B63212  25.695   0.119   6.664
 4857POPC   C3B63213  25.870   0.020   7.070
 4857POPC   C4B63214  25.885   0.228   7.466
 4858POPC   NC363215   7.464  41.727   5.305
 4858POPC   PO463216   7.494  41.088   5.596
 4858POPC   GL163217   7.372  41.516   5.760
 4858POPC   GL263218   7.561  41.852   5.795
 4858POPC   C1A63219   7.236  41.749   6.154
 4858POPC   D2A63220   7.295  41.823   6.596
 4858POPC   C3A63221   7.307  41.457   6.833
 4858POPC   C4A63222   7.381  41.368   7.262
 4858POPC   C1B63223   7.716  41.581   6.124
 4858POPC   C2B63224   7.786  41.526   6.551
 4858POPC   C3B63225   7.832  41.417   6.987
 4858POPC   C4B63226   7.744  41.742   7.267
 4859POPC   NC363227  11.678  24.576   5.396
 4859POPC   PO463228  12.333  24.276   5.507
 4859POPC   GL163229  12.103  24.479   5.840
 4859POPC   GL263230  11.734  24.385   5.881
 4859POPC   C1A63231  12.164  24.395   6.280
 4859POPC   D2A63232  11.989  24.510   6.657
 4859POPC   C3A63233  12.235  24.583   7.041
 4859POPC   C4A63234  12.491  24.298   7.277
 4859POPC   C1B63235  11.700  24.640   6.206
 4859POPC   C2B63236  11.496  24.671   6.591
 4859POPC   C3B63237  11.657  24.538   7.024
 4859POPC   C4B63238  11.876  24.831   7.292
 4860POPC   NC363239  27.094  37.011   5.402
 4860POPC   PO463240  26.416  36.941   5.421
 4860POPC   GL163241  26.715  36.680   5.650
 4860POPC   GL263242  26.862  36.961   5.842
 4860POPC   C1A63243  26.778  36.510   6.095
 4860POPC   D2A63244  26.658  36.412   6.550
 4860POPC   C3A63245  26.664  36.744   6.875
 4860POPC   C4A63246  26.813  36.857   7.276
 4860POPC   C1B63247  27.196  36.834   6.121
 4860POPC   C2B63248  27.131  36.640   6.547
 4860POPC   C3B63249  27.191  36.886   6.947
 4860POPC   C4B63250  26.993  37.292   7.106
 4861POPC   NC363251  42.895   0.919   5.594
 4861POPC   PO463252  43.288   0.527   5.146
 4861POPC   GL163253  43.344   0.606   5.633
 4861POPC   GL263254  43.047   0.460   5.821
 4861POPC   C1A63255  43.423   0.520   6.118
 4861POPC   D2A63256  43.237   0.321   6.496
 4861POPC   C3A63257  43.347   0.523   6.919
 4861POPC   C4A63258  43.287   0.385   7.368
 4861POPC   C1B63259  42.829   0.247   6.154
 4861POPC   C2B63260  42.717   0.392   6.562
 4861POPC   C3B63261  42.896   0.314   6.956
 4861POPC   C4B63262  42.965   0.002   7.255
 4862POPC   NC363263   0.384  13.551   5.413
 4862POPC   PO463264   0.614  12.968   5.458
 4862POPC   GL163265   0.732  13.325   5.772
 4862POPC   GL263266   0.593  13.658   5.868
 4862POPC   C1A63267   0.902  13.399   6.217
 4862POPC   D2A63268   0.799  13.283   6.669
 4862POPC   C3A63269   0.568  13.605   6.935
 4862POPC   C4A63270   0.733  13.945   7.213
 4862POPC   C1B63271   0.392  13.394   6.200
 4862POPC   C2B63272   0.261  13.309   6.646
 4862POPC   C3B63273   0.037  13.443   7.041
 4862POPC   C4B63274  44.873  13.406   7.483
 4863POPC   NC363275  38.284  43.587   5.085
 4863POPC   PO463276  38.707  43.991   5.463
 4863POPC   GL163277  38.488  43.958   5.819
 4863POPC   GL263278  38.399  43.607   5.737
 4863POPC   C1A63279  38.584  44.096   6.237
 4863POPC   D2A63280  38.479  44.179   6.661
 4863POPC   C3A63281  38.714  43.994   6.998
 4863POPC   C4A63282  38.769  43.561   7.068
 4863POPC   C1B63283  38.666  43.586   6.130
 4863POPC   C2B63284  38.635  43.687   6.573
 4863POPC   C3B63285  38.295  43.707   6.888
 4863POPC   C4B63286  38.273  43.556   7.328
 4864POPC   NC363287  27.485  20.671   5.433
 4864POPC   PO463288  27.726  20.133   5.387
 4864POPC   GL163289  27.489  20.291   5.757
 4864POPC   GL263290  27.760  20.422   5.871
 4864POPC   C1A63291  27.372  20.551   6.144
 4864POPC   D2A63292  27.659  20.472   6.472
 4864POPC   C3A63293  27.639  20.629   6.863
 4864POPC   C4A63294  27.444  20.495   7.222
 4864POPC   C1B63295  27.866  20.798   6.133
 4864POPC   C2B63296  28.090  20.835   6.543
 4864POPC   C3B63297  28.119  20.790   6.998
 4864POPC   C4B63298  27.799  20.872   7.294
 4865POPC   NC363299  28.417   0.098   5.421
 4865POPC   PO463300  28.854  44.536   5.537
 4865POPC   GL163301  28.467  44.730   5.782
 4865POPC   GL263302  28.147  44.526   5.857
 4865POPC   C1A63303  28.284  44.988   6.122
 4865POPC   D2A63304  28.152   0.035   6.554
 4865POPC   C3A63305  28.306  44.752   6.889
 4865POPC   C4A63306  28.441  44.684   7.308
 4865POPC   C1B63307  28.373  44.519   6.248
 4865POPC   C2B63308  28.634  44.448   6.581
 4865POPC   C3B63309  28.610  44.304   6.980
 4865POPC   C4B63310  28.351  44.172   7.266
 4866POPC   NC363311  16.937  26.297   5.335
 4866POPC   PO463312  16.287  26.354   5.447
 4866POPC   GL163313  16.504  26.026   5.743
 4866POPC   GL263314  16.885  25.993   5.736
 4866POPC   C1A63315  16.646  26.104   6.185
 4866POPC   D2A63316  16.453  25.944   6.566
 4866POPC   C3A63317  16.628  26.097   6.894
 4866POPC   C4A63318  16.473  26.040   7.263
 4866POPC   C1B63319  17.049  25.768   6.106
 4866POPC   C2B63320  16.930  25.768   6.543
 4866POPC   C3B63321  16.953  25.667   6.971
 4866POPC   C4B63322  17.006  25.977   7.303
 4867POPC   NC363323   0.635  11.709   5.458
 4867POPC   PO463324   0.087  11.267   5.439
 4867POPC   GL163325   0.452  11.229   5.749
 4867POPC   GL263326   0.683  11.491   5.916
 4867POPC   C1A63327   0.547  11.036   6.149
 4867POPC   D2A63328   0.609  11.272   6.533
 4867POPC   C3A63329   0.545  11.114   6.951
 4867POPC   C4A63330   0.694  11.285   7.321
 4867POPC   C1B63331   0.391  11.689   6.201
 4867POPC   C2B63332   0.280  11.646   6.654
 4867POPC   C3B63333   0.303  11.556   7.097
 4867POPC   C4B63334  44.986  11.677   7.377
 4868POPC   NC363335  11.112  20.946   5.471
 4868POPC   PO463336  11.594  20.426   5.491
 4868POPC   GL163337  11.299  20.447   5.907
 4868POPC   GL263338  10.960  20.657   5.871
 4868POPC   C1A63339  11.365  20.339   6.380
 4868POPC   D2A63340  11.528  20.664   6.708
 4868POPC   C3A63341  11.423  20.630   7.133
 4868POPC   C4A63342  11.271  20.240   7.249
 4868POPC   C1B63343  11.091  20.750   6.323
 4868POPC   C2B63344  11.046  20.501   6.753
 4868POPC   C3B63345  10.897  20.592   7.147
 4868POPC   C4B63346  11.009  20.962   7.242
 4869POPC   NC363347  25.554   9.953   5.064
 4869POPC   PO463348  24.978   9.848   5.399
 4869POPC   GL163349  25.096   9.712   5.879
 4869POPC   GL263350  25.459   9.729   5.941
 4869POPC   C1A63351  25.203   9.393   6.202
 4869POPC   D2A63352  25.418   9.548   6.531
 4869POPC   C3A63353  25.216   9.534   6.929
 4869POPC   C4A63354  25.342   9.640   7.392
 4869POPC   C1B63355  25.356  10.007   6.275
 4869POPC   C2B63356  25.141  10.040   6.667
 4869POPC   C3B63357  25.325  10.019   7.054
 4869POPC   C4B63358  25.147  10.145   7.426
 4870POPC   NC363359  34.594  26.596   5.474
 4870POPC   PO463360  34.466  27.186   5.654
 4870POPC   GL163361  34.682  26.855   5.918
 4870POPC   GL263362  34.971  26.573   5.837
 4870POPC   C1A63363  34.591  26.931   6.362
 4870POPC   D2A63364  34.672  27.176   6.722
 4870POPC   C3A63365  34.561  26.944   7.084
 4870POPC   C4A63366  34.208  26.667   7.114
 4870POPC   C1B63367  34.935  26.564   6.289
 4870POPC   C2B63368  34.639  26.436   6.515
 4870POPC   C3B63369  34.619  26.447   6.927
 4870POPC   C4B63370  34.544  26.330   7.336
 4871POPC   NC363371   8.585  31.563   5.505
 4871POPC   PO463372   7.991  31.278   5.432
 4871POPC   GL163373   8.107  31.608   5.782
 4871POPC   GL263374   8.387  31.465   5.957
 4871POPC   C1A63375   8.120  31.730   6.279
 4871POPC   D2A63376   8.009  31.582   6.729
 4871POPC   C3A63377   8.359  31.449   7.027
 4871POPC   C4A63378   8.346  31.564   7.488
 4871POPC   C1B63379   8.064  31.202   6.132
 4871POPC   C2B63380   7.913  31.094   6.549
 4871POPC   C3B63381   7.873  30.975   6.980
 4871POPC   C4B63382   8.053  31.196   7.327
 4872POPC   NC363383   4.532  14.296   5.523
 4872POPC   PO463384   4.005  14.113   5.196
 4872POPC   GL163385   4.048  14.101   5.681
 4872POPC   GL263386   4.343  13.960   5.846
 4872POPC   C1A63387   4.013  14.309   6.126
 4872POPC   D2A63388   4.155  14.514   6.543
 4872POPC   C3A63389   4.015  14.350   6.957
 4872POPC   C4A63390   4.136  14.429   7.382
 4872POPC   C1B63391   4.447  14.089   6.291
 4872POPC   C2B63392   4.425  14.128   6.757
 4872POPC   C3B63393   4.543  14.492   7.060
 4872POPC   C4B63394   4.600  14.454   7.571
 4873POPC   NC363395  11.265  28.546   5.365
 4873POPC   PO463396  11.425  28.002   5.201
 4873POPC   GL163397  11.368  28.148   5.705
 4873POPC   GL263398  11.327  28.497   5.858
 4873POPC   C1A63399  11.422  28.158   6.220
 4873POPC   D2A63400  11.506  28.026   6.691
 4873POPC   C3A63401  11.349  28.215   7.072
 4873POPC   C4A63402  10.934  28.163   7.233
 4873POPC   C1B63403  11.621  28.637   6.185
 4873POPC   C2B63404  11.646  28.528   6.608
 4873POPC   C3B63405  11.451  28.706   6.964
 4873POPC   C4B63406  11.571  28.905   7.358
 4874POPC   NC363407  10.097   2.726   5.283
 4874POPC   PO463408   9.567   2.873   5.677
 4874POPC   GL163409   9.617   2.866   6.080
 4874POPC   GL263410   9.867   3.115   6.008
 4874POPC   C1A63411   9.869   2.649   6.428
 4874POPC   D2A63412  10.192   2.557   6.747
 4874POPC   C3A63413   9.992   2.572   7.158
 4874POPC   C4A63414   9.525   2.574   7.165
 4874POPC   C1B63415   9.771   3.151   6.452
 4874POPC   C2B63416   9.432   2.981   6.690
 4874POPC   C3B63417   9.409   3.073   7.105
 4874POPC   C4B63418   9.820   3.071   7.162
 4875POPC   NC363419   3.804  41.357   5.420
 4875POPC   PO463420   3.504  41.994   5.373
 4875POPC   GL163421   3.425  41.781   5.801
 4875POPC   GL263422   3.488  41.420   5.847
 4875POPC   C1A63423   3.320  41.671   6.249
 4875POPC   D2A63424   3.596  41.715   6.610
 4875POPC   C3A63425   3.366  41.682   6.974
 4875POPC   C4A63426   3.335  41.895   7.319
 4875POPC   C1B63427   3.803  41.567   6.142
 4875POPC   C2B63428   3.966  41.375   6.532
 4875POPC   C3B63429   3.725  41.263   6.921
 4875POPC   C4B63430   3.568  41.371   7.335
 4876POPC   NC363431   8.525  26.408   5.355
 4876POPC   PO463432   8.017  25.830   5.386
 4876POPC   GL163433   8.111  26.040   5.796
 4876POPC   GL263434   8.477  26.080   5.751
 4876POPC   C1A63435   8.084  26.012   6.283
 4876POPC   D2A63436   7.956  26.042   6.733
 4876POPC   C3A63437   8.154  25.888   7.111
 4876POPC   C4A63438   8.014  25.741   7.505
 4876POPC   C1B63439   8.604  26.155   6.188
 4876POPC   C2B63440   8.526  26.015   6.630
 4876POPC   C3B63441   8.615  26.111   7.066
 4876POPC   C4B63442   8.710  25.738   7.301
 4877POPC   NC363443  11.991  23.161   5.398
 4877POPC   PO463444  11.769  22.546   5.518
 4877POPC   GL163445  11.980  22.820   5.823
 4877POPC   GL263446  12.216  23.128   5.855
 4877POPC   C1A63447  12.107  22.786   6.244
 4877POPC   D2A63448  12.200  23.007   6.609
 4877POPC   C3A63449  12.025  22.771   6.936
 4877POPC   C4A63450  11.648  22.678   7.142
 4877POPC   C1B63451  12.292  23.370   6.245
 4877POPC   C2B63452  12.311  23.537   6.677
 4877POPC   C3B63453  12.185  23.277   7.044
 4877POPC   C4B63454  11.847  23.170   7.314
 4878POPC   NC363455   0.163  39.327   5.302
 4878POPC   PO463456   0.793  39.284   5.539
 4878POPC   GL163457   0.544  39.326   5.918
 4878POPC   GL263458   0.174  39.292   5.833
 4878POPC   C1A63459   0.482  39.351   6.371
 4878POPC   D2A63460   0.707  39.236   6.721
 4878POPC   C3A63461   0.709  39.354   7.128
 4878POPC   C4A63462   0.932  39.159   7.408
 4878POPC   C1B63463   0.015  39.188   6.246
 4878POPC   C2B63464  44.915  39.408   6.609
 4878POPC   C3B63465   0.231  39.335   6.879
 4878POPC   C4B63466   0.227  39.195   7.260
 4879POPC   NC363467  38.934   1.738   5.346
 4879POPC   PO463468  39.537   1.963   5.287
 4879POPC   GL163469  39.189   2.049   5.668
 4879POPC   GL263470  39.084   1.736   5.866
 4879POPC   C1A63471  38.965   2.158   6.110
 4879POPC   D2A63472  39.010   1.896   6.516
 4879POPC   C3A63473  38.939   2.014   6.968
 4879POPC   C4A63474  39.109   1.942   7.381
 4879POPC   C1B63475  39.379   1.557   6.188
 4879POPC   C2B63476  39.363   1.507   6.608
 4879POPC   C3B63477  39.352   1.704   6.984
 4879POPC   C4B63478  39.534   1.622   7.367
 4880POPC   NC363479  20.888  18.243   5.529
 4880POPC   PO463480  20.212  18.293   5.501
 4880POPC   GL163481  20.335  18.590   5.833
 4880POPC   GL263482  20.711  18.550   5.887
 4880POPC   C1A63483  20.431  18.632   6.283
 4880POPC   D2A63484  20.655  18.514   6.642
 4880POPC   C3A63485  20.377  18.268   6.869
 4880POPC   C4A63486  20.314  18.348   7.293
 4880POPC   C1B63487  20.719  18.197   6.226
 4880POPC   C2B63488  20.861  18.054   6.674
 4880POPC   C3B63489  20.824  18.256   7.090
 4880POPC   C4B63490  20.752  18.204   7.525
 4881POPC   NC363491   4.436  31.102   5.367
 4881POPC   PO463492   4.656  31.683   5.488
 4881POPC   GL163493   4.355  31.458   5.736
 4881POPC   GL263494   4.018  31.607   5.776
 4881POPC   C1A63495   4.485  31.261   6.110
 4881POPC   D2A63496   4.660  31.420   6.478
 4881POPC   C3A63497   4.604  31.184   6.852
 4881POPC   C4A63498   4.433  31.443   7.146
 4881POPC   C1B63499   3.989  31.359   6.168
 4881POPC   C2B63500   4.149  31.299   6.572
 4881POPC   C3B63501   3.982  31.506   6.934
 4881POPC   C4B63502   3.932  31.220   7.253
 4882POPC   NC363503   6.306  11.790   5.417
 4882POPC   PO463504   6.903  12.205   5.475
 4882POPC   GL163505   6.692  12.147   5.842
 4882POPC   GL263506   6.584  11.808   5.833
 4882POPC   C1A63507   6.627  12.349   6.253
 4882POPC   D2A63508   6.522  12.181   6.667
 4882POPC   C3A63509   6.666  12.327   7.057
 4882POPC   C4A63510   6.604  12.186   7.495
 4882POPC   C1B63511   6.725  11.654   6.203
 4882POPC   C2B63512   6.641  11.648   6.617
 4882POPC   C3B63513   6.723  11.811   7.002
 4882POPC   C4B63514   6.533  11.696   7.376
 4883POPC   NC363515  41.905  20.345   5.304
 4883POPC   PO463516  41.562  19.832   5.341
 4883POPC   GL163517  41.502  20.020   5.777
 4883POPC   GL263518  41.123  20.024   5.878
 4883POPC   C1A63519  41.619  19.905   6.212
 4883POPC   D2A63520  41.861  19.756   6.580
 4883POPC   C3A63521  41.781  19.885   7.021
 4883POPC   C4A63522  41.487  20.057   7.324
 4883POPC   C1B63523  41.253  19.598   5.987
 4883POPC   C2B63524  41.388  19.441   6.389
 4883POPC   C3B63525  41.218  19.458   6.786
 4883POPC   C4B63526  41.414  19.543   7.166
 4884POPC   NC363527   1.551  38.073   5.449
 4884POPC   PO463528   1.143  37.621   5.285
 4884POPC   GL163529   1.374  37.652   5.701
 4884POPC   GL263530   1.364  37.909   5.926
 4884POPC   C1A63531   1.419  37.441   6.124
 4884POPC   D2A63532   1.223  37.294   6.523
 4884POPC   C3A63533   1.321  37.439   6.956
 4884POPC   C4A63534   1.264  37.836   7.137
 4884POPC   C1B63535   1.041  38.021   6.257
 4884POPC   C2B63536   1.063  37.994   6.680
 4884POPC   C3B63537   0.884  38.196   7.027
 4884POPC   C4B63538   0.758  37.998   7.384
 4885POPC   NC363539  23.458  30.197   5.410
 4885POPC   PO463540  24.033  29.916   5.557
 4885POPC   GL163541  23.742  30.007   5.870
 4885POPC   GL263542  23.429  30.241   5.899
 4885POPC   C1A63543  23.827  30.030   6.316
 4885POPC   D2A63544  23.864  30.239   6.709
 4885POPC   C3A63545  23.835  29.912   7.012
 4885POPC   C4A63546  23.945  29.909   7.459
 4885POPC   C1B63547  23.351  29.939   6.178
 4885POPC   C2B63548  23.313  29.741   6.560
 4885POPC   C3B63549  23.284  29.774   6.967
 4885POPC   C4B63550  23.414  30.077   7.225
 4886POPC   NC363551  15.465  27.116   5.451
 4886POPC   PO463552  16.130  27.193   5.233
 4886POPC   GL163553  15.966  27.036   5.666
 4886POPC   GL263554  15.741  26.744   5.731
 4886POPC   C1A63555  15.946  27.036   6.165
 4886POPC   D2A63556  16.004  26.931   6.634
 4886POPC   C3A63557  16.186  27.136   7.028
 4886POPC   C4A63558  16.073  27.196   7.478
 4886POPC   C1B63559  15.588  26.645   6.167
 4886POPC   C2B63560  15.699  26.523   6.595
 4886POPC   C3B63561  15.749  26.684   7.022
 4886POPC   C4B63562  15.660  26.475   7.424
 4887POPC   NC363563  30.216  38.549   5.146
 4887POPC   PO463564  30.723  38.234   5.414
 4887POPC   GL163565  30.716  38.433   5.848
 4887POPC   GL263566  30.731  38.766   5.762
 4887POPC   C1A63567  30.785  38.287   6.243
 4887POPC   D2A63568  30.477  38.174   6.550
 4887POPC   C3A63569  30.563  38.312   6.955
 4887POPC   C4A63570  30.926  38.416   7.194
 4887POPC   C1B63571  30.837  38.833   6.190
 4887POPC   C2B63572  30.764  38.668   6.612
 4887POPC   C3B63573  30.644  38.837   7.008
 4887POPC   C4B63574  30.667  38.791   7.465
 4888POPC   NC363575  36.387  16.120   5.402
 4888POPC   PO463576  35.880  15.765   5.361
 4888POPC   GL163577  36.142  15.855   5.761
 4888POPC   GL263578  36.262  16.145   5.900
 4888POPC   C1A63579  36.157  15.777   6.215
 4888POPC   D2A63580  36.201  15.892   6.631
 4888POPC   C3A63581  35.884  15.733   6.880
 4888POPC   C4A63582  35.938  15.490   7.216
 4888POPC   C1B63583  36.048  16.270   6.259
 4888POPC   C2B63584  35.820  16.256   6.613
 4888POPC   C3B63585  36.008  16.219   6.988
 4888POPC   C4B63586  36.266  15.893   7.190
 4889POPC   NC363587  37.634  38.627   5.284
 4889POPC   PO463588  37.507  38.067   5.678
 4889POPC   GL163589  37.805  38.398   5.762
 4889POPC   GL263590  37.648  38.730   5.821
 4889POPC   C1A63591  38.069  38.575   6.095
 4889POPC   D2A63592  37.970  38.567   6.536
 4889POPC   C3A63593  37.884  38.574   7.007
 4889POPC   C4A63594  37.932  38.255   7.336
 4889POPC   C1B63595  37.568  38.493   6.229
 4889POPC   C2B63596  37.458  38.529   6.680
 4889POPC   C3B63597  37.476  38.280   7.091
 4889POPC   C4B63598  37.314  38.180   7.515
 4890POPC   NC363599  37.854  40.790   5.366
 4890POPC   PO463600  37.223  40.729   5.401
 4890POPC   GL163601  37.397  40.947   5.767
 4890POPC   GL263602  37.778  40.981   5.825
 4890POPC   C1A63603  37.411  40.926   6.211
 4890POPC   D2A63604  37.541  40.690   6.574
 4890POPC   C3A63605  37.522  40.818   6.996
 4890POPC   C4A63606  37.750  40.527   7.262
 4890POPC   C1B63607  37.898  40.730   6.188
 4890POPC   C2B63608  38.119  40.766   6.581
 4890POPC   C3B63609  38.017  40.961   6.972
 4890POPC   C4B63610  38.189  40.798   7.319
 4891POPC   NC363611  10.180  27.762   5.334
 4891POPC   PO463612   9.718  27.352   5.486
 4891POPC   GL163613   9.787  27.464   5.883
 4891POPC   GL263614   9.965  27.805   5.887
 4891POPC   C1A63615   9.706  27.349   6.287
 4891POPC   D2A63616   9.945  27.539   6.558
 4891POPC   C3A63617   9.788  27.374   6.903
 4891POPC   C4A63618   9.774  27.321   7.338
 4891POPC   C1B63619   9.633  27.860   6.227
 4891POPC   C2B63620   9.492  27.734   6.665
 4891POPC   C3B63621   9.570  27.760   7.130
 4891POPC   C4B63622   9.859  27.840   7.431
 4892POPC   NC363623  19.789  26.896   5.554
 4892POPC   PO463624  19.869  26.329   5.245
 4892POPC   GL163625  19.751  26.427   5.760
 4892POPC   GL263626  20.041  26.404   6.002
 4892POPC   C1A63627  19.653  26.670   6.171
 4892POPC   D2A63628  19.655  26.845   6.608
 4892POPC   C3A63629  19.977  27.087   6.843
 4892POPC   C4A63630  19.848  27.142   7.277
 4892POPC   C1B63631  20.144  26.517   6.396
 4892POPC   C2B63632  20.031  26.455   6.808
 4892POPC   C3B63633  19.786  26.675   7.093
 4892POPC   C4B63634  19.881  26.575   7.510
 4893POPC   NC363635  43.459  36.770   5.394
 4893POPC   PO463636  44.126  36.867   5.278
 4893POPC   GL163637  43.961  37.067   5.691
 4893POPC   GL263638  44.198  37.321   5.803
 4893POPC   C1A63639  43.872  36.995   6.160
 4893POPC   D2A63640  43.682  36.751   6.524
 4893POPC   C3A63641  43.642  36.670   6.989
 4893POPC   C4A63642  43.690  36.851   7.418
 4893POPC   C1B63643  44.343  37.199   6.244
 4893POPC   C2B63644  44.133  37.039   6.637
 4893POPC   C3B63645  44.036  37.037   7.079
 4893POPC   C4B63646  44.183  37.195   7.525
 4894POPC   NC363647  32.407   7.524   5.420
 4894POPC   PO463648  31.850   7.457   5.405
 4894POPC   GL163649  32.077   7.459   5.836
 4894POPC   GL263650  31.942   7.725   6.016
 4894POPC   C1A63651  32.400   7.475   6.229
 4894POPC   D2A63652  32.584   7.282   6.655
 4894POPC   C3A63653  32.362   7.162   7.063
 4894POPC   C4A63654  32.000   7.333   7.310
 4894POPC   C1B63655  31.910   7.442   6.375
 4894POPC   C2B63656  32.006   7.461   6.815
 4894POPC   C3B63657  32.103   7.801   7.115
 4894POPC   C4B63658  31.909   8.134   7.412
 4895POPC   NC363659   1.176   2.664   5.121
 4895POPC   PO463660   0.443   2.687   5.099
 4895POPC   GL163661   0.384   2.744   5.577
 4895POPC   GL263662   0.573   3.029   5.739
 4895POPC   C1A63663   0.322   2.675   6.046
 4895POPC   D2A63664   0.452   2.564   6.484
 4895POPC   C3A63665   0.411   2.840   6.876
 4895POPC   C4A63666   0.637   2.737   7.258
 4895POPC   C1B63667   0.287   3.191   6.053
 4895POPC   C2B63668   0.260   3.231   6.509
 4895POPC   C3B63669  44.989   3.169   6.878
 4895POPC   C4B63670   0.006   2.939   7.236
 4896POPC   NC363671  30.779  25.151   5.388
 4896POPC   PO463672  30.184  25.501   5.387
 4896POPC   GL163673  30.514  25.529   5.760
 4896POPC   GL263674  30.791  25.261   5.863
 4896POPC   C1A63675  30.692  25.609   6.180
 4896POPC   D2A63676  30.983  25.651   6.505
 4896POPC   C3A63677  31.002  25.421   6.888
 4896POPC   C4A63678  30.869  25.478   7.316
 4896POPC   C1B63679  30.938  25.150   6.278
 4896POPC   C2B63680  31.123  24.956   6.645
 4896POPC   C3B63681  30.935  24.952   7.090
 4896POPC   C4B63682  31.159  25.094   7.468
 4897POPC   NC363683  31.754  34.335   5.087
 4897POPC   PO463684  32.362  34.681   5.355
 4897POPC   GL163685  32.461  34.580   5.791
 4897POPC   GL263686  32.090  34.629   5.822
 4897POPC   C1A63687  32.291  34.334   6.182
 4897POPC   D2A63688  32.125  34.512   6.561
 4897POPC   C3A63689  32.136  34.306   6.928
 4897POPC   C4A63690  32.288  34.430   7.304
 4897POPC   C1B63691  31.983  34.864   6.211
 4897POPC   C2B63692  31.835  34.927   6.667
 4897POPC   C3B63693  31.967  34.811   7.089
 4897POPC   C4B63694  31.961  34.749   7.530
 4898POPC   NC363695  36.594  17.627   5.510
 4898POPC   PO463696  37.268  17.504   5.522
 4898POPC   GL163697  36.931  17.256   5.707
 4898POPC   GL263698  36.904  17.537   5.949
 4898POPC   C1A63699  36.757  17.040   6.088
 4898POPC   D2A63700  37.024  17.062   6.457
 4898POPC   C3A63701  36.927  17.276   6.829
 4898POPC   C4A63702  36.901  17.212   7.285
 4898POPC   C1B63703  36.724  17.475   6.363
 4898POPC   C2B63704  36.488  17.573   6.705
 4898POPC   C3B63705  36.683  17.649   7.069
 4898POPC   C4B63706  37.097  17.681   7.122
 4899POPC   NC363707  17.756   8.425   5.370
 4899POPC   PO463708  17.232   7.995   5.451
 4899POPC   GL163709  17.547   8.140   5.782
 4899POPC   GL263710  17.519   8.476   5.825
 4899POPC   C1A63711  17.580   8.050   6.231
 4899POPC   D2A63712  17.278   7.979   6.568
 4899POPC   C3A63713  17.309   8.192   6.956
 4899POPC   C4A63714  17.501   7.943   7.207
 4899POPC   C1B63715  17.677   8.578   6.214
 4899POPC   C2B63716  17.590   8.425   6.603
 4899POPC   C3B63717  17.817   8.194   6.899
 4899POPC   C4B63718  17.860   8.302   7.336
 4900POPC   NC363719  40.252  26.253   5.449
 4900POPC   PO463720  39.946  25.666   5.499
 4900POPC   GL163721  39.947  25.889   5.885
 4900POPC   GL263722  40.058  26.234   5.916
 4900POPC   C1A63723  40.011  25.914   6.335
 4900POPC   D2A63724  39.981  26.198   6.672
 4900POPC   C3A63725  39.934  25.911   7.007
 4900POPC   C4A63726  40.270  25.674   7.145
 4900POPC   C1B63727  39.682  26.276   6.157
 4900POPC   C2B63728  39.520  26.428   6.549
 4900POPC   C3B63729  39.603  26.314   6.996
 4900POPC   C4B63730  39.638  26.102   7.403
 4901POPC   NC363731  18.971  31.193   5.231
 4901POPC   PO463732  19.340  30.708   5.495
 4901POPC   GL163733  19.047  30.592   5.798
 4901POPC   GL263734  18.882  30.926   5.691
 4901POPC   C1A63735  19.169  30.343   6.180
 4901POPC   D2A63736  19.161  30.582   6.595
 4901POPC   C3A63737  19.268  30.433   7.028
 4901POPC   C4A63738  19.180  30.636   7.441
 4901POPC   C1B63739  18.686  31.053   6.066
 4901POPC   C2B63740  18.864  31.024   6.462
 4901POPC   C3B63741  18.907  30.917   6.885
 4901POPC   C4B63742  18.883  31.006   7.285
 4902POPC   NC363743  40.263  21.834   5.353
 4902POPC   PO463744  39.674  21.996   5.372
 4902POPC   GL163745  39.948  21.934   5.745
 4902POPC   GL263746  39.800  21.741   5.996
 4902POPC   C1A63747  40.022  22.243   6.107
 4902POPC   D2A63748  40.219  22.228   6.537
 4902POPC   C3A63749  40.084  22.391   6.947
 4902POPC   C4A63750  40.234  22.256   7.354
 4902POPC   C1B63751  39.654  21.973   6.318
 4902POPC   C2B63752  39.726  22.021   6.732
 4902POPC   C3B63753  39.571  21.959   7.105
 4902POPC   C4B63754  39.545  21.578   7.246
 4903POPC   NC363755  26.432  38.421   5.234
 4903POPC   PO463756  26.920  38.225   5.444
 4903POPC   GL163757  26.964  38.430   5.846
 4903POPC   GL263758  26.738  38.715   5.870
 4903POPC   C1A63759  26.932  38.417   6.308
 4903POPC   D2A63760  26.672  38.488   6.698
 4903POPC   C3A63761  26.787  38.323   7.112
 4903POPC   C4A63762  26.887  38.073   7.496
 4903POPC   C1B63763  26.681  38.865   6.314
 4903POPC   C2B63764  26.667  38.998   6.754
 4903POPC   C3B63765  26.866  38.859   7.129
 4903POPC   C4B63766  26.687  38.816   7.570
 4904POPC   NC363767  36.717  12.363   5.642
 4904POPC   PO463768  36.705  12.864   5.163
 4904POPC   GL163769  36.885  12.854   5.649
 4904POPC   GL263770  36.611  12.814   5.904
 4904POPC   C1A63771  37.026  13.018   6.106
 4904POPC   D2A63772  36.809  13.241   6.473
 4904POPC   C3A63773  36.842  13.082   6.948
 4904POPC   C4A63774  37.134  12.857   7.270
 4904POPC   C1B63775  36.737  12.614   6.236
 4904POPC   C2B63776  36.805  12.724   6.595
 4904POPC   C3B63777  36.891  12.563   6.949
 4904POPC   C4B63778  36.673  12.610   7.306
 4905POPC   NC363779  44.760   2.683   5.546
 4905POPC   PO463780  44.109   2.703   5.586
 4905POPC   GL163781  44.381   2.704   5.895
 4905POPC   GL263782  44.511   3.049   5.957
 4905POPC   C1A63783  44.318   2.733   6.312
 4905POPC   D2A63784  44.566   2.974   6.594
 4905POPC   C3A63785  44.578   2.809   6.982
 4905POPC   C4A63786  44.365   2.498   7.211
 4905POPC   C1B63787  44.826   2.780   6.198
 4905POPC   C2B63788  44.992   2.704   6.621
 4905POPC   C3B63789  44.957   2.477   7.013
 4905POPC   C4B63790  44.794   2.552   7.485
 4906POPC   NC363791   6.873  18.456   5.477
 4906POPC   PO463792   6.313  18.082   5.436
 4906POPC   GL163793   6.562  18.164   5.775
 4906POPC   GL263794   6.844  17.959   5.751
 4906POPC   C1A63795   6.616  18.412   6.123
 4906POPC   D2A63796   6.391  18.435   6.477
 4906POPC   C3A63797   6.595  18.571   6.828
 4906POPC   C4A63798   6.427  18.627   7.202
 4906POPC   C1B63799   6.969  18.050   6.169
 4906POPC   C2B63800   6.940  18.239   6.557
 4906POPC   C3B63801   6.830  18.123   6.964
 4906POPC   C4B63802   6.516  18.127   7.240
 4907POPC   NC363803  27.802  21.613   5.323
 4907POPC   PO463804  28.433  21.327   5.170
 4907POPC   GL163805  28.343  21.304   5.639
 4907POPC   GL263806  28.054  21.496   5.815
 4907POPC   C1A63807  28.497  21.324   6.075
 4907POPC   D2A63808  28.503  21.512   6.496
 4907POPC   C3A63809  28.275  21.313   6.865
 4907POPC   C4A63810  28.228  21.192   7.303
 4907POPC   C1B63811  27.881  21.764   6.186
 4907POPC   C2B63812  27.919  21.680   6.661
 4907POPC   C3B63813  28.085  21.764   7.083
 4907POPC   C4B63814  28.106  21.631   7.549
 4908POPC   NC363815  33.431  36.245   5.623
 4908POPC   PO463816  33.966  35.958   5.370
 4908POPC   GL163817  33.890  35.945   5.799
 4908POPC   GL263818  34.058  36.234   5.922
 4908POPC   C1A63819  33.612  35.909   6.172
 4908POPC   D2A63820  33.759  35.729   6.571
 4908POPC   C3A63821  33.666  35.843   6.977
 4908POPC   C4A63822  34.089  35.932   7.091
 4908POPC   C1B63823  34.023  36.160   6.375
 4908POPC   C2B63824  33.615  36.237   6.565
 4908POPC   C3B63825  33.447  36.326   6.933
 4908POPC   C4B63826  33.790  36.339   7.141
 4909POPC   NC363827   0.040  32.536   5.389
 4909POPC   PO463828  44.670  33.163   5.256
 4909POPC   GL163829  44.831  33.121   5.699
 4909POPC   GL263830  44.997  32.794   5.824
 4909POPC   C1A63831  44.829  33.216   6.149
 4909POPC   D2A63832  44.630  33.206   6.553
 4909POPC   C3A63833  44.620  33.364   6.957
 4909POPC   C4A63834  44.678  33.118   7.343
 4909POPC   C1B63835  44.718  32.694   6.176
 4909POPC   C2B63836  44.417  32.750   6.520
 4909POPC   C3B63837  44.548  32.834   6.944
 4909POPC   C4B63838  44.898  32.652   7.208
 4910POPC   NC363839  29.180  22.309   5.375
 4910POPC   PO463840  28.635  21.979   5.546
 4910POPC   GL163841  28.901  22.267   5.811
 4910POPC   GL263842  29.292  22.170   5.848
 4910POPC   C1A63843  29.017  22.318   6.250
 4910POPC   D2A63844  28.868  22.082   6.612
 4910POPC   C3A63845  28.815  22.275   7.056
 4910POPC   C4A63846  28.871  22.408   7.530
 4910POPC   C1B63847  29.338  21.909   6.241
 4910POPC   C2B63848  29.356  21.897   6.709
 4910POPC   C3B63849  29.076  21.758   7.050
 4910POPC   C4B63850  28.926  21.922   7.422
 4911POPC   NC363851  31.155  41.851   5.423
 4911POPC   PO463852  31.597  41.346   5.071
 4911POPC   GL163853  31.523  41.531   5.564
 4911POPC   GL263854  31.678  41.814   5.739
 4911POPC   C1A63855  31.501  41.436   6.064
 4911POPC   D2A63856  31.242  41.452   6.483
 4911POPC   C3A63857  31.362  41.577   6.926
 4911POPC   C4A63858  31.468  41.442   7.372
 4911POPC   C1B63859  31.557  41.932   6.163
 4911POPC   C2B63860  31.389  41.984   6.553
 4911POPC   C3B63861  31.253  42.100   6.945
 4911POPC   C4B63862  31.396  41.966   7.308
 4912POPC   NC363863  43.013  43.458   5.816
 4912POPC   PO463864  43.275  42.939   5.407
 4912POPC   GL163865  43.313  43.015   5.819
 4912POPC   GL263866  42.979  42.964   5.889
 4912POPC   C1A63867  43.461  43.194   6.229
 4912POPC   D2A63868  43.232  43.106   6.627
 4912POPC   C3A63869  43.328  43.175   7.068
 4912POPC   C4A63870  43.042  43.334   7.381
 4912POPC   C1B63871  42.756  42.776   6.213
 4912POPC   C2B63872  42.641  42.900   6.624
 4912POPC   C3B63873  42.817  43.160   6.929
 4912POPC   C4B63874  42.898  42.881   7.246
 4913POPC   NC363875   3.155  41.682   5.374
 4913POPC   PO463876   2.609  41.326   5.504
 4913POPC   GL163877   2.959  41.397   5.807
 4913POPC   GL263878   2.919  41.742   5.813
 4913POPC   C1A63879   2.866  41.428   6.266
 4913POPC   D2A63880   2.485  41.407   6.517
 4913POPC   C3A63881   2.464  41.670   6.904
 4913POPC   C4A63882   2.588  41.337   7.180
 4913POPC   C1B63883   2.590  41.822   6.056
 4913POPC   C2B63884   2.654  41.892   6.468
 4913POPC   C3B63885   2.928  41.686   6.739
 4913POPC   C4B63886   2.876  41.748   7.197
 4914POPC   NC363887  43.537  35.072   5.462
 4914POPC   PO463888  44.135  35.222   5.154
 4914POPC   GL163889  44.049  35.255   5.655
 4914POPC   GL263890  43.823  35.027   5.870
 4914POPC   C1A63891  44.072  35.344   6.149
 4914POPC   D2A63892  43.940  35.576   6.511
 4914POPC   C3A63893  43.806  35.453   6.933
 4914POPC   C4A63894  43.884  35.057   7.174
 4914POPC   C1B63895  43.597  35.146   6.285
 4914POPC   C2B63896  43.548  35.045   6.733
 4914POPC   C3B63897  43.385  35.169   7.134
 4914POPC   C4B63898  43.563  35.125   7.567
 4915POPC   NC363899   0.750  37.474   5.484
 4915POPC   PO463900   0.272  37.864   5.458
 4915POPC   GL163901   0.510  37.816   5.820
 4915POPC   GL263902   0.872  37.886   5.774
 4915POPC   C1A63903   0.447  37.839   6.251
 4915POPC   D2A63904   0.548  38.001   6.639
 4915POPC   C3A63905   0.351  37.929   7.048
 4915POPC   C4A63906   0.392  37.603   7.338
 4915POPC   C1B63907   0.906  37.557   6.112
 4915POPC   C2B63908   0.752  37.527   6.532
 4915POPC   C3B63909   0.785  37.665   6.954
 4915POPC   C4B63910   0.895  37.501   7.309
 4916POPC   NC363911  41.723  26.852   5.357
 4916POPC   PO463912  41.241  27.285   5.558
 4916POPC   GL163913  41.544  27.099   5.774
 4916POPC   GL263914  41.436  26.762   5.832
 4916POPC   C1A63915  41.616  27.070   6.193
 4916POPC   D2A63916  41.544  26.807   6.513
 4916POPC   C3A63917  41.889  26.851   6.777
 4916POPC   C4A63918  41.802  27.066   7.150
 4916POPC   C1B63919  41.112  26.556   6.118
 4916POPC   C2B63920  41.169  26.433   6.568
 4916POPC   C3B63921  41.368  26.568   6.949
 4916POPC   C4B63922  41.781  26.520   7.141
 4917POPC   NC363923   7.661  15.108   5.490
 4917POPC   PO463924   7.120  14.753   5.435
 4917POPC   GL163925   7.308  14.924   5.826
 4917POPC   GL263926   7.666  14.817   5.961
 4917POPC   C1A63927   7.451  15.248   6.120
 4917POPC   D2A63928   7.850  15.195   6.348
 4917POPC   C3A63929   7.931  15.431   6.746
 4917POPC   C4A63930   7.716  15.419   7.146
 4917POPC   C1B63931   7.389  14.803   6.372
 4917POPC   C2B63932   7.235  14.920   6.819
 4917POPC   C3B63933   7.328  14.956   7.282
 4917POPC   C4B63934   7.424  14.833   7.748
 4918POPC   NC363935  34.039   0.200   5.517
 4918POPC   PO463936  33.836  44.543   5.368
 4918POPC   GL163937  33.902  44.593   5.825
 4918POPC   GL263938  33.668  44.373   6.011
 4918POPC   C1A63939  34.066  44.863   6.194
 4918POPC   D2A63940  33.871  44.966   6.609
 4918POPC   C3A63941  34.000  44.831   7.009
 4918POPC   C4A63942  33.856  44.480   7.170
 4918POPC   C1B63943  33.548  44.822   6.172
 4918POPC   C2B63944  33.347  44.944   6.562
 4918POPC   C3B63945  33.468  44.851   6.968
 4918POPC   C4B63946  33.564  44.825   7.389
 4919POPC   NC363947   7.853  33.286   5.536
 4919POPC   PO463948   8.363  32.974   5.210
 4919POPC   GL163949   8.370  33.053   5.671
 4919POPC   GL263950   8.322  33.383   5.815
 4919POPC   C1A63951   8.162  32.965   6.081
 4919POPC   D2A63952   7.978  33.140   6.463
 4919POPC   C3A63953   8.073  32.997   6.868
 4919POPC   C4A63954   7.960  33.021   7.288
 4919POPC   C1B63955   8.396  33.377   6.281
 4919POPC   C2B63956   8.531  33.187   6.705
 4919POPC   C3B63957   8.423  33.239   7.178
 4919POPC   C4B63958   8.527  33.246   7.653
 4920POPC   NC363959  30.463   2.946   5.403
 4920POPC   PO463960  31.102   2.927   5.332
 4920POPC   GL163961  30.836   2.790   5.735
 4920POPC   GL263962  30.465   2.701   5.848
 4920POPC   C1A63963  30.815   2.775   6.190
 4920POPC   D2A63964  30.692   2.852   6.594
 4920POPC   C3A63965  30.908   2.595   6.871
 4920POPC   C4A63966  30.846   2.786   7.194
 4920POPC   C1B63967  30.289   2.703   6.273
 4920POPC   C2B63968  30.202   2.781   6.719
 4920POPC   C3B63969  30.148   2.524   7.084
 4920POPC   C4B63970  30.392   2.691   7.392
 4921POPC   NC363971  14.154  12.478   5.368
 4921POPC   PO463972  13.490  12.702   5.326
 4921POPC   GL163973  13.620  12.888   5.720
 4921POPC   GL263974  13.815  12.590   5.757
 4921POPC   C1A63975  13.569  13.077   6.146
 4921POPC   D2A63976  13.262  13.080   6.458
 4921POPC   C3A63977  13.387  13.078   6.891
 4921POPC   C4A63978  13.130  13.159   7.217
 4921POPC   C1B63979  13.837  12.510   6.203
 4921POPC   C2B63980  13.700  12.741   6.595
 4921POPC   C3B63981  13.675  12.684   7.049
 4921POPC   C4B63982  13.937  12.686   7.415
 4922POPC   NC363983   7.874  21.664   5.422
 4922POPC   PO463984   8.277  21.124   5.313
 4922POPC   GL163985   8.337  21.262   5.749
 4922POPC   GL263986   8.182  21.582   5.856
 4922POPC   C1A63987   8.507  21.260   6.192
 4922POPC   D2A63988   8.434  21.360   6.651
 4922POPC   C3A63989   8.373  21.029   6.966
 4922POPC   C4A63990   8.148  21.039   7.371
 4922POPC   C1B63991   7.855  21.720   6.184
 4922POPC   C2B63992   7.627  21.741   6.611
 4922POPC   C3B63993   7.688  21.580   7.012
 4922POPC   C4B63994   8.148  21.507   7.086
 4923POPC   NC363995   9.751   3.832   5.108
 4923POPC   PO463996   9.881   3.162   5.262
 4923POPC   GL163997   9.696   3.471   5.672
 4923POPC   GL263998   9.922   3.756   5.823
 4923POPC   C1A63999   9.612   3.544   6.158
 4923POPC   D2A64000   9.329   3.467   6.501
 4923POPC   C3A64001   9.593   3.468   6.837
 4923POPC   C4A64002   9.679   3.550   7.239
 4923POPC   C1B64003  10.120   3.508   6.171
 4923POPC   C2B64004  10.058   3.541   6.578
 4923POPC   C3B64005  10.166   3.463   6.987
 4923POPC   C4B64006  10.160   3.570   7.401
 4924POPC   NC364007  34.865  40.315   5.416
 4924POPC   PO464008  35.557  40.265   5.377
 4924POPC   GL164009  35.433  40.000   5.786
 4924POPC   GL264010  35.681  39.750   5.919
 4924POPC   C1A64011  35.374  39.934   6.273
 4924POPC   D2A64012  35.156  39.873   6.683
 4924POPC   C3A64013  35.273  40.083   7.090
 4924POPC   C4A64014  35.186  40.477   7.379
 4924POPC   C1B64015  35.664  39.489   6.322
 4924POPC   C2B64016  35.611  39.639   6.748
 4924POPC   C3B64017  35.664  39.678   7.175
 4924POPC   C4B64018  35.717  40.062   7.362
 4925POPC   NC364019   2.045  13.926   5.412
 4925POPC   PO464020   1.519  13.385   5.378
 4925POPC   GL164021   1.647  13.726   5.707
 4925POPC   GL264022   2.018  13.711   5.856
 4925POPC   C1A64023   1.635  13.700   6.170
 4925POPC   D2A64024   1.879  13.798   6.519
 4925POPC   C3A64025   2.112  13.480   6.686
 4925POPC   C4A64026   2.007  13.438   7.094
 4925POPC   C1B64027   2.312  13.683   6.208
 4925POPC   C2B64028   2.358  13.943   6.581
 4925POPC   C3B64029   2.292  13.859   7.008
 4925POPC   C4B64030   2.496  13.600   7.247
 4926POPC   NC364031  37.418  24.104   5.468
 4926POPC   PO464032  37.838  23.559   5.323
 4926POPC   GL164033  37.885  23.635   5.781
 4926POPC   GL264034  37.861  23.993   5.753
 4926POPC   C1A64035  37.740  23.546   6.243
 4926POPC   D2A64036  37.458  23.428   6.596
 4926POPC   C3A64037  37.557  23.457   7.042
 4926POPC   C4A64038  37.887  23.667   7.234
 4926POPC   C1B64039  37.805  24.116   6.182
 4926POPC   C2B64040  37.645  23.962   6.577
 4926POPC   C3B64041  37.540  23.957   6.994
 4926POPC   C4B64042  37.673  24.155   7.348
 4927POPC   NC364043  19.640  44.850   5.641
 4927POPC   PO464044  19.138  44.527   5.308
 4927POPC   GL164045  19.070  44.707   5.748
 4927POPC   GL264046  19.327  44.697   6.006
 4927POPC   C1A64047  18.835  44.793   6.154
 4927POPC   D2A64048  19.004  44.870   6.581
 4927POPC   C3A64049  18.840  44.695   6.992
 4927POPC   C4A64050  18.694  44.301   7.202
 4927POPC   C1B64051  19.479  44.918   6.360
 4927POPC   C2B64052  19.456  44.960   6.823
 4927POPC   C3B64053  19.283  44.793   7.224
 4927POPC   C4B64054  19.399  44.810   7.666
 4928POPC   NC364055   8.241  44.708   5.310
 4928POPC   PO464056   8.232  44.023   5.301
 4928POPC   GL164057   8.287  44.315   5.706
 4928POPC   GL264058   8.391  44.672   5.790
 4928POPC   C1A64059   8.284  44.409   6.195
 4928POPC   D2A64060   8.379  44.611   6.603
 4928POPC   C3A64061   8.096  44.510   6.941
 4928POPC   C4A64062   8.196  44.516   7.338
 4928POPC   C1B64063   8.328  44.955   6.160
 4928POPC   C2B64064   8.349   0.161   6.605
 4928POPC   C3B64065   8.304  44.959   7.029
 4928POPC   C4B64066   8.001   0.041   7.359
 4929POPC   NC364067  21.473  18.368   5.375
 4929POPC   PO464068  21.879  17.818   5.390
 4929POPC   GL164069  21.679  18.073   5.748
 4929POPC   GL264070  21.712  18.432   5.830
 4929POPC   C1A64071  21.307  18.159   6.069
 4929POPC   D2A64072  21.138  18.434   6.419
 4929POPC   C3A64073  21.253  18.383   6.865
 4929POPC   C4A64074  21.261  18.234   7.333
 4929POPC   C1B64075  21.556  18.679   6.175
 4929POPC   C2B64076  21.438  18.811   6.594
 4929POPC   C3B64077  21.666  18.704   6.938
 4929POPC   C4B64078  21.717  18.528   7.331
 4930POPC   NC364079  29.861  43.859   5.422
 4930POPC   PO464080  30.330  43.778   5.862
 4930POPC   GL164081  29.959  43.982   5.892
 4930POPC   GL264082  29.809  43.630   5.873
 4930POPC   C1A64083  29.927  44.203   6.235
 4930POPC   D2A64084  30.121  44.011   6.612
 4930POPC   C3A64085  29.995  44.097   7.028
 4930POPC   C4A64086  29.627  44.100   7.223
 4930POPC   C1B64087  29.729  43.732   6.312
 4930POPC   C2B64088  29.792  43.630   6.752
 4930POPC   C3B64089  30.081  43.569   7.058
 4930POPC   C4B64090  30.001  43.737   7.454
 4931POPC   NC364091   7.997  20.732   5.338
 4931POPC   PO464092   8.428  20.244   5.335
 4931POPC   GL164093   8.229  20.447   5.694
 4931POPC   GL264094   8.435  20.740   5.736
 4931POPC   C1A64095   8.044  20.651   6.084
 4931POPC   D2A64096   8.179  20.843   6.509
 4931POPC   C3A64097   8.032  20.641   6.920
 4931POPC   C4A64098   7.896  20.574   7.367
 4931POPC   C1B64099   8.528  20.478   6.112
 4931POPC   C2B64100   8.714  20.417   6.503
 4931POPC   C3B64101   8.541  20.437   6.913
 4931POPC   C4B64102   8.395  20.615   7.297
 4932POPC   NC364103  39.824  19.109   5.405
 4932POPC   PO464104  40.477  18.887   5.464
 4932POPC   GL164105  40.131  18.876   5.789
 4932POPC   GL264106  39.727  18.855   5.815
 4932POPC   C1A64107  40.014  19.112   6.178
 4932POPC   D2A64108  39.937  19.365   6.566
 4932POPC   C3A64109  40.056  19.252   7.003
 4932POPC   C4A64110  40.389  19.489   7.226
 4932POPC   C1B64111  39.541  18.904   6.164
 4932POPC   C2B64112  39.706  18.899   6.545
 4932POPC   C3B64113  39.589  19.021   6.910
 4932POPC   C4B64114  39.632  18.827   7.256
 4933POPC   NC364115  22.268  10.936   5.101
 4933POPC   PO464116  22.257  10.295   5.341
 4933POPC   GL164117  22.233  10.498   5.804
 4933POPC   GL264118  21.886  10.458   5.997
 4933POPC   C1A64119  22.252  10.624   6.271
 4933POPC   D2A64120  22.408  10.389   6.594
 4933POPC   C3A64121  22.379  10.582   6.981
 4933POPC   C4A64122  22.378  10.451   7.393
 4933POPC   C1B64123  22.092  10.129   6.231
 4933POPC   C2B64124  21.967  10.070   6.644
 4933POPC   C3B64125  21.941  10.332   6.984
 4933POPC   C4B64126  21.892  10.792   7.084
 4934POPC   NC364127  16.949   9.196   5.335
 4934POPC   PO464128  17.482   8.799   5.410
 4934POPC   GL164129  17.348   8.965   5.746
 4934POPC   GL264130  17.080   8.716   5.754
 4934POPC   C1A64131  17.596   9.074   6.119
 4934POPC   D2A64132  17.766   9.276   6.516
 4934POPC   C3A64133  17.751   8.945   6.822
 4934POPC   C4A64134  17.599   8.635   7.081
 4934POPC   C1B64135  17.124   8.808   6.178
 4934POPC   C2B64136  17.290   8.839   6.584
 4934POPC   C3B64137  17.098   8.676   6.961
 4934POPC   C4B64138  17.225   8.764   7.382
 4935POPC   NC364139  19.543  40.055   5.490
 4935POPC   PO464140  20.006  39.639   5.349
 4935POPC   GL164141  19.976  39.926   5.760
 4935POPC   GL264142  20.259  39.866   5.938
 4935POPC   C1A64143  19.850  40.092   6.221
 4935POPC   D2A64144  19.580  40.224   6.647
 4935POPC   C3A64145  19.720  40.089   7.090
 4935POPC   C4A64146  20.095  40.207   7.356
 4935POPC   C1B64147  20.177  39.693   6.299
 4935POPC   C2B64148  19.977  39.861   6.684
 4935POPC   C3B64149  20.153  39.788   7.077
 4935POPC   C4B64150  20.300  39.401   7.277
 4936POPC   NC364151   8.032  41.128   5.498
 4936POPC   PO464152   8.247  40.503   5.292
 4936POPC   GL164153   8.344  40.627   5.744
 4936POPC   GL264154   8.659  40.402   5.736
 4936POPC   C1A64155   8.204  40.812   6.185
 4936POPC   D2A64156   8.017  40.665   6.612
 4936POPC   C3A64157   8.014  40.906   7.009
 4936POPC   C4A64158   8.069  41.146   7.388
 4936POPC   C1B64159   8.555  40.440   6.171
 4936POPC   C2B64160   8.635  40.632   6.562
 4936POPC   C3B64161   8.685  40.540   7.006
 4936POPC   C4B64162   8.442  40.755   7.331
 4937POPC   NC364163   4.533  41.112   5.297
 4937POPC   PO464164   4.409  41.820   5.222
 4937POPC   GL164165   4.317  41.509   5.574
 4937POPC   GL264166   4.534  41.719   5.788
 4937POPC   C1A64167   4.268  41.378   6.045
 4937POPC   D2A64168   4.456  41.542   6.455
 4937POPC   C3A64169   4.392  41.295   6.856
 4937POPC   C4A64170   4.136  41.339   7.230
 4937POPC   C1B64171   4.174  41.895   5.978
 4937POPC   C2B64172   4.082  41.910   6.416
 4937POPC   C3B64173   4.154  41.782   6.834
 4937POPC   C4B64174   3.836  41.745   7.119
 4938POPC   NC364175  13.535   5.214   5.424
 4938POPC   PO464176  14.156   4.929   5.467
 4938POPC   GL164177  14.031   5.127   5.811
 4938POPC   GL264178  13.686   4.988   5.836
 4938POPC   C1A64179  13.955   5.135   6.229
 4938POPC   D2A64180  13.814   4.850   6.541
 4938POPC   C3A64181  13.897   5.035   6.938
 4938POPC   C4A64182  13.871   5.160   7.355
 4938POPC   C1B64183  13.462   5.119   6.222
 4938POPC   C2B64184  13.612   5.317   6.608
 4938POPC   C3B64185  13.531   5.377   7.028
 4938POPC   C4B64186  13.386   5.022   7.166
 4939POPC   NC364187  30.540  42.699   5.512
 4939POPC   PO464188  31.030  43.134   5.554
 4939POPC   GL164189  30.812  43.119   5.902
 4939POPC   GL264190  30.839  42.770   5.945
 4939POPC   C1A64191  30.700  43.215   6.327
 4939POPC   D2A64192  30.838  42.927   6.663
 4939POPC   C3A64193  30.844  43.082   7.059
 4939POPC   C4A64194  30.580  43.416   7.260
 4939POPC   C1B64195  30.631  42.629   6.283
 4939POPC   C2B64196  30.345  42.895   6.490
 4939POPC   C3B64197  30.367  43.128   6.861
 4939POPC   C4B64198  30.416  42.909   7.251
 4940POPC   NC364199  25.835  34.655   5.529
 4940POPC   PO464200  26.514  34.490   5.678
 4940POPC   GL164201  26.170  34.478   5.925
 4940POPC   GL264202  26.093  34.833   5.918
 4940POPC   C1A64203  26.197  34.387   6.366
 4940POPC   D2A64204  26.164  34.689   6.704
 4940POPC   C3A64205  26.259  34.621   7.112
 4940POPC   C4A64206  26.233  34.470   7.508
 4940POPC   C1B64207  26.018  34.990   6.305
 4940POPC   C2B64208  25.708  34.937   6.643
 4940POPC   C3B64209  25.887  35.014   7.056
 4940POPC   C4B64210  25.865  34.815   7.443
 4941POPC   NC364211  18.709   3.880   5.518
 4941POPC   PO464212  19.198   3.636   5.100
 4941POPC   GL164213  19.215   3.439   5.648
 4941POPC   GL264214  18.918   3.547   5.819
 4941POPC   C1A64215  19.142   3.361   6.195
 4941POPC   D2A64216  18.836   3.431   6.607
 4941POPC   C3A64217  19.064   3.391   7.021
 4941POPC   C4A64218  19.052   3.302   7.459
 4941POPC   C1B64219  18.871   3.783   6.256
 4941POPC   C2B64220  18.997   3.940   6.677
 4941POPC   C3B64221  18.788   3.809   7.061
 4941POPC   C4B64222  18.796   3.732   7.520
 4942POPC   NC364223  38.179  19.367   5.511
 4942POPC   PO464224  38.780  19.092   5.379
 4942POPC   GL164225  38.515  19.113   5.792
 4942POPC   GL264226  38.396  18.790   5.935
 4942POPC   C1A64227  38.249  19.221   6.201
 4942POPC   D2A64228  38.447  19.288   6.647
 4942POPC   C3A64229  38.230  19.360   7.026
 4942POPC   C4A64230  38.264  19.121   7.444
 4942POPC   C1B64231  38.681  18.957   6.245
 4942POPC   C2B64232  38.676  18.829   6.649
 4942POPC   C3B64233  38.392  18.881   6.989
 4942POPC   C4B64234  38.701  19.150   7.182
 4943POPC   NC364235  21.420  41.166   5.399
 4943POPC   PO464236  21.688  40.549   5.348
 4943POPC   GL164237  21.459  40.725   5.734
 4943POPC   GL264238  21.572  41.027   5.858
 4943POPC   C1A64239  21.332  40.679   6.192
 4943POPC   D2A64240  21.124  40.696   6.613
 4943POPC   C3A64241  21.289  40.660   7.016
 4943POPC   C4A64242  21.042  40.671   7.357
 4943POPC   C1B64243  21.832  40.766   6.174
 4943POPC   C2B64244  21.664  40.737   6.611
 4943POPC   C3B64245  21.655  41.001   6.997
 4943POPC   C4B64246  21.536  40.867   7.436
 4944POPC   NC364247   3.506  15.386   5.550
 4944POPC   PO464248   3.413  14.781   5.381
 4944POPC   GL164249   3.695  14.858   5.770
 4944POPC   GL264250   3.568  15.130   5.983
 4944POPC   C1A64251   3.900  14.858   6.235
 4944POPC   D2A64252   3.771  14.880   6.699
 4944POPC   C3A64253   4.042  14.837   7.075
 4944POPC   C4A64254   3.963  14.865   7.560
 4944POPC   C1B64255   3.406  15.420   6.268
 4944POPC   C2B64256   3.530  15.634   6.607
 4944POPC   C3B64257   3.464  15.278   6.855
 4944POPC   C4B64258   3.642  15.102   7.209
 4945POPC   NC364259  25.087  32.481   5.387
 4945POPC   PO464260  25.470  32.042   5.566
 4945POPC   GL164261  25.477  32.433   5.734
 4945POPC   GL264262  25.157  32.337   5.867
 4945POPC   C1A64263  25.525  32.550   6.160
 4945POPC   D2A64264  25.528  32.227   6.451
 4945POPC   C3A64265  25.421  32.371   6.822
 4945POPC   C4A64266  25.374  32.365   7.238
 4945POPC   C1B64267  25.060  32.307   6.268
 4945POPC   C2B64268  25.045  32.049   6.589
 4945POPC   C3B64269  24.938  31.888   6.931
 4945POPC   C4B64270  24.898  32.261   7.134
 4946POPC   NC364271  13.231   2.036   5.514
 4946POPC   PO464272  13.032   1.520   5.751
 4946POPC   GL164273  12.850   1.921   5.862
 4946POPC   GL264274  12.937   2.306   5.846
 4946POPC   C1A64275  12.832   1.921   6.290
 4946POPC   D2A64276  12.927   1.989   6.696
 4946POPC   C3A64277  12.553   1.947   6.955
 4946POPC   C4A64278  12.555   2.279   7.232
 4946POPC   C1B64279  13.263   2.160   6.152
 4946POPC   C2B64280  13.462   2.177   6.559
 4946POPC   C3B64281  13.292   2.247   6.947
 4946POPC   C4B64282  13.088   2.386   7.308
 4947POPC   NC364283   1.321  40.456   5.144
 4947POPC   PO464284   1.032  41.006   5.311
 4947POPC   GL164285   1.262  40.983   5.733
 4947POPC   GL264286   1.622  40.896   5.723
 4947POPC   C1A64287   1.172  40.886   6.204
 4947POPC   D2A64288   0.831  40.839   6.567
 4947POPC   C3A64289   0.902  40.801   7.026
 4947POPC   C4A64290   1.073  40.481   7.299
 4947POPC   C1B64291   1.672  41.083   6.130
 4947POPC   C2B64292   1.499  41.069   6.566
 4947POPC   C3B64293   1.402  40.853   6.949
 4947POPC   C4B64294   1.430  40.863   7.393
 4948POPC   NC364295   4.298  24.837   5.413
 4948POPC   PO464296   4.592  24.234   5.401
 4948POPC   GL164297   4.461  24.467   5.807
 4948POPC   GL264298   4.556  24.859   5.853
 4948POPC   C1A64299   4.312  24.296   6.242
 4948POPC   D2A64300   4.066  24.434   6.610
 4948POPC   C3A64301   4.216  24.413   7.048
 4948POPC   C4A64302   4.453  24.107   7.324
 4948POPC   C1B64303   4.529  24.755   6.307
 4948POPC   C2B64304   4.512  24.740   6.778
 4948POPC   C3B64305   4.613  24.672   7.225
 4948POPC   C4B64306   4.523  24.860   7.652
 4949POPC   NC364307  27.276  12.045   5.487
 4949POPC   PO464308  26.557  11.788   5.496
 4949POPC   GL164309  26.729  12.025   5.846
 4949POPC   GL264310  26.775  12.379   5.825
 4949POPC   C1A64311  26.585  12.185   6.246
 4949POPC   D2A64312  26.486  12.152   6.658
 4949POPC   C3A64313  26.792  11.995   6.925
 4949POPC   C4A64314  26.934  12.141   7.295
 4949POPC   C1B64315  27.110  12.231   6.148
 4949POPC   C2B64316  27.192  12.058   6.578
 4949POPC   C3B64317  27.250  12.311   6.942
 4949POPC   C4B64318  27.439  12.146   7.297
 4950POPC   NC364319  20.589   8.437   5.252
 4950POPC   PO464320  20.076   8.093   5.364
 4950POPC   GL164321  20.353   8.263   5.732
 4950POPC   GL264322  20.737   8.258   5.713
 4950POPC   C1A64323  20.449   8.148   6.192
 4950POPC   D2A64324  20.371   8.355   6.610
 4950POPC   C3A64325  20.480   8.158   7.025
 4950POPC   C4A64326  20.427   8.111   7.489
 4950POPC   C1B64327  20.950   8.245   6.114
 4950POPC   C2B64328  20.870   8.082   6.549
 4950POPC   C3B64329  20.993   8.233   6.933
 4950POPC   C4B64330  20.860   8.361   7.320
 4951POPC   NC364331   5.237  29.475   5.096
 4951POPC   PO464332   5.129  30.075   5.426
 4951POPC   GL164333   5.120  29.763   5.740
 4951POPC   GL264334   5.344  29.504   5.643
 4951POPC   C1A64335   5.009  29.833   6.165
 4951POPC   D2A64336   5.259  30.038   6.503
 4951POPC   C3A64337   5.110  29.935   6.899
 4951POPC   C4A64338   4.709  29.953   7.095
 4951POPC   C1B64339   5.374  29.474   6.096
 4951POPC   C2B64340   5.214  29.520   6.529
 4951POPC   C3B64341   5.048  29.436   6.933
 4951POPC   C4B64342   5.080  29.662   7.356
 4952POPC   NC364343  40.455  29.584   5.376
 4952POPC   PO464344  39.848  29.896   5.457
 4952POPC   GL164345  40.129  29.903   5.772
 4952POPC   GL264346  39.977  30.216   5.887
 4952POPC   C1A64347  40.293  29.975   6.200
 4952POPC   D2A64348  40.304  30.149   6.620
 4952POPC   C3A64349  40.142  29.848   6.882
 4952POPC   C4A64350  40.272  29.652   7.246
 4952POPC   C1B64351  39.737  29.888   6.140
 4952POPC   C2B64352  39.519  29.770   6.535
 4952POPC   C3B64353  39.598  29.945   6.962
 4952POPC   C4B64354  39.788  29.817   7.341
 4953POPC   NC364355  30.079   1.803   5.517
 4953POPC   PO464356  29.584   2.264   5.411
 4953POPC   GL164357  29.773   2.152   5.758
 4953POPC   GL264358  29.675   1.809   5.854
 4953POPC   C1A64359  29.903   2.147   6.152
 4953POPC   D2A64360  29.668   1.987   6.470
 4953POPC   C3A64361  29.762   2.135   6.867
 4953POPC   C4A64362  29.784   1.811   7.163
 4953POPC   C1B64363  29.984   1.633   6.166
 4953POPC   C2B64364  30.150   1.830   6.536
 4953POPC   C3B64365  30.240   1.983   6.924
 4953POPC   C4B64366  30.434   1.788   7.229
 4954POPC   NC364367  44.814  17.314   5.405
 4954POPC   PO464368  44.512  17.920   5.406
 4954POPC   GL164369  44.859  17.724   5.712
 4954POPC   GL264370  44.646  17.468   5.875
 4954POPC   C1A64371   0.016  17.637   6.170
 4954POPC   D2A64372  44.682  17.499   6.459
 4954POPC   C3A64373  44.751  17.553   6.906
 4954POPC   C4A64374   0.024  17.744   7.180
 4954POPC   C1B64375  44.585  17.886   6.133
 4954POPC   C2B64376  44.713  17.993   6.591
 4954POPC   C3B64377  44.525  18.022   7.007
 4954POPC   C4B64378  44.223  17.875   7.324
 4955POPC   NC364379  40.847  44.021   5.379
 4955POPC   PO464380  41.113  43.365   5.388
 4955POPC   GL164381  40.805  43.646   5.739
 4955POPC   GL264382  40.538  44.015   5.769
 4955POPC   C1A64383  40.589  43.713   6.150
 4955POPC   D2A64384  40.501  43.893   6.542
 4955POPC   C3A64385  40.890  43.893   6.771
 4955POPC   C4A64386  40.944  43.884   7.205
 4955POPC   C1B64387  40.810  44.191   6.033
 4955POPC   C2B64388  40.907  44.292   6.427
 4955POPC   C3B64389  40.911  44.404   6.850
 4955POPC   C4B64390  40.780  44.448   7.280
 4956POPC   NC364391  40.320  36.248   5.489
 4956POPC   PO464392  39.656  36.354   5.539
 4956POPC   GL164393  39.897  36.115   5.817
 4956POPC   GL264394  40.226  35.938   5.884
 4956POPC   C1A64395  39.871  36.182   6.232
 4956POPC   D2A64396  39.570  36.360   6.511
 4956POPC   C3A64397  39.751  36.360   6.918
 4956POPC   C4A64398  39.905  35.988   7.141
 4956POPC   C1B64399  40.389  36.264   6.146
 4956POPC   C2B64400  40.253  36.353   6.535
 4956POPC   C3B64401  40.317  36.278   6.964
 4956POPC   C4B64402  40.268  36.296   7.391
 4957POPC   NC364403   9.420  34.504   5.585
 4957POPC   PO464404  10.063  34.739   5.587
 4957POPC   GL164405   9.807  34.794   5.949
 4957POPC   GL264406   9.441  34.865   5.943
 4957POPC   C1A64407   9.826  34.810   6.403
 4957POPC   D2A64408   9.586  34.769   6.772
 4957POPC   C3A64409   9.911  34.564   6.941
 4957POPC   C4A64410  10.164  34.456   7.271
 4957POPC   C1B64411   9.473  34.481   6.235
 4957POPC   C2B64412   9.348  34.329   6.628
 4957POPC   C3B64413   9.521  34.254   7.030
 4957POPC   C4B64414   9.665  34.481   7.389
 4958POPC   NC364415  18.437  29.145   5.545
 4958POPC   PO464416  17.969  28.777   5.318
 4958POPC   GL164417  18.066  28.816   5.766
 4958POPC   GL264418  18.369  28.705   5.874
 4958POPC   C1A64419  18.078  29.160   6.105
 4958POPC   D2A64420  17.905  29.461   6.426
 4958POPC   C3A64421  18.085  29.354   6.830
 4958POPC   C4A64422  18.099  29.330   7.269
 4958POPC   C1B64423  18.322  28.749   6.327
 4958POPC   C2B64424  18.005  28.834   6.666
 4958POPC   C3B64425  17.864  28.893   7.090
 4958POPC   C4B64426  18.005  28.890   7.510
 4959POPC   NC364427  19.961  41.703   5.277
 4959POPC   PO464428  19.458  41.214   5.378
 4959POPC   GL164429  19.621  41.265   5.806
 4959POPC   GL264430  19.847  41.563   5.774
 4959POPC   C1A64431  19.548  41.508   6.197
 4959POPC   D2A64432  19.802  41.625   6.537
 4959POPC   C3A64433  19.622  41.637   6.951
 4959POPC   C4A64434  19.704  41.820   7.355
 4959POPC   C1B64435  20.141  41.558   6.126
 4959POPC   C2B64436  20.267  41.366   6.516
 4959POPC   C3B64437  20.175  41.515   6.901
 4959POPC   C4B64438  19.975  41.395   7.235
 4960POPC   NC364439  13.120  32.410   5.563
 4960POPC   PO464440  12.720  31.947   5.401
 4960POPC   GL164441  12.705  32.275   5.798
 4960POPC   GL264442  13.029  32.253   6.019
 4960POPC   C1A64443  12.672  32.538   6.223
 4960POPC   D2A64444  12.634  32.461   6.668
 4960POPC   C3A64445  12.742  32.390   7.111
 4960POPC   C4A64446  12.734  32.258   7.520
 4960POPC   C1B64447  12.976  32.160   6.422
 4960POPC   C2B64448  13.113  32.250   6.809
 4960POPC   C3B64449  13.107  32.023   7.237
 4960POPC   C4B64450  13.191  32.108   7.707
 4961POPC   NC364451  20.661  38.986   5.597
 4961POPC   PO464452  20.499  39.538   5.636
 4961POPC   GL164453  20.477  39.319   5.980
 4961POPC   GL264454  20.292  38.986   5.955
 4961POPC   C1A64455  20.744  39.246   6.319
 4961POPC   D2A64456  20.760  39.008   6.697
 4961POPC   C3A64457  20.764  39.320   7.006
 4961POPC   C4A64458  21.086  39.452   7.241
 4961POPC   C1B64459  20.208  39.160   6.374
 4961POPC   C2B64460  20.254  38.948   6.752
 4961POPC   C3B64461  20.451  38.928   7.146
 4961POPC   C4B64462  20.424  38.937   7.609
 4962POPC   NC364463  28.957   8.181   5.292
 4962POPC   PO464464  29.595   8.149   5.454
 4962POPC   GL164465  29.254   8.122   5.733
 4962POPC   GL264466  29.241   8.473   5.774
 4962POPC   C1A64467  29.195   7.982   6.160
 4962POPC   D2A64468  29.413   7.813   6.527
 4962POPC   C3A64469  29.184   7.883   6.892
 4962POPC   C4A64470  29.230   8.149   7.263
 4962POPC   C1B64471  29.047   8.502   6.157
 4962POPC   C2B64472  29.156   8.344   6.546
 4962POPC   C3B64473  29.277   8.528   6.917
 4962POPC   C4B64474  28.971   8.584   7.237
 4963POPC   NC364475   4.934  27.943   5.354
 4963POPC   PO464476   5.344  27.482   5.529
 4963POPC   GL164477   5.034  27.673   5.820
 4963POPC   GL264478   5.067  28.037   5.863
 4963POPC   C1A64479   4.867  27.638   6.252
 4963POPC   D2A64480   4.673  27.543   6.660
 4963POPC   C3A64481   4.908  27.767   6.991
 4963POPC   C4A64482   5.263  27.641   7.235
 4963POPC   C1B64483   5.335  27.858   6.223
 4963POPC   C2B64484   5.335  27.715   6.694
 4963POPC   C3B64485   5.563  27.991   7.031
 4963POPC   C4B64486   5.570  27.934   7.524
 4964POPC   NC364487  27.821  13.573   5.321
 4964POPC   PO464488  27.322  13.973   5.393
 4964POPC   GL164489  27.315  13.684   5.781
 4964POPC   GL264490  27.544  13.392   5.766
 4964POPC   C1A64491  27.281  13.564   6.253
 4964POPC   D2A64492  27.548  13.593   6.648
 4964POPC   C3A64493  27.573  13.636   7.117
 4964POPC   C4A64494  27.456  14.004   7.352
 4964POPC   C1B64495  27.744  13.631   6.097
 4964POPC   C2B64496  28.024  13.593   6.456
 4964POPC   C3B64497  28.015  13.524   6.887
 4964POPC   C4B64498  28.066  13.647   7.321
 4965POPC   NC364499  15.744  30.298   5.273
 4965POPC   PO464500  15.968  29.776   5.560
 4965POPC   GL164501  15.784  29.998   5.865
 4965POPC   GL264502  15.525  30.109   5.703
 4965POPC   C1A64503  15.837  29.901   6.286
 4965POPC   D2A64504  16.045  29.610   6.572
 4965POPC   C3A64505  16.099  29.757   7.007
 4965POPC   C4A64506  15.901  29.802   7.398
 4965POPC   C1B64507  15.354  30.154   6.132
 4965POPC   C2B64508  15.506  30.163   6.568
 4965POPC   C3B64509  15.601  30.004   6.996
 4965POPC   C4B64510  15.639  30.247   7.387
 4966POPC   NC364511  15.233  41.224   5.455
 4966POPC   PO464512  14.867  41.752   5.726
 4966POPC   GL164513  14.906  41.369   5.891
 4966POPC   GL264514  15.264  41.434   5.922
 4966POPC   C1A64515  14.907  41.412   6.326
 4966POPC   D2A64516  15.240  41.694   6.466
 4966POPC   C3A64517  15.205  41.717   6.882
 4966POPC   C4A64518  14.907  41.531   7.145
 4966POPC   C1B64519  15.395  41.238   6.298
 4966POPC   C2B64520  15.530  41.344   6.729
 4966POPC   C3B64521  15.363  41.264   7.152
 4966POPC   C4B64522  15.130  41.100   7.548
 4967POPC   NC364523  17.256  27.210   5.590
 4967POPC   PO464524  17.617  27.514   5.055
 4967POPC   GL164525  17.615  27.600   5.548
 4967POPC   GL264526  17.369  27.819   5.758
 4967POPC   C1A64527  17.737  27.564   6.030
 4967POPC   D2A64528  17.713  27.731   6.477
 4967POPC   C3A64529  17.666  27.648   6.930
 4967POPC   C4A64530  17.957  27.512   7.241
 4967POPC   C1B64531  17.235  27.543   6.138
 4967POPC   C2B64532  17.292  27.475   6.573
 4967POPC   C3B64533  17.264  27.315   6.971
 4967POPC   C4B64534  17.059  27.346   7.354
 4968POPC   NC364535  33.987  17.053   5.646
 4968POPC   PO464536  34.508  16.679   5.315
 4968POPC   GL164537  34.532  16.759   5.744
 4968POPC   GL264538  34.277  16.532   5.836
 4968POPC   C1A64539  34.745  16.931   6.143
 4968POPC   D2A64540  34.598  16.760   6.567
 4968POPC   C3A64541  34.831  16.848   6.961
 4968POPC   C4A64542  34.719  16.902   7.386
 4968POPC   C1B64543  34.623  16.437   6.146
 4968POPC   C2B64544  34.852  16.319   6.522
 4968POPC   C3B64545  34.618  16.371   6.907
 4968POPC   C4B64546  34.346  16.653   7.137
 4969POPC   NC364547  25.130  36.945   5.469
 4969POPC   PO464548  25.805  36.666   5.365
 4969POPC   GL164549  25.477  36.678   5.721
 4969POPC   GL264550  25.317  37.035   5.912
 4969POPC   C1A64551  25.229  36.595   6.092
 4969POPC   D2A64552  25.384  36.800   6.438
 4969POPC   C3A64553  25.315  36.678   6.826
 4969POPC   C4A64554  25.242  36.660   7.235
 4969POPC   C1B64555  24.990  37.067   6.225
 4969POPC   C2B64556  25.152  37.220   6.611
 4969POPC   C3B64557  25.307  37.147   7.000
 4969POPC   C4B64558  24.897  37.075   7.145
 4970POPC   NC364559  38.047   8.584   5.734
 4970POPC   PO464560  37.491   8.957   5.468
 4970POPC   GL164561  37.652   9.141   5.898
 4970POPC   GL264562  37.960   9.020   5.979
 4970POPC   C1A64563  37.660   9.073   6.405
 4970POPC   D2A64564  37.901   8.930   6.802
 4970POPC   C3A64565  37.677   8.742   7.180
 4970POPC   C4A64566  37.435   8.896   7.542
 4970POPC   C1B64567  38.064   9.333   6.259
 4970POPC   C2B64568  37.953   9.485   6.671
 4970POPC   C3B64569  38.023   9.336   7.093
 4970POPC   C4B64570  37.880   9.137   7.457
 4971POPC   NC364571  16.499  22.973   5.603
 4971POPC   PO464572  15.882  22.676   5.489
 4971POPC   GL164573  16.077  22.811   5.855
 4971POPC   GL264574  16.005  23.144   5.779
 4971POPC   C1A64575  16.273  22.958   6.244
 4971POPC   D2A64576  16.432  22.934   6.664
 4971POPC   C3A64577  16.121  22.828   6.971
 4971POPC   C4A64578  16.117  23.037   7.360
 4971POPC   C1B64579  15.742  23.207   6.158
 4971POPC   C2B64580  15.620  23.060   6.587
 4971POPC   C3B64581  15.733  23.248   6.979
 4971POPC   C4B64582  15.921  23.478   7.297
 4972POPC   NC364583  31.523  31.264   5.359
 4972POPC   PO464584  31.672  31.998   5.507
 4972POPC   GL164585  31.456  31.612   5.725
 4972POPC   GL264586  31.679  31.284   5.831
 4972POPC   C1A64587  31.288  31.480   6.130
 4972POPC   D2A64588  31.098  31.661   6.508
 4972POPC   C3A64589  31.291  31.583   6.899
 4972POPC   C4A64590  31.367  31.204   7.084
 4972POPC   C1B64591  31.652  31.067   6.221
 4972POPC   C2B64592  31.724  31.266   6.623
 4972POPC   C3B64593  31.850  31.378   7.026
 4972POPC   C4B64594  31.787  31.134   7.375
 4973POPC   NC364595  42.335  40.305   5.417
 4973POPC   PO464596  42.098  40.911   5.135
 4973POPC   GL164597  42.211  40.799   5.650
 4973POPC   GL264598  42.267  40.546   5.855
 4973POPC   C1A64599  42.094  40.926   6.152
 4973POPC   D2A64600  42.102  41.170   6.589
 4973POPC   C3A64601  42.441  41.150   6.911
 4973POPC   C4A64602  42.202  41.093   7.280
 4973POPC   C1B64603  42.502  40.655   6.196
 4973POPC   C2B64604  42.433  40.774   6.583
 4973POPC   C3B64605  42.575  40.647   6.972
 4973POPC   C4B64606  42.515  40.647   7.410
 4974POPC   NC364607   5.635  19.156   5.720
 4974POPC   PO464608   6.070  19.618   5.355
 4974POPC   GL164609   6.188  19.430   5.794
 4974POPC   GL264610   6.185  19.046   5.836
 4974POPC   C1A64611   6.094  19.329   6.267
 4974POPC   D2A64612   5.811  19.127   6.614
 4974POPC   C3A64613   5.772  19.274   7.067
 4974POPC   C4A64614   6.127  19.199   7.371
 4974POPC   C1B64615   6.071  18.725   6.179
 4974POPC   C2B64616   5.934  18.624   6.638
 4974POPC   C3B64617   5.964  18.786   7.093
 4974POPC   C4B64618   6.105  18.744   7.584
 4975POPC   NC364619   5.783  19.939   5.125
 4975POPC   PO464620   5.898  20.214   5.682
 4975POPC   GL164621   5.987  19.891   5.952
 4975POPC   GL264622   5.743  19.620   5.993
 4975POPC   C1A64623   6.048  19.835   6.393
 4975POPC   D2A64624   5.885  19.675   6.737
 4975POPC   C3A64625   5.932  19.964   7.060
 4975POPC   C4A64626   5.980  19.684   7.345
 4975POPC   C1B64627   5.515  19.878   6.307
 4975POPC   C2B64628   5.475  19.987   6.743
 4975POPC   C3B64629   5.483  19.755   7.126
 4975POPC   C4B64630   5.526  19.744   7.572
 4976POPC   NC364631  28.560  34.938   5.561
 4976POPC   PO464632  29.169  34.563   5.487
 4976POPC   GL164633  29.136  34.635   5.905
 4976POPC   GL264634  28.839  34.490   6.024
 4976POPC   C1A64635  29.397  34.764   6.268
 4976POPC   D2A64636  29.502  34.642   6.725
 4976POPC   C3A64637  29.231  34.772   7.089
 4976POPC   C4A64638  29.223  34.696   7.548
 4976POPC   C1B64639  28.987  34.491   6.423
 4976POPC   C2B64640  28.846  34.532   6.825
 4976POPC   C3B64641  28.869  34.293   7.173
 4976POPC   C4B64642  28.863  34.294   7.614
 4977POPC   NC364643   4.014  22.902   5.472
 4977POPC   PO464644   4.630  22.612   5.433
 4977POPC   GL164645   4.588  22.785   5.839
 4977POPC   GL264646   4.297  22.977   5.892
 4977POPC   C1A64647   4.634  22.917   6.287
 4977POPC   D2A64648   4.320  23.013   6.589
 4977POPC   C3A64649   4.352  22.845   7.007
 4977POPC   C4A64650   4.751  22.816   7.209
 4977POPC   C1B64651   3.982  23.126   6.158
 4977POPC   C2B64652   3.942  23.368   6.512
 4977POPC   C3B64653   4.020  23.259   6.935
 4977POPC   C4B64654   4.010  23.346   7.391
 4978POPC   NC364655   5.577  32.483   5.368
 4978POPC   PO464656   6.056  32.062   5.455
 4978POPC   GL164657   5.990  31.976   5.881
 4978POPC   GL264658   6.188  31.675   5.910
 4978POPC   C1A64659   5.912  32.256   6.255
 4978POPC   D2A64660   5.978  32.603   6.558
 4978POPC   C3A64661   5.885  32.455   6.978
 4978POPC   C4A64662   5.510  32.251   7.098
 4978POPC   C1B64663   6.112  31.801   6.351
 4978POPC   C2B64664   5.931  31.995   6.721
 4978POPC   C3B64665   5.986  31.897   7.156
 4978POPC   C4B64666   6.094  31.842   7.616
 4979POPC   NC364667  40.965  21.590   5.232
 4979POPC   PO464668  40.557  21.062   5.411
 4979POPC   GL164669  40.770  21.098   5.778
 4979POPC   GL264670  40.879  21.433   5.790
 4979POPC   C1A64671  40.947  21.015   6.166
 4979POPC   D2A64672  41.006  21.238   6.556
 4979POPC   C3A64673  41.038  21.055   6.959
 4979POPC   C4A64674  40.756  21.240   7.254
 4979POPC   C1B64675  40.623  21.401   6.179
 4979POPC   C2B64676  40.623  21.610   6.551
 4979POPC   C3B64677  40.456  21.509   6.914
 4979POPC   C4B64678  40.379  21.581   7.318
 4980POPC   NC364679  41.712  28.365   5.424
 4980POPC   PO464680  41.368  28.900   5.542
 4980POPC   GL164681  41.670  28.678   5.836
 4980POPC   GL264682  41.645  28.260   5.905
 4980POPC   C1A64683  41.547  28.605   6.262
 4980POPC   D2A64684  41.344  28.299   6.526
 4980POPC   C3A64685  41.353  28.481   6.908
 4980POPC   C4A64686  41.414  28.714   7.257
 4980POPC   C1B64687  41.597  27.959   6.254
 4980POPC   C2B64688  41.447  27.806   6.667
 4980POPC   C3B64689  41.422  28.008   7.081
 4980POPC   C4B64690  41.776  28.308   7.157
 4981POPC   NC364691  38.612  42.368   5.372
 4981POPC   PO464692  38.206  42.808   5.555
 4981POPC   GL164693  38.191  42.583   5.906
 4981POPC   GL264694  38.359  42.284   5.819
 4981POPC   C1A64695  38.399  42.545   6.260
 4981POPC   D2A64696  38.395  42.361   6.630
 4981POPC   C3A64697  38.319  42.687   6.908
 4981POPC   C4A64698  38.393  42.675   7.335
 4981POPC   C1B64699  38.392  42.038   6.191
 4981POPC   C2B64700  38.349  41.834   6.606
 4981POPC   C3B64701  38.450  41.928   7.062
 4981POPC   C4B64702  38.504  42.170   7.468
 4982POPC   NC364703  41.234  29.831   5.365
 4982POPC   PO464704  40.631  30.063   5.133
 4982POPC   GL164705  40.593  30.071   5.611
 4982POPC   GL264706  40.671  29.745   5.790
 4982POPC   C1A64707  40.762  30.154   6.054
 4982POPC   D2A64708  40.763  29.987   6.461
 4982POPC   C3A64709  40.765  30.192   6.869
 4982POPC   C4A64710  40.441  30.139   7.186
 4982POPC   C1B64711  40.596  29.550   6.172
 4982POPC   C2B64712  40.773  29.486   6.563
 4982POPC   C3B64713  40.729  29.680   6.964
 4982POPC   C4B64714  41.070  29.618   7.240
 4983POPC   NC364715  36.309  39.390   5.473
 4983POPC   PO464716  35.648  39.317   5.681
 4983POPC   GL164717  35.976  39.135   5.917
 4983POPC   GL264718  36.157  39.435   5.976
 4983POPC   C1A64719  36.073  39.101   6.364
 4983POPC   D2A64720  36.072  39.421   6.677
 4983POPC   C3A64721  36.077  39.237   7.078
 4983POPC   C4A64722  35.981  39.374   7.468
 4983POPC   C1B64723  36.457  39.464   6.328
 4983POPC   C2B64724  36.518  39.166   6.673
 4983POPC   C3B64725  36.562  39.037   7.085
 4983POPC   C4B64726  36.417  39.094   7.506
 4984POPC   NC364727   8.631  21.438   5.325
 4984POPC   PO464728   9.233  21.522   5.132
 4984POPC   GL164729   9.015  21.342   5.628
 4984POPC   GL264730   8.733  21.601   5.784
 4984POPC   C1A64731   9.043  21.357   6.139
 4984POPC   D2A64732   9.289  21.366   6.576
 4984POPC   C3A64733   9.096  21.236   7.002
 4984POPC   C4A64734   8.974  21.225   7.505
 4984POPC   C1B64735   8.655  21.764   6.171
 4984POPC   C2B64736   8.851  21.656   6.542
 4984POPC   C3B64737   8.691  21.743   6.924
 4984POPC   C4B64738   8.646  21.408   7.172
 4985POPC   NC364739  36.655  22.710   5.473
 4985POPC   PO464740  36.949  23.281   5.444
 4985POPC   GL164741  36.878  23.061   5.823
 4985POPC   GL264742  37.006  22.705   5.865
 4985POPC   C1A64743  36.829  23.131   6.254
 4985POPC   D2A64744  36.980  23.280   6.658
 4985POPC   C3A64745  36.849  23.151   7.033
 4985POPC   C4A64746  37.182  23.095   7.313
 4985POPC   C1B64747  36.795  22.602   6.249
 4985POPC   C2B64748  36.812  22.783   6.662
 4985POPC   C3B64749  36.708  22.659   7.088
 4985POPC   C4B64750  36.464  22.606   7.477
 4986POPC   NC364751  13.742  19.838   5.298
 4986POPC   PO464752  13.339  19.425   5.715
 4986POPC   GL164753  13.688  19.728   5.804
 4986POPC   GL264754  13.708  20.114   5.800
 4986POPC   C1A64755  13.871  19.782   6.221
 4986POPC   D2A64756  13.587  19.612   6.545
 4986POPC   C3A64757  13.596  19.760   6.953
 4986POPC   C4A64758  13.662  19.493   7.290
 4986POPC   C1B64759  13.408  20.003   6.167
 4986POPC   C2B64760  13.260  20.014   6.635
 4986POPC   C3B64761  13.388  20.213   7.072
 4986POPC   C4B64762  13.646  19.974   7.431
 4987POPC   NC364763  27.440   3.827   5.361
 4987POPC   PO464764  27.596   3.094   5.368
 4987POPC   GL164765  27.638   3.387   5.723
 4987POPC   GL264766  27.680   3.775   5.799
 4987POPC   C1A64767  27.807   3.417   6.143
 4987POPC   D2A64768  27.623   3.266   6.520
 4987POPC   C3A64769  27.833   3.439   6.866
 4987POPC   C4A64770  27.745   3.365   7.271
 4987POPC   C1B64771  27.363   3.647   6.114
 4987POPC   C2B64772  27.345   3.714   6.596
 4987POPC   C3B64773  27.377   3.663   7.066
 4987POPC   C4B64774  27.171   3.755   7.488
 4988POPC   NC364775   7.496  22.920   5.244
 4988POPC   PO464776   7.679  22.310   5.505
 4988POPC   GL164777   7.611  22.736   5.742
 4988POPC   GL264778   7.576  23.135   5.721
 4988POPC   C1A64779   7.384  22.875   6.136
 4988POPC   D2A64780   7.248  22.834   6.561
 4988POPC   C3A64781   7.617  22.782   6.837
 4988POPC   C4A64782   7.679  22.475   7.171
 4988POPC   C1B64783   7.627  23.335   6.160
 4988POPC   C2B64784   7.488  23.288   6.623
 4988POPC   C3B64785   7.411  23.180   7.078
 4988POPC   C4B64786   7.349  23.295   7.559
 4989POPC   NC364787   4.345  23.842   5.319
 4989POPC   PO464788   3.966  23.351   5.540
 4989POPC   GL164789   4.282  23.538   5.749
 4989POPC   GL264790   4.604  23.367   5.780
 4989POPC   C1A64791   4.156  23.835   6.046
 4989POPC   D2A64792   3.986  23.914   6.448
 4989POPC   C3A64793   4.301  23.994   6.764
 4989POPC   C4A64794   4.202  23.720   7.094
 4989POPC   C1B64795   4.416  23.386   6.212
 4989POPC   C2B64796   4.416  23.520   6.637
 4989POPC   C3B64797   4.523  23.316   7.018
 4989POPC   C4B64798   4.484  23.195   7.413
 4990POPC   NC364799  21.453  23.209   5.501
 4990POPC   PO464800  21.156  22.753   5.312
 4990POPC   GL164801  21.207  22.910   5.810
 4990POPC   GL264802  21.049  23.216   5.840
 4990POPC   C1A64803  21.332  22.805   6.277
 4990POPC   D2A64804  21.471  22.690   6.722
 4990POPC   C3A64805  21.221  22.635   7.083
 4990POPC   C4A64806  21.190  22.967   7.370
 4990POPC   C1B64807  21.117  23.270   6.276
 4990POPC   C2B64808  21.150  23.177   6.733
 4990POPC   C3B64809  20.990  23.355   7.120
 4990POPC   C4B64810  21.205  23.481   7.518
 4991POPC   NC364811  25.011  44.430   5.334
 4991POPC   PO464812  25.507  44.916   5.276
 4991POPC   GL164813  25.338  44.704   5.658
 4991POPC   GL264814  25.011  44.782   5.719
 4991POPC   C1A64815  25.456  44.783   6.098
 4991POPC   D2A64816  25.263  44.864   6.511
 4991POPC   C3A64817  25.494  44.647   6.806
 4991POPC   C4A64818  25.520  44.469   7.224
 4991POPC   C1B64819  25.023  44.506   6.087
 4991POPC   C2B64820  24.879  44.480   6.532
 4991POPC   C3B64821  25.042  44.508   6.997
 4991POPC   C4B64822  25.057  44.699   7.439
 4992POPC   NC364823  15.988   8.919   5.364
 4992POPC   PO464824  16.039   9.459   5.767
 4992POPC   GL164825  15.855   9.046   5.832
 4992POPC   GL264826  16.194   8.880   5.830
 4992POPC   C1A64827  15.742   8.894   6.204
 4992POPC   D2A64828  15.867   9.158   6.545
 4992POPC   C3A64829  15.687   9.065   6.936
 4992POPC   C4A64830  15.751   9.159   7.377
 4992POPC   C1B64831  16.161   8.620   6.177
 4992POPC   C2B64832  16.051   8.678   6.589
 4992POPC   C3B64833  16.261   8.969   6.836
 4992POPC   C4B64834  16.300   9.083   7.257
 4993POPC   NC364835  30.138  32.575   5.283
 4993POPC   PO464836  30.834  32.531   5.389
 4993POPC   GL164837  30.584  32.464   5.789
 4993POPC   GL264838  30.401  32.134   5.808
 4993POPC   C1A64839  30.491  32.493   6.249
 4993POPC   D2A64840  30.448  32.277   6.649
 4993POPC   C3A64841  30.670  32.506   6.994
 4993POPC   C4A64842  31.000  32.400   7.297
 4993POPC   C1B64843  30.668  32.005   6.161
 4993POPC   C2B64844  30.604  31.766   6.544
 4993POPC   C3B64845  30.777  31.729   6.932
 4993POPC   C4B64846  30.646  32.040   7.212
 4994POPC   NC364847  27.604   0.085   5.404
 4994POPC   PO464848  27.269   0.788   5.397
 4994POPC   GL164849  27.302   0.571   5.798
 4994POPC   GL264850  27.599   0.366   5.829
 4994POPC   C1A64851  27.521   0.697   6.212
 4994POPC   D2A64852  27.735   0.540   6.595
 4994POPC   C3A64853  27.881   0.727   6.957
 4994POPC   C4A64854  27.554   0.679   7.196
 4994POPC   C1B64855  27.593   0.173   6.232
 4994POPC   C2B64856  27.648   0.049   6.652
 4994POPC   C3B64857  27.738   0.204   7.047
 4994POPC   C4B64858  28.033   0.007   7.262
 4995POPC   NC364859  44.890   5.435   4.942
 4995POPC   PO464860  44.841   5.048   5.357
 4995POPC   GL164861  44.772   5.090   5.803
 4995POPC   GL264862  44.421   5.131   5.874
 4995POPC   C1A64863  44.755   4.908   6.213
 4995POPC   D2A64864  44.541   4.696   6.549
 4995POPC   C3A64865  44.656   4.843   6.947
 4995POPC   C4A64866  44.615   5.209   7.219
 4995POPC   C1B64867  44.590   5.409   6.256
 4995POPC   C2B64868  44.660   5.594   6.711
 4995POPC   C3B64869  44.655   5.723   7.181
 4995POPC   C4B64870  44.621   5.563   7.618
 4996POPC   NC364871  11.725  13.254   5.346
 4996POPC   PO464872  11.717  12.557   5.227
 4996POPC   GL164873  11.830  12.638   5.672
 4996POPC   GL264874  12.037  12.939   5.654
 4996POPC   C1A64875  11.848  12.866   6.107
 4996POPC   D2A64876  11.797  13.093   6.485
 4996POPC   C3A64877  11.902  13.017   6.903
 4996POPC   C4A64878  11.739  12.998   7.295
 4996POPC   C1B64879  12.354  12.926   6.017
 4996POPC   C2B64880  12.293  12.891   6.491
 4996POPC   C3B64881  12.322  12.726   6.914
 4996POPC   C4B64882  12.266  12.614   7.343
 4997POPC   NC364883  15.171  19.365   5.176
 4997POPC   PO464884  15.271  18.725   5.335
 4997POPC   GL164885  15.036  18.979   5.644
 4997POPC   GL264886  15.123  19.356   5.693
 4997POPC   C1A64887  15.027  19.087   6.106
 4997POPC   D2A64888  14.997  19.245   6.538
 4997POPC   C3A64889  15.021  18.965   6.875
 4997POPC   C4A64890  15.193  19.027   7.264
 4997POPC   C1B64891  15.438  19.399   6.069
 4997POPC   C2B64892  15.519  19.247   6.516
 4997POPC   C3B64893  15.381  19.351   6.926
 4997POPC   C4B64894  15.436  19.786   7.031
 4998POPC   NC364895   2.250   2.673   5.258
 4998POPC   PO464896   1.636   2.734   5.119
 4998POPC   GL164897   1.897   2.812   5.599
 4998POPC   GL264898   2.203   2.961   5.771
 4998POPC   C1A64899   1.898   2.635   6.065
 4998POPC   D2A64900   2.021   2.448   6.488
 4998POPC   C3A64901   1.867   2.586   6.902
 4998POPC   C4A64902   1.702   2.922   7.211
 4998POPC   C1B64903   2.349   2.844   6.236
 4998POPC   C2B64904   2.325   2.836   6.727
 4998POPC   C3B64905   2.209   2.827   7.176
 4998POPC   C4B64906   2.024   2.446   7.411
 4999POPC   NC364907   6.546  41.922   5.125
 4999POPC   PO464908   6.859  42.255   5.624
 4999POPC   GL164909   6.701  42.295   6.003
 4999POPC   GL264910   6.773  41.951   6.122
 4999POPC   C1A64911   6.550  42.378   6.412
 4999POPC   D2A64912   6.371  42.117   6.708
 4999POPC   C3A64913   6.362  42.352   7.084
 4999POPC   C4A64914   6.399  42.799   7.169
 4999POPC   C1B64915   7.037  42.226   6.405
 4999POPC   C2B64916   6.970  42.666   6.539
 4999POPC   C3B64917   6.795  42.556   6.899
 4999POPC   C4B64918   6.996  42.186   7.070
 5000POPC   NC364919  16.989  28.105   5.391
 5000POPC   PO464920  16.686  28.677   5.562
 5000POPC   GL164921  16.557  28.428   5.875
 5000POPC   GL264922  16.488  28.138   5.643
 5000POPC   C1A64923  16.725  28.323   6.311
 5000POPC   D2A64924  17.090  28.445   6.601
 5000POPC   C3A64925  17.012  28.406   7.056
 5000POPC   C4A64926  16.644  28.443   7.321
 5000POPC   C1B64927  16.365  27.998   6.052
 5000POPC   C2B64928  16.369  27.965   6.499
 5000POPC   C3B64929  16.556  28.095   6.876
 5000POPC   C4B64930  16.274  28.094   7.234
 5001POPC   NC364931  44.724  19.280   5.361
 5001POPC   PO464932   0.073  19.838   5.594
 5001POPC   GL164933  44.898  19.404   5.829
 5001POPC   GL264934  44.818  19.012   5.774
 5001POPC   C1A64935  44.739  19.203   6.254
 5001POPC   D2A64936  44.605  19.020   6.687
 5001POPC   C3A64937  44.704  19.220   7.115
 5001POPC   C4A64938  44.777  19.247   7.592
 5001POPC   C1B64939   0.001  18.792   6.110
 5001POPC   C2B64940   0.113  18.873   6.524
 5001POPC   C3B64941  44.969  18.787   6.947
 5001POPC   C4B64942   0.064  18.886   7.362
 5002POPC   NC364943  38.109  37.037   5.447
 5002POPC   PO464944  38.800  36.853   5.469
 5002POPC   GL164945  38.483  36.921   5.792
 5002POPC   GL264946  38.413  36.629   6.009
 5002POPC   C1A64947  38.349  37.110   6.185
 5002POPC   D2A64948  38.381  36.860   6.544
 5002POPC   C3A64949  38.388  37.032   6.943
 5002POPC   C4A64950  38.490  36.949   7.365
 5002POPC   C1B64951  38.608  36.432   6.350
 5002POPC   C2B64952  38.503  36.408   6.762
 5002POPC   C3B64953  38.313  36.513   7.126
 5002POPC   C4B64954  38.275  36.511   7.576
 5003POPC   NC364955  36.429  10.646   5.650
 5003POPC   PO464956  35.888  10.821   5.231
 5003POPC   GL164957  35.946  10.565   5.710
 5003POPC   GL264958  35.681  10.501   5.945
 5003POPC   C1A64959  36.118  10.524   6.214
 5003POPC   D2A64960  36.386  10.617   6.585
 5003POPC   C3A64961  36.240  10.438   6.980
 5003POPC   C4A64962  36.159  10.395   7.449
 5003POPC   C1B64963  35.835  10.934   6.112
 5003POPC   C2B64964  35.999  11.039   6.552
 5003POPC   C3B64965  35.916  10.851   6.989
 5003POPC   C4B64966  35.717  10.481   7.221
 5004POPC   NC364967  10.944  38.527   5.479
 5004POPC   PO464968  10.283  38.131   5.460
 5004POPC   GL164969  10.411  38.165   5.872
 5004POPC   GL264970  10.591  38.491   5.882
 5004POPC   C1A64971  10.339  38.294   6.311
 5004POPC   D2A64972  10.654  38.403   6.629
 5004POPC   C3A64973  10.698  38.065   6.926
 5004POPC   C4A64974  10.368  38.053   7.197
 5004POPC   C1B64975  10.573  38.841   6.204
 5004POPC   C2B64976  10.742  38.946   6.619
 5004POPC   C3B64977  10.702  38.763   7.012
 5004POPC   C4B64978  10.326  38.703   7.212
 5005POPC   NC364979  28.989  31.443   5.299
 5005POPC   PO464980  29.617  31.131   5.441
 5005POPC   GL164981  29.463  31.429   5.799
 5005POPC   GL264982  29.089  31.507   5.809
 5005POPC   C1A64983  29.336  31.338   6.234
 5005POPC   D2A64984  29.173  31.064   6.585
 5005POPC   C3A64985  29.319  31.256   6.980
 5005POPC   C4A64986  29.230  31.306   7.442
 5005POPC   C1B64987  28.862  31.540   6.224
 5005POPC   C2B64988  28.969  31.540   6.693
 5005POPC   C3B64989  28.935  31.595   7.151
 5005POPC   C4B64990  28.864  31.986   7.364
 5006POPC   NC364991   4.752  32.828   5.356
 5006POPC   PO464992   5.177  32.210   5.413
 5006POPC   GL164993   5.243  32.248   5.861
 5006POPC   GL264994   5.577  32.297   5.881
 5006POPC   C1A64995   5.020  32.148   6.262
 5006POPC   D2A64996   4.814  31.912   6.550
 5006POPC   C3A64997   4.982  32.076   6.906
 5006POPC   C4A64998   4.796  32.148   7.297
 5006POPC   C1B64999   5.424  32.461   6.311
 5006POPC   C2B65000   5.130  32.538   6.683
 5006POPC   C3B65001   5.089  32.522   7.156
 5006POPC   C4B65002   4.946  32.524   7.622
 5007POPC   NC365003  31.760  15.550   5.414
 5007POPC   PO465004  31.283  15.008   5.309
 5007POPC   GL165005  31.434  15.238   5.665
 5007POPC   GL265006  31.681  15.008   5.792
 5007POPC   C1A65007  31.423  15.316   6.118
 5007POPC   D2A65008  31.374  15.139   6.524
 5007POPC   C3A65009  31.475  15.361   6.892
 5007POPC   C4A65010  31.375  15.311   7.286
 5007POPC   C1B65011  31.817  14.971   6.242
 5007POPC   C2B65012  31.849  15.088   6.676
 5007POPC   C3B65013  31.807  15.021   7.119
 5007POPC   C4B65014  31.854  15.230   7.498
 5008POPC   NC365015  44.234  21.697   5.475
 5008POPC   PO465016  43.782  21.193   5.502
 5008POPC   GL165017  43.868  21.483   5.841
 5008POPC   GL265018  44.183  21.645   5.958
 5008POPC   C1A65019  43.850  21.377   6.276
 5008POPC   D2A65020  43.495  21.161   6.440
 5008POPC   C3A65021  43.561  21.136   6.854
 5008POPC   C4A65022  43.878  21.367   7.113
 5008POPC   C1B65023  44.317  21.587   6.332
 5008POPC   C2B65024  44.191  21.517   6.730
 5008POPC   C3B65025  44.355  21.631   7.147
 5008POPC   C4B65026  44.211  21.695   7.564
 5009POPC   NC365027  11.096  17.872   5.558
 5009POPC   PO465028  11.201  18.572   5.699
 5009POPC   GL165029  11.096  18.318   6.056
 5009POPC   GL265030  11.318  18.055   5.974
 5009POPC   C1A65031  11.311  18.173   6.459
 5009POPC   D2A65032  11.595  17.991   6.762
 5009POPC   C3A65033  11.768  18.348   6.987
 5009POPC   C4A65034  11.476  18.689   7.107
 5009POPC   C1B65035  11.018  17.812   6.240
 5009POPC   C2B65036  10.835  18.030   6.618
 5009POPC   C3B65037  11.075  18.326   6.887
 5009POPC   C4B65038  11.314  18.104   7.184
 5010POPC   NC365039  40.376  34.568   5.390
 5010POPC   PO465040  41.024  34.449   5.436
 5010POPC   GL165041  40.824  34.640   5.814
 5010POPC   GL265042  40.498  34.799   5.820
 5010POPC   C1A65043  40.644  34.482   6.225
 5010POPC   D2A65044  40.836  34.345   6.631
 5010POPC   C3A65045  40.620  34.532   6.978
 5010POPC   C4A65046  40.893  34.714   7.263
 5010POPC   C1B65047  40.459  34.977   6.209
 5010POPC   C2B65048  40.379  34.810   6.597
 5010POPC   C3B65049  40.300  35.015   6.959
 5010POPC   C4B65050  40.431  34.894   7.313
 5011POPC   NC365051  33.906  44.109   5.537
 5011POPC   PO465052  33.506  43.606   5.488
 5011POPC   GL165053  33.590  43.838   5.888
 5011POPC   GL265054  33.269  44.026   5.929
 5011POPC   C1A65055  33.944  43.919   6.227
 5011POPC   D2A65056  34.240  43.808   6.609
 5011POPC   C3A65057  34.153  44.002   7.028
 5011POPC   C4A65058  33.735  44.011   7.217
 5011POPC   C1B65059  33.436  43.993   6.359
 5011POPC   C2B65060  33.733  43.929   6.703
 5011POPC   C3B65061  33.877  43.592   6.980
 5011POPC   C4B65062  33.650  43.543   7.378
 5012POPC   NC365063  22.035   8.277   5.377
 5012POPC   PO465064  22.632   8.299   5.441
 5012POPC   GL165065  22.321   8.349   5.819
 5012POPC   GL265066  21.936   8.445   5.826
 5012POPC   C1A65067  22.304   8.361   6.283
 5012POPC   D2A65068  22.157   7.974   6.519
 5012POPC   C3A65069  22.304   7.994   6.968
 5012POPC   C4A65070  22.380   8.458   7.139
 5012POPC   C1B65071  21.864   8.189   6.118
 5012POPC   C2B65072  21.828   8.421   6.458
 5012POPC   C3B65073  21.989   8.348   6.817
 5012POPC   C4B65074  21.868   8.392   7.226
 5013POPC   NC365075  13.066   4.429   5.265
 5013POPC   PO465076  12.457   4.599   5.267
 5013POPC   GL165077  12.714   4.412   5.684
 5013POPC   GL265078  13.038   4.226   5.765
 5013POPC   C1A65079  12.705   4.183   6.141
 5013POPC   D2A65080  12.832   3.977   6.527
 5013POPC   C3A65081  12.702   4.207   6.898
 5013POPC   C4A65082  12.651   4.161   7.305
 5013POPC   C1B65083  13.218   4.174   6.199
 5013POPC   C2B65084  13.299   4.160   6.633
 5013POPC   C3B65085  13.157   4.015   7.011
 5013POPC   C4B65086  13.140   4.366   7.248
 5014POPC   NC365087  17.959   3.474   5.365
 5014POPC   PO465088  18.512   3.181   5.418
 5014POPC   GL165089  18.429   3.463   5.736
 5014POPC   GL265090  18.115   3.543   5.869
 5014POPC   C1A65091  18.542   3.415   6.163
 5014POPC   D2A65092  18.241   3.501   6.470
 5014POPC   C3A65093  18.370   3.499   6.869
 5014POPC   C4A65094  18.384   3.560   7.284
 5014POPC   C1B65095  17.887   3.754   6.184
 5014POPC   C2B65096  17.947   3.876   6.609
 5014POPC   C3B65097  17.904   3.722   7.007
 5014POPC   C4B65098  17.935   3.766   7.431
 5015POPC   NC365099  26.281   9.827   5.494
 5015POPC   PO465100  25.667   9.552   5.280
 5015POPC   GL165101  25.882   9.587   5.696
 5015POPC   GL265102  25.965   9.915   5.880
 5015POPC   C1A65103  25.865   9.526   6.165
 5015POPC   D2A65104  25.936   9.420   6.586
 5015POPC   C3A65105  25.723   9.613   6.947
 5015POPC   C4A65106  25.976   9.758   7.257
 5015POPC   C1B65107  26.338   9.790   6.161
 5015POPC   C2B65108  26.568  10.008   6.493
 5015POPC   C3B65109  26.357  10.033   6.893
 5015POPC   C4B65110  26.445   9.966   7.313
 5016POPC   NC365111  43.744   1.450   5.414
 5016POPC   PO465112  44.134   0.853   5.217
 5016POPC   GL165113  44.127   1.128   5.680
 5016POPC   GL265114  44.151   1.517   5.742
 5016POPC   C1A65115  44.022   1.261   6.149
 5016POPC   D2A65116  43.657   1.218   6.444
 5016POPC   C3A65117  43.789   1.252   6.875
 5016POPC   C4A65118  43.732   1.046   7.270
 5016POPC   C1B65119  44.161   1.801   6.098
 5016POPC   C2B65120  44.363   1.843   6.506
 5016POPC   C3B65121  44.265   1.617   6.898
 5016POPC   C4B65122  44.105   1.400   7.258
 5017POPC   NC365123  39.237  31.181   5.586
 5017POPC   PO465124  39.347  31.874   5.566
 5017POPC   GL165125  39.196  31.607   5.882
 5017POPC   GL265126  38.899  31.545   5.718
 5017POPC   C1A65127  39.375  31.409   6.271
 5017POPC   D2A65128  39.374  31.513   6.728
 5017POPC   C3A65129  39.334  31.585   7.172
 5017POPC   C4A65130  39.581  31.769   7.548
 5017POPC   C1B65131  38.858  31.318   6.141
 5017POPC   C2B65132  39.005  31.192   6.544
 5017POPC   C3B65133  39.079  31.115   6.977
 5017POPC   C4B65134  38.898  31.323   7.319
 5018POPC   NC365135  23.811  33.658   5.394
 5018POPC   PO465136  23.395  34.232   5.617
 5018POPC   GL165137  23.421  33.793   5.875
 5018POPC   GL265138  23.740  33.611   5.888
 5018POPC   C1A65139  23.502  33.574   6.319
 5018POPC   D2A65140  23.621  33.668   6.756
 5018POPC   C3A65141  23.352  33.847   7.057
 5018POPC   C4A65142  23.244  33.631   7.451
 5018POPC   C1B65143  23.852  33.927   6.214
 5018POPC   C2B65144  23.778  34.139   6.586
 5018POPC   C3B65145  23.890  34.061   7.011
 5018POPC   C4B65146  23.763  33.820   7.351
 5019POPC   NC365147  41.362  42.958   5.441
 5019POPC   PO465148  40.679  42.779   5.394
 5019POPC   GL165149  40.931  42.779   5.756
 5019POPC   GL265150  40.914  43.117   5.796
 5019POPC   C1A65151  41.028  42.799   6.220
 5019POPC   D2A65152  40.735  42.897   6.563
 5019POPC   C3A65153  40.857  42.986   6.999
 5019POPC   C4A65154  41.038  42.758   7.354
 5019POPC   C1B65155  40.662  43.210   6.152
 5019POPC   C2B65156  40.748  43.424   6.562
 5019POPC   C3B65157  40.613  43.527   6.983
 5019POPC   C4B65158  40.619  43.295   7.349
 5020POPC   NC365159  44.130  40.571   5.706
 5020POPC   PO465160  43.661  40.953   5.334
 5020POPC   GL165161  43.781  40.958   5.790
 5020POPC   GL265162  43.654  40.626   5.894
 5020POPC   C1A65163  43.971  40.978   6.237
 5020POPC   D2A65164  43.970  41.220   6.626
 5020POPC   C3A65165  43.952  40.954   7.009
 5020POPC   C4A65166  43.806  41.045   7.441
 5020POPC   C1B65167  43.852  40.480   6.297
 5020POPC   C2B65168  43.897  40.494   6.741
 5020POPC   C3B65169  43.662  40.535   7.121
 5020POPC   C4B65170  43.977  40.568   7.406
 5021POPC   NC365171  24.036  16.946   5.565
 5021POPC   PO465172  24.557  16.589   5.470
 5021POPC   GL165173  24.325  16.623   5.865
 5021POPC   GL265174  24.468  16.942   5.853
 5021POPC   C1A65175  24.229  16.894   6.272
 5021POPC   D2A65176  24.150  16.867   6.701
 5021POPC   C3A65177  24.366  16.802   7.068
 5021POPC   C4A65178  24.211  16.910   7.447
 5021POPC   C1B65179  24.706  16.696   6.223
 5021POPC   C2B65180  24.696  16.653   6.677
 5021POPC   C3B65181  24.854  16.644   7.092
 5021POPC   C4B65182  24.845  16.769   7.516
 5022POPC   NC365183  37.011  40.254   5.403
 5022POPC   PO465184  36.776  39.567   5.458
 5022POPC   GL165185  36.652  39.829   5.792
 5022POPC   GL265186  36.976  39.964   5.831
 5022POPC   C1A65187  36.626  40.015   6.203
 5022POPC   D2A65188  36.905  39.915   6.523
 5022POPC   C3A65189  36.852  40.103   6.920
 5022POPC   C4A65190  36.593  40.022   7.288
 5022POPC   C1B65191  37.280  39.924   6.149
 5022POPC   C2B65192  37.404  39.701   6.495
 5022POPC   C3B65193  37.259  39.779   6.896
 5022POPC   C4B65194  37.061  39.805   7.261
 5023POPC   NC365195   2.950  17.279   5.567
 5023POPC   PO465196   2.498  17.637   5.504
 5023POPC   GL165197   2.543  17.400   5.869
 5023POPC   GL265198   2.799  17.632   5.935
 5023POPC   C1A65199   2.685  17.244   6.273
 5023POPC   D2A65200   2.750  16.953   6.623
 5023POPC   C3A65201   3.055  17.089   6.923
 5023POPC   C4A65202   2.843  17.358   7.190
 5023POPC   C1B65203   2.480  17.790   6.200
 5023POPC   C2B65204   2.509  17.622   6.605
 5023POPC   C3B65205   2.565  17.827   6.964
 5023POPC   C4B65206   2.847  17.859   7.275
 5024POPC   NC365207   8.254  41.871   5.334
 5024POPC   PO465208   7.758  41.372   5.217
 5024POPC   GL165209   7.983  41.584   5.679
 5024POPC   GL265210   8.100  41.921   5.810
 5024POPC   C1A65211   8.208  41.446   6.134
 5024POPC   D2A65212   8.175  41.191   6.566
 5024POPC   C3A65213   8.373  41.307   6.977
 5024POPC   C4A65214   8.575  41.265   7.391
 5024POPC   C1B65215   8.065  41.935   6.220
 5024POPC   C2B65216   8.253  41.885   6.573
 5024POPC   C3B65217   8.184  41.786   6.957
 5024POPC   C4B65218   8.290  41.695   7.364
 5025POPC   NC365219  28.459  15.721   5.322
 5025POPC   PO465220  28.797  16.315   5.245
 5025POPC   GL165221  28.593  16.127   5.690
 5025POPC   GL265222  28.372  15.829   5.797
 5025POPC   C1A65223  28.575  16.069   6.186
 5025POPC   D2A65224  28.637  15.840   6.578
 5025POPC   C3A65225  28.304  15.921   6.854
 5025POPC   C4A65226  28.411  16.196   7.146
 5025POPC   C1B65227  28.108  15.810   6.180
 5025POPC   C2B65228  27.900  15.729   6.576
 5025POPC   C3B65229  28.001  15.506   6.948
 5025POPC   C4B65230  28.180  15.657   7.322
 5026POPC   NC365231  44.590   4.684   5.529
 5026POPC   PO465232  44.904   4.118   5.398
 5026POPC   GL165233  44.901   4.197   5.783
 5026POPC   GL265234   0.008   4.546   5.830
 5026POPC   C1A65235  44.604   4.001   6.043
 5026POPC   D2A65236  44.567   3.903   6.461
 5026POPC   C3A65237  44.428   4.214   6.734
 5026POPC   C4A65238  44.613   4.357   7.108
 5026POPC   C1B65239  44.848   4.401   6.257
 5026POPC   C2B65240  44.915   4.380   6.693
 5026POPC   C3B65241   0.083   4.541   7.069
 5026POPC   C4B65242  44.787   4.718   7.429
 5027POPC   NC365243  21.493  36.672   5.369
 5027POPC   PO465244  20.977  36.384   5.632
 5027POPC   GL165245  21.287  36.809   5.797
 5027POPC   GL265246  21.669  36.881   5.804
 5027POPC   C1A65247  21.325  36.950   6.209
 5027POPC   D2A65248  21.104  37.024   6.580
 5027POPC   C3A65249  21.190  36.769   6.946
 5027POPC   C4A65250  21.150  36.919   7.351
 5027POPC   C1B65251  21.759  36.698   6.171
 5027POPC   C2B65252  21.609  36.472   6.516
 5027POPC   C3B65253  21.696  36.697   6.892
 5027POPC   C4B65254  21.623  36.978   7.219
 5028POPC   NC365255  14.457  18.724   5.459
 5028POPC   PO465256  14.738  19.270   5.288
 5028POPC   GL165257  14.614  19.227   5.777
 5028POPC   GL265258  14.589  18.869   5.940
 5028POPC   C1A65259  14.563  19.284   6.260
 5028POPC   D2A65260  14.532  19.447   6.720
 5028POPC   C3A65261  14.709  19.262   7.136
 5028POPC   C4A65262  14.721  18.846   7.360
 5028POPC   C1B65263  14.219  18.860   6.244
 5028POPC   C2B65264  14.076  18.854   6.708
 5028POPC   C3B65265  14.266  18.856   7.142
 5028POPC   C4B65266  14.198  18.744   7.618
 5029POPC   NC365267   7.336  12.488   5.384
 5029POPC   PO465268   7.057  13.033   5.239
 5029POPC   GL165269   7.100  12.845   5.692
 5029POPC   GL265270   7.423  12.820   5.873
 5029POPC   C1A65271   7.032  12.705   6.181
 5029POPC   D2A65272   7.340  12.552   6.488
 5029POPC   C3A65273   7.165  12.614   6.915
 5029POPC   C4A65274   7.037  12.944   7.198
 5029POPC   C1B65275   7.761  12.616   6.127
 5029POPC   C2B65276   7.915  12.573   6.553
 5029POPC   C3B65277   7.678  12.719   6.908
 5029POPC   C4B65278   7.515  12.637   7.316
 5030POPC   NC365279  41.455   5.624   5.333
 5030POPC   PO465280  41.884   6.092   5.126
 5030POPC   GL165281  41.768   5.918   5.604
 5030POPC   GL265282  41.408   5.987   5.723
 5030POPC   C1A65283  41.642   5.621   6.021
 5030POPC   D2A65284  41.529   5.432   6.484
 5030POPC   C3A65285  41.688   5.579   6.923
 5030POPC   C4A65286  41.887   5.844   7.259
 5030POPC   C1B65287  41.630   6.164   6.108
 5030POPC   C2B65288  41.626   6.332   6.558
 5030POPC   C3B65289  41.664   6.254   7.024
 5030POPC   C4B65290  41.516   6.142   7.461
 5031POPC   NC365291  35.717  36.265   5.541
 5031POPC   PO465292  36.387  36.069   5.456
 5031POPC   GL165293  36.333  36.138   5.876
 5031POPC   GL265294  36.000  36.013   5.925
 5031POPC   C1A65295  36.233  36.337   6.263
 5031POPC   D2A65296  36.002  36.204   6.625
 5031POPC   C3A65297  36.245  36.315   7.024
 5031POPC   C4A65298  36.002  36.233   7.423
 5031POPC   C1B65299  36.226  35.813   6.288
 5031POPC   C2B65300  36.391  35.900   6.710
 5031POPC   C3B65301  36.190  35.821   7.159
 5031POPC   C4B65302  36.132  35.787   7.639
 5032POPC   NC365303  20.908  35.071   5.262
 5032POPC   PO465304  21.164  35.709   5.350
 5032POPC   GL165305  20.920  35.443   5.661
 5032POPC   GL265306  20.558  35.554   5.763
 5032POPC   C1A65307  20.887  35.316   6.118
 5032POPC   D2A65308  20.674  35.392   6.532
 5032POPC   C3A65309  20.876  35.279   6.915
 5032POPC   C4A65310  20.991  34.916   7.118
 5032POPC   C1B65311  20.304  35.475   6.164
 5032POPC   C2B65312  20.205  35.559   6.626
 5032POPC   C3B65313  20.374  35.396   7.025
 5032POPC   C4B65314  20.272  35.079   7.317
 5033POPC   NC365315   3.766  40.488   5.429
 5033POPC   PO465316   3.372  41.195   5.414
 5033POPC   GL165317   3.373  40.912   5.770
 5033POPC   GL265318   3.706  40.908   5.727
 5033POPC   C1A65319   3.415  40.636   6.170
 5033POPC   D2A65320   3.403  40.486   6.615
 5033POPC   C3A65321   3.340  40.839   6.887
 5033POPC   C4A65322   3.396  40.895   7.288
 5033POPC   C1B65323   3.812  41.055   6.119
 5033POPC   C2B65324   3.689  40.919   6.527
 5033POPC   C3B65325   3.848  40.746   6.936
 5033POPC   C4B65326   3.907  40.893   7.369
 5034POPC   NC365327  34.720  25.649   5.412
 5034POPC   PO465328  34.342  26.214   5.455
 5034POPC   GL165329  34.693  26.144   5.724
 5034POPC   GL265330  34.596  25.845   5.853
 5034POPC   C1A65331  34.895  26.095   6.148
 5034POPC   D2A65332  34.736  25.884   6.503
 5034POPC   C3A65333  34.959  26.106   6.758
 5034POPC   C4A65334  34.981  26.123   7.177
 5034POPC   C1B65335  34.390  26.095   6.196
 5034POPC   C2B65336  34.273  26.124   6.645
 5034POPC   C3B65337  34.516  25.944   7.005
 5034POPC   C4B65338  34.362  25.854   7.440
 5035POPC   NC365339  10.296  17.279   5.648
 5035POPC   PO465340   9.786  17.623   5.398
 5035POPC   GL165341   9.642  17.413   5.792
 5035POPC   GL265342   9.685  17.049   5.680
 5035POPC   C1A65343   9.705  17.505   6.257
 5035POPC   D2A65344   9.679  17.772   6.615
 5035POPC   C3A65345   9.635  17.634   7.038
 5035POPC   C4A65346   9.915  17.735   7.388
 5035POPC   C1B65347   9.770  17.007   6.129
 5035POPC   C2B65348   9.628  17.067   6.562
 5035POPC   C3B65349   9.577  17.132   7.007
 5035POPC   C4B65350   9.711  17.237   7.431
 5036POPC   NC365351  14.625  31.340   5.213
 5036POPC   PO465352  14.198  31.563   5.687
 5036POPC   GL165353  14.318  31.554   6.055
 5036POPC   GL265354  14.650  31.500   6.005
 5036POPC   C1A65355  14.323  31.340   6.402
 5036POPC   D2A65356  14.106  31.507   6.715
 5036POPC   C3A65357  14.243  31.342   7.074
 5036POPC   C4A65358  14.164  31.480   7.477
 5036POPC   C1B65359  14.842  31.293   6.366
 5036POPC   C2B65360  14.708  31.239   6.800
 5036POPC   C3B65361  14.697  31.537   7.142
 5036POPC   C4B65362  15.011  31.693   7.364
 5037POPC   NC365363  20.669  11.475   5.510
 5037POPC   PO465364  20.140  10.959   5.419
 5037POPC   GL165365  20.458  11.053   5.777
 5037POPC   GL265366  20.773  11.138   5.915
 5037POPC   C1A65367  20.410  11.253   6.224
 5037POPC   D2A65368  20.610  11.277   6.627
 5037POPC   C3A65369  20.377  11.363   7.013
 5037POPC   C4A65370  20.510  11.223   7.449
 5037POPC   C1B65371  20.906  10.890   6.271
 5037POPC   C2B65372  20.892  10.864   6.738
 5037POPC   C3B65373  20.870  11.154   7.072
 5037POPC   C4B65374  21.016  11.122   7.510
 5038POPC   NC365375  23.402   9.487   5.384
 5038POPC   PO465376  23.921   9.915   5.304
 5038POPC   GL165377  23.832   9.973   5.760
 5038POPC   GL265378  24.094   9.816   5.909
 5038POPC   C1A65379  23.598   9.841   6.181
 5038POPC   D2A65380  23.388   9.469   6.465
 5038POPC   C3A65381  23.418   9.465   6.920
 5038POPC   C4A65382  23.515   9.872   7.119
 5038POPC   C1B65383  24.088  10.163   6.187
 5038POPC   C2B65384  23.912  10.226   6.570
 5038POPC   C3B65385  23.960   9.943   6.899
 5038POPC   C4B65386  23.971   9.949   7.346
 5039POPC   NC365387  26.149   6.036   4.901
 5039POPC   PO465388  25.908   5.609   5.404
 5039POPC   GL165389  25.941   5.756   5.863
 5039POPC   GL265390  26.183   5.991   5.892
 5039POPC   C1A65391  26.067   5.803   6.354
 5039POPC   D2A65392  25.995   6.052   6.734
 5039POPC   C3A65393  25.951   5.808   7.160
 5039POPC   C4A65394  25.925   5.558   7.550
 5039POPC   C1B65395  26.449   6.118   6.255
 5039POPC   C2B65396  26.488   6.079   6.691
 5039POPC   C3B65397  26.434   6.029   7.131
 5039POPC   C4B65398  26.303   5.976   7.540
 5040POPC   NC365399  31.365   9.403   5.329
 5040POPC   PO465400  31.007   9.965   5.549
 5040POPC   GL165401  31.282   9.924   5.854
 5040POPC   GL265402  31.454   9.621   5.833
 5040POPC   C1A65403  31.364   9.957   6.265
 5040POPC   D2A65404  31.582   9.779   6.621
 5040POPC   C3A65405  31.486   9.769   7.029
 5040POPC   C4A65406  31.617   9.573   7.412
 5040POPC   C1B65407  31.414   9.453   6.268
 5040POPC   C2B65408  31.209   9.369   6.687
 5040POPC   C3B65409  31.295   9.272   7.136
 5040POPC   C4B65410  31.145   9.347   7.559
 5041POPC   NC365411  10.727  41.747   5.630
 5041POPC   PO465412  10.206  41.610   5.161
 5041POPC   GL165413  10.325  41.432   5.653
 5041POPC   GL265414  10.616  41.308   5.873
 5041POPC   C1A65415  10.253  41.554   6.135
 5041POPC   D2A65416  10.042  41.442   6.525
 5041POPC   C3A65417  10.158  41.577   6.933
 5041POPC   C4A65418  10.177  41.855   7.297
 5041POPC   C1B65419  10.751  41.483   6.282
 5041POPC   C2B65420  10.611  41.616   6.689
 5041POPC   C3B65421  10.620  41.630   7.139
 5041POPC   C4B65422  10.899  41.492   7.456
 5042POPC   NC365423  29.127  44.149   5.549
 5042POPC   PO465424  29.446  43.593   5.433
 5042POPC   GL165425  29.299  43.681   5.877
 5042POPC   GL265426  29.434  44.004   5.946
 5042POPC   C1A65427  29.212  43.790   6.356
 5042POPC   D2A65428  28.903  44.007   6.652
 5042POPC   C3A65429  28.842  43.855   7.103
 5042POPC   C4A65430  28.819  44.066   7.478
 5042POPC   C1B65431  29.434  44.263   6.318
 5042POPC   C2B65432  29.582  44.081   6.676
 5042POPC   C3B65433  29.321  43.855   6.916
 5042POPC   C4B65434  29.128  44.279   7.054
 5043POPC   NC365435  29.229   9.328   5.090
 5043POPC   PO465436  29.073   8.695   5.323
 5043POPC   GL165437  29.255   8.982   5.623
 5043POPC   GL265438  29.077   9.277   5.641
 5043POPC   C1A65439  29.380   8.910   6.072
 5043POPC   D2A65440  29.494   8.781   6.485
 5043POPC   C3A65441  29.410   9.041   6.846
 5043POPC   C4A65442  29.361   8.892   7.285
 5043POPC   C1B65443  28.891   9.007   6.001
 5043POPC   C2B65444  28.984   8.937   6.485
 5043POPC   C3B65445  28.918   9.022   6.970
 5043POPC   C4B65446  28.893   9.031   7.467
 5044POPC   NC365447   7.709  15.781   5.419
 5044POPC   PO465448   8.381  16.027   5.300
 5044POPC   GL165449   8.163  15.910   5.677
 5044POPC   GL265450   8.347  16.093   5.903
 5044POPC   C1A65451   8.079  15.701   6.096
 5044POPC   D2A65452   8.307  15.703   6.481
 5044POPC   C3A65453   8.133  15.942   6.813
 5044POPC   C4A65454   8.166  15.692   7.165
 5044POPC   C1B65455   8.116  16.198   6.296
 5044POPC   C2B65456   8.027  16.467   6.652
 5044POPC   C3B65457   7.974  16.367   7.075
 5044POPC   C4B65458   8.283  16.144   7.344
 5045POPC   NC365459  28.925  37.858   5.037
 5045POPC   PO465460  28.634  37.421   5.466
 5045POPC   GL165461  28.321  37.279   5.749
 5045POPC   GL265462  28.422  37.573   5.954
 5045POPC   C1A65463  28.136  37.226   6.172
 5045POPC   D2A65464  28.255  37.410   6.588
 5045POPC   C3A65465  28.091  37.435   7.009
 5045POPC   C4A65466  28.316  37.758   7.204
 5045POPC   C1B65467  28.655  37.657   6.349
 5045POPC   C2B65468  28.697  37.904   6.771
 5045POPC   C3B65469  28.738  38.015   7.221
 5045POPC   C4B65470  28.446  38.109   7.590
 5046POPC   NC365471  14.487  40.530   5.247
 5046POPC   PO465472  14.776  41.099   5.463
 5046POPC   GL165473  14.598  40.943   5.858
 5046POPC   GL265474  14.445  40.611   5.761
 5046POPC   C1A65475  14.502  41.047   6.332
 5046POPC   D2A65476  14.217  41.043   6.720
 5046POPC   C3A65477  14.350  40.888   7.168
 5046POPC   C4A65478  14.266  40.907   7.628
 5046POPC   C1B65479  14.470  40.546   6.214
 5046POPC   C2B65480  14.501  40.593   6.677
 5046POPC   C3B65481  14.205  40.432   7.005
 5046POPC   C4B65482  14.313  40.406   7.471
 5047POPC   NC365483  33.716   0.760   5.154
 5047POPC   PO465484  33.573   0.303   5.567
 5047POPC   GL165485  33.755   0.460   5.909
 5047POPC   GL265486  33.937   0.686   5.772
 5047POPC   C1A65487  33.863   0.409   6.332
 5047POPC   D2A65488  33.604   0.394   6.695
 5047POPC   C3A65489  33.736   0.243   7.125
 5047POPC   C4A65490  33.597   0.269   7.595
 5047POPC   C1B65491  34.185   0.765   6.129
 5047POPC   C2B65492  34.076   0.867   6.556
 5047POPC   C3B65493  33.947   0.683   6.951
 5047POPC   C4B65494  33.971   0.582   7.406
 5048POPC   NC365495  39.814   4.000   5.578
 5048POPC   PO465496  39.666   4.503   5.163
 5048POPC   GL165497  39.757   4.512   5.634
 5048POPC   GL265498  40.143   4.450   5.724
 5048POPC   C1A65499  39.782   4.373   6.090
 5048POPC   D2A65500  39.755   4.175   6.471
 5048POPC   C3A65501  39.836   4.510   6.745
 5048POPC   C4A65502  40.097   4.555   7.093
 5048POPC   C1B65503  40.231   4.149   6.097
 5048POPC   C2B65504  40.262   4.186   6.567
 5048POPC   C3B65505  40.008   4.049   6.913
 5048POPC   C4B65506  40.203   4.033   7.281
 5049POPC   NC365507   2.803  13.881   5.433
 5049POPC   PO465508   2.347  14.295   5.359
 5049POPC   GL165509   2.441  14.101   5.736
 5049POPC   GL265510   2.762  14.317   5.731
 5049POPC   C1A65511   2.587  14.114   6.156
 5049POPC   D2A65512   2.629  14.382   6.511
 5049POPC   C3A65513   2.510  14.310   6.919
 5049POPC   C4A65514   2.617  14.578   7.274
 5049POPC   C1B65515   2.936  14.517   6.110
 5049POPC   C2B65516   3.137  14.440   6.520
 5049POPC   C3B65517   2.987  14.466   6.922
 5049POPC   C4B65518   3.145  14.622   7.298
 5050POPC   NC365519  31.373  12.271   5.612
 5050POPC   PO465520  32.095  12.451   5.554
 5050POPC   GL165521  31.797  12.453   5.823
 5050POPC   GL265522  31.791  12.099   5.856
 5050POPC   C1A65523  31.594  12.468   6.223
 5050POPC   D2A65524  31.748  12.326   6.625
 5050POPC   C3A65525  31.474  12.323   6.995
 5050POPC   C4A65526  31.557  12.209   7.435
 5050POPC   C1B65527  31.658  11.956   6.252
 5050POPC   C2B65528  31.435  11.902   6.662
 5050POPC   C3B65529  31.616  11.790   7.072
 5050POPC   C4B65530  31.874  11.805   7.473
 5051POPC   NC365531  44.029  31.675   5.520
 5051POPC   PO465532  44.580  31.423   5.241
 5051POPC   GL165533  44.482  31.440   5.659
 5051POPC   GL265534  44.655  31.753   5.722
 5051POPC   C1A65535  44.521  31.311   6.110
 5051POPC   D2A65536  44.677  31.509   6.502
 5051POPC   C3A65537  44.360  31.512   6.827
 5051POPC   C4A65538  44.240  31.348   7.226
 5051POPC   C1B65539  44.931  31.809   6.103
 5051POPC   C2B65540  44.994  31.919   6.559
 5051POPC   C3B65541  44.705  31.894   6.881
 5051POPC   C4B65542  44.692  31.586   7.222
 5052POPC   NC365543   5.666  41.697   5.359
 5052POPC   PO465544   6.308  41.454   5.525
 5052POPC   GL165545   6.031  41.681   5.732
 5052POPC   GL265546   5.789  41.472   5.787
 5052POPC   C1A65547   5.924  41.807   6.145
 5052POPC   D2A65548   6.042  41.564   6.508
 5052POPC   C3A65549   5.927  41.794   6.866
 5052POPC   C4A65550   5.875  41.710   7.288
 5052POPC   C1B65551   5.634  41.373   6.180
 5052POPC   C2B65552   5.545  41.465   6.591
 5052POPC   C3B65553   5.745  41.319   6.942
 5052POPC   C4B65554   5.593  41.210   7.325
 5053POPC   NC365555  34.985  36.922   5.457
 5053POPC   PO465556  34.319  36.846   5.400
 5053POPC   GL165557  34.340  37.119   5.755
 5053POPC   GL265558  34.664  37.034   5.880
 5053POPC   C1A65559  34.204  37.051   6.174
 5053POPC   D2A65560  34.311  36.858   6.562
 5053POPC   C3A65561  34.580  37.107   6.798
 5053POPC   C4A65562  34.634  37.236   7.210
 5053POPC   C1B65563  34.824  37.154   6.292
 5053POPC   C2B65564  35.074  37.178   6.661
 5053POPC   C3B65565  35.034  36.976   7.064
 5053POPC   C4B65566  34.679  36.686   7.148
 5054POPC   NC365567  10.317   1.754   5.358
 5054POPC   PO465568  10.929   1.986   5.509
 5054POPC   GL165569  10.755   1.720   5.844
 5054POPC   GL265570  10.395   1.813   5.856
 5054POPC   C1A65571  10.669   1.782   6.312
 5054POPC   D2A65572  10.436   2.137   6.523
 5054POPC   C3A65573  10.556   2.255   6.949
 5054POPC   C4A65574  10.752   2.098   7.314
 5054POPC   C1B65575  10.146   1.791   6.230
 5054POPC   C2B65576  10.222   1.692   6.652
 5054POPC   C3B65577  10.184   1.872   7.052
 5054POPC   C4B65578  10.256   2.173   7.367
 5055POPC   NC365579  14.025  15.132   5.502
 5055POPC   PO465580  14.615  15.038   5.314
 5055POPC   GL165581  14.485  15.385   5.622
 5055POPC   GL265582  14.759  15.392   5.857
 5055POPC   C1A65583  14.255  15.525   6.031
 5055POPC   D2A65584  14.066  15.313   6.429
 5055POPC   C3A65585  14.251  15.315   6.862
 5055POPC   C4A65586  14.232  15.102   7.295
 5055POPC   C1B65587  14.496  15.073   6.102
 5055POPC   C2B65588  14.379  14.913   6.527
 5055POPC   C3B65589  14.526  14.878   6.939
 5055POPC   C4B65590  14.715  15.218   7.181
 5056POPC   NC365591   2.233  17.191   5.524
 5056POPC   PO465592   1.889  16.551   5.439
 5056POPC   GL165593   1.984  16.782   5.771
 5056POPC   GL265594   2.126  16.508   5.945
 5056POPC   C1A65595   1.917  16.978   6.163
 5056POPC   D2A65596   1.747  17.165   6.536
 5056POPC   C3A65597   1.820  16.975   6.925
 5056POPC   C4A65598   1.783  17.055   7.347
 5056POPC   C1B65599   1.763  16.496   6.184
 5056POPC   C2B65600   1.841  16.524   6.607
 5056POPC   C3B65601   1.861  16.474   7.028
 5056POPC   C4B65602   2.103  16.686   7.318
 5057POPC   NC365603  23.300  21.396   5.447
 5057POPC   PO465604  23.978  21.391   5.440
 5057POPC   GL165605  23.750  21.226   5.838
 5057POPC   GL265606  23.410  21.036   5.803
 5057POPC   C1A65607  23.870  21.312   6.305
 5057POPC   D2A65608  23.824  21.531   6.716
 5057POPC   C3A65609  23.803  21.328   7.146
 5057POPC   C4A65610  23.831  21.374   7.595
 5057POPC   C1B65611  23.510  20.957   6.271
 5057POPC   C2B65612  23.593  21.059   6.728
 5057POPC   C3B65613  23.415  21.007   7.162
 5057POPC   C4B65614  23.454  21.059   7.641
 5058POPC   NC365615  39.179  35.018   5.384
 5058POPC   PO465616  39.296  34.340   5.456
 5058POPC   GL165617  39.543  34.604   5.722
 5058POPC   GL265618  39.418  34.936   5.825
 5058POPC   C1A65619  39.577  34.591   6.167
 5058POPC   D2A65620  39.420  34.833   6.514
 5058POPC   C3A65621  39.551  34.662   6.902
 5058POPC   C4A65622  39.423  34.737   7.294
 5058POPC   C1B65623  39.088  34.911   6.135
 5058POPC   C2B65624  38.899  34.757   6.504
 5058POPC   C3B65625  39.049  34.779   6.893
 5058POPC   C4B65626  38.883  34.828   7.273
 5059POPC   NC365627  17.877  23.417   5.320
 5059POPC   PO465628  17.355  23.857   5.385
 5059POPC   GL165629  17.533  23.651   5.708
 5059POPC   GL265630  17.849  23.831   5.686
 5059POPC   C1A65631  17.370  23.491   6.093
 5059POPC   D2A65632  17.550  23.527   6.492
 5059POPC   C3A65633  17.360  23.430   6.884
 5059POPC   C4A65634  17.482  23.474   7.281
 5059POPC   C1B65635  17.859  23.735   6.116
 5059POPC   C2B65636  17.960  23.860   6.530
 5059POPC   C3B65637  17.799  23.728   6.919
 5059POPC   C4B65638  17.807  23.884   7.306
 5060POPC   NC365639  35.100  12.110   5.269
 5060POPC   PO465640  35.640  12.314   5.451
 5060POPC   GL165641  35.552  12.130   5.825
 5060POPC   GL265642  35.188  12.170   5.813
 5060POPC   C1A65643  35.510  12.304   6.243
 5060POPC   D2A65644  35.261  12.282   6.602
 5060POPC   C3A65645  35.443  12.190   6.977
 5060POPC   C4A65646  35.777  12.261   7.269
 5060POPC   C1B65647  35.123  11.956   6.213
 5060POPC   C2B65648  35.042  11.786   6.637
 5060POPC   C3B65649  34.963  11.991   7.010
 5060POPC   C4B65650  34.914  12.253   7.343
 5061POPC   NC365651  44.232  20.085   5.471
 5061POPC   PO465652  43.638  19.663   5.395
 5061POPC   GL165653  43.802  19.898   5.742
 5061POPC   GL265654  44.076  19.665   5.808
 5061POPC   C1A65655  43.949  20.007   6.175
 5061POPC   D2A65656  44.128  19.878   6.561
 5061POPC   C3A65657  44.072  20.115   6.936
 5061POPC   C4A65658  43.817  20.091   7.286
 5061POPC   C1B65659  43.788  19.513   6.128
 5061POPC   C2B65660  43.705  19.605   6.572
 5061POPC   C3B65661  43.890  19.625   6.979
 5061POPC   C4B65662  44.342  19.682   7.046
 5062POPC   NC365663  37.980  42.420   5.466
 5062POPC   PO465664  37.292  42.431   5.409
 5062POPC   GL165665  37.461  42.226   5.777
 5062POPC   GL265666  37.843  42.160   5.866
 5062POPC   C1A65667  37.477  42.426   6.181
 5062POPC   D2A65668  37.346  42.631   6.570
 5062POPC   C3A65669  37.592  42.445   6.860
 5062POPC   C4A65670  37.606  42.102   7.119
 5062POPC   C1B65671  37.948  42.263   6.282
 5062POPC   C2B65672  37.949  42.141   6.687
 5062POPC   C3B65673  38.084  42.268   7.078
 5062POPC   C4B65674  37.899  42.629   7.212
 5063POPC   NC365675   7.298  27.919   5.567
 5063POPC   PO465676   7.657  27.468   5.232
 5063POPC   GL165677   7.652  27.549   5.698
 5063POPC   GL265678   7.513  27.237   5.827
 5063POPC   C1A65679   7.734  27.711   6.142
 5063POPC   D2A65680   7.593  27.594   6.578
 5063POPC   C3A65681   7.456  27.785   6.967
 5063POPC   C4A65682   7.696  27.843   7.323
 5063POPC   C1B65683   7.281  27.446   6.174
 5063POPC   C2B65684   7.142  27.375   6.623
 5063POPC   C3B65685   7.378  27.265   7.008
 5063POPC   C4B65686   7.510  27.354   7.465
 5064POPC   NC365687  16.770   3.380   5.139
 5064POPC   PO465688  16.834   3.989   5.344
 5064POPC   GL165689  16.766   3.633   5.680
 5064POPC   GL265690  16.440   3.640   5.852
 5064POPC   C1A65691  16.893   3.464   6.109
 5064POPC   D2A65692  17.017   3.566   6.523
 5064POPC   C3A65693  17.010   3.298   6.877
 5064POPC   C4A65694  16.988   3.463   7.274
 5064POPC   C1B65695  16.406   3.298   6.159
 5064POPC   C2B65696  16.595   3.228   6.570
 5064POPC   C3B65697  16.528   3.404   7.014
 5064POPC   C4B65698  16.512   3.509   7.476
 5065POPC   NC365699   5.256   7.001   5.513
 5065POPC   PO465700   4.971   6.559   5.149
 5065POPC   GL165701   4.913   6.680   5.691
 5065POPC   GL265702   5.134   6.511   5.994
 5065POPC   C1A65703   4.774   6.817   6.147
 5065POPC   D2A65704   4.977   6.627   6.543
 5065POPC   C3A65705   4.909   6.662   7.014
 5065POPC   C4A65706   5.151   6.386   7.342
 5065POPC   C1B65707   5.262   6.916   6.150
 5065POPC   C2B65708   5.337   7.002   6.554
 5065POPC   C3B65709   5.377   6.791   6.905
 5065POPC   C4B65710   5.261   6.887   7.351
 5066POPC   NC365711  30.317  38.239   5.633
 5066POPC   PO465712  29.817  38.655   5.374
 5066POPC   GL165713  29.905  38.511   5.831
 5066POPC   GL265714  30.216  38.680   5.860
 5066POPC   C1A65715  29.942  38.304   6.281
 5066POPC   D2A65716  30.006  38.131   6.727
 5066POPC   C3A65717  29.720  38.261   7.037
 5066POPC   C4A65718  29.729  38.451   7.455
 5066POPC   C1B65719  30.381  38.605   6.257
 5066POPC   C2B65720  30.264  38.657   6.696
 5066POPC   C3B65721  30.176  38.592   7.120
 5066POPC   C4B65722  30.160  38.219   7.316
 5067POPC   NC365723  43.572  22.218   5.115
 5067POPC   PO465724  43.034  21.868   5.355
 5067POPC   GL165725  43.204  21.953   5.741
 5067POPC   GL265726  43.392  22.251   5.664
 5067POPC   C1A65727  43.043  21.924   6.147
 5067POPC   D2A65728  42.985  22.135   6.537
 5067POPC   C3A65729  43.014  21.857   6.876
 5067POPC   C4A65730  43.178  21.854   7.289
 5067POPC   C1B65731  43.417  22.274   6.154
 5067POPC   C2B65732  43.416  22.426   6.609
 5067POPC   C3B65733  43.337  22.290   7.070
 5067POPC   C4B65734  43.428  22.189   7.569
 5068POPC   NC365735  38.016  32.212   5.312
 5068POPC   PO465736  38.553  32.001   5.406
 5068POPC   GL165737  38.319  32.150   5.768
 5068POPC   GL265738  38.034  31.945   5.790
 5068POPC   C1A65739  38.467  32.248   6.195
 5068POPC   D2A65740  38.833  32.213   6.492
 5068POPC   C3A65741  38.681  32.247   6.930
 5068POPC   C4A65742  38.377  32.448   7.240
 5068POPC   C1B65743  38.167  31.820   6.236
 5068POPC   C2B65744  38.390  31.945   6.628
 5068POPC   C3B65745  38.207  31.995   7.059
 5068POPC   C4B65746  38.339  32.024   7.538
 5069POPC   NC365747  21.829   9.329   5.487
 5069POPC   PO465748  21.807   8.663   5.329
 5069POPC   GL165749  22.060   8.897   5.655
 5069POPC   GL265750  22.419   8.838   5.666
 5069POPC   C1A65751  22.112   8.841   6.121
 5069POPC   D2A65752  22.035   9.077   6.512
 5069POPC   C3A65753  21.982   8.834   6.886
 5069POPC   C4A65754  22.071   8.857   7.315
 5069POPC   C1B65755  22.487   9.192   6.001
 5069POPC   C2B65756  22.532   9.219   6.476
 5069POPC   C3B65757  22.462   9.054   6.908
 5069POPC   C4B65758  22.427   9.220   7.329
 5070POPC   NC365759  12.378  33.099   5.533
 5070POPC   PO465760  13.029  33.329   5.362
 5070POPC   GL165761  12.954  33.126   5.796
 5070POPC   GL265762  12.985  32.765   5.884
 5070POPC   C1A65763  12.903  33.089   6.267
 5070POPC   D2A65764  12.973  33.356   6.632
 5070POPC   C3A65765  13.066  33.189   7.029
 5070POPC   C4A65766  12.864  32.864   7.246
 5070POPC   C1B65767  13.183  32.644   6.291
 5070POPC   C2B65768  13.086  32.781   6.688
 5070POPC   C3B65769  13.294  32.694   7.051
 5070POPC   C4B65770  13.181  32.513   7.415
 5071POPC   NC365771   3.297  37.146   5.456
 5071POPC   PO465772   3.806  36.760   5.187
 5071POPC   GL165773   3.713  36.806   5.646
 5071POPC   GL265774   3.921  37.002   5.863
 5071POPC   C1A65775   3.411  36.889   6.025
 5071POPC   D2A65776   3.247  37.167   6.354
 5071POPC   C3A65777   3.268  37.122   6.840
 5071POPC   C4A65778   3.314  37.432   7.200
 5071POPC   C1B65779   3.833  36.724   6.254
 5071POPC   C2B65780   3.851  36.529   6.670
 5071POPC   C3B65781   3.712  36.824   7.008
 5071POPC   C4B65782   3.850  37.173   7.219
 5072POPC   NC365783  24.592  33.037   5.457
 5072POPC   PO465784  24.164  32.500   5.378
 5072POPC   GL165785  24.269  32.650   5.827
 5072POPC   GL265786  24.258  33.041   5.863
 5072POPC   C1A65787  24.269  32.791   6.310
 5072POPC   D2A65788  24.231  33.117   6.631
 5072POPC   C3A65789  24.362  33.065   7.074
 5072POPC   C4A65790  24.331  32.799   7.448
 5072POPC   C1B65791  24.562  33.196   6.216
 5072POPC   C2B65792  24.764  33.092   6.653
 5072POPC   C3B65793  24.891  33.203   7.098
 5072POPC   C4B65794  24.737  33.121   7.555
 5073POPC   NC365795   9.480  21.254   5.428
 5073POPC   PO465796   9.125  21.831   5.567
 5073POPC   GL165797   9.421  21.574   5.835
 5073POPC   GL265798   9.689  21.793   5.798
 5073POPC   C1A65799   9.545  21.195   6.148
 5073POPC   D2A65800   9.752  21.099   6.579
 5073POPC   C3A65801   9.616  21.211   7.007
 5073POPC   C4A65802   9.398  21.005   7.355
 5073POPC   C1B65803   9.732  21.662   6.227
 5073POPC   C2B65804   9.923  21.605   6.599
 5073POPC   C3B65805   9.706  21.702   6.923
 5073POPC   C4B65806   9.712  21.659   7.327
 5074POPC   NC365807  12.448  16.130   5.716
 5074POPC   PO465808  13.010  16.023   5.375
 5074POPC   GL165809  13.132  16.056   5.781
 5074POPC   GL265810  12.867  15.815   5.863
 5074POPC   C1A65811  13.304  15.828   6.115
 5074POPC   D2A65812  13.322  15.766   6.550
 5074POPC   C3A65813  12.910  15.809   6.770
 5074POPC   C4A65814  12.885  15.854   7.218
 5074POPC   C1B65815  12.867  16.120   6.223
 5074POPC   C2B65816  12.562  16.306   6.505
 5074POPC   C3B65817  12.487  16.137   6.906
 5074POPC   C4B65818  12.404  16.006   7.323
 5075POPC   NC365819  17.072  19.293   5.523
 5075POPC   PO465820  17.414  18.909   5.067
 5075POPC   GL165821  17.453  18.960   5.592
 5075POPC   GL265822  17.471  19.301   5.810
 5075POPC   C1A65823  17.613  18.883   6.048
 5075POPC   D2A65824  17.518  18.889   6.499
 5075POPC   C3A65825  17.690  19.104   6.858
 5075POPC   C4A65826  17.606  19.004   7.298
 5075POPC   C1B65827  17.216  19.200   6.194
 5075POPC   C2B65828  17.251  19.309   6.632
 5075POPC   C3B65829  17.358  19.435   7.056
 5075POPC   C4B65830  17.118  19.129   7.165
 5076POPC   NC365831  29.567  36.128   5.145
 5076POPC   PO465832  30.054  35.757   5.267
 5076POPC   GL165833  30.044  36.091   5.601
 5076POPC   GL265834  29.833  35.996   5.854
 5076POPC   C1A65835  30.215  36.234   6.056
 5076POPC   D2A65836  30.213  36.004   6.479
 5076POPC   C3A65837  30.235  36.147   6.898
 5076POPC   C4A65838  30.200  36.349   7.300
 5076POPC   C1B65839  29.751  36.069   6.280
 5076POPC   C2B65840  29.669  36.158   6.681
 5076POPC   C3B65841  29.747  36.045   7.086
 5076POPC   C4B65842  29.475  35.982   7.460
 5077POPC   NC365843  29.266  11.106   5.125
 5077POPC   PO465844  29.356  10.594   5.522
 5077POPC   GL165845  29.095  10.472   5.824
 5077POPC   GL265846  29.304  10.559   6.042
 5077POPC   C1A65847  28.817  10.441   6.174
 5077POPC   D2A65848  28.912  10.364   6.577
 5077POPC   C3A65849  28.710  10.554   6.932
 5077POPC   C4A65850  28.634  10.444   7.368
 5077POPC   C1B65851  29.380  10.672   6.438
 5077POPC   C2B65852  29.371  10.394   6.764
 5077POPC   C3B65853  29.199  10.388   7.182
 5077POPC   C4B65854  29.398  10.310   7.556
 5078POPC   NC365855  21.577  35.477   5.416
 5078POPC   PO465856  21.257  34.977   5.539
 5078POPC   GL165857  21.366  35.312   5.873
 5078POPC   GL265858  21.385  35.684   5.824
 5078POPC   C1A65859  21.597  35.434   6.255
 5078POPC   D2A65860  21.624  35.417   6.704
 5078POPC   C3A65861  21.390  35.269   7.044
 5078POPC   C4A65862  21.524  35.309   7.488
 5078POPC   C1B65863  21.191  35.730   6.207
 5078POPC   C2B65864  21.130  35.612   6.616
 5078POPC   C3B65865  21.258  35.756   7.024
 5078POPC   C4B65866  21.065  35.523   7.331
 5079POPC   NC365867  32.769  12.323   5.567
 5079POPC   PO465868  33.181  12.821   5.260
 5079POPC   GL165869  33.215  12.697   5.672
 5079POPC   GL265870  33.338  12.361   5.705
 5079POPC   C1A65871  33.048  12.897   6.045
 5079POPC   D2A65872  33.194  13.040   6.442
 5079POPC   C3A65873  32.932  13.248   6.733
 5079POPC   C4A65874  32.929  13.216   7.167
 5079POPC   C1B65875  33.135  12.391   6.129
 5079POPC   C2B65876  32.917  12.605   6.476
 5079POPC   C3B65877  33.059  12.751   6.891
 5079POPC   C4B65878  33.054  12.465   7.253
 5080POPC   NC365879  32.221   9.919   5.376
 5080POPC   PO465880  31.590   9.826   5.342
 5080POPC   GL165881  31.791  10.006   5.743
 5080POPC   GL265882  31.992   9.709   5.816
 5080POPC   C1A65883  31.875   9.959   6.230
 5080POPC   D2A65884  32.078   9.910   6.620
 5080POPC   C3A65885  31.996   9.973   7.048
 5080POPC   C4A65886  32.385  10.086   7.254
 5080POPC   C1B65887  32.322   9.704   6.180
 5080POPC   C2B65888  32.445   9.564   6.627
 5080POPC   C3B65889  32.211   9.516   7.051
 5080POPC   C4B65890  32.050   9.306   7.445
 5081POPC   NC365891   5.996   6.640   5.368
 5081POPC   PO465892   5.360   6.455   5.560
 5081POPC   GL165893   5.616   6.707   5.813
 5081POPC   GL265894   5.890   6.472   5.830
 5081POPC   C1A65895   5.677   6.655   6.265
 5081POPC   D2A65896   5.438   6.387   6.520
 5081POPC   C3A65897   5.612   6.326   6.905
 5081POPC   C4A65898   5.639   6.561   7.263
 5081POPC   C1B65899   6.172   6.627   6.139
 5081POPC   C2B65900   6.271   6.660   6.575
 5081POPC   C3B65901   6.059   6.614   6.979
 5081POPC   C4B65902   6.105   6.825   7.413
 5082POPC   NC365903  40.226  42.665   5.346
 5082POPC   PO465904  39.723  42.228   5.421
 5082POPC   GL165905  40.010  42.328   5.703
 5082POPC   GL265906  39.998  42.650   5.808
 5082POPC   C1A65907  40.192  42.243   6.094
 5082POPC   D2A65908  40.163  42.480   6.480
 5082POPC   C3A65909  40.132  42.206   6.840
 5082POPC   C4A65910  40.200  42.341   7.241
 5082POPC   C1B65911  39.763  42.514   6.164
 5082POPC   C2B65912  39.671  42.392   6.634
 5082POPC   C3B65913  39.728  42.411   7.120
 5082POPC   C4B65914  39.804  42.247   7.600
 5083POPC   NC365915  14.271   5.388   5.446
 5083POPC   PO465916  14.390   6.037   5.366
 5083POPC   GL165917  14.506   5.781   5.725
 5083POPC   GL265918  14.167   5.737   5.829
 5083POPC   C1A65919  14.669   5.825   6.177
 5083POPC   D2A65920  14.874   5.783   6.613
 5083POPC   C3A65921  14.604   5.767   7.009
 5083POPC   C4A65922  14.278   5.988   7.251
 5083POPC   C1B65923  14.326   5.464   6.143
 5083POPC   C2B65924  14.357   5.548   6.602
 5083POPC   C3B65925  14.141   5.498   7.020
 5083POPC   C4B65926  14.160   5.558   7.496
 5084POPC   NC365927   0.736  18.371   5.657
 5084POPC   PO465928   0.193  18.521   5.343
 5084POPC   GL165929   0.236  18.451   5.812
 5084POPC   GL265930   0.465  18.725   5.915
 5084POPC   C1A65931   0.345  18.183   6.218
 5084POPC   D2A65932   0.222  17.892   6.584
 5084POPC   C3A65933   0.369  18.079   6.988
 5084POPC   C4A65934   0.244  18.122   7.451
 5084POPC   C1B65935   0.676  18.578   6.291
 5084POPC   C2B65936   0.577  18.442   6.687
 5084POPC   C3B65937   0.420  18.584   7.083
 5084POPC   C4B65938   0.707  18.350   7.294
 5085POPC   NC365939   7.536   4.943   5.434
 5085POPC   PO465940   7.551   5.523   5.757
 5085POPC   GL165941   7.350   5.142   5.873
 5085POPC   GL265942   7.588   4.832   5.931
 5085POPC   C1A65943   7.226   5.186   6.273
 5085POPC   D2A65944   7.382   5.010   6.605
 5085POPC   C3A65945   7.088   5.013   6.885
 5085POPC   C4A65946   7.236   5.009   7.251
 5085POPC   C1B65947   7.744   5.133   6.239
 5085POPC   C2B65948   7.756   5.380   6.615
 5085POPC   C3B65949   7.641   5.244   7.028
 5085POPC   C4B65950   7.775   5.454   7.408
 5086POPC   NC365951   8.704  13.875   5.296
 5086POPC   PO465952   9.274  13.511   5.457
 5086POPC   GL165953   9.029  13.657   5.750
 5086POPC   GL265954   9.030  13.347   5.904
 5086POPC   C1A65955   8.903  13.734   6.180
 5086POPC   D2A65956   8.783  13.611   6.572
 5086POPC   C3A65957   8.919  13.847   6.961
 5086POPC   C4A65958   9.125  13.812   7.401
 5086POPC   C1B65959   9.156  13.282   6.356
 5086POPC   C2B65960   9.168  13.341   6.820
 5086POPC   C3B65961   9.110  13.318   7.282
 5086POPC   C4B65962   9.357  13.424   7.686
 5087POPC   NC365963  35.328  29.720   5.436
 5087POPC   PO465964  35.113  30.425   5.442
 5087POPC   GL165965  35.344  30.097   5.780
 5087POPC   GL265966  35.530  29.731   5.888
 5087POPC   C1A65967  35.445  30.092   6.219
 5087POPC   D2A65968  35.628  29.882   6.535
 5087POPC   C3A65969  35.391  29.746   6.844
 5087POPC   C4A65970  35.462  29.952   7.206
 5087POPC   C1B65971  35.278  29.587   6.247
 5087POPC   C2B65972  34.971  29.526   6.589
 5087POPC   C3B65973  34.975  29.463   7.020
 5087POPC   C4B65974  35.239  29.521   7.375
 5088POPC   NC365975   5.630  11.730   5.352
 5088POPC   PO465976   6.084  12.186   5.398
 5088POPC   GL165977   5.855  12.153   5.762
 5088POPC   GL265978   6.183  12.151   5.902
 5088POPC   C1A65979   5.813  11.939   6.194
 5088POPC   D2A65980   5.672  12.095   6.594
 5088POPC   C3A65981   5.735  11.906   6.998
 5088POPC   C4A65982   5.558  12.125   7.368
 5088POPC   C1B65983   6.312  11.952   6.264
 5088POPC   C2B65984   6.144  11.860   6.660
 5088POPC   C3B65985   6.236  11.997   7.084
 5088POPC   C4B65986   6.034  11.973   7.492
 5089POPC   NC365987  18.693  31.819   5.453
 5089POPC   PO465988  19.282  31.535   5.289
 5089POPC   GL165989  19.008  31.479   5.694
 5089POPC   GL265990  19.003  31.833   5.867
 5089POPC   C1A65991  19.082  31.384   6.159
 5089POPC   D2A65992  19.171  31.593   6.569
 5089POPC   C3A65993  19.100  31.396   6.991
 5089POPC   C4A65994  18.931  31.496   7.407
 5089POPC   C1B65995  18.661  31.682   6.140
 5089POPC   C2B65996  18.647  31.503   6.549
 5089POPC   C3B65997  18.761  31.765   6.891
 5089POPC   C4B65998  18.612  31.934   7.234
 5090POPC   NC365999  20.241  26.149   5.066
 5090POPC   PO466000  20.200  26.638   5.572
 5090POPC   GL166001  20.434  26.765   5.960
 5090POPC   GL266002  20.804  26.886   5.926
 5090POPC   C1A66003  20.586  26.845   6.397
 5090POPC   D2A66004  20.778  26.543   6.701
 5090POPC   C3A66005  20.512  26.499   7.077
 5090POPC   C4A66006  20.260  26.854   7.201
 5090POPC   C1B66007  20.969  27.204   6.254
 5090POPC   C2B66008  21.168  27.271   6.707
 5090POPC   C3B66009  21.099  27.136   7.160
 5090POPC   C4B66010  21.032  27.184   7.615
 5091POPC   NC366011  43.220  26.277   5.552
 5091POPC   PO466012  42.840  25.675   5.527
 5091POPC   GL166013  42.874  25.923   5.856
 5091POPC   GL266014  42.742  26.245   5.785
 5091POPC   C1A66015  42.927  25.994   6.279
 5091POPC   D2A66016  43.161  26.223   6.570
 5091POPC   C3A66017  43.146  25.993   6.945
 5091POPC   C4A66018  43.462  26.102   7.244
 5091POPC   C1B66019  42.787  26.470   6.186
 5091POPC   C2B66020  42.676  26.338   6.597
 5091POPC   C3B66021  42.854  26.395   7.006
 5091POPC   C4B66022  43.005  26.207   7.427
 5092POPC   NC366023  15.436   2.688   5.495
 5092POPC   PO466024  14.865   2.934   5.159
 5092POPC   GL166025  15.045   2.968   5.617
 5092POPC   GL266026  15.005   2.670   5.797
 5092POPC   C1A66027  15.234   3.045   6.059
 5092POPC   D2A66028  15.148   3.060   6.519
 5092POPC   C3A66029  15.231   2.782   6.879
 5092POPC   C4A66030  15.263   2.893   7.317
 5092POPC   C1B66031  14.974   2.592   6.257
 5092POPC   C2B66032  14.741   2.293   6.540
 5092POPC   C3B66033  14.794   2.317   6.969
 5092POPC   C4B66034  15.061   2.433   7.273
 5093POPC   NC366035  37.846  21.725   5.255
 5093POPC   PO466036  37.540  21.115   5.364
 5093POPC   GL166037  37.664  21.424   5.672
 5093POPC   GL266038  37.925  21.654   5.751
 5093POPC   C1A66039  37.602  21.474   6.127
 5093POPC   D2A66040  37.423  21.349   6.519
 5093POPC   C3A66041  37.574  21.528   6.913
 5093POPC   C4A66042  37.607  21.452   7.338
 5093POPC   C1B66043  38.033  21.768   6.169
 5093POPC   C2B66044  37.930  21.507   6.539
 5093POPC   C3B66045  37.974  21.193   6.865
 5093POPC   C4B66046  38.093  21.309   7.256
 5094POPC   NC366047  27.866  29.216   5.416
 5094POPC   PO466048  27.227  28.888   5.371
 5094POPC   GL166049  27.291  29.243   5.707
 5094POPC   GL266050  27.639  29.348   5.857
 5094POPC   C1A66051  27.258  29.220   6.166
 5094POPC   D2A66052  27.613  29.227   6.438
 5094POPC   C3A66053  27.477  29.235   6.874
 5094POPC   C4A66054  27.577  29.023   7.230
 5094POPC   C1B66055  27.930  29.523   6.166
 5094POPC   C2B66056  28.084  29.408   6.572
 5094POPC   C3B66057  27.917  29.512   6.948
 5094POPC   C4B66058  27.638  29.547   7.287
 5095POPC   NC366059  39.003  32.240   5.475
 5095POPC   PO466060  39.682  32.506   5.450
 5095POPC   GL166061  39.413  32.315   5.824
 5095POPC   GL266062  39.090  32.120   5.951
 5095POPC   C1A66063  39.365  32.421   6.244
 5095POPC   D2A66064  39.155  32.620   6.562
 5095POPC   C3A66065  39.274  32.511   6.967
 5095POPC   C4A66066  39.018  32.556   7.305
 5095POPC   C1B66067  39.399  31.918   6.221
 5095POPC   C2B66068  39.462  32.028   6.618
 5095POPC   C3B66069  39.151  32.012   6.902
 5095POPC   C4B66070  39.289  32.097   7.285
 5096POPC   NC366071  28.382  44.339   5.462
 5096POPC   PO466072  28.632  43.653   5.511
 5096POPC   GL166073  28.564  44.000   5.803
 5096POPC   GL266074  28.190  43.995   5.814
 5096POPC   C1A66075  28.531  44.035   6.254
 5096POPC   D2A66076  28.233  43.910   6.574
 5096POPC   C3A66077  28.372  43.794   6.947
 5096POPC   C4A66078  28.439  43.507   7.272
 5096POPC   C1B66079  28.017  44.172   6.194
 5096POPC   C2B66080  28.054  44.370   6.635
 5096POPC   C3B66081  27.921  44.096   6.985
 5096POPC   C4B66082  27.990  43.819   7.331
 5097POPC   NC366083  17.133  24.287   5.394
 5097POPC   PO466084  17.781  24.571   5.369
 5097POPC   GL166085  17.749  24.355   5.769
 5097POPC   GL266086  17.467  24.542   5.851
 5097POPC   C1A66087  17.555  24.151   6.187
 5097POPC   D2A66088  17.482  24.011   6.642
 5097POPC   C3A66089  17.479  24.199   7.065
 5097POPC   C4A66090  17.200  24.439   7.345
 5097POPC   C1B66091  17.714  24.635   6.221
 5097POPC   C2B66092  17.579  24.523   6.619
 5097POPC   C3B66093  17.782  24.589   6.994
 5097POPC   C4B66094  17.625  24.745   7.370
 5098POPC   NC366095  41.281  27.742   5.468
 5098POPC   PO466096  41.972  27.962   5.470
 5098POPC   GL166097  41.838  27.718   5.850
 5098POPC   GL266098  41.511  27.599   5.892
 5098POPC   C1A66099  41.849  27.515   6.287
 5098POPC   D2A66100  41.679  27.323   6.665
 5098POPC   C3A66101  41.701  27.566   7.059
 5098POPC   C4A66102  41.743  27.830   7.452
 5098POPC   C1B66103  41.327  27.491   6.267
 5098POPC   C2B66104  41.111  27.419   6.629
 5098POPC   C3B66105  41.183  27.550   7.051
 5098POPC   C4B66106  41.380  27.478   7.455
 5099POPC   NC366107  21.049  20.998   5.599
 5099POPC   PO466108  20.363  21.033   5.536
 5099POPC   GL166109  20.587  21.196   5.911
 5099POPC   GL266110  20.545  21.542   5.948
 5099POPC   C1A66111  20.694  21.170   6.360
 5099POPC   D2A66112  20.814  21.322   6.782
 5099POPC   C3A66113  21.053  21.058   7.100
 5099POPC   C4A66114  20.808  20.958   7.539
 5099POPC   C1B66115  20.711  21.696   6.329
 5099POPC   C2B66116  20.962  21.816   6.684
 5099POPC   C3B66117  20.722  21.765   7.055
 5099POPC   C4B66118  20.778  21.403   7.304
 5100POPC   NC366119  34.197  28.270   5.465
 5100POPC   PO466120  34.776  27.971   5.619
 5100POPC   GL166121  34.586  28.264   5.885
 5100POPC   GL266122  34.910  28.200   6.063
 5100POPC   C1A66123  34.484  28.414   6.284
 5100POPC   D2A66124  34.261  28.211   6.630
 5100POPC   C3A66125  34.454  28.312   7.001
 5100POPC   C4A66126  34.783  28.230   7.256
 5100POPC   C1B66127  35.007  28.521   6.323
 5100POPC   C2B66128  34.881  28.526   6.756
 5100POPC   C3B66129  35.161  28.515   7.123
 5100POPC   C4B66130  35.047  28.550   7.584
 5101POPC   NC366131  34.979  28.383   5.593
 5101POPC   PO466132  35.643  28.323   5.475
 5101POPC   GL166133  35.428  28.309   5.848
 5101POPC   GL266134  35.343  28.652   5.826
 5101POPC   C1A66135  35.391  28.158   6.261
 5101POPC   D2A66136  35.243  28.158   6.670
 5101POPC   C3A66137  35.553  28.251   6.945
 5101POPC   C4A66138  35.544  28.125   7.358
 5101POPC   C1B66139  35.512  28.658   6.233
 5101POPC   C2B66140  35.400  28.666   6.657
 5101POPC   C3B66141  35.600  28.769   7.039
 5101POPC   C4B66142  35.529  28.642   7.453
 5102POPC   NC366143  13.422  23.950   5.442
 5102POPC   PO466144  13.930  23.508   5.468
 5102POPC   GL166145  13.781  23.775   5.783
 5102POPC   GL266146  13.491  23.560   5.828
 5102POPC   C1A66147  13.834  23.837   6.224
 5102POPC   D2A66148  13.645  23.657   6.614
 5102POPC   C3A66149  13.761  23.792   7.065
 5102POPC   C4A66150  13.803  23.901   7.530
 5102POPC   C1B66151  13.317  23.802   6.177
 5102POPC   C2B66152  13.154  23.837   6.604
 5102POPC   C3B66153  13.236  23.721   7.038
 5102POPC   C4B66154  13.306  23.904   7.449
 5103POPC   NC366155   8.293  13.065   5.282
 5103POPC   PO466156   7.703  12.747   5.455
 5103POPC   GL166157   8.017  12.873   5.764
 5103POPC   GL266158   8.314  12.685   5.620
 5103POPC   C1A66159   8.057  13.029   6.248
 5103POPC   D2A66160   8.252  13.126   6.699
 5103POPC   C3A66161   8.106  12.942   7.080
 5103POPC   C4A66162   8.025  12.526   7.250
 5103POPC   C1B66163   8.464  12.829   5.992
 5103POPC   C2B66164   8.467  12.768   6.399
 5103POPC   C3B66165   8.378  12.615   6.813
 5103POPC   C4B66166   8.519  12.636   7.228
 5104POPC   NC366167   2.448   4.288   5.518
 5104POPC   PO466168   2.989   4.575   5.225
 5104POPC   GL166169   2.832   4.586   5.689
 5104POPC   GL266170   2.843   4.251   5.831
 5104POPC   C1A66171   2.671   4.671   6.122
 5104POPC   D2A66172   2.732   4.462   6.517
 5104POPC   C3A66173   2.458   4.499   6.852
 5104POPC   C4A66174   2.662   4.513   7.222
 5104POPC   C1B66175   2.574   4.103   6.174
 5104POPC   C2B66176   2.643   3.862   6.580
 5104POPC   C3B66177   2.588   4.024   7.002
 5104POPC   C4B66178   2.429   4.123   7.462
 5105POPC   NC366179  38.994  27.278   5.133
 5105POPC   PO466180  39.177  27.875   5.440
 5105POPC   GL166181  39.110  27.849   5.922
 5105POPC   GL266182  39.442  27.898   6.087
 5105POPC   C1A66183  39.167  27.474   6.245
 5105POPC   D2A66184  39.257  27.287   6.622
 5105POPC   C3A66185  39.152  27.536   6.969
 5105POPC   C4A66186  39.224  27.624   7.419
 5105POPC   C1B66187  39.691  27.560   6.306
 5105POPC   C2B66188  39.772  27.485   6.730
 5105POPC   C3B66189  39.631  27.683   7.095
 5105POPC   C4B66190  39.509  28.101   7.290
 5106POPC   NC366191  41.834  21.755   5.507
 5106POPC   PO466192  41.339  21.304   5.260
 5106POPC   GL166193  41.345  21.230   5.720
 5106POPC   GL266194  41.654  21.375   5.830
 5106POPC   C1A66195  41.281  21.412   6.160
 5106POPC   D2A66196  41.519  21.302   6.569
 5106POPC   C3A66197  41.410  21.457   6.990
 5106POPC   C4A66198  41.643  21.388   7.371
 5106POPC   C1B66199  41.936  21.319   6.163
 5106POPC   C2B66200  42.010  21.117   6.547
 5106POPC   C3B66201  41.958  21.256   6.971
 5106POPC   C4B66202  42.015  21.035   7.382
 5107POPC   NC366203  39.760   2.281   5.621
 5107POPC   PO466204  40.058   1.753   5.361
 5107POPC   GL166205  39.924   1.805   5.789
 5107POPC   GL266206  39.591   1.725   5.749
 5107POPC   C1A66207  39.963   1.926   6.257
 5107POPC   D2A66208  40.176   2.220   6.584
 5107POPC   C3A66209  40.237   2.071   7.012
 5107POPC   C4A66210  40.021   1.714   7.244
 5107POPC   C1B66211  39.464   2.038   6.102
 5107POPC   C2B66212  39.519   2.006   6.515
 5107POPC   C3B66213  39.765   1.978   6.855
 5107POPC   C4B66214  39.593   2.102   7.232
 5108POPC   NC366215  39.721   2.340   5.117
 5108POPC   PO466216  40.237   2.730   5.244
 5108POPC   GL166217  40.166   2.857   5.724
 5108POPC   GL266218  39.802   2.783   5.815
 5108POPC   C1A66219  40.213   2.905   6.161
 5108POPC   D2A66220  40.168   2.735   6.590
 5108POPC   C3A66221  39.919   2.942   6.908
 5108POPC   C4A66222  39.900   2.918   7.328
 5108POPC   C1B66223  39.789   2.597   6.250
 5108POPC   C2B66224  39.722   2.485   6.692
 5108POPC   C3B66225  39.918   2.460   7.097
 5108POPC   C4B66226  39.765   2.480   7.529
 5109POPC   NC366227   6.690  31.084   5.430
 5109POPC   PO466228   6.931  31.803   5.491
 5109POPC   GL166229   6.708  31.656   5.845
 5109POPC   GL266230   6.797  31.315   5.862
 5109POPC   C1A66231   6.604  31.618   6.289
 5109POPC   D2A66232   6.495  31.779   6.704
 5109POPC   C3A66233   6.669  31.573   7.051
 5109POPC   C4A66234   6.485  31.486   7.444
 5109POPC   C1B66235   6.443  31.170   6.068
 5109POPC   C2B66236   6.484  31.037   6.467
 5109POPC   C3B66237   6.518  30.895   6.873
 5109POPC   C4B66238   6.680  31.052   7.265
 5110POPC   NC366239  38.675  38.149   5.452
 5110POPC   PO466240  38.311  37.573   5.524
 5110POPC   GL166241  38.455  37.526   5.901
 5110POPC   GL266242  38.763  37.340   5.868
 5110POPC   C1A66243  38.296  37.661   6.274
 5110POPC   D2A66244  38.239  37.892   6.634
 5110POPC   C3A66245  38.320  37.650   6.989
 5110POPC   C4A66246  38.587  37.863   7.251
 5110POPC   C1B66247  38.785  37.388   6.280
 5110POPC   C2B66248  38.581  37.378   6.638
 5110POPC   C3B66249  38.783  37.351   7.076
 5110POPC   C4B66250  38.806  37.316   7.552
 5111POPC   NC366251  37.046  37.954   5.732
 5111POPC   PO466252  37.290  38.320   5.208
 5111POPC   GL166253  37.199  38.510   5.635
 5111POPC   GL266254  36.823  38.449   5.715
 5111POPC   C1A66255  37.091  38.616   6.104
 5111POPC   D2A66256  36.922  38.324   6.429
 5111POPC   C3A66257  37.015  38.381   6.889
 5111POPC   C4A66258  36.845  38.149   7.226
 5111POPC   C1B66259  36.556  38.539   6.108
 5111POPC   C2B66260  36.394  38.583   6.541
 5111POPC   C3B66261  36.537  38.502   6.967
 5111POPC   C4B66262  36.818  38.661   7.324
 5112POPC   NC366263  10.773  10.792   4.955
 5112POPC   PO466264  10.457  11.010   5.403
 5112POPC   GL166265  10.486  10.827   5.874
 5112POPC   GL266266  10.689  10.518   5.964
 5112POPC   C1A66267  10.466  10.757   6.374
 5112POPC   D2A66268  10.387  10.713   6.851
 5112POPC   C3A66269  10.663  10.929   7.165
 5112POPC   C4A66270  10.611  11.046   7.610
 5112POPC   C1B66271  10.735  10.303   6.385
 5112POPC   C2B66272  10.531  10.224   6.792
 5112POPC   C3B66273  10.691  10.111   7.218
 5112POPC   C4B66274  10.962   9.741   7.380
 5113POPC   NC366275  17.997  26.656   5.574
 5113POPC   PO466276  18.641  26.917   5.485
 5113POPC   GL166277  18.406  26.830   5.849
 5113POPC   GL266278  18.325  26.486   5.955
 5113POPC   C1A66279  18.339  26.984   6.259
 5113POPC   D2A66280  18.617  27.037   6.595
 5113POPC   C3A66281  18.420  26.862   6.958
 5113POPC   C4A66282  18.110  26.989   7.262
 5113POPC   C1B66283  17.983  26.631   6.260
 5113POPC   C2B66284  17.965  26.675   6.757
 5113POPC   C3B66285  18.160  26.471   7.158
 5113POPC   C4B66286  18.467  26.377   7.508
 5114POPC   NC366287  29.371  29.637   5.106
 5114POPC   PO466288  29.258  30.198   5.448
 5114POPC   GL166289  29.071  29.894   5.728
 5114POPC   GL266290  29.292  29.651   5.833
 5114POPC   C1A66291  28.849  29.782   6.125
 5114POPC   D2A66292  28.913  29.972   6.538
 5114POPC   C3A66293  29.213  30.106   6.833
 5114POPC   C4A66294  29.011  30.076   7.201
 5114POPC   C1B66295  29.335  29.916   6.193
 5114POPC   C2B66296  29.359  29.688   6.554
 5114POPC   C3B66297  29.470  29.637   6.952
 5114POPC   C4B66298  29.389  29.769   7.358
 5115POPC   NC366299  18.866  43.156   5.346
 5115POPC   PO466300  19.486  42.992   5.311
 5115POPC   GL166301  19.215  42.922   5.702
 5115POPC   GL266302  19.025  43.193   5.827
 5115POPC   C1A66303  19.200  42.899   6.183
 5115POPC   D2A66304  18.938  43.067   6.530
 5115POPC   C3A66305  19.027  42.961   6.969
 5115POPC   C4A66306  19.241  43.071   7.358
 5115POPC   C1B66307  18.767  43.373   6.102
 5115POPC   C2B66308  18.554  43.420   6.446
 5115POPC   C3B66309  18.597  43.277   6.844
 5115POPC   C4B66310  18.857  43.395   7.207
 5116POPC   NC366311   8.198  32.100   5.430
 5116POPC   PO466312   8.689  31.873   5.831
 5116POPC   GL166313   8.360  32.115   5.979
 5116POPC   GL266314   7.979  32.088   5.927
 5116POPC   C1A66315   8.399  32.173   6.424
 5116POPC   D2A66316   8.462  31.850   6.710
 5116POPC   C3A66317   8.311  31.948   7.121
 5116POPC   C4A66318   8.257  32.304   7.367
 5116POPC   C1B66319   8.034  32.471   6.196
 5116POPC   C2B66320   8.332  32.689   6.506
 5116POPC   C3B66321   8.345  32.579   6.941
 5116POPC   C4B66322   7.903  32.538   7.102
 5117POPC   NC366323  39.154  16.596   5.101
 5117POPC   PO466324  39.521  17.014   5.486
 5117POPC   GL166325  39.315  17.029   5.875
 5117POPC   GL266326  39.142  16.724   5.792
 5117POPC   C1A66327  39.102  16.940   6.257
 5117POPC   D2A66328  39.199  17.065   6.629
 5117POPC   C3A66329  39.163  16.792   6.937
 5117POPC   C4A66330  39.204  16.941   7.313
 5117POPC   C1B66331  39.271  16.459   6.136
 5117POPC   C2B66332  39.330  16.435   6.567
 5117POPC   C3B66333  39.421  16.349   6.999
 5117POPC   C4B66334  39.434  16.500   7.374
 5118POPC   NC366335  39.049   7.825   5.479
 5118POPC   PO466336  39.416   8.371   5.512
 5118POPC   GL166337  39.233   8.187   5.847
 5118POPC   GL266338  38.876   8.246   5.868
 5118POPC   C1A66339  39.243   8.256   6.282
 5118POPC   D2A66340  39.506   8.071   6.605
 5118POPC   C3A66341  39.350   8.036   7.027
 5118POPC   C4A66342  39.315   8.123   7.452
 5118POPC   C1B66343  38.762   8.078   6.290
 5118POPC   C2B66344  38.956   8.178   6.710
 5118POPC   C3B66345  38.874   8.150   7.156
 5118POPC   C4B66346  38.875   8.351   7.572
 5119POPC   NC366347  19.327  20.405   5.197
 5119POPC   PO466348  19.943  20.699   5.319
 5119POPC   GL166349  19.754  20.818   5.703
 5119POPC   GL266350  20.034  20.718   5.830
 5119POPC   C1A66351  19.646  20.743   6.153
 5119POPC   D2A66352  19.875  20.717   6.541
 5119POPC   C3A66353  19.682  20.590   6.938
 5119POPC   C4A66354  19.690  20.730   7.358
 5119POPC   C1B66355  20.133  20.395   6.139
 5119POPC   C2B66356  20.256  20.371   6.562
 5119POPC   C3B66357  20.188  20.568   6.936
 5119POPC   C4B66358  20.031  20.362   7.320
 5120POPC   NC366359  20.158   3.198   5.495
 5120POPC   PO466360  20.049   3.766   5.376
 5120POPC   GL166361  20.442   3.626   5.629
 5120POPC   GL266362  20.635   3.854   5.856
 5120POPC   C1A66363  20.480   3.426   6.071
 5120POPC   D2A66364  20.362   3.209   6.461
 5120POPC   C3A66365  20.372   3.383   6.870
 5120POPC   C4A66366  20.465   3.167   7.272
 5120POPC   C1B66367  20.820   3.766   6.288
 5120POPC   C2B66368  20.831   3.510   6.679
 5120POPC   C3B66369  20.800   3.517   7.144
 5120POPC   C4B66370  21.075   3.672   7.453
 5121POPC   NC366371  12.740  33.687   5.266
 5121POPC   PO466372  12.280  33.497   5.741
 5121POPC   GL166373  12.571  33.768   5.963
 5121POPC   GL266374  12.865  33.815   5.760
 5121POPC   C1A66375  12.674  33.746   6.387
 5121POPC   D2A66376  12.674  33.979   6.755
 5121POPC   C3A66377  12.787  33.645   7.065
 5121POPC   C4A66378  12.565  33.266   7.259
 5121POPC   C1B66379  13.079  33.964   6.159
 5121POPC   C2B66380  13.147  33.835   6.604
 5121POPC   C3B66381  13.153  34.017   7.009
 5121POPC   C4B66382  13.095  33.940   7.451
 5122POPC   NC366383  25.044  11.191   5.202
 5122POPC   PO466384  25.393  11.702   5.516
 5122POPC   GL166385  25.153  11.364   5.753
 5122POPC   GL266386  25.028  11.017   5.698
 5122POPC   C1A66387  25.238  11.293   6.188
 5122POPC   D2A66388  25.124  11.506   6.573
 5122POPC   C3A66389  25.208  11.429   7.013
 5122POPC   C4A66390  24.997  11.644   7.372
 5122POPC   C1B66391  24.916  10.910   6.112
 5122POPC   C2B66392  25.029  10.982   6.526
 5122POPC   C3B66393  25.010  10.966   6.948
 5122POPC   C4B66394  24.788  11.110   7.298
 5123POPC   NC366395  29.052  23.285   5.201
 5123POPC   PO466396  28.805  22.669   5.428
 5123POPC   GL166397  28.996  22.818   5.814
 5123POPC   GL266398  29.128  23.157   5.737
 5123POPC   C1A66399  28.828  22.818   6.246
 5123POPC   D2A66400  28.865  22.622   6.645
 5123POPC   C3A66401  28.828  22.865   7.014
 5123POPC   C4A66402  29.178  22.738   7.250
 5123POPC   C1B66403  29.106  23.256   6.181
 5123POPC   C2B66404  29.068  23.161   6.654
 5123POPC   C3B66405  29.192  23.262   7.124
 5123POPC   C4B66406  29.313  23.118   7.561
 5124POPC   NC366407  35.378  38.034   5.509
 5124POPC   PO466408  35.182  37.350   5.439
 5124POPC   GL166409  35.327  37.575   5.764
 5124POPC   GL266410  35.637  37.425   5.865
 5124POPC   C1A66411  35.420  37.836   6.127
 5124POPC   D2A66412  35.173  38.042   6.435
 5124POPC   C3A66413  35.203  37.931   6.887
 5124POPC   C4A66414  35.477  37.839   7.242
 5124POPC   C1B66415  35.326  37.358   6.222
 5124POPC   C2B66416  35.403  37.579   6.589
 5124POPC   C3B66417  35.401  37.391   6.984
 5124POPC   C4B66418  35.478  37.353   7.395
 5125POPC   NC366419  38.153   1.749   5.583
 5125POPC   PO466420  37.535   1.769   5.297
 5125POPC   GL166421  37.695   1.905   5.735
 5125POPC   GL266422  37.597   2.216   5.827
 5125POPC   C1A66423  37.842   1.987   6.208
 5125POPC   D2A66424  37.610   2.182   6.595
 5125POPC   C3A66425  37.806   2.060   6.960
 5125POPC   C4A66426  38.041   2.387   7.103
 5125POPC   C1B66427  37.345   2.006   6.169
 5125POPC   C2B66428  37.479   1.699   6.525
 5125POPC   C3B66429  37.387   1.729   6.955
 5125POPC   C4B66430  37.332   2.163   7.083
 5126POPC   NC366431  44.763  44.525   5.210
 5126POPC   PO466432  44.263  44.937   5.224
 5126POPC   GL166433  44.536  44.752   5.616
 5126POPC   GL266434  44.593  44.410   5.710
 5126POPC   C1A66435  44.738  44.857   6.052
 5126POPC   D2A66436  44.927  44.766   6.474
 5126POPC   C3A66437  44.864  44.703   6.931
 5126POPC   C4A66438  44.603  44.884   7.281
 5126POPC   C1B66439  44.350  44.483   6.121
 5126POPC   C2B66440  44.464  44.551   6.594
 5126POPC   C3B66441  44.487  44.386   7.072
 5126POPC   C4B66442  44.385  44.501   7.535
 5127POPC   NC366443  27.281   5.573   5.139
 5127POPC   PO466444  27.775   6.063   5.308
 5127POPC   GL166445  27.506   5.956   5.677
 5127POPC   GL266446  27.744   5.780   5.898
 5127POPC   C1A66447  27.335   5.970   6.125
 5127POPC   D2A66448  27.567   5.824   6.481
 5127POPC   C3A66449  27.310   5.790   6.829
 5127POPC   C4A66450  27.286   5.930   7.250
 5127POPC   C1B66451  27.755   6.236   6.052
 5127POPC   C2B66452  27.781   6.286   6.507
 5127POPC   C3B66453  27.717   6.094   6.935
 5127POPC   C4B66454  27.830   6.180   7.373
 5128POPC   NC366455  30.172   9.206   5.399
 5128POPC   PO466456  30.956   9.054   5.379
 5128POPC   GL166457  30.720   8.995   5.865
 5128POPC   GL266458  30.346   8.975   5.854
 5128POPC   C1A66459  30.703   9.213   6.290
 5128POPC   D2A66460  30.692   9.450   6.694
 5128POPC   C3A66461  30.807   9.190   7.012
 5128POPC   C4A66462  30.481   8.988   7.185
 5128POPC   C1B66463  30.443   8.769   6.242
 5128POPC   C2B66464  30.508   8.855   6.695
 5128POPC   C3B66465  30.748   8.581   7.027
 5128POPC   C4B66466  30.979   8.401   7.438
 5129POPC   NC366467   1.821   1.873   5.407
 5129POPC   PO466468   2.436   2.207   5.315
 5129POPC   GL166469   2.254   1.927   5.715
 5129POPC   GL266470   1.900   1.963   5.887
 5129POPC   C1A66471   2.250   1.752   6.172
 5129POPC   D2A66472   2.220   1.943   6.604
 5129POPC   C3A66473   2.374   1.731   6.983
 5129POPC   C4A66474   2.244   1.662   7.391
 5129POPC   C1B66475   1.672   2.175   6.207
 5129POPC   C2B66476   1.441   2.252   6.553
 5129POPC   C3B66477   1.545   2.167   6.952
 5129POPC   C4B66478   1.532   2.399   7.304
 5130POPC   NC366479  20.030  18.745   5.422
 5130POPC   PO466480  19.490  18.350   5.496
 5130POPC   GL166481  19.812  18.472   5.789
 5130POPC   GL266482  19.641  18.768   5.818
 5130POPC   C1A66483  20.047  18.325   6.173
 5130POPC   D2A66484  19.941  18.188   6.585
 5130POPC   C3A66485  19.891  18.309   7.009
 5130POPC   C4A66486  19.867  18.094   7.410
 5130POPC   C1B66487  19.588  18.528   6.238
 5130POPC   C2B66488  19.541  18.507   6.688
 5130POPC   C3B66489  19.581  18.710   7.061
 5130POPC   C4B66490  19.745  18.594   7.437
 5131POPC   NC366491  26.529  14.744   5.338
 5131POPC   PO466492  26.638  14.188   5.455
 5131POPC   GL166493  27.012  14.343   5.656
 5131POPC   GL266494  26.930  14.690   5.649
 5131POPC   C1A66495  27.094  14.459   6.106
 5131POPC   D2A66496  26.843  14.302   6.476
 5131POPC   C3A66497  26.999  14.340   6.928
 5131POPC   C4A66498  26.843  14.124   7.326
 5131POPC   C1B66499  26.601  14.605   6.007
 5131POPC   C2B66500  26.406  14.571   6.443
 5131POPC   C3B66501  26.541  14.535   6.852
 5131POPC   C4B66502  26.455  14.502   7.280
 5132POPC   NC366503  17.210  23.396   5.392
 5132POPC   PO466504  16.492  23.360   5.301
 5132POPC   GL166505  16.762  23.466   5.674
 5132POPC   GL266506  16.926  23.799   5.666
 5132POPC   C1A66507  16.808  23.458   6.131
 5132POPC   D2A66508  16.576  23.420   6.529
 5132POPC   C3A66509  16.604  23.731   6.880
 5132POPC   C4A66510  16.327  23.950   7.182
 5132POPC   C1B66511  17.083  23.914   6.083
 5132POPC   C2B66512  17.050  23.754   6.528
 5132POPC   C3B66513  17.098  23.852   6.977
 5132POPC   C4B66514  16.980  23.588   7.298
 5133POPC   NC366515  10.822   0.797   5.344
 5133POPC   PO466516  10.238   0.621   5.366
 5133POPC   GL166517  10.236   0.503   5.803
 5133POPC   GL266518  10.557   0.556   5.892
 5133POPC   C1A66519  10.309   0.233   6.182
 5133POPC   D2A66520  10.143   0.236   6.603
 5133POPC   C3A66521  10.420   0.362   6.934
 5133POPC   C4A66522  10.155   0.419   7.297
 5133POPC   C1B66523  10.789   0.456   6.276
 5133POPC   C2B66524  10.988   0.359   6.705
 5133POPC   C3B66525  10.903   0.535   7.100
 5133POPC   C4B66526  10.579   0.737   7.266
 5134POPC   NC366527   8.807  29.802   5.271
 5134POPC   PO466528   9.188  30.227   5.441
 5134POPC   GL166529   9.040  30.118   5.863
 5134POPC   GL266530   9.293  29.872   6.000
 5134POPC   C1A66531   9.008  30.097   6.337
 5134POPC   D2A66532   9.290  29.986   6.670
 5134POPC   C3A66533   9.085  30.024   7.058
 5134POPC   C4A66534   8.883  30.265   7.386
 5134POPC   C1B66535   9.172  29.589   6.349
 5134POPC   C2B66536   9.060  29.531   6.808
 5134POPC   C3B66537   9.218  29.565   7.250
 5134POPC   C4B66538   9.200  29.552   7.718
 5135POPC   NC366539  33.918  37.135   5.434
 5135POPC   PO466540  33.406  36.684   5.493
 5135POPC   GL166541  33.658  36.919   5.827
 5135POPC   GL266542  33.987  36.741   5.807
 5135POPC   C1A66543  33.666  37.082   6.292
 5135POPC   D2A66544  33.984  37.237   6.608
 5135POPC   C3A66545  34.071  37.058   7.045
 5135POPC   C4A66546  33.860  37.023   7.466
 5135POPC   C1B66547  33.893  36.633   6.256
 5135POPC   C2B66548  33.842  36.700   6.719
 5135POPC   C3B66549  33.587  36.813   7.084
 5135POPC   C4B66550  33.256  36.648   7.348
 5136POPC   NC366551  42.804  32.040   5.534
 5136POPC   PO466552  43.147  32.592   5.380
 5136POPC   GL166553  43.228  32.248   5.744
 5136POPC   GL266554  43.133  31.856   5.850
 5136POPC   C1A66555  43.192  32.192   6.212
 5136POPC   D2A66556  42.942  32.218   6.585
 5136POPC   C3A66557  43.135  32.279   6.987
 5136POPC   C4A66558  43.239  32.298   7.441
 5136POPC   C1B66559  42.748  31.915   6.168
 5136POPC   C2B66560  42.604  31.821   6.600
 5136POPC   C3B66561  42.949  31.749   6.886
 5136POPC   C4B66562  42.988  31.896   7.267
 5137POPC   NC366563  26.837   0.482   5.402
 5137POPC   PO466564  27.197   0.065   5.654
 5137POPC   GL166565  26.794   0.182   5.860
 5137POPC   GL266566  26.676   0.509   5.887
 5137POPC   C1A66567  26.798   0.289   6.331
 5137POPC   D2A66568  27.191   0.461   6.549
 5137POPC   C3A66569  27.239   0.308   6.971
 5137POPC   C4A66570  26.897   0.388   7.247
 5137POPC   C1B66571  26.523   0.852   6.140
 5137POPC   C2B66572  26.400   0.828   6.564
 5137POPC   C3B66573  26.636   0.585   6.835
 5137POPC   C4B66574  26.683   0.836   7.179
 5138POPC   NC366575   7.889   8.165   5.236
 5138POPC   PO466576   8.425   7.984   5.330
 5138POPC   GL166577   8.185   8.138   5.681
 5138POPC   GL266578   7.840   8.039   5.746
 5138POPC   C1A66579   8.194   8.236   6.136
 5138POPC   D2A66580   8.093   8.234   6.592
 5138POPC   C3A66581   8.325   8.001   6.935
 5138POPC   C4A66582   8.450   8.181   7.349
 5138POPC   C1B66583   7.778   7.945   6.205
 5138POPC   C2B66584   7.828   7.804   6.647
 5138POPC   C3B66585   7.829   8.060   7.016
 5138POPC   C4B66586   7.987   7.962   7.416
 5139POPC   NC366587  34.372  29.427   5.467
 5139POPC   PO466588  34.749  28.770   5.478
 5139POPC   GL166589  34.697  29.142   5.756
 5139POPC   GL266590  34.349  29.163   5.906
 5139POPC   C1A66591  34.768  29.392   6.132
 5139POPC   D2A66592  34.491  29.386   6.481
 5139POPC   C3A66593  34.577  29.181   6.836
 5139POPC   C4A66594  34.510  29.265   7.223
 5139POPC   C1B66595  34.261  28.912   6.269
 5139POPC   C2B66596  34.346  28.736   6.664
 5139POPC   C3B66597  34.300  28.813   7.085
 5139POPC   C4B66598  34.723  28.761   7.210
 5140POPC   NC366599  14.322  23.315   5.573
 5140POPC   PO466600  14.723  23.918   5.567
 5140POPC   GL166601  14.550  23.943   5.917
 5140POPC   GL266602  14.283  23.698   5.911
 5140POPC   C1A66603  14.466  23.882   6.345
 5140POPC   D2A66604  14.167  23.734   6.613
 5140POPC   C3A66605  14.405  23.652   6.914
 5140POPC   C4A66606  14.264  23.859   7.277
 5140POPC   C1B66607  14.187  23.379   6.247
 5140POPC   C2B66608  14.009  23.249   6.668
 5140POPC   C3B66609  14.033  23.352   7.102
 5140POPC   C4B66610  14.432  23.397   7.340
 5141POPC   NC366611   0.108  22.173   5.579
 5141POPC   PO466612   0.802  22.025   5.522
 5141POPC   GL166613   0.729  21.865   5.887
 5141POPC   GL266614   0.419  21.954   5.897
 5141POPC   C1A66615   0.721  22.155   6.243
 5141POPC   D2A66616   0.595  22.410   6.569
 5141POPC   C3A66617   0.652  22.287   6.991
 5141POPC   C4A66618   0.295  22.290   7.221
 5141POPC   C1B66619   0.162  21.828   6.218
 5141POPC   C2B66620   0.188  22.025   6.600
 5141POPC   C3B66621   0.128  21.846   6.959
 5141POPC   C4B66622  44.871  21.806   7.264
 5142POPC   NC366623  41.357  10.972   5.447
 5142POPC   PO466624  40.771  10.834   5.383
 5142POPC   GL166625  40.892  10.694   5.773
 5142POPC   GL266626  40.643  10.819   5.968
 5142POPC   C1A66627  40.927  10.441   6.179
 5142POPC   D2A66628  40.770  10.363   6.624
 5142POPC   C3A66629  40.923  10.481   7.051
 5142POPC   C4A66630  41.033  10.609   7.492
 5142POPC   C1B66631  40.762  10.864   6.424
 5142POPC   C2B66632  40.700  10.914   6.871
 5142POPC   C3B66633  40.561  10.793   7.268
 5142POPC   C4B66634  40.575  10.817   7.712
 5143POPC   NC366635  27.385  31.823   5.443
 5143POPC   PO466636  27.565  32.516   5.183
 5143POPC   GL166637  27.545  32.315   5.615
 5143POPC   GL266638  27.718  32.017   5.767
 5143POPC   C1A66639  27.490  32.324   6.096
 5143POPC   D2A66640  27.700  32.478   6.467
 5143POPC   C3A66641  27.694  32.331   6.878
 5143POPC   C4A66642  27.484  32.378   7.293
 5143POPC   C1B66643  27.745  31.832   6.213
 5143POPC   C2B66644  27.610  31.853   6.683
 5143POPC   C3B66645  27.633  31.909   7.165
 5143POPC   C4B66646  27.590  32.013   7.622
 5144POPC   NC366647  24.988  13.050   5.276
 5144POPC   PO466648  25.661  13.013   5.213
 5144POPC   GL166649  25.490  13.011   5.690
 5144POPC   GL266650  25.142  13.112   5.759
 5144POPC   C1A66651  25.259  12.708   6.042
 5144POPC   D2A66652  25.110  12.421   6.406
 5144POPC   C3A66653  25.056  12.672   6.809
 5144POPC   C4A66654  25.406  12.785   7.089
 5144POPC   C1B66655  25.324  13.216   6.163
 5144POPC   C2B66656  25.396  13.038   6.585
 5144POPC   C3B66657  25.289  13.255   6.976
 5144POPC   C4B66658  25.285  13.466   7.407
 5145POPC   NC366659  17.046   5.866   5.408
 5145POPC   PO466660  16.348   5.674   5.498
 5145POPC   GL166661  16.651   5.907   5.773
 5145POPC   GL266662  16.921   5.748   5.887
 5145POPC   C1A66663  16.606   6.228   6.112
 5145POPC   D2A66664  16.594   6.443   6.502
 5145POPC   C3A66665  16.585   6.242   6.942
 5145POPC   C4A66666  16.747   6.097   7.344
 5145POPC   C1B66667  16.613   5.739   6.240
 5145POPC   C2B66668  16.511   5.919   6.570
 5145POPC   C3B66669  16.613   5.704   6.950
 5145POPC   C4B66670  16.964   5.478   7.116
 5146POPC   NC366671  32.451  35.131   5.222
 5146POPC   PO466672  33.138  35.075   5.367
 5146POPC   GL166673  32.992  35.252   5.788
 5146POPC   GL266674  32.656  35.094   5.754
 5146POPC   C1A66675  33.123  35.549   6.183
 5146POPC   D2A66676  33.242  35.794   6.596
 5146POPC   C3A66677  33.130  35.602   7.022
 5146POPC   C4A66678  32.867  35.707   7.432
 5146POPC   C1B66679  32.751  34.962   6.188
 5146POPC   C2B66680  32.645  34.795   6.611
 5146POPC   C3B66681  32.831  34.955   7.016
 5146POPC   C4B66682  33.071  35.202   7.354
 5147POPC   NC366683  32.524  44.406   5.488
 5147POPC   PO466684  31.956  44.533   5.032
 5147POPC   GL166685  32.047  44.649   5.509
 5147POPC   GL266686  32.313  44.919   5.586
 5147POPC   C1A66687  32.044  44.576   5.978
 5147POPC   D2A66688  32.132  44.305   6.356
 5147POPC   C3A66689  32.161  44.470   6.787
 5147POPC   C4A66690  32.056  44.651   7.190
 5147POPC   C1B66691  32.432  44.952   6.038
 5147POPC   C2B66692  32.296  44.928   6.489
 5147POPC   C3B66693  32.384  44.929   6.929
 5147POPC   C4B66694  32.571  44.646   7.249
 5148POPC   NC366695  25.742  20.716   5.441
 5148POPC   PO466696  26.289  20.300   5.291
 5148POPC   GL166697  26.111  20.542   5.739
 5148POPC   GL266698  25.995  20.812   5.871
 5148POPC   C1A66699  26.206  20.591   6.263
 5148POPC   D2A66700  26.449  20.573   6.659
 5148POPC   C3A66701  26.151  20.359   6.936
 5148POPC   C4A66702  25.823  20.088   7.100
 5148POPC   C1B66703  26.003  21.060   6.252
 5148POPC   C2B66704  26.060  20.915   6.687
 5148POPC   C3B66705  25.960  20.795   7.102
 5148POPC   C4B66706  25.773  20.963   7.473
 5149POPC   NC366707  39.906  35.254   5.315
 5149POPC   PO466708  40.106  35.841   5.383
 5149POPC   GL166709  39.860  35.597   5.742
 5149POPC   GL266710  39.835  35.230   5.812
 5149POPC   C1A66711  39.911  35.545   6.209
 5149POPC   D2A66712  40.193  35.342   6.535
 5149POPC   C3A66713  40.113  35.494   6.972
 5149POPC   C4A66714  39.816  35.525   7.323
 5149POPC   C1B66715  39.841  35.029   6.220
 5149POPC   C2B66716  39.888  34.958   6.653
 5149POPC   C3B66717  39.758  35.117   7.047
 5149POPC   C4B66718  39.676  35.087   7.537
 5150POPC   NC366719  25.943   7.504   5.322
 5150POPC   PO466720  26.479   6.958   5.630
 5150POPC   GL166721  26.322   7.187   5.986
 5150POPC   GL266722  26.143   7.427   5.799
 5150POPC   C1A66723  26.202   7.267   6.406
 5150POPC   D2A66724  25.875   7.535   6.556
 5150POPC   C3A66725  25.812   7.425   6.932
 5150POPC   C4A66726  26.141   7.341   7.220
 5150POPC   C1B66727  26.130   7.705   6.138
 5150POPC   C2B66728  26.184   7.940   6.494
 5150POPC   C3B66729  26.145   7.811   6.923
 5150POPC   C4B66730  25.748   7.858   7.165
 5151POPC   NC366731   8.842  20.437   5.334
 5151POPC   PO466732   9.236  20.853   5.392
 5151POPC   GL166733   8.995  20.650   5.770
 5151POPC   GL266734   8.852  20.273   5.797
 5151POPC   C1A66735   8.861  20.859   6.157
 5151POPC   D2A66736   8.844  21.061   6.552
 5151POPC   C3A66737   8.942  20.752   6.853
 5151POPC   C4A66738   8.817  20.861   7.213
 5151POPC   C1B66739   9.150  20.223   6.131
 5151POPC   C2B66740   9.214  20.371   6.559
 5151POPC   C3B66741   9.053  20.225   6.941
 5151POPC   C4B66742   8.860  20.368   7.306
 5152POPC   NC366743   7.122  43.296   5.447
 5152POPC   PO466744   7.675  42.800   5.431
 5152POPC   GL166745   7.465  43.035   5.807
 5152POPC   GL266746   7.416  43.411   5.833
 5152POPC   C1A66747   7.453  43.070   6.248
 5152POPC   D2A66748   7.769  42.849   6.520
 5152POPC   C3A66749   7.736  42.960   6.945
 5152POPC   C4A66750   7.433  43.009   7.312
 5152POPC   C1B66751   7.518  43.566   6.246
 5152POPC   C2B66752   7.670  43.381   6.607
 5152POPC   C3B66753   7.535  43.448   7.020
 5152POPC   C4B66754   7.457  43.486   7.485
 5153POPC   NC366755  41.237   4.143   5.435
 5153POPC   PO466756  40.632   4.547   5.416
 5153POPC   GL166757  40.679   4.356   5.827
 5153POPC   GL266758  41.044   4.430   5.835
 5153POPC   C1A66759  40.544   4.525   6.250
 5153POPC   D2A66760  40.324   4.680   6.633
 5153POPC   C3A66761  40.600   4.623   7.015
 5153POPC   C4A66762  40.970   4.379   7.207
 5153POPC   C1B66763  41.002   4.260   6.242
 5153POPC   C2B66764  40.788   4.282   6.656
 5153POPC   C3B66765  40.623   4.061   7.007
 5153POPC   C4B66766  40.669   4.032   7.491
 5154POPC   NC366767  28.843  32.445   5.433
 5154POPC   PO466768  29.252  31.813   5.419
 5154POPC   GL166769  29.021  32.035   5.726
 5154POPC   GL266770  29.151  32.374   5.825
 5154POPC   C1A66771  28.903  32.061   6.155
 5154POPC   D2A66772  29.101  32.241   6.519
 5154POPC   C3A66773  29.149  32.008   6.906
 5154POPC   C4A66774  29.308  32.173   7.299
 5154POPC   C1B66775  28.946  32.598   6.147
 5154POPC   C2B66776  28.862  32.718   6.555
 5154POPC   C3B66777  28.879  32.471   6.940
 5154POPC   C4B66778  28.910  32.502   7.373
 5155POPC   NC366779  19.554  44.981   5.153
 5155POPC   PO466780  19.903  44.506   5.501
 5155POPC   GL166781  20.009  44.535   5.901
 5155POPC   GL266782  20.179  44.861   5.817
 5155POPC   C1A66783  19.725  44.431   6.254
 5155POPC   D2A66784  19.460  44.481   6.613
 5155POPC   C3A66785  19.675  44.534   7.005
 5155POPC   C4A66786  20.081  44.483   7.178
 5155POPC   C1B66787  19.983  44.953   6.214
 5155POPC   C2B66788  19.912  44.783   6.620
 5155POPC   C3B66789  19.974  44.977   7.022
 5155POPC   C4B66790  19.642   0.131   7.278
 5156POPC   NC366791   1.448   5.379   4.985
 5156POPC   PO466792   1.335   4.913   5.391
 5156POPC   GL166793   1.070   4.886   5.727
 5156POPC   GL266794   1.114   5.203   5.902
 5156POPC   C1A66795   1.052   4.734   6.130
 5156POPC   D2A66796   1.134   4.973   6.482
 5156POPC   C3A66797   0.984   4.857   6.870
 5156POPC   C4A66798   0.938   5.082   7.222
 5156POPC   C1B66799   1.503   5.177   6.189
 5156POPC   C2B66800   1.499   5.367   6.572
 5156POPC   C3B66801   1.315   5.298   6.922
 5156POPC   C4B66802   1.347   5.369   7.312
 5157POPC   NC366803   6.021   4.619   5.539
 5157POPC   PO466804   6.167   5.240   5.362
 5157POPC   GL166805   5.952   5.094   5.762
 5157POPC   GL266806   5.632   4.894   5.780
 5157POPC   C1A66807   5.802   5.217   6.180
 5157POPC   D2A66808   5.861   5.448   6.571
 5157POPC   C3A66809   5.708   5.299   6.950
 5157POPC   C4A66810   5.967   5.099   7.274
 5157POPC   C1B66811   5.748   4.720   6.181
 5157POPC   C2B66812   5.745   4.852   6.612
 5157POPC   C3B66813   5.606   4.812   7.046
 5157POPC   C4B66814   5.699   4.579   7.427
 5158POPC   NC366815   3.970  19.552   5.407
 5158POPC   PO466816   3.349  19.806   5.186
 5158POPC   GL166817   3.300  19.712   5.641
 5158POPC   GL266818   3.649  19.713   5.780
 5158POPC   C1A66819   3.262  19.776   6.108
 5158POPC   D2A66820   3.529  19.813   6.470
 5158POPC   C3A66821   3.487  19.907   6.918
 5158POPC   C4A66822   3.167  20.132   7.144
 5158POPC   C1B66823   3.848  19.524   6.151
 5158POPC   C2B66824   3.972  19.608   6.608
 5158POPC   C3B66825   3.919  19.640   7.072
 5158POPC   C4B66826   3.937  19.676   7.520
 5159POPC   NC366827  10.969  13.476   5.473
 5159POPC   PO466828  11.588  13.718   5.368
 5159POPC   GL166829  11.412  13.551   5.757
 5159POPC   GL266830  11.331  13.863   5.813
 5159POPC   C1A66831  11.271  13.602   6.238
 5159POPC   D2A66832  11.433  13.410   6.625
 5159POPC   C3A66833  11.302  13.550   7.028
 5159POPC   C4A66834  10.955  13.649   7.291
 5159POPC   C1B66835  11.578  14.000   6.169
 5159POPC   C2B66836  11.552  13.892   6.580
 5159POPC   C3B66837  11.686  14.068   6.930
 5159POPC   C4B66838  11.671  13.960   7.305
 5160POPC   NC366839  13.479  26.487   5.552
 5160POPC   PO466840  13.474  25.879   5.299
 5160POPC   GL166841  13.468  26.006   5.761
 5160POPC   GL266842  13.766  26.224   5.883
 5160POPC   C1A66843  13.332  25.840   6.178
 5160POPC   D2A66844  13.488  25.708   6.599
 5160POPC   C3A66845  13.338  25.957   6.974
 5160POPC   C4A66846  13.496  26.049   7.402
 5160POPC   C1B66847  13.781  26.060   6.305
 5160POPC   C2B66848  13.743  26.156   6.739
 5160POPC   C3B66849  13.846  26.313   7.145
 5160POPC   C4B66850  13.811  26.440   7.587
 5161POPC   NC366851   9.544  27.805   5.572
 5161POPC   PO466852   8.974  27.651   5.353
 5161POPC   GL166853   9.068  27.681   5.761
 5161POPC   GL266854   9.271  27.360   5.770
 5161POPC   C1A66855   8.880  27.840   6.141
 5161POPC   D2A66856   8.763  27.606   6.494
 5161POPC   C3A66857   8.921  27.665   6.917
 5161POPC   C4A66858   8.831  27.373   7.259
 5161POPC   C1B66859   9.212  27.461   6.215
 5161POPC   C2B66860   9.246  27.308   6.641
 5161POPC   C3B66861   9.306  27.340   7.072
 5161POPC   C4B66862   9.256  27.155   7.464
 5162POPC   NC366863  26.237  15.308   5.327
 5162POPC   PO466864  25.620  15.405   5.440
 5162POPC   GL166865  25.903  15.214   5.765
 5162POPC   GL266866  26.277  15.102   5.801
 5162POPC   C1A66867  25.892  15.128   6.218
 5162POPC   D2A66868  25.940  15.346   6.624
 5162POPC   C3A66869  25.978  15.087   6.991
 5162POPC   C4A66870  26.112  15.158   7.458
 5162POPC   C1B66871  26.420  15.037   6.232
 5162POPC   C2B66872  26.392  15.024   6.677
 5162POPC   C3B66873  26.463  14.990   7.116
 5162POPC   C4B66874  26.567  14.972   7.537
 5163POPC   NC366875   7.740  27.027   5.344
 5163POPC   PO466876   7.354  26.524   5.360
 5163POPC   GL166877   7.305  26.736   5.758
 5163POPC   GL266878   7.023  26.979   5.753
 5163POPC   C1A66879   7.574  26.816   6.121
 5163POPC   D2A66880   7.555  27.098   6.448
 5163POPC   C3A66881   7.670  26.901   6.798
 5163POPC   C4A66882   7.706  26.927   7.225
 5163POPC   C1B66883   7.081  26.979   6.216
 5163POPC   C2B66884   7.176  26.850   6.654
 5163POPC   C3B66885   7.262  26.732   7.050
 5163POPC   C4B66886   7.211  26.909   7.423
 5164POPC   NC366887  22.027  21.022   5.395
 5164POPC   PO466888  22.341  21.611   5.060
 5164POPC   GL166889  22.242  21.492   5.553
 5164POPC   GL266890  22.537  21.570   5.762
 5164POPC   C1A66891  22.132  21.496   6.057
 5164POPC   D2A66892  22.049  21.573   6.517
 5164POPC   C3A66893  22.060  21.228   6.801
 5164POPC   C4A66894  22.423  21.014   6.989
 5164POPC   C1B66895  22.586  21.773   6.170
 5164POPC   C2B66896  22.662  21.734   6.626
 5164POPC   C3B66897  22.442  21.553   6.972
 5164POPC   C4B66898  22.089  21.529   7.218
 5165POPC   NC366899  28.643   0.708   5.553
 5165POPC   PO466900  28.071   0.409   5.331
 5165POPC   GL166901  28.127   0.337   5.775
 5165POPC   GL266902  28.485   0.406   5.922
 5165POPC   C1A66903  28.048   0.443   6.207
 5165POPC   D2A66904  28.252   0.634   6.586
 5165POPC   C3A66905  28.247   0.360   6.946
 5165POPC   C4A66906  28.529   0.171   7.229
 5165POPC   C1B66907  28.648   0.756   6.228
 5165POPC   C2B66908  28.658   0.948   6.675
 5165POPC   C3B66909  28.646   0.664   7.056
 5165POPC   C4B66910  28.777   0.548   7.482
 5166POPC   NC366911  14.781  30.364   5.364
 5166POPC   PO466912  14.995  31.059   5.357
 5166POPC   GL166913  15.022  30.851   5.751
 5166POPC   GL266914  15.238  30.544   5.768
 5166POPC   C1A66915  15.245  30.906   6.150
 5166POPC   D2A66916  15.426  30.702   6.501
 5166POPC   C3A66917  15.215  30.875   6.854
 5166POPC   C4A66918  15.375  30.741   7.253
 5166POPC   C1B66919  14.945  30.480   6.086
 5166POPC   C2B66920  15.011  30.370   6.498
 5166POPC   C3B66921  15.193  30.381   6.903
 5166POPC   C4B66922  14.919  30.524   7.221
 5167POPC   NC366923  30.205   0.994   5.407
 5167POPC   PO466924  29.755   1.482   5.479
 5167POPC   GL166925  29.796   1.113   5.723
 5167POPC   GL266926  30.087   1.241   5.829
 5167POPC   C1A66927  29.793   0.900   6.136
 5167POPC   D2A66928  29.709   0.651   6.498
 5167POPC   C3A66929  29.671   0.855   6.877
 5167POPC   C4A66930  29.778   1.156   7.220
 5167POPC   C1B66931  30.245   1.144   6.214
 5167POPC   C2B66932  30.076   1.285   6.582
 5167POPC   C3B66933  30.115   1.475   6.959
 5167POPC   C4B66934  30.210   1.352   7.359
 5168POPC   NC366935  14.263  26.634   5.349
 5168POPC   PO466936  14.530  27.237   5.465
 5168POPC   GL166937  14.385  26.999   5.822
 5168POPC   GL266938  14.386  26.627   5.833
 5168POPC   C1A66939  14.460  26.876   6.275
 5168POPC   D2A66940  14.119  26.985   6.560
 5168POPC   C3A66941  14.162  27.185   6.967
 5168POPC   C4A66942  14.412  27.027   7.313
 5168POPC   C1B66943  14.197  26.390   6.165
 5168POPC   C2B66944  14.230  26.331   6.609
 5168POPC   C3B66945  14.278  26.637   6.946
 5168POPC   C4B66946  13.971  26.795   7.254
 5169POPC   NC366947  24.800   7.370   4.913
 5169POPC   PO466948  24.652   7.040   5.511
 5169POPC   GL166949  24.558   7.356   5.777
 5169POPC   GL266950  24.250   7.506   5.690
 5169POPC   C1A66951  24.494   7.537   6.177
 5169POPC   D2A66952  24.381   7.767   6.509
 5169POPC   C3A66953  24.306   7.577   6.864
 5169POPC   C4A66954  24.534   7.500   7.217
 5169POPC   C1B66955  24.123   7.220   6.035
 5169POPC   C2B66956  24.032   7.356   6.453
 5169POPC   C3B66957  24.004   7.151   6.851
 5169POPC   C4B66958  24.075   7.296   7.238
 5170POPC   NC366959  23.141  13.740   5.443
 5170POPC   PO466960  22.560  14.032   5.575
 5170POPC   GL166961  22.734  13.728   5.887
 5170POPC   GL266962  23.089  13.641   5.941
 5170POPC   C1A66963  22.800  13.774   6.330
 5170POPC   D2A66964  23.044  13.789   6.692
 5170POPC   C3A66965  22.952  13.613   7.040
 5170POPC   C4A66966  22.628  13.832   7.208
 5170POPC   C1B66967  23.322  13.568   6.338
 5170POPC   C2B66968  23.547  13.789   6.676
 5170POPC   C3B66969  23.447  13.753   7.107
 5170POPC   C4B66970  23.306  13.365   7.347
 5171POPC   NC366971  27.267  37.957   5.530
 5171POPC   PO466972  27.406  37.351   5.464
 5171POPC   GL166973  27.601  37.306   5.886
 5171POPC   GL266974  27.873  37.550   5.882
 5171POPC   C1A66975  27.659  37.345   6.350
 5171POPC   D2A66976  27.704  37.569   6.722
 5171POPC   C3A66977  27.436  37.564   7.100
 5171POPC   C4A66978  27.141  37.627   7.475
 5171POPC   C1B66979  28.017  37.742   6.285
 5171POPC   C2B66980  28.106  37.883   6.732
 5171POPC   C3B66981  27.838  37.887   7.127
 5171POPC   C4B66982  27.890  38.058   7.547
 5172POPC   NC366983   3.605  43.761   5.297
 5172POPC   PO466984   3.035  44.062   5.377
 5172POPC   GL166985   3.278  44.001   5.787
 5172POPC   GL266986   3.638  43.980   5.778
 5172POPC   C1A66987   3.435  43.976   6.245
 5172POPC   D2A66988   3.515  43.629   6.554
 5172POPC   C3A66989   3.317  43.761   6.944
 5172POPC   C4A66990   3.027  43.532   7.215
 5172POPC   C1B66991   3.881  43.790   6.129
 5172POPC   C2B66992   3.991  43.818   6.556
 5172POPC   C3B66993   3.932  43.658   6.983
 5172POPC   C4B66994   3.855  43.807   7.413
 5173POPC   NC366995  39.339   9.492   5.069
 5173POPC   PO466996  39.142  10.066   5.312
 5173POPC   GL166997  39.147   9.928   5.722
 5173POPC   GL266998  38.836   9.825   5.842
 5173POPC   C1A66999  39.296   9.859   6.150
 5173POPC   D2A67000  39.345  10.062   6.561
 5173POPC   C3A67001  39.362   9.822   6.948
 5173POPC   C4A67002  39.359   9.425   7.155
 5173POPC   C1B67003  38.824   9.868   6.313
 5173POPC   C2B67004  38.913   9.711   6.718
 5173POPC   C3B67005  38.908   9.708   7.182
 5173POPC   C4B67006  38.852  10.041   7.528
 5174POPC   NC367007  17.001  25.498   5.353
 5174POPC   PO467008  16.353  25.336   5.341
 5174POPC   GL167009  16.589  25.189   5.688
 5174POPC   GL267010  16.720  25.511   5.781
 5174POPC   C1A67011  16.833  25.127   6.100
 5174POPC   D2A67012  17.074  25.280   6.478
 5174POPC   C3A67013  16.914  25.122   6.879
 5174POPC   C4A67014  16.702  25.259   7.243
 5174POPC   C1B67015  16.573  25.590   6.196
 5174POPC   C2B67016  16.583  25.396   6.588
 5174POPC   C3B67017  16.441  25.586   6.955
 5174POPC   C4B67018  16.187  25.571   7.306
 5175POPC   NC367019  43.971  31.703   4.756
 5175POPC   PO467020  43.601  31.702   5.348
 5175POPC   GL167021  43.704  31.494   5.835
 5175POPC   GL267022  44.039  31.307   5.889
 5175POPC   C1A67023  43.888  31.493   6.307
 5175POPC   D2A67024  44.018  31.191   6.604
 5175POPC   C3A67025  43.843  31.456   6.908
 5175POPC   C4A67026  43.832  31.615   7.278
 5175POPC   C1B67027  43.693  31.058   6.107
 5175POPC   C2B67028  43.578  30.920   6.532
 5175POPC   C3B67029  43.632  31.007   6.972
 5175POPC   C4B67030  43.627  31.115   7.408
 5176POPC   NC367031  10.870  33.849   5.655
 5176POPC   PO467032  10.252  33.632   5.436
 5176POPC   GL167033  10.395  33.738   5.854
 5176POPC   GL267034  10.436  34.105   5.862
 5176POPC   C1A67035  10.555  33.551   6.255
 5176POPC   D2A67036  10.361  33.421   6.674
 5176POPC   C3A67037  10.387  33.692   7.038
 5176POPC   C4A67038  10.435  34.032   7.285
 5176POPC   C1B67039  10.327  34.028   6.308
 5176POPC   C2B67040  10.616  33.896   6.629
 5176POPC   C3B67041  10.875  33.875   6.974
 5176POPC   C4B67042  10.966  34.085   7.333
 5177POPC   NC367043   8.499  11.554   5.312
 5177POPC   PO467044   7.944  11.126   5.210
 5177POPC   GL167045   7.992  11.300   5.668
 5177POPC   GL267046   8.227  11.569   5.751
 5177POPC   C1A67047   7.973  11.239   6.131
 5177POPC   D2A67048   8.012  11.290   6.599
 5177POPC   C3A67049   8.172  11.253   7.031
 5177POPC   C4A67050   8.572  11.105   7.215
 5177POPC   C1B67051   8.356  11.587   6.203
 5177POPC   C2B67052   8.492  11.538   6.654
 5177POPC   C3B67053   8.512  11.632   7.110
 5177POPC   C4B67054   8.351  11.477   7.497
 5178POPC   NC367055   6.923  40.404   5.363
 5178POPC   PO467056   6.837  39.781   5.318
 5178POPC   GL167057   6.632  39.995   5.682
 5178POPC   GL267058   6.815  40.234   5.838
 5178POPC   C1A67059   6.468  40.023   6.146
 5178POPC   D2A67060   6.626  40.116   6.548
 5178POPC   C3A67061   6.545  39.935   6.964
 5178POPC   C4A67062   6.623  40.140   7.357
 5178POPC   C1B67063   7.010  40.465   6.141
 5178POPC   C2B67064   6.935  40.514   6.567
 5178POPC   C3B67065   6.930  40.280   6.928
 5178POPC   C4B67066   7.001  40.545   7.206
 5179POPC   NC367067  30.379  26.613   5.353
 5179POPC   PO467068  29.863  27.013   5.344
 5179POPC   GL167069  30.093  26.942   5.695
 5179POPC   GL267070  30.080  26.613   5.771
 5179POPC   C1A67071  30.102  26.980   6.130
 5179POPC   D2A67072  29.849  26.928   6.487
 5179POPC   C3A67073  30.090  26.799   6.870
 5179POPC   C4A67074  30.100  27.066   7.259
 5179POPC   C1B67075  29.768  26.523   6.070
 5179POPC   C2B67076  29.657  26.437   6.480
 5179POPC   C3B67077  29.566  26.675   6.839
 5179POPC   C4B67078  29.748  26.705   7.240
 5180POPC   NC367079  39.633  35.908   5.406
 5180POPC   PO467080  38.951  36.162   5.451
 5180POPC   GL167081  39.275  36.067   5.770
 5180POPC   GL267082  39.414  36.341   5.977
 5180POPC   C1A67083  39.505  35.841   6.094
 5180POPC   D2A67084  39.630  35.837   6.542
 5180POPC   C3A67085  39.334  36.046   6.823
 5180POPC   C4A67086  39.365  35.999   7.253
 5180POPC   C1B67087  39.192  36.586   6.260
 5180POPC   C2B67088  39.052  36.471   6.674
 5180POPC   C3B67089  39.260  36.496   7.097
 5180POPC   C4B67090  39.240  36.410   7.547
 5181POPC   NC367091  26.022   6.961   5.628
 5181POPC   PO467092  26.130   6.346   5.243
 5181POPC   GL167093  26.106   6.463   5.727
 5181POPC   GL267094  26.239   6.688   5.989
 5181POPC   C1A67095  25.989   6.338   6.199
 5181POPC   D2A67096  26.251   6.556   6.507
 5181POPC   C3A67097  26.233   6.469   6.927
 5181POPC   C4A67098  26.018   6.290   7.241
 5181POPC   C1B67099  25.864   6.889   6.243
 5181POPC   C2B67100  25.704   7.013   6.648
 5181POPC   C3B67101  26.068   6.958   6.889
 5181POPC   C4B67102  26.160   6.815   7.307
 5182POPC   NC367103   2.416   5.409   5.231
 5182POPC   PO467104   2.338   5.998   5.585
 5182POPC   GL167105   2.106   6.007   5.935
 5182POPC   GL267106   1.815   5.849   5.755
 5182POPC   C1A67107   2.019   6.212   6.358
 5182POPC   D2A67108   1.817   6.168   6.793
 5182POPC   C3A67109   2.089   5.980   7.124
 5182POPC   C4A67110   2.443   5.947   7.406
 5182POPC   C1B67111   1.697   5.850   6.166
 5182POPC   C2B67112   1.921   5.727   6.544
 5182POPC   C3B67113   1.763   5.618   6.938
 5182POPC   C4B67114   1.657   5.749   7.332
 5183POPC   NC367115   7.818  44.061   5.496
 5183POPC   PO467116   7.266  43.707   5.332
 5183POPC   GL167117   7.272  43.999   5.676
 5183POPC   GL267118   7.523  43.916   5.885
 5183POPC   C1A67119   7.108  44.090   6.092
 5183POPC   D2A67120   7.114  43.890   6.469
 5183POPC   C3A67121   7.165  44.047   6.871
 5183POPC   C4A67122   7.414  43.914   7.209
 5183POPC   C1B67123   7.591  44.061   6.297
 5183POPC   C2B67124   7.623  43.901   6.688
 5183POPC   C3B67125   7.648  44.263   6.929
 5183POPC   C4B67126   7.804  44.208   7.313
 5184POPC   NC367127  31.009   9.393   5.705
 5184POPC   PO467128  31.597   9.162   5.638
 5184POPC   GL167129  31.342   9.061   5.957
 5184POPC   GL267130  31.188   8.829   5.789
 5184POPC   C1A67131  31.451   8.969   6.409
 5184POPC   D2A67132  31.685   9.218   6.747
 5184POPC   C3A67133  31.727   9.017   7.156
 5184POPC   C4A67134  31.592   9.090   7.587
 5184POPC   C1B67135  30.990   8.790   6.223
 5184POPC   C2B67136  31.004   8.898   6.646
 5184POPC   C3B67137  31.233   8.776   7.002
 5184POPC   C4B67138  31.430   8.640   7.384
 5185POPC   NC367139  19.857  20.291   5.518
 5185POPC   PO467140  19.671  19.752   5.149
 5185POPC   GL167141  19.788  19.785   5.609
 5185POPC   GL267142  20.103  19.647   5.702
 5185POPC   C1A67143  19.763  19.970   6.072
 5185POPC   D2A67144  19.626  20.041   6.510
 5185POPC   C3A67145  19.893  20.125   6.871
 5185POPC   C4A67146  19.638  20.043   7.239
 5185POPC   C1B67147  19.929  19.497   6.092
 5185POPC   C2B67148  19.759  19.502   6.490
 5185POPC   C3B67149  19.702  19.663   6.869
 5185POPC   C4B67150  19.949  19.614   7.230
 5186POPC   NC367151  39.621   1.488   5.248
 5186POPC   PO467152  40.265   1.264   5.245
 5186POPC   GL167153  39.948   1.285   5.597
 5186POPC   GL267154  39.953   0.942   5.754
 5186POPC   C1A67155  39.848   1.342   6.050
 5186POPC   D2A67156  40.033   1.179   6.444
 5186POPC   C3A67157  39.976   1.419   6.817
 5186POPC   C4A67158  39.888   1.213   7.196
 5186POPC   C1B67159  39.873   0.749   6.197
 5186POPC   C2B67160  39.677   0.595   6.640
 5186POPC   C3B67161  39.661   0.714   7.153
 5186POPC   C4B67162  39.543   0.654   7.640
 5187POPC   NC367163  21.119  26.086   5.354
 5187POPC   PO467164  21.681  26.097   5.372
 5187POPC   GL167165  21.485  26.043   5.795
 5187POPC   GL267166  21.120  26.178   5.859
 5187POPC   C1A67167  21.443  26.112   6.271
 5187POPC   D2A67168  21.343  26.349   6.665
 5187POPC   C3A67169  21.491  26.148   7.034
 5187POPC   C4A67170  21.740  26.274   7.433
 5187POPC   C1B67171  20.939  25.965   6.237
 5187POPC   C2B67172  20.943  26.024   6.694
 5187POPC   C3B67173  21.002  26.282   7.077
 5187POPC   C4B67174  21.228  26.206   7.453
 5188POPC   NC367175   0.526   3.118   5.226
 5188POPC   PO467176   0.171   3.635   5.262
 5188POPC   GL167177   0.386   3.593   5.711
 5188POPC   GL267178   0.758   3.504   5.721
 5188POPC   C1A67179   0.429   3.667   6.187
 5188POPC   D2A67180   0.561   3.801   6.606
 5188POPC   C3A67181   0.346   3.553   6.919
 5188POPC   C4A67182   0.400   3.244   7.249
 5188POPC   C1B67183   0.808   3.349   6.142
 5188POPC   C2B67184   0.951   3.435   6.597
 5188POPC   C3B67185   0.851   3.630   7.012
 5188POPC   C4B67186   0.896   3.616   7.467
 5189POPC   NC367187   6.693  25.564   5.040
 5189POPC   PO467188   6.583  25.063   5.548
 5189POPC   GL167189   6.750  25.132   5.952
 5189POPC   GL267190   6.464  25.285   6.108
 5189POPC   C1A67191   6.833  25.171   6.418
 5189POPC   D2A67192   6.522  25.234   6.715
 5189POPC   C3A67193   6.746  25.011   6.992
 5189POPC   C4A67194   6.846  25.019   7.413
 5189POPC   C1B67195   6.370  25.640   6.389
 5189POPC   C2B67196   6.317  25.758   6.814
 5189POPC   C3B67197   6.275  25.638   7.196
 5189POPC   C4B67198   6.300  25.199   7.224
 5190POPC   NC367199  15.687  11.738   5.212
 5190POPC   PO467200  15.980  11.185   5.539
 5190POPC   GL167201  16.069  11.160   5.929
 5190POPC   GL267202  16.175  11.467   5.981
 5190POPC   C1A67203  15.771  11.286   6.231
 5190POPC   D2A67204  15.568  11.322   6.592
 5190POPC   C3A67205  15.765  11.393   7.002
 5190POPC   C4A67206  15.736  11.299   7.442
 5190POPC   C1B67207  16.178  11.670   6.314
 5190POPC   C2B67208  16.269  11.565   6.731
 5190POPC   C3B67209  16.152  11.750   7.106
 5190POPC   C4B67210  15.931  11.851   7.428
 5191POPC   NC367211  40.389  22.826   5.364
 5191POPC   PO467212  39.752  22.801   5.377
 5191POPC   GL167213  39.849  23.020   5.803
 5191POPC   GL267214  40.217  23.105   5.863
 5191POPC   C1A67215  39.896  22.925   6.248
 5191POPC   D2A67216  40.115  22.834   6.616
 5191POPC   C3A67217  39.860  22.865   6.961
 5191POPC   C4A67218  40.015  22.723   7.364
 5191POPC   C1B67219  40.248  23.306   6.281
 5191POPC   C2B67220  40.228  23.317   6.745
 5191POPC   C3B67221  40.266  23.106   7.144
 5191POPC   C4B67222  40.250  23.277   7.583
 5192POPC   NC367223  30.905  16.165   5.392
 5192POPC   PO467224  30.494  15.631   5.378
 5192POPC   GL167225  30.504  15.876   5.718
 5192POPC   GL267226  30.848  15.895   5.820
 5192POPC   C1A67227  30.455  15.847   6.167
 5192POPC   D2A67228  30.679  15.769   6.559
 5192POPC   C3A67229  30.524  15.834   6.982
 5192POPC   C4A67230  30.594  16.167   7.253
 5192POPC   C1B67231  30.977  15.601   6.131
 5192POPC   C2B67232  31.145  15.582   6.535
 5192POPC   C3B67233  30.989  15.546   6.948
 5192POPC   C4B67234  30.991  15.850   7.269
 5193POPC   NC367235  18.638   6.793   5.331
 5193POPC   PO467236  18.070   6.373   5.459
 5193POPC   GL167237  18.394   6.510   5.727
 5193POPC   GL267238  18.408   6.843   5.826
 5193POPC   C1A67239  18.546   6.477   6.157
 5193POPC   D2A67240  18.461   6.297   6.565
 5193POPC   C3A67241  18.327   6.534   6.927
 5193POPC   C4A67242  18.512   6.475   7.353
 5193POPC   C1B67243  18.205   6.887   6.220
 5193POPC   C2B67244  18.321   6.954   6.620
 5193POPC   C3B67245  18.267   7.054   7.042
 5193POPC   C4B67246  18.586   6.946   7.265
 5194POPC   NC367247   8.241  40.038   5.240
 5194POPC   PO467248   7.756  39.556   5.243
 5194POPC   GL167249   8.119  39.652   5.589
 5194POPC   GL267250   8.294  39.986   5.736
 5194POPC   C1A67251   8.123  39.621   6.060
 5194POPC   D2A67252   7.998  39.680   6.495
 5194POPC   C3A67253   8.220  39.792   6.885
 5194POPC   C4A67254   8.126  39.907   7.303
 5194POPC   C1B67255   8.132  40.134   6.164
 5194POPC   C2B67256   8.289  40.223   6.591
 5194POPC   C3B67257   8.216  40.332   7.030
 5194POPC   C4B67258   8.523  40.213   7.370
 5195POPC   NC367259  30.971  24.484   5.313
 5195POPC   PO467260  30.439  24.791   5.452
 5195POPC   GL167261  30.724  24.747   5.785
 5195POPC   GL267262  30.778  24.395   5.831
 5195POPC   C1A67263  30.644  24.724   6.236
 5195POPC   D2A67264  30.639  24.819   6.668
 5195POPC   C3A67265  30.279  24.709   6.889
 5195POPC   C4A67266  30.287  24.672   7.326
 5195POPC   C1B67267  30.519  24.229   6.206
 5195POPC   C2B67268  30.569  24.313   6.668
 5195POPC   C3B67269  30.691  24.471   7.105
 5195POPC   C4B67270  30.544  24.268   7.506
 5196POPC   NC367271  28.924  26.542   5.486
 5196POPC   PO467272  28.282  26.950   5.472
 5196POPC   GL167273  28.515  26.773   5.821
 5196POPC   GL267274  28.863  26.878   5.886
 5196POPC   C1A67275  28.364  26.694   6.264
 5196POPC   D2A67276  28.062  26.653   6.586
 5196POPC   C3A67277  28.135  26.849   6.969
 5196POPC   C4A67278  28.183  26.969   7.398
 5196POPC   C1B67279  28.800  26.477   6.140
 5196POPC   C2B67280  28.667  26.410   6.583
 5196POPC   C3B67281  28.579  26.552   6.985
 5196POPC   C4B67282  28.641  26.926   7.190
 5197POPC   NC367283  12.367   4.124   5.402
 5197POPC   PO467284  11.835   4.548   5.497
 5197POPC   GL167285  11.979   4.234   5.810
 5197POPC   GL267286  12.285   4.230   5.881
 5197POPC   C1A67287  12.022   4.266   6.306
 5197POPC   D2A67288  12.334   4.414   6.612
 5197POPC   C3A67289  12.204   4.372   7.055
 5197POPC   C4A67290  11.798   4.142   7.139
 5197POPC   C1B67291  12.282   3.877   6.136
 5197POPC   C2B67292  12.372   3.764   6.571
 5197POPC   C3B67293  12.304   3.866   7.020
 5197POPC   C4B67294  12.180   4.007   7.456
 5198POPC   NC367295   6.237  44.767   5.389
 5198POPC   PO467296   6.877  44.528   5.211
 5198POPC   GL167297   6.701  44.671   5.653
 5198POPC   GL267298   6.787  44.355   5.805
 5198POPC   C1A67299   6.536  44.879   6.100
 5198POPC   D2A67300   6.443   0.080   6.554
 5198POPC   C3A67301   6.584  44.882   6.980
 5198POPC   C4A67302   6.725  44.637   7.354
 5198POPC   C1B67303   6.761  44.438   6.263
 5198POPC   C2B67304   6.484  44.558   6.606
 5198POPC   C3B67305   6.428  44.359   7.016
 5198POPC   C4B67306   6.766  44.106   7.177
 5199POPC   NC367307  19.113  35.156   5.212
 5199POPC   PO467308  19.742  35.253   5.464
 5199POPC   GL167309  19.748  35.509   5.821
 5199POPC   GL267310  19.900  35.242   5.956
 5199POPC   C1A67311  19.819  35.617   6.282
 5199POPC   D2A67312  19.697  35.439   6.669
 5199POPC   C3A67313  19.838  35.468   7.082
 5199POPC   C4A67314  19.654  35.691   7.422
 5199POPC   C1B67315  19.808  35.082   6.346
 5199POPC   C2B67316  20.024  35.063   6.759
 5199POPC   C3B67317  19.809  34.969   7.124
 5199POPC   C4B67318  19.802  35.188   7.529
 5200POPC   NC367319   7.999  36.682   5.433
 5200POPC   PO467320   8.540  37.163   5.411
 5200POPC   GL167321   8.355  36.943   5.719
 5200POPC   GL267322   8.036  37.132   5.722
 5200POPC   C1A67323   8.414  36.884   6.148
 5200POPC   D2A67324   8.476  37.230   6.449
 5200POPC   C3A67325   8.453  37.209   6.890
 5200POPC   C4A67326   8.422  36.864   7.227
 5200POPC   C1B67327   8.022  37.206   6.182
 5200POPC   C2B67328   7.996  37.119   6.653
 5200POPC   C3B67329   8.008  37.210   7.132
 5200POPC   C4B67330   7.786  37.072   7.488
 5201POPC   NC367331  39.453  39.386   5.400
 5201POPC   PO467332  38.802  39.236   5.393
 5201POPC   GL167333  38.933  39.170   5.837
 5201POPC   GL267334  39.284  39.195   5.837
 5201POPC   C1A67335  38.874  39.382   6.284
 5201POPC   D2A67336  38.801  39.415   6.769
 5201POPC   C3A67337  39.117  39.656   7.055
 5201POPC   C4A67338  39.603  39.614   7.118
 5201POPC   C1B67339  39.232  38.983   6.231
 5201POPC   C2B67340  39.443  38.963   6.611
 5201POPC   C3B67341  39.333  39.189   6.972
 5201POPC   C4B67342  38.961  39.160   7.215
 5202POPC   NC367343  27.371  34.482   5.346
 5202POPC   PO467344  26.713  34.413   5.165
 5202POPC   GL167345  26.974  34.331   5.593
 5202POPC   GL267346  27.007  34.719   5.616
 5202POPC   C1A67347  27.072  34.484   6.047
 5202POPC   D2A67348  26.702  34.536   6.347
 5202POPC   C3A67349  26.766  34.568   6.799
 5202POPC   C4A67350  26.671  34.332   7.186
 5202POPC   C1B67351  27.013  34.993   5.988
 5202POPC   C2B67352  26.977  34.960   6.455
 5202POPC   C3B67353  27.060  35.014   6.901
 5202POPC   C4B67354  27.066  34.700   7.229
 5203POPC   NC367355  29.662   4.675   5.522
 5203POPC   PO467356  29.906   4.039   5.580
 5203POPC   GL167357  30.091   4.353   5.873
 5203POPC   GL267358  29.971   4.665   5.931
 5203POPC   C1A67359  30.165   4.274   6.306
 5203POPC   D2A67360  30.170   4.530   6.671
 5203POPC   C3A67361  30.107   4.267   7.024
 5203POPC   C4A67362  30.328   3.959   7.268
 5203POPC   C1B67363  29.678   4.442   6.170
 5203POPC   C2B67364  29.668   4.410   6.607
 5203POPC   C3B67365  29.736   4.630   7.016
 5203POPC   C4B67366  29.830   4.474   7.437
 5204POPC   NC367367  37.275  32.546   5.495
 5204POPC   PO467368  37.619  31.985   5.228
 5204POPC   GL167369  37.557  32.154   5.674
 5204POPC   GL267370  37.802  32.402   5.779
 5204POPC   C1A67371  37.416  32.363   6.107
 5204POPC   D2A67372  37.599  32.548   6.502
 5204POPC   C3A67373  37.450  32.408   6.931
 5204POPC   C4A67374  37.389  32.228   7.368
 5204POPC   C1B67375  37.954  32.305   6.170
 5204POPC   C2B67376  37.922  32.144   6.580
 5204POPC   C3B67377  37.988  32.446   6.889
 5204POPC   C4B67378  37.862  32.636   7.255
 5205POPC   NC367379   7.125   2.152   5.573
 5205POPC   PO467380   7.628   1.718   5.344
 5205POPC   GL167381   7.651   1.942   5.736
 5205POPC   GL267382   7.610   2.306   5.749
 5205POPC   C1A67383   7.466   1.976   6.156
 5205POPC   D2A67384   7.186   1.930   6.491
 5205POPC   C3A67385   7.385   1.966   6.871
 5205POPC   C4A67386   7.153   2.099   7.203
 5205POPC   C1B67387   7.773   2.389   6.178
 5205POPC   C2B67388   7.766   2.239   6.607
 5205POPC   C3B67389   7.682   2.363   7.028
 5205POPC   C4B67390   7.731   2.156   7.401
 5206POPC   NC367391  15.902  27.589   5.082
 5206POPC   PO467392  15.647  27.492   5.648
 5206POPC   GL167393  15.937  27.709   5.872
 5206POPC   GL267394  15.684  27.897   6.065
 5206POPC   C1A67395  16.223  27.527   6.189
 5206POPC   D2A67396  16.276  27.441   6.615
 5206POPC   C3A67397  16.085  27.748   6.901
 5206POPC   C4A67398  15.889  27.690   7.298
 5206POPC   C1B67399  15.715  27.496   6.305
 5206POPC   C2B67400  15.770  27.390   6.724
 5206POPC   C3B67401  15.685  27.254   7.115
 5206POPC   C4B67402  15.560  27.353   7.544
 5207POPC   NC367403   0.022  34.544   5.441
 5207POPC   PO467404   0.598  34.818   5.464
 5207POPC   GL167405   0.558  34.524   5.823
 5207POPC   GL267406   0.232  34.370   5.896
 5207POPC   C1A67407   0.510  34.606   6.275
 5207POPC   D2A67408   0.347  34.551   6.684
 5207POPC   C3A67409   0.529  34.669   7.072
 5207POPC   C4A67410   0.685  34.715   7.490
 5207POPC   C1B67411   0.275  34.133   6.312
 5207POPC   C2B67412   0.016  34.131   6.693
 5207POPC   C3B67413   0.017  34.133   7.146
 5207POPC   C4B67414   0.324  34.325   7.392
 5208POPC   NC367415   4.787  36.101   5.523
 5208POPC   PO467416   5.483  36.067   5.530
 5208POPC   GL167417   5.234  36.028   5.890
 5208POPC   GL267418   4.970  36.266   5.970
 5208POPC   C1A67419   5.301  36.044   6.339
 5208POPC   D2A67420   5.444  35.834   6.724
 5208POPC   C3A67421   5.071  35.664   6.942
 5208POPC   C4A67422   4.887  35.852   7.327
 5208POPC   C1B67423   4.829  36.264   6.405
 5208POPC   C2B67424   5.048  36.214   6.808
 5208POPC   C3B67425   5.069  36.385   7.222
 5208POPC   C4B67426   4.818  36.327   7.590
 5209POPC   NC367427  40.660  11.301   5.384
 5209POPC   PO467428  41.264  11.427   5.400
 5209POPC   GL167429  41.031  11.222   5.783
 5209POPC   GL267430  40.682  11.334   5.877
 5209POPC   C1A67431  41.011  11.319   6.259
 5209POPC   D2A67432  40.732  11.370   6.625
 5209POPC   C3A67433  40.832  11.396   7.069
 5209POPC   C4A67434  41.016  11.625   7.422
 5209POPC   C1B67435  40.455  11.205   6.219
 5209POPC   C2B67436  40.294  11.113   6.625
 5209POPC   C3B67437  40.323  11.299   7.028
 5209POPC   C4B67438  40.492  11.264   7.444
 5210POPC   NC367439  28.836  11.901   5.385
 5210POPC   PO467440  29.252  12.335   5.493
 5210POPC   GL167441  29.145  12.170   5.885
 5210POPC   GL267442  29.261  11.874   5.780
 5210POPC   C1A67443  29.112  12.248   6.343
 5210POPC   D2A67444  29.157  12.416   6.767
 5210POPC   C3A67445  29.039  12.095   7.071
 5210POPC   C4A67446  29.117  11.644   7.080
 5210POPC   C1B67447  29.430  11.865   6.199
 5210POPC   C2B67448  29.277  11.823   6.619
 5210POPC   C3B67449  29.529  11.902   6.993
 5210POPC   C4B67450  29.800  11.911   7.350
 5211POPC   NC367451  18.632   1.777   5.491
 5211POPC   PO467452  19.180   1.319   5.420
 5211POPC   GL167453  19.321   1.067   5.800
 5211POPC   GL267454  18.985   1.076   5.893
 5211POPC   C1A67455  19.283   0.868   6.269
 5211POPC   D2A67456  19.152   1.041   6.706
 5211POPC   C3A67457  19.354   0.969   7.103
 5211POPC   C4A67458  19.610   1.138   7.462
 5211POPC   C1B67459  18.961   1.270   6.276
 5211POPC   C2B67460  18.738   1.338   6.652
 5211POPC   C3B67461  18.943   1.370   7.061
 5211POPC   C4B67462  19.123   1.298   7.476
 5212POPC   NC367463   8.476  43.637   5.322
 5212POPC   PO467464   7.867  43.627   5.661
 5212POPC   GL167465   8.226  43.779   5.808
 5212POPC   GL267466   8.516  43.493   5.801
 5212POPC   C1A67467   8.105  43.929   6.224
 5212POPC   D2A67468   8.079  44.148   6.600
 5212POPC   C3A67469   8.073  43.928   6.995
 5212POPC   C4A67470   7.973  43.743   7.421
 5212POPC   C1B67471   8.381  43.496   6.214
 5212POPC   C2B67472   8.365  43.678   6.615
 5212POPC   C3B67473   8.519  43.652   7.023
 5212POPC   C4B67474   8.383  43.436   7.382
 5213POPC   NC367475  40.488  10.477   5.421
 5213POPC   PO467476  39.849  10.629   5.470
 5213POPC   GL167477  39.865  10.493   5.892
 5213POPC   GL267478  40.222  10.523   5.874
 5213POPC   C1A67479  39.743  10.443   6.362
 5213POPC   D2A67480  39.853  10.413   6.830
 5213POPC   C3A67481  39.667  10.648   7.210
 5213POPC   C4A67482  39.744  10.638   7.686
 5213POPC   C1B67483  40.174  10.762   6.250
 5213POPC   C2B67484  40.328  10.612   6.618
 5213POPC   C3B67485  40.381  10.408   6.995
 5213POPC   C4B67486  40.135  10.441   7.361
 5214POPC   NC367487  15.379  17.105   5.383
 5214POPC   PO467488  15.405  17.749   5.165
 5214POPC   GL167489  15.337  17.668   5.718
 5214POPC   GL267490  15.000  17.541   5.844
 5214POPC   C1A67491  15.336  17.537   6.195
 5214POPC   D2A67492  15.325  17.694   6.626
 5214POPC   C3A67493  15.254  17.473   6.989
 5214POPC   C4A67494  15.250  17.473   7.435
 5214POPC   C1B67495  14.834  17.562   6.308
 5214POPC   C2B67496  14.815  17.330   6.734
 5214POPC   C3B67497  14.907  17.164   7.183
 5214POPC   C4B67498  15.067  17.033   7.621
 5215POPC   NC367499  18.404  41.369   5.497
 5215POPC   PO467500  17.850  41.689   5.422
 5215POPC   GL167501  18.086  41.764   5.791
 5215POPC   GL267502  18.450  41.850   5.774
 5215POPC   C1A67503  18.022  41.577   6.189
 5215POPC   D2A67504  17.874  41.504   6.599
 5215POPC   C3A67505  18.094  41.626   6.981
 5215POPC   C4A67506  18.154  41.264   7.198
 5215POPC   C1B67507  18.533  41.594   6.119
 5215POPC   C2B67508  18.405  41.603   6.537
 5215POPC   C3B67509  18.542  41.367   6.862
 5215POPC   C4B67510  18.566  41.588   7.212
 5216POPC   NC367511  27.443  16.823   5.323
 5216POPC   PO467512  27.949  16.359   5.248
 5216POPC   GL167513  27.771  16.497   5.665
 5216POPC   GL267514  27.410  16.500   5.735
 5216POPC   C1A67515  27.788  16.737   6.070
 5216POPC   D2A67516  27.631  16.910   6.468
 5216POPC   C3A67517  27.570  16.678   6.835
 5216POPC   C4A67518  27.736  16.641   7.238
 5216POPC   C1B67519  27.279  16.800   6.063
 5216POPC   C2B67520  27.136  16.877   6.524
 5216POPC   C3B67521  27.128  16.915   6.966
 5216POPC   C4B67522  27.230  16.638   7.286
 5217POPC   NC367523  13.525  31.512   5.391
 5217POPC   PO467524  14.094  31.125   5.358
 5217POPC   GL167525  13.795  31.310   5.797
 5217POPC   GL267526  13.472  31.532   5.888
 5217POPC   C1A67527  13.795  31.517   6.272
 5217POPC   D2A67528  13.637  31.286   6.679
 5217POPC   C3A67529  13.754  31.463   7.082
 5217POPC   C4A67530  13.878  31.837   7.162
 5217POPC   C1B67531  13.247  31.749   6.245
 5217POPC   C2B67532  13.123  31.742   6.689
 5217POPC   C3B67533  13.256  31.544   7.047
 5217POPC   C4B67534  13.394  31.115   7.136
 5218POPC   NC367535  40.360  25.428   5.470
 5218POPC   PO467536  39.930  24.889   5.489
 5218POPC   GL167537  39.996  25.195   5.767
 5218POPC   GL267538  40.297  25.046   5.882
 5218POPC   C1A67539  40.012  25.419   6.150
 5218POPC   D2A67540  39.745  25.462   6.501
 5218POPC   C3A67541  39.950  25.373   6.865
 5218POPC   C4A67542  39.825  25.437   7.263
 5218POPC   C1B67543  40.286  24.834   6.317
 5218POPC   C2B67544  40.265  24.953   6.783
 5218POPC   C3B67545  40.183  25.055   7.229
 5218POPC   C4B67546  40.254  24.934   7.709
 5219POPC   NC367547  29.697  26.566   5.419
 5219POPC   PO467548  29.096  27.000   5.438
 5219POPC   GL167549  29.346  26.768   5.738
 5219POPC   GL267550  29.592  26.982   5.837
 5219POPC   C1A67551  29.279  26.634   6.170
 5219POPC   D2A67552  28.980  26.829   6.476
 5219POPC   C3A67553  29.043  26.789   6.908
 5219POPC   C4A67554  29.258  26.567   7.222
 5219POPC   C1B67555  29.291  27.129   6.190
 5219POPC   C2B67556  29.381  27.131   6.658
 5219POPC   C3B67557  29.392  27.102   7.135
 5219POPC   C4B67558  29.360  27.330   7.534
 5220POPC   NC367559  37.206  37.151   5.158
 5220POPC   PO467560  37.783  36.775   5.234
 5220POPC   GL167561  37.725  36.947   5.764
 5220POPC   GL267562  37.652  36.615   5.941
 5220POPC   C1A67563  37.381  37.050   6.085
 5220POPC   D2A67564  37.149  36.839   6.448
 5220POPC   C3A67565  37.354  36.979   6.838
 5220POPC   C4A67566  37.497  36.872   7.263
 5220POPC   C1B67567  37.927  36.774   6.293
 5220POPC   C2B67568  37.907  36.905   6.761
 5220POPC   C3B67569  37.996  36.910   7.232
 5220POPC   C4B67570  38.040  36.934   7.692
 5221POPC   NC367571  30.168   0.230   5.550
 5221POPC   PO467572  29.788   0.765   5.326
 5221POPC   GL167573  29.818   0.572   5.745
 5221POPC   GL267574  30.146   0.694   5.823
 5221POPC   C1A67575  29.957   0.357   6.156
 5221POPC   D2A67576  29.880   0.170   6.580
 5221POPC   C3A67577  30.004   0.431   6.932
 5221POPC   C4A67578  30.054   0.305   7.355
 5221POPC   C1B67579  30.392   0.641   6.198
 5221POPC   C2B67580  30.216   0.772   6.590
 5221POPC   C3B67581  30.179   0.956   6.988
 5221POPC   C4B67582  30.180   0.823   7.417
 5222POPC   NC367583  25.674  16.782   5.384
 5222POPC   PO467584  26.294  16.438   5.426
 5222POPC   GL167585  26.005  16.543   5.755
 5222POPC   GL267586  26.029  16.891   5.762
 5222POPC   C1A67587  26.111  16.599   6.200
 5222POPC   D2A67588  26.198  16.885   6.555
 5222POPC   C3A67589  26.040  16.715   6.925
 5222POPC   C4A67590  25.799  16.447   7.176
 5222POPC   C1B67591  25.685  16.858   6.053
 5222POPC   C2B67592  25.686  16.759   6.477
 5222POPC   C3B67593  25.656  17.050   6.809
 5222POPC   C4B67594  25.691  16.941   7.241
 5223POPC   NC367595  21.557  37.748   5.329
 5223POPC   PO467596  21.600  37.118   5.363
 5223POPC   GL167597  21.413  37.372   5.722
 5223POPC   GL267598  21.565  37.721   5.855
 5223POPC   C1A67599  21.231  37.441   6.148
 5223POPC   D2A67600  21.406  37.587   6.533
 5223POPC   C3A67601  21.394  37.327   6.889
 5223POPC   C4A67602  21.093  37.390   7.188
 5223POPC   C1B67603  21.283  37.942   6.165
 5223POPC   C2B67604  21.064  37.985   6.566
 5223POPC   C3B67605  21.212  37.842   6.975
 5223POPC   C4B67606  21.570  37.982   7.232
 5224POPC   NC367607   2.785  24.153   5.384
 5224POPC   PO467608   2.724  24.808   5.385
 5224POPC   GL167609   2.830  24.539   5.738
 5224POPC   GL267610   3.147  24.462   5.637
 5224POPC   C1A67611   2.754  24.269   6.111
 5224POPC   D2A67612   2.646  24.111   6.537
 5224POPC   C3A67613   2.643  24.427   6.833
 5224POPC   C4A67614   2.561  24.483   7.247
 5224POPC   C1B67615   3.236  24.442   6.080
 5224POPC   C2B67616   3.077  24.389   6.495
 5224POPC   C3B67617   3.153  24.495   6.900
 5224POPC   C4B67618   3.025  24.735   7.233
 5225POPC   NC367619   7.654   3.110   5.058
 5225POPC   PO467620   7.311   3.347   5.541
 5225POPC   GL167621   7.278   3.524   5.910
 5225POPC   GL267622   7.574   3.327   5.976
 5225POPC   C1A67623   7.431   3.877   6.144
 5225POPC   D2A67624   7.583   4.005   6.546
 5225POPC   C3A67625   7.381   3.736   6.840
 5225POPC   C4A67626   7.133   3.662   7.201
 5225POPC   C1B67627   7.422   3.407   6.393
 5225POPC   C2B67628   7.471   3.202   6.773
 5225POPC   C3B67629   7.528   3.353   7.163
 5225POPC   C4B67630   7.736   3.415   7.553
 5226POPC   NC367631  21.947  14.852   5.218
 5226POPC   PO467632  21.484  15.286   5.238
 5226POPC   GL167633  21.590  15.204   5.693
 5226POPC   GL267634  21.384  14.975   5.915
 5226POPC   C1A67635  21.691  15.329   6.134
 5226POPC   D2A67636  21.839  15.159   6.517
 5226POPC   C3A67637  21.588  15.123   6.906
 5226POPC   C4A67638  21.391  15.296   7.283
 5226POPC   C1B67639  21.691  14.751   6.241
 5226POPC   C2B67640  21.853  14.658   6.693
 5226POPC   C3B67641  21.752  14.697   7.140
 5226POPC   C4B67642  21.483  14.825   7.504
 5227POPC   NC367643  22.103  38.077   5.393
 5227POPC   PO467644  22.550  38.539   5.433
 5227POPC   GL167645  22.323  38.501   5.854
 5227POPC   GL267646  22.028  38.310   5.849
 5227POPC   C1A67647  22.146  38.457   6.323
 5227POPC   D2A67648  21.849  38.540   6.681
 5227POPC   C3A67649  22.066  38.738   6.992
 5227POPC   C4A67650  22.384  38.492   7.147
 5227POPC   C1B67651  21.987  37.981   6.168
 5227POPC   C2B67652  22.112  38.031   6.614
 5227POPC   C3B67653  22.027  38.139   7.023
 5227POPC   C4B67654  22.090  37.858   7.351
 5228POPC   NC367655  19.711  10.672   5.503
 5228POPC   PO467656  19.877  10.008   5.434
 5228POPC   GL167657  19.999  10.282   5.807
 5228POPC   GL267658  19.780  10.556   5.985
 5228POPC   C1A67659  20.115  10.312   6.260
 5228POPC   D2A67660  19.928  10.282   6.645
 5228POPC   C3A67661  19.987  10.604   6.926
 5228POPC   C4A67662  19.903  10.348   7.257
 5228POPC   C1B67663  19.789  10.715   6.417
 5228POPC   C2B67664  19.488  10.615   6.763
 5228POPC   C3B67665  19.538  10.710   7.201
 5228POPC   C4B67666  19.729  10.812   7.600
 5229POPC   NC367667  37.066  44.545   5.459
 5229POPC   PO467668  36.602  44.773   5.221
 5229POPC   GL167669  36.717  44.827   5.731
 5229POPC   GL267670  37.084  44.814   5.871
 5229POPC   C1A67671  36.746  44.934   6.229
 5229POPC   D2A67672  37.049  44.913   6.583
 5229POPC   C3A67673  36.891  44.881   6.979
 5229POPC   C4A67674  36.535  44.632   7.027
 5229POPC   C1B67675  37.077  44.515   6.231
 5229POPC   C2B67676  36.907  44.416   6.650
 5229POPC   C3B67677  37.086  44.411   7.042
 5229POPC   C4B67678  37.080  44.235   7.416
 5230POPC   NC367679  29.322  32.263   5.348
 5230POPC   PO467680  30.012  32.076   5.325
 5230POPC   GL167681  29.907  32.254   5.743
 5230POPC   GL267682  29.582  32.094   5.760
 5230POPC   C1A67683  30.021  32.230   6.237
 5230POPC   D2A67684  29.918  32.360   6.707
 5230POPC   C3A67685  30.183  32.250   7.094
 5230POPC   C4A67686  30.182  31.971   7.481
 5230POPC   C1B67687  29.582  32.468   6.073
 5230POPC   C2B67688  29.476  32.606   6.494
 5230POPC   C3B67689  29.422  32.444   6.891
 5230POPC   C4B67690  29.731  32.427   7.231
 5231POPC   NC367691  10.882  27.127   5.465
 5231POPC   PO467692  10.394  26.615   5.464
 5231POPC   GL167693  10.555  26.782   5.848
 5231POPC   GL267694  10.497  27.122   5.840
 5231POPC   C1A67695  10.623  26.900   6.311
 5231POPC   D2A67696  10.643  27.041   6.780
 5231POPC   C3A67697  10.446  26.829   7.160
 5231POPC   C4A67698  10.590  26.878   7.620
 5231POPC   C1B67699  10.194  27.186   6.194
 5231POPC   C2B67700  10.136  27.071   6.643
 5231POPC   C3B67701  10.252  27.272   7.047
 5231POPC   C4B67702  10.239  27.199   7.487
 5232POPC   NC367703   5.285  44.403   5.121
 5232POPC   PO467704   5.880  44.576   5.154
 5232POPC   GL167705   5.824  44.640   5.692
 5232POPC   GL267706   5.880  44.382   5.937
 5232POPC   C1A67707   5.992  44.856   6.089
 5232POPC   D2A67708   5.997  44.723   6.528
 5232POPC   C3A67709   6.082  44.913   6.926
 5232POPC   C4A67710   6.133  44.680   7.309
 5232POPC   C1B67711   5.595  44.182   6.207
 5232POPC   C2B67712   5.435  44.202   6.642
 5232POPC   C3B67713   5.429  44.563   6.914
 5232POPC   C4B67714   5.623  44.506   7.285
 5233POPC   NC367715  10.413  34.458   5.475
 5233POPC   PO467716  10.485  35.067   5.266
 5233POPC   GL167717  10.527  34.886   5.753
 5233POPC   GL267718  10.685  34.565   5.893
 5233POPC   C1A67719  10.315  34.730   6.191
 5233POPC   D2A67720  10.312  34.507   6.611
 5233POPC   C3A67721  10.402  34.787   6.979
 5233POPC   C4A67722  10.773  34.945   7.179
 5233POPC   C1B67723  10.806  34.211   6.209
 5233POPC   C2B67724  10.977  34.259   6.631
 5233POPC   C3B67725  10.779  34.417   6.992
 5233POPC   C4B67726  10.658  34.479   7.408
 5234POPC   NC367727  28.044   6.757   5.572
 5234POPC   PO467728  28.577   6.449   5.389
 5234POPC   GL167729  28.454   6.526   5.809
 5234POPC   GL267730  28.472   6.880   5.862
 5234POPC   C1A67731  28.208   6.467   6.192
 5234POPC   D2A67732  28.104   6.644   6.590
 5234POPC   C3A67733  28.204   6.379   6.897
 5234POPC   C4A67734  28.541   6.510   7.167
 5234POPC   C1B67735  28.342   6.974   6.249
 5234POPC   C2B67736  28.551   6.879   6.606
 5234POPC   C3B67737  28.439   6.990   6.993
 5234POPC   C4B67738  28.553   7.223   7.332
 5235POPC   NC367739  12.545  43.432   5.535
 5235POPC   PO467740  12.811  42.927   5.219
 5235POPC   GL167741  12.914  43.098   5.660
 5235POPC   GL267742  13.184  42.869   5.653
 5235POPC   C1A67743  12.841  43.290   6.107
 5235POPC   D2A67744  12.618  43.180   6.513
 5235POPC   C3A67745  12.706  43.484   6.825
 5235POPC   C4A67746  12.825  43.602   7.221
 5235POPC   C1B67747  12.950  42.784   6.057
 5235POPC   C2B67748  12.943  42.692   6.515
 5235POPC   C3B67749  13.006  42.848   6.926
 5235POPC   C4B67750  12.744  43.096   7.209
 5236POPC   NC367751  36.739  23.705   5.423
 5236POPC   PO467752  37.362  23.742   5.750
 5236POPC   GL167753  36.954  23.598   5.889
 5236POPC   GL267754  36.732  23.905   5.897
 5236POPC   C1A67755  36.871  23.638   6.326
 5236POPC   D2A67756  37.123  23.805   6.692
 5236POPC   C3A67757  37.073  23.600   7.108
 5236POPC   C4A67758  36.817  23.602   7.523
 5236POPC   C1B67759  36.684  24.101   6.307
 5236POPC   C2B67760  36.623  23.909   6.715
 5236POPC   C3B67761  36.689  23.922   7.148
 5236POPC   C4B67762  36.453  24.022   7.465
 5237POPC   NC367763  15.223   7.567   5.351
 5237POPC   PO467764  14.795   7.146   5.541
 5237POPC   GL167765  15.232   7.232   5.770
 5237POPC   GL267766  15.331   7.588   5.848
 5237POPC   C1A67767  15.518   7.225   6.167
 5237POPC   D2A67768  15.569   7.504   6.546
 5237POPC   C3A67769  15.318   7.400   6.927
 5237POPC   C4A67770  15.247   7.402   7.403
 5237POPC   C1B67771  15.168   7.701   6.259
 5237POPC   C2B67772  15.091   7.785   6.692
 5237POPC   C3B67773  15.032   7.790   7.129
 5237POPC   C4B67774  14.902   7.781   7.575
 5238POPC   NC367775  33.516  28.922   5.557
 5238POPC   PO467776  33.745  28.314   5.369
 5238POPC   GL167777  33.778  28.469   5.807
 5238POPC   GL267778  34.143  28.578   5.878
 5238POPC   C1A67779  33.468  28.446   6.190
 5238POPC   D2A67780  33.319  28.209   6.581
 5238POPC   C3A67781  33.518  28.330   6.985
 5238POPC   C4A67782  33.560  28.654   7.342
 5238POPC   C1B67783  33.974  28.468   6.285
 5238POPC   C2B67784  33.875  28.555   6.715
 5238POPC   C3B67785  33.985  28.404   7.161
 5238POPC   C4B67786  34.196  28.063   7.415
 5239POPC   NC367787  30.462  10.044   5.595
 5239POPC   PO467788  30.575   9.349   5.570
 5239POPC   GL167789  30.501   9.546   5.905
 5239POPC   GL267790  30.760   9.791   5.940
 5239POPC   C1A67791  30.440   9.666   6.308
 5239POPC   D2A67792  30.560  10.010   6.590
 5239POPC   C3A67793  30.560   9.892   6.999
 5239POPC   C4A67794  30.428   9.496   7.152
 5239POPC   C1B67795  30.953   9.667   6.307
 5239POPC   C2B67796  31.049   9.846   6.691
 5239POPC   C3B67797  30.992   9.671   7.099
 5239POPC   C4B67798  31.182   9.853   7.438
 5240POPC   NC367799  23.939  19.319   5.494
 5240POPC   PO467800  23.573  18.801   5.494
 5240POPC   GL167801  23.623  19.050   5.842
 5240POPC   GL267802  23.968  18.963   5.861
 5240POPC   C1A67803  23.580  18.926   6.268
 5240POPC   D2A67804  23.797  18.840   6.640
 5240POPC   C3A67805  23.577  18.923   7.051
 5240POPC   C4A67806  23.563  19.075   7.527
 5240POPC   C1B67807  23.970  19.238   6.242
 5240POPC   C2B67808  24.113  19.243   6.682
 5240POPC   C3B67809  24.063  19.098   7.124
 5240POPC   C4B67810  24.067  19.133   7.605
 5241POPC   NC367811   4.192  11.625   5.551
 5241POPC   PO467812   4.395  11.062   5.353
 5241POPC   GL167813   4.381  11.192   5.751
 5241POPC   GL267814   4.603  11.498   5.807
 5241POPC   C1A67815   4.524  11.112   6.151
 5241POPC   D2A67816   4.508  11.289   6.543
 5241POPC   C3A67817   4.592  11.066   6.906
 5241POPC   C4A67818   4.318  11.087   7.246
 5241POPC   C1B67819   4.397  11.658   6.192
 5241POPC   C2B67820   4.326  11.768   6.631
 5241POPC   C3B67821   4.307  11.540   6.991
 5241POPC   C4B67822   4.691  11.491   7.202
 5242POPC   NC367823   2.988   6.762   5.103
 5242POPC   PO467824   2.685   6.765   5.675
 5242POPC   GL167825   2.887   6.642   6.002
 5242POPC   GL267826   3.027   6.367   5.942
 5242POPC   C1A67827   2.728   6.464   6.379
 5242POPC   D2A67828   2.371   6.477   6.627
 5242POPC   C3A67829   2.483   6.277   6.982
 5242POPC   C4A67830   2.542   6.457   7.372
 5242POPC   C1B67831   3.249   6.439   6.334
 5242POPC   C2B67832   3.221   6.514   6.747
 5242POPC   C3B67833   2.961   6.523   7.095
 5242POPC   C4B67834   3.012   6.368   7.544
 5243POPC   NC367835  39.913   3.053   5.362
 5243POPC   PO467836  40.108   3.714   5.366
 5243POPC   GL167837  39.981   3.456   5.694
 5243POPC   GL267838  40.311   3.337   5.757
 5243POPC   C1A67839  39.849   3.245   6.060
 5243POPC   D2A67840  39.979   3.226   6.495
 5243POPC   C3A67841  39.814   3.521   6.813
 5243POPC   C4A67842  39.543   3.522   7.186
 5243POPC   C1B67843  40.332   3.438   6.170
 5243POPC   C2B67844  40.201   3.693   6.502
 5243POPC   C3B67845  40.314   3.638   6.934
 5243POPC   C4B67846  40.087   3.375   7.221
 5244POPC   NC367847   9.168  33.569   5.481
 5244POPC   PO467848   8.627  33.938   5.224
 5244POPC   GL167849   8.859  33.958   5.639
 5244POPC   GL267850   8.760  33.635   5.783
 5244POPC   C1A67851   9.034  33.994   6.090
 5244POPC   D2A67852   8.877  34.145   6.525
 5244POPC   C3A67853   9.085  33.981   6.916
 5244POPC   C4A67854   9.125  34.142   7.353
 5244POPC   C1B67855   8.889  33.474   6.185
 5244POPC   C2B67856   9.101  33.538   6.559
 5244POPC   C3B67857   9.235  33.459   6.961
 5244POPC   C4B67858   9.193  33.646   7.352
 5245POPC   NC367859   8.040  34.163   5.462
 5245POPC   PO467860   8.169  34.821   5.323
 5245POPC   GL167861   8.223  34.746   5.770
 5245POPC   GL267862   8.120  34.435   5.884
 5245POPC   C1A67863   8.155  34.812   6.223
 5245POPC   D2A67864   8.063  34.577   6.626
 5245POPC   C3A67865   8.211  34.710   7.041
 5245POPC   C4A67866   8.378  34.439   7.364
 5245POPC   C1B67867   8.175  34.241   6.264
 5245POPC   C2B67868   8.348  34.136   6.651
 5245POPC   C3B67869   8.139  34.203   7.005
 5245POPC   C4B67870   7.840  34.339   7.287
 5246POPC   NC367871  11.951  16.967   5.273
 5246POPC   PO467872  12.271  16.399   5.382
 5246POPC   GL167873  12.105  16.627   5.750
 5246POPC   GL267874  11.767  16.577   5.910
 5246POPC   C1A67875  12.159  16.607   6.217
 5246POPC   D2A67876  11.854  16.695   6.533
 5246POPC   C3A67877  12.106  16.683   6.879
 5246POPC   C4A67878  12.238  16.470   7.222
 5246POPC   C1B67879  11.500  16.851   6.175
 5246POPC   C2B67880  11.527  17.137   6.523
 5246POPC   C3B67881  11.798  17.100   6.859
 5246POPC   C4B67882  11.921  16.985   7.255
 5247POPC   NC367883   3.174  42.328   5.384
 5247POPC   PO467884   3.807  42.600   5.301
 5247POPC   GL167885   3.706  42.359   5.678
 5247POPC   GL267886   3.512  42.603   5.829
 5247POPC   C1A67887   3.673  42.118   6.102
 5247POPC   D2A67888   3.753  42.292   6.530
 5247POPC   C3A67889   3.591  42.143   6.912
 5247POPC   C4A67890   3.703  42.224   7.349
 5247POPC   C1B67891   3.371  42.514   6.253
 5247POPC   C2B67892   3.275  42.570   6.694
 5247POPC   C3B67893   3.363  42.547   7.128
 5247POPC   C4B67894   3.316  42.697   7.582
 5248POPC   NC367895   6.076  13.323   5.269
 5248POPC   PO467896   5.763  13.834   5.498
 5248POPC   GL167897   5.994  13.603   5.764
 5248POPC   GL267898   6.140  13.895   5.930
 5248POPC   C1A67899   6.001  13.509   6.214
 5248POPC   D2A67900   6.150  13.659   6.606
 5248POPC   C3A67901   5.989  13.409   6.970
 5248POPC   C4A67902   6.042  13.480   7.413
 5248POPC   C1B67903   5.758  13.955   6.223
 5248POPC   C2B67904   5.656  13.778   6.681
 5248POPC   C3B67905   5.750  13.823   7.154
 5248POPC   C4B67906   5.644  13.740   7.625
 5249POPC   NC367907  38.112  35.439   5.349
 5249POPC   PO467908  38.709  35.149   5.420
 5249POPC   GL167909  38.455  35.245   5.782
 5249POPC   GL267910  38.556  35.557   5.828
 5249POPC   C1A67911  38.273  35.438   6.212
 5249POPC   D2A67912  38.532  35.524   6.608
 5249POPC   C3A67913  38.280  35.435   6.960
 5249POPC   C4A67914  38.287  35.569   7.365
 5249POPC   C1B67915  38.764  35.305   6.200
 5249POPC   C2B67916  38.964  35.235   6.600
 5249POPC   C3B67917  38.746  35.226   7.004
 5249POPC   C4B67918  38.744  35.289   7.485
 5250POPC   NC367919  11.029  15.769   5.343
 5250POPC   PO467920  11.612  15.879   5.648
 5250POPC   GL167921  11.222  15.902   5.839
 5250POPC   GL267922  11.046  16.176   5.726
 5250POPC   C1A67923  11.276  15.823   6.262
 5250POPC   D2A67924  11.483  15.969   6.655
 5250POPC   C3A67925  11.224  15.840   7.016
 5250POPC   C4A67926  11.197  15.813   7.493
 5250POPC   C1B67927  10.862  16.158   6.146
 5250POPC   C2B67928  10.998  16.127   6.561
 5250POPC   C3B67929  10.821  16.186   6.935
 5250POPC   C4B67930  11.013  16.245   7.315
 5251POPC   NC367931  28.014  34.565   5.546
 5251POPC   PO467932  27.472  34.926   5.418
 5251POPC   GL167933  27.507  34.778   5.822
 5251POPC   GL267934  27.565  34.454   5.815
 5251POPC   C1A67935  27.423  34.808   6.263
 5251POPC   D2A67936  27.304  34.600   6.656
 5251POPC   C3A67937  27.513  34.819   6.988
 5251POPC   C4A67938  27.893  34.790   7.196
 5251POPC   C1B67939  27.543  34.310   6.234
 5251POPC   C2B67940  27.511  34.101   6.606
 5251POPC   C3B67941  27.567  34.108   7.008
 5251POPC   C4B67942  27.517  34.410   7.280
 5252POPC   NC367943  17.898  42.919   5.431
 5252POPC   PO467944  18.445  43.284   5.212
 5252POPC   GL167945  18.429  43.099   5.674
 5252POPC   GL267946  18.689  42.821   5.709
 5252POPC   C1A67947  18.219  43.119   6.111
 5252POPC   D2A67948  18.095  43.260   6.567
 5252POPC   C3A67949  18.127  43.052   6.966
 5252POPC   C4A67950  18.401  43.184   7.294
 5252POPC   C1B67951  18.671  42.848   6.142
 5252POPC   C2B67952  18.446  42.895   6.534
 5252POPC   C3B67953  18.548  42.780   6.943
 5252POPC   C4B67954  18.722  42.779   7.359
 5253POPC   NC367955  38.010   6.493   5.258
 5253POPC   PO467956  37.970   7.183   5.487
 5253POPC   GL167957  37.841   6.799   5.718
 5253POPC   GL267958  37.594   7.005   5.867
 5253POPC   C1A67959  37.743   6.601   6.152
 5253POPC   D2A67960  37.905   6.715   6.596
 5253POPC   C3A67961  37.720   6.549   6.995
 5253POPC   C4A67962  37.806   6.303   7.390
 5253POPC   C1B67963  37.948   7.077   6.188
 5253POPC   C2B67964  37.985   7.217   6.639
 5253POPC   C3B67965  37.763   7.052   7.015
 5253POPC   C4B67966  37.628   6.832   7.400
 5254POPC   NC367967  33.624  10.282   5.305
 5254POPC   PO467968  33.787  10.917   5.497
 5254POPC   GL167969  33.670  10.742   5.862
 5254POPC   GL267970  33.648  10.392   5.829
 5254POPC   C1A67971  33.727  10.633   6.303
 5254POPC   D2A67972  33.611  10.553   6.724
 5254POPC   C3A67973  33.904  10.468   7.073
 5254POPC   C4A67974  34.243  10.725   7.200
 5254POPC   C1B67975  33.457  10.194   6.204
 5254POPC   C2B67976  33.398  10.059   6.635
 5254POPC   C3B67977  33.408  10.235   7.059
 5254POPC   C4B67978  33.513  10.598   7.359
 5255POPC   NC367979  21.529  11.274   5.430
 5255POPC   PO467980  20.933  11.107   5.436
 5255POPC   GL167981  21.146  11.423   5.730
 5255POPC   GL267982  21.290  11.128   5.872
 5255POPC   C1A67983  21.285  11.526   6.163
 5255POPC   D2A67984  21.225  11.237   6.526
 5255POPC   C3A67985  21.256  11.472   6.919
 5255POPC   C4A67986  21.393  11.415   7.337
 5255POPC   C1B67987  21.616  11.142   6.182
 5255POPC   C2B67988  21.653  10.915   6.583
 5255POPC   C3B67989  21.409  11.000   6.955
 5255POPC   C4B67990  21.144  10.746   7.187
 5256POPC   NC367991   3.556  22.489   5.033
 5256POPC   PO467992   3.039  22.137   5.466
 5256POPC   GL167993   3.189  22.146   5.848
 5256POPC   GL267994   3.433  22.348   5.870
 5256POPC   C1A67995   3.101  22.351   6.236
 5256POPC   D2A67996   3.369  22.533   6.562
 5256POPC   C3A67997   3.387  22.281   6.970
 5256POPC   C4A67998   3.731  21.988   7.127
 5256POPC   C1B67999   3.620  22.198   6.255
 5256POPC   C2B68000   3.816  22.276   6.677
 5256POPC   C3B68001   4.010  22.412   7.096
 5256POPC   C4B68002   3.932  22.470   7.552
 5257POPC   NC368003  26.085  19.791   5.308
 5257POPC   PO468004  26.286  20.106   5.860
 5257POPC   GL168005  25.957  19.790   5.842
 5257POPC   GL268006  25.922  19.437   5.767
 5257POPC   C1A68007  25.988  19.632   6.249
 5257POPC   D2A68008  25.977  19.930   6.591
 5257POPC   C3A68009  26.311  19.868   6.869
 5257POPC   C4A68010  26.378  20.041   7.278
 5257POPC   C1B68011  25.573  19.368   6.121
 5257POPC   C2B68012  25.629  19.501   6.570
 5257POPC   C3B68013  25.855  19.596   6.961
 5257POPC   C4B68014  26.239  19.492   7.212
 5258POPC   NC368015  21.966  36.935   5.181
 5258POPC   PO468016  22.571  36.874   5.376
 5258POPC   GL168017  22.196  36.867   5.666
 5258POPC   GL268018  22.157  36.579   5.842
 5258POPC   C1A68019  22.179  37.002   6.116
 5258POPC   D2A68020  22.106  36.824   6.535
 5258POPC   C3A68021  21.940  37.147   6.816
 5258POPC   C4A68022  22.104  37.146   7.214
 5258POPC   C1B68023  22.468  36.494   6.184
 5258POPC   C2B68024  22.495  36.478   6.659
 5258POPC   C3B68025  22.363  36.746   7.023
 5258POPC   C4B68026  22.044  36.658   7.358
 5259POPC   NC368027  28.357  18.790   5.556
 5259POPC   PO468028  28.242  19.207   5.044
 5259POPC   GL168029  28.320  19.318   5.529
 5259POPC   GL268030  28.665  19.313   5.679
 5259POPC   C1A68031  28.257  19.267   6.020
 5259POPC   D2A68032  28.400  18.961   6.371
 5259POPC   C3A68033  28.315  19.037   6.831
 5259POPC   C4A68034  28.331  18.946   7.273
 5259POPC   C1B68035  28.711  19.466   6.119
 5259POPC   C2B68036  28.542  19.424   6.517
 5259POPC   C3B68037  28.727  19.333   6.888
 5259POPC   C4B68038  28.465  19.480   7.186
 5260POPC   NC368039  28.428   7.799   5.468
 5260POPC   PO468040  28.288   7.136   5.474
 5260POPC   GL168041  28.359   7.417   5.833
 5260POPC   GL268042  28.017   7.543   5.918
 5260POPC   C1A68043  28.403   7.638   6.247
 5260POPC   D2A68044  28.450   7.386   6.632
 5260POPC   C3A68045  28.387   7.598   7.014
 5260POPC   C4A68046  28.449   7.685   7.476
 5260POPC   C1B68047  27.921   7.252   6.245
 5260POPC   C2B68048  28.012   7.123   6.688
 5260POPC   C3B68049  28.018   7.256   7.125
 5260POPC   C4B68050  27.907   7.108   7.534
 5261POPC   NC368051   2.735  28.332   5.288
 5261POPC   PO468052   2.775  28.957   5.173
 5261POPC   GL168053   2.761  28.676   5.648
 5261POPC   GL268054   2.853  28.265   5.771
 5261POPC   C1A68055   2.552  28.545   6.063
 5261POPC   D2A68056   2.649  28.672   6.498
 5261POPC   C3A68057   2.547  28.496   6.905
 5261POPC   C4A68058   2.858  28.651   7.175
 5261POPC   C1B68059   2.791  28.081   6.202
 5261POPC   C2B68060   2.822  28.137   6.650
 5261POPC   C3B68061   2.588  27.905   6.958
 5261POPC   C4B68062   2.277  27.970   7.290
 5262POPC   NC368063  40.373  20.128   5.438
 5262POPC   PO468064  40.135  19.478   5.285
 5262POPC   GL168065  40.196  19.682   5.709
 5262POPC   GL268066  40.087  20.020   5.846
 5262POPC   C1A68067  40.192  19.618   6.173
 5262POPC   D2A68068  40.388  19.607   6.606
 5262POPC   C3A68069  40.076  19.753   6.938
 5262POPC   C4A68070  39.985  19.748   7.412
 5262POPC   C1B68071  39.845  20.040   6.244
 5262POPC   C2B68072  39.810  20.250   6.629
 5262POPC   C3B68073  39.768  20.128   7.060
 5262POPC   C4B68074  40.137  20.205   7.259
 5263POPC   NC368075  44.034  43.809   5.488
 5263POPC   PO468076  43.317  43.636   5.506
 5263POPC   GL168077  43.608  43.860   5.792
 5263POPC   GL268078  43.851  43.615   5.938
 5263POPC   C1A68079  43.853  44.097   6.118
 5263POPC   D2A68080  43.850  43.907   6.543
 5263POPC   C3A68081  43.574  43.966   6.901
 5263POPC   C4A68082  43.680  44.060   7.357
 5263POPC   C1B68083  44.199  43.676   6.247
 5263POPC   C2B68084  44.207  43.545   6.705
 5263POPC   C3B68085  44.275  43.612   7.142
 5263POPC   C4B68086  43.955  43.588   7.462
 5264POPC   NC368087   4.218  21.237   5.208
 5264POPC   PO468088   3.994  21.843   5.502
 5264POPC   GL168089   3.965  21.401   5.692
 5264POPC   GL268090   4.314  21.303   5.709
 5264POPC   C1A68091   4.010  21.148   6.102
 5264POPC   D2A68092   3.912  21.068   6.560
 5264POPC   C3A68093   4.226  21.018   6.889
 5264POPC   C4A68094   4.280  21.122   7.325
 5264POPC   C1B68095   4.414  21.510   6.115
 5264POPC   C2B68096   4.388  21.346   6.536
 5264POPC   C3B68097   4.329  21.516   6.961
 5264POPC   C4B68098   4.556  21.554   7.339
 5265POPC   NC368099  28.041  43.586   5.487
 5265POPC   PO468100  27.931  44.253   5.410
 5265POPC   GL168101  27.715  44.233   5.778
 5265POPC   GL268102  27.672  43.876   5.826
 5265POPC   C1A68103  27.516  44.223   6.177
 5265POPC   D2A68104  27.678  44.017   6.542
 5265POPC   C3A68105  27.418  44.095   6.872
 5265POPC   C4A68106  27.361  44.386   7.173
 5265POPC   C1B68107  27.452  43.697   6.210
 5265POPC   C2B68108  27.447  43.589   6.695
 5265POPC   C3B68109  27.506  43.680   7.151
 5265POPC   C4B68110  27.601  43.560   7.574
 5266POPC   NC368111  30.809   6.763   5.468
 5266POPC   PO468112  30.861   6.063   5.356
 5266POPC   GL168113  30.864   6.324   5.749
 5266POPC   GL268114  30.537   6.474   5.791
 5266POPC   C1A68115  30.868   6.535   6.178
 5266POPC   D2A68116  31.015   6.791   6.528
 5266POPC   C3A68117  30.968   6.630   6.946
 5266POPC   C4A68118  30.697   6.721   7.264
 5266POPC   C1B68119  30.363   6.594   6.182
 5266POPC   C2B68120  30.514   6.662   6.603
 5266POPC   C3B68121  30.278   6.730   6.983
 5266POPC   C4B68122  30.208   7.026   7.242
 5267POPC   NC368123   6.298  16.953   5.373
 5267POPC   PO468124   5.834  16.477   5.454
 5267POPC   GL168125   5.959  16.659   5.864
 5267POPC   GL268126   6.095  16.964   5.830
 5267POPC   C1A68127   5.949  16.708   6.344
 5267POPC   D2A68128   6.128  16.612   6.771
 5267POPC   C3A68129   5.826  16.467   7.142
 5267POPC   C4A68130   5.581  16.378   7.575
 5267POPC   C1B68131   6.063  17.184   6.157
 5267POPC   C2B68132   6.281  17.249   6.497
 5267POPC   C3B68133   6.324  17.183   6.908
 5267POPC   C4B68134   6.128  16.904   7.205
 5268POPC   NC368135  18.045  40.562   5.030
 5268POPC   PO468136  18.375  40.046   5.425
 5268POPC   GL168137  18.435  40.014   5.820
 5268POPC   GL268138  18.440  40.360   5.909
 5268POPC   C1A68139  18.328  39.842   6.187
 5268POPC   D2A68140  18.216  40.031   6.540
 5268POPC   C3A68141  18.253  39.891   6.931
 5268POPC   C4A68142  18.188  39.931   7.321
 5268POPC   C1B68143  18.631  40.249   6.311
 5268POPC   C2B68144  18.616  40.241   6.759
 5268POPC   C3B68145  18.466  40.324   7.140
 5268POPC   C4B68146  18.698  40.329   7.539
 5269POPC   NC368147  22.573  14.492   5.410
 5269POPC   PO468148  21.850  14.415   5.341
 5269POPC   GL168149  22.105  14.311   5.710
 5269POPC   GL268150  22.274  14.629   5.775
 5269POPC   C1A68151  22.036  14.294   6.189
 5269POPC   D2A68152  22.046  14.112   6.645
 5269POPC   C3A68153  22.119  14.313   7.108
 5269POPC   C4A68154  22.369  14.372   7.537
 5269POPC   C1B68155  22.421  14.630   6.165
 5269POPC   C2B68156  22.330  14.533   6.557
 5269POPC   C3B68157  22.451  14.668   6.918
 5269POPC   C4B68158  22.247  14.797   7.253
 5270POPC   NC368159  24.496  13.844   5.374
 5270POPC   PO468160  24.286  13.272   5.638
 5270POPC   GL168161  24.508  13.606   5.848
 5270POPC   GL268162  24.369  13.963   5.874
 5270POPC   C1A68163  24.397  13.630   6.258
 5270POPC   D2A68164  24.542  13.637   6.654
 5270POPC   C3A68165  24.298  13.458   6.967
 5270POPC   C4A68166  24.529  13.494   7.295
 5270POPC   C1B68167  24.600  14.093   6.258
 5270POPC   C2B68168  24.370  14.113   6.655
 5270POPC   C3B68169  24.468  13.973   7.078
 5270POPC   C4B68170  24.345  14.200   7.437
 5271POPC   NC368171   1.142  27.476   5.382
 5271POPC   PO468172   1.621  27.981   5.421
 5271POPC   GL168173   1.353  27.745   5.803
 5271POPC   GL268174   1.275  27.373   5.864
 5271POPC   C1A68175   1.360  27.605   6.291
 5271POPC   D2A68176   1.107  27.478   6.652
 5271POPC   C3A68177   1.173  27.597   7.095
 5271POPC   C4A68178   1.191  27.289   7.477
 5271POPC   C1B68179   0.907  27.401   6.180
 5271POPC   C2B68180   0.627  27.215   6.501
 5271POPC   C3B68181   0.534  27.117   6.937
 5271POPC   C4B68182   0.287  27.240   7.324
 5272POPC   NC368183  31.376  10.224   5.437
 5272POPC   PO468184  31.335  10.907   5.519
 5272POPC   GL168185  31.363  10.609   5.790
 5272POPC   GL268186  31.727  10.544   5.721
 5272POPC   C1A68187  31.202  10.587   6.227
 5272POPC   D2A68188  31.262  10.798   6.600
 5272POPC   C3A68189  31.284  10.685   6.994
 5272POPC   C4A68190  31.331  10.486   7.380
 5272POPC   C1B68191  31.637  10.372   6.128
 5272POPC   C2B68192  31.493  10.318   6.585
 5272POPC   C3B68193  31.593  10.278   7.002
 5272POPC   C4B68194  31.657  10.085   7.423
 5273POPC   NC368195  35.517  40.717   5.304
 5273POPC   PO468196  34.941  40.837   5.285
 5273POPC   GL168197  35.204  40.850   5.686
 5273POPC   GL268198  35.112  41.160   5.816
 5273POPC   C1A68199  35.430  40.857   6.107
 5273POPC   D2A68200  35.329  40.906   6.557
 5273POPC   C3A68201  35.342  40.560   6.873
 5273POPC   C4A68202  35.650  40.529   7.196
 5273POPC   C1B68203  35.106  41.282   6.260
 5273POPC   C2B68204  34.867  41.113   6.623
 5273POPC   C3B68205  35.069  40.979   6.992
 5273POPC   C4B68206  35.535  41.010   7.066
 5274POPC   NC368207  12.022  13.933   5.324
 5274POPC   PO468208  12.237  13.318   5.365
 5274POPC   GL168209  11.952  13.517   5.714
 5274POPC   GL268210  11.857  13.868   5.781
 5274POPC   C1A68211  11.760  13.479   6.136
 5274POPC   D2A68212  11.959  13.569   6.543
 5274POPC   C3A68213  11.813  13.556   6.963
 5274POPC   C4A68214  12.021  13.429   7.339
 5274POPC   C1B68215  12.088  13.892   6.148
 5274POPC   C2B68216  12.031  14.074   6.545
 5274POPC   C3B68217  12.199  14.162   6.931
 5274POPC   C4B68218  12.222  13.900   7.282
 5275POPC   NC368219  14.835   5.909   5.305
 5275POPC   PO468220  15.489   5.691   5.234
 5275POPC   GL168221  15.395   5.729   5.680
 5275POPC   GL268222  15.034   5.795   5.780
 5275POPC   C1A68223  15.488   5.529   6.083
 5275POPC   D2A68224  15.305   5.474   6.505
 5275POPC   C3A68225  15.384   5.801   6.821
 5275POPC   C4A68226  15.214   5.875   7.231
 5275POPC   C1B68227  15.181   5.905   6.207
 5275POPC   C2B68228  15.181   6.197   6.542
 5275POPC   C3B68229  15.011   6.228   6.925
 5275POPC   C4B68230  14.792   6.140   7.307
 5276POPC   NC368231  33.883  26.194   5.463
 5276POPC   PO468232  34.206  25.514   5.550
 5276POPC   GL168233  34.089  25.894   5.848
 5276POPC   GL268234  33.715  25.996   5.900
 5276POPC   C1A68235  33.971  25.824   6.303
 5276POPC   D2A68236  33.786  25.941   6.680
 5276POPC   C3A68237  34.007  25.902   7.040
 5276POPC   C4A68238  34.044  26.220   7.301
 5276POPC   C1B68239  33.454  25.991   6.281
 5276POPC   C2B68240  33.293  25.841   6.680
 5276POPC   C3B68241  33.481  25.817   7.108
 5276POPC   C4B68242  33.378  26.018   7.515
 5277POPC   NC368243  24.077  34.597   5.182
 5277POPC   PO468244  24.729  34.397   5.302
 5277POPC   GL168245  24.593  34.639   5.669
 5277POPC   GL268246  24.510  34.319   5.843
 5277POPC   C1A68247  24.542  34.764   6.119
 5277POPC   D2A68248  24.712  34.665   6.548
 5277POPC   C3A68249  24.503  34.785   6.933
 5277POPC   C4A68250  24.514  34.854   7.355
 5277POPC   C1B68251  24.229  34.329   6.226
 5277POPC   C2B68252  24.310  34.091   6.618
 5277POPC   C3B68253  24.497  34.264   6.986
 5277POPC   C4B68254  24.175  34.476   7.190
 5278POPC   NC368255  22.370  38.970   5.455
 5278POPC   PO468256  21.743  39.067   5.169
 5278POPC   GL168257  21.950  39.234   5.625
 5278POPC   GL268258  22.021  38.921   5.837
 5278POPC   C1A68259  22.036  39.337   6.122
 5278POPC   D2A68260  22.011  39.087   6.558
 5278POPC   C3A68261  22.048  39.261   6.992
 5278POPC   C4A68262  22.072  39.637   7.213
 5278POPC   C1B68263  22.332  38.905   6.193
 5278POPC   C2B68264  22.471  38.827   6.657
 5278POPC   C3B68265  22.499  38.987   7.115
 5278POPC   C4B68266  22.591  38.773   7.536
 5279POPC   NC368267  14.586  34.019   5.418
 5279POPC   PO468268  14.707  33.478   5.463
 5279POPC   GL168269  14.467  33.703   5.809
 5279POPC   GL268270  14.120  33.594   5.901
 5279POPC   C1A68271  14.436  33.802   6.259
 5279POPC   D2A68272  14.508  33.630   6.658
 5279POPC   C3A68273  14.394  33.711   7.087
 5279POPC   C4A68274  14.671  33.664   7.441
 5279POPC   C1B68275  14.101  33.392   6.344
 5279POPC   C2B68276  14.041  33.440   6.814
 5279POPC   C3B68277  13.920  33.584   7.253
 5279POPC   C4B68278  14.080  33.674   7.706
 5280POPC   NC368279   2.532  19.063   5.634
 5280POPC   PO468280   2.692  19.592   5.187
 5280POPC   GL168281   2.961  19.333   5.565
 5280POPC   GL268282   3.023  18.930   5.656
 5280POPC   C1A68283   2.994  19.341   6.024
 5280POPC   D2A68284   2.967  19.518   6.451
 5280POPC   C3A68285   3.049  19.227   6.811
 5280POPC   C4A68286   2.801  19.201   7.192
 5280POPC   C1B68287   2.903  18.844   6.133
 5280POPC   C2B68288   2.679  19.065   6.493
 5280POPC   C3B68289   2.414  19.078   6.872
 5280POPC   C4B68290   2.461  18.789   7.217
 5281POPC   NC368291  12.634  13.609   5.440
 5281POPC   PO468292  13.158  13.249   5.544
 5281POPC   GL168293  13.028  13.563   5.871
 5281POPC   GL268294  12.833  13.881   5.830
 5281POPC   C1A68295  12.963  13.649   6.324
 5281POPC   D2A68296  13.095  13.483   6.730
 5281POPC   C3A68297  12.750  13.420   7.005
 5281POPC   C4A68298  12.534  13.262   7.382
 5281POPC   C1B68299  13.226  14.021   6.049
 5281POPC   C2B68300  13.324  14.001   6.504
 5281POPC   C3B68301  13.091  13.969   6.896
 5281POPC   C4B68302  12.756  13.861   7.241
 5282POPC   NC368303  13.498  40.228   5.445
 5282POPC   PO468304  14.049  40.419   5.370
 5282POPC   GL168305  13.890  40.255   5.822
 5282POPC   GL268306  13.644  39.959   5.866
 5282POPC   C1A68307  13.746  40.231   6.300
 5282POPC   D2A68308  13.587  40.450   6.710
 5282POPC   C3A68309  13.693  40.275   7.127
 5282POPC   C4A68310  13.569  40.318   7.583
 5282POPC   C1B68311  13.357  39.886   6.244
 5282POPC   C2B68312  13.324  40.006   6.713
 5282POPC   C3B68313  13.200  40.144   7.161
 5282POPC   C4B68314  13.117  40.039   7.611
 5283POPC   NC368315  39.210  33.216   5.407
 5283POPC   PO468316  38.728  32.654   5.473
 5283POPC   GL168317  39.065  32.707   5.815
 5283POPC   GL268318  39.429  32.830   5.833
 5283POPC   C1A68319  39.087  33.011   6.164
 5283POPC   D2A68320  38.867  33.043   6.548
 5283POPC   C3A68321  39.118  33.003   6.922
 5283POPC   C4A68322  39.091  33.085   7.350
 5283POPC   C1B68323  39.543  32.877   6.320
 5283POPC   C2B68324  39.530  33.166   6.669
 5283POPC   C3B68325  39.547  33.173   7.135
 5283POPC   C4B68326  39.489  32.769   7.423
 5284POPC   NC368327  27.643  22.465   5.258
 5284POPC   PO468328  27.342  21.851   5.431
 5284POPC   GL168329  27.500  21.955   5.844
 5284POPC   GL268330  27.703  22.256   5.771
 5284POPC   C1A68331  27.481  22.060   6.313
 5284POPC   D2A68332  27.409  22.376   6.616
 5284POPC   C3A68333  27.335  22.160   6.980
 5284POPC   C4A68334  27.554  21.818   7.076
 5284POPC   C1B68335  27.851  22.366   6.207
 5284POPC   C2B68336  27.891  22.209   6.635
 5284POPC   C3B68337  27.808  22.376   7.041
 5284POPC   C4B68338  28.015  22.504   7.466
 5285POPC   NC368339   5.806  12.566   5.402
 5285POPC   PO468340   5.659  13.140   5.146
 5285POPC   GL168341   5.913  13.062   5.689
 5285POPC   GL268342   6.095  12.678   5.812
 5285POPC   C1A68343   6.013  13.010   6.170
 5285POPC   D2A68344   6.164  13.067   6.619
 5285POPC   C3A68345   5.862  12.883   6.959
 5285POPC   C4A68346   5.487  12.665   7.192
 5285POPC   C1B68347   6.118  12.482   6.284
 5285POPC   C2B68348   6.065  12.403   6.758
 5285POPC   C3B68349   5.965  12.424   7.218
 5285POPC   C4B68350   6.186  12.446   7.625
 5286POPC   NC368351   0.982  22.066   5.106
 5286POPC   PO468352   1.476  22.281   5.480
 5286POPC   GL168353   1.224  21.982   5.812
 5286POPC   GL268354   1.193  22.214   6.068
 5286POPC   C1A68355   1.060  21.773   6.248
 5286POPC   D2A68356   1.163  22.106   6.586
 5286POPC   C3A68357   1.169  22.244   7.024
 5286POPC   C4A68358   1.014  22.521   7.320
 5286POPC   C1B68359   1.529  21.924   6.257
 5286POPC   C2B68360   1.799  21.899   6.559
 5286POPC   C3B68361   1.628  22.054   6.894
 5286POPC   C4B68362   1.502  21.933   7.270
 5287POPC   NC368363  37.417  32.347   5.039
 5287POPC   PO468364  36.813  32.159   5.371
 5287POPC   GL168365  36.898  32.314   5.770
 5287POPC   GL268366  36.622  32.539   5.742
 5287POPC   C1A68367  36.932  32.200   6.209
 5287POPC   D2A68368  36.747  32.053   6.596
 5287POPC   C3A68369  37.067  32.055   6.892
 5287POPC   C4A68370  37.129  31.800   7.210
 5287POPC   C1B68371  36.454  32.408   6.145
 5287POPC   C2B68372  36.554  32.523   6.558
 5287POPC   C3B68373  36.614  32.570   6.995
 5287POPC   C4B68374  36.988  32.458   7.194
 5288POPC   NC368375  14.601  23.065   5.161
 5288POPC   PO468376  14.046  22.858   5.516
 5288POPC   GL168377  14.088  22.967   5.920
 5288POPC   GL268378  14.444  23.006   5.949
 5288POPC   C1A68379  14.148  22.854   6.351
 5288POPC   D2A68380  14.518  22.934   6.582
 5288POPC   C3A68381  14.403  23.027   6.987
 5288POPC   C4A68382  14.201  22.952   7.393
 5288POPC   C1B68383  14.690  23.248   6.198
 5288POPC   C2B68384  14.756  23.398   6.605
 5288POPC   C3B68385  14.834  23.290   7.055
 5288POPC   C4B68386  14.719  23.006   7.415
 5289POPC   NC368387  16.462  40.260   5.400
 5289POPC   PO468388  17.112  39.983   5.439
 5289POPC   GL168389  16.824  40.204   5.752
 5289POPC   GL268390  16.544  40.014   5.873
 5289POPC   C1A68391  16.895  40.327   6.169
 5289POPC   D2A68392  16.815  40.052   6.511
 5289POPC   C3A68393  16.798  40.235   6.908
 5289POPC   C4A68394  16.932  40.171   7.322
 5289POPC   C1B68395  16.307  40.053   6.283
 5289POPC   C2B68396  16.361  39.979   6.753
 5289POPC   C3B68397  16.511  39.890   7.190
 5289POPC   C4B68398  16.543  40.047   7.628
 5290POPC   NC368399   2.875  40.265   5.459
 5290POPC   PO468400   3.030  39.700   5.234
 5290POPC   GL168401   2.933  39.787   5.711
 5290POPC   GL268402   2.868  40.062   5.925
 5290POPC   C1A68403   2.978  39.602   6.158
 5290POPC   D2A68404   2.869  39.421   6.589
 5290POPC   C3A68405   2.803  39.726   6.894
 5290POPC   C4A68406   2.914  40.032   7.182
 5290POPC   C1B68407   3.121  40.117   6.295
 5290POPC   C2B68408   2.949  40.190   6.689
 5290POPC   C3B68409   2.721  40.469   6.941
 5290POPC   C4B68410   2.901  40.781   7.163
 5291POPC   NC368411  36.351  32.163   5.477
 5291POPC   PO468412  35.942  32.650   5.351
 5291POPC   GL168413  35.866  32.479   5.752
 5291POPC   GL268414  36.130  32.690   5.837
 5291POPC   C1A68415  35.965  32.209   6.146
 5291POPC   D2A68416  36.077  31.956   6.549
 5291POPC   C3A68417  36.088  32.109   6.991
 5291POPC   C4A68418  35.895  31.998   7.430
 5291POPC   C1B68419  35.982  32.717   6.231
 5291POPC   C2B68420  36.028  32.489   6.600
 5291POPC   C3B68421  36.099  32.636   6.999
 5291POPC   C4B68422  36.167  32.431   7.389
 5292POPC   NC368423  18.300  38.700   5.093
 5292POPC   PO468424  18.256  38.405   5.671
 5292POPC   GL168425  18.363  38.541   5.973
 5292POPC   GL268426  18.521  38.846   5.861
 5292POPC   C1A68427  18.303  38.277   6.303
 5292POPC   D2A68428  17.982  38.229   6.607
 5292POPC   C3A68429  18.184  38.318   6.962
 5292POPC   C4A68430  18.606  38.259   7.119
 5292POPC   C1B68431  18.258  38.942   6.238
 5292POPC   C2B68432  18.292  38.684   6.601
 5292POPC   C3B68433  18.465  38.751   6.995
 5292POPC   C4B68434  18.162  39.020   7.160
 5293POPC   NC368435  38.466  28.909   5.464
 5293POPC   PO468436  39.100  29.232   5.463
 5293POPC   GL168437  38.713  29.215   5.771
 5293POPC   GL268438  38.471  29.473   5.832
 5293POPC   C1A68439  38.578  28.937   6.136
 5293POPC   D2A68440  38.261  29.002   6.446
 5293POPC   C3A68441  38.303  29.085   6.845
 5293POPC   C4A68442  38.508  28.925   7.184
 5293POPC   C1B68443  38.557  29.436   6.283
 5293POPC   C2B68444  38.591  29.556   6.724
 5293POPC   C3B68445  38.495  29.454   7.135
 5293POPC   C4B68446  38.850  29.327   7.279
 5294POPC   NC368447  18.095  40.419   5.521
 5294POPC   PO468448  18.497  40.937   5.360
 5294POPC   GL168449  18.283  40.859   5.771
 5294POPC   GL268450  17.975  40.687   5.920
 5294POPC   C1A68451  18.313  40.924   6.232
 5294POPC   D2A68452  18.517  40.706   6.560
 5294POPC   C3A68453  18.392  40.847   6.955
 5294POPC   C4A68454  18.598  40.783   7.309
 5294POPC   C1B68455  18.106  40.462   6.303
 5294POPC   C2B68456  18.089  40.450   6.772
 5294POPC   C3B68457  17.970  40.600   7.173
 5294POPC   C4B68458  18.131  40.858   7.487
 5295POPC   NC368459  12.900  44.323   5.250
 5295POPC   PO468460  13.023  43.642   5.415
 5295POPC   GL168461  13.064  43.742   5.864
 5295POPC   GL268462  13.071  44.105   5.868
 5295POPC   C1A68463  12.883  43.838   6.300
 5295POPC   D2A68464  12.553  44.036   6.563
 5295POPC   C3A68465  12.592  44.000   7.003
 5295POPC   C4A68466  12.972  44.080   7.251
 5295POPC   C1B68467  13.286  44.262   6.237
 5295POPC   C2B68468  13.120  44.197   6.622
 5295POPC   C3B68469  13.107  43.807   6.829
 5295POPC   C4B68470  13.326  43.732   7.230
 5296POPC   NC368471   9.171  35.257   5.217
 5296POPC   PO468472   8.543  35.469   5.255
 5296POPC   GL168473   8.805  35.438   5.639
 5296POPC   GL268474   9.065  35.197   5.731
 5296POPC   C1A68475   8.759  35.540   6.091
 5296POPC   D2A68476   8.995  35.724   6.405
 5296POPC   C3A68477   8.908  35.628   6.818
 5296POPC   C4A68478   8.827  35.457   7.205
 5296POPC   C1B68479   9.134  35.208   6.180
 5296POPC   C2B68480   9.287  35.316   6.571
 5296POPC   C3B68481   9.206  35.182   6.973
 5296POPC   C4B68482   9.440  34.948   7.253
 5297POPC   NC368483  27.552  16.140   5.339
 5297POPC   PO468484  28.017  15.634   5.451
 5297POPC   GL168485  27.816  15.965   5.754
 5297POPC   GL268486  27.432  15.990   5.820
 5297POPC   C1A68487  27.749  16.214   6.165
 5297POPC   D2A68488  27.516  16.077   6.564
 5297POPC   C3A68489  27.541  16.186   6.994
 5297POPC   C4A68490  27.924  16.163   7.210
 5297POPC   C1B68491  27.570  15.725   6.174
 5297POPC   C2B68492  27.402  15.565   6.587
 5297POPC   C3B68493  27.529  15.663   7.021
 5297POPC   C4B68494  27.693  15.778   7.438
 5298POPC   NC368495  43.714   0.697   5.070
 5298POPC   PO468496  43.694   0.158   5.426
 5298POPC   GL168497  43.784   0.329   5.786
 5298POPC   GL268498  43.876   0.661   5.682
 5298POPC   C1A68499  43.801   0.201   6.214
 5298POPC   D2A68500  43.733   0.344   6.642
 5298POPC   C3A68501  43.763   0.250   7.081
 5298POPC   C4A68502  43.858   0.537   7.398
 5298POPC   C1B68503  43.864   0.776   6.145
 5298POPC   C2B68504  44.042   0.909   6.539
 5298POPC   C3B68505  43.996   0.753   6.936
 5298POPC   C4B68506  44.212   0.887   7.287
 5299POPC   NC368507  17.054  19.174   4.966
 5299POPC   PO468508  16.950  18.806   5.500
 5299POPC   GL168509  16.860  18.963   5.875
 5299POPC   GL268510  16.497  18.902   5.916
 5299POPC   C1A68511  16.706  19.318   6.142
 5299POPC   D2A68512  16.708  19.558   6.520
 5299POPC   C3A68513  16.808  19.434   6.892
 5299POPC   C4A68514  16.631  19.234   7.205
 5299POPC   C1B68515  16.712  18.836   6.339
 5299POPC   C2B68516  16.855  18.935   6.740
 5299POPC   C3B68517  16.775  18.762   7.142
 5299POPC   C4B68518  16.784  18.921   7.577
 5300POPC   NC368519  37.006  21.748   5.298
 5300POPC   PO468520  36.478  22.251   5.424
 5300POPC   GL168521  36.722  22.246   5.832
 5300POPC   GL268522  36.972  21.966   5.804
 5300POPC   C1A68523  36.720  22.086   6.301
 5300POPC   D2A68524  36.686  22.296   6.704
 5300POPC   C3A68525  36.868  22.164   7.113
 5300POPC   C4A68526  36.799  22.222   7.580
 5300POPC   C1B68527  37.155  22.242   6.135
 5300POPC   C2B68528  37.169  22.339   6.551
 5300POPC   C3B68529  37.357  22.161   6.907
 5300POPC   C4B68530  37.301  21.875   7.238
 5301POPC   NC368531  37.692  28.013   5.431
 5301POPC   PO468532  37.684  27.349   5.607
 5301POPC   GL168533  37.901  27.480   5.912
 5301POPC   GL268534  37.921  27.833   5.862
 5301POPC   C1A68535  37.874  27.573   6.342
 5301POPC   D2A68536  37.730  27.926   6.589
 5301POPC   C3A68537  37.501  27.707   6.884
 5301POPC   C4A68538  37.732  27.373   7.102
 5301POPC   C1B68539  38.246  27.867   6.147
 5301POPC   C2B68540  38.284  28.045   6.551
 5301POPC   C3B68541  38.190  27.978   6.968
 5301POPC   C4B68542  37.860  27.848   7.198
 5302POPC   NC368543  34.041  27.283   5.480
 5302POPC   PO468544  33.725  26.654   5.512
 5302POPC   GL168545  34.119  26.768   5.727
 5302POPC   GL268546  34.301  26.487   5.887
 5302POPC   C1A68547  34.116  26.881   6.175
 5302POPC   D2A68548  34.117  26.691   6.604
 5302POPC   C3A68549  33.835  26.936   6.908
 5302POPC   C4A68550  33.652  26.981   7.315
 5302POPC   C1B68551  33.951  26.364   6.174
 5302POPC   C2B68552  33.650  26.420   6.519
 5302POPC   C3B68553  33.720  26.402   6.954
 5302POPC   C4B68554  33.544  26.468   7.357
 5303POPC   NC368555  12.751  21.130   5.298
 5303POPC   PO468556  13.132  21.701   5.277
 5303POPC   GL168557  12.864  21.506   5.658
 5303POPC   GL268558  12.942  21.580   6.006
 5303POPC   C1A68559  12.541  21.287   5.999
 5303POPC   D2A68560  12.600  21.194   6.493
 5303POPC   C3A68561  12.794  21.141   6.976
 5303POPC   C4A68562  12.850  20.974   7.444
 5303POPC   C1B68563  12.622  21.717   6.299
 5303POPC   C2B68564  12.710  21.884   6.680
 5303POPC   C3B68565  12.939  21.641   6.964
 5303POPC   C4B68566  12.991  21.443   7.371
 5304POPC   NC368567  26.266  17.661   5.389
 5304POPC   PO468568  25.969  18.312   5.527
 5304POPC   GL168569  26.231  18.233   5.869
 5304POPC   GL268570  26.173  17.860   5.868
 5304POPC   C1A68571  26.169  18.255   6.316
 5304POPC   D2A68572  25.777  18.150   6.566
 5304POPC   C3A68573  25.907  18.213   6.992
 5304POPC   C4A68574  26.310  18.475   7.075
 5304POPC   C1B68575  26.071  17.758   6.295
 5304POPC   C2B68576  26.208  17.900   6.707
 5304POPC   C3B68577  26.109  17.734   7.098
 5304POPC   C4B68578  26.265  17.653   7.515
 5305POPC   NC368579   4.238  10.650   5.129
 5305POPC   PO468580   4.768  10.262   5.437
 5305POPC   GL168581   4.403  10.318   5.719
 5305POPC   GL268582   4.302  10.653   5.665
 5305POPC   C1A68583   4.230  10.229   6.150
 5305POPC   D2A68584   4.112  10.394   6.544
 5305POPC   C3A68585   4.235  10.234   6.966
 5305POPC   C4A68586   4.166  10.341   7.385
 5305POPC   C1B68587   4.148  10.763   6.078
 5305POPC   C2B68588   4.205  10.893   6.509
 5305POPC   C3B68589   4.138  10.745   6.917
 5305POPC   C4B68590   3.915  10.768   7.280
 5306POPC   NC368591  36.436   2.700   5.554
 5306POPC   PO468592  37.047   2.641   5.255
 5306POPC   GL168593  36.934   2.785   5.732
 5306POPC   GL268594  36.631   2.898   5.968
 5306POPC   C1A68595  37.054   2.728   6.209
 5306POPC   D2A68596  37.079   2.392   6.582
 5306POPC   C3A68597  37.070   2.609   7.015
 5306POPC   C4A68598  36.993   2.825   7.414
 5306POPC   C1B68599  36.747   3.115   6.342
 5306POPC   C2B68600  36.790   2.948   6.755
 5306POPC   C3B68601  36.610   3.018   7.170
 5306POPC   C4B68602  36.654   3.131   7.687
 5307POPC   NC368603  37.017  39.158   5.453
 5307POPC   PO468604  36.483  38.854   5.462
 5307POPC   GL168605  36.489  39.014   5.882
 5307POPC   GL268606  36.650  39.315   5.866
 5307POPC   C1A68607  36.776  39.019   6.251
 5307POPC   D2A68608  36.867  38.787   6.609
 5307POPC   C3A68609  37.047  38.964   6.939
 5307POPC   C4A68610  37.000  39.315   7.215
 5307POPC   C1B68611  36.937  39.522   6.155
 5307POPC   C2B68612  36.976  39.408   6.591
 5307POPC   C3B68613  36.717  39.597   6.905
 5307POPC   C4B68614  36.488  39.519   7.270
 5308POPC   NC368615   3.719   9.936   5.340
 5308POPC   PO468616   3.064   9.694   5.308
 5308POPC   GL168617   3.371   9.608   5.672
 5308POPC   GL268618   3.653   9.438   5.552
 5308POPC   C1A68619   3.531   9.849   6.059
 5308POPC   D2A68620   3.691  10.060   6.453
 5308POPC   C3A68621   3.676   9.940   6.909
 5308POPC   C4A68622   3.860   9.934   7.341
 5308POPC   C1B68623   3.694   9.359   6.012
 5308POPC   C2B68624   3.564   9.488   6.442
 5308POPC   C3B68625   3.726   9.435   6.852
 5308POPC   C4B68626   3.811   9.438   7.285
 5309POPC   NC368627  14.805  43.286   5.494
 5309POPC   PO468628  15.492  43.185   5.548
 5309POPC   GL168629  15.168  43.212   5.841
 5309POPC   GL268630  14.946  42.934   5.841
 5309POPC   C1A68631  15.037  43.264   6.269
 5309POPC   D2A68632  15.291  43.132   6.604
 5309POPC   C3A68633  15.189  43.274   7.008
 5309POPC   C4A68634  15.207  43.039   7.411
 5309POPC   C1B68635  14.743  42.836   6.224
 5309POPC   C2B68636  14.822  42.911   6.648
 5309POPC   C3B68637  14.901  42.822   7.086
 5309POPC   C4B68638  14.713  42.957   7.506
 5310POPC   NC368639  39.031  43.660   5.531
 5310POPC   PO468640  39.666  43.984   5.418
 5310POPC   GL168641  39.482  43.763   5.810
 5310POPC   GL268642  39.134  43.826   6.006
 5310POPC   C1A68643  39.445  43.494   6.205
 5310POPC   D2A68644  39.154  43.633   6.551
 5310POPC   C3A68645  39.264  43.800   6.958
 5310POPC   C4A68646  39.095  43.921   7.339
 5310POPC   C1B68647  39.445  44.015   6.333
 5310POPC   C2B68648  39.504  44.225   6.766
 5310POPC   C3B68649  39.542  44.172   7.243
 5310POPC   C4B68650  39.556  44.250   7.734
 5311POPC   NC368651  35.237  23.871   5.369
 5311POPC   PO468652  35.814  23.745   5.488
 5311POPC   GL168653  35.477  23.892   5.822
 5311POPC   GL268654  35.152  23.682   5.831
 5311POPC   C1A68655  35.259  23.929   6.250
 5311POPC   D2A68656  35.312  23.992   6.714
 5311POPC   C3A68657  35.403  23.679   7.025
 5311POPC   C4A68658  35.605  23.302   7.188
 5311POPC   C1B68659  35.026  23.485   6.234
 5311POPC   C2B68660  35.088  23.460   6.673
 5311POPC   C3B68661  34.865  23.603   7.029
 5311POPC   C4B68662  35.020  23.410   7.381
 5312POPC   NC368663  37.286  25.129   5.295
 5312POPC   PO468664  37.866  25.287   5.481
 5312POPC   GL168665  37.513  25.239   5.742
 5312POPC   GL268666  37.482  25.593   5.746
 5312POPC   C1A68667  37.420  25.127   6.178
 5312POPC   D2A68668  37.729  25.027   6.523
 5312POPC   C3A68669  37.573  25.013   6.952
 5312POPC   C4A68670  37.779  25.148   7.334
 5312POPC   C1B68671  37.758  25.494   6.118
 5312POPC   C2B68672  37.818  25.570   6.535
 5312POPC   C3B68673  37.830  25.479   6.964
 5312POPC   C4B68674  37.993  25.617   7.381
 5313POPC   NC368675  16.033  29.350   5.403
 5313POPC   PO468676  15.702  28.795   5.543
 5313POPC   GL168677  15.888  29.109   5.849
 5313POPC   GL268678  15.807  29.464   5.914
 5313POPC   C1A68679  16.221  29.300   6.155
 5313POPC   D2A68680  16.446  29.247   6.559
 5313POPC   C3A68681  16.151  29.230   6.895
 5313POPC   C4A68682  15.954  28.947   7.144
 5313POPC   C1B68683  15.734  29.259   6.317
 5313POPC   C2B68684  15.665  29.151   6.745
 5313POPC   C3B68685  15.699  29.426   7.110
 5313POPC   C4B68686  15.658  29.372   7.577
 5314POPC   NC368687  39.821  40.286   5.011
 5314POPC   PO468688  39.673  40.630   5.605
 5314POPC   GL168689  40.000  40.836   5.840
 5314POPC   GL268690  40.277  40.601   5.917
 5314POPC   C1A68691  40.124  40.934   6.273
 5314POPC   D2A68692  40.187  40.784   6.703
 5314POPC   C3A68693  39.983  41.005   7.034
 5314POPC   C4A68694  39.867  40.865   7.457
 5314POPC   C1B68695  39.988  40.441   6.256
 5314POPC   C2B68696  39.856  40.370   6.686
 5314POPC   C3B68697  39.929  40.453   7.119
 5314POPC   C4B68698  40.066  40.413   7.567
 5315POPC   NC368699  27.862  36.371   5.428
 5315POPC   PO468700  27.504  35.812   5.343
 5315POPC   GL168701  27.563  36.075   5.742
 5315POPC   GL268702  27.318  36.336   5.774
 5315POPC   C1A68703  27.800  36.026   6.161
 5315POPC   D2A68704  27.930  36.034   6.618
 5315POPC   C3A68705  27.759  35.842   6.992
 5315POPC   C4A68706  27.379  36.015   7.187
 5315POPC   C1B68707  27.468  36.417   6.163
 5315POPC   C2B68708  27.463  36.238   6.546
 5315POPC   C3B68709  27.475  36.452   6.910
 5315POPC   C4B68710  27.551  36.690   7.285
 5316POPC   NC368711  28.358  25.744   5.440
 5316POPC   PO468712  28.022  25.133   5.555
 5316POPC   GL168713  28.351  25.227   5.867
 5316POPC   GL268714  28.551  25.522   5.856
 5316POPC   C1A68715  28.385  25.012   6.268
 5316POPC   D2A68716  28.369  24.756   6.637
 5316POPC   C3A68717  28.319  24.953   7.045
 5316POPC   C4A68718  28.215  25.169   7.430
 5316POPC   C1B68719  28.596  25.493   6.294
 5316POPC   C2B68720  28.561  25.276   6.685
 5316POPC   C3B68721  28.655  25.315   7.113
 5316POPC   C4B68722  28.692  25.638   7.401
 5317POPC   NC368723  42.494  26.549   5.419
 5317POPC   PO468724  42.116  27.115   5.312
 5317POPC   GL168725  42.336  27.130   5.718
 5317POPC   GL268726  42.065  27.250   5.913
 5317POPC   C1A68727  42.489  26.870   6.081
 5317POPC   D2A68728  42.266  26.576   6.404
 5317POPC   C3A68729  42.332  26.572   6.886
 5317POPC   C4A68730  42.211  26.790   7.256
 5317POPC   C1B68731  42.108  27.066   6.346
 5317POPC   C2B68732  42.499  26.994   6.609
 5317POPC   C3B68733  42.506  27.160   7.017
 5317POPC   C4B68734  42.175  27.408   7.177
 5318POPC   NC368735  43.421  25.559   5.465
 5318POPC   PO468736  43.104  24.942   5.446
 5318POPC   GL168737  43.260  25.104   5.850
 5318POPC   GL268738  43.152  25.453   5.877
 5318POPC   C1A68739  43.144  25.207   6.312
 5318POPC   D2A68740  43.014  25.584   6.578
 5318POPC   C3A68741  42.723  25.517   6.922
 5318POPC   C4A68742  42.792  25.268   7.273
 5318POPC   C1B68743  43.356  25.753   6.131
 5318POPC   C2B68744  43.484  25.819   6.557
 5318POPC   C3B68745  43.556  25.677   6.962
 5318POPC   C4B68746  43.219  25.584   7.244
 5319POPC   NC368747  22.116  26.008   5.347
 5319POPC   PO468748  22.680  26.054   5.375
 5319POPC   GL168749  22.441  25.945   5.780
 5319POPC   GL268750  22.057  25.918   5.833
 5319POPC   C1A68751  22.362  25.861   6.245
 5319POPC   D2A68752  22.373  26.008   6.687
 5319POPC   C3A68753  22.430  25.928   7.147
 5319POPC   C4A68754  22.341  26.301   7.470
 5319POPC   C1B68755  21.952  26.195   6.177
 5319POPC   C2B68756  21.866  26.204   6.630
 5319POPC   C3B68757  21.954  25.981   7.010
 5319POPC   C4B68758  22.017  25.532   7.145
 5320POPC   NC368759   5.024  24.157   5.519
 5320POPC   PO468760   4.943  23.516   5.404
 5320POPC   GL168761   4.953  23.742   5.803
 5320POPC   GL268762   4.637  23.922   5.807
 5320POPC   C1A68763   5.142  23.879   6.199
 5320POPC   D2A68764   5.312  23.622   6.554
 5320POPC   C3A68765   5.238  23.705   7.015
 5320POPC   C4A68766   5.340  23.481   7.404
 5320POPC   C1B68767   4.624  23.850   6.252
 5320POPC   C2B68768   4.833  23.847   6.627
 5320POPC   C3B68769   4.720  23.774   7.022
 5320POPC   C4B68770   4.835  23.600   7.380
 5321POPC   NC368771   0.114  21.223   5.514
 5321POPC   PO468772  44.488  21.333   5.311
 5321POPC   GL168773  44.637  21.454   5.722
 5321POPC   GL268774  44.644  21.129   5.805
 5321POPC   C1A68775  44.787  21.455   6.183
 5321POPC   D2A68776  44.745  21.677   6.622
 5321POPC   C3A68777  44.803  21.401   7.000
 5321POPC   C4A68778  44.651  21.380   7.475
 5321POPC   C1B68779  44.392  21.087   6.179
 5321POPC   C2B68780  44.533  21.164   6.597
 5321POPC   C3B68781  44.364  21.140   7.023
 5321POPC   C4B68782  44.193  21.181   7.461
 5322POPC   NC368783  10.111  35.218   5.474
 5322POPC   PO468784   9.541  35.529   5.264
 5322POPC   GL168785   9.637  35.318   5.701
 5322POPC   GL268786   9.850  35.581   5.845
 5322POPC   C1A68787   9.684  35.246   6.183
 5322POPC   D2A68788   9.817  35.428   6.588
 5322POPC   C3A68789   9.985  35.096   6.851
 5322POPC   C4A68790   9.935  34.921   7.277
 5322POPC   C1B68791   9.454  35.684   6.152
 5322POPC   C2B68792   9.439  35.819   6.619
 5322POPC   C3B68793   9.317  35.762   7.076
 5322POPC   C4B68794   9.297  35.455   7.401
 5323POPC   NC368795  32.970  36.808   5.378
 5323POPC   PO468796  32.722  37.335   5.717
 5323POPC   GL168797  33.089  37.001   5.835
 5323POPC   GL268798  32.918  36.670   5.890
 5323POPC   C1A68799  33.350  36.690   6.149
 5323POPC   D2A68800  33.343  36.687   6.590
 5323POPC   C3A68801  33.249  37.085   6.789
 5323POPC   C4A68802  32.896  37.236   7.041
 5323POPC   C1B68803  32.932  36.919   6.317
 5323POPC   C2B68804  32.823  36.793   6.719
 5323POPC   C3B68805  32.782  36.648   7.144
 5323POPC   C4B68806  32.691  36.982   7.444
 5324POPC   NC368807   7.824  39.151   5.042
 5324POPC   PO468808   8.293  39.176   5.489
 5324POPC   GL168809   8.238  39.150   5.904
 5324POPC   GL268810   7.936  38.978   5.996
 5324POPC   C1A68811   8.250  39.174   6.340
 5324POPC   D2A68812   8.311  38.956   6.705
 5324POPC   C3A68813   8.403  39.300   6.951
 5324POPC   C4A68814   8.230  39.416   7.329
 5324POPC   C1B68815   7.753  39.269   6.237
 5324POPC   C2B68816   7.687  39.260   6.648
 5324POPC   C3B68817   7.895  39.163   7.005
 5324POPC   C4B68818   7.791  39.147   7.429
 5325POPC   NC368819  17.436   9.928   5.428
 5325POPC   PO468820  17.300   9.426   5.154
 5325POPC   GL168821  17.407   9.483   5.692
 5325POPC   GL268822  17.262   9.772   5.906
 5325POPC   C1A68823  17.674   9.579   6.107
 5325POPC   D2A68824  17.451   9.718   6.496
 5325POPC   C3A68825  17.584   9.735   6.923
 5325POPC   C4A68826  17.823   9.385   7.066
 5325POPC   C1B68827  17.070   9.985   6.283
 5325POPC   C2B68828  17.123  10.010   6.736
 5325POPC   C3B68829  17.098   9.812   7.149
 5325POPC   C4B68830  17.118  10.040   7.563
 5326POPC   NC368831  28.379  16.473   5.356
 5326POPC   PO468832  27.890  16.976   5.431
 5326POPC   GL168833  28.189  16.794   5.755
 5326POPC   GL268834  28.453  17.017   5.850
 5326POPC   C1A68835  28.241  16.464   6.082
 5326POPC   D2A68836  28.313  16.338   6.541
 5326POPC   C3A68837  28.119  16.577   6.883
 5326POPC   C4A68838  28.245  16.636   7.307
 5326POPC   C1B68839  28.396  16.948   6.257
 5326POPC   C2B68840  28.588  17.099   6.602
 5326POPC   C3B68841  28.510  16.920   6.978
 5326POPC   C4B68842  28.463  17.104   7.367
 5327POPC   NC368843   6.745  39.426   5.585
 5327POPC   PO468844   6.465  38.821   5.416
 5327POPC   GL168845   6.453  39.055   5.812
 5327POPC   GL268846   6.623  38.793   5.940
 5327POPC   C1A68847   6.665  39.275   6.213
 5327POPC   D2A68848   6.672  39.598   6.558
 5327POPC   C3A68849   6.693  39.435   6.985
 5327POPC   C4A68850   6.375  39.172   7.170
 5327POPC   C1B68851   6.383  38.865   6.339
 5327POPC   C2B68852   6.608  39.006   6.719
 5327POPC   C3B68853   6.788  38.880   7.136
 5327POPC   C4B68854   6.547  38.835   7.556
 5328POPC   NC368855   4.512  39.040   5.393
 5328POPC   PO468856   3.922  39.413   5.204
 5328POPC   GL168857   4.150  39.342   5.624
 5328POPC   GL268858   3.988  39.091   5.826
 5328POPC   C1A68859   4.357  39.444   6.046
 5328POPC   D2A68860   4.460  39.334   6.483
 5328POPC   C3A68861   4.134  39.187   6.746
 5328POPC   C4A68862   4.054  39.151   7.186
 5328POPC   C1B68863   4.298  38.951   6.146
 5328POPC   C2B68864   4.468  38.809   6.543
 5328POPC   C3B68865   4.478  38.887   6.975
 5328POPC   C4B68866   4.362  38.733   7.376
 5329POPC   NC368867  44.761  24.456   5.349
 5329POPC   PO468868   0.083  24.881   5.744
 5329POPC   GL168869  44.764  24.584   5.899
 5329POPC   GL268870  44.905  24.258   5.830
 5329POPC   C1A68871  44.403  24.531   6.222
 5329POPC   D2A68872  44.116  24.519   6.614
 5329POPC   C3A68873  44.391  24.528   7.005
 5329POPC   C4A68874  44.796  24.476   7.173
 5329POPC   C1B68875   0.059  24.317   6.241
 5329POPC   C2B68876  44.922  24.330   6.657
 5329POPC   C3B68877   0.126  24.150   6.981
 5329POPC   C4B68878  44.993  23.982   7.332
 5330POPC   NC368879   0.937  42.342   5.385
 5330POPC   PO468880   1.383  42.761   5.102
 5330POPC   GL168881   1.352  42.473   5.609
 5330POPC   GL268882   1.552  42.151   5.628
 5330POPC   C1A68883   1.195  42.331   6.034
 5330POPC   D2A68884   1.385  42.421   6.459
 5330POPC   C3A68885   1.113  42.470   6.830
 5330POPC   C4A68886   0.928  42.536   7.247
 5330POPC   C1B68887   1.649  42.118   6.077
 5330POPC   C2B68888   1.756  42.080   6.505
 5330POPC   C3B68889   1.515  42.058   6.850
 5330POPC   C4B68890   1.245  42.130   7.203
 5331POPC   NC368891  21.789  33.899   5.592
 5331POPC   PO468892  21.124  34.051   5.534
 5331POPC   GL168893  21.338  33.835   5.823
 5331POPC   GL268894  21.413  33.501   5.716
 5331POPC   C1A68895  21.485  33.922   6.216
 5331POPC   D2A68896  21.229  33.840   6.540
 5331POPC   C3A68897  21.479  33.969   6.833
 5331POPC   C4A68898  21.373  33.941   7.204
 5331POPC   C1B68899  21.402  33.423   6.185
 5331POPC   C2B68900  21.637  33.515   6.573
 5331POPC   C3B68901  21.483  33.480   6.996
 5331POPC   C4B68902  21.491  33.537   7.472
 5332POPC   NC368903  40.389  23.874   5.442
 5332POPC   PO468904  41.113  23.761   5.404
 5332POPC   GL168905  40.827  23.793   5.765
 5332POPC   GL268906  40.565  23.540   5.809
 5332POPC   C1A68907  40.713  23.886   6.200
 5332POPC   D2A68908  40.561  23.994   6.621
 5332POPC   C3A68909  40.757  23.792   7.028
 5332POPC   C4A68910  40.958  23.793   7.456
 5332POPC   C1B68911  40.757  23.365   6.150
 5332POPC   C2B68912  40.687  23.496   6.570
 5332POPC   C3B68913  40.697  23.279   6.946
 5332POPC   C4B68914  40.706  23.326   7.373
 5333POPC   NC368915  22.818   7.856   5.509
 5333POPC   PO468916  23.335   8.258   5.315
 5333POPC   GL168917  23.154   8.160   5.776
 5333POPC   GL268918  22.872   8.342   5.861
 5333POPC   C1A68919  23.111   8.240   6.277
 5333POPC   D2A68920  23.249   8.454   6.636
 5333POPC   C3A68921  23.192   8.374   7.043
 5333POPC   C4A68922  23.317   8.584   7.381
 5333POPC   C1B68923  22.665   8.046   6.127
 5333POPC   C2B68924  22.668   8.116   6.583
 5333POPC   C3B68925  22.809   8.042   7.006
 5333POPC   C4B68926  22.858   7.866   7.446
 5334POPC   NC368927  17.734  41.246   5.344
 5334POPC   PO468928  17.085  41.456   5.282
 5334POPC   GL168929  17.374  41.434   5.689
 5334POPC   GL268930  17.500  41.778   5.809
 5334POPC   C1A68931  17.469  41.399   6.173
 5334POPC   D2A68932  17.372  41.533   6.618
 5334POPC   C3A68933  17.609  41.474   7.046
 5334POPC   C4A68934  17.716  41.714   7.412
 5334POPC   C1B68935  17.619  41.885   6.253
 5334POPC   C2B68936  17.452  42.058   6.637
 5334POPC   C3B68937  17.379  41.940   7.055
 5334POPC   C4B68938  17.186  41.828   7.465
 5335POPC   NC368939  34.807  27.489   5.534
 5335POPC   PO468940  34.135  27.773   5.355
 5335POPC   GL168941  34.296  27.846   5.769
 5335POPC   GL268942  34.172  27.572   5.891
 5335POPC   C1A68943  34.394  27.895   6.233
 5335POPC   D2A68944  34.429  27.674   6.667
 5335POPC   C3A68945  34.695  27.587   7.038
 5335POPC   C4A68946  34.723  27.767   7.438
 5335POPC   C1B68947  34.301  27.377   6.255
 5335POPC   C2B68948  34.127  27.224   6.592
 5335POPC   C3B68949  34.228  27.319   6.977
 5335POPC   C4B68950  34.240  27.575   7.328
 5336POPC   NC368951  24.501  15.538   5.395
 5336POPC   PO468952  24.183  14.904   5.461
 5336POPC   GL168953  24.400  15.150   5.748
 5336POPC   GL268954  24.228  15.458   5.817
 5336POPC   C1A68955  24.493  15.200   6.183
 5336POPC   D2A68956  24.759  15.190   6.535
 5336POPC   C3A68957  24.522  15.117   6.893
 5336POPC   C4A68958  24.735  15.024   7.263
 5336POPC   C1B68959  24.225  15.627   6.216
 5336POPC   C2B68960  24.170  15.402   6.613
 5336POPC   C3B68961  24.114  15.525   7.076
 5336POPC   C4B68962  24.062  15.467   7.543
 5337POPC   NC368963  33.435  31.315   5.432
 5337POPC   PO468964  32.764  31.138   5.446
 5337POPC   GL168965  32.998  31.170   5.833
 5337POPC   GL268966  33.310  30.980   5.823
 5337POPC   C1A68967  32.904  31.400   6.243
 5337POPC   D2A68968  32.755  31.461   6.686
 5337POPC   C3A68969  32.890  31.458   7.137
 5337POPC   C4A68970  32.718  31.721   7.495
 5337POPC   C1B68971  33.309  31.109   6.232
 5337POPC   C2B68972  33.281  31.344   6.608
 5337POPC   C3B68973  33.260  31.100   6.959
 5337POPC   C4B68974  33.353  31.184   7.387
 5338POPC   NC368975  30.358  36.674   5.422
 5338POPC   PO468976  29.849  37.026   5.310
 5338POPC   GL168977  29.924  36.943   5.717
 5338POPC   GL268978  29.966  36.591   5.747
 5338POPC   C1A68979  29.811  37.100   6.115
 5338POPC   D2A68980  29.966  37.010   6.517
 5338POPC   C3A68981  29.721  37.006   6.894
 5338POPC   C4A68982  29.673  37.227   7.294
 5338POPC   C1B68983  29.847  36.576   6.156
 5338POPC   C2B68984  30.030  36.489   6.531
 5338POPC   C3B68985  29.893  36.531   6.937
 5338POPC   C4B68986  29.930  36.771   7.302
 5339POPC   NC368987  30.267  14.486   5.400
 5339POPC   PO468988  29.685  14.281   5.462
 5339POPC   GL168989  29.899  14.501   5.785
 5339POPC   GL268990  30.104  14.223   5.819
 5339POPC   C1A68991  30.050  14.538   6.224
 5339POPC   D2A68992  30.033  14.212   6.532
 5339POPC   C3A68993  29.885  14.299   6.956
 5339POPC   C4A68994  30.016  14.642   7.215
 5339POPC   C1B68995  30.378  14.086   6.125
 5339POPC   C2B68996  30.465  13.945   6.521
 5339POPC   C3B68997  30.440  14.233   6.865
 5339POPC   C4B68998  30.391  14.305   7.259
 5340POPC   NC368999  20.499  27.090   5.572
 5340POPC   PO469000  20.414  27.828   5.355
 5340POPC   GL169001  20.481  27.636   5.795
 5340POPC   GL269002  20.737  27.430   5.847
 5340POPC   C1A69003  20.420  27.444   6.254
 5340POPC   D2A69004  20.700  27.425   6.633
 5340POPC   C3A69005  20.601  27.243   7.031
 5340POPC   C4A69006  20.266  27.384   7.265
 5340POPC   C1B69007  20.833  27.720   6.188
 5340POPC   C2B69008  20.566  27.900   6.545
 5340POPC   C3B69009  20.489  27.759   7.003
 5340POPC   C4B69010  20.690  27.564   7.448
 5341POPC   NC369011   4.528   1.723   5.353
 5341POPC   PO469012   3.989   2.280   5.344
 5341POPC   GL169013   4.130   2.231   5.806
 5341POPC   GL269014   4.405   1.972   5.822
 5341POPC   C1A69015   4.296   2.285   6.208
 5341POPC   D2A69016   4.537   2.027   6.490
 5341POPC   C3A69017   4.378   1.996   6.891
 5341POPC   C4A69018   4.546   1.976   7.310
 5341POPC   C1B69019   4.052   1.848   6.149
 5341POPC   C2B69020   3.970   2.032   6.553
 5341POPC   C3B69021   3.860   1.851   6.937
 5341POPC   C4B69022   4.020   2.031   7.291
 5342POPC   NC369023  28.446  30.691   5.293
 5342POPC   PO469024  28.425  31.229   5.605
 5342POPC   GL169025  28.158  31.006   5.914
 5342POPC   GL269026  28.243  30.707   5.756
 5342POPC   C1A69027  28.174  30.890   6.372
 5342POPC   D2A69028  28.457  30.687   6.686
 5342POPC   C3A69029  28.451  30.849   7.104
 5342POPC   C4A69030  28.477  30.689   7.567
 5342POPC   C1B69031  28.033  30.467   6.037
 5342POPC   C2B69032  28.079  30.375   6.449
 5342POPC   C3B69033  28.043  30.398   6.871
 5342POPC   C4B69034  28.322  30.370   7.196
 5343POPC   NC369035  41.904  37.223   5.154
 5343POPC   PO469036  42.291  36.627   5.310
 5343POPC   GL169037  42.371  36.750   5.745
 5343POPC   GL269038  42.604  37.012   5.817
 5343POPC   C1A69039  42.327  36.819   6.187
 5343POPC   D2A69040  42.619  36.892   6.506
 5343POPC   C3A69041  42.483  36.744   6.894
 5343POPC   C4A69042  42.542  36.779   7.304
 5343POPC   C1B69043  42.524  37.298   6.181
 5343POPC   C2B69044  42.264  37.341   6.581
 5343POPC   C3B69045  42.376  37.276   7.028
 5343POPC   C4B69046  42.772  37.247   7.255
 5344POPC   NC369047  40.788  32.810   5.290
 5344POPC   PO469048  40.350  33.249   5.469
 5344POPC   GL169049  40.612  33.256   5.843
 5344POPC   GL269050  40.839  32.948   5.839
 5344POPC   C1A69051  40.616  33.312   6.314
 5344POPC   D2A69052  40.817  33.309   6.713
 5344POPC   C3A69053  40.687  33.079   7.088
 5344POPC   C4A69054  40.824  33.090   7.557
 5344POPC   C1B69055  40.965  32.927   6.294
 5344POPC   C2B69056  41.044  32.825   6.753
 5344POPC   C3B69057  41.108  32.838   7.215
 5344POPC   C4B69058  40.930  32.600   7.606
 5345POPC   NC369059  19.281  35.687   5.454
 5345POPC   PO469060  18.811  35.174   5.561
 5345POPC   GL169061  19.002  35.432   5.818
 5345POPC   GL269062  19.315  35.256   5.734
 5345POPC   C1A69063  18.895  35.506   6.257
 5345POPC   D2A69064  18.830  35.599   6.699
 5345POPC   C3A69065  18.846  35.310   7.011
 5345POPC   C4A69066  18.975  35.480   7.393
 5345POPC   C1B69067  19.393  35.373   6.169
 5345POPC   C2B69068  19.224  35.274   6.580
 5345POPC   C3B69069  19.312  35.470   6.988
 5345POPC   C4B69070  19.346  35.159   7.300
 5346POPC   NC369071  39.287   8.783   5.639
 5346POPC   PO469072  39.004   9.250   5.270
 5346POPC   GL169073  38.851   9.298   5.716
 5346POPC   GL269074  38.913   8.985   5.911
 5346POPC   C1A69075  38.963   9.412   6.172
 5346POPC   D2A69076  39.284   9.419   6.520
 5346POPC   C3A69077  39.268   9.060   6.807
 5346POPC   C4A69078  38.967   9.080   7.123
 5346POPC   C1B69079  39.169   8.955   6.298
 5346POPC   C2B69080  39.463   8.675   6.487
 5346POPC   C3B69081  39.409   8.516   6.864
 5346POPC   C4B69082  39.182   8.563   7.209
 5347POPC   NC369083  23.269  12.997   5.371
 5347POPC   PO469084  23.854  12.547   5.295
 5347POPC   GL169085  23.792  12.532   5.770
 5347POPC   GL269086  23.432  12.432   5.854
 5347POPC   C1A69087  23.931  12.749   6.193
 5347POPC   D2A69088  24.211  12.717   6.576
 5347POPC   C3A69089  23.995  12.687   7.004
 5347POPC   C4A69090  23.821  12.903   7.385
 5347POPC   C1B69091  23.455  12.558   6.278
 5347POPC   C2B69092  23.599  12.746   6.661
 5347POPC   C3B69093  23.427  12.772   7.074
 5347POPC   C4B69094  23.395  12.448   7.390
 5348POPC   NC369095  11.761   0.988   5.616
 5348POPC   PO469096  12.386   1.073   5.635
 5348POPC   GL169097  12.130   0.933   5.984
 5348POPC   GL269098  11.933   1.269   6.027
 5348POPC   C1A69099  12.073   0.990   6.427
 5348POPC   D2A69100  12.050   1.413   6.547
 5348POPC   C3A69101  12.430   1.454   6.814
 5348POPC   C4A69102  12.526   1.378   7.248
 5348POPC   C1B69103  11.598   1.175   6.324
 5348POPC   C2B69104  11.627   1.158   6.754
 5348POPC   C3B69105  12.013   1.146   6.986
 5348POPC   C4B69106  12.171   0.960   7.350
 5349POPC   NC369107   4.529  38.274   5.325
 5349POPC   PO469108   4.148  38.734   5.393
 5349POPC   GL169109   4.414  38.656   5.732
 5349POPC   GL269110   4.349  38.316   5.806
 5349POPC   C1A69111   4.647  38.581   6.115
 5349POPC   D2A69112   4.647  38.298   6.461
 5349POPC   C3A69113   4.387  38.360   6.823
 5349POPC   C4A69114   4.524  38.255   7.246
 5349POPC   C1B69115   4.177  38.422   6.225
 5349POPC   C2B69116   3.931  38.205   6.520
 5349POPC   C3B69117   3.985  37.997   6.899
 5349POPC   C4B69118   3.858  38.161   7.268
 5350POPC   NC369119  33.616  13.027   5.361
 5350POPC   PO469120  33.860  12.413   5.350
 5350POPC   GL169121  33.757  12.670   5.713
 5350POPC   GL269122  33.881  13.012   5.807
 5350POPC   C1A69123  33.534  12.734   6.095
 5350POPC   D2A69124  33.447  12.605   6.516
 5350POPC   C3A69125  33.565  12.949   6.803
 5350POPC   C4A69126  33.710  12.862   7.212
 5350POPC   C1B69127  33.933  13.041   6.290
 5350POPC   C2B69128  34.099  12.970   6.748
 5350POPC   C3B69129  34.048  13.227   7.156
 5350POPC   C4B69130  33.916  13.154   7.587
 5351POPC   NC369131  27.164  23.853   4.997
 5351POPC   PO469132  27.642  23.572   5.328
 5351POPC   GL169133  27.741  23.451   5.764
 5351POPC   GL269134  27.451  23.225   5.890
 5351POPC   C1A69135  27.699  23.579   6.189
 5351POPC   D2A69136  27.571  23.374   6.572
 5351POPC   C3A69137  27.601  23.606   6.952
 5351POPC   C4A69138  27.549  23.682   7.363
 5351POPC   C1B69139  27.203  23.481   6.234
 5351POPC   C2B69140  27.248  23.787   6.628
 5351POPC   C3B69141  27.324  24.039   7.059
 5351POPC   C4B69142  27.480  24.182   7.484
 5352POPC   NC369143   7.148  33.467   5.491
 5352POPC   PO469144   7.452  32.889   5.614
 5352POPC   GL169145   7.206  33.116   5.882
 5352POPC   GL269146   7.465  33.327   5.882
 5352POPC   C1A69147   7.237  33.173   6.321
 5352POPC   D2A69148   7.094  32.918   6.641
 5352POPC   C3A69149   7.194  33.208   6.944
 5352POPC   C4A69150   7.156  33.162   7.387
 5352POPC   C1B69151   7.724  33.482   6.178
 5352POPC   C2B69152   7.652  33.540   6.591
 5352POPC   C3B69153   7.691  33.334   6.948
 5352POPC   C4B69154   7.608  33.387   7.337
 5353POPC   NC369155   8.995  37.458   5.474
 5353POPC   PO469156   8.677  38.068   5.488
 5353POPC   GL169157   8.859  37.835   5.826
 5353POPC   GL269158   8.619  37.506   5.833
 5353POPC   C1A69159   9.225  37.881   6.169
 5353POPC   D2A69160   9.384  37.771   6.596
 5353POPC   C3A69161   9.207  37.956   6.990
 5353POPC   C4A69162   8.966  37.921   7.411
 5353POPC   C1B69163   8.814  37.576   6.258
 5353POPC   C2B69164   8.921  37.450   6.688
 5353POPC   C3B69165   8.775  37.576   7.093
 5353POPC   C4B69166   8.451  37.359   7.381
 5354POPC   NC369167  41.639  39.587   5.418
 5354POPC   PO469168  41.417  38.825   5.399
 5354POPC   GL169169  41.583  39.136   5.677
 5354POPC   GL269170  41.232  39.290   5.590
 5354POPC   C1A69171  41.803  39.236   6.108
 5354POPC   D2A69172  41.830  39.432   6.550
 5354POPC   C3A69173  41.901  39.264   6.984
 5354POPC   C4A69174  41.639  39.120   7.348
 5354POPC   C1B69175  41.266  39.294   6.046
 5354POPC   C2B69176  41.319  39.412   6.480
 5354POPC   C3B69177  41.387  39.278   6.891
 5354POPC   C4B69178  41.159  39.152   7.251
 5355POPC   NC369179   1.080  36.410   5.521
 5355POPC   PO469180   1.630  35.991   5.540
 5355POPC   GL169181   1.393  35.924   5.868
 5355POPC   GL269182   1.071  35.912   5.714
 5355POPC   C1A69183   1.419  36.111   6.271
 5355POPC   D2A69184   1.266  36.099   6.680
 5355POPC   C3A69185   1.336  36.384   6.999
 5355POPC   C4A69186   1.471  36.267   7.414
 5355POPC   C1B69187   0.952  35.875   6.179
 5355POPC   C2B69188   0.855  35.819   6.643
 5355POPC   C3B69189   0.887  36.086   7.051
 5355POPC   C4B69190   1.040  36.000   7.506
 5356POPC   NC369191   7.586  31.525   5.474
 5356POPC   PO469192   7.142  31.034   5.497
 5356POPC   GL169193   7.301  31.258   5.869
 5356POPC   GL269194   7.246  31.614   5.852
 5356POPC   C1A69195   7.097  31.390   6.279
 5356POPC   D2A69196   7.096  31.437   6.726
 5356POPC   C3A69197   7.509  31.300   6.853
 5356POPC   C4A69198   7.566  31.262   7.304
 5356POPC   C1B69199   7.637  31.699   6.096
 5356POPC   C2B69200   7.680  31.995   6.431
 5356POPC   C3B69201   7.318  31.943   6.711
 5356POPC   C4B69202   7.388  31.714   7.093
 5357POPC   NC369203  25.861  30.328   5.351
 5357POPC   PO469204  25.675  29.766   5.349
 5357POPC   GL169205  25.894  29.938   5.742
 5357POPC   GL269206  26.192  30.158   5.735
 5357POPC   C1A69207  25.707  29.915   6.173
 5357POPC   D2A69208  25.529  30.070   6.551
 5357POPC   C3A69209  25.678  29.923   6.956
 5357POPC   C4A69210  25.793  29.969   7.411
 5357POPC   C1B69211  26.092  30.246   6.187
 5357POPC   C2B69212  26.050  30.072   6.631
 5357POPC   C3B69213  26.154  30.159   7.088
 5357POPC   C4B69214  26.294  29.904   7.517
 5358POPC   NC369215  38.528  18.687   5.447
 5358POPC   PO469216  38.040  18.124   5.487
 5358POPC   GL169217  38.210  18.260   5.895
 5358POPC   GL269218  38.569  18.300   5.830
 5358POPC   C1A69219  38.224  18.106   6.352
 5358POPC   D2A69220  38.414  17.859   6.698
 5358POPC   C3A69221  38.578  18.044   7.090
 5358POPC   C4A69222  38.266  18.355   7.251
 5358POPC   C1B69223  38.615  18.440   6.272
 5358POPC   C2B69224  38.512  18.367   6.717
 5358POPC   C3B69225  38.726  18.534   7.102
 5358POPC   C4B69226  38.550  18.715   7.481
 5359POPC   NC369227   9.753  36.989   5.373
 5359POPC   PO469228  10.204  36.573   5.603
 5359POPC   GL169229   9.890  36.810   5.864
 5359POPC   GL269230   9.508  36.777   5.790
 5359POPC   C1A69231   9.955  36.866   6.323
 5359POPC   D2A69232  10.173  36.782   6.711
 5359POPC   C3A69233  10.028  36.802   7.131
 5359POPC   C4A69234   9.642  36.645   7.219
 5359POPC   C1B69235   9.457  36.890   6.231
 5359POPC   C2B69236   9.596  36.900   6.693
 5359POPC   C3B69237   9.384  37.045   7.060
 5359POPC   C4B69238   9.210  36.794   7.446
 5360POPC   NC369239  19.899  33.982   5.480
 5360POPC   PO469240  19.376  34.378   5.344
 5360POPC   GL169241  19.643  34.300   5.756
 5360POPC   GL269242  19.659  33.927   5.914
 5360POPC   C1A69243  19.895  34.288   6.147
 5360POPC   D2A69244  19.790  34.276   6.583
 5360POPC   C3A69245  19.812  33.981   6.873
 5360POPC   C4A69246  19.379  33.869   6.953
 5360POPC   C1B69247  19.753  33.795   6.340
 5360POPC   C2B69248  19.590  33.497   6.646
 5360POPC   C3B69249  19.617  33.428   7.072
 5360POPC   C4B69250  19.980  33.644   7.213
 5361POPC   NC369251  36.752  25.862   5.358
 5361POPC   PO469252  36.830  25.151   5.287
 5361POPC   GL169253  36.992  25.259   5.702
 5361POPC   GL269254  36.983  25.620   5.764
 5361POPC   C1A69255  36.896  25.284   6.142
 5361POPC   D2A69256  37.069  25.261   6.546
 5361POPC   C3A69257  36.766  25.158   6.846
 5361POPC   C4A69258  36.712  25.284   7.247
 5361POPC   C1B69259  37.228  25.680   6.198
 5361POPC   C2B69260  37.343  25.673   6.671
 5361POPC   C3B69261  37.197  25.427   7.038
 5361POPC   C4B69262  37.102  25.505   7.476
 5362POPC   NC369263  44.291  34.523   5.102
 5362POPC   PO469264  44.724  34.262   5.611
 5362POPC   GL169265  44.731  34.342   6.000
 5362POPC   GL269266  44.790  34.691   5.893
 5362POPC   C1A69267  44.973  34.541   6.334
 5362POPC   D2A69268  44.892  34.787   6.671
 5362POPC   C3A69269   0.005  34.669   7.056
 5362POPC   C4A69270  44.613  34.811   7.225
 5362POPC   C1B69271  44.473  34.681   6.244
 5362POPC   C2B69272  44.532  34.323   6.524
 5362POPC   C3B69273  44.604  34.379   6.948
 5362POPC   C4B69274  44.481  34.222   7.345
 5363POPC   NC369275  12.412  34.634   5.215
 5363POPC   PO469276  12.606  34.122   5.350
 5363POPC   GL169277  12.627  34.268   5.794
 5363POPC   GL269278  12.625  34.627   5.856
 5363POPC   C1A69279  12.647  34.233   6.255
 5363POPC   D2A69280  13.011  34.324   6.563
 5363POPC   C3A69281  12.954  34.485   7.003
 5363POPC   C4A69282  12.965  34.441   7.473
 5363POPC   C1B69283  12.768  34.713   6.302
 5363POPC   C2B69284  12.542  34.523   6.688
 5363POPC   C3B69285  12.465  34.588   7.154
 5363POPC   C4B69286  12.612  34.802   7.567
 5364POPC   NC369287  20.485  34.165   5.229
 5364POPC   PO469288  20.947  34.653   5.086
 5364POPC   GL169289  20.832  34.644   5.585
 5364POPC   GL269290  20.502  34.673   5.727
 5364POPC   C1A69291  20.867  34.685   6.083
 5364POPC   D2A69292  20.604  34.632   6.490
 5364POPC   C3A69293  20.525  34.880   6.865
 5364POPC   C4A69294  20.593  34.579   7.191
 5364POPC   C1B69295  20.391  34.390   6.107
 5364POPC   C2B69296  20.293  34.181   6.513
 5364POPC   C3B69297  20.420  34.154   6.941
 5364POPC   C4B69298  20.212  34.100   7.299
 5365POPC   NC369299  31.831  28.692   5.268
 5365POPC   PO469300  32.551  28.651   5.275
 5365POPC   GL169301  32.459  28.442   5.643
 5365POPC   GL269302  32.137  28.381   5.644
 5365POPC   C1A69303  32.460  28.320   6.059
 5365POPC   D2A69304  32.272  28.162   6.419
 5365POPC   C3A69305  32.426  28.409   6.745
 5365POPC   C4A69306  32.579  28.306   7.125
 5365POPC   C1B69307  31.956  28.407   6.092
 5365POPC   C2B69308  31.829  28.483   6.511
 5365POPC   C3B69309  31.956  28.258   6.855
 5365POPC   C4B69310  32.108  28.113   7.224
 5366POPC   NC369311   1.947   3.619   5.372
 5366POPC   PO469312   1.557   3.227   5.506
 5366POPC   GL169313   1.775   3.301   5.831
 5366POPC   GL269314   1.618   3.038   5.992
 5366POPC   C1A69315   1.697   3.595   6.173
 5366POPC   D2A69316   1.786   3.705   6.622
 5366POPC   C3A69317   2.181   3.648   6.816
 5366POPC   C4A69318   2.211   3.740   7.219
 5366POPC   C1B69319   1.919   3.125   6.316
 5366POPC   C2B69320   1.889   3.158   6.758
 5366POPC   C3B69321   1.793   3.434   7.082
 5366POPC   C4B69322   2.058   3.297   7.364
 5367POPC   NC369323  17.670   9.234   5.346
 5367POPC   PO469324  18.066   8.755   5.266
 5367POPC   GL169325  18.139   9.017   5.660
 5367POPC   GL269326  18.405   9.305   5.659
 5367POPC   C1A69327  18.119   9.150   6.109
 5367POPC   D2A69328  18.165   8.948   6.512
 5367POPC   C3A69329  18.256   9.106   6.911
 5367POPC   C4A69330  18.510   8.986   7.275
 5367POPC   C1B69331  18.506   9.506   6.078
 5367POPC   C2B69332  18.309   9.476   6.499
 5367POPC   C3B69333  18.544   9.532   6.891
 5367POPC   C4B69334  18.347   9.466   7.276
 5368POPC   NC369335   0.408   8.068   4.889
 5368POPC   PO469336   0.690   7.972   5.471
 5368POPC   GL169337   0.708   8.110   5.895
 5368POPC   GL269338   0.547   8.424   5.943
 5368POPC   C1A69339   0.594   8.037   6.344
 5368POPC   D2A69340   0.598   7.831   6.775
 5368POPC   C3A69341   0.700   8.056   7.157
 5368POPC   C4A69342   0.505   7.994   7.555
 5368POPC   C1B69343   0.554   8.545   6.386
 5368POPC   C2B69344   0.482   8.338   6.785
 5368POPC   C3B69345   0.228   8.204   7.150
 5368POPC   C4B69346   0.224   8.419   7.541
 5369POPC   NC369347  23.258  23.249   5.372
 5369POPC   PO469348  22.825  22.737   5.487
 5369POPC   GL169349  22.749  22.725   5.938
 5369POPC   GL269350  22.569  23.000   6.066
 5369POPC   C1A69351  22.878  22.717   6.378
 5369POPC   D2A69352  22.903  23.024   6.722
 5369POPC   C3A69353  22.872  22.864   7.129
 5369POPC   C4A69354  23.068  22.782   7.534
 5369POPC   C1B69355  22.369  22.688   6.345
 5369POPC   C2B69356  22.533  22.658   6.765
 5369POPC   C3B69357  22.365  22.897   7.130
 5369POPC   C4B69358  22.566  22.937   7.539
 5370POPC   NC369359   2.293  41.678   5.419
 5370POPC   PO469360   1.778  41.177   5.328
 5370POPC   GL169361   1.917  41.398   5.707
 5370POPC   GL269362   1.857  41.760   5.738
 5370POPC   C1A69363   2.130  41.377   6.116
 5370POPC   D2A69364   1.973  41.247   6.521
 5370POPC   C3A69365   2.133  41.310   6.936
 5370POPC   C4A69366   2.118  41.493   7.374
 5370POPC   C1B69367   2.094  41.884   6.106
 5370POPC   C2B69368   2.114  41.735   6.520
 5370POPC   C3B69369   1.978  41.810   6.937
 5370POPC   C4B69370   1.676  41.789   7.243
 5371POPC   NC369371  20.365  40.889   5.469
 5371POPC   PO469372  21.054  40.869   5.414
 5371POPC   GL169373  20.925  40.729   5.816
 5371POPC   GL269374  20.563  40.681   5.877
 5371POPC   C1A69375  20.861  40.882   6.229
 5371POPC   D2A69376  20.684  41.033   6.600
 5371POPC   C3A69377  20.748  40.817   6.970
 5371POPC   C4A69378  20.777  41.139   7.285
 5371POPC   C1B69379  20.354  40.885   6.233
 5371POPC   C2B69380  20.191  40.868   6.644
 5371POPC   C3B69381  20.268  40.996   7.046
 5371POPC   C4B69382  20.213  40.714   7.377
 5372POPC   NC369383  35.103  36.124   5.290
 5372POPC   PO469384  35.590  35.839   5.647
 5372POPC   GL169385  35.283  36.149   5.795
 5372POPC   GL269386  34.927  36.042   5.770
 5372POPC   C1A69387  35.216  36.328   6.207
 5372POPC   D2A69388  35.458  36.401   6.583
 5372POPC   C3A69389  35.545  36.094   6.889
 5372POPC   C4A69390  35.498  36.229   7.291
 5372POPC   C1B69391  35.072  35.823   6.148
 5372POPC   C2B69392  35.216  35.821   6.585
 5372POPC   C3B69393  35.069  35.854   7.012
 5372POPC   C4B69394  34.991  36.118   7.384
 5373POPC   NC369395  37.994   5.363   5.569
 5373POPC   PO469396  37.906   4.693   5.497
 5373POPC   GL169397  37.833   4.946   5.840
 5373POPC   GL269398  38.149   5.023   5.920
 5373POPC   C1A69399  37.794   5.125   6.277
 5373POPC   D2A69400  37.689   4.898   6.651
 5373POPC   C3A69401  37.653   5.006   7.073
 5373POPC   C4A69402  37.934   4.832   7.353
 5373POPC   C1B69403  38.273   5.316   6.225
 5373POPC   C2B69404  38.109   5.426   6.622
 5373POPC   C3B69405  38.105   5.216   7.001
 5373POPC   C4B69406  38.057   5.321   7.439
 5374POPC   NC369407  31.103  26.813   5.466
 5374POPC   PO469408  30.520  27.042   5.442
 5374POPC   GL169409  30.663  26.724   5.754
 5374POPC   GL269410  30.996  26.563   5.884
 5374POPC   C1A69411  30.532  26.626   6.141
 5374POPC   D2A69412  30.603  26.429   6.526
 5374POPC   C3A69413  30.669  26.699   6.850
 5374POPC   C4A69414  30.529  26.813   7.250
 5374POPC   C1B69415  31.057  26.677   6.313
 5374POPC   C2B69416  31.028  27.022   6.604
 5374POPC   C3B69417  30.931  27.103   7.034
 5374POPC   C4B69418  31.041  26.737   7.256
 5375POPC   NC369419  32.077  41.957   5.389
 5375POPC   PO469420  32.511  41.435   5.467
 5375POPC   GL169421  32.298  41.480   5.856
 5375POPC   GL269422  31.957  41.365   5.790
 5375POPC   C1A69423  32.034  41.744   6.142
 5375POPC   D2A69424  31.873  41.652   6.553
 5375POPC   C3A69425  32.218  41.366   6.723
 5375POPC   C4A69426  32.323  41.417   7.167
 5375POPC   C1B69427  31.955  41.211   6.232
 5375POPC   C2B69428  31.704  41.178   6.617
 5375POPC   C3B69429  31.814  41.335   7.024
 5375POPC   C4B69430  31.816  41.752   7.146
 5376POPC   NC369431  37.517  17.137   5.420
 5376POPC   PO469432  38.023  16.633   5.311
 5376POPC   GL169433  37.915  16.622   5.763
 5376POPC   GL269434  37.736  16.904   5.822
 5376POPC   C1A69435  37.788  16.579   6.214
 5376POPC   D2A69436  37.938  16.773   6.592
 5376POPC   C3A69437  37.780  16.640   7.029
 5376POPC   C4A69438  37.932  16.861   7.406
 5376POPC   C1B69439  37.477  16.994   6.206
 5376POPC   C2B69440  37.435  16.883   6.681
 5376POPC   C3B69441  37.360  17.096   7.078
 5376POPC   C4B69442  37.337  17.024   7.527
 5377POPC   NC369443  22.542  13.504   5.472
 5377POPC   PO469444  21.809  13.526   5.551
 5377POPC   GL169445  22.178  13.570   5.817
 5377POPC   GL269446  22.173  13.208   5.882
 5377POPC   C1A69447  22.298  13.829   6.204
 5377POPC   D2A69448  22.379  13.689   6.657
 5377POPC   C3A69449  22.125  13.789   7.031
 5377POPC   C4A69450  22.180  13.917   7.448
 5377POPC   C1B69451  22.507  13.356   6.166
 5377POPC   C2B69452  22.741  13.334   6.592
 5377POPC   C3B69453  22.569  13.278   7.005
 5377POPC   C4B69454  22.330  13.435   7.332
 5378POPC   NC369455  38.777   5.341   5.369
 5378POPC   PO469456  38.790   4.650   5.362
 5378POPC   GL169457  38.600   4.837   5.743
 5378POPC   GL269458  38.625   5.203   5.835
 5378POPC   C1A69459  38.500   4.810   6.213
 5378POPC   D2A69460  38.190   4.874   6.534
 5378POPC   C3A69461  38.254   4.722   6.956
 5378POPC   C4A69462  38.434   4.962   7.323
 5378POPC   C1B69463  38.773   5.391   6.220
 5378POPC   C2B69464  38.617   5.419   6.671
 5378POPC   C3B69465  38.525   5.458   7.123
 5378POPC   C4B69466  38.547   5.403   7.578
 5379POPC   NC369467   5.090  28.929   5.420
 5379POPC   PO469468   4.870  29.473   5.364
 5379POPC   GL169469   4.934  29.253   5.804
 5379POPC   GL269470   5.267  29.032   5.867
 5379POPC   C1A69471   4.975  29.152   6.256
 5379POPC   D2A69472   5.088  28.829   6.554
 5379POPC   C3A69473   4.980  28.905   6.976
 5379POPC   C4A69474   5.028  29.140   7.345
 5379POPC   C1B69475   5.474  29.007   6.272
 5379POPC   C2B69476   5.562  29.180   6.668
 5379POPC   C3B69477   5.454  29.154   7.083
 5379POPC   C4B69478   5.463  28.906   7.471
 5380POPC   NC369479  41.259   1.715   5.454
 5380POPC   PO469480  41.841   2.101   5.462
 5380POPC   GL169481  41.582   2.143   5.819
 5380POPC   GL269482  41.269   2.332   5.725
 5380POPC   C1A69483  41.583   1.887   6.212
 5380POPC   D2A69484  41.607   1.668   6.608
 5380POPC   C3A69485  41.726   1.805   7.021
 5380POPC   C4A69486  41.453   2.065   7.263
 5380POPC   C1B69487  41.172   2.183   6.153
 5380POPC   C2B69488  41.302   2.148   6.599
 5380POPC   C3B69489  41.195   2.391   6.966
 5380POPC   C4B69490  41.073   2.418   7.393
 5381POPC   NC369491  37.851  30.363   5.220
 5381POPC   PO469492  37.637  29.705   5.290
 5381POPC   GL169493  37.612  29.705   5.740
 5381POPC   GL269494  37.793  29.994   5.797
 5381POPC   C1A69495  37.600  29.752   6.191
 5381POPC   D2A69496  37.812  29.894   6.560
 5381POPC   C3A69497  37.565  29.835   6.917
 5381POPC   C4A69498  37.638  29.857   7.316
 5381POPC   C1B69499  37.909  30.219   6.179
 5381POPC   C2B69500  38.014  30.366   6.611
 5381POPC   C3B69501  37.973  30.159   7.013
 5381POPC   C4B69502  37.971  30.215   7.463
 5382POPC   NC369503  38.931  23.592   5.318
 5382POPC   PO469504  39.520  23.733   5.467
 5382POPC   GL169505  39.236  23.536   5.721
 5382POPC   GL269506  39.402  23.700   5.989
 5382POPC   C1A69507  39.012  23.395   6.093
 5382POPC   D2A69508  39.229  23.343   6.518
 5382POPC   C3A69509  39.275  23.644   6.856
 5382POPC   C4A69510  38.944  23.743   7.157
 5382POPC   C1B69511  39.748  23.457   6.144
 5382POPC   C2B69512  39.756  23.320   6.575
 5382POPC   C3B69513  39.775  23.523   6.982
 5382POPC   C4B69514  39.453  23.524   7.315
 5383POPC   NC369515   3.386  44.361   5.424
 5383POPC   PO469516   3.308   0.019   5.469
 5383POPC   GL169517   3.484  44.834   5.842
 5383POPC   GL269518   3.459  44.469   5.931
 5383POPC   C1A69519   3.691  44.824   6.247
 5383POPC   D2A69520   3.562  44.536   6.580
 5383POPC   C3A69521   3.655  44.681   6.974
 5383POPC   C4A69522   3.433  44.809   7.298
 5383POPC   C1B69523   3.842  44.317   6.166
 5383POPC   C2B69524   4.005  44.313   6.618
 5383POPC   C3B69525   3.722  44.143   6.976
 5383POPC   C4B69526   3.707  44.312   7.423
 5384POPC   NC369527  22.684   9.488   5.344
 5384POPC   PO469528  23.146   9.975   5.452
 5384POPC   GL169529  22.952   9.835   5.805
 5384POPC   GL269530  22.616   9.687   5.833
 5384POPC   C1A69531  23.053   9.781   6.226
 5384POPC   D2A69532  22.862   9.614   6.586
 5384POPC   C3A69533  23.006   9.769   6.960
 5384POPC   C4A69534  23.146   9.631   7.359
 5384POPC   C1B69535  22.617  10.043   6.155
 5384POPC   C2B69536  22.842  10.135   6.557
 5384POPC   C3B69537  22.675  10.153   6.993
 5384POPC   C4B69538  22.700   9.907   7.360
 5385POPC   NC369539   7.197  16.863   5.353
 5385POPC   PO469540   7.558  16.257   5.342
 5385POPC   GL169541   7.339  16.436   5.697
 5385POPC   GL269542   6.986  16.539   5.698
 5385POPC   C1A69543   7.459  16.686   6.037
 5385POPC   D2A69544   7.644  16.728   6.426
 5385POPC   C3A69545   7.586  16.814   6.868
 5385POPC   C4A69546   7.557  16.595   7.265
 5385POPC   C1B69547   6.976  16.824   6.080
 5385POPC   C2B69548   7.135  16.647   6.466
 5385POPC   C3B69549   7.167  16.514   6.887
 5385POPC   C4B69550   7.046  16.707   7.274
 5386POPC   NC369551  25.943  16.125   5.460
 5386POPC   PO469552  26.422  15.754   5.416
 5386POPC   GL169553  26.077  15.727   5.762
 5386POPC   GL269554  25.685  15.799   5.747
 5386POPC   C1A69555  26.012  16.047   6.128
 5386POPC   D2A69556  26.203  16.161   6.544
 5386POPC   C3A69557  26.152  15.845   6.884
 5386POPC   C4A69558  25.831  15.955   7.151
 5386POPC   C1B69559  25.726  15.625   6.167
 5386POPC   C2B69560  25.703  15.813   6.583
 5386POPC   C3B69561  25.535  15.603   6.927
 5386POPC   C4B69562  25.782  15.466   7.247
 5387POPC   NC369563  38.956  19.592   5.288
 5387POPC   PO469564  38.311  19.843   5.512
 5387POPC   GL169565  38.418  19.643   5.886
 5387POPC   GL269566  38.508  19.938   6.068
 5387POPC   C1A69567  38.665  19.509   6.242
 5387POPC   D2A69568  38.800  19.720   6.680
 5387POPC   C3A69569  38.598  19.676   7.118
 5387POPC   C4A69570  38.236  19.626   7.455
 5387POPC   C1B69571  38.168  20.075   6.334
 5387POPC   C2B69572  38.050  20.073   6.775
 5387POPC   C3B69573  38.233  20.079   7.173
 5387POPC   C4B69574  38.446  20.390   7.435
 5388POPC   NC369575   1.278   3.624   5.435
 5388POPC   PO469576   0.956   2.998   5.367
 5388POPC   GL169577   1.101   3.076   5.806
 5388POPC   GL269578   1.252   3.389   5.882
 5388POPC   C1A69579   1.202   3.062   6.269
 5388POPC   D2A69580   1.450   3.306   6.522
 5388POPC   C3A69581   1.357   3.201   6.925
 5388POPC   C4A69582   1.342   3.370   7.319
 5388POPC   C1B69583   1.174   3.723   6.142
 5388POPC   C2B69584   1.296   3.837   6.542
 5388POPC   C3B69585   1.353   3.720   6.952
 5388POPC   C4B69586   1.354   3.874   7.394
 5389POPC   NC369587   2.959  38.064   5.258
 5389POPC   PO469588   2.892  37.426   5.378
 5389POPC   GL169589   2.679  37.717   5.632
 5389POPC   GL269590   2.604  37.406   5.814
 5389POPC   C1A69591   2.684  37.816   6.091
 5389POPC   D2A69592   2.958  37.620   6.413
 5389POPC   C3A69593   2.940  37.677   6.863
 5389POPC   C4A69594   2.881  37.936   7.225
 5389POPC   C1B69595   2.714  37.244   6.179
 5389POPC   C2B69596   2.805  37.140   6.586
 5389POPC   C3B69597   2.711  37.212   6.965
 5389POPC   C4B69598   2.806  37.405   7.293
 5390POPC   NC369599   1.750  16.100   5.458
 5390POPC   PO469600   1.125  15.826   5.384
 5390POPC   GL169601   1.394  15.671   5.692
 5390POPC   GL269602   1.354  16.004   5.798
 5390POPC   C1A69603   1.324  15.547   6.121
 5390POPC   D2A69604   1.384  15.739   6.530
 5390POPC   C3A69605   1.303  15.616   6.957
 5390POPC   C4A69606   1.149  15.889   7.266
 5390POPC   C1B69607   1.557  16.033   6.140
 5390POPC   C2B69608   1.437  16.236   6.491
 5390POPC   C3B69609   1.433  16.113   6.888
 5390POPC   C4B69610   1.619  16.092   7.229
 5391POPC   NC369611  17.932   6.799   5.641
 5391POPC   PO469612  17.378   6.551   5.402
 5391POPC   GL169613  17.517   6.563   5.860
 5391POPC   GL269614  17.761   6.308   5.858
 5391POPC   C1A69615  17.531   6.497   6.337
 5391POPC   D2A69616  17.315   6.780   6.637
 5391POPC   C3A69617  17.440   6.853   7.054
 5391POPC   C4A69618  17.474   6.620   7.413
 5391POPC   C1B69619  18.026   6.394   6.221
 5391POPC   C2B69620  17.944   6.262   6.654
 5391POPC   C3B69621  17.748   6.405   7.022
 5391POPC   C4B69622  18.013   6.623   7.332
 5392POPC   NC369623  33.431  26.972   5.659
 5392POPC   PO469624  32.810  27.042   5.401
 5392POPC   GL169625  32.915  27.039   5.821
 5392POPC   GL269626  32.726  26.727   5.937
 5392POPC   C1A69627  32.957  27.042   6.263
 5392POPC   D2A69628  32.722  26.768   6.518
 5392POPC   C3A69629  32.933  26.651   6.900
 5392POPC   C4A69630  33.339  26.762   6.986
 5392POPC   C1B69631  33.080  26.532   6.183
 5392POPC   C2B69632  33.090  26.289   6.570
 5392POPC   C3B69633  33.201  26.242   7.024
 5392POPC   C4B69634  32.974  26.316   7.434
 5393POPC   NC369635  38.574  16.094   5.174
 5393POPC   PO469636  38.302  15.700   5.539
 5393POPC   GL169637  38.319  15.707   5.946
 5393POPC   GL269638  38.473  16.030   5.953
 5393POPC   C1A69639  38.185  15.644   6.351
 5393POPC   D2A69640  38.213  15.827   6.743
 5393POPC   C3A69641  38.226  15.628   7.133
 5393POPC   C4A69642  38.274  15.929   7.457
 5393POPC   C1B69643  38.520  16.073   6.393
 5393POPC   C2B69644  38.716  15.871   6.760
 5393POPC   C3B69645  38.722  15.905   7.195
 5393POPC   C4B69646  38.720  16.177   7.548
 5394POPC   NC369647   2.650  33.452   5.265
 5394POPC   PO469648   3.063  33.926   5.412
 5394POPC   GL169649   2.688  33.779   5.652
 5394POPC   GL269650   2.578  34.050   5.834
 5394POPC   C1A69651   2.677  33.508   6.021
 5394POPC   D2A69652   2.702  33.668   6.454
 5394POPC   C3A69653   2.558  33.454   6.827
 5394POPC   C4A69654   2.656  33.689   7.194
 5394POPC   C1B69655   2.960  33.957   6.080
 5394POPC   C2B69656   3.182  33.948   6.477
 5394POPC   C3B69657   3.009  33.930   6.894
 5394POPC   C4B69658   3.082  34.041   7.330
 5395POPC   NC369659   7.562  40.772   5.258
 5395POPC   PO469660   6.833  40.841   5.253
 5395POPC   GL169661   7.154  40.689   5.682
 5395POPC   GL269662   7.160  40.935   5.969
 5395POPC   C1A69663   7.496  40.571   5.991
 5395POPC   D2A69664   7.400  40.690   6.419
 5395POPC   C3A69665   7.418  40.457   6.813
 5395POPC   C4A69666   7.688  40.541   7.195
 5395POPC   C1B69667   7.384  41.211   6.294
 5395POPC   C2B69668   7.597  41.059   6.700
 5395POPC   C3B69669   7.359  40.906   7.065
 5395POPC   C4B69670   7.083  40.974   7.445
 5396POPC   NC369671   6.368  11.089   5.140
 5396POPC   PO469672   6.874  11.210   5.511
 5396POPC   GL169673   6.653  11.278   5.864
 5396POPC   GL269674   6.340  11.249   5.724
 5396POPC   C1A69675   6.561  11.105   6.268
 5396POPC   D2A69676   6.630  11.132   6.723
 5396POPC   C3A69677   6.726  11.296   7.130
 5396POPC   C4A69678   6.683  11.238   7.588
 5396POPC   C1B69679   6.117  10.969   6.035
 5396POPC   C2B69680   5.998  10.880   6.478
 5396POPC   C3B69681   6.199  10.884   6.886
 5396POPC   C4B69682   6.295  11.049   7.298
 5397POPC   NC369683  31.848  29.476   5.381
 5397POPC   PO469684  31.449  28.960   5.241
 5397POPC   GL169685  31.370  29.178   5.679
 5397POPC   GL269686  31.676  29.237   5.789
 5397POPC   C1A69687  31.379  29.202   6.192
 5397POPC   D2A69688  31.237  29.258   6.665
 5397POPC   C3A69689  31.440  29.125   7.059
 5397POPC   C4A69690  31.346  29.158   7.511
 5397POPC   C1B69691  31.804  29.520   6.090
 5397POPC   C2B69692  31.623  29.550   6.492
 5397POPC   C3B69693  31.757  29.506   6.906
 5397POPC   C4B69694  31.757  29.412   7.339
 5398POPC   NC369695  14.644   6.724   5.435
 5398POPC   PO469696  13.955   6.619   5.435
 5398POPC   GL169697  14.307   6.430   5.736
 5398POPC   GL269698  14.667   6.280   5.712
 5398POPC   C1A69699  14.420   6.554   6.210
 5398POPC   D2A69700  14.428   6.718   6.701
 5398POPC   C3A69701  14.174   6.561   7.125
 5398POPC   C4A69702  14.073   6.724   7.561
 5398POPC   C1B69703  14.860   6.295   6.109
 5398POPC   C2B69704  14.661   6.222   6.512
 5398POPC   C3B69705  14.519   6.273   6.905
 5398POPC   C4B69706  14.702   6.621   7.164
 5399POPC   NC369707  25.742  13.613   5.107
 5399POPC   PO469708  25.099  13.532   5.272
 5399POPC   GL169709  25.026  13.605   5.731
 5399POPC   GL269710  25.397  13.563   5.715
 5399POPC   C1A69711  24.934  13.607   6.195
 5399POPC   D2A69712  24.949  13.337   6.585
 5399POPC   C3A69713  24.924  13.599   6.996
 5399POPC   C4A69714  24.905  13.827   7.409
 5399POPC   C1B69715  25.439  13.739   6.122
 5399POPC   C2B69716  25.416  13.576   6.549
 5399POPC   C3B69717  25.648  13.623   6.927
 5399POPC   C4B69718  25.658  13.833   7.314
 5400POPC   NC369719  29.290  24.853   5.639
 5400POPC   PO469720  28.849  25.412   5.444
 5400POPC   GL169721  28.884  25.132   5.781
 5400POPC   GL269722  29.173  25.311   5.898
 5400POPC   C1A69723  28.881  25.065   6.237
 5400POPC   D2A69724  28.897  24.896   6.655
 5400POPC   C3A69725  29.134  25.126   6.962
 5400POPC   C4A69726  29.091  25.302   7.376
 5400POPC   C1B69727  29.391  25.145   6.274
 5400POPC   C2B69728  29.544  25.323   6.685
 5400POPC   C3B69729  29.504  25.453   7.144
 5400POPC   C4B69730  29.482  25.527   7.639
 5401POPC   NC369731  24.277  32.107   5.615
 5401POPC   PO469732  23.553  32.292   5.415
 5401POPC   GL169733  23.800  32.272   5.766
 5401POPC   GL269734  23.769  31.908   5.817
 5401POPC   C1A69735  23.918  32.460   6.164
 5401POPC   D2A69736  24.110  32.339   6.556
 5401POPC   C3A69737  23.789  32.198   6.791
 5401POPC   C4A69738  23.563  32.454   7.082
 5401POPC   C1B69739  24.037  31.964   6.206
 5401POPC   C2B69740  24.129  31.772   6.612
 5401POPC   C3B69741  24.012  31.833   7.058
 5401POPC   C4B69742  23.728  32.058   7.339
 5402POPC   NC369743  35.674  27.050   5.375
 5402POPC   PO469744  34.978  26.848   5.391
 5402POPC   GL169745  35.159  27.036   5.706
 5402POPC   GL269746  35.432  26.829   5.752
 5402POPC   C1A69747  35.144  26.993   6.155
 5402POPC   D2A69748  35.322  26.817   6.553
 5402POPC   C3A69749  35.084  26.899   6.941
 5402POPC   C4A69750  34.940  26.636   7.284
 5402POPC   C1B69751  35.661  26.952   6.090
 5402POPC   C2B69752  35.790  26.684   6.414
 5402POPC   C3B69753  35.758  26.715   6.857
 5402POPC   C4B69754  35.569  27.053   7.080
 5403POPC   NC369755  40.520  33.702   5.513
 5403POPC   PO469756  41.170  33.683   5.492
 5403POPC   GL169757  40.928  33.943   5.798
 5403POPC   GL269758  40.641  33.750   6.003
 5403POPC   C1A69759  40.959  34.061   6.235
 5403POPC   D2A69760  40.696  33.825   6.557
 5403POPC   C3A69761  40.697  34.000   6.988
 5403POPC   C4A69762  40.733  34.214   7.393
 5403POPC   C1B69763  41.044  33.565   6.186
 5403POPC   C2B69764  41.202  33.730   6.581
 5403POPC   C3B69765  41.070  33.659   6.980
 5403POPC   C4B69766  40.748  33.552   7.227
 5404POPC   NC369767  30.051  25.036   5.384
 5404POPC   PO469768  29.429  25.295   5.450
 5404POPC   GL169769  29.708  25.269   5.815
 5404POPC   GL269770  30.076  25.255   5.837
 5404POPC   C1A69771  29.829  25.407   6.246
 5404POPC   D2A69772  30.042  25.155   6.591
 5404POPC   C3A69773  29.972  25.344   6.980
 5404POPC   C4A69774  29.935  25.453   7.417
 5404POPC   C1B69775  30.370  25.180   6.176
 5404POPC   C2B69776  30.549  25.333   6.571
 5404POPC   C3B69777  30.487  25.505   6.946
 5404POPC   C4B69778  30.389  25.150   7.169
 5405POPC   NC369779  28.889   3.088   5.516
 5405POPC   PO469780  29.293   3.661   5.573
 5405POPC   GL169781  29.095   3.762   5.972
 5405POPC   GL269782  28.754   3.891   5.894
 5405POPC   C1A69783  29.116   3.636   6.406
 5405POPC   D2A69784  29.117   3.247   6.591
 5405POPC   C3A69785  29.397   3.233   6.946
 5405POPC   C4A69786  29.312   3.416   7.304
 5405POPC   C1B69787  28.730   3.454   6.130
 5405POPC   C2B69788  28.603   3.419   6.566
 5405POPC   C3B69789  28.816   3.462   6.976
 5405POPC   C4B69790  28.831   3.316   7.402
 5406POPC   NC369791  13.151  14.316   5.303
 5406POPC   PO469792  12.518  14.067   5.395
 5406POPC   GL169793  12.793  14.369   5.690
 5406POPC   GL269794  13.146  14.460   5.780
 5406POPC   C1A69795  12.790  14.295   6.145
 5406POPC   D2A69796  12.523  14.255   6.523
 5406POPC   C3A69797  12.698  14.299   6.942
 5406POPC   C4A69798  12.563  14.306   7.361
 5406POPC   C1B69799  13.247  14.517   6.195
 5406POPC   C2B69800  13.039  14.434   6.582
 5406POPC   C3B69801  13.201  14.457   6.991
 5406POPC   C4B69802  13.072  14.257   7.338
 5407POPC   NC369803  40.106  32.792   5.542
 5407POPC   PO469804  39.669  33.123   5.120
 5407POPC   GL169805  39.750  33.188   5.611
 5407POPC   GL269806  40.079  33.210   5.872
 5407POPC   C1A69807  39.636  33.295   6.065
 5407POPC   D2A69808  39.978  33.142   6.388
 5407POPC   C3A69809  40.011  33.170   6.846
 5407POPC   C4A69810  40.010  33.048   7.283
 5407POPC   C1B69811  40.375  32.901   6.130
 5407POPC   C2B69812  40.502  32.846   6.571
 5407POPC   C3B69813  40.311  32.754   6.979
 5407POPC   C4B69814  40.440  32.791   7.433
 5408POPC   NC369815  12.581  40.133   5.415
 5408POPC   PO469816  11.942  40.352   5.183
 5408POPC   GL169817  11.952  40.320   5.674
 5408POPC   GL269818  12.285  40.335   5.787
 5408POPC   C1A69819  11.874  40.294   6.153
 5408POPC   D2A69820  12.110  40.417   6.543
 5408POPC   C3A69821  12.028  40.286   6.927
 5408POPC   C4A69822  11.850  40.024   7.204
 5408POPC   C1B69823  12.416  40.193   6.208
 5408POPC   C2B69824  12.448  40.058   6.687
 5408POPC   C3B69825  12.395  40.003   7.170
 5408POPC   C4B69826  12.570  40.111   7.602
 5409POPC   NC369827  33.143  27.251   5.158
 5409POPC   PO469828  32.849  27.816   5.299
 5409POPC   GL169829  32.996  27.559   5.700
 5409POPC   GL269830  32.713  27.512   5.944
 5409POPC   C1A69831  33.189  27.508   6.150
 5409POPC   D2A69832  33.190  27.697   6.598
 5409POPC   C3A69833  33.204  27.514   7.036
 5409POPC   C4A69834  32.879  27.529   7.361
 5409POPC   C1B69835  32.745  27.474   6.433
 5409POPC   C2B69836  32.889  27.200   6.763
 5409POPC   C3B69837  32.940  27.069   7.171
 5409POPC   C4B69838  32.779  27.096   7.595
 5410POPC   NC369839   2.363  19.989   5.558
 5410POPC   PO469840   1.717  19.683   5.393
 5410POPC   GL169841   1.928  19.771   5.746
 5410POPC   GL269842   1.885  20.123   5.763
 5410POPC   C1A69843   2.071  19.813   6.167
 5410POPC   D2A69844   1.889  19.901   6.543
 5410POPC   C3A69845   1.949  19.688   6.936
 5410POPC   C4A69846   1.919  19.554   7.357
 5410POPC   C1B69847   1.828  20.295   6.161
 5410POPC   C2B69848   1.857  20.465   6.585
 5410POPC   C3B69849   1.872  20.209   6.940
 5410POPC   C4B69850   2.217  20.009   7.195
 5411POPC   NC369851   3.431  33.778   5.178
 5411POPC   PO469852   4.048  34.042   5.276
 5411POPC   GL169853   3.800  33.901   5.690
 5411POPC   GL269854   3.520  33.628   5.676
 5411POPC   C1A69855   3.673  33.982   6.171
 5411POPC   D2A69856   3.812  34.050   6.632
 5411POPC   C3A69857   3.518  33.977   7.010
 5411POPC   C4A69858   3.569  33.967   7.487
 5411POPC   C1B69859   3.332  33.579   6.114
 5411POPC   C2B69860   3.528  33.592   6.544
 5411POPC   C3B69861   3.481  33.440   6.964
 5411POPC   C4B69862   3.177  33.555   7.256
 5412POPC   NC369863  14.094  30.164   5.397
 5412POPC   PO469864  14.681  29.835   5.339
 5412POPC   GL169865  14.513  29.843   5.754
 5412POPC   GL269866  14.461  30.174   5.784
 5412POPC   C1A69867  14.378  29.813   6.204
 5412POPC   D2A69868  14.576  29.678   6.598
 5412POPC   C3A69869  14.368  29.806   6.985
 5412POPC   C4A69870  14.174  29.994   7.339
 5412POPC   C1B69871  14.479  30.319   6.208
 5412POPC   C2B69872  14.488  30.199   6.620
 5412POPC   C3B69873  14.485  30.319   7.042
 5412POPC   C4B69874  14.664  30.096   7.373
 5413POPC   NC369875  31.648  41.056   5.461
 5413POPC   PO469876  32.204  40.614   5.380
 5413POPC   GL169877  32.428  40.658   5.782
 5413POPC   GL269878  32.231  40.939   5.866
 5413POPC   C1A69879  32.445  40.660   6.237
 5413POPC   D2A69880  32.233  40.603   6.616
 5413POPC   C3A69881  32.479  40.507   6.994
 5413POPC   C4A69882  32.504  40.666   7.433
 5413POPC   C1B69883  31.928  40.687   6.129
 5413POPC   C2B69884  31.731  40.652   6.554
 5413POPC   C3B69885  31.909  40.843   6.938
 5413POPC   C4B69886  32.095  40.978   7.320
 5414POPC   NC369887  39.516  29.257   5.271
 5414POPC   PO469888  39.654  28.478   5.290
 5414POPC   GL169889  39.453  28.755   5.672
 5414POPC   GL269890  39.077  28.829   5.782
 5414POPC   C1A69891  39.418  28.865   6.152
 5414POPC   D2A69892  39.380  29.202   6.491
 5414POPC   C3A69893  39.480  29.076   6.883
 5414POPC   C4A69894  39.356  29.231   7.276
 5414POPC   C1B69895  39.013  29.169   6.158
 5414POPC   C2B69896  38.875  29.136   6.623
 5414POPC   C3B69897  39.004  28.913   7.034
 5414POPC   C4B69898  38.890  28.880   7.518
 5415POPC   NC369899  25.661  19.098   5.487
 5415POPC   PO469900  26.373  19.022   5.329
 5415POPC   GL169901  26.225  18.985   5.739
 5415POPC   GL269902  25.953  18.744   5.794
 5415POPC   C1A69903  26.051  19.118   6.130
 5415POPC   D2A69904  25.849  19.068   6.464
 5415POPC   C3A69905  26.020  19.130   6.874
 5415POPC   C4A69906  26.303  18.982   7.195
 5415POPC   C1B69907  25.802  18.603   6.233
 5415POPC   C2B69908  25.955  18.629   6.696
 5415POPC   C3B69909  25.846  18.735   7.156
 5415POPC   C4B69910  25.669  18.724   7.622
 5416POPC   NC369911  25.187   9.429   5.460
 5416POPC   PO469912  25.084   8.759   5.456
 5416POPC   GL169913  25.205   9.019   5.830
 5416POPC   GL269914  25.528   9.225   5.846
 5416POPC   C1A69915  25.230   8.811   6.251
 5416POPC   D2A69916  25.459   8.571   6.603
 5416POPC   C3A69917  25.375   8.707   7.024
 5416POPC   C4A69918  25.176   8.794   7.440
 5416POPC   C1B69919  25.657   9.084   6.284
 5416POPC   C2B69920  25.552   9.100   6.740
 5416POPC   C3B69921  25.488   9.191   7.181
 5416POPC   C4B69922  25.477   9.169   7.647
 5417POPC   NC369923  19.497   5.121   5.375
 5417POPC   PO469924  19.952   4.844   5.759
 5417POPC   GL169925  19.800   5.233   5.942
 5417POPC   GL269926  19.474   5.252   5.877
 5417POPC   C1A69927  19.787   5.508   6.311
 5417POPC   D2A69928  19.627   5.547   6.724
 5417POPC   C3A69929  19.872   5.398   7.067
 5417POPC   C4A69930  20.062   5.306   7.457
 5417POPC   C1B69931  19.535   5.057   6.324
 5417POPC   C2B69932  19.544   5.031   6.796
 5417POPC   C3B69933  19.700   4.862   7.190
 5417POPC   C4B69934  19.525   4.680   7.575
 5418POPC   NC369935  28.341   6.011   5.354
 5418POPC   PO469936  28.367   5.454   5.822
 5418POPC   GL169937  28.481   5.884   5.831
 5418POPC   GL269938  28.181   6.082   5.833
 5418POPC   C1A69939  28.596   6.101   6.195
 5418POPC   D2A69940  28.655   5.836   6.567
 5418POPC   C3A69941  28.606   6.056   6.939
 5418POPC   C4A69942  28.308   6.038   7.261
 5418POPC   C1B69943  28.101   5.929   6.268
 5418POPC   C2B69944  28.145   5.877   6.710
 5418POPC   C3B69945  28.351   5.587   6.985
 5418POPC   C4B69946  28.165   5.567   7.383
 5419POPC   NC369947  23.623  38.406   5.316
 5419POPC   PO469948  24.196  38.149   5.260
 5419POPC   GL169949  23.921  38.238   5.705
 5419POPC   GL269950  23.562  38.148   5.773
 5419POPC   C1A69951  23.663  38.567   6.015
 5419POPC   D2A69952  23.500  38.561   6.471
 5419POPC   C3A69953  23.806  38.428   6.800
 5419POPC   C4A69954  24.080  38.558   7.133
 5419POPC   C1B69955  23.427  38.137   6.195
 5419POPC   C2B69956  23.569  38.011   6.599
 5419POPC   C3B69957  23.507  38.100   7.036
 5419POPC   C4B69958  23.338  38.246   7.424
 5420POPC   NC369959   7.762   2.920   5.637
 5420POPC   PO469960   7.294   2.518   5.346
 5420POPC   GL169961   7.269   2.672   5.803
 5420POPC   GL269962   7.162   3.002   5.919
 5420POPC   C1A69963   7.256   2.439   6.206
 5420POPC   D2A69964   7.303   2.436   6.646
 5420POPC   C3A69965   7.324   2.738   6.985
 5420POPC   C4A69966   7.328   2.528   7.380
 5420POPC   C1B69967   7.486   2.893   6.269
 5420POPC   C2B69968   7.753   2.765   6.629
 5420POPC   C3B69969   7.815   2.909   7.057
 5420POPC   C4B69970   7.587   2.946   7.439
 5421POPC   NC369971  10.660  31.809   5.373
 5421POPC   PO469972  10.280  31.166   5.512
 5421POPC   GL169973  10.342  31.399   5.873
 5421POPC   GL269974  10.569  31.684   5.886
 5421POPC   C1A69975  10.472  31.386   6.297
 5421POPC   D2A69976  10.502  31.604   6.676
 5421POPC   C3A69977  10.271  31.546   7.077
 5421POPC   C4A69978  10.253  31.458   7.576
 5421POPC   C1B69979  10.826  31.838   6.264
 5421POPC   C2B69980  10.966  31.866   6.718
 5421POPC   C3B69981  10.776  31.691   7.080
 5421POPC   C4B69982  10.647  31.312   7.307
 5422POPC   NC369983   5.868  30.972   5.324
 5422POPC   PO469984   5.703  30.363   5.553
 5422POPC   GL169985   5.848  30.713   5.783
 5422POPC   GL269986   5.543  30.911   5.764
 5422POPC   C1A69987   6.008  30.832   6.210
 5422POPC   D2A69988   6.014  30.992   6.664
 5422POPC   C3A69989   6.044  30.647   6.951
 5422POPC   C4A69990   5.944  30.567   7.370
 5422POPC   C1B69991   5.479  30.712   6.199
 5422POPC   C2B69992   5.576  30.724   6.681
 5422POPC   C3B69993   5.674  30.946   7.108
 5422POPC   C4B69994   5.688  30.964   7.579
 5423POPC   NC369995  27.356   2.795   5.094
 5423POPC   PO469996  28.147   2.820   5.092
 5423POPC   GL169997  27.875   2.723   5.672
 5423POPC   GL269998  27.550   2.690   5.723
 5423POPC   C1A69999  27.853   2.904   6.098
 5423POPC   D2A70000  27.881   2.732   6.528
 5423POPC   C3A70001  27.776   2.928   6.899
 5423POPC   C4A70002  27.593   2.831   7.265
 5423POPC   C1B70003  27.471   2.565   6.151
 5423POPC   C2B70004  27.510   2.386   6.546
 5423POPC   C3B70005  27.452   2.447   6.954
 5423POPC   C4B70006  27.066   2.534   7.147
 5424POPC   NC370007  34.907  33.356   5.465
 5424POPC   PO470008  35.513  33.065   5.432
 5424POPC   GL170009  35.545  33.037   5.858
 5424POPC   GL270010  35.202  33.190   5.858
 5424POPC   C1A70011  35.541  32.979   6.300
 5424POPC   D2A70012  35.801  32.948   6.656
 5424POPC   C3A70013  35.603  32.788   7.013
 5424POPC   C4A70014  35.409  32.946   7.374
 5424POPC   C1B70015  35.014  33.386   6.194
 5424POPC   C2B70016  35.177  33.211   6.577
 5424POPC   C3B70017  35.114  32.958   6.927
 5424POPC   C4B70018  34.949  33.161   7.270
 5425POPC   NC370019  26.587  23.093   5.297
 5425POPC   PO470020  25.996  22.805   5.258
 5425POPC   GL170021  26.004  22.661   5.693
 5425POPC   GL270022  26.257  22.801   5.901
 5425POPC   C1A70023  25.901  22.488   6.113
 5425POPC   D2A70024  25.720  22.659   6.527
 5425POPC   C3A70025  26.029  22.790   6.855
 5425POPC   C4A70026  25.968  23.014   7.286
 5425POPC   C1B70027  26.149  22.883   6.346
 5425POPC   C2B70028  26.186  23.230   6.642
 5425POPC   C3B70029  26.354  23.266   7.075
 5425POPC   C4B70030  26.280  23.359   7.533
 5426POPC   NC370031  10.591  14.330   5.545
 5426POPC   PO470032   9.922  14.370   5.308
 5426POPC   GL170033  10.142  14.503   5.738
 5426POPC   GL270034  10.491  14.708   5.841
 5426POPC   C1A70035  10.260  14.452   6.201
 5426POPC   D2A70036  10.481  14.625   6.566
 5426POPC   C3A70037  10.366  14.534   6.951
 5426POPC   C4A70038  10.217  14.193   7.156
 5426POPC   C1B70039  10.779  14.547   6.160
 5426POPC   C2B70040  10.989  14.484   6.531
 5426POPC   C3B70041  10.858  14.402   6.915
 5426POPC   C4B70042  10.737  14.537   7.289
 5427POPC   NC370043   3.055  18.248   5.343
 5427POPC   PO470044   2.550  18.634   5.437
 5427POPC   GL170045   2.815  18.422   5.769
 5427POPC   GL270046   2.586  18.116   5.816
 5427POPC   C1A70047   3.055  18.075   6.001
 5427POPC   D2A70048   2.940  17.875   6.420
 5427POPC   C3A70049   2.893  18.170   6.773
 5427POPC   C4A70050   2.680  18.323   7.163
 5427POPC   C1B70051   2.675  18.292   6.263
 5427POPC   C2B70052   2.584  18.557   6.629
 5427POPC   C3B70053   2.871  18.746   6.913
 5427POPC   C4B70054   2.960  18.732   7.348
 5428POPC   NC370055  30.211  18.253   5.590
 5428POPC   PO470056  29.532  18.405   5.480
 5428POPC   GL170057  29.712  18.245   5.801
 5428POPC   GL270058  29.742  17.929   5.743
 5428POPC   C1A70059  29.760  18.208   6.215
 5428POPC   D2A70060  29.640  18.350   6.615
 5428POPC   C3A70061  29.924  18.339   6.961
 5428POPC   C4A70062  30.182  18.515   7.299
 5428POPC   C1B70063  29.666  17.715   6.133
 5428POPC   C2B70064  29.781  17.846   6.575
 5428POPC   C3B70065  30.088  17.835   6.911
 5428POPC   C4B70066  30.057  17.997   7.312
 5429POPC   NC370067  13.608  28.957   5.402
 5429POPC   PO470068  14.034  29.426   5.570
 5429POPC   GL170069  13.703  29.169   5.875
 5429POPC   GL270070  13.467  28.866   5.893
 5429POPC   C1A70071  13.408  29.320   6.195
 5429POPC   D2A70072  13.549  29.353   6.577
 5429POPC   C3A70073  13.344  29.350   6.948
 5429POPC   C4A70074  13.650  29.321   7.230
 5429POPC   C1B70075  13.592  28.878   6.361
 5429POPC   C2B70076  13.490  28.883   6.811
 5429POPC   C3B70077  13.508  28.841   7.290
 5429POPC   C4B70078  13.508  28.801   7.755
 5430POPC   NC370079   5.137  39.763   5.543
 5430POPC   PO470080   5.027  40.453   5.495
 5430POPC   GL170081   4.845  40.205   5.879
 5430POPC   GL270082   4.715  39.843   5.862
 5430POPC   C1A70083   5.030  40.060   6.307
 5430POPC   D2A70084   5.256  39.991   6.720
 5430POPC   C3A70085   5.184  40.276   7.062
 5430POPC   C4A70086   5.069  40.326   7.487
 5430POPC   C1B70087   4.827  39.594   6.238
 5430POPC   C2B70088   4.816  39.688   6.694
 5430POPC   C3B70089   4.889  39.862   7.113
 5430POPC   C4B70090   5.269  39.872   7.429
 5431POPC   NC370091  15.458  10.263   5.155
 5431POPC   PO470092  15.103  10.844   5.434
 5431POPC   GL170093  15.236  10.667   5.807
 5431POPC   GL270094  15.402  10.391   5.769
 5431POPC   C1A70095  15.096  10.541   6.208
 5431POPC   D2A70096  15.258  10.471   6.623
 5431POPC   C3A70097  15.135  10.679   6.984
 5431POPC   C4A70098  14.981  10.592   7.361
 5431POPC   C1B70099  15.577  10.351   6.191
 5431POPC   C2B70100  15.735  10.322   6.637
 5431POPC   C3B70101  15.531  10.345   7.064
 5431POPC   C4B70102  15.439  10.442   7.515
 5432POPC   NC370103   6.995  23.874   5.480
 5432POPC   PO470104   7.420  23.372   5.251
 5432POPC   GL170105   7.478  23.674   5.731
 5432POPC   GL270106   7.193  23.872   5.929
 5432POPC   C1A70107   7.635  23.923   6.140
 5432POPC   D2A70108   7.575  23.801   6.574
 5432POPC   C3A70109   7.500  23.913   7.014
 5432POPC   C4A70110   7.669  23.567   7.296
 5432POPC   C1B70111   7.199  23.613   6.304
 5432POPC   C2B70112   7.120  23.646   6.754
 5432POPC   C3B70113   7.146  23.599   7.169
 5432POPC   C4B70114   6.882  23.563   7.448
 5433POPC   NC370115  29.521  27.324   5.393
 5433POPC   PO470116  29.359  27.929   5.159
 5433POPC   GL170117  29.111  27.607   5.543
 5433POPC   GL270118  29.340  27.469   5.825
 5433POPC   C1A70119  28.897  27.473   6.013
 5433POPC   D2A70120  29.041  27.482   6.478
 5433POPC   C3A70121  28.930  27.304   6.890
 5433POPC   C4A70122  28.973  27.570   7.253
 5433POPC   C1B70123  29.343  27.768   6.150
 5433POPC   C2B70124  29.427  27.882   6.554
 5433POPC   C3B70125  29.403  27.595   6.913
 5433POPC   C4B70126  29.410  27.821   7.292
 5434POPC   NC370127   9.628  16.576   5.404
 5434POPC   PO470128  10.201  16.855   5.526
 5434POPC   GL170129   9.940  16.540   5.809
 5434POPC   GL270130   9.554  16.600   5.906
 5434POPC   C1A70131   9.902  16.456   6.262
 5434POPC   D2A70132  10.084  16.802   6.490
 5434POPC   C3A70133   9.978  16.836   6.890
 5434POPC   C4A70134   9.784  16.743   7.262
 5434POPC   C1B70135   9.378  16.695   6.324
 5434POPC   C2B70136   9.285  16.755   6.785
 5434POPC   C3B70137   9.264  16.738   7.245
 5434POPC   C4B70138   9.430  16.841   7.661
 5435POPC   NC370139  38.310  32.807   5.558
 5435POPC   PO470140  38.020  33.361   5.486
 5435POPC   GL170141  38.322  33.242   5.833
 5435POPC   GL270142  38.678  33.090   5.832
 5435POPC   C1A70143  38.381  33.116   6.273
 5435POPC   D2A70144  38.385  33.106   6.708
 5435POPC   C3A70145  38.206  32.926   7.035
 5435POPC   C4A70146  38.262  33.245   7.315
 5435POPC   C1B70147  38.673  32.717   6.156
 5435POPC   C2B70148  38.514  32.621   6.576
 5435POPC   C3B70149  38.685  32.758   6.961
 5435POPC   C4B70150  38.623  32.888   7.377
 5436POPC   NC370151  24.602   2.948   5.584
 5436POPC   PO470152  24.963   2.479   5.469
 5436POPC   GL170153  24.754   2.525   5.881
 5436POPC   GL270154  24.384   2.575   5.869
 5436POPC   C1A70155  24.744   2.745   6.289
 5436POPC   D2A70156  24.879   2.888   6.718
 5436POPC   C3A70157  24.531   2.886   7.056
 5436POPC   C4A70158  24.403   2.639   7.431
 5436POPC   C1B70159  24.354   2.413   6.297
 5436POPC   C2B70160  24.528   2.474   6.720
 5436POPC   C3B70161  24.848   2.497   7.045
 5436POPC   C4B70162  24.862   2.376   7.441
 5437POPC   NC370163  29.888  40.220   5.604
 5437POPC   PO470164  30.447  40.588   5.554
 5437POPC   GL170165  30.136  40.590   5.890
 5437POPC   GL270166  29.769  40.661   5.833
 5437POPC   C1A70167  30.017  40.859   6.244
 5437POPC   D2A70168  29.823  40.811   6.630
 5437POPC   C3A70169  30.006  41.041   6.943
 5437POPC   C4A70170  30.330  41.037   7.238
 5437POPC   C1B70171  29.678  40.463   6.245
 5437POPC   C2B70172  29.610  40.369   6.712
 5437POPC   C3B70173  29.802  40.567   7.105
 5437POPC   C4B70174  29.918  40.440   7.553
 5438POPC   NC370175  31.830  14.562   5.551
 5438POPC   PO470176  32.560  14.647   5.590
 5438POPC   GL170177  32.254  14.355   5.781
 5438POPC   GL270178  31.870  14.251   5.941
 5438POPC   C1A70179  32.180  14.597   6.139
 5438POPC   D2A70180  31.933  14.479   6.448
 5438POPC   C3A70181  31.995  14.600   6.864
 5438POPC   C4A70182  32.027  14.335   7.215
 5438POPC   C1B70183  32.200  14.088   6.219
 5438POPC   C2B70184  32.535  13.923   6.516
 5438POPC   C3B70185  32.617  14.074   6.937
 5438POPC   C4B70186  32.463  14.096   7.358
 5439POPC   NC370187  16.506   9.439   5.647
 5439POPC   PO470188  16.667   8.818   5.387
 5439POPC   GL170189  16.693   9.014   5.818
 5439POPC   GL270190  16.962   9.252   5.925
 5439POPC   C1A70191  16.547   9.044   6.235
 5439POPC   D2A70192  16.758   8.858   6.568
 5439POPC   C3A70193  16.766   9.068   6.915
 5439POPC   C4A70194  16.764   8.915   7.303
 5439POPC   C1B70195  17.207   9.296   6.349
 5439POPC   C2B70196  17.341   9.286   6.817
 5439POPC   C3B70197  17.122   9.295   7.219
 5439POPC   C4B70198  17.031   9.538   7.590
 5440POPC   NC370199  33.112   2.399   5.302
 5440POPC   PO470200  32.609   2.888   5.165
 5440POPC   GL170201  32.752   2.605   5.616
 5440POPC   GL270202  32.947   2.390   5.793
 5440POPC   C1A70203  32.831   2.716   6.141
 5440POPC   D2A70204  33.111   2.795   6.513
 5440POPC   C3A70205  32.981   2.796   6.941
 5440POPC   C4A70206  33.204   2.717   7.301
 5440POPC   C1B70207  32.988   2.229   6.226
 5440POPC   C2B70208  32.966   2.307   6.674
 5440POPC   C3B70209  32.972   2.310   7.120
 5440POPC   C4B70210  32.825   2.476   7.532
 5441POPC   NC370211  25.554  14.940   5.454
 5441POPC   PO470212  24.857  15.236   5.433
 5441POPC   GL170213  25.171  15.174   5.754
 5441POPC   GL270214  25.044  14.898   5.954
 5441POPC   C1A70215  25.319  15.292   6.188
 5441POPC   D2A70216  25.443  15.166   6.629
 5441POPC   C3A70217  25.152  15.227   6.982
 5441POPC   C4A70218  25.033  15.680   7.025
 5441POPC   C1B70219  25.478  14.793   6.136
 5441POPC   C2B70220  25.720  14.756   6.556
 5441POPC   C3B70221  25.567  14.786   6.982
 5441POPC   C4B70222  25.559  15.039   7.372
 5442POPC   NC370223  29.479  39.748   5.435
 5442POPC   PO470224  29.435  39.137   5.400
 5442POPC   GL170225  29.392  39.282   5.823
 5442POPC   GL270226  29.181  39.582   5.836
 5442POPC   C1A70227  29.476  39.119   6.267
 5442POPC   D2A70228  29.370  39.343   6.636
 5442POPC   C3A70229  29.361  39.172   7.032
 5442POPC   C4A70230  29.261  39.353   7.397
 5442POPC   C1B70231  29.023  39.357   6.229
 5442POPC   C2B70232  28.887  39.181   6.655
 5442POPC   C3B70233  28.847  39.126   7.106
 5442POPC   C4B70234  28.750  39.427   7.461
 5443POPC   NC370235  37.255  43.567   5.540
 5443POPC   PO470236  36.900  44.105   5.357
 5443POPC   GL170237  37.033  43.954   5.805
 5443POPC   GL270238  36.815  43.660   5.810
 5443POPC   C1A70239  37.105  43.893   6.299
 5443POPC   D2A70240  37.259  43.788   6.747
 5443POPC   C3A70241  36.970  43.844   7.092
 5443POPC   C4A70242  36.645  44.148   7.100
 5443POPC   C1B70243  36.779  43.467   6.219
 5443POPC   C2B70244  36.764  43.588   6.649
 5443POPC   C3B70245  36.803  43.367   7.018
 5443POPC   C4B70246  36.774  43.463   7.459
 5444POPC   NC370247  17.594  22.575   5.169
 5444POPC   PO470248  17.966  23.011   5.533
 5444POPC   GL170249  18.285  22.916   5.858
 5444POPC   GL270250  18.463  23.236   5.898
 5444POPC   C1A70251  18.323  22.710   6.271
 5444POPC   D2A70252  18.534  22.697   6.681
 5444POPC   C3A70253  18.305  22.646   7.087
 5444POPC   C4A70254  18.494  22.679   7.497
 5444POPC   C1B70255  18.674  23.117   6.276
 5444POPC   C2B70256  18.691  23.204   6.716
 5444POPC   C3B70257  18.362  23.165   7.026
 5444POPC   C4B70258  17.927  23.268   7.118
 5445POPC   NC370259   9.098  44.212   5.453
 5445POPC   PO470260   8.925  43.538   5.400
 5445POPC   GL170261   8.938  43.813   5.726
 5445POPC   GL270262   8.665  43.990   5.635
 5445POPC   C1A70263   9.094  43.861   6.122
 5445POPC   D2A70264   8.859  43.615   6.400
 5445POPC   C3A70265   8.989  43.637   6.796
 5445POPC   C4A70266   9.011  43.731   7.222
 5445POPC   C1B70267   8.598  43.996   6.094
 5445POPC   C2B70268   8.605  44.119   6.544
 5445POPC   C3B70269   8.516  44.209   6.995
 5445POPC   C4B70270   8.419  44.008   7.393
 5446POPC   NC370271  14.865  22.257   5.421
 5446POPC   PO470272  15.488  21.949   5.362
 5446POPC   GL170273  15.293  21.999   5.788
 5446POPC   GL270274  14.947  21.883   5.788
 5446POPC   C1A70275  15.315  22.226   6.216
 5446POPC   D2A70276  15.038  22.392   6.569
 5446POPC   C3A70277  15.258  22.367   6.962
 5446POPC   C4A70278  15.558  22.046   7.112
 5446POPC   C1B70279  14.821  22.106   6.170
 5446POPC   C2B70280  14.714  21.994   6.604
 5446POPC   C3B70281  14.783  22.055   7.056
 5446POPC   C4B70282  14.649  22.155   7.476
 5447POPC   NC370283  39.905  27.038   5.413
 5447POPC   PO470284  39.792  26.383   5.490
 5447POPC   GL170285  39.819  26.684   5.813
 5447POPC   GL270286  40.147  26.743   5.778
 5447POPC   C1A70287  39.925  26.709   6.250
 5447POPC   D2A70288  40.184  26.671   6.613
 5447POPC   C3A70289  39.979  26.693   7.031
 5447POPC   C4A70290  39.921  26.540   7.462
 5447POPC   C1B70291  40.238  27.100   6.039
 5447POPC   C2B70292  40.045  27.177   6.421
 5447POPC   C3B70293  40.155  27.138   6.828
 5447POPC   C4B70294  40.373  27.145   7.209
 5448POPC   NC370295  24.233  36.965   5.457
 5448POPC   PO470296  23.520  37.138   5.409
 5448POPC   GL170297  23.775  36.836   5.679
 5448POPC   GL270298  23.653  36.466   5.615
 5448POPC   C1A70299  23.951  36.864   6.130
 5448POPC   D2A70300  23.993  37.082   6.544
 5448POPC   C3A70301  23.937  36.913   6.975
 5448POPC   C4A70302  23.913  36.930   7.460
 5448POPC   C1B70303  23.523  36.582   6.030
 5448POPC   C2B70304  23.478  36.782   6.436
 5448POPC   C3B70305  23.440  36.782   6.889
 5448POPC   C4B70306  23.283  36.822   7.283
 5449POPC   NC370307   8.860  43.086   5.402
 5449POPC   PO470308   9.390  42.797   5.555
 5449POPC   GL170309   9.072  42.925   5.844
 5449POPC   GL270310   8.994  43.285   5.882
 5449POPC   C1A70311   9.217  42.936   6.253
 5449POPC   D2A70312   9.154  43.126   6.646
 5449POPC   C3A70313   9.265  42.857   6.985
 5449POPC   C4A70314   9.133  42.943   7.382
 5449POPC   C1B70315   8.741  43.135   6.247
 5449POPC   C2B70316   8.643  43.218   6.681
 5449POPC   C3B70317   8.838  43.240   7.076
 5449POPC   C4B70318   8.873  43.342   7.532
 5450POPC   NC370319   2.482  29.087   5.519
 5450POPC   PO470320   1.935  29.458   5.287
 5450POPC   GL170321   2.035  29.279   5.712
 5450POPC   GL270322   2.082  28.913   5.822
 5450POPC   C1A70323   2.244  29.359   6.114
 5450POPC   D2A70324   2.038  29.315   6.527
 5450POPC   C3A70325   2.216  29.337   6.946
 5450POPC   C4A70326   2.003  29.312   7.366
 5450POPC   C1B70327   2.221  28.871   6.274
 5450POPC   C2B70328   2.226  28.868   6.728
 5450POPC   C3B70329   1.930  28.909   7.049
 5450POPC   C4B70330   1.979  28.814   7.489
 5451POPC   NC370331  22.137  40.663   5.399
 5451POPC   PO470332  21.886  41.218   5.370
 5451POPC   GL170333  22.078  41.022   5.794
 5451POPC   GL270334  22.344  40.766   5.836
 5451POPC   C1A70335  22.298  41.099   6.217
 5451POPC   D2A70336  22.083  41.037   6.608
 5451POPC   C3A70337  22.082  40.723   6.918
 5451POPC   C4A70338  22.036  40.877   7.316
 5451POPC   C1B70339  22.420  40.605   6.239
 5451POPC   C2B70340  22.505  40.745   6.634
 5451POPC   C3B70341  22.471  41.058   6.972
 5451POPC   C4B70342  22.636  40.942   7.360
 5452POPC   NC370343  23.785  35.414   5.448
 5452POPC   PO470344  23.588  35.846   5.081
 5452POPC   GL170345  23.303  35.527   5.554
 5452POPC   GL270346  23.515  35.245   5.814
 5452POPC   C1A70347  23.281  35.557   6.095
 5452POPC   D2A70348  23.718  35.434   6.337
 5452POPC   C3A70349  23.817  35.524   6.797
 5452POPC   C4A70350  23.805  35.309   7.222
 5452POPC   C1B70351  23.468  35.012   6.201
 5452POPC   C2B70352  23.290  34.950   6.600
 5452POPC   C3B70353  23.462  34.959   7.029
 5452POPC   C4B70354  23.361  34.906   7.477
 5453POPC   NC370355  10.694  19.373   5.082
 5453POPC   PO470356  10.392  18.976   5.645
 5453POPC   GL170357  10.429  19.164   5.982
 5453POPC   GL270358  10.227  19.460   5.855
 5453POPC   C1A70359  10.728  18.976   6.263
 5453POPC   D2A70360  10.735  18.638   6.564
 5453POPC   C3A70361  10.519  18.819   6.893
 5453POPC   C4A70362  10.672  18.856   7.294
 5453POPC   C1B70363  10.291  19.551   6.267
 5453POPC   C2B70364  10.358  19.206   6.532
 5453POPC   C3B70365  10.189  19.207   6.905
 5453POPC   C4B70366  10.248  19.164   7.301
 5454POPC   NC370367  29.482  12.730   5.521
 5454POPC   PO470368  28.985  13.214   5.403
 5454POPC   GL170369  29.025  13.040   5.820
 5454POPC   GL270370  29.068  12.686   5.845
 5454POPC   C1A70371  29.077  13.218   6.240
 5454POPC   D2A70372  29.155  13.041   6.651
 5454POPC   C3A70373  28.806  12.996   6.917
 5454POPC   C4A70374  28.782  13.126   7.316
 5454POPC   C1B70375  29.282  12.736   6.242
 5454POPC   C2B70376  29.566  12.721   6.634
 5454POPC   C3B70377  29.373  12.798   7.052
 5454POPC   C4B70378  28.993  12.613   7.235
 5455POPC   NC370379  10.410  21.140   5.482
 5455POPC   PO470380  10.121  21.760   5.516
 5455POPC   GL170381  10.256  21.526   5.848
 5455POPC   GL270382   9.932  21.329   5.818
 5455POPC   C1A70383  10.548  21.542   6.248
 5455POPC   D2A70384  10.730  21.689   6.675
 5455POPC   C3A70385  10.532  21.592   7.114
 5455POPC   C4A70386  10.486  21.421   7.558
 5455POPC   C1B70387  10.089  21.273   6.242
 5455POPC   C2B70388  10.249  20.974   6.528
 5455POPC   C3B70389  10.093  20.981   6.954
 5455POPC   C4B70390  10.094  21.324   7.242
 5456POPC   NC370391  31.250  35.197   5.037
 5456POPC   PO470392  31.777  35.491   5.528
 5456POPC   GL170393  31.505  35.503   5.857
 5456POPC   GL270394  31.576  35.178   5.894
 5456POPC   C1A70395  31.516  35.565   6.305
 5456POPC   D2A70396  31.823  35.438   6.605
 5456POPC   C3A70397  31.637  35.378   7.005
 5456POPC   C4A70398  31.210  35.526   7.104
 5456POPC   C1B70399  31.508  35.050   6.272
 5456POPC   C2B70400  31.341  35.114   6.653
 5456POPC   C3B70401  31.425  34.921   7.003
 5456POPC   C4B70402  31.533  35.001   7.366
 5457POPC   NC370403  29.285  14.499   5.588
 5457POPC   PO470404  28.718  14.249   5.494
 5457POPC   GL170405  28.971  14.228   5.889
 5457POPC   GL270406  29.089  14.574   6.050
 5457POPC   C1A70407  28.892  14.239   6.352
 5457POPC   D2A70408  29.178  14.501   6.609
 5457POPC   C3A70409  29.267  14.282   7.000
 5457POPC   C4A70410  29.148  14.112   7.414
 5457POPC   C1B70411  29.524  14.571   6.207
 5457POPC   C2B70412  29.715  14.685   6.594
 5457POPC   C3B70413  29.558  14.709   6.991
 5457POPC   C4B70414  29.548  14.486   7.376
 5458POPC   NC370415  13.238  27.123   5.361
 5458POPC   PO470416  13.835  26.800   5.502
 5458POPC   GL170417  13.833  26.746   5.935
 5458POPC   GL270418  13.474  26.742   5.989
 5458POPC   C1A70419  13.745  26.565   6.363
 5458POPC   D2A70420  13.810  26.651   6.765
 5458POPC   C3A70421  13.509  26.720   7.031
 5458POPC   C4A70422  13.373  26.572   7.385
 5458POPC   C1B70423  13.646  27.069   6.295
 5458POPC   C2B70424  13.651  27.129   6.739
 5458POPC   C3B70425  13.649  27.171   7.198
 5458POPC   C4B70426  13.279  27.072   7.407
 5459POPC   NC370427   1.790  20.860   5.395
 5459POPC   PO470428   2.269  20.434   5.501
 5459POPC   GL170429   2.039  20.631   5.821
 5459POPC   GL270430   1.848  20.949   5.876
 5459POPC   C1A70431   2.144  20.731   6.239
 5459POPC   D2A70432   2.217  20.871   6.652
 5459POPC   C3A70433   2.274  20.527   6.982
 5459POPC   C4A70434   2.005  20.411   7.379
 5459POPC   C1B70435   1.713  21.024   6.300
 5459POPC   C2B70436   1.670  20.951   6.748
 5459POPC   C3B70437   1.875  20.823   7.122
 5459POPC   C4B70438   1.731  20.762   7.591
 5460POPC   NC370439   4.527  17.148   5.193
 5460POPC   PO470440   4.136  16.613   5.280
 5460POPC   GL170441   4.282  16.440   5.698
 5460POPC   GL270442   4.483  16.126   5.639
 5460POPC   C1A70443   4.199  16.675   6.114
 5460POPC   D2A70444   4.007  16.877   6.495
 5460POPC   C3A70445   4.305  16.869   6.825
 5460POPC   C4A70446   4.176  16.933   7.246
 5460POPC   C1B70447   4.645  16.221   6.035
 5460POPC   C2B70448   4.628  16.499   6.370
 5460POPC   C3B70449   4.622  16.464   6.830
 5460POPC   C4B70450   4.435  16.513   7.218
 5461POPC   NC370451   9.177   0.026   5.458
 5461POPC   PO470452   8.743  44.520   5.423
 5461POPC   GL170453   8.842  44.403   5.859
 5461POPC   GL270454   9.197  44.354   5.946
 5461POPC   C1A70455   8.782  44.513   6.264
 5461POPC   D2A70456   8.758  44.921   6.415
 5461POPC   C3A70457   8.794  44.980   6.868
 5461POPC   C4A70458   8.770  44.726   7.253
 5461POPC   C1B70459   9.180  44.806   6.119
 5461POPC   C2B70460   9.230  44.964   6.568
 5461POPC   C3B70461   9.265  44.816   7.010
 5461POPC   C4B70462   9.318  44.996   7.407
 5462POPC   NC370463  32.799  32.374   5.270
 5462POPC   PO470464  33.381  32.513   5.409
 5462POPC   GL170465  33.065  32.444   5.705
 5462POPC   GL270466  33.009  32.099   5.661
 5462POPC   C1A70467  32.938  32.587   6.098
 5462POPC   D2A70468  32.909  32.346   6.477
 5462POPC   C3A70469  32.976  32.434   6.914
 5462POPC   C4A70470  32.777  32.177   7.206
 5462POPC   C1B70471  33.214  32.113   6.090
 5462POPC   C2B70472  33.116  31.827   6.440
 5462POPC   C3B70473  33.047  31.886   6.863
 5462POPC   C4B70474  33.178  31.861   7.278
 5463POPC   NC370475   3.662  23.467   5.213
 5463POPC   PO470476   3.182  23.924   5.299
 5463POPC   GL170477   3.498  23.696   5.646
 5463POPC   GL270478   3.455  23.332   5.688
 5463POPC   C1A70479   3.701  23.564   6.089
 5463POPC   D2A70480   3.484  23.621   6.494
 5463POPC   C3A70481   3.710  23.675   6.883
 5463POPC   C4A70482   3.661  23.682   7.343
 5463POPC   C1B70483   3.205  23.485   6.046
 5463POPC   C2B70484   3.054  23.338   6.460
 5463POPC   C3B70485   3.102  23.390   6.905
 5463POPC   C4B70486   3.170  23.665   7.235
 5464POPC   NC370487  10.302  13.661   5.196
 5464POPC   PO470488  10.838  13.951   5.456
 5464POPC   GL170489  10.832  13.745   5.885
 5464POPC   GL270490  10.580  13.461   5.855
 5464POPC   C1A70491  10.676  13.785   6.313
 5464POPC   D2A70492  10.509  14.091   6.621
 5464POPC   C3A70493  10.640  13.940   7.009
 5464POPC   C4A70494  10.637  14.059   7.436
 5464POPC   C1B70495  10.377  13.358   6.294
 5464POPC   C2B70496  10.395  13.509   6.748
 5464POPC   C3B70497  10.481  13.482   7.197
 5464POPC   C4B70498  10.318  13.254   7.551
 5465POPC   NC370499  43.211  27.246   5.397
 5465POPC   PO470500  42.932  26.657   5.542
 5465POPC   GL170501  42.989  27.022   5.828
 5465POPC   GL270502  43.358  26.969   5.801
 5465POPC   C1A70503  42.931  27.081   6.289
 5465POPC   D2A70504  42.979  26.754   6.602
 5465POPC   C3A70505  43.057  26.865   7.028
 5465POPC   C4A70506  42.717  26.788   7.302
 5465POPC   C1B70507  43.426  27.158   6.185
 5465POPC   C2B70508  43.364  27.085   6.604
 5465POPC   C3B70509  43.434  27.215   6.980
 5465POPC   C4B70510  43.477  27.093   7.414
 5466POPC   NC370511  21.730  13.981   5.480
 5466POPC   PO470512  21.161  13.709   5.506
 5466POPC   GL170513  21.456  13.694   5.905
 5466POPC   GL270514  21.789  13.848   5.979
 5466POPC   C1A70515  21.438  13.478   6.325
 5466POPC   D2A70516  21.344  13.425   6.772
 5466POPC   C3A70517  21.285  13.773   7.078
 5466POPC   C4A70518  21.227  13.910   7.524
 5466POPC   C1B70519  21.933  13.487   6.260
 5466POPC   C2B70520  21.856  13.510   6.703
 5466POPC   C3B70521  21.725  13.458   7.130
 5466POPC   C4B70522  21.702  13.809   7.369
 5467POPC   NC370523   0.853  25.630   5.168
 5467POPC   PO470524   0.263  25.664   5.452
 5467POPC   GL170525   0.513  25.520   5.819
 5467POPC   GL270526   0.311  25.774   5.961
 5467POPC   C1A70527   0.536  25.273   6.197
 5467POPC   D2A70528   0.754  25.127   6.556
 5467POPC   C3A70529   0.619  25.284   6.941
 5467POPC   C4A70530   0.552  25.113   7.335
 5467POPC   C1B70531   0.319  25.701   6.364
 5467POPC   C2B70532   0.303  25.673   6.796
 5467POPC   C3B70533   0.256  25.710   7.200
 5467POPC   C4B70534   0.203  25.496   7.575
 5468POPC   NC370535   3.766  25.251   5.406
 5468POPC   PO470536   3.371  24.751   5.220
 5468POPC   GL170537   3.364  24.933   5.676
 5468POPC   GL270538   3.373  25.289   5.749
 5468POPC   C1A70539   3.402  24.953   6.148
 5468POPC   D2A70540   3.615  25.118   6.543
 5468POPC   C3A70541   3.437  24.975   6.984
 5468POPC   C4A70542   3.532  25.158   7.414
 5468POPC   C1B70543   3.433  25.517   6.154
 5468POPC   C2B70544   3.297  25.497   6.594
 5468POPC   C3B70545   3.562  25.471   6.946
 5468POPC   C4B70546   3.514  25.654   7.324
 5469POPC   NC370547   1.470  12.214   5.460
 5469POPC   PO470548   0.823  12.133   5.379
 5469POPC   GL170549   1.061  11.963   5.729
 5469POPC   GL270550   1.380  11.799   5.757
 5469POPC   C1A70551   1.240  12.245   6.065
 5469POPC   D2A70552   1.051  12.335   6.465
 5469POPC   C3A70553   1.072  12.244   6.896
 5469POPC   C4A70554   1.369  12.319   7.221
 5469POPC   C1B70555   1.234  11.775   6.203
 5469POPC   C2B70556   1.400  11.954   6.587
 5469POPC   C3B70557   1.313  11.818   7.027
 5469POPC   C4B70558   0.907  11.747   7.249
 5470POPC   NC370559   5.374   6.037   5.750
 5470POPC   PO470560   5.924   6.164   5.361
 5470POPC   GL170561   5.904   5.965   5.802
 5470POPC   GL270562   5.749   5.614   5.810
 5470POPC   C1A70563   5.854   6.148   6.238
 5470POPC   D2A70564   6.054   6.215   6.653
 5470POPC   C3A70565   6.029   6.071   7.084
 5470POPC   C4A70566   6.023   5.649   7.227
 5470POPC   C1B70567   5.535   5.657   6.233
 5470POPC   C2B70568   5.612   5.892   6.612
 5470POPC   C3B70569   5.582   5.798   7.022
 5470POPC   C4B70570   5.564   6.064   7.343
 5471POPC   NC370571  11.030  24.198   5.313
 5471POPC   PO470572  11.260  24.799   5.339
 5471POPC   GL170573  11.252  24.550   5.732
 5471POPC   GL270574  11.092  24.226   5.820
 5471POPC   C1A70575  11.187  24.713   6.150
 5471POPC   D2A70576  10.962  24.655   6.511
 5471POPC   C3A70577  11.156  24.501   6.912
 5471POPC   C4A70578  11.275  24.644   7.331
 5471POPC   C1B70579  11.344  24.231   6.203
 5471POPC   C2B70580  11.452  24.161   6.629
 5471POPC   C3B70581  11.220  24.003   6.969
 5471POPC   C4B70582  11.083  24.185   7.329
 5472POPC   NC370583  16.468   1.133   5.378
 5472POPC   PO470584  15.778   1.424   5.437
 5472POPC   GL170585  15.823   1.095   5.774
 5472POPC   GL270586  16.173   0.973   5.791
 5472POPC   C1A70587  15.860   1.130   6.226
 5472POPC   D2A70588  15.932   1.423   6.550
 5472POPC   C3A70589  15.956   1.283   6.972
 5472POPC   C4A70590  15.836   1.370   7.390
 5472POPC   C1B70591  16.252   0.780   6.202
 5472POPC   C2B70592  16.149   0.917   6.629
 5472POPC   C3B70593  16.137   0.815   7.067
 5472POPC   C4B70594  15.941   0.813   7.501
 5473POPC   NC370595  11.617  22.337   5.138
 5473POPC   PO470596  10.946  22.335   5.446
 5473POPC   GL170597  11.067  22.158   5.848
 5473POPC   GL270598  11.279  21.873   5.799
 5473POPC   C1A70599  11.308  22.232   6.227
 5473POPC   D2A70600  11.501  22.343   6.653
 5473POPC   C3A70601  11.291  22.312   7.063
 5473POPC   C4A70602  11.467  22.369   7.496
 5473POPC   C1B70603  11.063  21.777   6.216
 5473POPC   C2B70604  11.187  21.949   6.630
 5473POPC   C3B70605  11.439  21.828   6.994
 5473POPC   C4B70606  11.356  21.882   7.418
 5474POPC   NC370607  15.788   9.854   5.655
 5474POPC   PO470608  16.316   9.621   5.272
 5474POPC   GL170609  16.295   9.897   5.747
 5474POPC   GL270610  16.300  10.281   5.735
 5474POPC   C1A70611  16.311   9.765   6.243
 5474POPC   D2A70612  16.373   9.427   6.591
 5474POPC   C3A70613  16.089   9.448   6.946
 5474POPC   C4A70614  16.155   9.556   7.362
 5474POPC   C1B70615  16.085  10.221   6.148
 5474POPC   C2B70616  16.237  10.238   6.596
 5474POPC   C3B70617  16.159  10.041   7.036
 5474POPC   C4B70618  15.769   9.926   7.303
 5475POPC   NC370619  35.712   0.794   5.281
 5475POPC   PO470620  35.947   1.450   5.181
 5475POPC   GL170621  36.100   1.335   5.668
 5475POPC   GL270622  36.014   1.015   5.899
 5475POPC   C1A70623  36.219   1.438   6.106
 5475POPC   D2A70624  36.279   1.483   6.558
 5475POPC   C3A70625  36.124   1.158   6.823
 5475POPC   C4A70626  36.112   1.180   7.256
 5475POPC   C1B70627  36.213   0.962   6.333
 5475POPC   C2B70628  36.384   0.694   6.692
 5475POPC   C3B70629  36.431   0.762   7.162
 5475POPC   C4B70630  36.191   0.830   7.572
 5476POPC   NC370631  39.144  18.814   5.234
 5476POPC   PO470632  39.500  19.362   5.183
 5476POPC   GL170633  39.327  19.152   5.622
 5476POPC   GL270634  39.152  18.855   5.726
 5476POPC   C1A70635  39.116  19.207   6.094
 5476POPC   D2A70636  38.948  19.259   6.562
 5476POPC   C3A70637  39.110  19.418   6.952
 5476POPC   C4A70638  39.277  19.205   7.285
 5476POPC   C1B70639  39.085  18.679   6.122
 5476POPC   C2B70640  39.194  18.840   6.534
 5476POPC   C3B70641  39.084  18.874   6.966
 5476POPC   C4B70642  39.178  18.643   7.367
 5477POPC   NC370643   6.799   7.101   5.362
 5477POPC   PO470644   6.553   7.704   5.399
 5477POPC   GL170645   6.538   7.407   5.695
 5477POPC   GL270646   6.862   7.448   5.807
 5477POPC   C1A70647   6.420   7.441   6.135
 5477POPC   D2A70648   6.464   7.762   6.480
 5477POPC   C3A70649   6.494   7.522   6.877
 5477POPC   C4A70650   6.643   7.177   7.198
 5477POPC   C1B70651   6.860   7.703   6.171
 5477POPC   C2B70652   6.934   7.620   6.616
 5477POPC   C3B70653   7.004   7.521   7.038
 5477POPC   C4B70654   7.122   7.549   7.471
 5478POPC   NC370655  28.019  23.838   5.449
 5478POPC   PO470656  28.640  23.510   5.323
 5478POPC   GL170657  28.712  23.545   5.810
 5478POPC   GL270658  28.510  23.839   5.923
 5478POPC   C1A70659  28.750  23.599   6.288
 5478POPC   D2A70660  28.472  23.577   6.644
 5478POPC   C3A70661  28.596  23.823   7.002
 5478POPC   C4A70662  28.721  23.829   7.418
 5478POPC   C1B70663  28.211  23.639   6.201
 5478POPC   C2B70664  27.972  23.705   6.597
 5478POPC   C3B70665  28.097  23.653   7.020
 5478POPC   C4B70666  28.283  23.610   7.386
 5479POPC   NC370667  36.735  28.284   5.326
 5479POPC   PO470668  37.079  28.866   5.232
 5479POPC   GL170669  36.961  28.602   5.670
 5479POPC   GL270670  37.102  28.252   5.754
 5479POPC   C1A70671  36.779  28.423   6.104
 5479POPC   D2A70672  36.836  28.546   6.579
 5479POPC   C3A70673  36.907  28.392   7.040
 5479POPC   C4A70674  36.808  28.387   7.534
 5479POPC   C1B70675  37.197  28.124   6.229
 5479POPC   C2B70676  37.230  28.129   6.714
 5479POPC   C3B70677  37.341  28.126   7.172
 5479POPC   C4B70678  37.255  28.135   7.630
 5480POPC   NC370679  22.912   7.174   5.323
 5480POPC   PO470680  23.237   7.687   5.577
 5480POPC   GL170681  23.132   7.595   5.932
 5480POPC   GL270682  22.815   7.455   5.844
 5480POPC   C1A70683  23.021   7.724   6.318
 5480POPC   D2A70684  22.773   7.616   6.654
 5480POPC   C3A70685  22.928   7.556   7.053
 5480POPC   C4A70686  23.212   7.501   7.389
 5480POPC   C1B70687  22.855   7.253   6.227
 5480POPC   C2B70688  22.844   7.096   6.635
 5480POPC   C3B70689  22.993   7.071   7.035
 5480POPC   C4B70690  22.764   7.178   7.386
 5481POPC   NC370691   9.138  30.738   5.386
 5481POPC   PO470692   8.495  30.428   5.283
 5481POPC   GL170693   8.658  30.506   5.748
 5481POPC   GL270694   8.899  30.798   5.828
 5481POPC   C1A70695   8.743  30.526   6.237
 5481POPC   D2A70696   8.998  30.518   6.665
 5481POPC   C3A70697   8.848  30.697   7.119
 5481POPC   C4A70698   8.664  30.671   7.601
 5481POPC   C1B70699   9.079  31.015   6.194
 5481POPC   C2B70700   9.308  30.985   6.584
 5481POPC   C3B70701   9.468  30.650   6.847
 5481POPC   C4B70702   9.337  30.468   7.241
 5482POPC   NC370703  42.955  38.274   5.578
 5482POPC   PO470704  43.082  38.835   5.523
 5482POPC   GL170705  43.397  38.696   5.826
 5482POPC   GL270706  43.399  38.328   5.933
 5482POPC   C1A70707  43.291  38.732   6.263
 5482POPC   D2A70708  43.050  38.545   6.610
 5482POPC   C3A70709  43.300  38.534   6.988
 5482POPC   C4A70710  43.404  38.872   7.287
 5482POPC   C1B70711  43.049  38.160   6.209
 5482POPC   C2B70712  42.765  38.123   6.555
 5482POPC   C3B70713  42.962  38.125   6.956
 5482POPC   C4B70714  42.729  38.138   7.314
 5483POPC   NC370715  16.207  31.081   5.619
 5483POPC   PO470716  16.661  31.464   5.240
 5483POPC   GL170717  16.493  31.545   5.735
 5483POPC   GL270718  16.416  31.250   6.037
 5483POPC   C1A70719  16.752  31.597   6.131
 5483POPC   D2A70720  16.873  31.538   6.570
 5483POPC   C3A70721  16.696  31.577   6.976
 5483POPC   C4A70722  16.918  31.753   7.333
 5483POPC   C1B70723  16.800  31.078   6.265
 5483POPC   C2B70724  17.074  31.072   6.626
 5483POPC   C3B70725  16.869  31.031   7.009
 5483POPC   C4B70726  16.578  31.201   7.293
 5484POPC   NC370727  32.017  30.176   5.315
 5484POPC   PO470728  32.379  29.619   5.317
 5484POPC   GL170729  32.299  29.940   5.679
 5484POPC   GL270730  31.947  30.041   5.801
 5484POPC   C1A70731  32.374  29.952   6.141
 5484POPC   D2A70732  32.577  30.061   6.541
 5484POPC   C3A70733  32.428  29.950   6.925
 5484POPC   C4A70734  32.178  29.660   7.174
 5484POPC   C1B70735  32.011  30.322   6.187
 5484POPC   C2B70736  32.185  30.408   6.597
 5484POPC   C3B70737  32.203  30.391   7.031
 5484POPC   C4B70738  32.123  30.144   7.355
 5485POPC   NC370739   6.985   8.082   5.400
 5485POPC   PO470740   6.570   8.573   5.125
 5485POPC   GL170741   6.444   8.362   5.594
 5485POPC   GL270742   6.663   8.090   5.799
 5485POPC   C1A70743   6.363   8.393   6.097
 5485POPC   D2A70744   6.501   8.407   6.567
 5485POPC   C3A70745   6.476   8.060   6.901
 5485POPC   C4A70746   6.235   8.002   7.271
 5485POPC   C1B70747   6.867   8.218   6.220
 5485POPC   C2B70748   6.949   8.125   6.679
 5485POPC   C3B70749   6.960   8.060   7.145
 5485POPC   C4B70750   7.001   8.455   7.416
 5486POPC   NC370751  22.718  43.874   5.026
 5486POPC   PO470752  23.064  43.540   5.457
 5486POPC   GL170753  23.082  43.781   5.827
 5486POPC   GL270754  23.354  44.056   5.873
 5486POPC   C1A70755  22.926  43.729   6.246
 5486POPC   D2A70756  23.158  43.709   6.618
 5486POPC   C3A70757  22.949  43.900   6.950
 5486POPC   C4A70758  22.926  43.836   7.367
 5486POPC   C1B70759  23.282  44.134   6.323
 5486POPC   C2B70760  23.381  44.176   6.784
 5486POPC   C3B70761  23.362  44.070   7.238
 5486POPC   C4B70762  23.243  44.193   7.658
 5487POPC   NC370763   8.011   1.516   5.509
 5487POPC   PO470764   8.464   1.131   5.229
 5487POPC   GL170765   8.489   1.171   5.690
 5487POPC   GL270766   8.153   1.169   5.820
 5487POPC   C1A70767   8.479   1.372   6.140
 5487POPC   D2A70768   8.182   1.456   6.499
 5487POPC   C3A70769   8.292   1.465   6.952
 5487POPC   C4A70770   8.325   1.260   7.372
 5487POPC   C1B70771   7.848   1.316   6.114
 5487POPC   C2B70772   7.723   1.211   6.513
 5487POPC   C3B70773   7.773   1.348   6.921
 5487POPC   C4B70774   7.804   1.303   7.346
 5488POPC   NC370775  17.896   5.890   5.502
 5488POPC   PO470776  18.488   5.569   5.361
 5488POPC   GL170777  18.464   5.819   5.766
 5488POPC   GL270778  18.209   6.045   5.882
 5488POPC   C1A70779  18.580   5.925   6.217
 5488POPC   D2A70780  18.637   5.803   6.670
 5488POPC   C3A70781  18.628   6.089   7.026
 5488POPC   C4A70782  18.590   6.001   7.500
 5488POPC   C1B70783  18.088   5.895   6.316
 5488POPC   C2B70784  17.876   5.731   6.675
 5488POPC   C3B70785  17.897   5.891   7.071
 5488POPC   C4B70786  18.166   6.145   7.205
 5489POPC   NC370787  24.837  19.401   5.531
 5489POPC   PO470788  24.280  18.986   5.424
 5489POPC   GL170789  24.380  19.276   5.755
 5489POPC   GL270790  24.648  19.091   5.871
 5489POPC   C1A70791  24.416  19.455   6.178
 5489POPC   D2A70792  24.623  19.288   6.540
 5489POPC   C3A70793  24.512  19.392   6.974
 5489POPC   C4A70794  24.517  19.158   7.371
 5489POPC   C1B70795  24.374  18.935   6.177
 5489POPC   C2B70796  24.354  18.806   6.567
 5489POPC   C3B70797  24.515  18.860   6.947
 5489POPC   C4B70798  24.391  18.649   7.306
 5490POPC   NC370799  26.636  20.163   5.578
 5490POPC   PO470800  26.950  19.606   5.344
 5490POPC   GL170801  26.893  19.745   5.780
 5490POPC   GL270802  27.085  20.007   5.868
 5490POPC   C1A70803  26.784  19.721   6.241
 5490POPC   D2A70804  26.896  19.816   6.696
 5490POPC   C3A70805  26.740  19.721   7.122
 5490POPC   C4A70806  26.768  19.676   7.592
 5490POPC   C1B70807  27.068  20.161   6.288
 5490POPC   C2B70808  27.308  20.129   6.670
 5490POPC   C3B70809  27.203  19.980   7.095
 5490POPC   C4B70810  26.882  20.120   7.401
 5491POPC   NC370811   5.813  31.653   5.500
 5491POPC   PO470812   6.243  31.196   5.430
 5491POPC   GL170813   5.954  31.227   5.807
 5491POPC   GL270814   5.640  31.429   5.909
 5491POPC   C1A70815   5.977  31.328   6.262
 5491POPC   D2A70816   5.840  31.496   6.659
 5491POPC   C3A70817   6.170  31.448   6.935
 5491POPC   C4A70818   6.163  31.099   7.187
 5491POPC   C1B70819   5.473  31.827   6.134
 5491POPC   C2B70820   5.422  32.001   6.574
 5491POPC   C3B70821   5.513  31.767   6.958
 5491POPC   C4B70822   5.750  31.452   7.217
 5492POPC   NC370823  19.082  29.513   5.507
 5492POPC   PO470824  19.540  28.990   5.557
 5492POPC   GL170825  19.217  29.028   5.865
 5492POPC   GL270826  18.857  29.163   5.837
 5492POPC   C1A70827  19.114  29.120   6.272
 5492POPC   D2A70828  19.156  29.238   6.666
 5492POPC   C3A70829  18.921  28.980   6.893
 5492POPC   C4A70830  18.818  28.986   7.284
 5492POPC   C1B70831  18.771  29.488   6.208
 5492POPC   C2B70832  18.790  29.597   6.675
 5492POPC   C3B70833  18.571  29.385   7.046
 5492POPC   C4B70834  18.366  28.942   7.074
 5493POPC   NC370835  36.214  42.511   5.327
 5493POPC   PO470836  35.812  41.923   5.488
 5493POPC   GL170837  36.004  42.266   5.776
 5493POPC   GL270838  35.915  42.647   5.729
 5493POPC   C1A70839  36.027  42.218   6.241
 5493POPC   D2A70840  35.875  41.977   6.613
 5493POPC   C3A70841  36.022  42.177   6.995
 5493POPC   C4A70842  36.279  42.026   7.318
 5493POPC   C1B70843  36.229  42.687   6.056
 5493POPC   C2B70844  36.202  42.690   6.502
 5493POPC   C3B70845  36.456  42.644   6.867
 5493POPC   C4B70846  36.497  42.478   7.282
 5494POPC   NC370847  33.578  18.253   5.489
 5494POPC   PO470848  34.192  18.200   5.466
 5494POPC   GL170849  33.950  18.214   5.836
 5494POPC   GL270850  33.812  18.566   5.875
 5494POPC   C1A70851  33.943  18.297   6.283
 5494POPC   D2A70852  33.592  18.158   6.561
 5494POPC   C3A70853  33.699  18.023   6.981
 5494POPC   C4A70854  34.065  18.028   7.271
 5494POPC   C1B70855  33.519  18.591   6.270
 5494POPC   C2B70856  33.510  18.623   6.752
 5494POPC   C3B70857  33.614  18.481   7.196
 5494POPC   C4B70858  33.331  18.383   7.557
 5495POPC   NC370859  35.953  13.870   5.478
 5495POPC   PO470860  36.047  13.217   5.318
 5495POPC   GL170861  36.121  13.428   5.737
 5495POPC   GL270862  36.355  13.732   5.790
 5495POPC   C1A70863  35.938  13.570   6.135
 5495POPC   D2A70864  36.180  13.555   6.527
 5495POPC   C3A70865  36.012  13.661   6.934
 5495POPC   C4A70866  35.987  13.452   7.327
 5495POPC   C1B70867  36.217  13.995   6.170
 5495POPC   C2B70868  36.394  14.032   6.561
 5495POPC   C3B70869  36.292  14.098   6.960
 5495POPC   C4B70870  36.257  13.945   7.374
 5496POPC   NC370871  31.914  38.919   5.305
 5496POPC   PO470872  31.260  39.108   5.408
 5496POPC   GL170873  31.215  39.323   5.809
 5496POPC   GL270874  31.553  39.389   5.950
 5496POPC   C1A70875  31.245  39.197   6.267
 5496POPC   D2A70876  31.516  39.170   6.616
 5496POPC   C3A70877  31.385  39.308   7.006
 5496POPC   C4A70878  31.559  39.577   7.303
 5496POPC   C1B70879  31.761  39.019   6.180
 5496POPC   C2B70880  31.912  38.803   6.578
 5496POPC   C3B70881  31.714  38.854   6.981
 5496POPC   C4B70882  31.808  39.129   7.313
 5497POPC   NC370883  13.113  22.135   5.129
 5497POPC   PO470884  13.595  21.970   5.606
 5497POPC   GL170885  13.629  22.318   5.883
 5497POPC   GL270886  13.310  22.356   5.941
 5497POPC   C1A70887  13.914  22.402   6.250
 5497POPC   D2A70888  14.008  22.166   6.622
 5497POPC   C3A70889  13.805  22.206   7.004
 5497POPC   C4A70890  13.739  22.072   7.406
 5497POPC   C1B70891  13.415  22.275   6.334
 5497POPC   C2B70892  13.561  22.475   6.661
 5497POPC   C3B70893  13.404  22.487   7.094
 5497POPC   C4B70894  13.492  22.566   7.508
 5498POPC   NC370895  16.790  31.871   5.429
 5498POPC   PO470896  17.085  32.489   5.508
 5498POPC   GL170897  16.876  32.262   5.846
 5498POPC   GL270898  17.029  31.928   5.875
 5498POPC   C1A70899  16.549  32.071   6.104
 5498POPC   D2A70900  16.454  31.829   6.493
 5498POPC   C3A70901  16.716  32.052   6.814
 5498POPC   C4A70902  16.633  32.170   7.253
 5498POPC   C1B70903  17.014  32.011   6.327
 5498POPC   C2B70904  17.140  32.290   6.648
 5498POPC   C3B70905  17.091  32.321   7.088
 5498POPC   C4B70906  17.161  32.183   7.498
 5499POPC   NC370907   4.079  32.866   5.356
 5499POPC   PO470908   4.561  33.287   5.200
 5499POPC   GL170909   4.319  33.242   5.650
 5499POPC   GL270910   4.262  32.874   5.825
 5499POPC   C1A70911   4.362  33.228   6.159
 5499POPC   D2A70912   4.540  32.916   6.491
 5499POPC   C3A70913   4.506  33.025   6.941
 5499POPC   C4A70914   4.334  33.029   7.382
 5499POPC   C1B70915   4.061  32.783   6.264
 5499POPC   C2B70916   4.083  32.841   6.742
 5499POPC   C3B70917   3.932  33.165   7.097
 5499POPC   C4B70918   3.858  33.050   7.574
 5500POPC   NC370919  32.847  25.804   5.511
 5500POPC   PO470920  33.457  25.752   5.507
 5500POPC   GL170921  33.179  25.960   5.856
 5500POPC   GL270922  32.838  26.205   5.843
 5500POPC   C1A70923  32.936  25.892   6.235
 5500POPC   D2A70924  32.607  25.853   6.515
 5500POPC   C3A70925  32.814  25.880   6.865
 5500POPC   C4A70926  32.959  25.854   7.250
 5500POPC   C1B70927  32.629  26.311   6.272
 5500POPC   C2B70928  32.575  26.331   6.741
 5500POPC   C3B70929  32.525  26.178   7.160
 5500POPC   C4B70930  32.494  26.195   7.601
 5501POPC   NC370931  35.960   0.093   5.668
 5501POPC   PO470932  36.031  44.590   5.220
 5501POPC   GL170933  36.211  44.632   5.719
 5501POPC   GL270934  36.271  44.915   6.017
 5501POPC   C1A70935  36.045  44.510   6.194
 5501POPC   D2A70936  36.150  44.679   6.623
 5501POPC   C3A70937  35.993  44.488   6.996
 5501POPC   C4A70938  36.152  44.147   7.257
 5501POPC   C1B70939  35.897   0.023   6.322
 5501POPC   C2B70940  35.699  44.895   6.740
 5501POPC   C3B70941  35.708  44.922   7.190
 5501POPC   C4B70942  35.972  44.952   7.546
 5502POPC   NC370943  42.022   4.122   5.225
 5502POPC   PO470944  41.460   4.559   5.415
 5502POPC   GL170945  41.561   4.381   5.786
 5502POPC   GL270946  41.663   4.063   5.711
 5502POPC   C1A70947  41.452   4.491   6.208
 5502POPC   D2A70948  41.329   4.314   6.630
 5502POPC   C3A70949  41.412   4.571   6.966
 5502POPC   C4A70950  41.718   4.712   7.203
 5502POPC   C1B70951  41.481   3.986   6.119
 5502POPC   C2B70952  41.688   3.977   6.514
 5502POPC   C3B70953  41.645   3.976   6.951
 5502POPC   C4B70954  41.462   4.200   7.301
 5503POPC   NC370955   4.389  22.138   5.460
 5503POPC   PO470956   3.703  22.390   5.458
 5503POPC   GL170957   3.942  22.260   5.811
 5503POPC   GL270958   4.176  22.491   5.764
 5503POPC   C1A70959   4.083  21.988   6.157
 5503POPC   D2A70960   4.363  21.891   6.489
 5503POPC   C3A70961   4.208  21.999   6.871
 5503POPC   C4A70962   4.246  22.004   7.308
 5503POPC   C1B70963   4.263  22.537   6.202
 5503POPC   C2B70964   4.288  22.479   6.646
 5503POPC   C3B70965   4.521  22.368   7.033
 5503POPC   C4B70966   4.421  22.491   7.430
 5504POPC   NC370967  10.245  36.152   5.376
 5504POPC   PO470968  10.841  36.431   5.324
 5504POPC   GL170969  10.570  36.253   5.767
 5504POPC   GL270970  10.190  36.107   5.866
 5504POPC   C1A70971  10.568  36.056   6.222
 5504POPC   D2A70972  10.776  36.109   6.654
 5504POPC   C3A70973  10.574  36.046   7.063
 5504POPC   C4A70974  10.694  36.238   7.456
 5504POPC   C1B70975  10.182  36.383   6.233
 5504POPC   C2B70976  10.299  36.288   6.643
 5504POPC   C3B70977  10.100  36.297   7.023
 5504POPC   C4B70978  10.203  36.156   7.425
 5505POPC   NC370979  21.109  30.185   5.203
 5505POPC   PO470980  21.598  29.881   5.537
 5505POPC   GL170981  21.321  29.879   5.846
 5505POPC   GL270982  21.165  30.189   5.746
 5505POPC   C1A70983  21.429  29.903   6.278
 5505POPC   D2A70984  21.314  29.810   6.701
 5505POPC   C3A70985  21.516  29.860   7.101
 5505POPC   C4A70986  21.234  29.882   7.481
 5505POPC   C1B70987  21.138  30.305   6.189
 5505POPC   C2B70988  21.050  30.247   6.649
 5505POPC   C3B70989  21.145  30.223   7.109
 5505POPC   C4B70990  21.350  30.416   7.509
 5506POPC   NC370991  16.092  34.180   5.456
 5506POPC   PO470992  15.755  34.666   5.368
 5506POPC   GL170993  15.810  34.473   5.806
 5506POPC   GL270994  16.155  34.516   5.848
 5506POPC   C1A70995  15.895  34.510   6.286
 5506POPC   D2A70996  15.923  34.309   6.725
 5506POPC   C3A70997  15.887  34.472   7.160
 5506POPC   C4A70998  15.794  34.240   7.532
 5506POPC   C1B70999  16.417  34.434   6.238
 5506POPC   C2B71000  16.440  34.269   6.700
 5506POPC   C3B71001  16.423  34.481   7.125
 5506POPC   C4B71002  16.535  34.868   7.384
 5507POPC   NC371003  30.923  15.421   5.418
 5507POPC   PO471004  30.497  14.873   5.464
 5507POPC   GL171005  30.656  15.110   5.781
 5507POPC   GL271006  30.990  14.989   5.754
 5507POPC   C1A71007  30.532  15.326   6.164
 5507POPC   D2A71008  30.710  15.261   6.575
 5507POPC   C3A71009  30.479  15.296   6.949
 5507POPC   C4A71010  30.647  15.425   7.318
 5507POPC   C1B71011  30.974  15.049   6.190
 5507POPC   C2B71012  30.983  14.828   6.590
 5507POPC   C3B71013  30.916  15.028   6.995
 5507POPC   C4B71014  30.970  15.026   7.424
 5508POPC   NC371015  13.937  32.573   5.546
 5508POPC   PO471016  13.641  32.008   5.236
 5508POPC   GL171017  13.544  32.056   5.712
 5508POPC   GL271018  13.901  32.005   5.739
 5508POPC   C1A71019  13.519  32.180   6.206
 5508POPC   D2A71020  13.576  31.978   6.640
 5508POPC   C3A71021  13.544  32.206   7.042
 5508POPC   C4A71022  13.610  32.214   7.446
 5508POPC   C1B71023  14.025  31.997   6.151
 5508POPC   C2B71024  13.970  32.255   6.458
 5508POPC   C3B71025  14.010  32.229   6.847
 5508POPC   C4B71026  14.095  32.288   7.243
 5509POPC   NC371027  10.605  12.027   5.427
 5509POPC   PO471028  10.933  12.478   5.687
 5509POPC   GL171029  10.541  12.457   5.919
 5509POPC   GL271030  10.430  12.114   5.921
 5509POPC   C1A71031  10.340  12.450   6.360
 5509POPC   D2A71032  10.241  12.099   6.680
 5509POPC   C3A71033  10.462  11.985   7.102
 5509POPC   C4A71034  10.381  11.987   7.591
 5509POPC   C1B71035  10.716  12.118   6.295
 5509POPC   C2B71036  10.847  12.107   6.745
 5509POPC   C3B71037  10.928  11.797   7.067
 5509POPC   C4B71038  10.862  11.877   7.488
 5510POPC   NC371039  39.457  16.433   5.500
 5510POPC   PO471040  39.961  16.157   5.217
 5510POPC   GL171041  39.901  16.172   5.694
 5510POPC   GL271042  39.608  16.156   5.888
 5510POPC   C1A71043  40.006  15.940   6.119
 5510POPC   D2A71044  40.194  16.007   6.553
 5510POPC   C3A71045  39.927  15.902   6.946
 5510POPC   C4A71046  39.680  15.583   7.141
 5510POPC   C1B71047  39.752  16.353   6.266
 5510POPC   C2B71048  39.822  16.325   6.688
 5510POPC   C3B71049  39.928  16.398   7.115
 5510POPC   C4B71050  40.323  16.165   7.182
 5511POPC   NC371051  36.100  20.389   5.513
 5511POPC   PO471052  36.176  19.864   5.843
 5511POPC   GL171053  36.227  20.310   6.019
 5511POPC   GL271054  36.394  20.616   5.859
 5511POPC   C1A71055  36.146  20.631   6.335
 5511POPC   D2A71056  35.986  20.810   6.727
 5511POPC   C3A71057  36.076  20.528   7.061
 5511POPC   C4A71058  36.209  20.130   7.164
 5511POPC   C1B71059  36.484  20.977   6.142
 5511POPC   C2B71060  36.533  20.894   6.593
 5511POPC   C3B71061  36.367  20.925   7.055
 5511POPC   C4B71062  35.997  21.022   7.365
 5512POPC   NC371063  28.494  13.205   5.382
 5512POPC   PO471064  28.270  12.517   5.459
 5512POPC   GL171065  28.291  12.835   5.817
 5512POPC   GL271066  28.509  13.161   5.891
 5512POPC   C1A71067  28.265  12.680   6.254
 5512POPC   D2A71068  28.502  12.644   6.654
 5512POPC   C3A71069  28.266  12.679   7.032
 5512POPC   C4A71070  28.456  12.748   7.436
 5512POPC   C1B71071  28.168  13.169   6.210
 5512POPC   C2B71072  28.168  13.074   6.663
 5512POPC   C3B71073  28.319  13.183   7.108
 5512POPC   C4B71074  28.208  13.203   7.546
 5513POPC   NC371075  16.134  14.363   5.065
 5513POPC   PO471076  15.762  14.279   5.320
 5513POPC   GL171077  15.850  14.497   5.752
 5513POPC   GL271078  16.175  14.371   5.873
 5513POPC   C1A71079  15.896  14.631   6.221
 5513POPC   D2A71080  16.140  14.457   6.595
 5513POPC   C3A71081  15.926  14.369   6.990
 5513POPC   C4A71082  15.564  14.200   7.202
 5513POPC   C1B71083  15.941  14.125   6.192
 5513POPC   C2B71084  16.061  13.947   6.589
 5513POPC   C3B71085  16.169  13.927   7.030
 5513POPC   C4B71086  15.943  13.861   7.407
 5514POPC   NC371087  39.923  40.241   5.620
 5514POPC   PO471088  39.976  39.845   5.054
 5514POPC   GL171089  40.013  39.714   5.553
 5514POPC   GL271090  40.301  39.882   5.708
 5514POPC   C1A71091  39.996  39.729   6.081
 5514POPC   D2A71092  40.142  39.971   6.481
 5514POPC   C3A71093  40.012  39.944   6.938
 5514POPC   C4A71094  39.872  39.982   7.368
 5514POPC   C1B71095  40.453  40.161   6.083
 5514POPC   C2B71096  40.462  40.391   6.451
 5514POPC   C3B71097  40.365  40.324   6.849
 5514POPC   C4B71098  40.367  40.174   7.242
 5515POPC   NC371099  23.387  37.559   5.528
 5515POPC   PO471100  22.692  37.693   5.490
 5515POPC   GL171101  22.914  37.606   5.825
 5515POPC   GL271102  23.129  37.884   5.817
 5515POPC   C1A71103  22.760  37.579   6.240
 5515POPC   D2A71104  22.606  37.809   6.589
 5515POPC   C3A71105  22.768  37.570   6.903
 5515POPC   C4A71106  22.929  37.602   7.289
 5515POPC   C1B71107  23.276  37.653   6.191
 5515POPC   C2B71108  23.137  37.741   6.577
 5515POPC   C3B71109  23.291  37.652   6.921
 5515POPC   C4B71110  23.426  37.683   7.309
 5516POPC   NC371111  15.432  30.847   5.408
 5516POPC   PO471112  16.114  30.501   5.471
 5516POPC   GL171113  15.766  30.562   5.750
 5516POPC   GL271114  15.685  30.890   5.885
 5516POPC   C1A71115  15.772  30.451   6.190
 5516POPC   D2A71116  16.093  30.390   6.525
 5516POPC   C3A71117  15.970  30.365   6.954
 5516POPC   C4A71118  15.888  30.665   7.269
 5516POPC   C1B71119  15.877  30.957   6.311
 5516POPC   C2B71120  15.892  30.874   6.769
 5516POPC   C3B71121  16.083  31.107   7.153
 5516POPC   C4B71122  15.922  31.064   7.599
 5517POPC   NC371123  14.097   1.542   5.435
 5517POPC   PO471124  14.529   2.138   5.414
 5517POPC   GL171125  14.406   1.883   5.689
 5517POPC   GL271126  14.610   1.629   5.705
 5517POPC   C1A71127  14.360   1.842   6.111
 5517POPC   D2A71128  14.464   1.742   6.488
 5517POPC   C3A71129  14.329   2.058   6.765
 5517POPC   C4A71130  14.360   2.112   7.169
 5517POPC   C1B71131  14.867   1.602   6.095
 5517POPC   C2B71132  14.984   1.827   6.495
 5517POPC   C3B71133  14.766   1.823   6.895
 5517POPC   C4B71134  14.859   1.930   7.335
 5518POPC   NC371135  20.301   6.858   5.399
 5518POPC   PO471136  20.993   7.000   5.187
 5518POPC   GL171137  20.735   6.731   5.642
 5518POPC   GL271138  20.402   6.487   5.709
 5518POPC   C1A71139  20.733   6.731   6.179
 5518POPC   D2A71140  20.660   6.870   6.672
 5518POPC   C3A71141  20.689   6.704   7.094
 5518POPC   C4A71142  20.676   6.474   7.474
 5518POPC   C1B71143  20.224   6.520   6.123
 5518POPC   C2B71144  20.417   6.433   6.528
 5518POPC   C3B71145  20.521   6.247   6.916
 5518POPC   C4B71146  20.256   6.247   7.240
 5519POPC   NC371147  13.808  25.588   5.110
 5519POPC   PO471148  13.506  25.097   5.427
 5519POPC   GL171149  13.531  25.152   5.819
 5519POPC   GL271150  13.851  25.230   5.860
 5519POPC   C1A71151  13.442  25.312   6.208
 5519POPC   D2A71152  13.259  25.140   6.559
 5519POPC   C3A71153  13.542  25.145   6.862
 5519POPC   C4A71154  13.470  25.487   7.082
 5519POPC   C1B71155  13.840  24.933   6.214
 5519POPC   C2B71156  13.925  24.687   6.587
 5519POPC   C3B71157  13.993  24.758   7.012
 5519POPC   C4B71158  13.943  25.166   7.191
 5520POPC   NC371159  37.836  25.702   5.267
 5520POPC   PO471160  37.863  26.379   5.440
 5520POPC   GL171161  37.724  26.061   5.741
 5520POPC   GL271162  37.971  25.776   5.755
 5520POPC   C1A71163  37.534  26.105   6.161
 5520POPC   D2A71164  37.406  26.466   6.460
 5520POPC   C3A71165  37.343  26.418   6.907
 5520POPC   C4A71166  37.451  26.290   7.315
 5520POPC   C1B71167  38.027  25.918   6.191
 5520POPC   C2B71168  37.861  26.132   6.554
 5520POPC   C3B71169  37.826  25.986   6.957
 5520POPC   C4B71170  37.528  25.783   7.253
 5521POPC   NC371171  14.721  13.695   5.447
 5521POPC   PO471172  14.058  13.515   5.462
 5521POPC   GL171173  14.283  13.552   5.820
 5521POPC   GL271174  14.510  13.312   5.721
 5521POPC   C1A71175  14.346  13.736   6.255
 5521POPC   D2A71176  14.590  13.878   6.615
 5521POPC   C3A71177  14.337  13.969   6.969
 5521POPC   C4A71178  13.998  13.789   7.161
 5521POPC   C1B71179  14.443  13.213   6.173
 5521POPC   C2B71180  14.366  13.221   6.628
 5521POPC   C3B71181  14.393  13.451   7.049
 5521POPC   C4B71182  14.661  13.398   7.382
 5522POPC   NC371183  22.998  33.300   5.301
 5522POPC   PO471184  22.668  32.745   5.522
 5522POPC   GL171185  22.829  33.064   5.799
 5522POPC   GL271186  23.212  33.145   5.776
 5522POPC   C1A71187  22.614  33.079   6.208
 5522POPC   D2A71188  22.658  33.231   6.618
 5522POPC   C3A71189  22.891  33.026   6.922
 5522POPC   C4A71190  22.879  33.233   7.327
 5522POPC   C1B71191  23.132  33.191   6.242
 5522POPC   C2B71192  23.133  33.428   6.644
 5522POPC   C3B71193  23.291  33.337   7.018
 5522POPC   C4B71194  23.405  32.929   7.092
 5523POPC   NC371195  26.486  20.700   5.416
 5523POPC   PO471196  27.070  20.371   5.479
 5523POPC   GL171197  26.922  20.511   5.877
 5523POPC   GL271198  26.584  20.577   5.902
 5523POPC   C1A71199  26.877  20.668   6.310
 5523POPC   D2A71200  27.170  20.608   6.633
 5523POPC   C3A71201  26.978  20.448   6.996
 5523POPC   C4A71202  26.999  20.595   7.429
 5523POPC   C1B71203  26.501  20.977   6.115
 5523POPC   C2B71204  26.532  21.096   6.563
 5523POPC   C3B71205  26.473  20.959   7.024
 5523POPC   C4B71206  26.524  20.548   7.237
 5524POPC   NC371207  43.117  28.855   5.107
 5524POPC   PO471208  43.255  29.353   5.550
 5524POPC   GL171209  43.223  29.104   5.903
 5524POPC   GL271210  42.887  28.947   5.958
 5524POPC   C1A71211  43.217  29.108   6.344
 5524POPC   D2A71212  42.895  28.968   6.595
 5524POPC   C3A71213  43.002  28.937   7.037
 5524POPC   C4A71214  43.389  29.208   7.198
 5524POPC   C1B71215  42.859  29.375   6.114
 5524POPC   C2B71216  42.917  29.526   6.532
 5524POPC   C3B71217  42.960  29.446   6.968
 5524POPC   C4B71218  42.923  29.301   7.393
 5525POPC   NC371219   4.193  20.492   5.587
 5525POPC   PO471220   4.696  20.995   5.498
 5525POPC   GL171221   4.508  20.842   5.901
 5525POPC   GL271222   4.541  20.465   6.002
 5525POPC   C1A71223   4.363  20.834   6.346
 5525POPC   D2A71224   4.099  20.576   6.629
 5525POPC   C3A71225   4.159  20.558   7.060
 5525POPC   C4A71226   3.871  20.831   7.288
 5525POPC   C1B71227   4.486  20.300   6.444
 5525POPC   C2B71228   4.561  20.206   6.910
 5525POPC   C3B71229   4.725  20.224   7.354
 5525POPC   C4B71230   4.632  20.337   7.804
 5526POPC   NC371231  21.466  22.519   5.566
 5526POPC   PO471232  21.027  22.052   5.298
 5526POPC   GL171233  21.265  21.970   5.751
 5526POPC   GL271234  21.116  21.789   6.033
 5526POPC   C1A71235  21.408  22.165   6.213
 5526POPC   D2A71236  21.195  22.272   6.597
 5526POPC   C3A71237  21.316  22.110   6.978
 5526POPC   C4A71238  21.678  22.325   7.122
 5526POPC   C1B71239  21.551  21.690   6.211
 5526POPC   C2B71240  21.706  21.934   6.568
 5526POPC   C3B71241  21.730  21.804   6.986
 5526POPC   C4B71242  21.586  21.877   7.367
 5527POPC   NC371243   3.587   2.051   5.262
 5527POPC   PO471244   4.102   1.681   5.509
 5527POPC   GL171245   3.744   1.884   5.733
 5527POPC   GL271246   3.637   2.248   5.732
 5527POPC   C1A71247   3.528   1.706   6.099
 5527POPC   D2A71248   3.541   1.722   6.556
 5527POPC   C3A71249   3.311   1.980   6.877
 5527POPC   C4A71250   3.489   1.936   7.294
 5527POPC   C1B71251   3.683   2.202   6.164
 5527POPC   C2B71252   3.542   2.319   6.590
 5527POPC   C3B71253   3.684   2.336   7.032
 5527POPC   C4B71254   3.466   2.402   7.461
 5528POPC   NC371255  12.659   0.750   5.438
 5528POPC   PO471256  12.912   0.089   5.185
 5528POPC   GL171257  12.750   0.258   5.638
 5528POPC   GL271258  13.023   0.239   5.902
 5528POPC   C1A71259  12.617   0.492   6.068
 5528POPC   D2A71260  12.950   0.620   6.379
 5528POPC   C3A71261  12.955   0.611   6.831
 5528POPC   C4A71262  12.664   0.634   7.195
 5528POPC   C1B71263  13.255   0.199   6.316
 5528POPC   C2B71264  13.314   0.224   6.755
 5528POPC   C3B71265  13.074   0.223   7.144
 5528POPC   C4B71266  13.187   0.237   7.610
 5529POPC   NC371267  22.092   5.574   5.559
 5529POPC   PO471268  22.352   5.031   5.429
 5529POPC   GL171269  22.233   5.176   5.869
 5529POPC   GL271270  22.407   5.474   5.978
 5529POPC   C1A71271  22.234   5.086   6.322
 5529POPC   D2A71272  21.934   5.051   6.647
 5529POPC   C3A71273  22.099   4.995   7.067
 5529POPC   C4A71274  22.458   4.864   7.342
 5529POPC   C1B71275  22.372   5.561   6.426
 5529POPC   C2B71276  22.263   5.418   6.815
 5529POPC   C3B71277  22.360   5.409   7.260
 5529POPC   C4B71278  22.397   5.411   7.737
 5530POPC   NC371279  15.104  29.675   5.228
 5530POPC   PO471280  15.269  30.333   5.293
 5530POPC   GL171281  15.023  30.062   5.677
 5530POPC   GL271282  15.170  29.741   5.772
 5530POPC   C1A71283  14.868  29.969   6.117
 5530POPC   D2A71284  15.061  29.876   6.514
 5530POPC   C3A71285  14.879  29.986   6.916
 5530POPC   C4A71286  15.164  30.052   7.290
 5530POPC   C1B71287  15.390  29.638   6.167
 5530POPC   C2B71288  15.513  29.634   6.609
 5530POPC   C3B71289  15.245  29.632   6.956
 5530POPC   C4B71290  15.216  29.519   7.374
 5531POPC   NC371291  39.485  41.952   5.115
 5531POPC   PO471292  39.100  42.463   5.397
 5531POPC   GL171293  39.216  42.361   5.798
 5531POPC   GL271294  38.885  42.269   5.892
 5531POPC   C1A71295  39.304  42.341   6.234
 5531POPC   D2A71296  39.166  42.495   6.631
 5531POPC   C3A71297  39.232  42.328   7.021
 5531POPC   C4A71298  39.464  42.025   7.277
 5531POPC   C1B71299  38.832  42.208   6.345
 5531POPC   C2B71300  38.822  42.096   6.751
 5531POPC   C3B71301  38.710  42.377   7.045
 5531POPC   C4B71302  38.883  42.562   7.411
 5532POPC   NC371303  43.997  27.381   5.393
 5532POPC   PO471304  43.866  27.976   5.168
 5532POPC   GL171305  43.666  27.952   5.653
 5532POPC   GL271306  43.926  27.739   5.790
 5532POPC   C1A71307  43.554  27.796   6.146
 5532POPC   D2A71308  43.665  27.506   6.463
 5532POPC   C3A71309  43.766  27.589   6.863
 5532POPC   C4A71310  43.894  27.296   7.218
 5532POPC   C1B71311  44.079  27.719   6.194
 5532POPC   C2B71312  44.171  27.475   6.557
 5532POPC   C3B71313  44.258  27.560   7.000
 5532POPC   C4B71314  43.973  27.801   7.273
 5533POPC   NC371315  39.495  21.485   5.067
 5533POPC   PO471316  39.136  21.049   5.370
 5533POPC   GL171317  39.214  21.249   5.789
 5533POPC   GL271318  39.087  21.600   5.869
 5533POPC   C1A71319  39.417  21.090   6.181
 5533POPC   D2A71320  39.434  20.909   6.613
 5533POPC   C3A71321  39.364  21.218   6.951
 5533POPC   C4A71322  39.371  21.148   7.444
 5533POPC   C1B71323  39.297  21.600   6.283
 5533POPC   C2B71324  39.300  21.713   6.744
 5533POPC   C3B71325  39.092  21.775   7.185
 5533POPC   C4B71326  39.143  21.559   7.607
 5534POPC   NC371327  20.700  11.812   5.086
 5534POPC   PO471328  20.244  12.196   5.180
 5534POPC   GL171329  20.371  12.058   5.669
 5534POPC   GL271330  20.696  11.915   5.743
 5534POPC   C1A71331  20.547  12.125   6.173
 5534POPC   D2A71332  20.836  12.137   6.585
 5534POPC   C3A71333  20.753  12.194   7.045
 5534POPC   C4A71334  20.861  12.537   7.363
 5534POPC   C1B71335  20.784  11.655   6.120
 5534POPC   C2B71336  20.945  11.656   6.529
 5534POPC   C3B71337  20.774  11.688   6.919
 5534POPC   C4B71338  20.869  11.596   7.319
 5535POPC   NC371339  10.787  32.527   5.389
 5535POPC   PO471340  10.273  32.080   5.340
 5535POPC   GL171341  10.374  32.143   5.742
 5535POPC   GL271342  10.090  31.929   5.862
 5535POPC   C1A71343  10.624  32.353   6.075
 5535POPC   D2A71344  10.472  32.580   6.452
 5535POPC   C3A71345  10.674  32.550   6.858
 5535POPC   C4A71346  10.550  32.420   7.265
 5535POPC   C1B71347  10.333  31.971   6.243
 5535POPC   C2B71348  10.470  32.108   6.656
 5535POPC   C3B71349  10.290  32.035   7.064
 5535POPC   C4B71350  10.483  31.903   7.450
 5536POPC   NC371351  21.358  31.898   5.492
 5536POPC   PO471352  21.591  31.200   5.430
 5536POPC   GL171353  21.250  31.226   5.712
 5536POPC   GL271354  21.392  31.549   5.850
 5536POPC   C1A71355  21.054  31.302   6.114
 5536POPC   D2A71356  21.143  31.538   6.479
 5536POPC   C3A71357  21.162  31.375   6.883
 5536POPC   C4A71358  21.523  31.455   7.142
 5536POPC   C1B71359  21.390  31.870   6.192
 5536POPC   C2B71360  21.342  31.996   6.660
 5536POPC   C3B71361  21.324  31.941   7.151
 5536POPC   C4B71362  21.564  31.771   7.554
 5537POPC   NC371363  34.070  43.236   5.078
 5537POPC   PO471364  33.755  42.803   5.546
 5537POPC   GL171365  33.846  42.984   5.908
 5537POPC   GL271366  33.634  43.297   5.872
 5537POPC   C1A71367  34.063  42.852   6.288
 5537POPC   D2A71368  34.130  42.685   6.711
 5537POPC   C3A71369  34.160  42.922   7.052
 5537POPC   C4A71370  34.043  43.231   7.327
 5537POPC   C1B71371  33.889  43.378   6.246
 5537POPC   C2B71372  33.943  43.199   6.657
 5537POPC   C3B71373  33.647  43.144   7.003
 5537POPC   C4B71374  33.544  43.063   7.450
 5538POPC   NC371375  13.670   2.433   5.278
 5538POPC   PO471376  13.620   1.778   5.420
 5538POPC   GL171377  13.709   2.066   5.767
 5538POPC   GL271378  13.928   1.820   5.836
 5538POPC   C1A71379  13.889   2.102   6.232
 5538POPC   D2A71380  13.952   2.360   6.595
 5538POPC   C3A71381  13.829   2.134   6.968
 5538POPC   C4A71382  13.577   1.996   7.304
 5538POPC   C1B71383  13.556   1.705   6.103
 5538POPC   C2B71384  13.285   1.710   6.444
 5538POPC   C3B71385  13.390   1.755   6.870
 5538POPC   C4B71386  13.361   1.524   7.262
 5539POPC   NC371387  28.284  18.123   5.365
 5539POPC   PO471388  27.912  18.675   5.521
 5539POPC   GL171389  28.165  18.362   5.803
 5539POPC   GL271390  28.027  17.986   5.784
 5539POPC   C1A71391  28.296  18.471   6.235
 5539POPC   D2A71392  28.105  18.609   6.634
 5539POPC   C3A71393  28.390  18.511   6.978
 5539POPC   C4A71394  28.712  18.458   7.320
 5539POPC   C1B71395  28.289  17.966   6.182
 5539POPC   C2B71396  28.201  18.102   6.624
 5539POPC   C3B71397  28.340  17.937   7.009
 5539POPC   C4B71398  28.766  17.705   7.046
 5540POPC   NC371399   5.571  29.923   5.475
 5540POPC   PO471400   6.230  29.862   5.417
 5540POPC   GL171401   6.212  29.761   5.855
 5540POPC   GL271402   5.854  29.690   5.837
 5540POPC   C1A71403   6.151  29.792   6.321
 5540POPC   D2A71404   6.021  30.147   6.610
 5540POPC   C3A71405   5.919  30.131   7.050
 5540POPC   C4A71406   5.954  29.753   7.285
 5540POPC   C1B71407   5.663  29.875   6.204
 5540POPC   C2B71408   5.710  29.681   6.613
 5540POPC   C3B71409   5.531  29.658   7.017
 5540POPC   C4B71410   5.454  30.031   7.269
 5541POPC   NC371411  30.014  16.703   5.267
 5541POPC   PO471412  29.447  16.704   5.666
 5541POPC   GL171413  29.810  16.636   5.905
 5541POPC   GL271414  30.164  16.666   5.774
 5541POPC   C1A71415  29.705  16.683   6.328
 5541POPC   D2A71416  29.826  17.031   6.590
 5541POPC   C3A71417  29.738  16.912   6.990
 5541POPC   C4A71418  29.700  16.471   7.072
 5541POPC   C1B71419  30.180  16.837   6.193
 5541POPC   C2B71420  30.126  16.624   6.597
 5541POPC   C3B71421  30.218  16.753   6.971
 5541POPC   C4B71422  30.306  16.980   7.332
 5542POPC   NC371423  19.323   7.591   5.462
 5542POPC   PO471424  19.069   6.961   5.361
 5542POPC   GL171425  18.943   7.300   5.669
 5542POPC   GL271426  19.222   7.242   5.905
 5542POPC   C1A71427  18.769   7.520   6.065
 5542POPC   D2A71428  18.668   7.605   6.532
 5542POPC   C3A71429  18.747   7.222   6.816
 5542POPC   C4A71430  19.041   7.264   7.168
 5542POPC   C1B71431  19.257   6.969   6.304
 5542POPC   C2B71432  19.270   6.949   6.789
 5542POPC   C3B71433  19.496   7.023   7.205
 5542POPC   C4B71434  19.302   7.097   7.614
 5543POPC   NC371435  17.349  33.262   5.450
 5543POPC   PO471436  17.912  33.629   5.269
 5543POPC   GL171437  17.676  33.727   5.650
 5543POPC   GL271438  17.695  33.424   5.818
 5543POPC   C1A71439  17.532  33.883   6.063
 5543POPC   D2A71440  17.497  33.706   6.480
 5543POPC   C3A71441  17.546  33.965   6.827
 5543POPC   C4A71442  17.515  34.039   7.240
 5543POPC   C1B71443  17.324  33.390   6.093
 5543POPC   C2B71444  17.155  33.324   6.516
 5543POPC   C3B71445  17.357  33.402   6.912
 5543POPC   C4B71446  17.110  33.283   7.274
 5544POPC   NC371447  20.938  43.533   5.571
 5544POPC   PO471448  21.269  44.112   5.422
 5544POPC   GL171449  21.270  43.970   5.815
 5544POPC   GL271450  21.489  43.736   5.791
 5544POPC   C1A71451  21.493  44.038   6.230
 5544POPC   D2A71452  21.584  43.888   6.687
 5544POPC   C3A71453  21.377  44.124   7.042
 5544POPC   C4A71454  21.279  44.150   7.499
 5544POPC   C1B71455  21.313  43.558   6.151
 5544POPC   C2B71456  21.285  43.463   6.575
 5544POPC   C3B71457  21.312  43.555   7.020
 5544POPC   C4B71458  21.577  43.760   7.320
 5545POPC   NC371459  12.393  30.405   5.450
 5545POPC   PO471460  12.325  31.136   5.416
 5545POPC   GL171461  12.186  30.834   5.750
 5545POPC   GL271462  11.821  30.788   5.781
 5545POPC   C1A71463  12.220  30.703   6.208
 5545POPC   D2A71464  12.060  30.748   6.644
 5545POPC   C3A71465  12.381  30.556   6.890
 5545POPC   C4A71466  12.380  30.299   7.245
 5545POPC   C1B71467  11.717  30.722   6.221
 5545POPC   C2B71468  11.524  30.535   6.587
 5545POPC   C3B71469  11.621  30.651   6.980
 5545POPC   C4B71470  12.008  30.752   7.169
 5546POPC   NC371471   5.354  38.220   5.438
 5546POPC   PO471472   4.822  38.669   5.363
 5546POPC   GL171473   4.904  38.420   5.700
 5546POPC   GL271474   5.220  38.561   5.802
 5546POPC   C1A71475   4.955  38.142   6.068
 5546POPC   D2A71476   5.152  38.156   6.486
 5546POPC   C3A71477   4.953  38.226   6.892
 5546POPC   C4A71478   5.249  38.298   7.239
 5546POPC   C1B71479   5.130  38.612   6.212
 5546POPC   C2B71480   4.969  38.668   6.611
 5546POPC   C3B71481   5.258  38.698   6.916
 5546POPC   C4B71482   5.420  38.886   7.271
 5547POPC   NC371483  42.558  20.588   5.005
 5547POPC   PO471484  43.101  20.506   5.384
 5547POPC   GL171485  43.128  20.593   5.793
 5547POPC   GL271486  43.131  20.244   5.870
 5547POPC   C1A71487  43.274  20.781   6.164
 5547POPC   D2A71488  43.320  20.673   6.605
 5547POPC   C3A71489  43.027  20.891   6.853
 5547POPC   C4A71490  42.805  20.810   7.227
 5547POPC   C1B71491  43.106  20.289   6.306
 5547POPC   C2B71492  43.050  20.237   6.729
 5547POPC   C3B71493  43.098  20.422   7.077
 5547POPC   C4B71494  43.367  20.311   7.360
 5548POPC   NC371495  31.113  29.408   5.267
 5548POPC   PO471496  31.616  29.907   5.272
 5548POPC   GL171497  31.458  29.831   5.700
 5548POPC   GL271498  31.429  30.177   5.873
 5548POPC   C1A71499  31.256  29.737   6.109
 5548POPC   D2A71500  31.230  30.099   6.456
 5548POPC   C3A71501  31.413  29.900   6.803
 5548POPC   C4A71502  31.288  29.607   7.154
 5548POPC   C1B71503  31.656  29.993   6.210
 5548POPC   C2B71504  31.975  29.918   6.483
 5548POPC   C3B71505  31.932  29.986   6.873
 5548POPC   C4B71506  31.695  29.905   7.223
 5549POPC   NC371507  25.153  19.945   5.334
 5549POPC   PO471508  25.677  19.524   5.320
 5549POPC   GL171509  25.457  19.678   5.709
 5549POPC   GL271510  25.110  19.722   5.810
 5549POPC   C1A71511  25.500  19.879   6.154
 5549POPC   D2A71512  25.477  20.038   6.598
 5549POPC   C3A71513  25.351  19.736   6.896
 5549POPC   C4A71514  25.301  19.670   7.293
 5549POPC   C1B71515  24.877  19.659   6.191
 5549POPC   C2B71516  24.890  19.829   6.614
 5549POPC   C3B71517  24.904  19.904   7.041
 5549POPC   C4B71518  24.972  20.068   7.449
 5550POPC   NC371519   3.395   4.440   5.432
 5550POPC   PO471520   3.876   3.985   5.561
 5550POPC   GL171521   3.680   4.079   5.922
 5550POPC   GL271522   3.342   4.161   5.870
 5550POPC   C1A71523   3.642   4.169   6.360
 5550POPC   D2A71524   3.972   4.259   6.676
 5550POPC   C3A71525   3.731   4.426   7.023
 5550POPC   C4A71526   3.457   4.139   7.252
 5550POPC   C1B71527   3.160   4.446   6.185
 5550POPC   C2B71528   3.244   4.585   6.605
 5550POPC   C3B71529   3.111   4.424   6.993
 5550POPC   C4B71530   3.109   4.610   7.423
 5551POPC   NC371531  16.454  10.064   5.290
 5551POPC   PO471532  16.930   9.618   5.563
 5551POPC   GL171533  16.759   9.761   5.931
 5551POPC   GL271534  16.776  10.079   5.805
 5551POPC   C1A71535  16.774   9.549   6.303
 5551POPC   D2A71536  16.912   9.532   6.728
 5551POPC   C3A71537  16.615   9.532   7.061
 5551POPC   C4A71538  16.617   9.787   7.388
 5551POPC   C1B71539  16.596  10.174   6.190
 5551POPC   C2B71540  16.637   9.946   6.593
 5551POPC   C3B71541  16.685  10.077   6.994
 5551POPC   C4B71542  16.689  10.287   7.401
 5552POPC   NC371543  28.402  22.402   5.457
 5552POPC   PO471544  27.866  22.072   5.235
 5552POPC   GL171545  28.128  21.980   5.671
 5552POPC   GL271546  28.223  22.264   5.896
 5552POPC   C1A71547  28.372  21.837   6.108
 5552POPC   D2A71548  28.334  21.974   6.553
 5552POPC   C3A71549  28.569  21.814   6.911
 5552POPC   C4A71550  28.538  21.617   7.277
 5552POPC   C1B71551  28.514  22.342   6.243
 5552POPC   C2B71552  28.397  22.459   6.671
 5552POPC   C3B71553  28.283  22.233   7.008
 5552POPC   C4B71554  28.365  22.088   7.396
 5553POPC   NC371555  16.755  41.270   5.546
 5553POPC   PO471556  16.827  40.598   5.347
 5553POPC   GL171557  16.785  40.746   5.763
 5553POPC   GL271558  16.431  40.890   5.775
 5553POPC   C1A71559  16.734  40.853   6.221
 5553POPC   D2A71560  16.480  40.993   6.581
 5553POPC   C3A71561  16.645  40.860   6.975
 5553POPC   C4A71562  16.984  40.636   7.169
 5553POPC   C1B71563  16.428  40.485   6.026
 5553POPC   C2B71564  16.490  40.469   6.503
 5553POPC   C3B71565  16.343  40.452   6.938
 5553POPC   C4B71566  16.525  40.470   7.313
 5554POPC   NC371567  37.628  34.325   5.115
 5554POPC   PO471568  37.861  34.947   5.429
 5554POPC   GL171569  37.607  34.665   5.770
 5554POPC   GL271570  37.697  34.319   5.901
 5554POPC   C1A71571  37.507  34.696   6.237
 5554POPC   D2A71572  37.437  34.352   6.549
 5554POPC   C3A71573  37.534  34.417   6.972
 5554POPC   C4A71574  37.486  34.786   7.212
 5554POPC   C1B71575  37.969  34.446   6.281
 5554POPC   C2B71576  38.009  34.398   6.740
 5554POPC   C3B71577  37.975  34.612   7.139
 5554POPC   C4B71578  37.740  34.421   7.478
 5555POPC   NC371579   2.911   3.416   5.362
 5555POPC   PO471580   2.337   3.851   5.449
 5555POPC   GL171581   2.719   3.741   5.780
 5555POPC   GL271582   2.955   3.416   5.854
 5555POPC   C1A71583   2.985   3.790   6.179
 5555POPC   D2A71584   2.993   3.448   6.504
 5555POPC   C3A71585   2.944   3.590   6.943
 5555POPC   C4A71586   2.690   3.663   7.334
 5555POPC   C1B71587   2.625   3.319   6.152
 5555POPC   C2B71588   2.482   3.301   6.588
 5555POPC   C3B71589   2.512   3.267   7.048
 5555POPC   C4B71590   2.919   3.230   7.307
 5556POPC   NC371591  22.669  20.662   5.181
 5556POPC   PO471592  22.963  20.219   5.516
 5556POPC   GL171593  22.924  20.408   5.872
 5556POPC   GL271594  22.816  20.726   5.756
 5556POPC   C1A71595  23.149  20.379   6.252
 5556POPC   D2A71596  23.426  20.359   6.603
 5556POPC   C3A71597  23.113  20.328   6.940
 5556POPC   C4A71598  22.850  20.362   7.326
 5556POPC   C1B71599  23.030  20.867   6.160
 5556POPC   C2B71600  23.144  20.787   6.632
 5556POPC   C3B71601  22.940  20.807   7.068
 5556POPC   C4B71602  22.983  21.121   7.435
 5557POPC   NC371603  43.540  32.360   5.205
 5557POPC   PO471604  43.979  32.108   5.652
 5557POPC   GL171605  43.949  31.918   6.007
 5557POPC   GL271606  44.246  31.750   6.012
 5557POPC   C1A71607  43.717  32.161   6.282
 5557POPC   D2A71608  43.762  32.523   6.512
 5557POPC   C3A71609  43.612  32.402   6.875
 5557POPC   C4A71610  43.710  32.420   7.286
 5557POPC   C1B71611  44.257  31.845   6.429
 5557POPC   C2B71612  43.896  31.915   6.687
 5557POPC   C3B71613  43.976  32.064   7.064
 5557POPC   C4B71614  44.284  31.860   7.225
 5558POPC   NC371615  14.351  17.105   5.451
 5558POPC   PO471616  14.522  16.454   5.451
 5558POPC   GL171617  14.494  16.709   5.768
 5558POPC   GL271618  14.169  16.594   5.865
 5558POPC   C1A71619  14.569  16.987   6.103
 5558POPC   D2A71620  14.428  17.067   6.530
 5558POPC   C3A71621  14.551  16.892   6.931
 5558POPC   C4A71622  14.567  16.854   7.403
 5558POPC   C1B71623  14.411  16.540   6.280
 5558POPC   C2B71624  14.516  16.419   6.693
 5558POPC   C3B71625  14.313  16.463   7.091
 5558POPC   C4B71626  14.147  16.570   7.499
 5559POPC   NC371627  30.768   1.821   5.404
 5559POPC   PO471628  30.563   2.464   5.409
 5559POPC   GL171629  30.745   2.235   5.740
 5559POPC   GL271630  30.503   1.952   5.863
 5559POPC   C1A71631  30.891   2.262   6.152
 5559POPC   D2A71632  30.798   1.983   6.482
 5559POPC   C3A71633  30.970   2.062   6.864
 5559POPC   C4A71634  30.935   1.714   7.119
 5559POPC   C1B71635  30.394   2.201   6.259
 5559POPC   C2B71636  30.499   2.355   6.695
 5559POPC   C3B71637  30.587   2.276   7.176
 5559POPC   C4B71638  30.433   2.263   7.650
 5560POPC   NC371639  17.373  17.785   5.520
 5560POPC   PO471640  17.275  17.172   5.634
 5560POPC   GL171641  17.441  17.472   5.904
 5560POPC   GL271642  17.790  17.522   5.845
 5560POPC   C1A71643  17.526  17.699   6.255
 5560POPC   D2A71644  17.630  17.526   6.641
 5560POPC   C3A71645  17.705  17.788   6.979
 5560POPC   C4A71646  17.372  17.975   7.152
 5560POPC   C1B71647  17.757  17.210   6.230
 5560POPC   C2B71648  17.679  17.024   6.673
 5560POPC   C3B71649  17.706  17.264   7.100
 5560POPC   C4B71650  17.818  17.343   7.568
 5561POPC   NC371651   9.814  31.296   5.502
 5561POPC   PO471652   9.599  31.890   5.617
 5561POPC   GL171653   9.615  31.541   5.896
 5561POPC   GL271654   9.377  31.219   5.777
 5561POPC   C1A71655   9.961  31.545   6.198
 5561POPC   D2A71656  10.030  31.773   6.591
 5561POPC   C3A71657   9.799  31.631   6.901
 5561POPC   C4A71658   9.813  31.500   7.321
 5561POPC   C1B71659   9.599  31.087   6.138
 5561POPC   C2B71660   9.754  31.231   6.532
 5561POPC   C3B71661   9.700  31.131   6.935
 5561POPC   C4B71662   9.496  31.105   7.311
 5562POPC   NC371663  18.219  37.160   5.432
 5562POPC   PO471664  18.424  36.491   5.380
 5562POPC   GL171665  18.271  36.644   5.802
 5562POPC   GL271666  18.104  36.988   5.883
 5562POPC   C1A71667  18.358  36.786   6.249
 5562POPC   D2A71668  18.432  37.052   6.619
 5562POPC   C3A71669  18.284  36.835   6.983
 5562POPC   C4A71670  18.160  36.411   7.031
 5562POPC   C1B71671  18.063  37.236   6.296
 5562POPC   C2B71672  17.942  37.175   6.758
 5562POPC   C3B71673  17.924  37.146   7.228
 5562POPC   C4B71674  17.815  37.268   7.657
 5563POPC   NC371675  13.631  23.136   5.445
 5563POPC   PO471676  13.191  22.576   5.320
 5563POPC   GL171677  13.384  22.782   5.693
 5563POPC   GL271678  13.217  23.078   5.821
 5563POPC   C1A71679  13.616  22.801   6.104
 5563POPC   D2A71680  13.574  22.984   6.530
 5563POPC   C3A71681  13.778  22.853   6.922
 5563POPC   C4A71682  13.698  22.977   7.318
 5563POPC   C1B71683  13.244  23.278   6.226
 5563POPC   C2B71684  13.211  23.322   6.666
 5563POPC   C3B71685  13.545  23.321   6.974
 5563POPC   C4B71686  13.542  23.451   7.420
 5564POPC   NC371687  34.541  33.931   5.283
 5564POPC   PO471688  34.509  33.434   5.678
 5564POPC   GL171689  34.687  33.750   5.893
 5564POPC   GL271690  34.815  34.049   5.709
 5564POPC   C1A71691  34.371  33.998   6.110
 5564POPC   D2A71692  34.403  34.187   6.504
 5564POPC   C3A71693  34.438  33.908   6.833
 5564POPC   C4A71694  34.364  33.974   7.259
 5564POPC   C1B71695  34.830  34.222   6.128
 5564POPC   C2B71696  34.905  34.118   6.540
 5564POPC   C3B71697  34.947  33.955   6.931
 5564POPC   C4B71698  34.862  34.114   7.304
 5565POPC   NC371699  43.990  33.371   5.308
 5565POPC   PO471700  43.753  32.765   5.293
 5565POPC   GL171701  43.759  33.030   5.686
 5565POPC   GL271702  44.066  33.161   5.817
 5565POPC   C1A71703  43.780  32.868   6.118
 5565POPC   D2A71704  43.963  33.011   6.508
 5565POPC   C3A71705  43.697  32.928   6.849
 5565POPC   C4A71706  43.792  32.913   7.256
 5565POPC   C1B71707  44.258  33.338   6.207
 5565POPC   C2B71708  44.220  33.509   6.623
 5565POPC   C3B71709  44.121  33.240   6.964
 5565POPC   C4B71710  44.154  33.254   7.397
 5566POPC   NC371711  29.818  42.860   5.401
 5566POPC   PO471712  30.324  43.116   5.469
 5566POPC   GL171713  30.295  43.141   5.925
 5566POPC   GL271714  29.973  43.067   5.884
 5566POPC   C1A71715  30.111  43.328   6.333
 5566POPC   D2A71716  29.884  43.139   6.687
 5566POPC   C3A71717  29.920  43.084   7.128
 5566POPC   C4A71718  30.112  43.256   7.472
 5566POPC   C1B71719  29.873  42.843   6.281
 5566POPC   C2B71720  29.564  42.762   6.630
 5566POPC   C3B71721  29.630  42.663   7.070
 5566POPC   C4B71722  29.488  42.647   7.485
 5567POPC   NC371723  20.942  43.890   5.187
 5567POPC   PO471724  20.365  43.684   5.425
 5567POPC   GL171725  20.527  43.677   5.825
 5567POPC   GL271726  20.753  43.996   5.745
 5567POPC   C1A71727  20.491  43.670   6.291
 5567POPC   D2A71728  20.231  43.725   6.686
 5567POPC   C3A71729  20.511  43.703   7.052
 5567POPC   C4A71730  20.935  43.872   7.210
 5567POPC   C1B71731  20.376  44.115   6.000
 5567POPC   C2B71732  20.184  44.219   6.395
 5567POPC   C3B71733  20.358  44.229   6.810
 5567POPC   C4B71734  20.527  44.190   7.209
 5568POPC   NC371735  44.771  39.746   5.722
 5568POPC   PO471736  44.566  39.236   5.390
 5568POPC   GL171737  44.456  39.339   5.809
 5568POPC   GL271738  44.671  39.077   5.904
 5568POPC   C1A71739  44.507  39.399   6.262
 5568POPC   D2A71740  44.398  39.210   6.632
 5568POPC   C3A71741  44.474  39.480   6.946
 5568POPC   C4A71742  44.867  39.600   7.111
 5568POPC   C1B71743  44.622  38.870   6.302
 5568POPC   C2B71744  44.825  38.918   6.706
 5568POPC   C3B71745  44.748  39.093   7.085
 5568POPC   C4B71746  44.620  38.928   7.443
 5569POPC   NC371747   0.873   1.200   5.376
 5569POPC   PO471748   1.467   1.417   5.346
 5569POPC   GL171749   1.326   1.285   5.750
 5569POPC   GL271750   1.021   1.463   5.805
 5569POPC   C1A71751   1.301   1.299   6.217
 5569POPC   D2A71752   1.489   1.306   6.628
 5569POPC   C3A71753   1.257   1.214   7.007
 5569POPC   C4A71754   1.375   1.253   7.455
 5569POPC   C1B71755   0.854   1.564   6.212
 5569POPC   C2B71756   0.936   1.343   6.596
 5569POPC   C3B71757   0.784   1.443   6.980
 5569POPC   C4B71758   1.007   1.571   7.309
 5570POPC   NC371759   6.467  34.698   5.395
 5570POPC   PO471760   7.146  34.649   5.366
 5570POPC   GL171761   6.860  34.720   5.749
 5570POPC   GL271762   6.498  34.821   5.887
 5570POPC   C1A71763   6.853  34.623   6.194
 5570POPC   D2A71764   6.826  34.817   6.580
 5570POPC   C3A71765   6.689  34.634   6.935
 5570POPC   C4A71766   6.973  34.449   7.207
 5570POPC   C1B71767   6.378  34.964   6.335
 5570POPC   C2B71768   6.349  35.016   6.805
 5570POPC   C3B71769   6.283  34.802   7.230
 5570POPC   C4B71770   6.339  34.935   7.706
 5571POPC   NC371771  42.545  44.169   5.489
 5571POPC   PO471772  41.896  43.980   5.299
 5571POPC   GL171773  42.038  44.055   5.751
 5571POPC   GL271774  42.313  43.841   5.817
 5571POPC   C1A71775  41.985  43.933   6.218
 5571POPC   D2A71776  41.816  43.942   6.646
 5571POPC   C3A71777  42.083  43.807   6.972
 5571POPC   C4A71778  42.069  43.516   7.316
 5571POPC   C1B71779  42.420  44.166   6.138
 5571POPC   C2B71780  42.449  43.951   6.563
 5571POPC   C3B71781  42.584  43.766   6.982
 5571POPC   C4B71782  42.404  43.887   7.412
 5572POPC   NC371783  10.096  33.218   5.603
 5572POPC   PO471784   9.510  33.332   5.233
 5572POPC   GL171785   9.459  33.111   5.623
 5572POPC   GL271786   9.611  33.405   5.738
 5572POPC   C1A71787   9.645  32.996   6.059
 5572POPC   D2A71788   9.958  32.842   6.371
 5572POPC   C3A71789   9.782  32.820   6.773
 5572POPC   C4A71790   9.638  32.701   7.172
 5572POPC   C1B71791   9.411  33.468   6.123
 5572POPC   C2B71792   9.678  33.384   6.468
 5572POPC   C3B71793   9.710  33.307   6.895
 5572POPC   C4B71794   9.543  33.232   7.326
 5573POPC   NC371795  22.947  15.316   5.257
 5573POPC   PO471796  22.623  15.024   5.687
 5573POPC   GL171797  22.904  15.297   5.857
 5573POPC   GL271798  23.204  15.430   5.713
 5573POPC   C1A71799  22.852  15.439   6.268
 5573POPC   D2A71800  22.635  15.506   6.651
 5573POPC   C3A71801  22.727  15.115   6.876
 5573POPC   C4A71802  22.725  14.931   7.288
 5573POPC   C1B71803  23.336  15.265   6.129
 5573POPC   C2B71804  23.174  15.061   6.482
 5573POPC   C3B71805  23.320  15.118   6.885
 5573POPC   C4B71806  23.209  15.107   7.309
 5574POPC   NC371807  44.721  21.714   5.171
 5574POPC   PO471808  44.685  22.308   5.417
 5574POPC   GL171809  44.621  21.972   5.710
 5574POPC   GL271810  44.305  22.122   5.775
 5574POPC   C1A71811  44.673  21.952   6.174
 5574POPC   D2A71812  44.726  22.289   6.507
 5574POPC   C3A71813  44.901  22.402   6.928
 5574POPC   C4A71814  44.822  22.291   7.383
 5574POPC   C1B71815  44.213  22.134   6.221
 5574POPC   C2B71816  44.328  21.995   6.634
 5574POPC   C3B71817  44.510  22.089   7.008
 5574POPC   C4B71818  44.323  22.162   7.412
 5575POPC   NC371819  43.415  20.881   5.429
 5575POPC   PO471820  44.081  20.541   5.356
 5575POPC   GL171821  43.813  20.659   5.714
 5575POPC   GL271822  43.592  20.396   5.689
 5575POPC   C1A71823  43.788  20.884   6.119
 5575POPC   D2A71824  43.817  20.761   6.575
 5575POPC   C3A71825  43.949  20.835   7.036
 5575POPC   C4A71826  44.114  20.486   7.290
 5575POPC   C1B71827  43.601  20.389   6.143
 5575POPC   C2B71828  43.656  20.220   6.566
 5575POPC   C3B71829  43.628  20.446   6.956
 5575POPC   C4B71830  43.403  20.804   7.208
 5576POPC   NC371831  33.057  37.515   5.463
 5576POPC   PO471832  32.634  38.050   5.401
 5576POPC   GL171833  32.887  37.884   5.780
 5576POPC   GL271834  33.257  37.976   5.754
 5576POPC   C1A71835  32.938  37.796   6.245
 5576POPC   D2A71836  33.065  37.572   6.644
 5576POPC   C3A71837  32.995  37.786   7.033
 5576POPC   C4A71838  32.688  37.881   7.339
 5576POPC   C1B71839  33.443  37.933   6.186
 5576POPC   C2B71840  33.438  38.010   6.660
 5576POPC   C3B71841  33.473  37.908   7.118
 5576POPC   C4B71842  33.398  37.446   7.151
 5577POPC   NC371843  14.963  27.141   5.535
 5577POPC   PO471844  15.327  26.631   5.431
 5577POPC   GL171845  15.225  26.807   5.822
 5577POPC   GL271846  14.881  26.877   5.946
 5577POPC   C1A71847  15.347  27.101   6.136
 5577POPC   D2A71848  15.490  27.011   6.546
 5577POPC   C3A71849  15.253  26.773   6.855
 5577POPC   C4A71850  15.369  26.909   7.276
 5577POPC   C1B71851  15.017  26.629   6.278
 5577POPC   C2B71852  14.738  26.611   6.619
 5577POPC   C3B71853  14.692  26.938   6.892
 5577POPC   C4B71854  14.877  26.852   7.287
 5578POPC   NC371855  37.995  20.987   5.431
 5578POPC   PO471856  37.625  20.393   5.129
 5578POPC   GL171857  37.667  20.604   5.587
 5578POPC   GL271858  37.927  20.377   5.733
 5578POPC   C1A71859  37.693  20.937   5.991
 5578POPC   D2A71860  37.758  20.955   6.462
 5578POPC   C3A71861  37.493  20.970   6.875
 5578POPC   C4A71862  37.729  20.954   7.277
 5578POPC   C1B71863  37.933  20.518   6.161
 5578POPC   C2B71864  37.750  20.451   6.552
 5578POPC   C3B71865  37.895  20.609   6.933
 5578POPC   C4B71866  37.906  20.454   7.331
 5579POPC   NC371867   2.174  25.836   5.367
 5579POPC   PO471868   1.690  26.359   5.354
 5579POPC   GL171869   1.937  26.160   5.702
 5579POPC   GL271870   1.849  25.814   5.802
 5579POPC   C1A71871   2.118  26.156   6.115
 5579POPC   D2A71872   2.122  26.320   6.541
 5579POPC   C3A71873   2.300  26.148   6.932
 5579POPC   C4A71874   2.227  26.321   7.352
 5579POPC   C1B71875   1.802  25.767   6.226
 5579POPC   C2B71876   2.104  25.812   6.565
 5579POPC   C3B71877   2.057  25.693   6.991
 5579POPC   C4B71878   1.980  25.814   7.409
 5580POPC   NC371879  21.923  12.784   5.158
 5580POPC   PO471880  22.486  13.039   5.484
 5580POPC   GL171881  22.549  12.853   5.917
 5580POPC   GL271882  22.279  12.623   5.811
 5580POPC   C1A71883  22.549  12.893   6.383
 5580POPC   D2A71884  22.236  13.193   6.573
 5580POPC   C3A71885  22.085  13.103   6.982
 5580POPC   C4A71886  22.383  12.774   7.117
 5580POPC   C1B71887  22.093  12.782   6.193
 5580POPC   C2B71888  22.096  12.695   6.625
 5580POPC   C3B71889  21.874  12.643   7.005
 5580POPC   C4B71890  21.923  12.576   7.444
 5581POPC   NC371891   9.380  23.821   5.451
 5581POPC   PO471892   9.982  23.956   5.522
 5581POPC   GL171893   9.743  23.819   5.842
 5581POPC   GL271894   9.894  23.561   5.963
 5581POPC   C1A71895   9.686  23.871   6.301
 5581POPC   D2A71896   9.912  23.880   6.721
 5581POPC   C3A71897   9.553  23.797   7.054
 5581POPC   C4A71898   9.553  23.640   7.486
 5581POPC   C1B71899  10.003  23.492   6.387
 5581POPC   C2B71900   9.616  23.493   6.660
 5581POPC   C3B71901   9.869  23.395   6.977
 5581POPC   C4B71902  10.028  23.310   7.364
 5582POPC   NC371903  10.684  22.674   5.243
 5582POPC   PO471904  10.351  23.137   5.381
 5582POPC   GL171905  10.396  22.987   5.787
 5582POPC   GL271906  10.316  23.291   5.923
 5582POPC   C1A71907  10.647  23.037   6.209
 5582POPC   D2A71908  10.460  23.162   6.620
 5582POPC   C3A71909  10.640  22.971   6.999
 5582POPC   C4A71910  10.606  23.194   7.382
 5582POPC   C1B71911  10.125  23.028   6.222
 5582POPC   C2B71912  10.122  22.739   6.568
 5582POPC   C3B71913  10.119  22.944   6.977
 5582POPC   C4B71914  10.237  22.854   7.395
 5583POPC   NC371915   4.490  15.247   5.444
 5583POPC   PO471916   4.203  14.609   5.567
 5583POPC   GL171917   4.205  15.014   5.842
 5583POPC   GL271918   4.004  15.308   5.776
 5583POPC   C1A71919   4.320  15.208   6.256
 5583POPC   D2A71920   4.498  15.398   6.649
 5583POPC   C3A71921   4.508  15.031   6.930
 5583POPC   C4A71922   4.460  14.895   7.367
 5583POPC   C1B71923   3.904  15.462   6.204
 5583POPC   C2B71924   3.971  15.353   6.667
 5583POPC   C3B71925   4.092  15.349   7.123
 5583POPC   C4B71926   3.912  15.364   7.562
 5584POPC   NC371927  12.282  31.995   5.254
 5584POPC   PO471928  12.028  32.656   5.262
 5584POPC   GL171929  12.184  32.384   5.613
 5584POPC   GL271930  11.931  32.140   5.688
 5584POPC   C1A71931  12.276  32.253   6.064
 5584POPC   D2A71932  12.104  32.379   6.479
 5584POPC   C3A71933  12.249  32.214   6.879
 5584POPC   C4A71934  12.260  32.256   7.320
 5584POPC   C1B71935  11.842  32.005   6.150
 5584POPC   C2B71936  11.935  31.849   6.598
 5584POPC   C3B71937  11.899  31.921   7.088
 5584POPC   C4B71938  11.891  31.988   7.556
 5585POPC   NC371939   4.691   9.803   5.454
 5585POPC   PO471940   4.044   9.593   5.269
 5585POPC   GL171941   4.095   9.667   5.734
 5585POPC   GL271942   4.404   9.827   5.877
 5585POPC   C1A71943   4.014   9.706   6.204
 5585POPC   D2A71944   4.146   9.889   6.597
 5585POPC   C3A71945   4.177   9.712   7.016
 5585POPC   C4A71946   4.423   9.870   7.381
 5585POPC   C1B71947   4.518   9.668   6.298
 5585POPC   C2B71948   4.701   9.387   6.585
 5585POPC   C3B71949   4.599   9.426   7.012
 5585POPC   C4B71950   4.869   9.620   7.260
 5586POPC   NC371951  10.985  15.128   5.521
 5586POPC   PO471952  11.410  15.512   5.252
 5586POPC   GL171953  11.361  15.425   5.711
 5586POPC   GL271954  11.013  15.423   5.927
 5586POPC   C1A71955  11.455  15.282   6.127
 5586POPC   D2A71956  11.129  15.384   6.472
 5586POPC   C3A71957  11.292  15.335   6.865
 5586POPC   C4A71958  11.601  15.044   7.007
 5586POPC   C1B71959  11.061  14.977   6.168
 5586POPC   C2B71960  11.301  14.879   6.586
 5586POPC   C3B71961  11.126  14.871   7.046
 5586POPC   C4B71962  11.034  15.219   7.313
 5587POPC   NC371963  30.091  15.965   5.315
 5587POPC   PO471964  29.609  16.454   5.179
 5587POPC   GL171965  29.702  16.212   5.640
 5587POPC   GL271966  30.068  16.169   5.768
 5587POPC   C1A71967  29.776  16.155   6.157
 5587POPC   D2A71968  29.730  16.232   6.623
 5587POPC   C3A71969  29.789  15.933   6.996
 5587POPC   C4A71970  30.073  15.568   7.110
 5587POPC   C1B71971  30.253  16.329   6.156
 5587POPC   C2B71972  30.339  16.159   6.576
 5587POPC   C3B71973  30.178  16.256   6.974
 5587POPC   C4B71974  30.119  16.488   7.382
 5588POPC   NC371975   8.998  34.205   5.179
 5588POPC   PO471976   9.085  34.811   5.392
 5588POPC   GL171977   8.880  34.516   5.684
 5588POPC   GL271978   8.752  34.799   5.868
 5588POPC   C1A71979   8.649  34.361   6.080
 5588POPC   D2A71980   8.564  34.598   6.477
 5588POPC   C3A71981   8.660  34.460   6.900
 5588POPC   C4A71982   8.651  34.089   7.147
 5588POPC   C1B71983   9.009  34.705   6.214
 5588POPC   C2B71984   9.081  34.777   6.643
 5588POPC   C3B71985   9.137  34.599   7.043
 5588POPC   C4B71986   8.872  34.567   7.384
 5589POPC   NC371987   9.934   0.940   5.501
 5589POPC   PO471988   9.908   1.565   5.355
 5589POPC   GL171989   9.691   1.345   5.706
 5589POPC   GL271990   9.998   1.314   5.864
 5589POPC   C1A71991   9.579   1.133   6.128
 5589POPC   D2A71992   9.442   1.181   6.576
 5589POPC   C3A71993   9.647   1.035   6.953
 5589POPC   C4A71994   9.645   1.140   7.375
 5589POPC   C1B71995  10.011   1.310   6.307
 5589POPC   C2B71996  10.036   1.228   6.695
 5589POPC   C3B71997  10.260   1.346   7.043
 5589POPC   C4B71998  10.089   1.525   7.427
 5590POPC   NC371999  41.797  21.035   5.253
 5590POPC   PO472000  41.409  20.539   5.427
 5590POPC   GL172001  41.602  20.770   5.745
 5590POPC   GL272002  41.792  20.461   5.793
 5590POPC   C1A72003  41.522  20.950   6.185
 5590POPC   D2A72004  41.627  20.780   6.621
 5590POPC   C3A72005  41.549  20.934   7.059
 5590POPC   C4A72006  41.567  20.893   7.522
 5590POPC   C1B72007  41.650  20.440   6.208
 5590POPC   C2B72008  41.703  20.253   6.601
 5590POPC   C3B72009  41.644  20.415   6.995
 5590POPC   C4B72010  41.845  20.490   7.372
 5591POPC   NC372011  32.715  12.423   5.026
 5591POPC   PO472012  33.062  11.976   5.430
 5591POPC   GL172013  33.036  11.960   5.847
 5591POPC   GL272014  32.752  11.771   5.858
 5591POPC   C1A72015  33.222  11.906   6.281
 5591POPC   D2A72016  33.161  11.685   6.705
 5591POPC   C3A72017  33.160  11.965   7.080
 5591POPC   C4A72018  33.149  12.021   7.532
 5591POPC   C1B72019  32.694  12.083   6.190
 5591POPC   C2B72020  32.810  12.060   6.590
 5591POPC   C3B72021  32.682  11.809   6.913
 5591POPC   C4B72022  32.678  12.070   7.261
 5592POPC   NC372023  35.290  42.197   5.542
 5592POPC   PO472024  35.443  42.847   5.389
 5592POPC   GL172025  35.400  42.642   5.770
 5592POPC   GL272026  35.112  42.686   5.937
 5592POPC   C1A72027  35.549  42.556   6.187
 5592POPC   D2A72028  35.353  42.560   6.595
 5592POPC   C3A72029  35.484  42.215   6.905
 5592POPC   C4A72030  35.640  42.236   7.349
 5592POPC   C1B72031  34.971  42.346   6.226
 5592POPC   C2B72032  34.980  42.207   6.650
 5592POPC   C3B72033  35.070  42.492   7.023
 5592POPC   C4B72034  35.128  42.233   7.348
 5593POPC   NC372035   6.091  26.075   5.332
 5593POPC   PO472036   5.459  25.825   5.422
 5593POPC   GL172037   5.711  26.136   5.694
 5593POPC   GL272038   6.039  25.929   5.803
 5593POPC   C1A72039   5.740  26.169   6.150
 5593POPC   D2A72040   5.695  25.818   6.454
 5593POPC   C3A72041   5.799  25.914   6.892
 5593POPC   C4A72042   5.583  26.037   7.285
 5593POPC   C1B72043   6.293  26.085   6.127
 5593POPC   C2B72044   6.119  26.108   6.510
 5593POPC   C3B72045   6.212  26.259   6.911
 5593POPC   C4B72046   6.086  26.099   7.289
 5594POPC   NC372047  11.631   3.862   5.518
 5594POPC   PO472048  11.497   3.135   5.513
 5594POPC   GL172049  11.253   3.417   5.794
 5594POPC   GL272050  11.139   3.134   5.998
 5594POPC   C1A72051  11.206   3.583   6.226
 5594POPC   D2A72052  11.093   3.376   6.594
 5594POPC   C3A72053  11.062   3.637   6.959
 5594POPC   C4A72054  11.373   3.784   7.235
 5594POPC   C1B72055  11.541   3.211   6.256
 5594POPC   C2B72056  11.637   3.426   6.641
 5594POPC   C3B72057  11.457   3.311   7.038
 5594POPC   C4B72058  11.085   3.175   7.222
 5595POPC   NC372059   8.432  30.048   5.541
 5595POPC   PO472060   7.902  29.635   5.589
 5595POPC   GL172061   8.172  29.790   5.900
 5595POPC   GL272062   8.558  29.751   5.923
 5595POPC   C1A72063   8.232  29.612   6.290
 5595POPC   D2A72064   8.140  29.358   6.591
 5595POPC   C3A72065   8.093  29.570   6.950
 5595POPC   C4A72066   8.327  29.911   7.166
 5595POPC   C1B72067   8.491  30.053   6.249
 5595POPC   C2B72068   8.579  29.961   6.663
 5595POPC   C3B72069   8.637  30.265   6.936
 5595POPC   C4B72070   8.412  30.394   7.260
 5596POPC   NC372071   0.916  43.884   5.325
 5596POPC   PO472072   1.570  43.654   5.472
 5596POPC   GL172073   1.426  43.970   5.804
 5596POPC   GL272074   1.666  44.249   5.873
 5596POPC   C1A72075   1.104  43.881   6.165
 5596POPC   D2A72076   0.929  43.765   6.605
 5596POPC   C3A72077   1.234  43.895   6.931
 5596POPC   C4A72078   1.168  44.094   7.351
 5596POPC   C1B72079   1.587  44.163   6.303
 5596POPC   C2B72080   1.766  44.055   6.705
 5596POPC   C3B72081   1.649  44.142   7.133
 5596POPC   C4B72082   1.632  44.191   7.586
 5597POPC   NC372083   2.357   0.938   5.388
 5597POPC   PO472084   2.920   1.332   5.286
 5597POPC   GL172085   2.707   1.269   5.679
 5597POPC   GL272086   2.759   0.882   5.710
 5597POPC   C1A72087   2.724   1.535   6.088
 5597POPC   D2A72088   2.572   1.521   6.533
 5597POPC   C3A72089   2.855   1.455   6.898
 5597POPC   C4A72090   2.707   1.416   7.295
 5597POPC   C1B72091   2.699   1.020   6.143
 5597POPC   C2B72092   2.810   1.023   6.581
 5597POPC   C3B72093   2.576   1.037   6.967
 5597POPC   C4B72094   2.641   0.929   7.395
 5598POPC   NC372095  36.765  16.681   5.394
 5598POPC   PO472096  37.391  16.703   5.512
 5598POPC   GL172097  37.153  16.762   5.876
 5598POPC   GL272098  36.847  16.550   5.898
 5598POPC   C1A72099  37.142  16.582   6.307
 5598POPC   D2A72100  36.841  16.579   6.639
 5598POPC   C3A72101  36.945  16.777   6.996
 5598POPC   C4A72102  37.264  16.615   7.236
 5598POPC   C1B72103  36.554  16.422   6.241
 5598POPC   C2B72104  36.375  16.377   6.661
 5598POPC   C3B72105  36.569  16.330   7.071
 5598POPC   C4B72106  36.679  16.558   7.431
 5599POPC   NC372107  39.895  32.705   5.081
 5599POPC   PO472108  40.192  32.334   5.626
 5599POPC   GL172109  39.903  32.435   5.925
 5599POPC   GL272110  39.902  32.755   5.995
 5599POPC   C1A72111  39.831  32.174   6.266
 5599POPC   D2A72112  40.022  32.105   6.652
 5599POPC   C3A72113  39.796  32.156   7.043
 5599POPC   C4A72114  40.074  32.060   7.389
 5599POPC   C1B72115  40.005  32.630   6.398
 5599POPC   C2B72116  39.692  32.511   6.653
 5599POPC   C3B72117  39.759  32.699   7.003
 5599POPC   C4B72118  40.004  32.549   7.343
 5600POPC   NC372119  10.322  16.474   5.312
 5600POPC   PO472120  10.649  17.119   5.361
 5600POPC   GL172121  10.596  16.894   5.844
 5600POPC   GL272122  10.259  16.903   6.013
 5600POPC   C1A72123  10.599  16.986   6.357
 5600POPC   D2A72124  10.448  17.021   6.778
 5600POPC   C3A72125  10.522  16.658   7.038
 5600POPC   C4A72126  10.741  16.862   7.325
 5600POPC   C1B72127  10.434  16.524   6.217
 5600POPC   C2B72128  10.337  16.359   6.652
 5600POPC   C3B72129  10.102  16.367   7.076
 5600POPC   C4B72130  10.227  16.549   7.500
 5601POPC   NC372131   0.517  12.506   5.380
 5601POPC   PO472132   0.202  11.968   5.476
 5601POPC   GL172133   0.541  12.063   5.818
 5601POPC   GL272134   0.765  12.375   5.827
 5601POPC   C1A72135   0.791  11.986   6.193
 5601POPC   D2A72136   0.887  11.813   6.633
 5601POPC   C3A72137   0.589  11.998   6.952
 5601POPC   C4A72138   0.410  12.000   7.383
 5601POPC   C1B72139   0.610  12.470   6.251
 5601POPC   C2B72140   0.639  12.483   6.734
 5601POPC   C3B72141   0.507  12.500   7.183
 5601POPC   C4B72142   0.517  12.452   7.654
 5602POPC   NC372143  33.400  29.620   5.573
 5602POPC   PO472144  33.916  29.202   5.557
 5602POPC   GL172145  33.841  29.000   5.936
 5602POPC   GL272146  33.606  29.292   5.991
 5602POPC   C1A72147  33.691  28.904   6.335
 5602POPC   D2A72148  33.566  29.132   6.676
 5602POPC   C3A72149  33.786  28.955   7.013
 5602POPC   C4A72150  33.671  29.158   7.327
 5602POPC   C1B72151  33.977  29.353   6.271
 5602POPC   C2B72152  34.078  29.187   6.680
 5602POPC   C3B72153  34.046  29.404   7.074
 5602POPC   C4B72154  34.239  29.684   7.374
 5603POPC   NC372155  22.911  29.408   5.293
 5603POPC   PO472156  23.237  28.912   5.429
 5603POPC   GL172157  23.143  29.150   5.787
 5603POPC   GL272158  23.227  29.520   5.748
 5603POPC   C1A72159  22.927  29.014   6.194
 5603POPC   D2A72160  22.639  29.119   6.554
 5603POPC   C3A72161  22.689  28.936   6.991
 5603POPC   C4A72162  23.005  28.949   7.345
 5603POPC   C1B72163  23.110  29.484   6.181
 5603POPC   C2B72164  23.131  29.265   6.590
 5603POPC   C3B72165  22.983  29.350   6.998
 5603POPC   C4B72166  23.244  29.411   7.339
 5604POPC   NC372167  23.990  11.360   5.428
 5604POPC   PO472168  23.386  11.665   5.250
 5604POPC   GL172169  23.498  11.447   5.664
 5604POPC   GL272170  23.800  11.560   5.862
 5604POPC   C1A72171  23.408  11.343   6.112
 5604POPC   D2A72172  23.426  11.537   6.530
 5604POPC   C3A72173  23.585  11.273   6.859
 5604POPC   C4A72174  23.610  11.130   7.284
 5604POPC   C1B72175  23.888  11.651   6.310
 5604POPC   C2B72176  24.082  11.564   6.731
 5604POPC   C3B72177  23.987  11.472   7.164
 5604POPC   C4B72178  23.961  11.740   7.501
 5605POPC   NC372179  14.717  19.691   5.465
 5605POPC   PO472180  14.148  20.072   5.382
 5605POPC   GL172181  14.404  19.996   5.730
 5605POPC   GL272182  14.688  20.189   5.671
 5605POPC   C1A72183  14.444  19.788   6.133
 5605POPC   D2A72184  14.281  19.910   6.534
 5605POPC   C3A72185  14.082  19.674   6.838
 5605POPC   C4A72186  14.317  19.604   7.197
 5605POPC   C1B72187  14.637  20.277   6.109
 5605POPC   C2B72188  14.602  20.304   6.583
 5605POPC   C3B72189  14.543  20.071   7.010
 5605POPC   C4B72190  14.604  20.176   7.506
 5606POPC   NC372191   1.632   5.228   5.567
 5606POPC   PO472192   2.120   5.058   5.119
 5606POPC   GL172193   2.124   5.185   5.621
 5606POPC   GL272194   2.218   5.509   5.718
 5606POPC   C1A72195   2.165   4.982   6.099
 5606POPC   D2A72196   2.355   4.868   6.532
 5606POPC   C3A72197   2.085   4.890   6.923
 5606POPC   C4A72198   1.793   5.145   7.134
 5606POPC   C1B72199   1.988   5.449   6.102
 5606POPC   C2B72200   1.970   5.215   6.504
 5606POPC   C3B72201   2.212   5.370   6.824
 5606POPC   C4B72202   2.190   5.481   7.243
 5607POPC   NC372203  16.846  29.102   5.450
 5607POPC   PO472204  16.212  28.962   5.235
 5607POPC   GL172205  16.375  29.052   5.706
 5607POPC   GL272206  16.521  29.382   5.751
 5607POPC   C1A72207  16.541  28.906   6.159
 5607POPC   D2A72208  16.695  28.774   6.592
 5607POPC   C3A72209  16.574  28.969   6.999
 5607POPC   C4A72210  16.374  28.877   7.429
 5607POPC   C1B72211  16.746  29.451   6.160
 5607POPC   C2B72212  16.731  29.668   6.582
 5607POPC   C3B72213  16.985  29.629   6.920
 5607POPC   C4B72214  17.048  29.327   7.195
 5608POPC   NC372215   3.158   2.615   5.272
 5608POPC   PO472216   2.581   3.010   5.295
 5608POPC   GL172217   2.900   2.929   5.617
 5608POPC   GL272218   2.823   2.566   5.699
 5608POPC   C1A72219   2.996   2.951   6.067
 5608POPC   D2A72220   2.800   2.885   6.472
 5608POPC   C3A72221   2.919   2.996   6.860
 5608POPC   C4A72222   2.702   2.792   7.216
 5608POPC   C1B72223   2.829   2.476   6.165
 5608POPC   C2B72224   3.020   2.387   6.593
 5608POPC   C3B72225   2.930   2.383   7.041
 5608POPC   C4B72226   2.912   2.396   7.511
 5609POPC   NC372227  37.785   0.931   5.373
 5609POPC   PO472228  37.353   0.347   5.341
 5609POPC   GL172229  37.537   0.571   5.682
 5609POPC   GL272230  37.199   0.654   5.715
 5609POPC   C1A72231  37.686   0.454   6.126
 5609POPC   D2A72232  37.923   0.266   6.505
 5609POPC   C3A72233  37.759   0.465   6.883
 5609POPC   C4A72234  37.976   0.425   7.250
 5609POPC   C1B72235  37.213   0.675   6.139
 5609POPC   C2B72236  37.358   0.755   6.548
 5609POPC   C3B72237  37.276   0.759   6.990
 5609POPC   C4B72238  37.444   0.553   7.353
 5610POPC   NC372239  38.690  10.021   5.383
 5610POPC   PO472240  38.267   9.637   5.041
 5610POPC   GL172241  38.382   9.653   5.549
 5610POPC   GL272242  38.332   9.959   5.811
 5610POPC   C1A72243  38.467   9.515   5.997
 5610POPC   D2A72244  38.386   9.668   6.435
 5610POPC   C3A72245  38.441   9.582   6.868
 5610POPC   C4A72246  38.437   9.535   7.314
 5610POPC   C1B72247  38.414  10.154   6.249
 5610POPC   C2B72248  38.540  10.075   6.706
 5610POPC   C3B72249  38.519  10.030   7.147
 5610POPC   C4B72250  38.352   9.954   7.565
 5611POPC   NC372251   7.780  24.514   5.388
 5611POPC   PO472252   7.152  24.318   5.433
 5611POPC   GL172253   7.422  24.330   5.777
 5611POPC   GL272254   7.407  24.680   5.817
 5611POPC   C1A72255   7.270  24.295   6.195
 5611POPC   D2A72256   7.141  24.103   6.542
 5611POPC   C3A72257   7.287  24.361   6.870
 5611POPC   C4A72258   7.418  24.372   7.283
 5611POPC   C1B72259   7.133  24.786   6.180
 5611POPC   C2B72260   7.160  24.844   6.646
 5611POPC   C3B72261   7.230  24.816   7.100
 5611POPC   C4B72262   7.219  24.745   7.592
 5612POPC   NC372263  36.431  44.353   5.302
 5612POPC   PO472264  35.997  43.751   5.352
 5612POPC   GL172265  35.974  43.877   5.768
 5612POPC   GL272266  36.306  43.763   5.866
 5612POPC   C1A72267  35.865  44.003   6.188
 5612POPC   D2A72268  36.079  44.128   6.569
 5612POPC   C3A72269  35.853  43.952   6.885
 5612POPC   C4A72270  35.597  44.086   7.192
 5612POPC   C1B72271  36.308  43.692   6.316
 5612POPC   C2B72272  36.234  43.645   6.751
 5612POPC   C3B72273  36.438  43.688   7.127
 5612POPC   C4B72274  36.387  43.784   7.563
 5613POPC   NC372275  28.309  33.276   5.592
 5613POPC   PO472276  28.452  32.653   5.335
 5613POPC   GL172277  28.287  32.753   5.726
 5613POPC   GL272278  27.921  32.696   5.650
 5613POPC   C1A72279  28.475  32.893   6.139
 5613POPC   D2A72280  28.547  33.158   6.512
 5613POPC   C3A72281  28.664  33.041   6.915
 5613POPC   C4A72282  28.512  32.780   7.218
 5613POPC   C1B72283  27.919  32.769   6.092
 5613POPC   C2B72284  28.178  32.628   6.445
 5613POPC   C3B72285  28.204  32.862   6.798
 5613POPC   C4B72286  28.087  33.072   7.139
 5614POPC   NC372287   9.285  13.055   5.372
 5614POPC   PO472288   8.660  12.752   5.242
 5614POPC   GL172289   8.796  12.966   5.631
 5614POPC   GL272290   8.561  13.269   5.708
 5614POPC   C1A72291   8.970  12.882   6.073
 5614POPC   D2A72292   9.038  12.699   6.473
 5614POPC   C3A72293   9.130  12.846   6.880
 5614POPC   C4A72294   9.022  12.799   7.285
 5614POPC   C1B72295   8.605  13.282   6.198
 5614POPC   C2B72296   8.757  13.110   6.611
 5614POPC   C3B72297   8.670  13.082   7.031
 5614POPC   C4B72298   8.656  13.128   7.463
 5615POPC   NC372299  21.946   9.989   5.100
 5615POPC   PO472300  22.238   9.557   5.451
 5615POPC   GL172301  22.090   9.691   5.849
 5615POPC   GL272302  21.820   9.934   5.844
 5615POPC   C1A72303  22.277   9.632   6.259
 5615POPC   D2A72304  22.419   9.854   6.612
 5615POPC   C3A72305  22.469   9.616   6.977
 5615POPC   C4A72306  22.247   9.689   7.365
 5615POPC   C1B72307  21.761   9.719   6.261
 5615POPC   C2B72308  21.920   9.562   6.672
 5615POPC   C3B72309  22.003   9.319   7.033
 5615POPC   C4B72310  21.869   9.295   7.455
 5616POPC   NC372311  32.587  15.041   5.351
 5616POPC   PO472312  31.938  15.131   5.269
 5616POPC   GL172313  32.164  15.154   5.659
 5616POPC   GL272314  32.134  15.488   5.783
 5616POPC   C1A72315  32.302  15.118   6.117
 5616POPC   D2A72316  32.293  14.901   6.528
 5616POPC   C3A72317  32.291  15.061   6.936
 5616POPC   C4A72318  32.259  14.818   7.319
 5616POPC   C1B72319  31.930  15.506   6.188
 5616POPC   C2B72320  32.116  15.572   6.607
 5616POPC   C3B72321  32.023  15.502   7.043
 5616POPC   C4B72322  32.325  15.343   7.374
 5617POPC   NC372323  34.856  13.066   5.105
 5617POPC   PO472324  34.287  12.936   5.448
 5617POPC   GL172325  34.704  12.924   5.654
 5617POPC   GL272326  34.808  12.559   5.754
 5617POPC   C1A72327  34.795  12.979   6.107
 5617POPC   D2A72328  34.657  12.728   6.480
 5617POPC   C3A72329  34.701  12.929   6.884
 5617POPC   C4A72330  34.381  12.853   7.158
 5617POPC   C1B72331  35.065  12.552   6.162
 5617POPC   C2B72332  35.155  12.781   6.572
 5617POPC   C3B72333  35.077  12.579   6.976
 5617POPC   C4B72334  35.335  12.518   7.338
 5618POPC   NC372335  30.450  23.569   5.388
 5618POPC   PO472336  30.669  24.145   5.361
 5618POPC   GL172337  30.562  23.932   5.736
 5618POPC   GL272338  30.817  23.686   5.731
 5618POPC   C1A72339  30.489  23.724   6.140
 5618POPC   D2A72340  30.328  23.831   6.562
 5618POPC   C3A72341  30.491  23.685   6.946
 5618POPC   C4A72342  30.466  23.790   7.387
 5618POPC   C1B72343  30.945  23.952   6.092
 5618POPC   C2B72344  30.836  23.896   6.535
 5618POPC   C3B72345  30.871  24.008   6.985
 5618POPC   C4B72346  31.037  24.172   7.360
 5619POPC   NC372347  20.054   9.214   5.426
 5619POPC   PO472348  19.492   8.774   5.451
 5619POPC   GL172349  19.666   9.010   5.761
 5619POPC   GL272350  20.005   8.861   5.788
 5619POPC   C1A72351  19.703   8.901   6.195
 5619POPC   D2A72352  19.566   8.821   6.593
 5619POPC   C3A72353  19.705   9.015   6.964
 5619POPC   C4A72354  19.539   9.020   7.386
 5619POPC   C1B72355  20.212   8.964   6.167
 5619POPC   C2B72356  20.106   8.840   6.589
 5619POPC   C3B72357  20.223   9.021   6.975
 5619POPC   C4B72358  20.074   9.051   7.428
 5620POPC   NC372359  28.210  34.813   5.071
 5620POPC   PO472360  28.470  34.507   5.672
 5620POPC   GL172361  28.325  34.565   6.008
 5620POPC   GL272362  28.024  34.384   6.039
 5620POPC   C1A72363  28.478  34.658   6.398
 5620POPC   D2A72364  28.343  34.417   6.726
 5620POPC   C3A72365  28.390  34.669   7.082
 5620POPC   C4A72366  28.742  34.759   7.306
 5620POPC   C1B72367  27.923  34.819   6.161
 5620POPC   C2B72368  27.873  34.870   6.590
 5620POPC   C3B72369  27.826  34.482   6.774
 5620POPC   C4B72370  28.024  34.303   7.111
 5621POPC   NC372371   5.165   6.157   5.215
 5621POPC   PO472372   5.269   5.618   5.587
 5621POPC   GL172373   4.913   5.804   5.829
 5621POPC   GL272374   4.834   6.155   5.786
 5621POPC   C1A72375   4.786   5.774   6.260
 5621POPC   D2A72376   5.118   5.784   6.544
 5621POPC   C3A72377   5.164   6.059   6.892
 5621POPC   C4A72378   5.064   5.887   7.288
 5621POPC   C1B72379   4.706   6.288   6.221
 5621POPC   C2B72380   4.709   6.145   6.639
 5621POPC   C3B72381   4.711   6.210   7.078
 5621POPC   C4B72382   4.672   6.167   7.510
 5622POPC   NC372383  38.828   6.079   5.551
 5622POPC   PO472384  38.404   5.558   5.526
 5622POPC   GL172385  38.494   5.742   5.908
 5622POPC   GL272386  38.365   6.071   5.825
 5622POPC   C1A72387  38.441   5.794   6.378
 5622POPC   D2A72388  38.359   5.943   6.817
 5622POPC   C3A72389  38.123   5.760   7.152
 5622POPC   C4A72390  38.218   5.797   7.595
 5622POPC   C1B72391  38.581   6.224   6.147
 5622POPC   C2B72392  38.723   6.206   6.568
 5622POPC   C3B72393  38.772   6.335   7.004
 5622POPC   C4B72394  38.793   6.176   7.410
 5623POPC   NC372395  24.378  12.259   5.239
 5623POPC   PO472396  24.281  11.734   5.691
 5623POPC   GL172397  24.278  12.213   5.768
 5623POPC   GL272398  24.581  12.361   5.748
 5623POPC   C1A72399  24.269  12.356   6.179
 5623POPC   D2A72400  24.285  11.991   6.468
 5623POPC   C3A72401  24.466  11.902   6.873
 5623POPC   C4A72402  24.309  12.029   7.270
 5623POPC   C1B72403  24.700  12.082   6.128
 5623POPC   C2B72404  24.882  11.963   6.554
 5623POPC   C3B72405  24.915  12.186   6.961
 5623POPC   C4B72406  24.751  12.240   7.385
 5624W        W72407  23.814  16.711   4.236
 5625W        W72408  21.216   5.044   1.022
 5626W        W72409  36.249  30.548  11.623
 5627W        W72410  11.802  44.125  14.998
 5628W        W72411  40.534  19.119  14.121
 5629W        W72412   6.120   6.216  12.517
 5630W        W72413  21.066  19.557   4.168
 5631W        W72414   7.866  44.066  13.000
 5632W        W72415  23.059  28.970  12.868
 5633W        W72416   5.910  16.647   3.199
 5634W        W72417  24.460  41.527   5.080
 5635W        W72418  15.560  35.103  13.361
 5636W        W72419  30.467  25.821   1.833
 5637W        W72420  15.963  40.003  11.393
 5638W        W72421  40.382  36.352   4.559
 5639W        W72422  37.997   9.845  12.001
 5640W        W72423  42.734  30.933   0.943
 5641W        W72424  28.600  26.109   4.262
 5642W        W72425   8.257  22.006   2.427
 5643W        W72426  32.434   4.927  12.904
 5644W        W72427  44.729   7.712  11.995
 5645W        W72428  22.657   9.110  12.359
 5646W        W72429  42.321  40.750   2.858
 5647W        W72430  44.409   2.764   1.262
 5648W        W72431  30.692  27.424   0.355
 5649W        W72432   5.446  10.738  14.037
 5650W        W72433  35.921  32.758   0.069
 5651W        W72434   0.767  35.913   0.403
 5652W        W72435  31.673   6.909   4.654
 5653W        W72436  25.932  21.962   0.550
 5654W        W72437  39.028  10.127   1.354
 5655W        W72438   7.686  31.310   1.343
 5656W        W72439   0.640  26.821  10.488
 5657W        W72440   2.291  33.914   2.678
 5658W        W72441  27.137   4.908   2.122
 5659W        W72442   9.883   3.396   2.799
 5660W        W72443   1.825  22.219  10.920
 5661W        W72444   4.686  25.661  14.277
 5662W        W72445  12.159  10.239   0.762
 5663W        W72446  13.616  29.701  12.438
 5664W        W72447  40.363  26.475  13.593
 5665W        W72448  26.573  12.678   4.081
 5666W        W72449  12.377  15.650   2.391
 5667W        W72450  44.262  40.522  14.568
 5668W        W72451  39.316  25.060  13.779
 5669W        W72452   3.496  44.575  12.960
 5670W        W72453   8.723  44.410  14.856
 5671W        W72454  43.524  44.981  11.451
 5672W        W72455  12.041  44.532  11.109
 5673W        W72456  41.469   1.686  12.542
 5674W        W72457  32.060  41.382   2.650
 5675W        W72458  10.694  19.529   1.962
 5676W        W72459   6.292  26.749   2.180
 5677W        W72460   1.305  18.687   0.987
 5678W        W72461  34.617  35.117  14.002
 5679W        W72462  13.668   0.526   0.293
 5680W        W72463  11.265   7.847   0.104
 5681W        W72464  43.100   8.507  14.934
 5682W        W72465  38.539   4.178   4.376
 5683W        W72466  35.652  24.196  14.908
 5684W        W72467   1.881   4.538  11.356
 5685W        W72468  15.584   4.951  13.323
 5686W        W72469   6.810  24.177   4.114
 5687W        W72470  35.946  10.657   0.430
 5688W        W72471  25.077  43.752  12.786
 5689W        W72472  10.404  22.150  14.997
 5690W        W72473  35.820  27.542   1.815
 5691W        W72474  28.553  22.950  12.042
 5692W        W72475  16.583  22.543   0.827
 5693W        W72476  42.584  28.088  13.720
 5694W        W72477   6.247  22.011  11.922
 5695W        W72478  41.933   7.265  12.986
 5696W        W72479  24.494  21.104  10.643
 5697W        W72480  29.701  20.260   0.977
 5698W        W72481  39.442  35.064  11.106
 5699W        W72482  13.596  24.341   0.878
 5700W        W72483  32.646  19.730   2.486
 5701W        W72484  37.064  28.875  11.135
 5702W        W72485  11.938  12.730   2.874
 5703W        W72486  36.912  26.556  11.155
 5704W        W72487  34.778  19.735  11.692
 5705W        W72488   1.686  30.562  12.492
 5706W        W72489  42.282   2.042  11.412
 5707W        W72490  23.052   8.638   0.915
 5708W        W72491  13.223  23.777   2.856
 5709W        W72492   6.920  29.530   4.842
 5710W        W72493  23.782  10.375  13.367
 5711W        W72494   5.662   5.415   0.384
 5712W        W72495  24.889  25.601  11.373
 5713W        W72496   5.226  19.371  14.457
 5714W        W72497  10.186  22.883  14.343
 5715W        W72498  41.315  20.975  12.153
 5716W        W72499  44.386   9.042   2.358
 5717W        W72500  16.473  10.623   3.302
 5718W        W72501  17.355  27.455  12.531
 5719W        W72502   9.571  17.054  14.755
 5720W        W72503   8.772  29.881   0.996
 5721W        W72504   5.364  24.241  14.981
 5722W        W72505  24.944   9.065   1.690
 5723W        W72506   9.816   7.952   3.071
 5724W        W72507  36.725   9.426   1.500
 5725W        W72508   8.427   3.833  13.027
 5726W        W72509  29.138  19.290  13.157
 5727W        W72510   6.587  14.402  10.464
 5728W        W72511  35.035  29.449   0.679
 5729W        W72512  20.332   9.104   0.288
 5730W        W72513  39.001   2.497   4.127
 5731W        W72514  34.987  33.189  14.911
 5732W        W72515  44.396  12.350  13.325
 5733W        W72516  30.510  16.677   4.036
 5734W        W72517  21.126  29.918   0.799
 5735W        W72518   2.092  28.795  10.354
 5736W        W72519  24.674   9.201  12.199
 5737W        W72520  23.165  36.785   4.824
 5738W        W72521  18.059  32.936   0.366
 5739W        W72522  44.170  39.151   4.449
 5740W        W72523  23.994  38.436  12.537
 5741W        W72524   4.070  13.706  12.424
 5742W        W72525  24.356  10.992   4.311
 5743W        W72526  39.421  28.312  12.357
 5744W        W72527  31.121  41.958   0.323
 5745W        W72528   8.842   5.709   1.305
 5746W        W72529  21.632  35.888   4.631
 5747W        W72530  19.714  35.326   0.298
 5748W        W72531  17.983   0.436  12.537
 5749W        W72532   3.609  37.587  11.164
 5750W        W72533   8.069   7.158   4.064
 5751W        W72534  32.489  32.587   0.322
 5752W        W72535  43.770  10.241  13.468
 5753W        W72536  43.768  18.124   1.510
 5754W        W72537  39.108  38.367  12.048
 5755W        W72538  21.118  17.574  11.433
 5756W        W72539  37.766  18.299  13.084
 5757W        W72540  27.722   3.407   3.119
 5758W        W72541  39.679  14.189   4.977
 5759W        W72542  30.529  14.141  10.761
 5760W        W72543   1.894   4.764   3.713
 5761W        W72544  21.235  34.856  13.544
 5762W        W72545  31.028  44.539  13.383
 5763W        W72546  26.575  33.667  11.878
 5764W        W72547  14.243  43.364  13.941
 5765W        W72548  20.108  18.459   2.262
 5766W        W72549   8.119  30.611  10.891
 5767W        W72550  23.811  24.221  14.832
 5768W        W72551  35.788  38.495  12.471
 5769W        W72552  33.101   1.186   0.890
 5770W        W72553  12.911   2.447  11.149
 5771W        W72554  43.387  18.070   1.154
 5772W        W72555  38.699  19.703   0.781
 5773W        W72556  11.095  19.724  14.611
 5774W        W72557  20.035  14.448   0.169
 5775W        W72558  20.887   9.472   0.931
 5776W        W72559  22.817  33.319   0.933
 5777W        W72560  37.100  31.303  12.042
 5778W        W72561  18.878  39.166   2.271
 5779W        W72562   3.992  23.624   2.414
 5780W        W72563  30.162   3.418  14.500
 5781W        W72564  20.139  12.299  12.600
 5782W        W72565   3.909   5.256  12.831
 5783W        W72566  13.282   3.293   4.970
 5784W        W72567  13.663  14.206   4.750
 5785W        W72568  11.782  16.198  14.876
 5786W        W72569   5.395  38.078  14.448
 5787W        W72570  21.309  29.144   2.644
 5788W        W72571  27.612  34.440  12.703
 5789W        W72572  11.527  16.622   2.745
 5790W        W72573  42.750  18.248   3.272
 5791W        W72574   6.364  21.011   4.120
 5792W        W72575  32.611  30.033  13.413
 5793W        W72576  27.643   4.968   3.734
 5794W        W72577   3.248  28.034   3.705
 5795W        W72578  18.719  34.531   4.433
 5796W        W72579  23.021  13.321  11.564
 5797W        W72580  19.464  13.065   3.730
 5798W        W72581  10.966   8.192   3.210
 5799W        W72582  30.221  26.123  11.069
 5800W        W72583  34.654   2.046   4.656
 5801W        W72584  36.443  23.067   4.049
 5802W        W72585   7.221   6.798   4.340
 5803W        W72586   2.271  24.682   3.685
 5804W        W72587  43.405  31.532  13.332
 5805W        W72588   9.858  12.623   4.938
 5806W        W72589   6.682   6.364   1.792
 5807W        W72590  28.828  13.384  11.944
 5808W        W72591  18.172  17.131  12.697
 5809W        W72592  20.688  25.082  10.572
 5810W        W72593  22.014  20.559   4.673
 5811W        W72594  32.869  32.641  14.894
 5812W        W72595  24.074  17.686  11.983
 5813W        W72596   6.683   0.034   3.437
 5814W        W72597  10.424   6.280  14.838
 5815W        W72598   5.319  34.047  11.673
 5816W        W72599  13.813  43.811  13.329
 5817W        W72600  30.667  16.097   0.854
 5818W        W72601  38.893  26.175  10.831
 5819W        W72602  37.354  23.489  13.984
 5820W        W72603  38.463  13.353  14.956
 5821W        W72604  11.100  29.248  14.806
 5822W        W72605  10.808  13.030   2.324
 5823W        W72606  36.125  18.462   0.356
 5824W        W72607  24.064  11.062   0.006
 5825W        W72608  44.063  38.453  13.355
 5826W        W72609  10.803  29.795   3.466
 5827W        W72610  20.218  19.315   3.625
 5828W        W72611  30.928  12.325  11.570
 5829W        W72612  19.249  20.114   2.406
 5830W        W72613  25.648  22.708  14.460
 5831W        W72614   2.762  18.688   1.336
 5832W        W72615  44.511   3.822   0.813
 5833W        W72616  36.778  20.106   0.887
 5834W        W72617   8.129  24.473  11.531
 5835W        W72618   3.395   1.570   3.364
 5836W        W72619   5.930  25.875   3.623
 5837W        W72620   1.172  13.677  11.149
 5838W        W72621   4.288  42.964  12.213
 5839W        W72622  34.649  37.279  11.950
 5840W        W72623  44.754  31.060   3.266
 5841W        W72624  26.954  17.224  12.993
 5842W        W72625  22.179  44.383  10.723
 5843W        W72626  14.159  11.783   4.220
 5844W        W72627  38.611  36.798   1.788
 5845W        W72628  44.488  13.210  14.395
 5846W        W72629  42.815  24.462   0.396
 5847W        W72630  36.308  26.045   3.410
 5848W        W72631  24.693  16.504  14.714
 5849W        W72632   5.750   2.965  12.451
 5850W        W72633  30.240  18.725  14.263
 5851W        W72634  31.530   2.782   1.117
 5852W        W72635   6.121  43.310  11.204
 5853W        W72636  30.082  23.816  12.999
 5854W        W72637  29.574  37.435  14.394
 5855W        W72638  38.448  34.973  10.732
 5856W        W72639  36.484  31.256  11.150
 5857W        W72640   6.755   5.474   4.585
 5858W        W72641  42.853  19.164   2.897
 5859W        W72642   5.206   5.785   0.842
 5860W        W72643   3.134  22.754  12.677
 5861W        W72644  44.964  28.439   2.312
 5862W        W72645  38.610  25.593   4.107
 5863W        W72646  44.557  42.788   0.782
 5864W        W72647  31.418  23.505  12.983
 5865W        W72648  43.105   2.069  13.294
 5866W        W72649  37.771  19.515   1.214
 5867W        W72650  29.983  31.697   3.638
 5868W        W72651  33.397  42.986   2.267
 5869W        W72652  16.231  33.087  14.977
 5870W        W72653  28.532  38.869  10.332
 5871W        W72654  30.598  26.592  13.073
 5872W        W72655  36.859  20.019   3.269
 5873W        W72656  32.671   4.268   0.821
 5874W        W72657  30.909   4.282   1.715
 5875W        W72658  29.038   0.718   1.355
 5876W        W72659  30.589  16.831   2.572
 5877W        W72660  32.138  19.004   2.305
 5878W        W72661  43.031  31.799  13.610
 5879W        W72662   9.127  40.238   3.639
 5880W        W72663  28.961  11.891   0.373
 5881W        W72664  10.466  14.366   2.713
 5882W        W72665  32.530   8.819  12.950
 5883W        W72666  36.050  31.648  13.763
 5884W        W72667  33.363  35.602   1.319
 5885W        W72668   3.500   5.777  14.288
 5886W        W72669  34.189  27.571  11.077
 5887W        W72670  19.191   0.877  12.975
 5888W        W72671  19.532  38.854  10.649
 5889W        W72672  19.955  42.204  14.739
 5890W        W72673  30.825  17.798   1.317
 5891W        W72674  11.614   5.824   3.660
 5892W        W72675   5.811  12.919  12.598
 5893W        W72676   6.276  18.479  12.541
 5894W        W72677  39.946  21.971   4.524
 5895W        W72678   2.764  14.916  11.614
 5896W        W72679   4.172  24.639  12.432
 5897W        W72680  34.700  25.011   2.293
 5898W        W72681  44.463   8.428  12.118
 5899W        W72682  27.500  13.519   0.049
 5900W        W72683  44.153  33.524   4.576
 5901W        W72684  33.688  16.765  12.649
 5902W        W72685  29.965  33.534   2.757
 5903W        W72686  41.356  33.133   0.695
 5904W        W72687  28.092  35.196   0.946
 5905W        W72688   4.926  39.791  11.362
 5906W        W72689  14.845  23.546   4.792
 5907W        W72690  18.569   1.825   3.842
 5908W        W72691  22.946   9.167   3.710
 5909W        W72692  36.592  11.888  11.460
 5910W        W72693   3.493  33.459   2.295
 5911W        W72694  28.831  15.227  10.645
 5912W        W72695  19.896  28.067  12.724
 5913W        W72696  19.530  26.359   3.780
 5914W        W72697  19.067   0.291   2.017
 5915W        W72698   1.212   1.718  11.080
 5916W        W72699  32.840  42.554   3.139
 5917W        W72700  27.238  41.842  12.961
 5918W        W72701  30.868  19.875   4.030
 5919W        W72702  35.308  13.636   0.886
 5920W        W72703  11.559  17.713   2.791
 5921W        W72704  40.150  30.474  11.039
 5922W        W72705   9.093  33.396  13.742
 5923W        W72706   8.850  39.433  11.151
 5924W        W72707  44.723  18.666  11.228
 5925W        W72708  28.652   0.801   0.043
 5926W        W72709   1.705  34.862  10.725
 5927W        W72710  26.124  43.063  12.122
 5928W        W72711  22.817  19.946  11.125
 5929W        W72712  30.851   9.332   3.706
 5930W        W72713  39.488  30.077   4.186
 5931W        W72714  42.423  15.859   2.990
 5932W        W72715  25.423  44.018  11.952
 5933W        W72716  34.552  39.421  14.322
 5934W        W72717  40.559  21.220  14.325
 5935W        W72718  26.439  36.888   3.837
 5936W        W72719  39.232  21.230   2.684
 5937W        W72720  26.649   9.318   4.847
 5938W        W72721  18.305  22.878  11.980
 5939W        W72722  17.065  17.173  14.518
 5940W        W72723  33.188   1.711   1.393
 5941W        W72724  31.398  21.124  14.944
 5942W        W72725   0.436  27.619  10.490
 5943W        W72726  23.826  12.712   1.330
 5944W        W72727  43.070  26.086  12.969
 5945W        W72728  22.715   1.896   4.490
 5946W        W72729   1.317  25.009  14.057
 5947W        W72730  22.178  37.030  12.610
 5948W        W72731  26.417  28.559  11.222
 5949W        W72732   7.332  22.459  14.988
 5950W        W72733  24.322  22.140  13.889
 5951W        W72734  30.282   0.741  10.820
 5952W        W72735  37.939  10.899  14.326
 5953W        W72736  22.619  22.254  10.973
 5954W        W72737  20.642   8.625  12.651
 5955W        W72738  29.195  24.962  10.728
 5956W        W72739   1.575  12.630   0.188
 5957W        W72740  28.328   0.053   0.720
 5958W        W72741  22.310   0.721   3.662
 5959W        W72742  32.893   3.915  11.986
 5960W        W72743   7.743  14.350  12.047
 5961W        W72744  43.260   2.355  10.618
 5962W        W72745  16.862  37.794  10.659
 5963W        W72746  43.355  23.311  13.878
 5964W        W72747  23.868   1.259   0.330
 5965W        W72748  10.297  29.064  10.661
 5966W        W72749  10.116  25.644   1.664
 5967W        W72750  38.091  27.112   0.763
 5968W        W72751  32.157  10.806  11.103
 5969W        W72752  13.572   7.395  12.320
 5970W        W72753   1.671  36.896   3.093
 5971W        W72754   3.695  12.670   1.905
 5972W        W72755  23.772  14.759  12.383
 5973W        W72756  34.865  19.822  14.124
 5974W        W72757  35.436  41.820  14.880
 5975W        W72758  33.159   7.747   1.097
 5976W        W72759  21.564  37.447  10.630
 5977W        W72760  16.681  21.638  12.804
 5978W        W72761  29.729   0.319   0.845
 5979W        W72762  12.079  30.442  13.881
 5980W        W72763  33.286  44.771   4.181
 5981W        W72764   9.642  28.763  12.554
 5982W        W72765  13.548  13.423  14.988
 5983W        W72766  25.216  38.055   0.977
 5984W        W72767  33.550  34.395   2.463
 5985W        W72768  15.324  13.365  11.046
 5986W        W72769  33.493  43.833  11.335
 5987W        W72770  23.317  41.391   4.070
 5988W        W72771   2.033  37.374   3.727
 5989W        W72772   6.214  25.720   3.217
 5990W        W72773  43.524  23.657  12.946
 5991W        W72774  18.681  15.323  14.113
 5992W        W72775   3.360  24.187  12.609
 5993W        W72776  26.450  42.045   1.459
 5994W        W72777   4.826  18.673   4.570
 5995W        W72778  33.350  32.010   2.751
 5996W        W72779   6.105  36.024   4.323
 5997W        W72780  25.256  42.821   4.436
 5998W        W72781  40.320  42.327  14.733
 5999W        W72782   3.938  21.949   1.902
 6000W        W72783  35.541  34.804  11.377
 6001W        W72784  11.826  40.966  11.237
 6002W        W72785  22.065  10.673   3.593
 6003W        W72786  26.818   6.392   2.453
 6004W        W72787  21.581  27.977  10.501
 6005W        W72788   3.768  35.407   1.521
 6006W        W72789  36.343  35.960   4.052
 6007W        W72790  25.084  17.714   3.117
 6008W        W72791  39.432   2.318  10.765
 6009W        W72792  44.292  40.608   2.173
 6010W        W72793  22.782  38.878  10.358
 6011W        W72794  21.074  43.092  14.793
 6012W        W72795  21.345  21.927   2.181
 6013W        W72796  12.316  14.078  11.481
 6014W        W72797  21.000  32.068  10.793
 6015W        W72798  32.038  34.271  10.750
 6016W        W72799   2.658   7.118  11.596
 6017W        W72800  32.385  18.342  14.829
 6018W        W72801  10.237  21.242   2.817
 6019W        W72802  41.322  34.414   3.189
 6020W        W72803  23.447  33.772  11.578
 6021W        W72804  11.073  34.581   0.005
 6022W        W72805  35.338  29.136   3.644
 6023W        W72806  32.321  38.094   2.862
 6024W        W72807  32.515  13.736  11.997
 6025W        W72808  17.378  24.257  12.480
 6026W        W72809  34.181  26.797   3.251
 6027W        W72810  29.984  43.111   3.519
 6028W        W72811   0.261  27.177   1.203
 6029W        W72812   7.876  42.198  13.553
 6030W        W72813  22.176  16.729  11.603
 6031W        W72814  31.721  41.017  13.090
 6032W        W72815   8.116  30.983  10.530
 6033W        W72816  27.283   6.550   0.355
 6034W        W72817   5.405   8.379  14.208
 6035W        W72818  26.979  21.828  11.583
 6036W        W72819  37.045  14.283  11.124
 6037W        W72820  12.138  12.299  11.911
 6038W        W72821  12.105  40.050  12.995
 6039W        W72822  24.052   9.414   1.705
 6040W        W72823  35.110  23.965  14.525
 6041W        W72824  12.123  30.372   3.574
 6042W        W72825  41.975  25.204   3.325
 6043W        W72826  43.252  44.359  14.978
 6044W        W72827   1.764  23.692   3.814
 6045W        W72828  32.521   9.166  14.861
 6046W        W72829  36.951  36.377  14.421
 6047W        W72830  24.853  31.557  13.779
 6048W        W72831  40.238  30.664   3.847
 6049W        W72832  41.896  37.490   4.106
 6050W        W72833  30.639  23.233  10.705
 6051W        W72834  44.691  31.009  14.330
 6052W        W72835  28.379   5.661  14.359
 6053W        W72836  33.844  32.354  14.884
 6054W        W72837  38.469  27.870   3.079
 6055W        W72838  43.017  22.619  11.237
 6056W        W72839   3.276   1.922  14.136
 6057W        W72840  42.293  11.954   3.758
 6058W        W72841   4.944   1.218  10.727
 6059W        W72842  33.321  39.239   3.790
 6060W        W72843  22.893  40.512  13.997
 6061W        W72844   2.789  15.377   1.252
 6062W        W72845  18.580  15.824  12.421
 6063W        W72846   8.433  17.566  12.014
 6064W        W72847  19.634  20.661   1.731
 6065W        W72848  10.593  15.582  13.003
 6066W        W72849  22.046   2.936  14.272
 6067W        W72850  24.587   3.025  12.086
 6068W        W72851  40.754  21.997   3.624
 6069W        W72852  21.067  15.607  10.288
 6070W        W72853  15.303  27.305  14.452
 6071W        W72854  29.072  15.928   2.149
 6072W        W72855  18.552  28.394  11.584
 6073W        W72856   8.883  40.625  14.575
 6074W        W72857  19.801  31.648  11.121
 6075W        W72858  29.395  16.009  13.542
 6076W        W72859  21.330   9.886  11.258
 6077W        W72860  22.646  20.782   0.318
 6078W        W72861  12.086  25.494   1.872
 6079W        W72862  19.362  13.674   4.532
 6080W        W72863   8.494  33.519  12.981
 6081W        W72864  10.804  12.525  10.623
 6082W        W72865  15.419  24.972  11.241
 6083W        W72866   2.739  15.812  12.058
 6084W        W72867  38.038  16.234  13.292
 6085W        W72868  26.689  25.602   3.106
 6086W        W72869  13.104  30.871  10.711
 6087W        W72870  22.822  39.101   2.330
 6088W        W72871  41.537  28.675   3.212
 6089W        W72872  17.472  11.248  13.555
 6090W        W72873  17.508  36.399   0.522
 6091W        W72874  36.593  32.854   2.889
 6092W        W72875  29.491  38.254   2.613
 6093W        W72876   4.821   2.193  11.594
 6094W        W72877  23.762  19.876  12.869
 6095W        W72878  32.413  14.124  14.995
 6096W        W72879  24.229  32.644  14.430
 6097W        W72880   5.862  16.720  14.568
 6098W        W72881  21.156  34.136   0.001
 6099W        W72882  32.374  27.457  11.571
 6100W        W72883  14.040  34.343  11.522
 6101W        W72884  17.204  12.924  10.529
 6102W        W72885  22.296  19.560  13.990
 6103W        W72886   1.803  32.942  14.340
 6104W        W72887   0.352  40.615  13.200
 6105W        W72888  16.224  24.891  11.862
 6106W        W72889  40.827  44.485  11.694
 6107W        W72890  34.049  38.720  14.338
 6108W        W72891  31.641  30.372   2.329
 6109W        W72892  37.675  14.968   0.988
 6110W        W72893   6.849  41.891   3.808
 6111W        W72894  37.846  16.582   0.287
 6112W        W72895   7.772  27.681  14.867
 6113W        W72896  34.642   0.251  11.320
 6114W        W72897  44.634  33.951  11.996
 6115W        W72898  28.655  30.954  12.484
 6116W        W72899  11.214  25.454   0.923
 6117W        W72900  44.858   0.332   2.229
 6118W        W72901  39.308  36.847   1.952
 6119W        W72902  40.350  34.550   4.240
 6120W        W72903  25.433   1.953   2.723
 6121W        W72904  18.171  11.862  12.535
 6122W        W72905  34.028  16.051  12.893
 6123W        W72906   8.411  44.278   0.284
 6124W        W72907  18.889  15.259  11.162
 6125W        W72908   7.217  37.416   4.057
 6126W        W72909  31.809  19.457  12.527
 6127W        W72910  40.957  38.607  10.770
 6128W        W72911   6.816  21.713   2.304
 6129W        W72912   3.513   4.190   0.289
 6130W        W72913   0.079  15.588   1.423
 6131W        W72914  11.990  21.606  11.590
 6132W        W72915  10.186  20.951  13.948
 6133W        W72916  43.864  16.850   3.701
 6134W        W72917  14.615  34.400  13.440
 6135W        W72918  24.432  39.414  10.646
 6136W        W72919   0.807  14.672   5.006
 6137W        W72920  33.057  19.499   2.210
 6138W        W72921  26.379  15.951  14.758
 6139W        W72922  33.632  38.390   3.849
 6140W        W72923   0.091   5.549  14.208
 6141W        W72924  29.846   0.068  12.639
 6142W        W72925  32.573  18.756   2.120
 6143W        W72926  19.404  11.576   0.077
 6144W        W72927  10.085  10.273   2.729
 6145W        W72928  19.112  13.528   4.983
 6146W        W72929  38.944  33.401  14.042
 6147W        W72930  25.519  44.996   4.488
 6148W        W72931  18.899   4.124   1.876
 6149W        W72932  27.989   4.539  14.913
 6150W        W72933  14.684  23.106  10.755
 6151W        W72934  12.420  25.970   3.219
 6152W        W72935  13.023  23.879  12.633
 6153W        W72936  31.762  25.095   1.253
 6154W        W72937  32.573  35.795   2.378
 6155W        W72938  10.252  43.799   0.307
 6156W        W72939  30.718  18.004  12.473
 6157W        W72940  11.371   5.370  10.686
 6158W        W72941  27.667  22.402  11.650
 6159W        W72942  33.597  16.757  14.612
 6160W        W72943  32.690  38.243  12.315
 6161W        W72944  21.990   6.879   9.503
 6162W        W72945   2.392  14.056  11.529
 6163W        W72946  25.073  41.896  13.717
 6164W        W72947  31.602   6.484   3.662
 6165W        W72948  11.902   1.788  10.781
 6166W        W72949  11.914  16.737  11.579
 6167W        W72950  11.614  16.093  14.044
 6168W        W72951  18.095  16.528   4.206
 6169W        W72952  27.655  13.668  12.117
 6170W        W72953   8.870  19.810   1.612
 6171W        W72954  12.322  19.064   0.775
 6172W        W72955  35.519  41.917   2.426
 6173W        W72956  38.392   7.328   0.638
 6174W        W72957  30.143  35.196  10.774
 6175W        W72958  10.472  24.122  12.631
 6176W        W72959  20.758  25.007  13.668
 6177W        W72960  21.172  34.791  11.171
 6178W        W72961  41.630  36.772   4.318
 6179W        W72962   2.784  10.684  12.544
 6180W        W72963   9.720  24.287   2.365
 6181W        W72964   0.275  39.302  12.810
 6182W        W72965  44.188  42.043  10.480
 6183W        W72966  16.661  14.229  11.990
 6184W        W72967  23.036  12.270   0.694
 6185W        W72968  37.556  13.101  14.783
 6186W        W72969  21.006   9.718  11.611
 6187W        W72970   5.871  43.797   4.568
 6188W        W72971  41.249   9.733  11.425
 6189W        W72972  24.637  13.291   1.376
 6190W        W72973  17.591   9.225  13.284
 6191W        W72974  23.210  37.149  11.476
 6192W        W72975  35.148  40.163   3.308
 6193W        W72976  29.184  22.214   4.111
 6194W        W72977  40.972   2.837  10.750
 6195W        W72978  14.478  33.530  13.955
 6196W        W72979  27.162  16.744  13.047
 6197W        W72980   7.268  41.433  13.294
 6198W        W72981  37.010  34.653   2.389
 6199W        W72982  28.487   4.777  11.969
 6200W        W72983  10.576  38.036   2.779
 6201W        W72984  27.480  28.499  13.403
 6202W        W72985  10.132  20.604   0.540
 6203W        W72986   5.048  15.660  13.072
 6204W        W72987  28.542  26.985   0.545
 6205W        W72988  29.456  40.378   0.444
 6206W        W72989  43.790  38.416  13.806
 6207W        W72990  42.214  32.643   0.838
 6208W        W72991  21.296  22.598  11.037
 6209W        W72992   6.157   0.488  11.033
 6210W        W72993  41.753  28.782   1.908
 6211W        W72994  29.386  36.495   0.954
 6212W        W72995  40.954  32.543  14.137
 6213W        W72996  12.502  36.238  13.706
 6214W        W72997   4.955  23.270   3.253
 6215W        W72998   6.932   0.783   0.481
 6216W        W72999   9.624   0.432   0.668
 6217W        W73000  24.431  40.091   4.082
 6218W        W73001  43.431  15.123  13.424
 6219W        W73002  29.154  12.113   4.580
 6220W        W73003  17.596   8.269   1.428
 6221W        W73004  36.451   4.480   3.576
 6222W        W73005  14.255  42.848   0.769
 6223W        W73006  39.606  29.978  14.677
 6224W        W73007  32.880   3.635  12.446
 6225W        W73008  42.249  43.820   4.563
 6226W        W73009  19.869   0.873  13.976
 6227W        W73010  26.435   5.199   3.413
 6228W        W73011  42.506   3.867  11.245
 6229W        W73012  42.406  26.168   0.851
 6230W        W73013  29.062   3.558  12.486
 6231W        W73014  44.359  27.424   4.633
 6232W        W73015  33.578   5.199  13.033
 6233W        W73016  31.395  20.526  12.091
 6234W        W73017  13.339  38.563  11.863
 6235W        W73018   6.229  23.120   3.706
 6236W        W73019  10.768  12.869  12.002
 6237W        W73020   0.085  10.724   3.612
 6238W        W73021  42.291  38.933  12.543
 6239W        W73022  16.709  35.756  10.349
 6240W        W73023  14.661  38.885   2.820
 6241W        W73024   4.737   6.932  13.480
 6242W        W73025  18.638   7.869   4.463
 6243W        W73026  38.929  26.212   3.691
 6244W        W73027  22.603   9.940   3.694
 6245W        W73028  13.941  13.889  13.029
 6246W        W73029  16.723  15.378   2.514
 6247W        W73030  10.192  31.688  13.877
 6248W        W73031  23.930  39.357   0.006
 6249W        W73032  19.320  44.288  12.523
 6250W        W73033  37.890  15.254  14.256
 6251W        W73034  15.015  18.361  11.231
 6252W        W73035  29.249  23.638  10.701
 6253W        W73036  44.471  24.151   0.956
 6254W        W73037  25.584  13.516  11.581
 6255W        W73038  10.399  25.598   1.216
 6256W        W73039  44.967   6.332   2.426
 6257W        W73040  28.100  12.286   2.209
 6258W        W73041  18.233  23.061   4.753
 6259W        W73042  29.651  17.052   3.350
 6260W        W73043  37.002  16.798  13.174
 6261W        W73044  20.121   9.960  14.810
 6262W        W73045  32.097  31.004  10.717
 6263W        W73046  14.045  20.941   4.693
 6264W        W73047  44.361  34.269  13.643
 6265W        W73048   8.414   7.415  13.597
 6266W        W73049  10.869  36.385  12.694
 6267W        W73050  12.447  27.364  12.040
 6268W        W73051  18.914  10.132   5.443
 6269W        W73052  25.663  33.415   4.218
 6270W        W73053  37.316  10.384   0.519
 6271W        W73054  31.544  16.346   2.328
 6272W        W73055  34.399   8.314   4.076
 6273W        W73056  38.034   1.469   1.391
 6274W        W73057  17.500   7.847  13.086
 6275W        W73058   4.083   9.683  11.527
 6276W        W73059  41.298  26.997  14.763
 6277W        W73060  25.952   7.179  13.051
 6278W        W73061  34.877  17.504   2.835
 6279W        W73062  33.860   7.262   0.012
 6280W        W73063  42.187  13.308  11.294
 6281W        W73064  33.919  22.685  12.980
 6282W        W73065  38.605  11.180   2.669
 6283W        W73066  27.886  24.566   0.256
 6284W        W73067  18.640  39.259  11.940
 6285W        W73068   2.985  13.563  12.111
 6286W        W73069  37.106  38.594  14.966
 6287W        W73070  20.670  32.392   4.171
 6288W        W73071   1.560  25.493   2.270
 6289W        W73072  14.292  32.522   0.529
 6290W        W73073  10.191  44.720  13.963
 6291W        W73074  25.720  38.916   0.802
 6292W        W73075   5.957   9.397   0.762
 6293W        W73076   0.286  19.254   4.090
 6294W        W73077  24.997  41.888  12.390
 6295W        W73078  38.113  15.420   4.210
 6296W        W73079   9.104  15.536   4.041
 6297W        W73080  39.859  33.435   4.643
 6298W        W73081  15.712   8.682   1.141
 6299W        W73082  37.884  16.998  14.976
 6300W        W73083  27.402  23.717   1.787
 6301W        W73084  26.808  38.062   4.974
 6302W        W73085   4.688   3.490   4.675
 6303W        W73086  31.892  30.554  14.100
 6304W        W73087  39.813  37.082   0.830
 6305W        W73088  41.667  12.079  10.278
 6306W        W73089  37.803   4.599  14.782
 6307W        W73090  44.022  44.387   1.478
 6308W        W73091  34.208   3.842   1.765
 6309W        W73092  30.973  41.476   4.485
 6310W        W73093  17.210  25.960   0.599
 6311W        W73094  10.793  22.673  11.232
 6312W        W73095  43.086   9.298   4.497
 6313W        W73096  12.604  21.834   1.859
 6314W        W73097  19.722  13.161  12.510
 6315W        W73098   9.246  35.337  13.339
 6316W        W73099  24.101   1.651  13.290
 6317W        W73100   5.493  25.240  14.120
 6318W        W73101  38.153  37.789  13.997
 6319W        W73102  42.312  15.529   0.609
 6320W        W73103  27.165  24.059   0.550
 6321W        W73104   4.206  29.003  10.876
 6322W        W73105   3.395  12.727  12.117
 6323W        W73106  19.216   9.321  14.821
 6324W        W73107  29.847  41.353  12.639
 6325W        W73108  11.552  13.203   1.059
 6326W        W73109  12.729  15.405   2.115
 6327W        W73110  38.470   4.976  11.103
 6328W        W73111   4.223   4.572   4.044
 6329W        W73112  25.296  29.768  12.968
 6330W        W73113  29.103  31.890   0.936
 6331W        W73114  43.369  16.517   2.789
 6332W        W73115  18.070  26.728  11.038
 6333W        W73116   1.317  32.581   1.946
 6334W        W73117  17.054  19.397   2.006
 6335W        W73118  37.885  31.468   4.507
 6336W        W73119  26.099  43.239  10.712
 6337W        W73120   9.071  34.512   2.571
 6338W        W73121  20.225  14.368   0.653
 6339W        W73122  41.331   6.733   2.779
 6340W        W73123  15.420  23.132   1.720
 6341W        W73124  23.225   8.353  10.800
 6342W        W73125  32.990  40.388   2.668
 6343W        W73126  39.048  26.446  12.861
 6344W        W73127  36.606  33.952   2.937
 6345W        W73128  19.345  28.005  11.052
 6346W        W73129  14.387   5.156   1.343
 6347W        W73130   9.935  43.711  11.688
 6348W        W73131   8.227  26.004   1.467
 6349W        W73132  44.334  19.082  10.270
 6350W        W73133  31.647  41.970   4.804
 6351W        W73134  22.037  39.887   2.633
 6352W        W73135  28.197  32.527   3.158
 6353W        W73136  31.084  37.643  14.558
 6354W        W73137  32.739  39.905   4.505
 6355W        W73138  19.282   6.939  12.799
 6356W        W73139   6.788  20.988   0.935
 6357W        W73140  31.047   1.970   3.167
 6358W        W73141  31.527  40.387   1.431
 6359W        W73142  33.557  10.109  11.969
 6360W        W73143  36.480  29.361  13.499
 6361W        W73144   8.174   7.311  14.773
 6362W        W73145   5.454  32.442  13.861
 6363W        W73146  23.958   8.192   0.172
 6364W        W73147  37.303  19.658   1.916
 6365W        W73148  19.347  43.916   3.202
 6366W        W73149   2.753  32.632  12.852
 6367W        W73150  24.994  36.897   1.890
 6368W        W73151  34.916  15.580  11.719
 6369W        W73152  33.022  28.470  11.210
 6370W        W73153  13.326  17.687   0.431
 6371W        W73154  35.253   8.649   9.965
 6372W        W73155  17.247  34.015  14.489
 6373W        W73156   4.764  37.881  12.957
 6374W        W73157  32.256  14.174   4.572
 6375W        W73158  43.432  21.270   2.328
 6376W        W73159   2.961  19.137  12.642
 6377W        W73160   5.394  44.844  10.944
 6378W        W73161  25.656  20.832   0.905
 6379W        W73162   4.217  16.332  12.177
 6380W        W73163  29.623  39.293  11.947
 6381W        W73164   1.746  10.957   0.126
 6382W        W73165  39.450  22.677   1.300
 6383W        W73166   6.775  23.643   1.932
 6384W        W73167  29.498   7.368   1.870
 6385W        W73168  43.439   5.646   1.870
 6386W        W73169  18.653   8.698   1.237
 6387W        W73170  26.318   4.783  10.334
 6388W        W73171  12.048  20.059  12.123
 6389W        W73172  31.567   4.959  12.011
 6390W        W73173  26.869  36.155  10.736
 6391W        W73174  33.338  28.658   0.741
 6392W        W73175   0.441  11.272  11.139
 6393W        W73176  41.732   4.928  10.536
 6394W        W73177  41.514  16.669  14.139
 6395W        W73178   8.121  28.071   0.890
 6396W        W73179  21.044  40.304   1.303
 6397W        W73180   3.451  14.393  10.132
 6398W        W73181  15.823  43.517  10.886
 6399W        W73182  26.717  27.424  12.114
 6400W        W73183  43.019  13.413   2.408
 6401W        W73184  30.597  27.738  14.492
 6402W        W73185  21.529  23.921   3.259
 6403W        W73186  20.754  38.136  11.340
 6404W        W73187   1.032  19.612   0.411
 6405W        W73188  18.746   3.153  10.079
 6406W        W73189  17.559  23.469  13.842
 6407W        W73190   7.867   9.864   0.899
 6408W        W73191  13.842   2.613  12.146
 6409W        W73192   4.215  20.039   1.851
 6410W        W73193  13.192   2.327   2.800
 6411W        W73194   8.628   4.107   3.242
 6412W        W73195  37.033  29.988  13.228
 6413W        W73196   2.728  44.786  13.972
 6414W        W73197  33.629  35.505  14.353
 6415W        W73198   1.373   4.444   4.589
 6416W        W73199  37.451  40.852   1.187
 6417W        W73200  19.970   5.783   1.323
 6418W        W73201   1.065  27.961   0.502
 6419W        W73202  22.620  22.722  14.448
 6420W        W73203  38.797  25.771  11.654
 6421W        W73204  43.008  12.570   3.048
 6422W        W73205  20.140  10.686  12.539
 6423W        W73206  44.973  13.164   4.724
 6424W        W73207  16.138  26.948  14.780
 6425W        W73208  18.650  18.865  12.566
 6426W        W73209  24.216  36.643   3.730
 6427W        W73210  13.313  41.907   0.701
 6428W        W73211  11.366  27.055  13.203
 6429W        W73212  11.605  32.357   0.734
 6430W        W73213  44.031  35.049  11.127
 6431W        W73214  42.918  13.489   0.860
 6432W        W73215   3.215  34.898  13.870
 6433W        W73216   3.315  42.610  12.992
 6434W        W73217  13.291   7.154  11.547
 6435W        W73218  23.767  37.972  10.543
 6436W        W73219  42.505  30.631   3.921
 6437W        W73220  12.619  28.023  13.433
 6438W        W73221  43.780  39.955  10.844
 6439W        W73222  32.163  39.851   2.771
 6440W        W73223  39.056   9.806   2.821
 6441W        W73224   1.854  16.308   3.651
 6442W        W73225  25.763  10.762   1.888
 6443W        W73226  35.823  17.508  14.696
 6444W        W73227   1.762   0.972   0.470
 6445W        W73228  15.834  31.158   2.491
 6446W        W73229  11.212  41.056  11.675
 6447W        W73230  25.159  14.667  14.247
 6448W        W73231  12.752  12.740  14.524
 6449W        W73232  27.663   5.469   3.863
 6450W        W73233  16.227   6.301   1.668
 6451W        W73234   5.817  11.823   1.873
 6452W        W73235   6.401  44.301  12.887
 6453W        W73236  11.426   4.970  12.996
 6454W        W73237  35.701  11.806  11.078
 6455W        W73238  15.119  15.107  10.721
 6456W        W73239  40.859   9.374   2.136
 6457W        W73240  38.839  33.613   2.353
 6458W        W73241  37.087   5.692   3.714
 6459W        W73242  43.649   0.873   4.296
 6460W        W73243  43.330  21.274   5.083
 6461W        W73244  23.190  24.568  12.604
 6462W        W73245   4.297  13.647   0.891
 6463W        W73246   6.725   3.715   1.854
 6464W        W73247  39.089  36.563   4.161
 6465W        W73248  32.108  15.543   3.680
 6466W        W73249   8.180   2.460   0.437
 6467W        W73250  40.020  18.015  12.425
 6468W        W73251   1.626  34.907   0.488
 6469W        W73252  35.134   8.353  12.012
 6470W        W73253  43.472   4.266  14.475
 6471W        W73254  16.635  42.681  14.848
 6472W        W73255   7.260  29.659  10.887
 6473W        W73256  23.518  38.805  11.555
 6474W        W73257  20.071   2.827  12.477
 6475W        W73258  21.887  12.503  13.546
 6476W        W73259   6.089   6.270  14.911
 6477W        W73260  18.052  16.370  11.994
 6478W        W73261  18.213  25.921   0.908
 6479W        W73262   4.314  30.553   0.381
 6480W        W73263  11.911  29.503   2.351
 6481W        W73264  33.207  11.855  13.298
 6482W        W73265   7.689  19.524  10.699
 6483W        W73266  36.485  28.381   2.816
 6484W        W73267  35.960  20.953   2.790
 6485W        W73268  21.465   0.514  11.729
 6486W        W73269   2.225  42.007  11.621
 6487W        W73270  19.150  11.450  12.064
 6488W        W73271  44.596  16.301   1.292
 6489W        W73272  24.848  22.360  12.077
 6490W        W73273   1.524  37.867  13.927
 6491W        W73274  17.046  42.576   1.730
 6492W        W73275   5.488  29.719   0.460
 6493W        W73276  29.766  14.074  11.097
 6494W        W73277  10.602   3.314   0.158
 6495W        W73278   5.322  11.775  11.704
 6496W        W73279   1.366  40.274   2.649
 6497W        W73280  37.374  23.462   0.275
 6498W        W73281   5.304  43.192   3.307
 6499W        W73282  25.523  37.516  12.468
 6500W        W73283   4.653  24.677   4.106
 6501W        W73284  16.119  39.132  11.363
 6502W        W73285   9.082   5.164   1.400
 6503W        W73286   4.783  37.308  13.742
 6504W        W73287   9.507  23.867  10.743
 6505W        W73288  16.280   0.265  10.759
 6506W        W73289  18.490  18.277   4.352
 6507W        W73290   8.394  44.323  12.716
 6508W        W73291  22.677  36.619   4.919
 6509W        W73292  31.357  17.838  11.165
 6510W        W73293  29.739  40.850   4.084
 6511W        W73294  36.327  25.330  13.443
 6512W        W73295  41.848  24.952   0.249
 6513W        W73296  37.175  42.423  10.980
 6514W        W73297  18.828  35.035   0.746
 6515W        W73298  20.369  27.914  12.001
 6516W        W73299   8.206   1.658   4.222
 6517W        W73300  12.662  15.291  11.965
 6518W        W73301   0.002   4.733   4.373
 6519W        W73302  40.084   6.353   1.929
 6520W        W73303  16.311  22.622  10.998
 6521W        W73304   8.659  17.727  12.890
 6522W        W73305   2.221  38.786  13.525
 6523W        W73306  31.027  28.663  14.267
 6524W        W73307  40.601  23.238  12.502
 6525W        W73308  39.520  10.187   0.634
 6526W        W73309  32.011  34.901  13.506
 6527W        W73310  10.838  31.678  11.548
 6528W        W73311  28.144  15.377  14.958
 6529W        W73312  27.934  41.216   3.058
 6530W        W73313  37.965  42.571   3.604
 6531W        W73314  40.751  41.966  10.550
 6532W        W73315  29.511  22.291  10.763
 6533W        W73316  33.516  37.527  12.621
 6534W        W73317  31.528  24.551   2.796
 6535W        W73318  12.160  20.608  12.973
 6536W        W73319  17.054  18.031  14.967
 6537W        W73320  23.111  13.982  12.898
 6538W        W73321  26.615  41.771   1.868
 6539W        W73322  29.692   0.757   2.605
 6540W        W73323  23.477   2.115  12.163
 6541W        W73324  37.607  12.858  12.536
 6542W        W73325  17.754   6.726  14.765
 6543W        W73326  18.052  20.308  14.720
 6544W        W73327   6.794  24.504  11.056
 6545W        W73328  29.527  29.695   0.995
 6546W        W73329  24.582   4.976  12.279
 6547W        W73330  31.875   4.727  13.472
 6548W        W73331  17.078  24.203   2.687
 6549W        W73332  44.925   2.245   2.282
 6550W        W73333  36.722   0.752  10.793
 6551W        W73334  38.672  13.765  10.734
 6552W        W73335   7.805  39.813   0.408
 6553W        W73336  19.684  37.536  14.941
 6554W        W73337  39.172  10.758  11.375
 6555W        W73338  23.056  13.824   2.384
 6556W        W73339   0.341  33.878   4.445
 6557W        W73340  26.951  44.501  11.273
 6558W        W73341  12.038  15.731  11.278
 6559W        W73342  38.325  12.147  11.633
 6560W        W73343  16.024   7.790   3.439
 6561W        W73344  34.455  28.635  10.629
 6562W        W73345  29.431  14.598  12.177
 6563W        W73346  27.147  15.823  11.483
 6564W        W73347   3.903  41.953   3.233
 6565W        W73348  22.181   0.409   9.754
 6566W        W73349  40.772   7.633  14.676
 6567W        W73350   7.607  16.103   2.285
 6568W        W73351  13.211  23.711  14.779
 6569W        W73352  37.529  38.393  13.019
 6570W        W73353  33.551  41.301   4.754
 6571W        W73354  26.112   8.713  13.963
 6572W        W73355  30.919  25.467   4.550
 6573W        W73356  10.182  44.055  10.114
 6574W        W73357  13.278   1.527  10.304
 6575W        W73358  33.964  31.108   3.730
 6576W        W73359  35.909   4.940   0.727
 6577W        W73360  30.762  40.332   4.928
 6578W        W73361  34.868  38.276  12.898
 6579W        W73362  10.927  27.522   0.274
 6580W        W73363  10.200  15.920   1.355
 6581W        W73364  14.234  44.562   4.954
 6582W        W73365  28.263  17.752  12.929
 6583W        W73366  35.383  11.642  14.562
 6584W        W73367  16.639   8.167  11.658
 6585W        W73368  42.488  43.177  11.918
 6586W        W73369   6.539  22.833  14.489
 6587W        W73370  27.592  13.687   2.279
 6588W        W73371  28.018  22.077   3.855
 6589W        W73372   1.747  42.836   4.504
 6590W        W73373  34.056  38.349   4.841
 6591W        W73374  19.296   6.353  11.185
 6592W        W73375   1.731  17.934   3.223
 6593W        W73376  11.587  39.902  13.860
 6594W        W73377  21.779  29.921   3.834
 6595W        W73378  24.947  34.618   3.897
 6596W        W73379  29.587  37.839   1.869
 6597W        W73380   1.296  15.015   2.758
 6598W        W73381  31.795  37.317   2.877
 6599W        W73382   6.156   4.280  13.294
 6600W        W73383  39.353   0.447  11.082
 6601W        W73384  21.967  18.034  11.163
 6602W        W73385  36.044   4.113  11.044
 6603W        W73386   0.051   9.851   3.707
 6604W        W73387  20.805  23.697   3.754
 6605W        W73388   3.149  25.025   3.144
 6606W        W73389  11.459   5.606  13.438
 6607W        W73390  41.836   7.724   0.734
 6608W        W73391  34.631  33.621  14.887
 6609W        W73392  27.105  34.918   2.399
 6610W        W73393  24.036  33.171  12.098
 6611W        W73394  19.054  33.372  14.051
 6612W        W73395   0.380  41.084   0.109
 6613W        W73396  39.369  28.221  14.218
 6614W        W73397   5.024  41.078   4.935
 6615W        W73398  11.104  42.795  13.812
 6616W        W73399  21.584  33.303  10.602
 6617W        W73400  36.551  23.243  12.117
 6618W        W73401  39.830  35.952  13.742
 6619W        W73402  36.932  18.669  11.025
 6620W        W73403  42.451  30.817   4.529
 6621W        W73404   6.573  25.656  14.390
 6622W        W73405  19.713  15.753  11.983
 6623W        W73406   7.390  28.495   3.306
 6624W        W73407  38.117   4.486   2.183
 6625W        W73408  20.218   7.830  12.198
 6626W        W73409  43.169  34.867   2.721
 6627W        W73410   3.354  37.333   2.914
 6628W        W73411   8.048  44.056   4.104
 6629W        W73412  24.970  44.306  11.943
 6630W        W73413  28.430   5.769   4.443
 6631W        W73414  44.257  18.018   0.982
 6632W        W73415   6.726  29.110   0.252
 6633W        W73416  40.400  27.732   1.413
 6634W        W73417  32.370  16.164  12.202
 6635W        W73418  37.585   3.299  13.479
 6636W        W73419  20.438  40.198   3.167
 6637W        W73420  36.050  39.633   1.739
 6638W        W73421  27.926  33.523   0.763
 6639W        W73422  13.600  13.737   0.400
 6640W        W73423  12.259   3.826   0.862
 6641W        W73424  19.130  16.647  12.602
 6642W        W73425  37.075  25.793   4.566
 6643W        W73426  18.753  26.090   3.128
 6644W        W73427  15.393  12.469  14.719
 6645W        W73428  37.961   3.790   0.047
 6646W        W73429  42.996  32.698   0.316
 6647W        W73430  33.536   9.367   0.824
 6648W        W73431  11.061  32.788   2.204
 6649W        W73432  42.404   3.874  13.391
 6650W        W73433  27.212   7.991   3.586
 6651W        W73434  15.663   3.908   1.236
 6652W        W73435  23.689  14.541  10.771
 6653W        W73436  14.737   5.299   4.337
 6654W        W73437  23.533  29.810   1.816
 6655W        W73438   0.449  41.944   0.740
 6656W        W73439  17.255  34.073   0.485
 6657W        W73440  13.421  16.956   4.993
 6658W        W73441  36.074   3.728   5.028
 6659W        W73442  27.426   5.129   0.351
 6660W        W73443  27.066   6.832   3.732
 6661W        W73444   4.967  27.317   4.830
 6662W        W73445  16.770  37.602  11.118
 6663W        W73446  13.269  42.527  11.206
 6664W        W73447   4.307  41.164  10.724
 6665W        W73448  12.742  26.998  10.653
 6666W        W73449  38.146  20.484  12.457
 6667W        W73450   1.217  42.870  13.009
 6668W        W73451   1.788  41.033   1.746
 6669W        W73452   5.788  44.857  14.382
 6670W        W73453  26.571  43.951  10.929
 6671W        W73454  32.164  33.777  10.881
 6672W        W73455  38.968   5.622   3.300
 6673W        W73456  29.921   7.884   3.709
 6674W        W73457  24.221   8.058  11.690
 6675W        W73458  12.529  38.963   0.844
 6676W        W73459  29.655  43.253  12.624
 6677W        W73460   6.476   1.463   3.637
 6678W        W73461  29.493   0.148   0.382
 6679W        W73462   1.123  28.622  11.996
 6680W        W73463  26.102  38.061   4.552
 6681W        W73464  31.461  30.143   2.776
 6682W        W73465  20.819  24.719  12.513
 6683W        W73466   2.479  24.221   1.639
 6684W        W73467   7.594  24.705  10.468
 6685W        W73468  24.677  23.582   0.509
 6686W        W73469   6.842   8.810  13.491
 6687W        W73470  40.848  33.985  11.667
 6688W        W73471  26.616  13.715  13.428
 6689W        W73472  18.950  37.940  14.379
 6690W        W73473  44.365  44.192   4.775
 6691W        W73474  37.771  21.263  10.496
 6692W        W73475  20.838   2.330   4.810
 6693W        W73476  21.777  13.751   1.348
 6694W        W73477  40.271  27.689  13.793
 6695W        W73478  18.618  23.359   0.953
 6696W        W73479  28.624  40.741  11.853
 6697W        W73480  28.168  34.424  10.808
 6698W        W73481  15.463   0.955   3.815
 6699W        W73482  35.073   1.448  12.047
 6700W        W73483  21.836  16.144   1.073
 6701W        W73484   1.048  18.297  11.190
 6702W        W73485  30.469  23.130  14.737
 6703W        W73486  40.057  14.744   1.762
 6704W        W73487  33.595  34.991  12.664
 6705W        W73488  14.298  29.386  10.760
 6706W        W73489  12.715   2.177   3.636
 6707W        W73490   8.369  15.316  14.497
 6708W        W73491  12.424   1.568   1.289
 6709W        W73492  23.624  26.518   3.465
 6710W        W73493  24.327   5.992  10.079
 6711W        W73494  19.137  19.743  11.160
 6712W        W73495  17.175  11.077  11.305
 6713W        W73496  22.508  21.143   5.202
 6714W        W73497  16.701  37.881   2.758
 6715W        W73498  23.995  35.990  13.747
 6716W        W73499  35.378  27.539  14.828
 6717W        W73500   3.768  37.476   2.640
 6718W        W73501  40.511  22.827  11.563
 6719W        W73502  28.158  28.539  13.864
 6720W        W73503  36.022  19.044  13.343
 6721W        W73504   9.903  19.094  12.005
 6722W        W73505  29.947  19.046   2.849
 6723W        W73506   7.681   8.446  11.639
 6724W        W73507  28.219  11.898   4.488
 6725W        W73508  24.182  33.734  14.269
 6726W        W73509  33.130  19.370  11.995
 6727W        W73510   7.485   9.334   0.328
 6728W        W73511  25.203  36.784   4.137
 6729W        W73512   3.497  40.021  12.458
 6730W        W73513  31.866  19.171   1.881
 6731W        W73514  16.134  26.491   2.245
 6732W        W73515  25.178  10.961  12.163
 6733W        W73516  21.083   6.262  12.859
 6734W        W73517  44.527   0.483   5.019
 6735W        W73518  22.717  40.869   3.207
 6736W        W73519  33.982  34.296   2.190
 6737W        W73520   8.679  42.120  12.518
 6738W        W73521  28.730  23.186   2.665
 6739W        W73522  24.674  13.243   2.413
 6740W        W73523  34.182   9.189   0.254
 6741W        W73524  39.493  14.587  14.737
 6742W        W73525  25.309  38.616  14.505
 6743W        W73526  14.792  24.729   4.089
 6744W        W73527   7.698  19.123   1.639
 6745W        W73528  17.180  23.431  12.531
 6746W        W73529  41.484  38.342   4.702
 6747W        W73530  39.954   7.616  11.791
 6748W        W73531  18.705  14.656   3.714
 6749W        W73532  12.261  13.077  11.301
 6750W        W73533  29.139  10.586   0.748
 6751W        W73534  36.497   5.973   1.592
 6752W        W73535  36.383  31.873   3.126
 6753W        W73536   5.440  17.047   0.296
 6754W        W73537  32.203   7.064   5.525
 6755W        W73538  17.225   0.480  12.266
 6756W        W73539   9.931  26.142   1.844
 6757W        W73540   8.221  23.538  14.343
 6758W        W73541   8.297   7.465  11.580
 6759W        W73542  39.828  23.047   3.805
 6760W        W73543  40.002  29.199   0.197
 6761W        W73544  10.699  21.746  12.166
 6762W        W73545  12.244  31.148   3.297
 6763W        W73546  23.649  26.287   2.060
 6764W        W73547  23.847   6.356   5.067
 6765W        W73548  38.427  36.008   4.441
 6766W        W73549  10.416  12.376  14.876
 6767W        W73550  27.029   1.423   2.614
 6768W        W73551  34.828  22.624   0.293
 6769W        W73552  25.067  12.269  11.659
 6770W        W73553  37.874  15.555   1.113
 6771W        W73554   6.267  38.856  13.998
 6772W        W73555  44.471   4.603   1.309
 6773W        W73556   7.643   9.330   4.554
 6774W        W73557   1.585  34.543   4.216
 6775W        W73558  15.120  35.815   4.998
 6776W        W73559  33.641  44.837   1.233
 6777W        W73560   6.666  31.270  14.151
 6778W        W73561  18.613  35.824   0.260
 6779W        W73562  36.120   5.946  11.985
 6780W        W73563  38.059  23.452  12.041
 6781W        W73564   7.800  19.765   0.134
 6782W        W73565  42.400  40.563  14.561
 6783W        W73566   9.744   4.915   1.754
 6784W        W73567   5.256  29.718  12.621
 6785W        W73568  20.877  33.317  10.972
 6786W        W73569  19.345  21.347   0.417
 6787W        W73570  41.572   4.171   4.381
 6788W        W73571  32.026  19.685   4.607
 6789W        W73572  12.681  37.118  13.346
 6790W        W73573  20.569  13.104  12.848
 6791W        W73574  18.569  33.000  10.638
 6792W        W73575  27.441  30.990   0.284
 6793W        W73576  23.612  22.575  13.254
 6794W        W73577  20.344  34.223   4.267
 6795W        W73578  44.752  40.843   2.179
 6796W        W73579  11.774  30.943  14.948
 6797W        W73580   6.414  33.083   1.341
 6798W        W73581  31.007   2.182   3.626
 6799W        W73582   7.499   8.316  12.489
 6800W        W73583   9.127  17.575   4.915
 6801W        W73584  10.740  41.245  14.897
 6802W        W73585  30.316  15.653  13.866
 6803W        W73586   8.770  10.141   0.684
 6804W        W73587  27.735  38.006  12.920
 6805W        W73588  40.217   9.788  11.085
 6806W        W73589  38.546  16.258  13.142
 6807W        W73590  43.997   8.645   2.747
 6808W        W73591  40.566  41.887   1.640
 6809W        W73592  43.281   5.782  14.466
 6810W        W73593  10.261  41.273  10.796
 6811W        W73594  30.958  16.150  11.661
 6812W        W73595  16.876   4.566  12.063
 6813W        W73596  15.244  44.396   1.714
 6814W        W73597   4.741  32.056   4.661
 6815W        W73598  18.957  31.073  14.587
 6816W        W73599  33.448  42.287   4.552
 6817W        W73600  14.771  31.737   0.213
 6818W        W73601   9.532  23.753   3.124
 6819W        W73602   8.735  33.409   2.839
 6820W        W73603  25.377  16.698  11.340
 6821W        W73604  24.033   8.902  10.740
 6822W        W73605  25.125   1.236   4.296
 6823W        W73606  14.295  26.453   2.294
 6824W        W73607  37.173  40.680  14.982
 6825W        W73608   1.267  37.552   1.213
 6826W        W73609  20.711  32.376  13.035
 6827W        W73610   2.516   3.875   3.660
 6828W        W73611  32.941   6.756  13.560
 6829W        W73612   3.132   7.151  11.332
 6830W        W73613   5.698  24.496   1.228
 6831W        W73614  11.844  39.499  14.082
 6832W        W73615  19.552   0.485   4.915
 6833W        W73616  41.411  33.372  13.797
 6834W        W73617  24.527  29.380  14.032
 6835W        W73618   0.028  33.530  11.140
 6836W        W73619  41.278  12.663  13.389
 6837W        W73620  34.758  41.262  10.967
 6838W        W73621  19.455   1.966  10.293
 6839W        W73622  36.832  26.049  13.688
 6840W        W73623  15.143  34.384  13.419
 6841W        W73624  19.344   4.966   2.130
 6842W        W73625  36.679  22.501  10.205
 6843W        W73626  42.522  36.912   2.135
 6844W        W73627  31.479   3.540  14.881
 6845W        W73628  32.021  15.127  14.031
 6846W        W73629  32.063  10.876  12.483
 6847W        W73630   8.206  14.192  11.899
 6848W        W73631   4.984   6.268   4.514
 6849W        W73632  44.714  18.305  11.702
 6850W        W73633  18.515   8.900  14.826
 6851W        W73634   8.795  32.967  13.885
 6852W        W73635  16.701  33.978  11.939
 6853W        W73636  25.034  41.788   1.310
 6854W        W73637  27.517  10.361   1.469
 6855W        W73638  21.563  22.590   0.730
 6856W        W73639  27.495  16.640  13.971
 6857W        W73640  16.182  28.661  11.686
 6858W        W73641  42.165  19.900   0.351
 6859W        W73642  24.591  18.229  12.617
 6860W        W73643  25.546  41.296  12.676
 6861W        W73644  31.510  34.221   1.318
 6862W        W73645  28.472  22.245   3.610
 6863W        W73646  23.207  33.075  10.836
 6864W        W73647  27.288  16.616   2.684
 6865W        W73648  15.699   8.846  14.149
 6866W        W73649  29.194  12.179  10.431
 6867W        W73650  12.798  31.998   1.018
 6868W        W73651  32.465   8.574  12.475
 6869W        W73652  41.835  14.664   0.227
 6870W        W73653  44.389   1.342  12.144
 6871W        W73654  19.206  15.877  11.926
 6872W        W73655  33.891  37.142  10.397
 6873W        W73656  21.259   5.693   1.604
 6874W        W73657  20.625  33.644  11.272
 6875W        W73658  10.999   1.416   1.195
 6876W        W73659  29.776  34.127  12.034
 6877W        W73660  43.350  23.837   0.795
 6878W        W73661  44.871  39.762   3.667
 6879W        W73662   3.845  18.175  12.355
 6880W        W73663  23.430  20.258   3.595
 6881W        W73664   5.852  26.460  13.032
 6882W        W73665  34.503  19.056  14.557
 6883W        W73666  17.291  13.427  10.654
 6884W        W73667  24.071  22.055   0.419
 6885W        W73668  25.602   4.040   2.904
 6886W        W73669  14.383  43.403  13.068
 6887W        W73670   4.617  23.581  14.708
 6888W        W73671  30.897  27.538  11.476
 6889W        W73672   4.962  41.115   2.677
 6890W        W73673   4.389  42.038  11.275
 6891W        W73674  30.247  39.959   4.777
 6892W        W73675   3.179  28.565   3.790
 6893W        W73676  38.922  21.606  12.740
 6894W        W73677  37.630  37.458  12.172
 6895W        W73678   9.704  42.076  12.429
 6896W        W73679  25.885  32.987   2.342
 6897W        W73680   9.737  35.937  10.338
 6898W        W73681  43.604  10.777  10.981
 6899W        W73682  31.566   8.667   2.554
 6900W        W73683  17.058  44.954  10.977
 6901W        W73684  32.971   6.912  12.529
 6902W        W73685  15.199  33.615   4.345
 6903W        W73686  29.243  27.228  12.679
 6904W        W73687  42.277  40.892  10.696
 6905W        W73688  43.420   6.840  12.580
 6906W        W73689   2.176  42.140  13.799
 6907W        W73690  40.932   3.686  12.351
 6908W        W73691   9.985  28.521   1.820
 6909W        W73692  29.577  18.700   2.822
 6910W        W73693  11.375  15.093  12.233
 6911W        W73694  25.441   2.933   0.308
 6912W        W73695  39.954  32.734   1.215
 6913W        W73696   4.734  43.308   2.692
 6914W        W73697  20.405   7.385   4.495
 6915W        W73698   9.342  42.818   4.524
 6916W        W73699  17.389  29.503  10.583
 6917W        W73700  44.713   1.531   2.738
 6918W        W73701  19.663  16.659  12.504
 6919W        W73702  10.346  33.213   3.857
 6920W        W73703  43.277   3.602   2.048
 6921W        W73704  13.789  10.506   0.337
 6922W        W73705  37.934  41.325   4.546
 6923W        W73706  16.479  27.369   1.832
 6924W        W73707  20.498  29.061   4.289
 6925W        W73708  19.056  19.651   2.219
 6926W        W73709   5.659  22.561  12.286
 6927W        W73710  15.274   3.958   1.584
 6928W        W73711   4.470  37.458  12.872
 6929W        W73712  14.741  33.471   4.557
 6930W        W73713  10.362   7.272  13.931
 6931W        W73714  23.747  35.464   4.777
 6932W        W73715  24.591  16.790  12.937
 6933W        W73716  32.466  20.128  12.368
 6934W        W73717  23.575  35.895  11.964
 6935W        W73718  26.153  38.487   0.742
 6936W        W73719  37.164  38.804  12.991
 6937W        W73720  35.121  24.224  14.962
 6938W        W73721  16.576  21.207   2.252
 6939W        W73722  15.612   7.400   0.300
 6940W        W73723   4.011  36.957   3.203
 6941W        W73724  16.019  37.054   2.226
 6942W        W73725  43.049  25.526   1.168
 6943W        W73726  28.273  41.810   0.896
 6944W        W73727  24.252  20.304  13.400
 6945W        W73728   1.559  36.862   0.745
 6946W        W73729  39.757  31.347   4.391
 6947W        W73730  39.029  43.887   1.911
 6948W        W73731  17.949  22.501   0.593
 6949W        W73732  31.546  19.509   4.543
 6950W        W73733   8.146   6.122  14.051
 6951W        W73734   6.638  40.482   1.364
 6952W        W73735  33.982  10.869   0.886
 6953W        W73736  40.840  42.954   0.342
 6954W        W73737  24.495  21.976   2.741
 6955W        W73738  28.129  14.302   4.309
 6956W        W73739   1.176  25.407  14.421
 6957W        W73740   3.596  23.751   2.821
 6958W        W73741  40.426  10.405  12.481
 6959W        W73742  26.076  13.813   2.350
 6960W        W73743  35.703   3.407   1.684
 6961W        W73744   8.393  13.826   2.237
 6962W        W73745  42.286  44.903  13.542
 6963W        W73746  43.101  33.295   5.062
 6964W        W73747  43.275   7.225   2.153
 6965W        W73748  20.037  35.546   2.359
 6966W        W73749  34.005  42.815  11.128
 6967W        W73750  24.742   8.055  12.991
 6968W        W73751   5.988  43.012   2.506
 6969W        W73752  20.009  30.875   4.526
 6970W        W73753   7.828  34.543   0.539
 6971W        W73754  40.168   1.191   3.714
 6972W        W73755  40.993  42.945   5.044
 6973W        W73756  39.509   4.820  14.534
 6974W        W73757  35.664  21.204  14.257
 6975W        W73758  25.533  21.100  12.629
 6976W        W73759  44.941   2.946  10.496
 6977W        W73760  35.842  37.295   4.232
 6978W        W73761  20.791  42.575  10.396
 6979W        W73762  24.077   8.250   3.599
 6980W        W73763  36.131  30.912  10.411
 6981W        W73764  41.953  27.431  10.695
 6982W        W73765  23.576  14.375  13.174
 6983W        W73766   5.173  14.677   3.513
 6984W        W73767  26.671  42.731   0.375
 6985W        W73768   4.836   5.636  13.124
 6986W        W73769   1.248   1.788   0.484
 6987W        W73770  21.711  23.970  13.847
 6988W        W73771  33.319  22.892   3.263
 6989W        W73772   0.340  36.512   2.622
 6990W        W73773  44.018  26.681   4.028
 6991W        W73774  22.613  32.458   3.276
 6992W        W73775   4.998  32.684  14.127
 6993W        W73776   7.184   2.216  11.875
 6994W        W73777   1.930  14.969   3.165
 6995W        W73778  43.726  44.843  13.830
 6996W        W73779  11.065  17.121   1.312
 6997W        W73780  28.429  17.971  11.544
 6998W        W73781  17.846  28.344   4.072
 6999W        W73782   9.282  30.750  13.283
 7000W        W73783  33.312  26.956   3.141
 7001W        W73784  41.925  31.016   1.314
 7002W        W73785   3.701  36.378   4.306
 7003W        W73786  36.272  13.697   4.286
 7004W        W73787  25.059  35.327   2.609
 7005W        W73788  34.573  19.289  12.043
 7006W        W73789  35.755  33.529  11.119
 7007W        W73790  34.358   9.379  10.495
 7008W        W73791   0.856  27.432   0.500
 7009W        W73792  35.102   5.841   0.037
 7010W        W73793  34.005   2.232   0.852
 7011W        W73794  30.932  30.987  12.625
 7012W        W73795  26.093   0.000   2.215
 7013W        W73796  44.261   2.877  11.036
 7014W        W73797  34.967  28.975  11.646
 7015W        W73798  38.310  19.255   3.671
 7016W        W73799  20.558  25.210   2.706
 7017W        W73800   5.490   0.697  12.053
 7018W        W73801  41.989  19.419   1.560
 7019W        W73802  23.502  17.077  11.527
 7020W        W73803  33.603  15.161   2.132
 7021W        W73804   5.370   9.380   2.402
 7022W        W73805   1.797   7.738   4.855
 7023W        W73806   8.745  11.680  11.006
 7024W        W73807  33.218   2.948  12.018
 7025W        W73808  33.892  41.718  14.931
 7026W        W73809  17.136   6.862  11.575
 7027W        W73810  23.644  28.743  10.979
 7028W        W73811  18.223  34.671  11.928
 7029W        W73812   7.373  32.909   3.738
 7030W        W73813  19.240  39.657  14.601
 7031W        W73814   0.916  30.910  12.874
 7032W        W73815  27.631  19.013   1.341
 7033W        W73816   3.685   5.394   1.771
 7034W        W73817  42.410  35.646  11.237
 7035W        W73818  39.871  17.041  11.819
 7036W        W73819  29.553   7.513  13.419
 7037W        W73820  13.319   7.206  10.645
 7038W        W73821  23.898   2.777   3.443
 7039W        W73822  10.839  31.767   4.669
 7040W        W73823  12.069   3.743   3.230
 7041W        W73824  35.272  37.766  14.014
 7042W        W73825  35.403   9.114  12.528
 7043W        W73826  20.852  12.390   4.091
 7044W        W73827   8.052  12.560  11.610
 7045W        W73828  38.264  20.782   3.238
 7046W        W73829  29.948  41.844   5.587
 7047W        W73830  19.846  26.243  11.671
 7048W        W73831  22.861  42.056  14.665
 7049W        W73832  20.332  42.384  11.620
 7050W        W73833   6.016   6.703  11.132
 7051W        W73834  39.114  22.268   4.101
 7052W        W73835  41.363  40.514   1.529
 7053W        W73836  11.551   1.322   2.838
 7054W        W73837  15.071   1.846   4.381
 7055W        W73838  17.626  22.069  11.176
 7056W        W73839  21.075   0.815  12.075
 7057W        W73840  17.728  10.393  14.479
 7058W        W73841  41.464  26.936  11.087
 7059W        W73842  17.588   7.127   1.913
 7060W        W73843   4.634  12.179   1.333
 7061W        W73844  27.778  42.976   3.431
 7062W        W73845  23.018  35.478  14.073
 7063W        W73846  35.755  16.660   2.292
 7064W        W73847  40.523  39.833   1.829
 7065W        W73848  31.535   2.792  11.211
 7066W        W73849  38.524   8.633  12.599
 7067W        W73850  24.425   2.801   3.548
 7068W        W73851  22.032  23.787  11.949
 7069W        W73852  30.554  28.911   0.352
 7070W        W73853  14.852  29.501   4.812
 7071W        W73854  27.503  10.506   0.961
 7072W        W73855   5.701   2.052  12.182
 7073W        W73856  23.738  33.404  14.305
 7074W        W73857  24.952  31.305   5.103
 7075W        W73858   8.904  37.026  11.114
 7076W        W73859   8.217  26.621   4.131
 7077W        W73860   2.357  24.311   1.133
 7078W        W73861   1.393  22.225   3.546
 7079W        W73862  41.523   5.978   0.717
 7080W        W73863  41.679  13.402  11.713
 7081W        W73864  13.157  41.586  11.486
 7082W        W73865   7.528  13.727   3.918
 7083W        W73866   2.078  13.167  14.573
 7084W        W73867  15.470  13.343   0.689
 7085W        W73868  34.082  11.709  11.014
 7086W        W73869  31.022  11.806  13.536
 7087W        W73870   3.529  13.225  13.335
 7088W        W73871  36.287   0.000   1.430
 7089W        W73872  38.440  38.989   3.097
 7090W        W73873  33.233  20.118  11.781
 7091W        W73874  22.094  11.649  11.934
 7092W        W73875  33.321   9.947  11.269
 7093W        W73876  32.310  10.730  14.804
 7094W        W73877   7.128  38.021  11.587
 7095W        W73878  12.274   4.721  13.929
 7096W        W73879  10.867   9.099   4.546
 7097W        W73880  40.364  32.850  14.497
 7098W        W73881  31.157  43.650   1.280
 7099W        W73882  23.191  44.627  13.490
 7100W        W73883   5.535  23.452  11.733
 7101W        W73884  13.851   9.314  11.141
 7102W        W73885  42.499  11.073   2.668
 7103W        W73886  30.155  22.491  11.405
 7104W        W73887  14.368   4.737   0.933
 7105W        W73888   6.756  42.186   1.745
 7106W        W73889  28.073   0.017   2.653
 7107W        W73890  25.569  16.861   3.669
 7108W        W73891  44.979   1.821   4.032
 7109W        W73892  30.410  24.479  13.812
 7110W        W73893  10.173  14.974  12.686
 7111W        W73894   6.856  28.082   4.550
 7112W        W73895   0.734  14.487  14.055
 7113W        W73896  33.961  23.705  10.703
 7114W        W73897  22.511  39.883  14.237
 7115W        W73898  29.108   3.867  14.960
 7116W        W73899  42.208   3.881   3.571
 7117W        W73900   8.532  27.126  10.717
 7118W        W73901  11.257   3.076  14.438
 7119W        W73902  23.459  35.447  14.367
 7120W        W73903   7.639  18.290  11.966
 7121W        W73904  29.736  42.982   0.573
 7122W        W73905  38.048  36.547  12.551
 7123W        W73906   6.837  20.181   2.239
 7124W        W73907   4.739   9.754   0.416
 7125W        W73908  18.955   0.983  11.520
 7126W        W73909  44.160  14.894   2.255
 7127W        W73910  26.025  29.084   4.708
 7128W        W73911  39.961   0.193  13.032
 7129W        W73912  23.734  12.442  14.945
 7130W        W73913  42.799   4.231  11.025
 7131W        W73914  18.340  29.151   3.204
 7132W        W73915  38.546  23.095   2.211
 7133W        W73916  24.687  35.314   3.314
 7134W        W73917  36.415  44.747   4.242
 7135W        W73918   3.976  43.970   0.022
 7136W        W73919  40.089  10.056  14.323
 7137W        W73920   6.204  37.452  10.420
 7138W        W73921  38.875  31.440   4.259
 7139W        W73922  13.859  36.478   0.733
 7140W        W73923  37.320  34.846   3.044
 7141W        W73924  33.856  34.826  10.780
 7142W        W73925   9.116  14.027   1.720
 7143W        W73926  41.073  24.597  12.122
 7144W        W73927  24.245   8.342   1.280
 7145W        W73928  17.049  16.294   2.234
 7146W        W73929  22.209  12.875  13.346
 7147W        W73930  29.513  21.200   2.396
 7148W        W73931  42.303  31.710  12.105
 7149W        W73932  33.578  33.117   4.074
 7150W        W73933   3.209  33.429  10.475
 7151W        W73934  23.001  19.223  13.488
 7152W        W73935  13.098  18.113   0.229
 7153W        W73936  13.603   1.886  13.969
 7154W        W73937  28.153  35.887   1.712
 7155W        W73938  40.102   4.245  14.852
 7156W        W73939   7.404  27.736  12.068
 7157W        W73940  44.374   3.901   2.848
 7158W        W73941  21.466  34.722   4.838
 7159W        W73942  39.336  18.456   0.015
 7160W        W73943  31.156   1.231  11.143
 7161W        W73944   3.714  43.518  11.200
 7162W        W73945   0.466  28.590   2.258
 7163W        W73946   2.925  16.048  10.924
 7164W        W73947  11.447  29.784  13.834
 7165W        W73948  39.814  12.319   4.703
 7166W        W73949   9.269  37.069   4.471
 7167W        W73950  22.021  15.990   1.628
 7168W        W73951  35.960  27.004  12.397
 7169W        W73952  30.234  38.298   3.239
 7170W        W73953  41.494  28.385   0.569
 7171W        W73954  28.065   4.679  10.734
 7172W        W73955  43.206  33.362  12.780
 7173W        W73956   3.365  27.489  13.041
 7174W        W73957  36.661   6.939   1.325
 7175W        W73958   6.916  37.418   1.250
 7176W        W73959   8.691  23.940   2.702
 7177W        W73960  34.285   2.282   2.058
 7178W        W73961  39.981   2.093  14.794
 7179W        W73962  43.822  12.099   1.177
 7180W        W73963  41.433  22.755  11.518
 7181W        W73964  35.807  15.245   2.798
 7182W        W73965  24.622  38.298  11.252
 7183W        W73966  13.679  30.422   0.749
 7184W        W73967  36.161   8.312   1.808
 7185W        W73968  32.476   5.264   4.864
 7186W        W73969  34.928  24.385   5.262
 7187W        W73970   0.257  23.256   0.606
 7188W        W73971  30.590  28.847   4.470
 7189W        W73972  23.084  15.732   4.957
 7190W        W73973  30.428  24.522   4.649
 7191W        W73974  22.490   0.754  10.683
 7192W        W73975  42.775  16.338   0.374
 7193W        W73976  32.978  34.414  11.217
 7194W        W73977   0.576  29.503  10.584
 7195W        W73978  35.500  13.970  14.265
 7196W        W73979   5.749  32.500  12.377
 7197W        W73980   3.752  39.499   4.215
 7198W        W73981  35.665  29.766   0.162
 7199W        W73982  37.762  12.118   2.380
 7200W        W73983   0.774  41.236   3.634
 7201W        W73984   0.341  23.599   1.613
 7202W        W73985  18.672  20.174  13.117
 7203W        W73986  19.266  34.312  10.925
 7204W        W73987  16.615  26.662   0.459
 7205W        W73988   8.668   3.320   3.776
 7206W        W73989  11.624   2.874   3.120
 7207W        W73990  35.698   7.486  11.169
 7208W        W73991  33.495   5.947  11.912
 7209W        W73992  39.900  29.556  10.597
 7210W        W73993  16.787  18.821  13.860
 7211W        W73994  27.171  38.804  14.885
 7212W        W73995  41.253  12.842  11.186
 7213W        W73996  27.030  10.403   0.702
 7214W        W73997  40.375   7.842   1.151
 7215W        W73998  34.284  13.610   3.603
 7216W        W73999  41.455  32.886  13.938
 7217W        W74000  35.315   8.104  12.553
 7218W        W74001  35.499   9.216   4.582
 7219W        W74002  37.232  10.313   0.015
 7220W        W74003  19.735  32.492   0.220
 7221W        W74004  43.092  17.263   5.359
 7222W        W74005   6.331  34.905   4.936
 7223W        W74006  26.491   7.836  12.136
 7224W        W74007   3.431  12.366  10.366
 7225W        W74008  15.374  12.113   2.474
 7226W        W74009  32.402  26.043   3.191
 7227W        W74010  33.535  28.000   3.743
 7228W        W74011   5.287  31.569   0.458
 7229W        W74012  19.048  26.078  12.405
 7230W        W74013  42.006  28.478   3.144
 7231W        W74014  40.506   5.906   3.198
 7232W        W74015  16.725  38.767   3.690
 7233W        W74016   8.775  22.954   4.534
 7234W        W74017  23.498  38.740   0.274
 7235W        W74018  12.404   6.358   0.928
 7236W        W74019   3.357  41.288  13.364
 7237W        W74020  21.371  13.250   0.482
 7238W        W74021  16.392  18.278   0.267
 7239W        W74022  15.844  13.050  11.391
 7240W        W74023  43.255  12.867  14.261
 7241W        W74024   4.705  22.268   0.343
 7242W        W74025   5.584  31.326  11.954
 7243W        W74026  23.089   4.719  12.086
 7244W        W74027   4.232  32.940   3.807
 7245W        W74028  36.502  14.130   1.710
 7246W        W74029  31.446  10.079  11.095
 7247W        W74030   0.883   0.877   2.188
 7248W        W74031  33.093  38.023   1.526
 7249W        W74032  27.548  44.718  12.103
 7250W        W74033  31.283  28.204  13.392
 7251W        W74034  10.398  38.514  11.208
 7252W        W74035  40.106  34.336   2.325
 7253W        W74036   4.902   3.454  14.530
 7254W        W74037  19.790  13.788   1.009
 7255W        W74038  14.515  29.040   0.381
 7256W        W74039  40.789  28.521   0.968
 7257W        W74040  16.829  26.937  13.387
 7258W        W74041  13.644  11.961   2.746
 7259W        W74042   9.419  43.828  11.687
 7260W        W74043   0.756  32.102  11.218
 7261W        W74044  15.178  19.196   1.862
 7262W        W74045  20.772  15.687  11.583
 7263W        W74046  43.051  26.037  13.917
 7264W        W74047  43.055  18.340  12.744
 7265W        W74048  38.385  26.524   3.787
 7266W        W74049   7.545   6.048   1.613
 7267W        W74050  16.896  27.489   2.630
 7268W        W74051  15.284  31.599   1.903
 7269W        W74052  21.540   2.658   2.606
 7270W        W74053   2.305  22.081  13.600
 7271W        W74054   9.725  39.748  12.700
 7272W        W74055  12.437  24.090   3.179
 7273W        W74056  15.072  10.384   3.331
 7274W        W74057  40.122  39.482  14.262
 7275W        W74058  31.715   1.019   3.576
 7276W        W74059  28.076  32.619  12.007
 7277W        W74060  27.628  25.737  13.109
 7278W        W74061   7.971   0.843  12.121
 7279W        W74062  16.405  32.192  13.142
 7280W        W74063  38.031  33.002  13.790
 7281W        W74064   3.614  14.084   3.484
 7282W        W74065  11.189   2.960   3.448
 7283W        W74066  21.152  35.597  13.168
 7284W        W74067  37.290  18.648  12.014
 7285W        W74068  23.434  17.118  13.873
 7286W        W74069  35.332   8.220  11.541
 7287W        W74070   9.234  40.858  13.569
 7288W        W74071   0.458  20.985   2.694
 7289W        W74072  11.320  31.090   3.048
 7290W        W74073  15.207  19.134   0.416
 7291W        W74074  13.309  44.958  11.974
 7292W        W74075  40.545  25.974  13.553
 7293W        W74076   1.544  28.330  12.118
 7294W        W74077   1.352   2.205  12.057
 7295W        W74078  37.017  37.109  11.960
 7296W        W74079  41.244   6.772  10.617
 7297W        W74080   4.282  18.958  13.070
 7298W        W74081  23.477  37.303   4.226
 7299W        W74082  27.423  24.231   2.396
 7300W        W74083  13.171  44.032   1.499
 7301W        W74084   8.066  21.580   0.520
 7302W        W74085   6.089  27.994  13.943
 7303W        W74086  32.910   9.854   2.327
 7304W        W74087  37.587  42.792   1.813
 7305W        W74088  10.614   1.041   4.057
 7306W        W74089  12.675  27.083   0.910
 7307W        W74090  14.427  35.464   1.917
 7308W        W74091   7.907  29.047  14.021
 7309W        W74092  39.945  15.095  14.097
 7310W        W74093   3.323  43.341  14.801
 7311W        W74094  39.864  43.966  13.413
 7312W        W74095  13.713   9.100   1.051
 7313W        W74096  17.312  21.582   4.197
 7314W        W74097  30.058  20.603   2.813
 7315W        W74098  34.712  14.174   5.011
 7316W        W74099  18.063  36.838  11.967
 7317W        W74100  39.959  28.337   1.001
 7318W        W74101  14.859  19.662   1.883
 7319W        W74102  36.808  34.844   4.563
 7320W        W74103  15.365  41.752   0.776
 7321W        W74104  10.724  33.652   2.292
 7322W        W74105   6.156  24.504   2.352
 7323W        W74106  35.024  36.388  10.780
 7324W        W74107  16.376  16.142   3.799
 7325W        W74108   1.182   8.828   1.819
 7326W        W74109  44.641  13.756  13.932
 7327W        W74110  24.497   8.762  14.953
 7328W        W74111  22.622  42.084  13.498
 7329W        W74112  28.068   6.533   1.202
 7330W        W74113   8.169   0.165  14.792
 7331W        W74114  20.129  12.567  12.171
 7332W        W74115   8.324   5.018  14.823
 7333W        W74116  36.361  18.524  11.059
 7334W        W74117   2.472  36.754   0.678
 7335W        W74118  26.198   2.819   0.660
 7336W        W74119  40.428  32.001   2.849
 7337W        W74120   7.328  42.099  12.071
 7338W        W74121  26.933  11.329   2.145
 7339W        W74122  13.856  44.522   3.625
 7340W        W74123  30.900  31.408   2.734
 7341W        W74124  43.358  24.110   4.836
 7342W        W74125  37.050  19.005  11.683
 7343W        W74126   4.191  29.700   1.802
 7344W        W74127  12.268  16.139   3.636
 7345W        W74128  43.398  37.556   0.291
 7346W        W74129  21.177  13.584   0.861
 7347W        W74130  41.753  44.694  12.566
 7348W        W74131  17.572  23.766  14.272
 7349W        W74132   3.142   4.393  13.573
 7350W        W74133  39.871  44.776  11.154
 7351W        W74134   0.361  16.610  14.099
 7352W        W74135  20.275  16.494  13.994
 7353W        W74136   4.922  21.614  13.012
 7354W        W74137  40.766  33.270  13.041
 7355W        W74138  32.157  35.546  10.564
 7356W        W74139   0.765  12.585  14.127
 7357W        W74140  32.640  34.773  11.043
 7358W        W74141   4.498  25.941  12.041
 7359W        W74142  39.040  19.287  12.614
 7360W        W74143  25.444  23.126   3.166
 7361W        W74144  17.161  29.959   2.716
 7362W        W74145  27.616  23.572  12.806
 7363W        W74146  23.328   3.336   1.355
 7364W        W74147  26.625   9.827  12.687
 7365W        W74148  28.100  13.079  13.664
 7366W        W74149  42.340  35.499  13.630
 7367W        W74150  37.362  34.539  11.474
 7368W        W74151  36.581  39.775  12.157
 7369W        W74152  11.315   6.986  12.989
 7370W        W74153  30.159  17.773  14.852
 7371W        W74154  28.087  26.427   2.701
 7372W        W74155  26.565  10.297  12.939
 7373W        W74156   2.913   4.773   1.857
 7374W        W74157  21.238  38.270   3.609
 7375W        W74158   0.553  44.697   0.661
 7376W        W74159  30.809  41.503  11.547
 7377W        W74160   4.136  28.577  13.124
 7378W        W74161   4.412  15.493  12.448
 7379W        W74162  11.010   7.492  13.516
 7380W        W74163   0.748  28.714   2.669
 7381W        W74164  14.242   4.348  14.508
 7382W        W74165  38.266  26.879  14.907
 7383W        W74166  34.073   8.456   3.675
 7384W        W74167   5.790  19.621   0.840
 7385W        W74168  27.483  43.335   4.355
 7386W        W74169  38.912  40.985   4.523
 7387W        W74170  36.120   7.490  14.569
 7388W        W74171   0.773  42.731  10.044
 7389W        W74172  42.799  20.750  14.556
 7390W        W74173  33.802  41.817  12.700
 7391W        W74174   8.029  30.959   3.625
 7392W        W74175  15.868  13.806  14.792
 7393W        W74176  31.024  30.044  11.022
 7394W        W74177  19.456  39.852  13.292
 7395W        W74178  19.647  25.242  13.498
 7396W        W74179   8.803   5.655  14.311
 7397W        W74180  29.819  21.650  14.524
 7398W        W74181  38.502  22.426   0.813
 7399W        W74182  19.990   5.287  12.531
 7400W        W74183  38.532  15.289  12.977
 7401W        W74184   0.412  34.336  13.539
 7402W        W74185  24.250   2.358  11.721
 7403W        W74186  36.812  17.193  12.888
 7404W        W74187  31.464  11.104   4.181
 7405W        W74188   7.801  14.348   0.578
 7406W        W74189  39.265  43.818   4.742
 7407W        W74190   5.722  30.531  11.641
 7408W        W74191   3.735  21.706   2.788
 7409W        W74192  36.817   3.722  11.441
 7410W        W74193  39.414  13.201   4.810
 7411W        W74194  10.467  24.368  11.806
 7412W        W74195   7.607  28.601   3.771
 7413W        W74196  17.272  26.306   0.991
 7414W        W74197  40.116  16.409  12.957
 7415W        W74198  26.757  27.093  13.829
 7416W        W74199  29.221   7.714  12.006
 7417W        W74200  39.014   0.975  12.607
 7418W        W74201  42.082  19.886   3.760
 7419W        W74202   7.913   6.398   0.774
 7420W        W74203   5.258   1.069  14.943
 7421W        W74204  33.484  16.177   0.214
 7422W        W74205  31.645   9.675  13.956
 7423W        W74206   6.434  13.721   3.128
 7424W        W74207   5.680  18.306   2.326
 7425W        W74208   1.947  20.380   1.641
 7426W        W74209  22.774  19.102  10.177
 7427W        W74210  23.929  13.683   4.482
 7428W        W74211  34.599   6.691  12.530
 7429W        W74212  42.853  23.191   4.214
 7430W        W74213   2.272  25.948  14.824
 7431W        W74214  19.141   1.775  13.722
 7432W        W74215   0.380  25.547  14.015
 7433W        W74216  12.860  18.556   1.882
 7434W        W74217   2.454  38.766   4.459
 7435W        W74218   5.439  30.431  12.861
 7436W        W74219   7.204   7.207   4.637
 7437W        W74220   7.170  31.562   0.375
 7438W        W74221   4.880  22.628  13.913
 7439W        W74222  21.751  38.844   3.116
 7440W        W74223  14.160   4.076   4.647
 7441W        W74224   5.630  10.492  11.811
 7442W        W74225  24.653  38.383  13.917
 7443W        W74226   5.890   6.335  10.772
 7444W        W74227   1.545  19.188   3.627
 7445W        W74228   8.870   5.757   2.658
 7446W        W74229  30.284  12.803   4.045
 7447W        W74230  17.316  31.680   3.285
 7448W        W74231  17.054  41.962  12.468
 7449W        W74232  36.790  11.950  13.937
 7450W        W74233  35.501  13.268  11.922
 7451W        W74234  14.172  16.371  11.914
 7452W        W74235  12.260   9.704  11.450
 7453W        W74236  35.781  34.538   0.712
 7454W        W74237   2.562  31.774  12.626
 7455W        W74238  28.956  37.465   0.786
 7456W        W74239   7.996  26.519  11.496
 7457W        W74240  14.005  30.868   1.645
 7458W        W74241  34.738   5.615  13.291
 7459W        W74242  12.202  44.844   3.121
 7460W        W74243  14.121  19.581   2.226
 7461W        W74244  33.873   1.651  14.561
 7462W        W74245  34.436  31.815   3.739
 7463W        W74246  43.917  13.405   2.224
 7464W        W74247  44.651  39.755  14.422
 7465W        W74248  44.450  12.594   4.219
 7466W        W74249  21.457  31.555   5.088
 7467W        W74250  31.260  36.664   3.330
 7468W        W74251  33.300  14.093  13.422
 7469W        W74252   0.506  31.554   0.986
 7470W        W74253   9.601  44.437  11.051
 7471W        W74254  26.080  24.946   2.600
 7472W        W74255  19.982  20.088  13.940
 7473W        W74256  20.770  38.915  10.729
 7474W        W74257  44.497   4.456  10.271
 7475W        W74258  43.448  10.190  13.902
 7476W        W74259   6.605   4.098   0.486
 7477W        W74260  23.543  42.769  10.208
 7478W        W74261  35.265  16.297   0.210
 7479W        W74262   0.504  42.946   3.253
 7480W        W74263   2.618  14.737  13.512
 7481W        W74264   0.429  37.834   3.615
 7482W        W74265  40.911  27.711  14.477
 7483W        W74266  44.570   3.267  10.144
 7484W        W74267  44.424  27.376  13.936
 7485W        W74268  28.683   2.253  14.805
 7486W        W74269  35.017  12.910  11.053
 7487W        W74270  34.874  24.080   2.901
 7488W        W74271  27.714  26.513   0.940
 7489W        W74272  32.067  32.988   2.292
 7490W        W74273  35.382  32.861  12.034
 7491W        W74274   7.099  44.341   1.720
 7492W        W74275   8.961   0.091  13.099
 7493W        W74276  15.060  21.955  13.548
 7494W        W74277  32.891  16.206  10.589
 7495W        W74278  20.561  37.162  11.194
 7496W        W74279  40.043   6.428   0.440
 7497W        W74280  29.135  44.971  12.150
 7498W        W74281   4.997  39.855  10.414
 7499W        W74282  43.923  32.403   2.232
 7500W        W74283  28.411  11.280  12.569
 7501W        W74284  11.851  17.672   1.391
 7502W        W74285   6.761  32.889   4.081
 7503W        W74286   1.490  40.803  14.385
 7504W        W74287   1.356   9.932   4.104
 7505W        W74288  42.819   2.823   2.840
 7506W        W74289  20.309  12.283  13.971
 7507W        W74290   3.745   9.823   4.826
 7508W        W74291   8.808   9.608  12.474
 7509W        W74292  42.747  43.550   0.830
 7510W        W74293  23.505  33.530   3.794
 7511W        W74294  15.050   8.688   1.711
 7512W        W74295  38.932  44.064   1.394
 7513W        W74296  25.523  34.993  11.563
 7514W        W74297  37.947  22.216  12.444
 7515W        W74298   9.203  34.321   1.250
 7516W        W74299  16.194  22.510  12.999
 7517W        W74300  42.568  12.774   0.391
 7518W        W74301  43.379  28.275  11.461
 7519W        W74302  28.696  26.155   0.144
 7520W        W74303  37.586   1.065  10.613
 7521W        W74304  33.497  38.000   0.239
 7522W        W74305  34.410  16.702   2.941
 7523W        W74306  19.238  28.573  11.017
 7524W        W74307  30.639  17.097  14.394
 7525W        W74308  31.866  27.635   4.974
 7526W        W74309   8.600  18.655  13.503
 7527W        W74310  16.647   1.886  14.039
 7528W        W74311  39.525  31.859  10.510
 7529W        W74312  29.890   1.704  11.130
 7530W        W74313  41.508  25.969   3.639
 7531W        W74314  12.735   9.934   3.184
 7532W        W74315  11.260  35.894  12.115
 7533W        W74316  14.358  31.410  13.416
 7534W        W74317  17.510  25.992  14.758
 7535W        W74318   9.157   4.826  13.412
 7536W        W74319  18.113  28.889  13.143
 7537W        W74320  31.091  37.309   1.711
 7538W        W74321  20.517  17.277  12.039
 7539W        W74322  15.663  29.211  14.898
 7540W        W74323   0.912  15.362   1.232
 7541W        W74324  23.571  43.268  10.373
 7542W        W74325  12.154  12.548   1.306
 7543W        W74326  29.915  27.544  14.901
 7544W        W74327  33.970  13.203  12.999
 7545W        W74328   1.304  11.882   4.178
 7546W        W74329  26.999   8.642   2.829
 7547W        W74330  44.981   5.721   0.078
 7548W        W74331  19.737  21.993  10.568
 7549W        W74332   6.437  43.972  11.027
 7550W        W74333  36.483  38.503   0.889
 7551W        W74334  37.052  40.488   0.442
 7552W        W74335  21.494  13.954  13.422
 7553W        W74336  40.866   4.387   0.401
 7554W        W74337  17.838  33.890   1.351
 7555W        W74338   3.284  19.099  14.651
 7556W        W74339  40.412  27.055   2.056
 7557W        W74340   8.160   7.250   2.811
 7558W        W74341  35.882   3.183  11.038
 7559W        W74342  19.013  25.906  11.651
 7560W        W74343  40.894  26.098   2.190
 7561W        W74344  39.807  34.624  12.869
 7562W        W74345  16.659  17.577  13.362
 7563W        W74346  23.230  17.109  14.367
 7564W        W74347  12.582  18.544   1.436
 7565W        W74348  10.514  24.122  10.360
 7566W        W74349  33.424  39.758  14.854
 7567W        W74350  15.742  13.184   5.152
 7568W        W74351  33.501   9.707   0.305
 7569W        W74352  19.141  10.774   2.096
 7570W        W74353   2.455  13.253  11.519
 7571W        W74354  24.017  19.206  11.722
 7572W        W74355  28.537  43.569   2.182
 7573W        W74356  34.480  30.223  12.539
 7574W        W74357  32.841   2.559   3.329
 7575W        W74358   1.405  36.510   3.360
 7576W        W74359  42.559   7.873   1.839
 7577W        W74360  33.367  15.662  11.541
 7578W        W74361  31.350  23.696   2.327
 7579W        W74362   2.751  19.792   3.750
 7580W        W74363  14.276   1.434   3.852
 7581W        W74364  25.188  14.896  13.723
 7582W        W74365  13.312   8.847   2.629
 7583W        W74366  15.185  11.440   1.835
 7584W        W74367   8.081  44.317   1.831
 7585W        W74368  32.249  33.612  11.372
 7586W        W74369  32.120   7.163  14.079
 7587W        W74370  33.854  18.991   4.704
 7588W        W74371  10.764  28.212  13.722
 7589W        W74372  21.711  20.476   2.349
 7590W        W74373  28.367  29.878   0.434
 7591W        W74374  17.026  25.040  13.387
 7592W        W74375  41.777   3.684  10.668
 7593W        W74376   0.446  25.496   0.145
 7594W        W74377   2.851  11.013  13.454
 7595W        W74378  40.542  20.486  14.893
 7596W        W74379  18.054  39.768   0.729
 7597W        W74380  12.737  36.510   2.747
 7598W        W74381  34.269  19.252   2.336
 7599W        W74382   1.953   4.839  14.775
 7600W        W74383  27.014  33.268   4.936
 7601W        W74384  10.641  25.517   2.675
 7602W        W74385   5.908  19.839   4.648
 7603W        W74386  21.036  19.503  14.380
 7604W        W74387  16.657   3.855   2.677
 7605W        W74388  38.459  27.436   2.290
 7606W        W74389   6.927  41.281   3.737
 7607W        W74390  10.286  12.217   2.625
 7608W        W74391  12.198  43.065  10.323
 7609W        W74392  39.392   8.959   5.076
 7610W        W74393  40.298  28.250   3.654
 7611W        W74394   4.964  36.582   1.422
 7612W        W74395  26.995  22.313  13.401
 7613W        W74396  44.226  28.519  14.475
 7614W        W74397   2.707   6.388   4.195
 7615W        W74398  31.682  19.787   2.562
 7616W        W74399  36.603  44.597   1.226
 7617W        W74400  35.337   0.777  11.525
 7618W        W74401  12.053  13.638  10.467
 7619W        W74402  28.683  38.715   2.504
 7620W        W74403  13.148  41.986  14.701
 7621W        W74404   6.175  20.885   4.914
 7622W        W74405  20.309  17.080   1.223
 7623W        W74406  15.803  38.083  14.910
 7624W        W74407  32.792   8.173  12.538
 7625W        W74408  33.448  39.251   2.989
 7626W        W74409  14.355  20.638   0.673
 7627W        W74410  10.408  28.862  14.185
 7628W        W74411  39.007   6.684  10.383
 7629W        W74412  15.638  22.289   0.846
 7630W        W74413  29.964  10.129  14.050
 7631W        W74414  29.993   4.838   2.718
 7632W        W74415   0.147   5.859  11.363
 7633W        W74416  24.159   2.217  13.499
 7634W        W74417  10.391  37.810  14.945
 7635W        W74418  18.595  22.044   0.380
 7636W        W74419   7.660  26.376   4.845
 7637W        W74420  37.712  20.653   4.090
 7638W        W74421  27.146  35.542  14.897
 7639W        W74422   5.032  26.319   1.812
 7640W        W74423  30.883   8.322   2.262
 7641W        W74424  31.052   7.183  13.893
 7642W        W74425   0.271   0.912   0.396
 7643W        W74426  43.681  33.495  13.206
 7644W        W74427  12.963  30.813  14.354
 7645W        W74428  33.211  20.584  13.866
 7646W        W74429  20.122   2.239   0.850
 7647W        W74430  14.669  10.627  11.165
 7648W        W74431  30.479   8.181   4.544
 7649W        W74432   8.904  33.286  12.057
 7650W        W74433  36.017   4.644   0.326
 7651W        W74434   1.514  33.110   4.183
 7652W        W74435  39.326  27.924  13.793
 7653W        W74436  15.132  16.593   4.327
 7654W        W74437   6.718  26.742  14.923
 7655W        W74438  21.723  11.419   0.512
 7656W        W74439  26.591   0.454  12.885
 7657W        W74440  12.786  23.398  14.967
 7658W        W74441   9.933  23.221  12.417
 7659W        W74442  10.053   3.193  12.884
 7660W        W74443  39.932   6.310  12.671
 7661W        W74444  26.571  22.431   2.355
 7662W        W74445  22.001  38.361   1.287
 7663W        W74446  42.008  17.665   2.176
 7664W        W74447  12.897  43.250   4.834
 7665W        W74448  30.437  42.232   4.568
 7666W        W74449  32.022  40.055  14.710
 7667W        W74450  36.154  25.610  11.763
 7668W        W74451  18.407  20.173   2.816
 7669W        W74452  17.070  32.093  12.620
 7670W        W74453  41.413  21.041   2.296
 7671W        W74454  26.086  14.252   4.648
 7672W        W74455  11.490  23.581  10.455
 7673W        W74456   0.757  31.536   3.916
 7674W        W74457  44.835  31.430  13.969
 7675W        W74458  15.714  21.836  11.967
 7676W        W74459  24.464  25.505   1.300
 7677W        W74460   0.465  11.182   1.829
 7678W        W74461  30.614  44.738  12.664
 7679W        W74462  21.924  27.604  11.130
 7680W        W74463   0.988  32.335  11.806
 7681W        W74464  10.582  22.027   4.490
 7682W        W74465  44.457  18.994   2.147
 7683W        W74466  31.838  33.858   0.827
 7684W        W74467  17.162  14.820   2.099
 7685W        W74468  32.882  32.491   1.564
 7686W        W74469  19.182  11.722  14.642
 7687W        W74470  31.355   7.792   2.794
 7688W        W74471  15.102  37.911   1.552
 7689W        W74472  33.621  39.306   0.466
 7690W        W74473  37.936  11.858   1.393
 7691W        W74474  14.691   2.553  14.852
 7692W        W74475  27.921  15.220   0.442
 7693W        W74476   0.809   2.346   2.779
 7694W        W74477   6.070   1.771  11.437
 7695W        W74478  40.748  43.853   4.501
 7696W        W74479  22.065  19.497   4.742
 7697W        W74480  23.307  42.610   3.610
 7698W        W74481  42.988   8.672   1.790
 7699W        W74482  14.504   7.183  12.062
 7700W        W74483  35.860  24.670  10.900
 7701W        W74484   1.397  18.627  12.809
 7702W        W74485  28.444  11.317   3.821
 7703W        W74486  15.296  44.370   2.735
 7704W        W74487  22.454  28.124  10.097
 7705W        W74488   8.747  13.584   1.878
 7706W        W74489  44.062  35.543  13.825
 7707W        W74490  32.175   1.333   0.055
 7708W        W74491   3.444  21.793  12.444
 7709W        W74492   6.021  33.310   3.669
 7710W        W74493  41.367   3.967  12.019
 7711W        W74494  30.818  20.545   3.262
 7712W        W74495  15.872   7.849   1.291
 7713W        W74496  44.893  26.528  13.756
 7714W        W74497  38.903  12.353  10.633
 7715W        W74498  18.377   4.103  13.946
 7716W        W74499  29.343   1.909   1.351
 7717W        W74500  23.005   5.952   3.189
 7718W        W74501  31.563  29.157  10.410
 7719W        W74502  36.878   4.065   2.816
 7720W        W74503  36.357  25.835  13.491
 7721W        W74504  27.873   2.529   2.745
 7722W        W74505  23.653  39.096   2.498
 7723W        W74506  17.134   6.394   3.244
 7724W        W74507   9.300  34.193   4.704
 7725W        W74508  21.555  23.944   4.122
 7726W        W74509  33.300  24.872  10.274
 7727W        W74510  18.581  17.744   0.453
 7728W        W74511  15.811  27.636   1.347
 7729W        W74512  25.658  11.833   3.856
 7730W        W74513  40.945  11.355  13.405
 7731W        W74514  13.940  39.809  12.395
 7732W        W74515  42.832  34.476  12.069
 7733W        W74516  20.993  39.429   4.226
 7734W        W74517  28.019  15.841   2.837
 7735W        W74518  15.861  27.247   4.421
 7736W        W74519   8.217  44.110   0.848
 7737W        W74520  32.430  31.191  11.089
 7738W        W74521  21.628  19.353  13.498
 7739W        W74522  37.701  11.578   3.328
 7740W        W74523  17.275   7.877  13.580
 7741W        W74524  38.856  33.093   4.607
 7742W        W74525  32.138   4.580  11.141
 7743W        W74526  31.501  33.610  13.401
 7744W        W74527  36.031  34.896  11.245
 7745W        W74528  31.531  42.550  14.852
 7746W        W74529  38.773  44.500   0.772
 7747W        W74530  11.535   6.936   3.590
 7748W        W74531   2.446  17.612  13.490
 7749W        W74532   9.594   9.258  12.403
 7750W        W74533  35.610  32.363   4.064
 7751W        W74534   6.777  20.478  13.805
 7752W        W74535   2.131  25.284  13.588
 7753W        W74536   7.200  15.249  11.181
 7754W        W74537  25.070  36.734  12.542
 7755W        W74538  34.987  42.180  13.913
 7756W        W74539  40.113  22.158  13.360
 7757W        W74540   3.332  37.360   0.983
 7758W        W74541  19.529   0.298   1.795
 7759W        W74542  40.276  27.192  14.805
 7760W        W74543  43.756  17.659  13.871
 7761W        W74544   1.730   7.151  13.797
 7762W        W74545  28.961   5.263   0.326
 7763W        W74546  37.336  43.259   2.799
 7764W        W74547  17.495  16.648   3.656
 7765W        W74548   9.947  19.568  14.904
 7766W        W74549  13.258  16.879   1.073
 7767W        W74550  41.988  15.891   0.765
 7768W        W74551  34.082  38.798  11.381
 7769W        W74552  28.976  19.970  11.018
 7770W        W74553  12.830  24.733   1.272
 7771W        W74554  23.346  41.291  13.606
 7772W        W74555  30.325   6.212  14.557
 7773W        W74556  36.910  19.210  14.790
 7774W        W74557  22.498  16.769   3.330
 7775W        W74558  16.980  44.965   9.977
 7776W        W74559  25.228   2.326   1.887
 7777W        W74560  20.757  28.680  11.794
 7778W        W74561  43.768  27.880   1.358
 7779W        W74562  16.891  19.111  14.994
 7780W        W74563   3.381  21.727  11.103
 7781W        W74564  23.822  29.681  11.067
 7782W        W74565  35.725   2.803   2.858
 7783W        W74566  30.680   1.078   4.564
 7784W        W74567   5.112  35.520  10.272
 7785W        W74568  20.703  30.043   2.447
 7786W        W74569   4.747  43.318  12.382
 7787W        W74570   0.037   1.656   3.163
 7788W        W74571  27.162   0.742  14.051
 7789W        W74572  15.877   0.580   3.208
 7790W        W74573  31.821   0.016   1.558
 7791W        W74574  15.184  19.589   1.467
 7792W        W74575   4.305  25.151  10.931
 7793W        W74576   0.545  11.747   2.732
 7794W        W74577  22.631  39.813   0.240
 7795W        W74578  36.702  40.515  11.647
 7796W        W74579  36.480  22.160  13.967
 7797W        W74580  42.339  42.477   0.180
 7798W        W74581  32.977  12.866  11.520
 7799W        W74582   6.637  33.916   1.306
 7800W        W74583  13.159  10.270   3.828
 7801W        W74584   1.794  38.860  13.044
 7802W        W74585  41.887  19.469  12.509
 7803W        W74586  15.637  35.693   4.863
 7804W        W74587  32.404  42.951  13.436
 7805W        W74588  17.279  35.153  10.970
 7806W        W74589  16.909  16.181   4.017
 7807W        W74590  12.073  33.881  11.590
 7808W        W74591  15.726  18.138  12.006
 7809W        W74592  28.968  25.374   1.730
 7810W        W74593  21.313   0.419  14.290
 7811W        W74594  24.195  25.781   1.783
 7812W        W74595  27.800  40.087   1.789
 7813W        W74596  11.377  29.528   1.127
 7814W        W74597  13.152  31.416   1.868
 7815W        W74598  38.338  17.242  14.927
 7816W        W74599  13.244  35.060  10.727
 7817W        W74600   4.616  12.294   4.656
 7818W        W74601  21.233  26.991   0.486
 7819W        W74602  20.083   7.721   0.901
 7820W        W74603   5.628  21.154   0.056
 7821W        W74604  15.208  37.387  11.192
 7822W        W74605   4.407  28.255  12.407
 7823W        W74606  17.440  22.434   0.443
 7824W        W74607  40.990  43.716  13.409
 7825W        W74608   1.886  37.518  12.352
 7826W        W74609  19.547   6.633   1.934
 7827W        W74610   6.874  27.932   1.391
 7828W        W74611   7.131  17.798   1.453
 7829W        W74612   5.957   4.769  13.508
 7830W        W74613  43.425   9.619  14.916
 7831W        W74614  18.140  37.348   3.569
 7832W        W74615   7.729  24.532   1.235
 7833W        W74616  17.833  41.094  12.601
 7834W        W74617  12.786  19.833   0.289
 7835W        W74618  31.952   6.783  12.506
 7836W        W74619  42.410  39.659  12.223
 7837W        W74620  43.126  38.974  10.725
 7838W        W74621  36.461  16.998  11.066
 7839W        W74622  26.979  41.826  13.641
 7840W        W74623   0.878  40.504   2.526
 7841W        W74624  14.667  37.503   0.141
 7842W        W74625  37.810  34.908   2.848
 7843W        W74626  30.749  41.054  13.640
 7844W        W74627  11.033  11.864  13.864
 7845W        W74628  31.712  30.755  11.138
 7846W        W74629  33.530  41.165  10.699
 7847W        W74630   5.152  30.084  10.725
 7848W        W74631   7.978  33.684  12.924
 7849W        W74632  25.237  30.716   4.513
 7850W        W74633  23.595  30.874  13.091
 7851W        W74634  40.029  37.773   1.425
 7852W        W74635  18.789   9.720   1.303
 7853W        W74636   4.582  13.498  12.486
 7854W        W74637  13.661  30.514  11.494
 7855W        W74638  35.000  40.672   3.324
 7856W        W74639  39.438   1.495  10.805
 7857W        W74640  31.708  37.344   4.618
 7858W        W74641  16.331  22.689   1.286
 7859W        W74642  27.909  25.088  11.758
 7860W        W74643  40.893  28.624  11.107
 7861W        W74644   0.073  29.450  10.701
 7862W        W74645  28.447  34.955   2.336
 7863W        W74646  17.234  16.162  12.589
 7864W        W74647  18.892  44.674  11.371
 7865W        W74648  31.847  17.212  12.897
 7866W        W74649  26.397  14.163  13.574
 7867W        W74650  22.046  18.518   0.690
 7868W        W74651  14.219   3.755  12.402
 7869W        W74652  17.810  17.898  12.538
 7870W        W74653  30.925   0.563  12.477
 7871W        W74654  30.557   2.814  14.863
 7872W        W74655  20.516  19.185  11.930
 7873W        W74656  38.270   3.909   3.158
 7874W        W74657   4.421  10.587   3.596
 7875W        W74658  32.666  27.150   4.709
 7876W        W74659  19.648  12.614  10.512
 7877W        W74660  25.067  11.706   4.612
 7878W        W74661  27.555   2.165   3.653
 7879W        W74662   1.747  40.647  13.727
 7880W        W74663  20.917  23.645  14.958
 7881W        W74664  34.885  40.497  13.393
 7882W        W74665  36.586  29.358   3.268
 7883W        W74666   3.400  36.885   0.781
 7884W        W74667  37.979  41.536   0.239
 7885W        W74668  41.608  23.409   2.058
 7886W        W74669  35.072  39.919  14.848
 7887W        W74670   6.151   4.474   1.345
 7888W        W74671  40.335   6.403   1.418
 7889W        W74672  16.036   3.140  11.862
 7890W        W74673   0.256  18.305   4.121
 7891W        W74674  34.497  41.477  11.734
 7892W        W74675   2.317  23.647   0.918
 7893W        W74676  10.358  24.234  14.935
 7894W        W74677  23.128   0.237   1.032
 7895W        W74678  31.562  32.609   3.123
 7896W        W74679  13.211   9.605  11.015
 7897W        W74680  18.296  11.566  13.390
 7898W        W74681  36.069  14.656  14.746
 7899W        W74682  18.649   0.072   0.759
 7900W        W74683  13.295  36.935  11.687
 7901W        W74684  42.244   4.924  10.592
 7902W        W74685  17.581  27.653  12.102
 7903W        W74686  38.461  13.839   1.707
 7904W        W74687   0.510  22.825   0.682
 7905W        W74688   1.997  39.552  10.876
 7906W        W74689  34.874  33.680   2.611
 7907W        W74690  43.096  31.919   3.648
 7908W        W74691  21.054  41.092   0.907
 7909W        W74692   4.292  23.809   1.732
 7910W        W74693   8.334  23.254  11.040
 7911W        W74694   8.305  39.794  12.548
 7912W        W74695  17.820  26.813   4.250
 7913W        W74696  17.073  41.291   1.490
 7914W        W74697  22.584  37.943  11.658
 7915W        W74698  44.288  37.462   0.744
 7916W        W74699   4.885  26.829   1.938
 7917W        W74700  41.657  23.463  10.398
 7918W        W74701  42.795  13.283   1.327
 7919W        W74702  15.920  12.952   2.586
 7920W        W74703  44.248  25.210  10.754
 7921W        W74704  13.452  26.828   3.242
 7922W        W74705  33.627  25.677   2.727
 7923W        W74706   7.410  26.371   3.986
 7924W        W74707  34.117  10.769  12.023
 7925W        W74708  10.334  27.588  10.724
 7926W        W74709  35.500  27.456   3.113
 7927W        W74710  32.609   3.075  11.167
 7928W        W74711  18.340  25.850  14.599
 7929W        W74712  23.681  18.732   3.707
 7930W        W74713   4.353  42.543  11.154
 7931W        W74714  29.288  33.334   1.781
 7932W        W74715  42.568   9.714   0.460
 7933W        W74716  41.464  22.988   2.846
 7934W        W74717  26.159  17.370   1.750
 7935W        W74718  13.899  25.500   0.190
 7936W        W74719  15.039  29.201   2.767
 7937W        W74720  33.003  26.782   1.807
 7938W        W74721  42.940  10.866  10.330
 7939W        W74722  32.221  43.010  14.393
 7940W        W74723  42.546  12.458   3.338
 7941W        W74724   4.906  39.463   1.812
 7942W        W74725   8.262  37.709  12.901
 7943W        W74726  15.191  22.404  13.306
 7944W        W74727  33.476   1.281   3.813
 7945W        W74728  36.328   7.654  11.713
 7946W        W74729  29.348  43.079  10.698
 7947W        W74730   0.220   5.955  13.503
 7948W        W74731  24.695  10.847  10.683
 7949W        W74732  17.429  25.633  11.529
 7950W        W74733  33.298  16.531  12.412
 7951W        W74734   1.374   5.561   1.658
 7952W        W74735   5.647  10.435   3.882
 7953W        W74736  16.314   8.495  14.036
 7954W        W74737  16.084  19.619   2.918
 7955W        W74738  29.904   2.448   4.751
 7956W        W74739  42.598  23.699  12.098
 7957W        W74740  34.125  36.419   0.519
 7958W        W74741  20.633  34.258  11.610
 7959W        W74742  17.415  42.594  12.990
 7960W        W74743  19.389  24.304   3.332
 7961W        W74744  19.210  28.640  12.629
 7962W        W74745  28.631  23.474   3.427
 7963W        W74746  15.118   1.594  10.771
 7964W        W74747  37.406  19.012  11.289
 7965W        W74748  19.506  25.054  11.858
 7966W        W74749  24.000  35.515   1.643
 7967W        W74750  44.061   4.815   4.822
 7968W        W74751  14.119  40.013   4.612
 7969W        W74752  26.439  40.836  11.258
 7970W        W74753  14.123   9.433   4.079
 7971W        W74754  28.031  34.509  10.316
 7972W        W74755  11.818   0.735   4.541
 7973W        W74756   2.891  42.645  13.290
 7974W        W74757  37.363  19.156   1.838
 7975W        W74758  11.443  28.148  12.707
 7976W        W74759  36.482  44.601  11.591
 7977W        W74760  20.501   5.627   3.154
 7978W        W74761  29.122  26.973  14.842
 7979W        W74762  13.009   1.711  10.730
 7980W        W74763  26.933  40.463   2.814
 7981W        W74764  44.868  13.142   0.291
 7982W        W74765  24.658  32.303  14.376
 7983W        W74766  43.265  27.102  13.613
 7984W        W74767   2.270   2.281  12.025
 7985W        W74768   5.347  16.341  13.261
 7986W        W74769  24.176  44.955   1.784
 7987W        W74770   3.422  28.465   0.021
 7988W        W74771  43.377  43.903   0.258
 7989W        W74772  10.837   8.002  12.308
 7990W        W74773  37.528  18.188  12.189
 7991W        W74774  39.462  34.787   3.786
 7992W        W74775  23.846  39.409  12.552
 7993W        W74776  33.180   6.362  13.261
 7994W        W74777  15.618  31.112  12.117
 7995W        W74778  38.550  40.354  10.975
 7996W        W74779  37.975  13.113   2.260
 7997W        W74780  22.205  12.345  12.149
 7998W        W74781  15.358  22.546  10.580
 7999W        W74782  38.978  41.375  12.640
 8000W        W74783  10.513  34.777   0.786
 8001W        W74784  44.201  14.035  13.869
 8002W        W74785  20.525  43.517  12.937
 8003W        W74786  16.168  27.461   4.059
 8004W        W74787  40.794  26.054  10.350
 8005W        W74788   8.985   4.297  11.666
 8006W        W74789  43.800  41.225   2.500
 8007W        W74790  38.984  36.118  12.438
 8008W        W74791  32.633  32.440   4.122
 8009W        W74792   4.252  24.736   1.961
 8010W        W74793  25.031  39.090   4.553
 8011W        W74794   5.898   8.222   4.661
 8012W        W74795   7.369   7.310   3.285
 8013W        W74796  21.033  31.142  13.400
 8014W        W74797  31.361  14.166  10.421
 8015W        W74798  34.127  19.849   0.685
 8016W        W74799  14.307  40.488  13.751
 8017W        W74800  33.549  22.706  14.367
 8018W        W74801  30.839  37.451  12.241
 8019W        W74802  19.841  16.455   4.766
 8020W        W74803  14.151   8.186  11.735
 8021W        W74804   6.714  14.028   2.670
 8022W        W74805  27.185  38.077  11.675
 8023W        W74806  18.816  15.899  14.293
 8024W        W74807  16.510   5.134   2.443
 8025W        W74808   6.454  22.629   2.399
 8026W        W74809   9.099  32.433   0.292
 8027W        W74810   7.294  22.180   4.190
 8028W        W74811  35.132  44.674  12.589
 8029W        W74812  15.318   3.750  13.340
 8030W        W74813  33.014  41.456  13.133
 8031W        W74814  44.432  13.075   3.269
 8032W        W74815  18.739  21.812  12.246
 8033W        W74816   9.704  42.053   4.851
 8034W        W74817  15.791  25.470   3.701
 8035W        W74818  40.294  16.396   1.995
 8036W        W74819  18.555  35.453  10.725
 8037W        W74820  35.960  31.093   0.684
 8038W        W74821  18.325  38.453   3.240
 8039W        W74822  28.349   9.261  11.153
 8040W        W74823  34.062  33.116   0.348
 8041W        W74824  28.951  41.050   4.255
 8042W        W74825  24.059  31.629   1.781
 8043W        W74826  30.103  10.396   4.594
 8044W        W74827  16.828  23.416   4.572
 8045W        W74828  15.882  28.217   4.110
 8046W        W74829   1.771  40.149  14.861
 8047W        W74830   6.146  37.911   2.210
 8048W        W74831  24.604  33.581   1.877
 8049W        W74832  17.540  39.551   4.018
 8050W        W74833  32.560  33.351  12.191
 8051W        W74834  32.322  37.869  13.463
 8052W        W74835  43.561  25.894  13.171
 8053W        W74836   5.746  22.424  13.899
 8054W        W74837  43.812   4.256  11.032
 8055W        W74838  36.070  37.429  10.885
 8056W        W74839  32.256  31.218  11.588
 8057W        W74840  31.891  18.289   3.967
 8058W        W74841  43.264  35.031   1.822
 8059W        W74842  14.726   3.302   0.466
 8060W        W74843   4.218  34.867   4.753
 8061W        W74844  41.995  26.015   4.899
 8062W        W74845  17.632   1.446   3.876
 8063W        W74846  40.486  10.146   1.839
 8064W        W74847   9.461  33.866   1.167
 8065W        W74848  29.176   7.431  11.571
 8066W        W74849   1.792  43.367   3.386
 8067W        W74850  36.071  41.688   1.763
 8068W        W74851   7.854  13.330  12.059
 8069W        W74852  10.931  20.191   2.101
 8070W        W74853  32.844  41.710   5.157
 8071W        W74854   9.657   6.507  14.783
 8072W        W74855  35.301  27.911   5.538
 8073W        W74856   1.556   8.126   4.547
 8074W        W74857  39.261  14.214   0.283
 8075W        W74858  15.018  14.360  12.070
 8076W        W74859  13.406  42.302   4.176
 8077W        W74860  29.717  22.224  14.958
 8078W        W74861   9.763  18.984   3.368
 8079W        W74862  17.203  22.353  11.139
 8080W        W74863   9.327  20.917   1.256
 8081W        W74864  43.962  17.719   4.564
 8082W        W74865  23.824  13.726   1.176
 8083W        W74866  11.377  29.221  13.875
 8084W        W74867  35.461  18.693   9.768
 8085W        W74868  33.989   7.419   1.534
 8086W        W74869   6.312  41.613  11.657
 8087W        W74870  12.410  38.269  10.286
 8088W        W74871  36.510  28.178   0.581
 8089W        W74872  35.805   1.076  13.110
 8090W        W74873  23.000  43.411   3.390
 8091W        W74874  25.310   9.702   2.867
 8092W        W74875   3.816  13.636  13.202
 8093W        W74876  33.810   4.344  12.499
 8094W        W74877  36.449  37.211  13.049
 8095W        W74878   3.987  20.363   3.281
 8096W        W74879  31.616  33.600   1.777
 8097W        W74880  24.670  24.125  11.932
 8098W        W74881  13.721   4.301  11.846
 8099W        W74882   5.749  15.644   4.308
 8100W        W74883  19.983   5.482  12.040
 8101W        W74884  28.438  25.580   2.546
 8102W        W74885  17.565  39.457   0.716
 8103W        W74886   5.432  27.517  11.708
 8104W        W74887  26.073  34.592   0.876
 8105W        W74888  28.148  25.197  10.692
 8106W        W74889  44.912   1.710   2.288
 8107W        W74890   7.191  39.600  13.521
 8108W        W74891  13.594  33.467  10.462
 8109W        W74892  23.164  22.599   4.621
 8110W        W74893   2.149  12.770   4.655
 8111W        W74894  14.747  20.723   1.864
 8112W        W74895  22.027   9.500  11.586
 8113W        W74896  22.447  17.469  14.063
 8114W        W74897  20.837  37.125   3.174
 8115W        W74898  43.370  26.864   1.495
 8116W        W74899  14.253  21.273   1.503
 8117W        W74900   3.274  23.229   3.600
 8118W        W74901  33.629  17.105   3.193
 8119W        W74902  35.375   5.337   3.648
 8120W        W74903   9.598  25.644  10.809
 8121W        W74904  36.157   7.804  13.580
 8122W        W74905  30.784   0.555  13.320
 8123W        W74906  26.469  13.166  11.234
 8124W        W74907  12.298  22.683   2.729
 8125W        W74908  15.870  39.636  14.085
 8126W        W74909   9.754  12.793   3.848
 8127W        W74910  22.469  35.109  13.031
 8128W        W74911  14.135  40.022  10.795
 8129W        W74912   0.282  26.478   3.719
 8130W        W74913  29.707  16.709  11.525
 8131W        W74914  27.373  21.068   0.250
 8132W        W74915  26.720  25.381  14.963
 8133W        W74916  25.977  17.658  11.670
 8134W        W74917  34.711   8.478   3.237
 8135W        W74918   5.782  41.299  12.433
 8136W        W74919  43.728   9.191   1.889
 8137W        W74920  11.645  28.950   1.462
 8138W        W74921  21.083  32.936   0.709
 8139W        W74922  21.792   0.200  13.020
 8140W        W74923  42.391  25.617  12.305
 8141W        W74924  14.305  32.684   1.800
 8142W        W74925  17.720  26.899  10.659
 8143W        W74926  17.800   2.383   4.203
 8144W        W74927  39.318  34.032   4.470
 8145W        W74928  28.046   4.239  11.691
 8146W        W74929  15.252  13.765  13.775
 8147W        W74930   0.929  27.562  10.662
 8148W        W74931  35.504  32.658  11.576
 8149W        W74932  20.501  24.127  10.452
 8150W        W74933  41.424  11.634   3.374
 8151W        W74934   3.612   1.908   1.702
 8152W        W74935  44.124  13.232   0.817
 8153W        W74936  33.222   8.388   4.044
 8154W        W74937   1.402   5.988  13.905
 8155W        W74938  32.019  27.672   0.536
 8156W        W74939  33.019  26.824   4.176
 8157W        W74940   8.351  23.157  11.557
 8158W        W74941  37.012  22.693   2.104
 8159W        W74942  32.226   2.312  11.076
 8160W        W74943  22.933  26.529  11.021
 8161W        W74944   9.558  25.710   2.890
 8162W        W74945  23.527  33.999   0.812
 8163W        W74946  13.007  20.340  11.176
 8164W        W74947  42.259   6.201  12.534
 8165W        W74948   0.880  10.595   3.247
 8166W        W74949   7.885  35.981  13.041
 8167W        W74950   9.727  14.775   4.211
 8168W        W74951  35.159   4.162  11.967
 8169W        W74952  23.475   1.892  10.664
 8170W        W74953  13.630   2.891  14.036
 8171W        W74954   4.770  22.452   3.693
 8172W        W74955   4.350  37.727   1.200
 8173W        W74956   5.031  35.626  13.044
 8174W        W74957   7.747   4.111  12.901
 8175W        W74958  39.805   9.963   3.746
 8176W        W74959  17.261  32.783  10.870
 8177W        W74960  14.730  22.761   0.732
 8178W        W74961  26.085  26.620  13.365
 8179W        W74962  31.516  29.199  11.898
 8180W        W74963  39.981  27.028  14.393
 8181W        W74964   7.549  38.778  11.140
 8182W        W74965  10.726  27.484   2.511
 8183W        W74966  39.575   4.280  12.131
 8184W        W74967  16.821   5.794   0.583
 8185W        W74968  10.365   9.915   1.841
 8186W        W74969  16.871  28.643  10.824
 8187W        W74970  44.276  17.999  11.696
 8188W        W74971  35.363  38.143   2.069
 8189W        W74972  24.287  38.772   5.019
 8190W        W74973  20.307  19.818   0.902
 8191W        W74974  27.913  39.181   3.697
 8192W        W74975   4.279  18.135  11.282
 8193W        W74976  21.235  25.599  10.259
 8194W        W74977  11.304  11.812  13.428
 8195W        W74978  41.861  14.129  11.152
 8196W        W74979   5.772  38.102   3.042
 8197W        W74980   4.677  20.633  13.667
 8198W        W74981  20.762  21.486  11.866
 8199W        W74982   3.811   7.157   2.795
 8200W        W74983  36.033  38.214   0.825
 8201W        W74984   1.940  41.760   0.842
 8202W        W74985  19.083  12.638   1.151
 8203W        W74986  18.054  33.786  11.375
 8204W        W74987  37.040  44.279  12.487
 8205W        W74988  24.715  23.501  12.530
 8206W        W74989   6.391  35.843   2.252
 8207W        W74990  37.369  35.001   2.542
 8208W        W74991   6.806  27.918   2.790
 8209W        W74992   9.624  31.033   3.962
 8210W        W74993  17.443  13.155  10.133
 8211W        W74994  17.727  36.834  11.091
 8212W        W74995  37.941   1.523   0.040
 8213W        W74996   1.787  31.958   2.700
 8214W        W74997  31.138  25.575  12.012
 8215W        W74998  27.462  40.491   1.808
 8216W        W74999  37.574  28.439   3.681
 8217W        W75000  28.434  37.501   0.842
 8218W        W75001  30.025  36.199  10.857
 8219W        W75002  35.614  34.444  14.529
 8220W        W75003  35.029  20.584  13.372
 8221W        W75004  15.758  11.761   2.277
 8222W        W75005  33.123  13.526   0.881
 8223W        W75006  21.635  30.095  13.921
 8224W        W75007  26.706   9.871   2.757
 8225W        W75008  10.209  27.479   2.630
 8226W        W75009  21.703  14.327   3.136
 8227W        W75010  24.457  38.471   2.467
 8228W        W75011  29.736  28.238   4.910
 8229W        W75012  21.862  34.293   3.139
 8230W        W75013  34.123  15.190  11.593
 8231W        W75014   5.166  37.520   1.743
 8232W        W75015   8.665  10.334  13.917
 8233W        W75016  39.107  28.079   0.562
 8234W        W75017  37.800  38.649  12.658
 8235W        W75018  16.899   5.342  11.725
 8236W        W75019  21.715   0.260  10.763
 8237W        W75020  41.623  24.508   4.465
 8238W        W75021  29.503  36.496  12.445
 8239W        W75022  11.421   2.019   4.645
 8240W        W75023  14.795   0.938   0.701
 8241W        W75024  21.281  44.580  13.358
 8242W        W75025  31.814   2.315  14.393
 8243W        W75026  27.294   4.163  12.349
 8244W        W75027   8.291  40.422   1.806
 8245W        W75028  27.583  39.256   5.111
 8246W        W75029  35.995  34.983   0.907
 8247W        W75030  40.051  29.264   0.745
 8248W        W75031  28.536   1.783   5.011
 8249W        W75032   2.968  27.878  14.335
 8250W        W75033  40.849  19.497  13.526
 8251W        W75034  37.800  43.466   2.654
 8252W        W75035  20.971   3.112  11.717
 8253W        W75036   2.796   4.249   1.861
 8254W        W75037   9.914  26.515  11.599
 8255W        W75038  25.512  37.691   1.734
 8256W        W75039  41.297  34.058   0.438
 8257W        W75040  30.536  41.790  13.433
 8258W        W75041   7.195   0.847   1.957
 8259W        W75042  11.741  21.602   1.767
 8260W        W75043  16.458   0.293  13.531
 8261W        W75044  18.620  18.111  14.234
 8262W        W75045   4.383  27.491   2.832
 8263W        W75046  37.595  37.477  14.473
 8264W        W75047  25.985  35.467   2.643
 8265W        W75048  14.028   2.604   1.713
 8266W        W75049  24.204   7.254  14.925
 8267W        W75050  30.976  37.084   0.400
 8268W        W75051  11.692  18.543   1.198
 8269W        W75052  11.398  11.357   4.103
 8270W        W75053  41.832  12.692   2.647
 8271W        W75054  37.448  35.039  10.638
 8272W        W75055   6.377   6.425   1.390
 8273W        W75056  18.915  34.929   4.162
 8274W        W75057  12.293  10.875  12.456
 8275W        W75058  18.639   3.791   2.180
 8276W        W75059  39.177  27.722  14.262
 8277W        W75060  23.769  27.255  13.467
 8278W        W75061   6.006  17.443   3.648
 8279W        W75062  16.154  39.380   4.426
 8280W        W75063  21.730   4.636   4.409
 8281W        W75064  17.249  41.918   2.789
 8282W        W75065   7.777  37.796  14.487
 8283W        W75066  31.414  19.743  13.454
 8284W        W75067  39.325  31.570   3.481
 8285W        W75068  13.698  44.769  13.118
 8286W        W75069   4.637  41.841  10.379
 8287W        W75070   7.856  34.609   4.531
 8288W        W75071  22.954  39.286   3.160
 8289W        W75072  25.384  40.044   2.672
 8290W        W75073  36.925  34.796   3.783
 8291W        W75074  19.676  41.654   4.171
 8292W        W75075  17.021  39.431  12.047
 8293W        W75076  23.564  22.306   3.807
 8294W        W75077  18.313  26.645  11.485
 8295W        W75078  39.007   2.018   4.435
 8296W        W75079   3.557  42.105   0.116
 8297W        W75080  42.396  15.121  14.856
 8298W        W75081   8.257  33.808  14.987
 8299W        W75082   9.276  14.833   1.356
 8300W        W75083  38.787  35.958  10.199
 8301W        W75084  33.853   6.436   2.604
 8302W        W75085  25.842  11.912   3.380
 8303W        W75086  16.082  10.416   0.241
 8304W        W75087  44.997  22.582   1.472
 8305W        W75088  37.633  28.673   4.820
 8306W        W75089  13.061  17.206  10.860
 8307W        W75090  28.103   0.131  14.945
 8308W        W75091  10.120  29.461  12.014
 8309W        W75092  25.927  32.593  12.559
 8310W        W75093  36.552  11.229   1.587
 8311W        W75094  38.802  24.447   3.269
 8312W        W75095  13.248  17.742   2.927
 8313W        W75096  12.292   0.774  14.115
 8314W        W75097  15.702  38.482  11.486
 8315W        W75098  32.649  32.950  11.262
 8316W        W75099  19.466   2.475   4.510
 8317W        W75100  29.386  44.404   0.859
 8318W        W75101   1.585  40.093   1.401
 8319W        W75102  28.212  11.234   0.489
 8320W        W75103  19.063  32.410   4.551
 8321W        W75104   2.791  39.536   2.138
 8322W        W75105  28.073  34.993   4.568
 8323W        W75106  30.005  32.425  11.697
 8324W        W75107  26.386   7.365  10.695
 8325W        W75108   6.115  11.270   3.350
 8326W        W75109  31.595  32.922  12.746
 8327W        W75110  21.239  24.086   0.979
 8328W        W75111  37.048   7.877  13.284
 8329W        W75112   4.826  41.727  14.001
 8330W        W75113   3.640  24.618  14.929
 8331W        W75114  10.257  28.008   1.860
 8332W        W75115  25.718   8.292  14.979
 8333W        W75116  11.588  34.615  12.074
 8334W        W75117   6.752  37.390   4.280
 8335W        W75118   7.247  15.358  13.700
 8336W        W75119   1.896  12.310   4.637
 8337W        W75120  40.475  12.212   2.299
 8338W        W75121  20.042  32.350   1.026
 8339W        W75122   0.931  23.458  11.228
 8340W        W75123  18.553   7.134   4.156
 8341W        W75124  28.147  24.788   4.240
 8342W        W75125  12.800  42.819   1.424
 8343W        W75126   4.892  13.724   3.164
 8344W        W75127   8.201  43.862  10.969
 8345W        W75128  22.045  38.361   3.546
 8346W        W75129   8.637   3.835   2.229
 8347W        W75130   9.292  43.259  14.870
 8348W        W75131  41.647  26.889  11.632
 8349W        W75132  17.565  18.474  11.515
 8350W        W75133  37.748   0.906  13.938
 8351W        W75134  37.106   1.267   4.161
 8352W        W75135  22.184  17.225   2.312
 8353W        W75136  40.287   7.018   2.390
 8354W        W75137  18.570   3.883   1.151
 8355W        W75138  22.127   0.473  14.762
 8356W        W75139  31.859  20.228  14.764
 8357W        W75140  38.169  43.596  12.041
 8358W        W75141  10.492  42.484  12.577
 8359W        W75142  17.658   2.196   1.258
 8360W        W75143   1.826  37.849   1.582
 8361W        W75144  29.638   6.587   1.270
 8362W        W75145   8.121  14.587   2.833
 8363W        W75146  34.143  39.537  10.746
 8364W        W75147  34.151  29.010   0.394
 8365W        W75148  39.385  23.772   2.057
 8366W        W75149  41.861  12.631  14.247
 8367W        W75150  14.920  30.914  12.929
 8368W        W75151  31.499  14.445   1.497
 8369W        W75152   0.652  32.564  10.827
 8370W        W75153  28.290  19.750  11.886
 8371W        W75154  11.386   7.245  11.564
 8372W        W75155  33.120   1.249  10.850
 8373W        W75156  29.647   2.999  14.242
 8374W        W75157  10.278   8.439   3.642
 8375W        W75158   8.408  25.410  14.247
 8376W        W75159  15.614  19.577  14.347
 8377W        W75160   2.901  24.265  10.748
 8378W        W75161  38.361  38.028  14.417
 8379W        W75162  25.945  29.939  12.451
 8380W        W75163  30.592  18.124  14.399
 8381W        W75164  41.898   0.938  11.985
 8382W        W75165  17.514   1.371  13.843
 8383W        W75166   5.187  40.232   1.828
 8384W        W75167   3.314  30.482  14.609
 8385W        W75168   7.376  24.183  11.647
 8386W        W75169  10.878  36.562   1.859
 8387W        W75170  23.991   2.800   2.730
 8388W        W75171  32.933  14.106   0.102
 8389W        W75172  15.418  43.000   5.046
 8390W        W75173  33.433  15.106   1.633
 8391W        W75174  24.125  41.903   3.823
 8392W        W75175  39.104  44.977  11.633
 8393W        W75176  23.352  42.190  14.449
 8394W        W75177   5.773  39.645   2.408
 8395W        W75178   3.772   4.379   1.761
 8396W        W75179  13.268   0.670  13.275
 8397W        W75180   4.558  13.644  11.223
 8398W        W75181  10.812  24.106   0.868
 8399W        W75182  10.130  10.413  10.757
 8400W        W75183   4.317  16.356   0.274
 8401W        W75184   1.101  15.126   2.003
 8402W        W75185   3.835  24.462  10.835
 8403W        W75186  31.690  35.510   1.740
 8404W        W75187  15.887  38.634  13.885
 8405W        W75188  20.986  21.747   1.321
 8406W        W75189  32.484   3.569  13.958
 8407W        W75190  22.526  33.532  13.193
 8408W        W75191  32.043  35.669  11.918
 8409W        W75192  41.088   0.791  14.806
 8410W        W75193  18.507  23.005   1.887
 8411W        W75194  26.234  25.512  11.714
 8412W        W75195  42.894   3.153   4.789
 8413W        W75196  21.252  27.442  14.496
 8414W        W75197  40.083  18.689  12.889
 8415W        W75198   5.940  41.520  12.000
 8416W        W75199  24.267  23.907  14.340
 8417W        W75200  25.254   1.568  12.545
 8418W        W75201  31.056  40.119   0.429
 8419W        W75202  39.771  28.868  14.245
 8420W        W75203  27.823  25.979  12.160
 8421W        W75204   5.797   8.782   3.625
 8422W        W75205   8.788  40.821   3.372
 8423W        W75206  19.465  32.784  14.876
 8424W        W75207  27.999  25.210  14.399
 8425W        W75208   7.919  30.673   2.680
 8426W        W75209   9.251  38.382   2.781
 8427W        W75210  41.517   0.654  12.588
 8428W        W75211   2.023  34.649  13.920
 8429W        W75212  11.183  16.615   0.565
 8430W        W75213  26.911  15.123   3.823
 8431W        W75214  26.714  13.677  11.999
 8432W        W75215  18.622   1.220   4.149
 8433W        W75216  24.688  12.782   2.163
 8434W        W75217  18.163  29.690  11.710
 8435W        W75218  42.084   0.820   2.055
 8436W        W75219  24.379  10.875   3.552
 8437W        W75220  38.769  13.586  10.239
 8438W        W75221  37.449  40.898   3.190
 8439W        W75222   6.508   9.329   3.725
 8440W        W75223   2.765  39.690  12.484
 8441W        W75224  12.285  21.464  14.784
 8442W        W75225  28.601  31.410   0.889
 8443W        W75226  36.832   9.600  12.923
 8444W        W75227  24.700  42.335  11.972
 8445W        W75228  39.124   2.081  11.600
 8446W        W75229   3.066  32.632  10.932
 8447W        W75230  16.998   7.768  13.143
 8448W        W75231  36.733  30.482  12.402
 8449W        W75232   4.198  27.335  11.497
 8450W        W75233   1.824  38.376   2.270
 8451W        W75234   7.847  20.485  12.990
 8452W        W75235  20.577  29.442   0.341
 8453W        W75236  43.545  10.316   3.245
 8454W        W75237  16.571  42.189  12.451
 8455W        W75238  27.579   7.691  11.192
 8456W        W75239  37.960   9.628  12.956
 8457W        W75240   1.792  39.742  12.741
 8458W        W75241   7.493  26.635  10.312
 8459W        W75242  38.517  32.489   1.596
 8460W        W75243  38.779  26.956  13.987
 8461W        W75244  28.199  24.472  11.718
 8462W        W75245  36.500  19.966  12.941
 8463W        W75246  13.219  36.868  12.682
 8464W        W75247   5.396  38.453   1.014
 8465W        W75248  36.008  23.028   2.896
 8466W        W75249   8.781  36.907   0.003
 8467W        W75250   6.398  22.096   4.321
 8468W        W75251  11.213  10.192  14.131
 8469W        W75252  20.463  11.979   1.257
 8470W        W75253  34.277  36.478  11.885
 8471W        W75254  28.357  35.016  11.990
 8472W        W75255  14.806  15.715   2.881
 8473W        W75256  21.497  30.471  13.131
 8474W        W75257   0.963  31.069  12.376
 8475W        W75258  11.769  18.393   3.538
 8476W        W75259   4.735  18.156  14.444
 8477W        W75260  21.984  12.154   3.146
 8478W        W75261  35.524  22.658  12.594
 8479W        W75262   7.354  38.938   5.062
 8480W        W75263   2.876  33.975   0.163
 8481W        W75264  21.811  36.668  12.583
 8482W        W75265  10.776  44.433  10.701
 8483W        W75266  44.687  30.468   4.565
 8484W        W75267   1.325  16.071  11.225
 8485W        W75268  43.788  11.288   3.584
 8486W        W75269  44.623  39.912  12.937
 8487W        W75270  23.124  37.388   1.311
 8488W        W75271   0.350  21.975   0.327
 8489W        W75272  18.353   3.491  12.036
 8490W        W75273  10.850  11.215  10.664
 8491W        W75274  17.141  41.665   3.818
 8492W        W75275  26.948  14.936  14.373
 8493W        W75276   3.888  25.825  14.940
 8494W        W75277  15.643  36.617   1.084
 8495W        W75278  32.838  13.818   1.241
 8496W        W75279  33.837  40.534  12.602
 8497W        W75280   1.143   9.047  14.900
 8498W        W75281  41.378  34.958  10.812
 8499W        W75282  17.363  38.786   4.491
 8500W        W75283  35.868   5.444  12.070
 8501W        W75284   6.632  40.288  10.636
 8502W        W75285  15.474  33.116  13.818
 8503W        W75286   2.511   0.659   3.782
 8504W        W75287  22.601   3.524  13.940
 8505W        W75288  39.638  14.852  10.747
 8506W        W75289  42.911  12.825  12.400
 8507W        W75290   4.726  36.499  11.346
 8508W        W75291  18.568  39.793   3.462
 8509W        W75292  25.053  28.156   3.698
 8510W        W75293  38.880  20.117   1.010
 8511W        W75294  18.361  43.493   0.219
 8512W        W75295  38.534  20.370   3.555
 8513W        W75296   8.583  29.253   3.795
 8514W        W75297  19.254  13.955  14.751
 8515W        W75298  12.839  40.446  12.125
 8516W        W75299   1.721   2.008  12.385
 8517W        W75300  36.966  34.124   2.537
 8518W        W75301   3.431   6.418  11.612
 8519W        W75302  31.377  19.210  14.918
 8520W        W75303  16.493  42.250  11.779
 8521W        W75304   8.504   1.153  12.547
 8522W        W75305  40.306  21.388   5.097
 8523W        W75306  43.351  40.491   2.178
 8524W        W75307  18.754  18.760  13.054
 8525W        W75308  44.506  10.583  14.876
 8526W        W75309  20.644  11.565  12.626
 8527W        W75310  39.567  36.484   0.083
 8528W        W75311  43.871  44.512  13.028
 8529W        W75312  21.147  14.592   2.657
 8530W        W75313   9.891  36.522   1.882
 8531W        W75314   4.416  15.113   1.857
 8532W        W75315  34.422  12.184  12.419
 8533W        W75316  43.328  40.007  14.487
 8534W        W75317  23.400  20.247   4.487
 8535W        W75318  31.194  26.612   4.996
 8536W        W75319   2.009  44.700  14.814
 8537W        W75320  11.741  36.138  12.884
 8538W        W75321  25.420   0.425   4.192
 8539W        W75322   6.809  14.550   2.624
 8540W        W75323  43.067  10.267  11.592
 8541W        W75324  24.891  28.357  14.960
 8542W        W75325  44.897  36.102  14.585
 8543W        W75326  43.588   9.755  12.995
 8544W        W75327   9.684   7.795  11.769
 8545W        W75328  34.609  41.088  11.428
 8546W        W75329  34.773  37.692  14.979
 8547W        W75330  34.567  43.284   3.250
 8548W        W75331  11.226  35.133   3.641
 8549W        W75332  37.602  43.252   5.019
 8550W        W75333   6.383  36.968  12.623
 8551W        W75334  23.679   6.858   0.389
 8552W        W75335  27.847   5.686  10.781
 8553W        W75336  29.505  42.076  10.731
 8554W        W75337  36.428  22.097   4.628
 8555W        W75338   1.863  37.659  11.811
 8556W        W75339  40.001  22.319   3.139
 8557W        W75340  15.524  40.911  11.590
 8558W        W75341  38.367  30.723  13.303
 8559W        W75342  39.847  10.016  11.453
 8560W        W75343  19.083  36.380   1.339
 8561W        W75344  11.986  10.414  10.329
 8562W        W75345  14.223   0.925  13.894
 8563W        W75346  28.564  14.161   3.767
 8564W        W75347  41.363   8.697   3.995
 8565W        W75348  25.031  31.358   2.235
 8566W        W75349  39.624   3.575  12.451
 8567W        W75350  23.065  20.028  11.564
 8568W        W75351  15.232  14.710  14.268
 8569W        W75352  34.459  27.018  12.017
 8570W        W75353  13.311   8.321  14.244
 8571W        W75354  38.361  22.524  13.884
 8572W        W75355   4.279  29.122  10.384
 8573W        W75356   2.370  18.560   1.834
 8574W        W75357  21.997   2.810   2.829
 8575W        W75358  41.757   8.689  11.722
 8576W        W75359  41.766  18.000   3.407
 8577W        W75360  12.395  23.240   0.799
 8578W        W75361  16.216   3.807   3.003
 8579W        W75362  31.530  29.404   4.954
 8580W        W75363  34.876  25.440  14.379
 8581W        W75364  30.174  37.769   3.312
 8582W        W75365  24.662  19.117   4.094
 8583W        W75366  43.464  39.963   2.206
 8584W        W75367  23.064   5.996  10.624
 8585W        W75368  20.510  14.103  12.032
 8586W        W75369  14.322   2.218  13.021
 8587W        W75370  13.112  41.936   1.169
 8588W        W75371  20.992  19.586   0.226
 8589W        W75372   0.391  34.673   0.807
 8590W        W75373  22.834  16.124   1.326
 8591W        W75374  24.604  11.059   1.213
 8592W        W75375   1.830   5.258  14.490
 8593W        W75376   3.811  35.529   3.751
 8594W        W75377   9.577  11.143   1.677
 8595W        W75378   9.126  14.613   2.817
 8596W        W75379  18.587  18.206  11.508
 8597W        W75380  19.756   0.525   1.378
 8598W        W75381  19.107   0.321   4.213
 8599W        W75382  24.841  44.555   3.064
 8600W        W75383   8.905  41.187  11.613
 8601W        W75384  23.911  40.051   2.353
 8602W        W75385   5.377  42.845   0.852
 8603W        W75386  26.863  42.954  11.063
 8604W        W75387  20.518   9.100   2.253
 8605W        W75388  10.958  25.639   3.166
 8606W        W75389  12.428   6.671  11.139
 8607W        W75390  28.621  32.647   0.230
 8608W        W75391  17.272  22.089  10.694
 8609W        W75392   8.401   5.785  10.437
 8610W        W75393  35.518  11.968   4.984
 8611W        W75394  15.580  39.843   0.859
 8612W        W75395  21.796  22.467  14.827
 8613W        W75396  26.607   8.695  14.129
 8614W        W75397  37.559  24.999  11.477
 8615W        W75398  14.847  26.006  14.426
 8616W        W75399  42.898  39.640  12.492
 8617W        W75400   8.107  16.461   0.261
 8618W        W75401  18.773  41.003   3.323
 8619W        W75402  29.622  36.388   2.322
 8620W        W75403   5.655  29.911  12.866
 8621W        W75404  25.280  39.482   0.356
 8622W        W75405  44.471  17.882   3.197
 8623W        W75406  35.060  25.981   2.780
 8624W        W75407  36.076  27.075   0.929
 8625W        W75408  27.061  13.631  14.777
 8626W        W75409   0.876  42.900  14.312
 8627W        W75410  18.804   6.329  13.261
 8628W        W75411   6.131   3.763  12.524
 8629W        W75412  41.960   9.231  12.514
 8630W        W75413   6.187  30.633  14.465
 8631W        W75414  27.484  34.858  13.467
 8632W        W75415  44.399   5.817  12.464
 8633W        W75416  20.680   3.684   3.285
 8634W        W75417  38.911  34.817  10.939
 8635W        W75418   7.721  23.098  10.650
 8636W        W75419  11.320  31.337   4.407
 8637W        W75420   0.207  12.764   0.183
 8638W        W75421  28.843  11.191   4.790
 8639W        W75422  28.331  21.031  13.013
 8640W        W75423  33.818  40.054   1.681
 8641W        W75424   1.595  13.480  11.635
 8642W        W75425  32.577  29.172  13.380
 8643W        W75426   0.952   4.753   3.542
 8644W        W75427  19.179  18.428  12.184
 8645W        W75428   9.773   7.185  12.419
 8646W        W75429  10.800  13.407  12.927
 8647W        W75430   4.592  39.094  12.053
 8648W        W75431   7.937  19.626  12.466
 8649W        W75432  14.177  32.995   1.420
 8650W        W75433   8.791  42.097  14.739
 8651W        W75434  23.467  23.416  13.049
 8652W        W75435  34.841  17.443  14.296
 8653W        W75436  36.446   9.973  12.885
 8654W        W75437  26.961  16.102   0.765
 8655W        W75438   8.233  14.211  13.859
 8656W        W75439   4.545  44.547  11.801
 8657W        W75440  15.030   7.723  11.689
 8658W        W75441  32.983  23.719   3.766
 8659W        W75442  30.271   0.579  13.408
 8660W        W75443  28.449  25.123   3.296
 8661W        W75444  32.152  10.750  14.321
 8662W        W75445  27.283  34.583   1.494
 8663W        W75446  32.003  29.935  11.602
 8664W        W75447  30.222  21.577   1.987
 8665W        W75448  10.339  25.639   0.312
 8666W        W75449  23.632  21.172   2.708
 8667W        W75450  44.470  41.952   4.828
 8668W        W75451  44.204   8.912  11.325
 8669W        W75452  31.567  29.554   3.592
 8670W        W75453  35.993  11.078   2.347
 8671W        W75454  14.373  38.932   5.361
 8672W        W75455  36.548  30.056  14.707
 8673W        W75456  31.409   0.078  14.771
 8674W        W75457  18.322   6.815  13.052
 8675W        W75458  36.536  31.001  10.717
 8676W        W75459  15.794  30.185   2.127
 8677W        W75460  34.820  34.195  13.416
 8678W        W75461   3.362   8.929   1.387
 8679W        W75462  29.440   8.864  13.416
 8680W        W75463  10.648   6.714  10.766
 8681W        W75464   3.776  30.533  10.507
 8682W        W75465  18.541   4.857  12.672
 8683W        W75466   4.037  37.721  12.840
 8684W        W75467  44.906  18.099   1.772
 8685W        W75468  31.054  17.767   4.288
 8686W        W75469  43.794  41.848   2.578
 8687W        W75470  42.798  14.399  14.318
 8688W        W75471  35.890   8.751  12.038
 8689W        W75472  29.324   3.921  13.132
 8690W        W75473  41.857  28.741   2.735
 8691W        W75474  11.553  43.615   0.072
 8692W        W75475  42.865  10.880   2.315
 8693W        W75476  30.094  40.994   3.732
 8694W        W75477  15.305  14.638  13.302
 8695W        W75478  20.665  28.524  13.379
 8696W        W75479  12.720  30.660  12.636
 8697W        W75480  37.072  30.999   0.917
 8698W        W75481  24.065  14.439  13.351
 8699W        W75482  23.153  27.312  13.975
 8700W        W75483   1.480   4.099   1.721
 8701W        W75484  17.788  28.131  12.167
 8702W        W75485   0.833  41.339   0.005
 8703W        W75486   8.705  11.886  14.012
 8704W        W75487  41.835   2.280   3.232
 8705W        W75488  32.494  43.096   4.284
 8706W        W75489  36.559   4.293  12.531
 8707W        W75490  25.544   4.359  10.505
 8708W        W75491  15.244  36.451  12.361
 8709W        W75492  31.431  31.693  13.929
 8710W        W75493  34.119  18.742  14.304
 8711W        W75494  20.642  20.079  13.489
 8712W        W75495  42.916  39.000   4.454
 8713W        W75496  29.441  37.862   3.805
 8714W        W75497  40.952  37.466  13.589
 8715W        W75498  35.524  36.319   2.437
 8716W        W75499  34.922  31.576  12.986
 8717W        W75500  42.558  33.993   0.859
 8718W        W75501  32.456   8.741   4.186
 8719W        W75502  19.090   0.483   2.878
 8720W        W75503  11.203  20.773   2.311
 8721W        W75504  40.990  41.470   0.977
 8722W        W75505  43.796  35.489   3.620
 8723W        W75506   7.947  30.931   4.530
 8724W        W75507  32.234  14.872  13.377
 8725W        W75508  15.116  29.934   2.804
 8726W        W75509  44.266  15.683   1.774
 8727W        W75510  15.750  29.994   4.076
 8728W        W75511  25.738  17.822  13.033
 8729W        W75512  22.663  25.252  11.602
 8730W        W75513  20.899  16.655   4.019
 8731W        W75514  28.918  23.333   2.203
 8732W        W75515  42.247  14.215  13.733
 8733W        W75516  26.756  31.711  12.098
 8734W        W75517  40.903  13.674   0.500
 8735W        W75518  13.874  39.927   1.959
 8736W        W75519  13.812   7.016  12.590
 8737W        W75520  35.018  22.974   4.522
 8738W        W75521  39.880  25.433  14.243
 8739W        W75522   0.222   3.759  14.806
 8740W        W75523  21.742  30.035  11.978
 8741W        W75524   6.431  35.078  11.556
 8742W        W75525  21.669  29.019  13.934
 8743W        W75526  17.291  18.505   1.112
 8744W        W75527  18.311  33.471  12.626
 8745W        W75528  42.358   0.236   3.698
 8746W        W75529  38.043  34.911  13.129
 8747W        W75530   7.647  38.755  14.066
 8748W        W75531  30.066  42.011   0.231
 8749W        W75532   2.446   2.709   4.708
 8750W        W75533  22.865  27.301  13.543
 8751W        W75534  12.208  20.740   2.451
 8752W        W75535  13.090  22.726  14.853
 8753W        W75536  14.788  14.860   0.437
 8754W        W75537  33.069  40.015  10.432
 8755W        W75538  21.003  14.215  11.962
 8756W        W75539  30.912  35.586   2.369
 8757W        W75540  14.063  11.656  10.676
 8758W        W75541  35.880  36.414  14.490
 8759W        W75542  10.598  15.092  10.586
 8760W        W75543  18.107   3.867   4.861
 8761W        W75544  38.148   5.725  12.459
 8762W        W75545  36.313  35.884   1.336
 8763W        W75546  41.559  29.271   4.835
 8764W        W75547  13.830   5.768  11.259
 8765W        W75548  19.912   6.803  11.654
 8766W        W75549  31.680  20.798   2.439
 8767W        W75550   7.323  44.022   1.084
 8768W        W75551  22.302  12.253   1.354
 8769W        W75552   4.500  16.360  13.467
 8770W        W75553  39.089   6.771  13.579
 8771W        W75554  39.311  41.315  14.881
 8772W        W75555  31.093   0.710  11.158
 8773W        W75556  14.083  12.111   3.381
 8774W        W75557  30.521   3.906   1.369
 8775W        W75558  29.051  16.815  13.488
 8776W        W75559  39.468  22.228   4.490
 8777W        W75560  40.895   6.486   2.573
 8778W        W75561  11.214  41.814   2.730
 8779W        W75562   7.953  23.757  14.730
 8780W        W75563  23.749  42.417   2.123
 8781W        W75564  30.073  39.406   1.092
 8782W        W75565   5.358  13.242  12.869
 8783W        W75566  41.029  41.036  14.822
 8784W        W75567   8.789  42.183   4.100
 8785W        W75568  35.725  40.529   0.435
 8786W        W75569  13.529  21.197  14.600
 8787W        W75570  43.492  35.083   1.280
 8788W        W75571  38.475  32.524  11.939
 8789W        W75572  40.993  37.278   1.468
 8790W        W75573  21.742  36.391   1.799
 8791W        W75574  28.018   9.456   3.725
 8792W        W75575  11.863  16.192  11.417
 8793W        W75576   4.938  28.028   3.986
 8794W        W75577  26.664  12.156   0.772
 8795W        W75578  30.536  31.783   3.618
 8796W        W75579  44.905  33.518  13.406
 8797W        W75580  18.592  44.897  14.960
 8798W        W75581  31.548  37.830   2.313
 8799W        W75582  37.082   0.493   2.265
 8800W        W75583  32.968  14.549  11.991
 8801W        W75584   5.972  24.476  14.295
 8802W        W75585  27.199  13.346   4.574
 8803W        W75586  24.514  38.273   3.375
 8804W        W75587  28.053  15.176   0.950
 8805W        W75588  26.681  19.662  11.918
 8806W        W75589  23.106  43.836  11.057
 8807W        W75590  24.634  39.061  11.686
 8808W        W75591  40.408  41.871  11.534
 8809W        W75592   4.083   1.427   2.292
 8810W        W75593  16.359  25.686   1.355
 8811W        W75594  36.554  29.231  10.999
 8812W        W75595  27.726  13.717   1.373
 8813W        W75596  11.915  27.961   4.452
 8814W        W75597  39.130  12.308  13.176
 8815W        W75598  38.372  33.532   1.240
 8816W        W75599  14.540  13.760   4.955
 8817W        W75600  21.961  40.564   3.619
 8818W        W75601  23.150   9.882  11.678
 8819W        W75602  36.117  35.461   3.141
 8820W        W75603  19.551  44.595   3.301
 8821W        W75604  41.278  40.967   4.526
 8822W        W75605  43.799  27.779  12.066
 8823W        W75606  13.407   5.421  11.632
 8824W        W75607  37.101  24.551   0.311
 8825W        W75608  40.400   2.272   4.482
 8826W        W75609  22.261  10.327   4.851
 8827W        W75610   1.088  31.119  11.893
 8828W        W75611  25.326  17.242  12.479
 8829W        W75612   2.779  32.371   2.761
 8830W        W75613   0.197  32.883   4.124
 8831W        W75614   0.158  43.474   2.880
 8832W        W75615  37.354  36.765   0.148
 8833W        W75616  16.358  16.702  13.959
 8834W        W75617  23.960  18.154  11.096
 8835W        W75618   4.492  29.569  12.148
 8836W        W75619  44.725  20.786  11.964
 8837W        W75620  22.531  42.338   4.608
 8838W        W75621  33.330  34.826  13.623
 8839W        W75622  26.229  20.526   3.707
 8840W        W75623  22.254   4.261  12.097
 8841W        W75624  16.162  21.226   1.733
 8842W        W75625  13.021  19.726   4.526
 8843W        W75626   9.676  32.343  10.880
 8844W        W75627  44.619   7.876  11.492
 8845W        W75628  33.503  38.974  10.274
 8846W        W75629  18.499  39.870  11.644
 8847W        W75630  31.536   9.396  11.605
 8848W        W75631  26.743  13.852   2.800
 8849W        W75632  10.747  16.616   3.345
 8850W        W75633  29.502  21.857   0.272
 8851W        W75634  10.644  12.247   3.813
 8852W        W75635  37.633  35.668  12.809
 8853W        W75636   4.958   9.530   1.805
 8854W        W75637  24.961  19.648   0.988
 8855W        W75638  24.974  40.909   3.496
 8856W        W75639  37.500  11.147   3.092
 8857W        W75640  23.409  22.291   9.924
 8858W        W75641   1.086  25.736   1.232
 8859W        W75642  11.213  29.883  10.696
 8860W        W75643  33.908  44.453  12.274
 8861W        W75644  15.404  21.679  11.144
 8862W        W75645  18.615  15.079   1.007
 8863W        W75646  43.401  42.556   4.149
 8864W        W75647  38.095  16.145   1.256
 8865W        W75648  13.440   6.983  11.074
 8866W        W75649   7.297  25.166  13.437
 8867W        W75650  35.454   8.146   2.126
 8868W        W75651  38.328  25.907  14.249
 8869W        W75652  41.042  27.503   2.201
 8870W        W75653   9.169  16.346  12.902
 8871W        W75654  16.821   0.564   1.247
 8872W        W75655  40.258   9.199   4.065
 8873W        W75656  23.363   4.882  12.510
 8874W        W75657  18.558  16.703   3.426
 8875W        W75658  12.049  31.583  11.905
 8876W        W75659  13.238  10.104  11.028
 8877W        W75660  10.384  40.771   3.586
 8878W        W75661  22.645  40.963   3.755
 8879W        W75662  35.561   8.386   2.875
 8880W        W75663  28.172  35.795   4.080
 8881W        W75664  28.219  11.750   1.291
 8882W        W75665  40.052  11.638  14.223
 8883W        W75666  27.656  32.529  13.410
 8884W        W75667  18.167  37.557  11.129
 8885W        W75668  12.994  26.110  14.336
 8886W        W75669  22.150   4.022  14.296
 8887W        W75670   9.640  37.931   4.538
 8888W        W75671  34.410  24.547   4.736
 8889W        W75672  21.244  20.016   1.768
 8890W        W75673  33.968   5.911   2.638
 8891W        W75674  17.812  12.150  11.625
 8892W        W75675  22.568  44.264   0.259
 8893W        W75676  23.539   6.136  10.494
 8894W        W75677   0.476  34.394   4.497
 8895W        W75678  21.135  37.559   0.809
 8896W        W75679  39.333  19.291   1.339
 8897W        W75680  13.300  30.978  14.917
 8898W        W75681  16.334   3.921  13.617
 8899W        W75682   3.359  37.672   0.546
 8900W        W75683   4.821   0.190  10.569
 8901W        W75684   8.107  13.630  12.433
 8902W        W75685  17.585  37.885   0.522
 8903W        W75686   3.563  11.109   0.152
 8904W        W75687  18.137  26.143   1.524
 8905W        W75688  39.047  11.655   4.581
 8906W        W75689  28.603  25.542   2.058
 8907W        W75690  32.488  41.017  13.846
 8908W        W75691  27.397  44.521  11.557
 8909W        W75692  37.536  19.175  14.035
 8910W        W75693   9.004  30.666   1.124
 8911W        W75694  20.494  40.100   2.653
 8912W        W75695  38.969  13.452  11.913
 8913W        W75696  35.584  39.862   3.655
 8914W        W75697  16.610   7.892   4.658
 8915W        W75698  39.939   2.484  13.238
 8916W        W75699  20.504  42.883  13.071
 8917W        W75700  32.614  33.634   0.531
 8918W        W75701   8.818   7.265  12.894
 8919W        W75702   3.983  27.779   0.669
 8920W        W75703  24.444  15.454   1.783
 8921W        W75704  34.017  28.962  11.728
 8922W        W75705  33.349  12.477  11.580
 8923W        W75706  33.474  31.554  12.388
 8924W        W75707   8.594  25.998  12.030
 8925W        W75708  27.005  22.317   4.942
 8926W        W75709  29.043  11.204   1.470
 8927W        W75710  17.123  31.596   1.407
 8928W        W75711  34.876  15.529  14.768
 8929W        W75712  39.294  32.585  13.168
 8930W        W75713  21.017  19.483   1.377
 8931W        W75714  27.780  31.675   1.290
 8932W        W75715  22.303  43.782   4.738
 8933W        W75716  42.060  21.512  10.609
 8934W        W75717   5.682  28.918  14.708
 8935W        W75718  16.852  34.988  12.255
 8936W        W75719  21.763   2.208   2.660
 8937W        W75720   3.409  38.854  13.594
 8938W        W75721  14.865  24.502   2.330
 8939W        W75722  37.471   0.206   1.485
 8940W        W75723  32.850  39.064  11.997
 8941W        W75724  20.258   6.781  11.235
 8942W        W75725  21.029  10.230  11.489
 8943W        W75726  19.789   0.769   0.908
 8944W        W75727  14.094  19.066  14.034
 8945W        W75728  38.045   9.634  11.099
 8946W        W75729  21.731  30.546  11.619
 8947W        W75730  19.443  25.049   3.822
 8948W        W75731  41.532   9.580   3.832
 8949W        W75732  44.452   6.979  11.701
 8950W        W75733  32.312  42.929  10.209
 8951W        W75734  29.582  36.548   3.192
 8952W        W75735  20.539  36.419  10.737
 8953W        W75736  30.652  37.542   4.610
 8954W        W75737  38.056   9.348  14.503
 8955W        W75738  41.251  42.373   0.830
 8956W        W75739  26.193  21.030  13.855
 8957W        W75740  38.674   7.123  10.067
 8958W        W75741   9.605  21.650  14.204
 8959W        W75742  12.396  22.968   0.342
 8960W        W75743  22.251   9.846   4.662
 8961W        W75744  30.961  13.660   3.413
 8962W        W75745   7.198   1.226  12.892
 8963W        W75746   0.823  41.386  12.933
 8964W        W75747  42.338  26.621   3.352
 8965W        W75748   9.435  22.659   4.777
 8966W        W75749   3.714  29.177   3.388
 8967W        W75750  44.734   8.385   0.776
 8968W        W75751  12.133  34.370   0.847
 8969W        W75752  13.444  33.593  13.971
 8970W        W75753  24.094  37.476   3.676
 8971W        W75754  14.244  22.970  14.240
 8972W        W75755  11.023  36.873  12.890
 8973W        W75756   0.880  41.465  12.159
 8974W        W75757   0.738  32.192   1.289
 8975W        W75758  22.457   7.811   0.700
 8976W        W75759  28.082  30.455   4.926
 8977W        W75760   4.797   3.221   0.927
 8978W        W75761  43.302  34.919  14.916
 8979W        W75762  31.147  36.335  14.940
 8980W        W75763  16.779  32.447  12.353
 8981W        W75764  17.518   5.287   0.004
 8982W        W75765  32.213  43.697   0.421
 8983W        W75766  11.203   2.283   4.268
 8984W        W75767  36.521  14.332  11.043
 8985W        W75768  42.978  27.831  13.961
 8986W        W75769  21.534  22.648   3.518
 8987W        W75770  23.540  20.845   2.305
 8988W        W75771  10.740  43.474  10.624
 8989W        W75772  17.692  21.487   0.272
 8990W        W75773  29.946  17.695  12.412
 8991W        W75774  17.953   3.739  12.233
 8992W        W75775  11.313  25.553  14.513
 8993W        W75776  42.180  28.153   1.280
 8994W        W75777  34.364  44.715  10.685
 8995W        W75778   4.022  13.232  13.462
 8996W        W75779  32.917  13.083   2.625
 8997W        W75780   7.451   4.825  11.575
 8998W        W75781  22.960  42.302   4.336
 8999W        W75782  36.650  33.340   2.743
 9000W        W75783  40.935  27.987  10.426
 9001W        W75784  19.729  39.080   4.898
 9002W        W75785  42.427  25.754  14.395
 9003W        W75786   8.250  13.169   3.765
 9004W        W75787  16.235  32.059  11.562
 9005W        W75788  18.030   8.423   4.607
 9006W        W75789  28.100  44.524   3.574
 9007W        W75790   9.880  33.013   3.685
 9008W        W75791  17.162  40.546   1.028
 9009W        W75792  32.942  20.267   2.615
 9010W        W75793  13.471  43.722  12.384
 9011W        W75794  11.335  32.871  10.663
 9012W        W75795  42.968  34.971   1.271
 9013W        W75796   4.454  44.530  13.315
 9014W        W75797   8.355  10.778  13.891
 9015W        W75798   4.556  26.512  12.112
 9016W        W75799   3.226  31.570  12.001
 9017W        W75800  23.864   3.813   3.687
 9018W        W75801  42.230  44.056   4.038
 9019W        W75802  39.568  33.198  13.916
 9020W        W75803   1.341  21.041   0.480
 9021W        W75804  10.582  38.007   4.211
 9022W        W75805  18.222  43.581   2.764
 9023W        W75806  18.257  34.214   0.491
 9024W        W75807  31.580  16.353  12.545
 9025W        W75808  17.449  25.503  10.556
 9026W        W75809  33.177   2.918   0.816
 9027W        W75810  40.848  23.307  14.007
 9028W        W75811  24.123  32.718   0.936
 9029W        W75812   8.665  30.485   3.255
 9030W        W75813   1.287  13.228   1.398
 9031W        W75814  43.265  10.359  14.388
 9032W        W75815  26.606  43.804   3.096
 9033W        W75816  18.478  25.384  10.473
 9034W        W75817  13.265  22.071  14.034
 9035W        W75818  33.255  28.922  12.161
 9036W        W75819  17.977   6.390   3.594
 9037W        W75820  28.892  11.133  12.845
 9038W        W75821   7.822  13.839  12.050
 9039W        W75822  44.510  36.919  11.104
 9040W        W75823  30.530  18.590   0.864
 9041W        W75824  24.186  42.738  12.806
 9042W        W75825  42.441  37.301   0.795
 9043W        W75826  33.242  15.591   1.377
 9044W        W75827  33.076  41.449   0.847
 9045W        W75828  28.748  12.334  14.531
 9046W        W75829  31.952  37.539   1.850
 9047W        W75830  42.037  21.226  14.584
 9048W        W75831  16.631  38.418   2.446
 9049W        W75832  11.132  14.341  13.073
 9050W        W75833  10.586  20.402  14.369
 9051W        W75834  43.937   9.383   3.216
 9052W        W75835   6.487   9.925  14.046
 9053W        W75836  25.806  31.324  11.223
 9054W        W75837   2.286  15.637  13.391
 9055W        W75838   0.697  27.084  11.288
 9056W        W75839  31.803  36.368  12.904
 9057W        W75840  22.977  12.230  12.499
 9058W        W75841  21.216  21.303  10.630
 9059W        W75842  17.321  36.266   3.269
 9060W        W75843  22.103  44.258   2.803
 9061W        W75844  20.159  21.361  13.421
 9062W        W75845  41.975  24.587  13.943
 9063W        W75846  25.088  32.063  14.687
 9064W        W75847  17.630  25.690  14.322
 9065W        W75848  13.245  42.522   2.568
 9066W        W75849   8.151  39.422   2.211
 9067W        W75850   8.927  16.260   3.358
 9068W        W75851  24.187  18.696   2.437
 9069W        W75852  10.154  23.933  11.236
 9070W        W75853  44.316   8.532  14.247
 9071W        W75854   4.202   4.645  14.201
 9072W        W75855  25.982  37.242  12.569
 9073W        W75856  31.372  19.259   1.914
 9074W        W75857  16.005  43.945  12.975
 9075W        W75858  35.321   7.276   2.165
 9076W        W75859  32.209   8.306  10.755
 9077W        W75860  17.129  32.837   2.318
 9078W        W75861  18.088  42.969   4.971
 9079W        W75862  20.518  24.966  12.860
 9080W        W75863  28.208  30.925  14.992
 9081W        W75864   8.884  12.109  13.165
 9082W        W75865   2.281  38.045  13.023
 9083W        W75866  10.572   1.905   0.039
 9084W        W75867   5.472  17.595  14.401
 9085W        W75868  36.280  14.395   2.494
 9086W        W75869  39.935  20.708   2.717
 9087W        W75870   7.655   5.317  11.953
 9088W        W75871  44.701   8.720   3.652
 9089W        W75872  21.319  41.516  12.316
 9090W        W75873  39.794  35.177  10.747
 9091W        W75874  33.509  14.759   2.446
 9092W        W75875   6.964  25.227   3.168
 9093W        W75876  23.521  26.719  11.873
 9094W        W75877   6.988   9.320  10.670
 9095W        W75878  15.068  24.740   0.409
 9096W        W75879   9.388  14.251   2.526
 9097W        W75880   8.719   6.831   0.297
 9098W        W75881   4.803  34.506  10.575
 9099W        W75882  21.249   5.957   3.734
 9100W        W75883   0.079   0.232   0.771
 9101W        W75884  43.248  42.103   1.332
 9102W        W75885  30.549  16.241   4.277
 9103W        W75886  32.207  38.860  14.857
 9104W        W75887  30.140  17.604  10.592
 9105W        W75888  41.121  44.811   3.257
 9106W        W75889  19.083  38.513  11.260
 9107W        W75890  37.994  43.990  14.787
 9108W        W75891   4.120  17.960  13.140
 9109W        W75892  29.387  26.722  13.534
 9110W        W75893  20.127  36.801   4.226
 9111W        W75894   0.691  17.825   1.107
 9112W        W75895  24.937  33.634   2.676
 9113W        W75896   6.906   8.403   0.078
 9114W        W75897  28.221  28.509  12.079
 9115W        W75898  42.593   2.479   2.102
 9116W        W75899  33.864  17.599   4.775
 9117W        W75900  11.228  12.778   2.135
 9118W        W75901  38.296  33.142   0.923
 9119W        W75902  40.474  30.350  13.973
 9120W        W75903   7.381  19.511  13.767
 9121W        W75904   5.471  38.493  14.060
 9122W        W75905  15.293  25.634   3.677
 9123W        W75906  35.237  41.984  12.940
 9124W        W75907  28.200  16.182  10.563
 9125W        W75908  15.462  28.020   1.434
 9126W        W75909  11.255  36.915   0.192
 9127W        W75910   1.993  40.542  11.188
 9128W        W75911  24.157  41.374  11.317
 9129W        W75912   2.613   6.568   4.776
 9130W        W75913  28.750  20.490  12.239
 9131W        W75914   3.994  43.353  12.871
 9132W        W75915  26.917  10.511  14.380
 9133W        W75916   9.742  27.199   4.167
 9134W        W75917  30.206  13.272  13.905
 9135W        W75918   6.060  18.114   2.645
 9136W        W75919  43.213  17.698   0.247
 9137W        W75920  15.885   5.831   4.268
 9138W        W75921  24.930  33.157  14.961
 9139W        W75922  33.414  25.575   4.102
 9140W        W75923  17.280  16.698  14.770
 9141W        W75924  25.397  37.306   2.038
 9142W        W75925  40.275  22.283   1.825
 9143W        W75926  31.181  20.966   0.401
 9144W        W75927  10.597  28.313   0.881
 9145W        W75928   6.426  42.558  13.046
 9146W        W75929  32.007  11.160   2.675
 9147W        W75930  29.119   1.224   1.530
 9148W        W75931  35.941  31.992   3.868
 9149W        W75932  16.526  11.107  10.753
 9150W        W75933  40.932  41.072  11.559
 9151W        W75934   1.181   6.169  10.708
 9152W        W75935  10.327  21.107  13.271
 9153W        W75936  41.747  23.492   4.510
 9154W        W75937  12.620   8.814  11.359
 9155W        W75938  15.046  15.821  11.991
 9156W        W75939  20.337  10.448  12.952
 9157W        W75940  15.652  19.782   0.785
 9158W        W75941   4.324   0.582   2.644
 9159W        W75942  32.720  34.476   0.826
 9160W        W75943  18.079  44.008   3.585
 9161W        W75944  33.487  31.932  10.660
 9162W        W75945   8.260  41.467   2.960
 9163W        W75946  18.940   1.392   2.712
 9164W        W75947   2.259  34.163   1.822
 9165W        W75948   8.766  42.454  14.105
 9166W        W75949  29.552  28.394  10.640
 9167W        W75950  17.022  28.447   1.819
 9168W        W75951  36.781   8.258   0.101
 9169W        W75952  15.717  25.023  12.559
 9170W        W75953  32.849  41.212   1.271
 9171W        W75954  41.499  40.338   0.767
 9172W        W75955  36.265  22.751   0.287
 9173W        W75956  31.934  32.357   1.524
 9174W        W75957  36.914  35.350   4.639
 9175W        W75958   6.141   3.331  11.196
 9176W        W75959  44.375  27.888   4.891
 9177W        W75960  31.420  35.496  12.450
 9178W        W75961   6.800  12.625  11.555
 9179W        W75962  27.684   7.314   2.388
 9180W        W75963  14.392  20.563   4.704
 9181W        W75964   3.403  35.178   3.169
 9182W        W75965   5.930  33.570   0.068
 9183W        W75966   6.960  17.600   1.913
 9184W        W75967  26.976   4.200  14.323
 9185W        W75968  31.857  41.070   1.756
 9186W        W75969  14.614  27.352  14.918
 9187W        W75970  37.893  35.427   1.165
 9188W        W75971  23.726  31.501  14.536
 9189W        W75972  10.345  36.254   2.707
 9190W        W75973  42.842   1.866  12.860
 9191W        W75974  11.248   4.578   0.454
 9192W        W75975  20.556  35.120  12.795
 9193W        W75976   7.289  43.603  10.523
 9194W        W75977  36.461  12.839   4.574
 9195W        W75978   5.368  40.571   3.672
 9196W        W75979  20.979  35.102  13.150
 9197W        W75980  40.442   3.008  10.666
 9198W        W75981  29.603  38.816   3.662
 9199W        W75982  44.894  15.133   3.670
 9200W        W75983   6.175  36.085  14.355
 9201W        W75984  37.900  11.784  11.141
 9202W        W75985   7.162   8.716  14.478
 9203W        W75986  30.422  41.434   2.935
 9204W        W75987  25.345  18.744   0.052
 9205W        W75988  19.913  25.128   0.882
 9206W        W75989   0.334  37.833   4.492
 9207W        W75990   6.080  26.622  11.755
 9208W        W75991  42.458   9.328  14.774
 9209W        W75992   3.785   4.374   4.602
 9210W        W75993  22.974   5.713   4.121
 9211W        W75994  42.084  25.185   2.353
 9212W        W75995  19.125  30.570  13.415
 9213W        W75996  35.618  23.524  12.117
 9214W        W75997  27.979  14.547  11.564
 9215W        W75998  43.890  28.516  13.915
 9216W        W75999  29.631  44.109   5.024
 9217W        W76000  21.099  38.305  14.447
 9218W        W76001   9.247  43.380  11.010
 9219W        W76002  18.728  17.653  10.648
 9220W        W76003   9.752  39.399   2.748
 9221W        W76004   3.701  16.529   2.713
 9222W        W76005  43.035   3.605  14.887
 9223W        W76006  36.063   5.731  11.051
 9224W        W76007  35.493  17.656   4.019
 9225W        W76008  29.094  22.172   3.082
 9226W        W76009  25.098  41.233   3.074
 9227W        W76010  36.432  26.380   2.127
 9228W        W76011  12.814  29.235   4.658
 9229W        W76012  15.551  25.086   4.538
 9230W        W76013  38.328  12.640  14.820
 9231W        W76014  33.272  25.977  13.869
 9232W        W76015  23.630  29.160  13.486
 9233W        W76016  44.079  39.906  12.380
 9234W        W76017  10.360  12.179   2.115
 9235W        W76018  43.727  25.245  10.835
 9236W        W76019  32.821   4.332  11.578
 9237W        W76020  40.323  19.227   2.441
 9238W        W76021  37.121   1.259  13.657
 9239W        W76022  17.139  19.362  10.277
 9240W        W76023   0.600  24.277  13.375
 9241W        W76024   2.741   5.778   2.000
 9242W        W76025  38.821  38.805  14.255
 9243W        W76026  35.095  21.338   1.823
 9244W        W76027   0.096  35.235   3.112
 9245W        W76028  29.658   5.488  14.526
 9246W        W76029  24.015   6.702   3.713
 9247W        W76030   4.241  37.944   0.191
 9248W        W76031  26.452  23.237   0.239
 9249W        W76032   9.273   1.937  10.664
 9250W        W76033  22.998  14.531   2.850
 9251W        W76034  19.251  42.695   0.054
 9252W        W76035  14.697  29.441  14.478
 9253W        W76036  44.926   3.983   4.905
 9254W        W76037   2.106  25.841  11.230
 9255W        W76038  40.895  38.776  12.053
 9256W        W76039  14.031  33.373  12.689
 9257W        W76040   6.034  27.221  12.584
 9258W        W76041   7.941  21.549  11.576
 9259W        W76042  40.987  39.664  13.223
 9260W        W76043  39.525  19.006  14.348
 9261W        W76044  15.116   8.270   4.594
 9262W        W76045  36.114   0.732   0.674
 9263W        W76046   3.910  28.948   2.684
 9264W        W76047  24.739  12.274  14.778
 9265W        W76048  10.137  43.924  14.767
 9266W        W76049  40.468  26.519  10.466
 9267W        W76050  23.986   2.901  12.550
 9268W        W76051  26.731  16.760   1.448
 9269W        W76052  28.426  42.407  13.970
 9270W        W76053  15.805  42.352   3.763
 9271W        W76054   7.729  29.044   0.522
 9272W        W76055  13.235  33.684  12.076
 9273W        W76056   7.651   5.840  12.555
 9274W        W76057  20.025  17.519   4.553
 9275W        W76058  21.264  14.225  12.974
 9276W        W76059  17.232  35.285  12.035
 9277W        W76060  13.445  26.033  11.132
 9278W        W76061  12.265   4.456  11.613
 9279W        W76062   0.293  19.185   1.888
 9280W        W76063  31.419  34.071   4.746
 9281W        W76064   3.694  14.116  12.374
 9282W        W76065  39.997  40.218  11.547
 9283W        W76066  38.623  31.658   1.349
 9284W        W76067  16.098  39.509   2.851
 9285W        W76068  16.577  41.072   4.165
 9286W        W76069  35.661  38.564  12.955
 9287W        W76070  18.796  25.985   1.746
 9288W        W76071  44.789  17.769  11.583
 9289W        W76072  38.377  29.660  12.597
 9290W        W76073  15.783  22.314  10.319
 9291W        W76074  40.268  36.098  14.883
 9292W        W76075  15.736   3.810  11.406
 9293W        W76076  39.783  41.455   2.330
 9294W        W76077   4.716  13.602   2.676
 9295W        W76078  21.072  13.363   1.321
 9296W        W76079  42.035  43.229   3.883
 9297W        W76080  16.328  22.602   3.321
 9298W        W76081  39.588  17.166   3.873
 9299W        W76082  14.822  29.023  11.621
 9300W        W76083   8.075  38.724  11.073
 9301W        W76084  26.744  32.846   5.096
 9302W        W76085   3.295  34.607  13.293
 9303W        W76086  35.969  13.740  14.748
 9304W        W76087  19.562  38.949   1.719
 9305W        W76088  22.751   6.395  11.182
 9306W        W76089  23.490  14.580  11.300
 9307W        W76090  39.093  30.996   4.101
 9308W        W76091  12.176  29.123   4.086
 9309W        W76092  28.921  16.687   4.390
 9310W        W76093  39.913  26.721  13.481
 9311W        W76094  35.861  41.285   1.509
 9312W        W76095   5.989  40.928  14.778
 9313W        W76096  18.308  30.943   0.793
 9314W        W76097  39.817  19.475   1.404
 9315W        W76098  31.507  31.926  14.435
 9316W        W76099  35.363  41.906   0.455
 9317W        W76100  28.319  27.560   9.935
 9318W        W76101  39.375   5.850   0.947
 9319W        W76102  38.545  21.102  12.861
 9320W        W76103  44.311  17.745   0.488
 9321W        W76104   7.825  37.377   1.328
 9322W        W76105  19.731  11.302   0.361
 9323W        W76106  20.208  41.203   3.212
 9324W        W76107   8.357  37.119   2.649
 9325W        W76108  33.179  29.714  11.163
 9326W        W76109  37.898  44.659   4.296
 9327W        W76110   6.175   2.423  12.865
 9328W        W76111  37.546  14.103  11.117
 9329W        W76112   5.697  37.386   1.732
 9330W        W76113  30.542   2.746  10.678
 9331W        W76114   9.122  35.530  12.519
 9332W        W76115  28.511  43.014   1.337
 9333W        W76116   6.664  40.506  11.404
 9334W        W76117   6.134  19.303   0.032
 9335W        W76118  13.144  24.762   4.258
 9336W        W76119   8.247   9.140   2.179
 9337W        W76120  10.244   9.703   2.298
 9338W        W76121  25.191  44.741   0.854
 9339W        W76122  35.364   0.311   3.605
 9340W        W76123  26.934  18.417  10.653
 9341W        W76124  31.267   5.487  13.474
 9342W        W76125  39.979  38.416   2.774
 9343W        W76126  37.925  44.173   0.749
 9344W        W76127  41.250  33.046   3.192
 9345W        W76128  40.566  40.741  14.658
 9346W        W76129   3.397  41.321  14.351
 9347W        W76130  38.059   0.544  11.893
 9348W        W76131  35.647  38.589   0.937
 9349W        W76132   9.338  26.569   2.193
 9350W        W76133  24.949  20.735   1.388
 9351W        W76134  27.568  11.930  13.026
 9352W        W76135  43.773  32.624   3.237
 9353W        W76136  24.721  18.003  10.676
 9354W        W76137  24.962  18.415  14.929
 9355W        W76138   5.929  39.366  12.978
 9356W        W76139  41.908  30.760  12.431
 9357W        W76140  32.969  30.215  13.095
 9358W        W76141  10.710  10.591   2.312
 9359W        W76142  32.420  16.704   3.273
 9360W        W76143  11.280  11.705   0.268
 9361W        W76144  41.916  27.398  13.827
 9362W        W76145  24.436  24.487  11.140
 9363W        W76146  15.648   0.975   2.309
 9364W        W76147  16.126  44.379   0.570
 9365W        W76148  44.893  32.131   0.448
 9366W        W76149   4.285  24.023   2.239
 9367W        W76150   1.327  37.069  11.991
 9368W        W76151  34.397  27.220   4.203
 9369W        W76152  40.046  27.577  14.570
 9370W        W76153  25.644   4.325   2.404
 9371W        W76154  35.438  38.488   2.910
 9372W        W76155  18.304  34.468   3.090
 9373W        W76156  35.856  34.303  13.632
 9374W        W76157   7.352  11.226  11.391
 9375W        W76158  30.574  31.607   4.562
 9376W        W76159   8.709   2.968  14.300
 9377W        W76160  18.605  30.148   0.334
 9378W        W76161  39.015  24.498  12.945
 9379W        W76162   0.474  27.405   3.622
 9380W        W76163   9.129   6.586   0.439
 9381W        W76164  37.559  23.755  12.687
 9382W        W76165  11.189  29.052   3.822
 9383W        W76166   0.928  15.729   0.223
 9384W        W76167   5.243  38.937  11.341
 9385W        W76168  40.603   2.755  12.431
 9386W        W76169  11.585  34.510  14.922
 9387W        W76170  37.287  20.023  12.577
 9388W        W76171   0.865  16.938  14.372
 9389W        W76172  17.347  29.174   0.623
 9390W        W76173  17.894   5.753   2.105
 9391W        W76174  28.943  28.598  13.561
 9392W        W76175  27.841   9.896   2.334
 9393W        W76176  44.190  35.071   2.778
 9394W        W76177  10.094  17.134  11.551
 9395W        W76178  25.617  44.390  11.422
 9396W        W76179  42.074  40.377  14.948
 9397W        W76180   2.337   3.808  13.392
 9398W        W76181  22.319  16.185   1.247
 9399W        W76182  10.404  38.315   3.308
 9400W        W76183  18.148   2.801   4.253
 9401W        W76184   4.408  42.069   0.399
 9402W        W76185  44.420  38.254  11.561
 9403W        W76186   0.939  13.699  10.668
 9404W        W76187  15.531   9.340  14.250
 9405W        W76188  13.160  21.420   0.738
 9406W        W76189  39.564  40.761   0.011
 9407W        W76190  29.959  37.825   3.780
 9408W        W76191  21.727  39.755  11.686
 9409W        W76192  15.644   0.391  12.942
 9410W        W76193  44.700  35.090   5.007
 9411W        W76194  31.576  40.902   1.313
 9412W        W76195   6.928  35.905  11.505
 9413W        W76196  14.615  13.304  10.746
 9414W        W76197  34.955  15.286   4.555
 9415W        W76198  25.011  15.688  10.633
 9416W        W76199  16.895  21.215  10.251
 9417W        W76200  21.905  40.518  12.045
 9418W        W76201  18.795  32.455   0.003
 9419W        W76202  36.531  34.785  11.209
 9420W        W76203  18.307   5.582  12.204
 9421W        W76204  23.722   3.954   0.246
 9422W        W76205  30.390   8.863  14.452
 9423W        W76206   8.486  35.921   4.555
 9424W        W76207  34.819  33.897   1.812
 9425W        W76208  33.529  31.119  14.522
 9426W        W76209  33.308  37.737  13.443
 9427W        W76210  33.291  43.453   3.211
 9428W        W76211  12.113  24.211   2.323
 9429W        W76212  44.576  10.211  11.592
 9430W        W76213   7.972   9.495  10.736
 9431W        W76214  22.647  31.138  13.126
 9432W        W76215  17.796  17.330  13.492
 9433W        W76216  37.977   9.342   3.948
 9434W        W76217  40.321   8.765   3.773
 9435W        W76218  44.747   3.281   4.271
 9436W        W76219  38.954  10.401   4.125
 9437W        W76220  10.958  30.149   3.110
 9438W        W76221  16.246  20.045   0.729
 9439W        W76222  11.683   6.093   3.177
 9440W        W76223   8.427  37.079   4.157
 9441W        W76224   8.623  14.588   2.734
 9442W        W76225  10.619  17.822   0.085
 9443W        W76226   2.299  26.215  14.369
 9444W        W76227  30.623  28.941   2.719
 9445W        W76228  32.499  28.429  11.202
 9446W        W76229  44.754  19.368  10.407
 9447W        W76230  38.927  16.433  10.054
 9448W        W76231  11.607  33.948   0.496
 9449W        W76232  14.854  41.022   3.722
 9450W        W76233  42.390  38.679  13.873
 9451W        W76234   6.932  19.096   2.768
 9452W        W76235  33.716  44.408  14.907
 9453W        W76236  28.558  37.010   2.480
 9454W        W76237  23.249  22.558  10.393
 9455W        W76238  35.926   8.423   5.074
 9456W        W76239  24.768   8.857   4.322
 9457W        W76240  40.097   8.960  10.331
 9458W        W76241  17.846  16.728  11.173
 9459W        W76242   1.772  23.891   0.164
 9460W        W76243  39.704  29.910  11.942
 9461W        W76244   3.449   8.127  14.275
 9462W        W76245   4.185  34.122  12.072
 9463W        W76246  10.742  18.703   4.045
 9464W        W76247  30.795   1.480   2.292
 9465W        W76248   6.101  31.336   4.614
 9466W        W76249  40.250  42.825  11.469
 9467W        W76250   7.227  32.079   3.207
 9468W        W76251   9.232  30.494   2.641
 9469W        W76252  11.411  37.099   1.403
 9470W        W76253  20.395  13.696   1.797
 9471W        W76254  32.500  34.079   3.337
 9472W        W76255  39.891  41.917  11.670
 9473W        W76256  44.020  42.326  12.571
 9474W        W76257   7.779  28.976   4.335
 9475W        W76258  38.651  13.851  12.028
 9476W        W76259  33.864  35.946  14.215
 9477W        W76260  39.824  37.996   4.625
 9478W        W76261  41.195  33.123  13.378
 9479W        W76262  25.015   2.759   2.686
 9480W        W76263  21.827  29.882   4.660
 9481W        W76264  26.065  32.132  14.018
 9482W        W76265  13.183  20.645   1.321
 9483W        W76266  42.224  41.407  12.539
 9484W        W76267   4.034   4.888   4.431
 9485W        W76268  32.504  32.164   4.574
 9486W        W76269  13.332  26.654  10.098
 9487W        W76270  22.440  42.967   1.472
 9488W        W76271  41.860  37.514  13.573
 9489W        W76272  13.273   1.281  13.339
 9490W        W76273  26.762  10.560   1.681
 9491W        W76274   0.063  11.372   0.827
 9492W        W76275   9.388  36.059   9.933
 9493W        W76276   3.461  42.020   2.283
 9494W        W76277   1.747   5.199  12.512
 9495W        W76278  43.479  24.255  12.068
 9496W        W76279  29.902   7.739   2.822
 9497W        W76280  18.178  24.439  10.598
 9498W        W76281   7.130  39.935  12.189
 9499W        W76282   0.733  40.600  11.011
 9500W        W76283   4.320  38.388   4.611
 9501W        W76284  41.953  29.852   2.272
 9502W        W76285  42.048  12.277   3.388
 9503W        W76286  17.632  17.601  12.151
 9504W        W76287  44.328  21.850   0.407
 9505W        W76288  39.525  37.226  13.032
 9506W        W76289  13.141   8.956   0.701
 9507W        W76290  21.673  18.798  14.315
 9508W        W76291  32.712  11.707  13.416
 9509W        W76292  32.928  26.271   1.783
 9510W        W76293  32.439  29.367  12.831
 9511W        W76294  29.432   2.255   2.737
 9512W        W76295  41.373  39.024   4.109
 9513W        W76296   4.283  25.630  10.777
 9514W        W76297  14.099  15.936   1.939
 9515W        W76298  36.908   0.817  12.285
 9516W        W76299  32.594  20.358  13.058
 9517W        W76300  29.768  20.066   5.141
 9518W        W76301  32.428  37.209  14.236
 9519W        W76302  19.168  26.790   0.691
 9520W        W76303   4.185  34.677  13.603
 9521W        W76304   9.883  41.970   0.366
 9522W        W76305   3.410  25.229   4.445
 9523W        W76306   1.806   9.634  14.466
 9524W        W76307  19.060   3.364   0.031
 9525W        W76308   9.053  41.660  11.835
 9526W        W76309   8.657   5.076  11.151
 9527W        W76310   8.275   2.142   4.376
 9528W        W76311  33.875  34.608  13.299
 9529W        W76312  42.226  33.626   4.546
 9530W        W76313  30.467  15.671   0.661
 9531W        W76314  14.389  44.937  10.478
 9532W        W76315   8.788   1.423   0.460
 9533W        W76316  16.976  36.359   0.583
 9534W        W76317  14.623  24.512  14.695
 9535W        W76318  17.561  12.768   0.400
 9536W        W76319   2.735  28.065  14.926
 9537W        W76320  13.153  12.016   3.589
 9538W        W76321  31.039  35.667   3.134
 9539W        W76322  32.909  14.883   2.708
 9540W        W76323  38.024  37.930   3.613
 9541W        W76324  35.342  43.086  11.092
 9542W        W76325  31.959   1.351  12.924
 9543W        W76326  30.170  28.546   0.419
 9544W        W76327  33.147   7.709   0.602
 9545W        W76328  16.311  35.468   3.150
 9546W        W76329  34.973   5.018  13.845
 9547W        W76330  37.045  37.258  12.851
 9548W        W76331  38.483  43.705   2.216
 9549W        W76332   9.359  32.960  13.914
 9550W        W76333  42.712  10.679   3.364
 9551W        W76334   2.894  17.081   4.281
 9552W        W76335  24.444  38.575   1.982
 9553W        W76336  35.471  21.562   1.347
 9554W        W76337  24.427  12.348   4.706
 9555W        W76338   5.738  36.007  10.813
 9556W        W76339  25.236  14.436   4.168
 9557W        W76340  13.048  15.600  13.843
 9558W        W76341  43.490   3.809  11.034
 9559W        W76342  38.929  43.970   3.483
 9560W        W76343   2.184  22.215  14.556
 9561W        W76344  32.471  15.297   3.376
 9562W        W76345  38.483  37.490  11.144
 9563W        W76346  37.559  35.827   2.688
 9564W        W76347  38.905   0.022  14.526
 9565W        W76348  36.606  43.648  14.859
 9566W        W76349   6.288  36.031  13.821
 9567W        W76350  38.829  17.275   0.912
 9568W        W76351  13.743  39.299  11.570
 9569W        W76352  13.330  14.597   4.901
 9570W        W76353  30.072   2.601   1.388
 9571W        W76354  29.033  19.882   3.144
 9572W        W76355  31.455   4.316   4.696
 9573W        W76356  13.684  43.058   1.823
 9574W        W76357  26.457  23.826   4.564
 9575W        W76358  22.703  21.503   3.475
 9576W        W76359  30.403  29.594  14.317
 9577W        W76360   1.317  32.640  12.988
 9578W        W76361  21.031   6.786   1.732
 9579W        W76362  30.122  36.582   4.701
 9580W        W76363  43.353  33.099  10.972
 9581W        W76364   4.771  44.368   5.150
 9582W        W76365  32.096   5.201  13.515
 9583W        W76366  30.690  43.274  14.867
 9584W        W76367   0.900  19.464  13.554
 9585W        W76368  10.353  31.841   1.682
 9586W        W76369  15.113  32.301  12.911
 9587W        W76370  39.904  29.944  14.243
 9588W        W76371  11.805  39.749  14.936
 9589W        W76372  41.314  40.928  13.762
 9590W        W76373   3.895  19.716  10.594
 9591W        W76374   1.319  28.261   3.208
 9592W        W76375  33.200  11.449   0.479
 9593W        W76376  32.122  21.815   0.475
 9594W        W76377  35.054  11.417  13.404
 9595W        W76378  25.750  34.388   4.036
 9596W        W76379  30.696  21.178  12.722
 9597W        W76380  19.952  38.429  10.729
 9598W        W76381  17.387  16.243   0.432
 9599W        W76382  44.871  12.150  13.432
 9600W        W76383  14.296  42.523   3.052
 9601W        W76384  17.312  33.380   1.733
 9602W        W76385  21.234  15.561  14.312
 9603W        W76386  37.569  37.777   0.362
 9604W        W76387  41.599  33.601  10.985
 9605W        W76388   9.777   2.346   0.540
 9606W        W76389   0.885  17.576   0.244
 9607W        W76390  12.925  32.341   2.280
 9608W        W76391  39.768  20.525  13.535
 9609W        W76392   2.896  33.063   3.256
 9610W        W76393  22.104  32.533  11.081
 9611W        W76394  38.950  25.118   2.844
 9612W        W76395  42.615  41.970   0.020
 9613W        W76396  16.817  16.794   0.514
 9614W        W76397  31.471   5.622  11.319
 9615W        W76398  20.625  27.999   0.746
 9616W        W76399  19.516  32.537   1.254
 9617W        W76400  23.064   0.960  12.073
 9618W        W76401  29.028  21.279   2.737
 9619W        W76402   2.757  27.681   0.988
 9620W        W76403  12.907  38.134  13.330
 9621W        W76404  39.714  16.597  12.029
 9622W        W76405  22.836  32.526  14.369
 9623W        W76406  12.604  25.599  12.655
 9624W        W76407  23.306  19.925   1.823
 9625W        W76408  29.100  14.204  12.273
 9626W        W76409  35.740   4.041   4.169
 9627W        W76410  19.320   2.350  11.456
 9628W        W76411  27.522  14.877  14.805
 9629W        W76412   9.722  36.305   3.211
 9630W        W76413  21.392  15.095   4.773
 9631W        W76414  37.983  29.251  11.175
 9632W        W76415  19.211  26.819   3.091
 9633W        W76416   6.867  11.778   3.635
 9634W        W76417   9.259  34.823  13.316
 9635W        W76418  13.872  27.617  12.408
 9636W        W76419  16.106  32.953  11.983
 9637W        W76420  29.907  21.102   0.713
 9638W        W76421  31.807  36.797   2.810
 9639W        W76422   8.919  32.884  11.192
 9640W        W76423  43.238  38.022   0.520
 9641W        W76424  36.313  27.216  12.728
 9642W        W76425  35.846  36.140  12.490
 9643W        W76426  31.042  44.218   1.997
 9644W        W76427  11.448   6.405  10.239
 9645W        W76428  41.432  30.443  13.158
 9646W        W76429  32.994   0.793  11.017
 9647W        W76430  21.648  25.924   1.401
 9648W        W76431  26.659  24.485   0.471
 9649W        W76432  43.528  23.906  11.236
 9650W        W76433  22.298  17.754  10.545
 9651W        W76434  27.373  17.124  11.664
 9652W        W76435  25.535  39.009   1.268
 9653W        W76436   2.399  34.655  12.761
 9654W        W76437  17.040  11.556  14.851
 9655W        W76438  29.681   2.793   0.738
 9656W        W76439   9.824  22.664   0.865
 9657W        W76440  16.078   0.980  12.483
 9658W        W76441  37.331  33.415  12.594
 9659W        W76442  13.626   7.452   1.883
 9660W        W76443  17.655  23.049   3.202
 9661W        W76444  23.272  43.450  11.903
 9662W        W76445  38.770   8.252  12.108
 9663W        W76446  27.656  35.125  10.462
 9664W        W76447  40.004  13.009   2.653
 9665W        W76448  12.818  14.731   0.322
 9666W        W76449  18.998  33.927  11.570
 9667W        W76450  36.162  17.460  11.760
 9668W        W76451  37.415  44.463  11.690
 9669W        W76452   7.126  36.960   1.671
 9670W        W76453  16.883  18.610   0.843
 9671W        W76454   3.902   4.278   0.655
 9672W        W76455  31.980  10.193   0.964
 9673W        W76456  27.104  18.105  14.848
 9674W        W76457  34.634   7.289  12.999
 9675W        W76458   3.085  12.839  14.015
 9676W        W76459  31.603  44.921  10.734
 9677W        W76460  28.126  39.427   5.008
 9678W        W76461   5.064  14.315  11.470
 9679W        W76462  30.190  16.670   1.675
 9680W        W76463  44.123  15.052  14.249
 9681W        W76464  40.468  38.539   1.315
 9682W        W76465  35.650  27.462   4.035
 9683W        W76466   2.419  25.381   4.267
 9684W        W76467  17.089  27.912   2.398
 9685W        W76468  24.021   7.661   2.682
 9686W        W76469  26.601   3.021   2.794
 9687W        W76470  10.979   8.667  14.359
 9688W        W76471  32.557  42.677  10.665
 9689W        W76472  15.798   3.796  12.421
 9690W        W76473  41.879  42.273  13.005
 9691W        W76474  12.240  35.800  13.808
 9692W        W76475  16.693  30.010   4.077
 9693W        W76476   0.474   4.499   3.605
 9694W        W76477  34.135  18.235   0.997
 9695W        W76478  19.124  44.265   2.236
 9696W        W76479   1.964  27.466   4.185
 9697W        W76480  30.560  17.627   4.389
 9698W        W76481   6.703  35.460   0.381
 9699W        W76482  19.553  29.276  11.099
 9700W        W76483  28.929  43.434  14.377
 9701W        W76484  23.662  39.627   2.518
 9702W        W76485  22.936  16.092  12.230
 9703W        W76486  19.091   5.086  10.664
 9704W        W76487  37.065  43.937   0.763
 9705W        W76488   8.638  36.992  14.281
 9706W        W76489  24.565  25.051  13.988
 9707W        W76490  28.965   0.545  14.492
 9708W        W76491  32.220   7.474   1.868
 9709W        W76492   5.578  20.571   4.029
 9710W        W76493  19.756  24.502  14.858
 9711W        W76494  35.615  32.467   2.161
 9712W        W76495  36.595  11.646  10.988
 9713W        W76496  24.512  29.884   5.072
 9714W        W76497  11.395  26.711  12.810
 9715W        W76498   6.857  14.800   2.173
 9716W        W76499   8.291  23.492   0.415
 9717W        W76500  22.154  30.412   2.294
 9718W        W76501  24.747  10.436   1.794
 9719W        W76502  16.084  22.686   1.748
 9720W        W76503  39.467  40.415  13.454
 9721W        W76504  30.480   7.043  14.999
 9722W        W76505  22.142  43.702   1.649
 9723W        W76506  15.475   9.828   0.517
 9724W        W76507  18.002  40.766  13.004
 9725W        W76508  28.402   4.275  12.060
 9726W        W76509   3.218  10.425   2.128
 9727W        W76510   3.903  25.229   4.206
 9728W        W76511  23.064  37.053  14.902
 9729W        W76512  23.449   4.013  12.569
 9730W        W76513  12.195  13.576   4.379
 9731W        W76514  11.638  30.094  14.530
 9732W        W76515  30.971  14.011  14.962
 9733W        W76516  23.992  24.577   3.844
 9734W        W76517  14.097  37.843   3.082
 9735W        W76518  40.801  20.961   3.629
 9736W        W76519  29.690   3.932  12.346
 9737W        W76520  10.624  11.374  14.992
 9738W        W76521  27.010  10.716   4.775
 9739W        W76522   8.060  39.677   2.773
 9740W        W76523  18.550  34.023  10.675
 9741W        W76524   0.503   7.306   3.276
 9742W        W76525  36.712  26.018   1.386
 9743W        W76526   5.294  25.727   2.431
 9744W        W76527  36.936  41.456   2.231
 9745W        W76528  25.099  35.837   1.670
 9746W        W76529  26.613  34.091  13.087
 9747W        W76530  27.117  36.578  13.466
 9748W        W76531  27.066  26.308  13.887
 9749W        W76532  44.019   4.710  13.944
 9750W        W76533  13.080  41.300  13.529
 9751W        W76534  35.315  34.562   1.554
 9752W        W76535   2.962  28.713  12.023
 9753W        W76536  26.497  31.288   2.561
 9754W        W76537   0.298  43.342   0.531
 9755W        W76538  31.920  14.101  14.820
 9756W        W76539  15.079  32.060  14.947
 9757W        W76540   8.275   1.806   4.791
 9758W        W76541   4.949  18.654   1.129
 9759W        W76542  16.698  39.288   3.690
 9760W        W76543  36.023  18.453  11.955
 9761W        W76544  35.413  39.003   4.201
 9762W        W76545  30.506  19.760   3.073
 9763W        W76546   7.800  25.762   3.784
 9764W        W76547  34.122   4.349   9.961
 9765W        W76548   9.816   3.624  13.047
 9766W        W76549  29.929  29.555  14.479
 9767W        W76550   6.202  30.610   2.477
 9768W        W76551  31.008  10.350   0.248
 9769W        W76552  24.169  10.785   1.266
 9770W        W76553  33.552  33.652   4.089
 9771W        W76554  36.878  24.117   0.478
 9772W        W76555  24.865   7.828  11.265
 9773W        W76556  42.183   8.471   3.489
 9774W        W76557   7.718  25.134   2.809
 9775W        W76558  31.405  32.534   0.235
 9776W        W76559  38.370   6.927  14.793
 9777W        W76560  32.632  38.917   4.176
 9778W        W76561   6.246  26.135  13.606
 9779W        W76562  30.125   0.195   3.181
 9780W        W76563   8.118  27.168   4.795
 9781W        W76564  15.779  40.082   0.031
 9782W        W76565  12.219  30.123  11.556
 9783W        W76566  29.059   2.330   4.101
 9784W        W76567  19.990  10.377  11.216
 9785W        W76568   2.105  24.581   0.696
 9786W        W76569   7.173  10.009   1.516
 9787W        W76570   2.203  29.635   1.299
 9788W        W76571  13.684  24.058  13.387
 9789W        W76572   4.912  36.881   0.931
 9790W        W76573   6.868   1.280   0.336
 9791W        W76574   8.814  38.459  13.398
 9792W        W76575  38.749  13.873   4.060
 9793W        W76576  13.128  25.057  11.551
 9794W        W76577  33.041  35.478   0.941
 9795W        W76578  43.448  29.649  13.136
 9796W        W76579  37.288  37.973   2.206
 9797W        W76580  35.966  33.631  10.655
 9798W        W76581   8.025  10.283  10.287
 9799W        W76582  42.544  10.509  12.925
 9800W        W76583  23.079  38.625   2.748
 9801W        W76584  14.120   6.106   1.202
 9802W        W76585  22.630  15.458  10.165
 9803W        W76586  24.326  37.455   2.756
 9804W        W76587  24.722  39.150   4.110
 9805W        W76588   3.319  40.088   1.023
 9806W        W76589  11.654  24.221   0.383
 9807W        W76590   3.262  19.114   3.253
 9808W        W76591  31.066  22.123  11.663
 9809W        W76592  34.804  41.599  11.340
 9810W        W76593  11.683  36.977  10.743
 9811W        W76594  42.894  41.556   3.170
 9812W        W76595   6.393  44.282   0.327
 9813W        W76596  23.749   1.841  12.490
 9814W        W76597  10.277  39.988   1.504
 9815W        W76598  10.735   9.947  14.915
 9816W        W76599  40.717  13.690   1.893
 9817W        W76600  44.341  10.312  11.145
 9818W        W76601   0.508   2.216  14.781
 9819W        W76602  40.427  17.147  10.591
 9820W        W76603  12.918   5.991  13.715
 9821W        W76604  31.412  24.626  12.638
 9822W        W76605   2.794  26.530   1.362
 9823W        W76606  25.990  41.624  11.184
 9824W        W76607   6.278  38.026   1.726
 9825W        W76608  34.567  35.536   3.264
 9826W        W76609  15.924  41.830  12.355
 9827W        W76610   3.259   9.294  14.882
 9828W        W76611  14.135  42.246   1.773
 9829W        W76612  24.573  22.921   1.284
 9830W        W76613   6.442  29.514   1.704
 9831W        W76614   5.882  16.124   2.977
 9832W        W76615   9.172   2.171   2.604
 9833W        W76616  24.658  26.336  12.894
 9834W        W76617  21.758  18.069  12.398
 9835W        W76618  44.101   4.953  13.475
 9836W        W76619  35.163  35.316   1.006
 9837W        W76620  11.150  31.898   2.132
 9838W        W76621   7.432  19.454  14.948
 9839W        W76622  43.541  35.453   2.658
 9840W        W76623  12.733  29.059  11.192
 9841W        W76624   0.368  38.601   1.781
 9842W        W76625  20.130  34.285   1.038
 9843W        W76626  33.648   4.124   4.516
 9844W        W76627   2.453  29.451  11.106
 9845W        W76628  23.444  24.705  13.535
 9846W        W76629  17.960  24.037   0.959
 9847W        W76630  42.238  25.652   3.292
 9848W        W76631  39.918  32.983  12.916
 9849W        W76632  18.016  10.199   4.416
 9850W        W76633   8.590  14.787   0.749
 9851W        W76634  11.351  41.700  10.569
 9852W        W76635  44.484   9.744   0.479
 9853W        W76636  27.384  11.845   3.291
 9854W        W76637  40.039  27.787   3.604
 9855W        W76638   9.146  41.821   4.114
 9856W        W76639  30.426   5.401   2.337
 9857W        W76640  39.841   4.793  14.138
 9858W        W76641  34.472  36.398   1.439
 9859W        W76642  34.394  34.835   3.286
 9860W        W76643   4.713   0.543   2.000
 9861W        W76644   8.234  24.484   3.195
 9862W        W76645  30.380  34.490  12.358
 9863W        W76646  17.898   1.427   2.560
 9864W        W76647  42.443  43.060   4.166
 9865W        W76648  16.348  28.477   4.138
 9866W        W76649  41.343  12.572   3.556
 9867W        W76650  15.295   2.896  10.555
 9868W        W76651   3.906  25.661   1.768
 9869W        W76652  34.790  37.898  10.771
 9870W        W76653  34.896  23.707   2.336
 9871W        W76654  27.752  36.342   3.333
 9872W        W76655   6.188  44.770   1.760
 9873W        W76656  29.709  39.831  11.689
 9874W        W76657   9.317   9.792  11.895
 9875W        W76658  33.391  35.125   0.824
 9876W        W76659  14.830  11.359  11.710
 9877W        W76660  39.452  39.020  12.513
 9878W        W76661  18.521  16.821  13.157
 9879W        W76662  21.040  30.551  14.383
 9880W        W76663   4.335  34.149   1.170
 9881W        W76664  22.190  28.821   2.304
 9882W        W76665  19.730  41.342   1.218
 9883W        W76666  23.628   3.427   1.797
 9884W        W76667  26.997  31.924   1.344
 9885W        W76668  12.677  40.661  14.301
 9886W        W76669  34.378  21.613  11.533
 9887W        W76670  11.152   8.656   0.424
 9888W        W76671  22.066  41.069   4.419
 9889W        W76672  28.216  43.383  12.581
 9890W        W76673  40.929   0.100   2.795
 9891W        W76674  14.299  34.081   3.751
 9892W        W76675  44.476  20.737  12.505
 9893W        W76676  15.331  17.998  14.217
 9894W        W76677  23.011  14.740   0.290
 9895W        W76678  37.962   7.699   3.256
 9896W        W76679  14.394  13.965  11.124
 9897W        W76680  12.690   9.323  14.544
 9898W        W76681  41.715  22.002   3.622
 9899W        W76682  15.829   7.869   0.340
 9900W        W76683  33.454  16.367   1.849
 9901W        W76684  32.091  42.531  10.485
 9902W        W76685   2.793  44.948   3.095
 9903W        W76686  31.173  26.071  14.962
 9904W        W76687  28.858  44.403   0.813
 9905W        W76688  12.391  28.666   2.297
 9906W        W76689  24.118  10.701  11.539
 9907W        W76690  20.541  38.291   0.338
 9908W        W76691  35.809  37.816  14.984
 9909W        W76692  35.466  40.095   0.596
 9910W        W76693  10.259  27.260  10.153
 9911W        W76694  28.363   4.173  13.919
 9912W        W76695   4.291  12.848   0.216
 9913W        W76696  23.134  15.246   3.509
 9914W        W76697  39.027  20.333  13.569
 9915W        W76698   4.362   1.946  11.472
 9916W        W76699  12.493   6.686  12.037
 9917W        W76700  10.716  40.810   0.684
 9918W        W76701  14.563  14.304   4.218
 9919W        W76702  25.366  41.935  11.099
 9920W        W76703  32.064  43.933   3.447
 9921W        W76704   1.864  20.569   4.286
 9922W        W76705  35.584  38.530  14.386
 9923W        W76706   2.792  31.323   1.758
 9924W        W76707   1.643  12.714  10.995
 9925W        W76708  25.696  37.082   0.666
 9926W        W76709  15.214  38.911  10.280
 9927W        W76710  31.986  31.866   1.307
 9928W        W76711  18.671   6.778  14.822
 9929W        W76712  34.674  21.244   2.871
 9930W        W76713   3.917  20.114  13.774
 9931W        W76714   7.733   9.871  10.457
 9932W        W76715  24.593  23.106   4.938
 9933W        W76716  33.110  20.282  14.681
 9934W        W76717   4.621   2.980   1.351
 9935W        W76718  30.722  34.461   2.944
 9936W        W76719   8.570  27.036   0.534
 9937W        W76720   8.690  12.337   3.708
 9938W        W76721   9.063  26.084  12.217
 9939W        W76722  37.630   7.379  11.101
 9940W        W76723  13.460  13.278  12.053
 9941W        W76724  11.730  25.645  12.386
 9942W        W76725  26.369  40.799  13.383
 9943W        W76726  32.122   1.921   3.273
 9944W        W76727  42.744  37.972  11.307
 9945W        W76728   4.234   6.948   2.320
 9946W        W76729  15.723   7.624  13.352
 9947W        W76730   0.721  36.900   3.780
 9948W        W76731   4.241   1.302  14.857
 9949W        W76732  11.335  17.587  13.397
 9950W        W76733  29.480   4.747   2.750
 9951W        W76734  27.179  13.846  12.216
 9952W        W76735  27.760  32.017   5.170
 9953W        W76736   7.045  38.323  12.935
 9954W        W76737  29.262   4.623   0.539
 9955W        W76738  43.605  43.048  12.633
 9956W        W76739  25.148   1.345   0.245
 9957W        W76740  19.265  22.595   1.938
 9958W        W76741  43.214  17.514  14.494
 9959W        W76742  31.860  22.663  12.939
 9960W        W76743  22.139  21.842   2.673
 9961W        W76744  18.252  13.735   3.699
 9962W        W76745  11.539   7.245  12.493
 9963W        W76746  32.604  22.408  10.766
 9964W        W76747  15.238  16.835   1.953
 9965W        W76748   6.665   7.957   0.162
 9966W        W76749  24.763  24.865  10.264
 9967W        W76750   9.604   6.410  12.031
 9968W        W76751  28.548  14.999   0.808
 9969W        W76752  17.172   8.434   0.368
 9970W        W76753  37.104  41.356  12.884
 9971W        W76754  18.793  28.667   4.043
 9972W        W76755  34.576  43.765   4.632
 9973W        W76756   9.451  21.720   2.318
 9974W        W76757  16.592  28.570  14.524
 9975W        W76758  21.065  13.298   2.378
 9976W        W76759  37.572  33.406  10.105
 9977W        W76760  30.683  41.155  14.130
 9978W        W76761  24.158   0.293   4.467
 9979W        W76762  23.516  28.029  11.566
 9980W        W76763  34.297  28.093   0.174
 9981W        W76764  17.558  30.700   3.627
 9982W        W76765  34.118  23.507   1.788
 9983W        W76766  33.974   4.592  10.817
 9984W        W76767  13.448  33.269  11.850
 9985W        W76768  12.906  24.978  14.742
 9986W        W76769  15.175  33.555   0.407
 9987W        W76770  20.823  21.290   1.480
 9988W        W76771  10.399  16.082   4.973
 9989W        W76772   3.505  17.067  12.048
 9990W        W76773  30.660  35.985  11.158
 9991W        W76774  38.509   0.832   3.051
 9992W        W76775  30.265   8.160  13.299
 9993W        W76776   1.761  10.983   0.917
 9994W        W76777  38.486  36.100   1.277
 9995W        W76778  44.756   3.796  14.560
 9996W        W76779  17.100  10.896  13.567
 9997W        W76780  22.493  26.905   0.262
 9998W        W76781  29.320  17.968   1.084
 9999W        W76782  39.337   6.989  12.657
10000W        W76783  10.662  24.043  13.685
10001W        W76784   4.070  30.218  10.795
10002W        W76785  24.394  35.892  12.415
10003W        W76786  40.280   0.341  12.401
10004W        W76787  19.451  33.781  14.751
10005W        W76788  34.047   0.461   4.025
10006W        W76789  14.840  35.283   5.269
10007W        W76790  36.492  14.431  11.540
10008W        W76791  44.315  25.933   0.360
10009W        W76792   0.296  24.050   2.382
10010W        W76793  22.491  16.107   1.855
10011W        W76794  36.331  18.224   2.753
10012W        W76795  12.733  11.393  13.345
10013W        W76796  18.872  26.211   2.229
10014W        W76797  38.805   3.911   4.025
10015W        W76798  18.560  42.963  13.771
10016W        W76799  30.519  16.421  11.664
10017W        W76800  17.770  13.210   2.338
10018W        W76801  15.792   0.025  11.327
10019W        W76802  27.438   4.469   2.166
10020W        W76803  31.561  29.641   4.489
10021W        W76804  12.821  29.171   0.757
10022W        W76805   2.738  15.120   2.327
10023W        W76806  17.325   7.926   0.474
10024W        W76807  18.526  30.886   3.626
10025W        W76808  36.933  41.461  14.443
10026W        W76809  20.951  30.200  11.554
10027W        W76810  20.630  29.426  12.517
10028W        W76811  34.110  40.905   0.230
10029W        W76812  11.647   1.848  14.747
10030W        W76813  27.925   0.312  13.399
10031W        W76814  27.902   5.170   0.562
10032W        W76815  35.811  12.216  13.069
10033W        W76816  28.496  39.951   3.210
10034W        W76817  15.490  44.353  11.893
10035W        W76818  34.377  12.853   4.245
10036W        W76819  35.205   1.962  12.036
10037W        W76820   2.739  27.116  10.642
10038W        W76821  14.343  30.105  14.977
10039W        W76822  32.479  16.269  13.580
10040W        W76823  31.554  15.751   4.786
10041W        W76824   3.503  27.805  14.331
10042W        W76825  16.659  11.204   1.343
10043W        W76826  22.145  25.580  13.166
10044W        W76827   2.588  13.868  12.451
10045W        W76828  15.267  43.551   2.579
10046W        W76829  16.854  26.803  10.214
10047W        W76830  10.290  13.110   0.569
10048W        W76831  15.759  37.973  13.165
10049W        W76832  26.733  39.116  14.834
10050W        W76833  29.345  37.511  13.476
10051W        W76834   6.280   5.299  11.405
10052W        W76835  30.459  40.886  12.134
10053W        W76836   8.014   5.393   2.786
10054W        W76837  22.191   1.809   0.671
10055W        W76838  43.133   3.583   3.877
10056W        W76839  10.901  36.027   0.739
10057W        W76840  16.500   4.265  12.439
10058W        W76841  42.601  18.776  14.932
10059W        W76842  28.523  20.970   0.051
10060W        W76843  42.057   9.711   2.173
10061W        W76844  31.401  17.312   2.821
10062W        W76845  19.329  32.859  13.408
10063W        W76846   0.458  25.538   3.790
10064W        W76847  40.100  26.700  14.842
10065W        W76848  35.167   3.484   4.634
10066W        W76849  10.662  36.770   3.587
10067W        W76850   4.455  38.958   1.957
10068W        W76851   0.399  18.153  13.441
10069W        W76852  26.505  25.611  12.135
10070W        W76853  13.759  33.110  14.394
10071W        W76854  21.518  25.887  10.628
10072W        W76855  38.492  15.926  14.967
10073W        W76856   0.669  28.138   2.066
10074W        W76857  43.940  27.609   1.768
10075W        W76858  31.804   8.988   0.340
10076W        W76859   3.984  15.682   0.684
10077W        W76860  40.671  25.713  13.074
10078W        W76861  19.085   1.926   3.872
10079W        W76862   0.441  32.136  11.629
10080W        W76863  25.544  18.209  12.744
10081W        W76864  17.193  11.784   2.603
10082W        W76865  31.097  35.305   4.080
10083W        W76866   8.300  22.721  13.797
10084W        W76867  22.596  33.770  13.741
10085W        W76868  16.911   8.785   2.223
10086W        W76869   3.987  13.835  13.667
10087W        W76870  23.990  41.217   1.743
10088W        W76871   5.609  23.766  14.971
10089W        W76872  17.295  14.049  14.807
10090W        W76873  38.925  28.055  14.550
10091W        W76874  20.803  27.710  14.212
10092W        W76875  40.394   2.762   4.246
10093W        W76876   8.912   7.431   3.221
10094W        W76877  16.591  32.528   2.284
10095W        W76878  12.800  37.056   1.432
10096W        W76879   4.390  27.862  13.375
10097W        W76880  28.710  34.977   3.235
10098W        W76881   2.580   8.326   1.174
10099W        W76882  37.329  44.347   5.061
10100W        W76883  31.107  38.433   4.107
10101W        W76884  38.266  26.190  12.048
10102W        W76885  26.947  28.420  13.226
10103W        W76886  13.645   5.519   4.999
10104W        W76887  16.008  42.894  12.574
10105W        W76888  14.884  10.209  13.481
10106W        W76889  14.130  20.769   1.494
10107W        W76890  21.174  31.598  10.657
10108W        W76891   8.704   2.260  12.241
10109W        W76892  19.942  22.995   2.076
10110W        W76893   9.867   9.325   3.754
10111W        W76894  44.195   2.902  13.844
10112W        W76895  20.634  13.304  10.701
10113W        W76896  14.660  39.524   1.754
10114W        W76897  13.192  42.127   2.914
10115W        W76898  38.106  31.862   0.833
10116W        W76899   6.956  25.878   3.681
10117W        W76900  19.458  35.130  13.493
10118W        W76901  18.052  15.571   1.623
10119W        W76902  12.499   3.316  11.218
10120W        W76903  35.891  27.438  12.092
10121W        W76904   1.253  29.663   4.554
10122W        W76905  34.331  27.606  10.381
10123W        W76906  38.803  29.021   0.262
10124W        W76907   3.849  36.566  11.088
10125W        W76908  33.808  26.707  10.927
10126W        W76909  27.442   6.681  11.117
10127W        W76910  34.594  37.145   4.591
10128W        W76911  43.514   0.044   3.257
10129W        W76912  30.732   4.223   2.792
10130W        W76913  22.670  40.407  10.922
10131W        W76914  28.097  31.075   3.838
10132W        W76915  22.620   4.266  14.422
10133W        W76916   0.299  40.177  13.506
10134W        W76917  16.725   1.454   0.198
10135W        W76918  20.265  28.270   3.976
10136W        W76919  37.006  10.481  10.132
10137W        W76920  30.511  23.334   3.422
10138W        W76921  10.116  36.147   2.246
10139W        W76922  38.731  39.868   4.644
10140W        W76923  44.990  38.518  12.124
10141W        W76924  32.349  43.967   4.572
10142W        W76925  27.130  21.247   4.463
10143W        W76926  15.380   1.345  12.122
10144W        W76927  18.481  14.310  11.986
10145W        W76928  20.492  33.497   2.469
10146W        W76929  29.480  12.670   0.279
10147W        W76930  23.552  31.017  11.514
10148W        W76931  20.635  41.866  10.747
10149W        W76932  43.497   6.657   4.927
10150W        W76933  39.189  22.999   0.284
10151W        W76934  37.855  41.354   2.168
10152W        W76935  13.070  38.895  11.169
10153W        W76936  15.092  29.146   3.557
10154W        W76937  13.097  43.384   0.359
10155W        W76938  43.578   0.847   2.675
10156W        W76939  11.853  27.029   0.697
10157W        W76940  21.351   6.284  13.916
10158W        W76941  40.068  13.710  13.967
10159W        W76942  19.699  29.746   2.373
10160W        W76943  26.472  37.325  11.686
10161W        W76944  39.045   8.395   0.811
10162W        W76945   0.751  13.767  12.874
10163W        W76946   5.800  37.118  13.892
10164W        W76947  12.656  43.106   1.850
10165W        W76948  12.852  17.541  11.181
10166W        W76949  23.999   3.485   0.197
10167W        W76950   5.974  23.478  12.066
10168W        W76951  29.529  16.956   1.156
10169W        W76952  44.462  16.521  13.999
10170W        W76953   7.340  13.596  12.020
10171W        W76954   0.852  21.297  10.742
10172W        W76955   7.149   5.794   4.424
10173W        W76956  14.039  14.285   3.640
10174W        W76957  19.933  21.697   1.252
10175W        W76958   1.672   0.531  13.442
10176W        W76959  37.923  27.628  13.841
10177W        W76960  39.341  29.084   2.908
10178W        W76961  44.989  21.235   3.342
10179W        W76962  15.229  28.556  11.233
10180W        W76963  36.212  18.624   4.268
10181W        W76964   7.778   9.399   5.593
10182W        W76965  36.984   2.258  12.841
10183W        W76966  27.425  24.632   1.190
10184W        W76967  16.830  16.743  11.611
10185W        W76968   5.502   8.195  12.238
10186W        W76969   2.738  13.154  11.936
10187W        W76970  36.849  26.095   3.357
10188W        W76971  27.958  11.163  14.471
10189W        W76972   6.195  11.210  10.874
10190W        W76973  26.487  44.819   0.299
10191W        W76974  32.415   8.059   3.132
10192W        W76975  21.756  10.461  12.037
10193W        W76976  16.351   0.844   0.793
10194W        W76977  12.791   3.408  13.914
10195W        W76978   9.869  34.086   1.411
10196W        W76979  36.438  17.238   2.285
10197W        W76980  15.579  19.697  13.020
10198W        W76981  17.705  22.474  14.987
10199W        W76982  10.409  34.533   2.139
10200W        W76983  15.042  32.357   1.409
10201W        W76984  14.624   9.704   3.292
10202W        W76985  23.360  10.064  14.413
10203W        W76986  28.144  10.209  14.916
10204W        W76987  32.460  27.415  13.396
10205W        W76988  31.915   8.410  10.329
10206W        W76989  27.825  43.932  13.299
10207W        W76990  15.063  25.614  12.901
10208W        W76991  21.819  10.581  14.997
10209W        W76992   0.236  29.309   3.787
10210W        W76993  12.503  23.558   3.236
10211W        W76994   8.191  36.631   4.071
10212W        W76995  18.151   8.769   1.420
10213W        W76996  21.757  20.196   0.780
10214W        W76997  43.069  37.212   4.866
10215W        W76998  35.911  36.327  12.002
10216W        W76999  20.951   1.413  11.481
10217W        W77000   6.774  44.302  12.129
10218W        W77001  10.672  21.078  14.104
10219W        W77002  20.862  28.953  12.627
10220W        W77003  27.600  32.557   0.307
10221W        W77004  29.643  20.675   4.546
10222W        W77005  25.689   6.468  11.087
10223W        W77006  11.194  17.950  13.012
10224W        W77007  38.855   1.504  10.415
10225W        W77008  18.017   7.774  12.989
10226W        W77009  35.080  39.410   0.240
10227W        W77010  15.364  13.624   1.843
10228W        W77011  18.238  17.630  13.444
10229W        W77012  31.403  12.117   4.448
10230W        W77013   4.286  16.059  12.615
10231W        W77014  21.647  14.473   9.675
10232W        W77015  40.330  40.307   3.595
10233W        W77016  18.585  24.230   2.593
10234W        W77017  23.594   8.197   4.855
10235W        W77018  10.326  31.525   4.408
10236W        W77019  19.569  23.881  13.898
10237W        W77020   5.621  17.593   0.276
10238W        W77021  29.962   6.688  10.785
10239W        W77022  44.421  23.675  11.294
10240W        W77023  23.315  37.356  13.035
10241W        W77024  15.864  21.972   1.232
10242W        W77025  39.436  10.942  14.925
10243W        W77026  30.203  19.893  14.822
10244W        W77027   6.470  30.542   4.231
10245W        W77028  31.528  31.668   4.440
10246W        W77029  19.955  37.795   2.848
10247W        W77030  10.393  35.316  13.060
10248W        W77031  19.557  21.255  14.378
10249W        W77032   5.985  29.432  13.757
10250W        W77033   5.196  39.440  14.388
10251W        W77034  34.153  42.353  13.838
10252W        W77035  31.382   7.651   0.559
10253W        W77036   4.931   6.652  13.945
10254W        W77037  25.351  43.734  14.480
10255W        W77038  38.568   5.081   0.212
10256W        W77039  12.316  38.438  13.954
10257W        W77040  34.525  28.934   2.282
10258W        W77041  29.388  42.900  14.596
10259W        W77042  26.084  20.411  13.969
10260W        W77043  19.333  13.258  13.896
10261W        W77044  35.042  29.614  14.715
10262W        W77045  38.583  15.055   2.219
10263W        W77046   5.368  27.064  12.058
10264W        W77047   7.428  17.355  11.193
10265W        W77048  26.852  44.685  13.147
10266W        W77049  39.555  20.653  11.596
10267W        W77050  13.396  11.179   4.319
10268W        W77051  22.967  12.913  12.000
10269W        W77052  22.267   6.943  12.891
10270W        W77053  26.172  24.119   1.776
10271W        W77054   4.655  21.522   4.356
10272W        W77055  17.163  37.802   4.584
10273W        W77056   8.684  10.981   4.638
10274W        W77057  30.086   7.084  14.325
10275W        W77058  43.337  22.157  13.040
10276W        W77059  30.907   9.246   2.208
10277W        W77060  14.611  44.036  10.484
10278W        W77061  44.737  26.016   4.163
10279W        W77062  26.834  19.071   2.406
10280W        W77063  33.096  42.883  11.235
10281W        W77064   3.885   1.752  12.975
10282W        W77065  11.107  32.064  12.614
10283W        W77066  30.319   5.412   1.235
10284W        W77067   6.081   6.959   2.293
10285W        W77068  17.836  31.547   2.410
10286W        W77069  38.653   3.294   2.340
10287W        W77070  44.773  24.753   3.141
10288W        W77071  12.114  28.370  14.877
10289W        W77072   4.640  25.413   4.785
10290W        W77073  33.712  22.622   2.090
10291W        W77074  10.817  13.593   4.470
10292W        W77075   6.701  35.830  11.055
10293W        W77076  39.953  35.163  12.888
10294W        W77077  17.260   4.550   4.511
10295W        W77078  33.543  35.174  13.968
10296W        W77079  31.740   4.241   2.555
10297W        W77080  14.865  20.035   2.895
10298W        W77081  15.843  43.793   3.759
10299W        W77082   5.203  26.622  12.385
10300W        W77083  15.779  24.513  12.699
10301W        W77084  18.254  38.776   1.460
10302W        W77085  42.303  10.611  11.616
10303W        W77086  41.554  14.643   1.404
10304W        W77087  22.372   2.572  12.534
10305W        W77088   4.242  28.808   0.877
10306W        W77089  16.533  11.684  14.831
10307W        W77090  29.530   2.141   4.065
10308W        W77091   3.341  32.924   1.170
10309W        W77092  36.318  28.243  13.083
10310W        W77093   2.376  28.974   3.803
10311W        W77094  33.000   2.553   1.440
10312W        W77095  10.696   8.807  12.359
10313W        W77096  15.157  20.124   3.313
10314W        W77097   6.382   7.406  12.925
10315W        W77098  23.214   2.644  14.050
10316W        W77099   5.069  42.861  13.322
10317W        W77100  25.682  22.826   0.839
10318W        W77101   3.772  16.765   4.717
10319W        W77102   6.215  44.706  14.616
10320W        W77103  16.080  20.031  12.163
10321W        W77104   0.254  41.415   2.739
10322W        W77105  17.184  27.038  10.689
10323W        W77106   5.331  13.218   0.273
10324W        W77107  13.742  19.549   2.600
10325W        W77108  14.281  12.456   4.859
10326W        W77109  10.925  27.062   2.751
10327W        W77110   2.255  15.177  14.371
10328W        W77111  23.602  14.623   0.913
10329W        W77112   2.886   3.474   1.442
10330W        W77113  16.798  16.049   1.734
10331W        W77114  41.164  32.802  10.742
10332W        W77115  28.472  16.153  11.596
10333W        W77116   9.394  23.493   1.821
10334W        W77117  42.324  42.715  12.027
10335W        W77118  26.533  36.747  11.530
10336W        W77119  36.341  37.408   2.822
10337W        W77120  28.162  36.326  13.914
10338W        W77121  30.402  24.713   1.049
10339W        W77122   9.701  30.099   3.729
10340W        W77123  34.728  40.276   1.748
10341W        W77124  37.962   5.917   2.891
10342W        W77125  30.885   4.687   4.159
10343W        W77126  39.670   0.715  10.373
10344W        W77127   4.797  31.993   4.166
10345W        W77128  16.754  44.383  13.912
10346W        W77129  30.666   7.902  12.016
10347W        W77130  41.988   7.757   0.223
10348W        W77131  14.220  14.590  12.495
10349W        W77132   0.254  16.839  11.848
10350W        W77133   2.465   4.312   3.186
10351W        W77134  23.569  16.155  14.232
10352W        W77135  11.780  39.935  11.798
10353W        W77136  36.005  27.428   3.249
10354W        W77137  29.487  40.420   4.537
10355W        W77138  42.974  42.425  13.848
10356W        W77139   0.061  17.074   1.224
10357W        W77140   1.896  33.622  12.636
10358W        W77141  24.238  35.149   3.706
10359W        W77142  21.580   6.303   2.292
10360W        W77143  10.056  17.079   2.260
10361W        W77144  22.546  13.226   3.513
10362W        W77145   7.561   8.622   5.137
10363W        W77146  35.922  34.648  14.093
10364W        W77147  29.617  41.743  13.000
10365W        W77148  10.851   7.628  11.933
10366W        W77149  38.827   0.460   3.380
10367W        W77150  16.760  43.260  10.706
10368W        W77151  43.948  28.975   2.186
10369W        W77152  15.196  31.809   0.524
10370W        W77153  15.608  32.507  12.044
10371W        W77154  41.537   3.234   3.399
10372W        W77155  33.867   2.950  14.067
10373W        W77156  33.398   9.765  13.903
10374W        W77157  13.842  19.595   1.798
10375W        W77158  10.692   5.431   4.517
10376W        W77159   0.021  12.653   4.566
10377W        W77160   4.479  37.007   4.531
10378W        W77161  25.718   2.881  12.630
10379W        W77162   4.491  31.239  14.163
10380W        W77163   8.898  14.894   3.670
10381W        W77164  25.086  25.705  12.406
10382W        W77165   9.186   0.260  11.389
10383W        W77166  22.512  44.501  12.347
10384W        W77167  18.383  17.651  14.334
10385W        W77168  10.356  18.159  13.138
10386W        W77169   3.905  29.196  11.510
10387W        W77170  15.227   9.745  13.481
10388W        W77171  33.451   1.553   0.964
10389W        W77172  40.356  30.935   0.638
10390W        W77173  10.331  32.424  14.452
10391W        W77174  22.201   0.755  12.381
10392W        W77175  41.407  37.385  13.350
10393W        W77176  16.759  21.611  13.906
10394W        W77177  20.117  12.279   2.807
10395W        W77178  11.940  42.955   0.693
10396W        W77179  32.158  42.685  12.184
10397W        W77180  14.839  30.196  14.788
10398W        W77181  37.621  15.106  12.230
10399W        W77182  43.584   6.892   2.385
10400W        W77183  39.194  42.347   2.805
10401W        W77184  14.700   3.279  14.507
10402W        W77185  18.772  26.416  12.672
10403W        W77186  10.420   3.790   0.986
10404W        W77187  12.503  30.761   1.608
10405W        W77188  33.614  17.944  12.444
10406W        W77189  42.904  15.544  10.730
10407W        W77190  20.673  31.722  13.939
10408W        W77191  28.971  10.834   0.301
10409W        W77192  23.213  21.772  12.514
10410W        W77193   9.869  32.409  12.363
10411W        W77194  16.241  12.893   3.350
10412W        W77195  37.544  14.826  13.563
10413W        W77196  16.318  33.954  12.531
10414W        W77197  31.914   1.357  12.084
10415W        W77198  23.444   9.828  12.483
10416W        W77199   6.789  42.771  11.965
10417W        W77200  19.289   8.412  12.864
10418W        W77201  11.701  34.526   4.103
10419W        W77202  31.037  44.441  10.367
10420W        W77203  19.864  21.171   1.286
10421W        W77204   3.338   4.450  11.223
10422W        W77205   4.764  26.377   3.747
10423W        W77206  40.449   2.754   2.693
10424W        W77207  44.433   4.953   2.733
10425W        W77208  27.083   0.280   0.859
10426W        W77209  29.640   2.839   0.233
10427W        W77210   4.575  30.814   3.054
10428W        W77211  36.067   9.925  14.875
10429W        W77212  32.541  29.648   4.706
10430W        W77213  32.582  11.187   4.904
10431W        W77214  37.571  25.612  10.715
10432W        W77215  30.355  14.778  12.447
10433W        W77216  34.334   7.353  13.404
10434W        W77217  37.018  41.338   4.036
10435W        W77218  43.823  13.299  14.885
10436W        W77219  34.007  39.255  14.029
10437W        W77220   0.136   2.678   3.320
10438W        W77221  38.533  17.636   2.978
10439W        W77222  36.377  10.303  11.916
10440W        W77223   5.873  42.076   4.524
10441W        W77224  27.443  24.756  12.844
10442W        W77225  43.369  35.531   4.406
10443W        W77226  42.404   8.093   3.166
10444W        W77227  27.850   2.033   2.789
10445W        W77228  20.959  31.689  14.926
10446W        W77229  42.598  41.819  11.582
10447W        W77230  18.783  37.838  11.704
10448W        W77231  29.856  36.960   3.942
10449W        W77232  35.290  17.233   2.689
10450W        W77233  27.139  38.421  12.982
10451W        W77234  18.888   8.299  11.055
10452W        W77235   1.698  31.532  14.106
10453W        W77236   8.648  43.388  11.683
10454W        W77237  11.721  38.841   3.137
10455W        W77238   8.395  37.507   0.447
10456W        W77239   3.889  11.861  12.850
10457W        W77240   5.902   7.461  12.143
10458W        W77241  35.563  32.964  12.515
10459W        W77242   7.762  26.148  13.978
10460W        W77243  15.618  14.974  12.466
10461W        W77244  13.685   7.407  11.799
10462W        W77245   4.887   6.282  10.887
10463W        W77246  12.783   6.802   4.572
10464W        W77247  39.667  21.426  14.423
10465W        W77248   6.976  40.999  13.159
10466W        W77249  26.875   2.446   2.792
10467W        W77250   5.963  30.711   2.038
10468W        W77251  34.986  18.280   4.566
10469W        W77252  42.919   1.202   3.215
10470W        W77253  42.699  26.955  14.129
10471W        W77254  14.266  30.859  12.388
10472W        W77255  33.506  34.222   1.103
10473W        W77256  32.243  40.168  12.853
10474W        W77257  18.431  21.016   4.713
10475W        W77258  29.704  29.288   4.894
10476W        W77259  17.367  26.213  13.884
10477W        W77260  25.570   9.180   4.129
10478W        W77261   6.899  27.325  11.926
10479W        W77262  33.431  17.701  13.759
10480W        W77263  31.364  16.858  14.951
10481W        W77264  42.505  25.470   2.093
10482W        W77265  14.951  40.064  14.300
10483W        W77266  30.579  24.085   0.247
10484W        W77267   5.249  39.451  11.556
10485W        W77268  36.586   8.569  13.407
10486W        W77269   3.716  23.769   1.247
10487W        W77270  30.716  31.510   1.156
10488W        W77271  21.191   8.363  12.538
10489W        W77272  10.735  26.496   2.818
10490W        W77273  26.364  40.976   2.323
10491W        W77274  32.423  22.347   0.599
10492W        W77275  21.364  43.094   4.658
10493W        W77276  33.411  11.229   0.054
10494W        W77277   3.849   2.647   4.602
10495W        W77278  26.071  44.745  10.578
10496W        W77279  38.095  17.119  11.136
10497W        W77280  28.774  16.799   1.665
10498W        W77281  19.170  30.325   3.217
10499W        W77282   3.278  24.475   1.335
10500W        W77283  35.281  19.000   2.362
10501W        W77284  26.845   1.586   0.097
10502W        W77285  12.028  19.480  13.394
10503W        W77286  34.852   9.751  11.547
10504W        W77287  40.261  29.928  13.325
10505W        W77288   0.983   4.675   0.934
10506W        W77289  26.554  16.049  11.083
10507W        W77290  14.215  23.098   1.570
10508W        W77291  25.805  10.104  12.549
10509W        W77292  43.119  14.964   0.499
10510W        W77293  37.515  27.140  13.286
10511W        W77294   7.872  20.226  12.022
10512W        W77295  16.786  36.371  10.977
10513W        W77296  37.779  16.822  13.958
10514W        W77297  22.263  10.164  13.282
10515W        W77298  32.703  30.950   2.485
10516W        W77299  11.635  19.330   1.964
10517W        W77300  33.582  33.987  12.257
10518W        W77301  19.569  10.720   1.781
10519W        W77302  17.565  41.064  10.614
10520W        W77303  16.336  36.908   2.663
10521W        W77304   9.350   0.760   2.856
10522W        W77305   8.264  43.537  12.220
10523W        W77306  42.069  25.379  11.969
10524W        W77307   8.365  44.424  11.715
10525W        W77308  21.545  40.326   0.054
10526W        W77309   0.447  38.533  11.862
10527W        W77310  37.797  44.992  13.904
10528W        W77311  27.192  40.962   2.719
10529W        W77312  39.413  29.646   0.856
10530W        W77313  19.804  33.021  14.523
10531W        W77314  20.499  23.988   5.114
10532W        W77315   6.778   1.810   0.191
10533W        W77316  22.716  36.376  12.580
10534W        W77317  13.515  35.061   4.468
10535W        W77318   2.811  35.433   0.490
10536W        W77319   7.229  16.591   4.533
10537W        W77320  38.428   6.884   1.843
10538W        W77321  10.805  34.952   3.368
10539W        W77322  39.150  38.406   4.032
10540W        W77323  16.028  17.587   2.762
10541W        W77324  22.759  19.132   0.718
10542W        W77325   6.303   8.786  10.569
10543W        W77326  44.998  19.879  14.390
10544W        W77327  22.428   2.306  14.951
10545W        W77328  34.132  20.704   1.708
10546W        W77329  34.191  19.631  12.606
10547W        W77330   7.898  39.236  14.134
10548W        W77331  38.521   7.656  14.197
10549W        W77332  36.976   3.681   3.719
10550W        W77333  25.207  44.178   1.256
10551W        W77334   3.180  12.721   3.776
10552W        W77335  28.190  38.055  11.303
10553W        W77336   7.477   0.337   4.895
10554W        W77337  28.687   6.917  12.099
10555W        W77338  44.367   7.217  14.793
10556W        W77339  14.212  34.693   4.945
10557W        W77340  43.911  24.874   2.233
10558W        W77341  13.344  31.455  11.628
10559W        W77342  37.922  27.672  13.255
10560W        W77343  42.809  33.837   2.179
10561W        W77344   1.415  10.121  12.007
10562W        W77345  34.001  29.747   4.774
10563W        W77346  15.355  16.261  11.069
10564W        W77347   9.801  20.886   1.869
10565W        W77348   6.637  19.104  11.727
10566W        W77349   4.218  17.968  14.410
10567W        W77350  15.976   4.279  12.494
10568W        W77351  44.982  21.173   4.308
10569W        W77352  40.548  13.103   9.824
10570W        W77353  15.307  29.385  11.231
10571W        W77354  11.403  17.639  11.755
10572W        W77355  27.054  36.614  11.618
10573W        W77356  12.084  41.891  14.072
10574W        W77357  22.040  38.912  13.409
10575W        W77358   5.725   7.130  11.201
10576W        W77359  34.874  41.193   4.154
10577W        W77360  12.423  40.904   0.366
10578W        W77361  29.380   0.757   1.738
10579W        W77362  19.537  28.384  14.998
10580W        W77363  16.183  15.153  11.978
10581W        W77364  19.010  41.065  10.732
10582W        W77365  32.289  36.005   4.966
10583W        W77366  18.990  30.184  11.734
10584W        W77367  21.635  17.159   4.861
10585W        W77368  34.356  23.266  14.554
10586W        W77369  23.705  24.551  14.435
10587W        W77370  29.519  10.197  13.120
10588W        W77371   3.453  29.156   1.725
10589W        W77372   4.888   0.036   3.187
10590W        W77373  34.033   5.130   4.217
10591W        W77374   1.913  35.292  11.668
10592W        W77375  10.779  21.481   4.584
10593W        W77376  43.912  29.385   1.224
10594W        W77377  37.055  22.349   0.241
10595W        W77378  34.892  16.585   1.150
10596W        W77379   8.903  20.071  12.074
10597W        W77380  17.851  21.056   1.435
10598W        W77381  35.385  13.664  13.862
10599W        W77382  22.781  31.072  11.224
10600W        W77383  36.358  24.848   3.914
10601W        W77384   5.867  39.711   4.023
10602W        W77385  42.330  33.991   3.342
10603W        W77386  31.181  26.502  10.814
10604W        W77387  24.267   2.987  13.919
10605W        W77388   3.907  23.078  10.442
10606W        W77389  10.225  31.540   0.295
10607W        W77390   3.460  32.989   2.548
10608W        W77391   7.489  27.998   2.317
10609W        W77392  33.089  35.416  10.753
10610W        W77393  21.113  22.171  13.314
10611W        W77394  20.552  20.755  12.936
10612W        W77395   0.230  19.099  13.063
10613W        W77396   0.533  32.032  12.673
10614W        W77397  29.970  27.679   4.185
10615W        W77398  20.326  17.791   1.946
10616W        W77399  28.446   2.671  13.907
10617W        W77400  40.013  39.769   0.750
10618W        W77401  25.690   3.619   1.896
10619W        W77402   0.922  26.043  11.091
10620W        W77403  27.193  43.260  14.872
10621W        W77404   8.852  19.151   2.910
10622W        W77405   0.442  30.339  11.119
10623W        W77406   0.865   4.254  13.376
10624W        W77407  20.854  10.452  13.000
10625W        W77408  34.274  27.745   4.200
10626W        W77409  22.309  44.678   1.935
10627W        W77410   4.246  33.801  13.823
10628W        W77411   8.985   0.176   1.443
10629W        W77412  22.659   6.103  12.186
10630W        W77413   5.896  19.287   2.662
10631W        W77414   7.003  35.446  13.932
10632W        W77415  20.088  14.812   3.436
10633W        W77416  19.275  20.824  14.487
10634W        W77417  20.492  41.806   2.283
10635W        W77418  15.401  23.462  13.422
10636W        W77419  33.800  38.255  13.909
10637W        W77420  20.256  43.464  11.425
10638W        W77421  28.368  13.414  14.433
10639W        W77422  14.693  43.521  10.541
10640W        W77423  11.123  19.063  12.436
10641W        W77424   8.089  20.535  14.505
10642W        W77425  39.236  30.132   3.278
10643W        W77426  11.970  19.296   1.518
10644W        W77427  37.410   1.042  12.414
10645W        W77428  13.062   3.469  10.368
10646W        W77429  19.122  32.965  12.452
10647W        W77430  30.703  14.052  12.955
10648W        W77431  23.127  36.900   1.806
10649W        W77432  10.087  22.109   3.684
10650W        W77433  33.752  20.848   0.802
10651W        W77434  17.272   0.179  14.692
10652W        W77435  42.820  29.324   1.750
10653W        W77436   0.809  39.581   3.232
10654W        W77437   7.893  23.547   1.387
10655W        W77438   9.572  17.128  11.501
10656W        W77439   5.194  20.046  11.175
10657W        W77440  20.751  40.286  12.438
10658W        W77441  26.236   7.575  12.924
10659W        W77442  17.846  44.063  14.312
10660W        W77443   0.412  40.509   4.859
10661W        W77444   8.945   0.336   1.946
10662W        W77445  13.163  29.755  11.593
10663W        W77446  34.910  38.844   4.513
10664W        W77447   7.301  33.244  10.830
10665W        W77448   2.772  18.470  14.384
10666W        W77449  14.996   3.481  10.002
10667W        W77450  16.370   9.932  11.461
10668W        W77451   8.399  13.405  11.164
10669W        W77452   9.117   1.437  13.994
10670W        W77453   2.924   8.762   2.861
10671W        W77454  30.976   8.757  11.668
10672W        W77455   2.405  17.204   2.425
10673W        W77456   1.431  38.428  13.852
10674W        W77457   4.385  19.327   3.052
10675W        W77458  26.025   8.320  10.677
10676W        W77459  30.055   8.399   1.260
10677W        W77460   4.721  29.122  12.029
10678W        W77461  27.590  35.885   3.116
10679W        W77462  17.859  11.941   3.643
10680W        W77463  34.612  14.151   2.781
10681W        W77464  14.981  21.466  10.940
10682W        W77465  39.529   0.101   0.739
10683W        W77466  23.915  25.180   3.870
10684W        W77467  25.123  26.540   4.049
10685W        W77468   1.879  33.392   3.274
10686W        W77469   3.068   2.960  14.294
10687W        W77470  12.583  21.283   1.440
10688W        W77471   8.082  40.969  12.077
10689W        W77472   5.237  10.172  13.012
10690W        W77473  22.005   1.128  13.391
10691W        W77474  40.811  30.045   0.298
10692W        W77475  41.166  10.112  11.108
10693W        W77476  20.524  29.656  11.069
10694W        W77477  37.717  31.938  14.988
10695W        W77478  18.420  14.007   4.539
10696W        W77479  30.361  22.492   3.708
10697W        W77480   6.356  31.105   0.833
10698W        W77481  44.831  27.549   4.354
10699W        W77482  17.211   1.408   2.336
10700W        W77483  26.671  30.864  14.818
10701W        W77484  36.125  42.327   3.618
10702W        W77485  10.554  13.114   0.108
10703W        W77486  44.543  39.339  10.585
10704W        W77487  14.413   3.989  13.847
10705W        W77488  28.941  16.970  10.711
10706W        W77489   1.523   6.358   2.850
10707W        W77490   8.267  36.579  10.749
10708W        W77491  11.584  18.307  11.792
10709W        W77492  35.773  15.522  13.502
10710W        W77493  30.237  41.011   2.652
10711W        W77494  31.336  23.211  11.627
10712W        W77495   8.298   9.370  14.086
10713W        W77496  19.194  27.532  10.752
10714W        W77497   4.640  27.367   4.028
10715W        W77498   5.830  32.010  10.186
10716W        W77499  25.081   0.996  13.115
10717W        W77500   2.728   1.368   2.116
10718W        W77501  36.102  37.855   0.428
10719W        W77502   0.242  23.393  14.776
10720W        W77503  21.023   6.835   3.162
10721W        W77504  19.679   7.733   1.248
10722W        W77505  36.865  37.472   1.868
10723W        W77506   2.501  33.569   0.225
10724W        W77507  29.974  19.209   0.430
10725W        W77508  14.372  34.652   4.468
10726W        W77509  17.796  29.070  13.519
10727W        W77510   0.858  23.127  13.045
10728W        W77511  30.316  38.903   4.125
10729W        W77512  19.559  18.331   2.444
10730W        W77513  12.319  15.501   2.897
10731W        W77514  41.306  27.260   1.621
10732W        W77515   1.898  24.770   2.945
10733W        W77516  15.274  10.366   0.411
10734W        W77517  23.957   4.415   3.199
10735W        W77518  40.037   9.681   4.182
10736W        W77519  14.092  17.214  11.619
10737W        W77520  38.326  36.524   3.665
10738W        W77521   1.030  29.948  14.826
10739W        W77522  13.898   8.298  12.305
10740W        W77523  20.873   5.357  11.870
10741W        W77524  15.169  31.341   1.465
10742W        W77525  23.100  28.990  13.383
10743W        W77526  32.615  17.714  14.415
10744W        W77527  24.040  30.636   2.168
10745W        W77528  28.360   9.815   3.191
10746W        W77529  27.159  32.575   2.795
10747W        W77530  38.086  21.980   3.325
10748W        W77531   5.646  10.239   2.945
10749W        W77532  33.127   4.108  14.872
10750W        W77533   6.208  30.126   4.381
10751W        W77534  24.304  14.856  14.223
10752W        W77535  35.958  26.422   2.387
10753W        W77536  34.587  36.802  12.130
10754W        W77537  17.235   5.922   3.401
10755W        W77538  30.673  15.822   2.325
10756W        W77539   9.957  25.759   3.237
10757W        W77540  42.099  12.540   5.489
10758W        W77541  40.007  35.056  11.202
10759W        W77542  27.955  36.000   2.335
10760W        W77543  43.118  34.910   4.080
10761W        W77544   8.240  38.927   3.095
10762W        W77545   0.296  31.698   2.358
10763W        W77546  24.030  34.017   3.207
10764W        W77547  22.249  41.866   3.733
10765W        W77548   2.963  12.750  14.956
10766W        W77549  15.573  10.378   3.766
10767W        W77550   7.196  14.464  13.084
10768W        W77551  14.090  27.196   3.298
10769W        W77552   4.135  36.085   1.602
10770W        W77553  35.580  15.034   3.241
10771W        W77554   2.142  29.993  11.315
10772W        W77555  20.154   0.904  11.972
10773W        W77556   0.868  44.395  11.862
10774W        W77557  35.151  34.104  12.064
10775W        W77558  29.868  25.017  14.282
10776W        W77559  39.046  13.169  13.317
10777W        W77560  13.704   7.761   3.264
10778W        W77561  35.995  14.402  12.713
10779W        W77562   9.795  16.055   4.261
10780W        W77563  19.811  44.855  11.161
10781W        W77564  27.214   7.912  11.471
10782W        W77565  18.272  19.696  10.617
10783W        W77566  31.586  33.000  12.241
10784W        W77567   9.835  35.947  13.813
10785W        W77568  42.899  37.024  10.945
10786W        W77569  27.361  43.712  11.043
10787W        W77570   0.529   9.636  12.933
10788W        W77571  43.400  25.571  14.481
10789W        W77572  14.749  30.589   1.178
10790W        W77573   3.766  32.339  14.263
10791W        W77574   8.863  32.595  14.864
10792W        W77575  27.198  44.472  12.427
10793W        W77576   6.240  20.572  12.409
10794W        W77577  22.476  18.514  12.029
10795W        W77578   5.244   9.733  13.292
10796W        W77579  20.178  33.913   4.686
10797W        W77580  24.494   6.640  10.689
10798W        W77581  35.168  28.565   0.320
10799W        W77582  29.171   2.444  13.182
10800W        W77583  17.728  16.546  13.156
10801W        W77584   0.278  13.077  13.425
10802W        W77585  33.849   5.166  11.885
10803W        W77586  37.332  33.298   0.151
10804W        W77587   6.243  12.790   2.065
10805W        W77588  17.198  19.589  13.773
10806W        W77589   1.653  17.324  10.800
10807W        W77590  12.323   8.437   2.256
10808W        W77591  32.610  27.507  11.085
10809W        W77592  31.092   2.005  11.529
10810W        W77593  28.734  43.034   5.229
10811W        W77594  14.308  42.880   0.249
10812W        W77595   4.834  26.159  14.936
10813W        W77596  15.296  29.855   4.246
10814W        W77597   3.744  17.012  14.359
10815W        W77598  19.575  35.845  12.536
10816W        W77599  26.497   0.525  10.670
10817W        W77600  14.942  37.829  13.370
10818W        W77601   0.594  14.381   1.848
10819W        W77602  11.875  32.852   1.583
10820W        W77603   1.705  23.499  13.861
10821W        W77604  41.626  40.555   1.971
10822W        W77605   7.731  25.802  13.005
10823W        W77606  32.990  14.689  12.924
10824W        W77607   3.830  41.125   0.865
10825W        W77608  39.575  20.037  13.455
10826W        W77609  29.548  31.150  12.980
10827W        W77610  28.465  11.768   3.302
10828W        W77611  19.149  38.299  12.981
10829W        W77612  33.891  34.103  10.302
10830W        W77613   6.456  25.718  11.461
10831W        W77614   9.745   2.858   2.834
10832W        W77615  34.456  35.251  11.015
10833W        W77616  42.937  11.504   1.262
10834W        W77617  43.060  17.695  11.651
10835W        W77618  40.857  13.996  13.621
10836W        W77619  22.220  19.530   0.838
10837W        W77620   5.979  36.378   1.214
10838W        W77621   7.992   7.938  11.419
10839W        W77622  41.022  39.556   4.877
10840W        W77623  41.538   1.940  12.975
10841W        W77624  34.863  33.308  13.716
10842W        W77625  11.595  17.193   2.356
10843W        W77626  31.316  20.096   4.103
10844W        W77627  15.004  27.424  11.943
10845W        W77628  34.869  31.810   2.358
10846W        W77629  39.921  43.400  11.686
10847W        W77630  16.487  29.988  12.401
10848W        W77631  27.550  11.739  12.542
10849W        W77632  35.905   4.306  14.306
10850W        W77633  42.165  36.095  11.207
10851W        W77634  21.589  27.498  10.263
10852W        W77635  44.918   4.295   4.026
10853W        W77636  43.956  41.766   3.047
10854W        W77637  10.401  42.704  10.860
10855W        W77638  29.854  22.130  13.885
10856W        W77639  23.041  16.128   2.225
10857W        W77640  34.774  39.820  12.154
10858W        W77641  39.182  12.750  13.859
10859W        W77642  11.081   9.093  10.709
10860W        W77643  19.356   4.867   3.585
10861W        W77644  30.546  41.595  10.266
10862W        W77645  29.713  29.245  11.195
10863W        W77646   2.685   1.392  10.701
10864W        W77647  36.577   2.039   3.701
10865W        W77648  10.238  11.311  13.892
10866W        W77649  17.137  16.289  12.090
10867W        W77650  18.562   1.760  11.436
10868W        W77651  18.134   9.769  12.345
10869W        W77652  13.152   8.164   0.439
10870W        W77653   9.276  22.660   0.011
10871W        W77654  24.902  22.202   3.414
10872W        W77655  36.978   9.001   4.690
10873W        W77656  11.567  20.053  11.109
10874W        W77657   9.481  38.848   3.712
10875W        W77658  24.862  43.730  13.659
10876W        W77659  24.852  22.396   2.381
10877W        W77660  26.075   5.610   9.554
10878W        W77661   7.956  26.180   0.544
10879W        W77662  35.996   6.519  14.324
10880W        W77663  41.560  19.203  12.841
10881W        W77664   7.405  40.810  14.892
10882W        W77665  21.632  24.239  13.081
10883W        W77666  21.702  16.117  14.073
10884W        W77667   4.051   6.703   0.667
10885W        W77668  13.231  21.567  13.842
10886W        W77669  17.099  25.410   0.900
10887W        W77670  42.297   6.210   2.705
10888W        W77671  10.128  33.907  11.539
10889W        W77672  25.145  30.207   4.603
10890W        W77673  41.479   2.096   0.215
10891W        W77674   2.458  28.058  12.161
10892W        W77675  32.576  28.908   2.688
10893W        W77676  21.009  21.824  11.519
10894W        W77677  27.166   0.356   1.397
10895W        W77678  22.607  11.912  13.501
10896W        W77679  16.788  39.771  10.087
10897W        W77680   5.443   1.468   1.222
10898W        W77681   6.926  28.273   3.165
10899W        W77682  15.426   5.160  11.647
10900W        W77683   2.473  20.280  13.034
10901W        W77684   5.881  42.408   1.869
10902W        W77685   6.862  39.501   0.992
10903W        W77686   8.426   1.783  11.943
10904W        W77687  40.533   3.988  14.781
10905W        W77688   7.358   3.336   2.331
10906W        W77689  26.411  15.219   2.915
10907W        W77690   1.286  22.015  13.387
10908W        W77691  10.834   1.334  14.772
10909W        W77692   0.209  32.876  12.707
10910W        W77693   4.525  43.081   0.267
10911W        W77694   7.421  11.705   3.032
10912W        W77695   1.322  34.106   4.221
10913W        W77696  38.023   6.215   1.438
10914W        W77697  25.698  31.978  12.319
10915W        W77698  35.984   7.220   0.327
10916W        W77699  32.941  40.570  14.501
10917W        W77700  43.229  19.244  14.964
10918W        W77701  17.974   8.058   0.858
10919W        W77702  27.080  37.874  11.233
10920W        W77703   3.492  18.385   4.168
10921W        W77704  11.413  43.274  11.361
10922W        W77705   5.765  33.689   1.431
10923W        W77706   0.562  22.055  13.965
10924W        W77707   8.388  28.485   1.995
10925W        W77708  29.957  14.535   0.838
10926W        W77709  28.222   6.671  12.910
10927W        W77710  28.510  36.645  12.098
10928W        W77711   2.792   0.994  12.181
10929W        W77712  20.760  18.222   1.440
10930W        W77713  41.938   7.670   2.523
10931W        W77714  33.402  14.375  12.993
10932W        W77715   1.547  25.741   1.807
10933W        W77716  22.391  29.975   4.579
10934W        W77717  19.651  30.869  10.830
10935W        W77718  15.058  33.043   0.897
10936W        W77719  29.965  31.624   0.264
10937W        W77720  36.739  41.791  14.017
10938W        W77721  38.719  41.301  11.175
10939W        W77722  19.786  19.346   3.262
10940W        W77723  35.894  26.346  14.042
10941W        W77724  30.962  39.736  14.080
10942W        W77725  31.499  10.870  10.570
10943W        W77726  42.991  40.547   0.835
10944W        W77727  13.484  42.867   0.879
10945W        W77728  41.341  18.524  14.273
10946W        W77729  26.159   1.400   0.330
10947W        W77730   8.560  22.769   1.909
10948W        W77731  30.217  20.632   1.911
10949W        W77732  14.417  38.550  13.853
10950W        W77733   2.422  23.067   3.042
10951W        W77734  19.507   0.181  13.582
10952W        W77735  12.295   4.948   2.887
10953W        W77736  12.257   5.868   1.028
10954W        W77737  18.797  10.771  11.627
10955W        W77738  13.390  31.856   1.787
10956W        W77739   8.114  36.079  10.761
10957W        W77740   4.250  37.408  10.564
10958W        W77741  14.325  32.867  10.692
10959W        W77742  13.361  15.634  11.588
10960W        W77743  22.993  25.002  13.453
10961W        W77744  23.433  10.520   0.119
10962W        W77745  30.356  15.776   4.168
10963W        W77746  11.813  22.013  11.877
10964W        W77747  18.468  15.864   2.328
10965W        W77748  35.578   2.501  14.946
10966W        W77749  31.292  11.602  13.092
10967W        W77750  10.633  16.291  14.123
10968W        W77751  16.580  13.036   1.962
10969W        W77752  40.536  10.814  14.424
10970W        W77753  21.483  26.108  12.514
10971W        W77754  13.649  41.082  14.826
10972W        W77755  28.562  12.206  12.979
10973W        W77756   9.584  15.318   2.418
10974W        W77757   9.355   7.320   9.869
10975W        W77758   4.756  32.336  12.307
10976W        W77759   3.410   0.641  13.801
10977W        W77760  17.666   5.841  12.868
10978W        W77761  25.063  33.008   2.241
10979W        W77762  40.718  13.880  13.121
10980W        W77763  33.582   3.272  13.592
10981W        W77764  28.963  28.103  12.595
10982W        W77765  16.633  42.476   4.333
10983W        W77766  19.264  26.636  11.750
10984W        W77767  24.575   2.486   2.725
10985W        W77768  13.206  28.534   2.829
10986W        W77769  30.510  15.742   1.313
10987W        W77770   5.621  23.290   2.191
10988W        W77771  18.096  33.435  13.118
10989W        W77772  26.653  34.396   2.868
10990W        W77773  39.111  27.163   0.844
10991W        W77774   7.967  18.613   0.882
10992W        W77775  12.237  22.543   3.205
10993W        W77776  34.421  12.720   3.611
10994W        W77777  28.250  30.114  11.698
10995W        W77778  28.137  43.354   1.229
10996W        W77779   7.343  44.621   3.664
10997W        W77780  13.772   7.432   0.392
10998W        W77781  15.161  34.105   4.134
10999W        W77782  10.166  39.453  14.676
11000W        W77783  44.673  19.825   1.281
11001W        W77784  39.274  39.906   2.798
11002W        W77785  14.791  32.690  11.528
11003W        W77786  32.748  23.288  12.158
11004W        W77787  11.154  19.634  13.697
11005W        W77788  19.983  34.677   2.342
11006W        W77789   7.919  35.556  13.864
11007W        W77790  18.149  10.023  14.188
11008W        W77791  29.953  40.942  12.322
11009W        W77792  10.209  39.964  12.959
11010W        W77793  36.382  24.319   2.418
11011W        W77794  40.895  10.826   4.549
11012W        W77795  36.428  34.221  14.979
11013W        W77796  17.663  31.422   4.141
11014W        W77797  40.080  17.795   4.291
11015W        W77798   9.738  24.968  13.621
11016W        W77799  15.010  41.071   4.237
11017W        W77800  36.161  22.021  11.675
11018W        W77801  37.880  31.691   1.850
11019W        W77802  33.125  17.130   1.842
11020W        W77803  15.993  43.522  11.896
11021W        W77804  24.462  26.682  13.980
11022W        W77805   9.200  26.550  13.888
11023W        W77806  19.683  43.825   2.235
11024W        W77807   5.397  19.631  11.505
11025W        W77808  42.210  10.732  11.126
11026W        W77809  29.104  28.305   1.883
11027W        W77810  39.452  16.746   2.449
11028W        W77811   3.437  37.751   2.111
11029W        W77812  15.137  20.466  14.429
11030W        W77813  24.060  25.727  13.868
11031W        W77814  10.907   7.753  14.732
11032W        W77815  39.872  39.604  12.960
11033W        W77816  37.607  28.645  14.013
11034W        W77817  34.041  21.700   1.794
11035W        W77818  32.137  13.678  10.677
11036W        W77819  32.440  15.589   0.720
11037W        W77820  44.840  32.266  13.046
11038W        W77821  13.128  37.644   0.883
11039W        W77822  18.670  22.528  12.954
11040W        W77823  44.066  14.259   1.848
11041W        W77824  32.700  19.781   3.340
11042W        W77825  39.166  43.734  10.045
11043W        W77826   8.004  25.815   2.891
11044W        W77827  11.799  30.034  13.401
11045W        W77828  22.532  37.332   2.721
11046W        W77829  14.367  34.098   1.735
11047W        W77830   1.321  27.728   1.702
11048W        W77831  22.737   1.068  12.996
11049W        W77832  27.850  43.209   0.786
11050W        W77833  37.861  11.218   3.821
11051W        W77834  11.147  41.842  14.482
11052W        W77835  11.819  44.339  11.984
11053W        W77836  11.686  19.516  13.863
11054W        W77837  22.919  39.138  12.183
11055W        W77838  13.782  21.649  14.523
11056W        W77839  11.639  19.745   1.646
11057W        W77840   5.317  18.539   2.623
11058W        W77841  44.971  35.843   0.009
11059W        W77842   8.764  13.891   4.733
11060W        W77843  13.293   9.483  10.517
11061W        W77844  44.258   2.274   1.491
11062W        W77845   3.778  23.662  11.891
11063W        W77846  25.757   3.087  10.933
11064W        W77847  24.606   7.240   3.270
11065W        W77848   4.357   2.421  11.648
11066W        W77849  29.211  29.831  14.008
11067W        W77850   1.893   3.562   2.226
11068W        W77851  17.049   1.284   1.857
11069W        W77852  12.550   6.957   2.129
11070W        W77853  14.220  27.417   5.079
11071W        W77854  27.383  29.021  14.704
11072W        W77855  38.325   3.685   0.650
11073W        W77856   3.775  19.518  12.540
11074W        W77857  43.317   9.548   0.845
11075W        W77858  28.075  14.016   3.577
11076W        W77859  29.984   1.531   2.760
11077W        W77860  30.280   7.448   0.826
11078W        W77861   6.656  28.458   4.106
11079W        W77862  31.148  34.575  11.997
11080W        W77863  41.278  28.479   0.070
11081W        W77864  40.988  19.241  10.593
11082W        W77865  10.209  24.529   2.346
11083W        W77866  33.523   3.842   3.263
11084W        W77867  27.644  16.623  12.445
11085W        W77868   8.750  28.567  13.635
11086W        W77869  44.418  26.192   1.862
11087W        W77870  17.134  22.564   3.536
11088W        W77871   6.193  27.413   0.927
11089W        W77872  30.705   6.258   2.325
11090W        W77873  16.212   7.867  12.678
11091W        W77874  33.792  34.524  11.848
11092W        W77875  41.722  38.368   2.372
11093W        W77876  16.813  28.251   4.084
11094W        W77877  27.575  40.430  14.961
11095W        W77878   4.827   5.887   4.834
11096W        W77879   9.446  39.782  11.446
11097W        W77880  44.400   7.834  12.356
11098W        W77881  37.893   0.752   1.923
11099W        W77882  43.398  32.998   1.736
11100W        W77883   8.136  11.732   4.342
11101W        W77884  30.434  39.115   1.824
11102W        W77885   2.947  11.173   1.435
11103W        W77886   0.734  33.630   2.740
11104W        W77887   7.262  23.913  12.063
11105W        W77888  43.984  18.754   3.340
11106W        W77889   0.179  28.524   1.819
11107W        W77890  35.107  30.053   1.503
11108W        W77891  43.084  20.708  11.155
11109W        W77892   6.697   9.091  14.490
11110W        W77893  18.685  36.507   4.613
11111W        W77894  37.579  30.429   2.869
11112W        W77895  39.019  24.713  10.805
11113W        W77896  38.529  38.155  13.932
11114W        W77897  16.993   9.926  14.518
11115W        W77898  11.653  28.739   2.791
11116W        W77899   1.317  32.816  14.123
11117W        W77900   8.325  41.375  14.827
11118W        W77901  24.057  12.601   3.767
11119W        W77902  10.131  16.693   4.260
11120W        W77903   7.462  29.358  14.153
11121W        W77904  39.549  10.365  10.664
11122W        W77905  11.874  25.870   4.162
11123W        W77906   0.714   1.932  11.070
11124W        W77907   6.031  19.779  14.801
11125W        W77908   0.384  38.884   1.307
11126W        W77909  40.593   0.681  14.721
11127W        W77910   4.893  18.825   1.885
11128W        W77911   1.481  33.938   2.228
11129W        W77912   7.780  41.330   3.731
11130W        W77913  38.169  22.027   2.194
11131W        W77914  16.293  38.231   1.239
11132W        W77915  22.885  29.827  14.407
11133W        W77916  31.729  25.491  12.872
11134W        W77917  21.581  15.218   3.276
11135W        W77918  30.338  11.303   1.834
11136W        W77919  17.046  35.308   0.762
11137W        W77920  39.840  15.285  13.586
11138W        W77921  19.099  11.355  10.769
11139W        W77922  29.942  32.541  14.722
11140W        W77923  41.975  26.304  13.977
11141W        W77924   6.894  27.584   1.779
11142W        W77925  18.686   8.675   2.727
11143W        W77926   2.703   9.703   2.133
11144W        W77927  32.184  33.469  13.096
11145W        W77928  17.622  20.018   3.946
11146W        W77929  12.872  30.209  13.500
11147W        W77930  33.031  43.431  10.773
11148W        W77931   9.163  40.625  12.957
11149W        W77932  11.738  19.250  12.995
11150W        W77933   6.845  16.922   4.580
11151W        W77934  29.885  42.906   1.074
11152W        W77935   7.352   7.253   4.148
11153W        W77936  27.563   5.243  13.835
11154W        W77937  44.842   6.985   3.654
11155W        W77938  28.196  10.015   3.629
11156W        W77939   5.493  33.581  14.684
11157W        W77940   7.347  21.083   4.494
11158W        W77941   8.873  15.996   1.571
11159W        W77942  27.541  42.707   2.259
11160W        W77943  13.557   3.282   3.223
11161W        W77944  13.272  22.044   4.204
11162W        W77945   6.863  14.553   1.721
11163W        W77946  44.517   0.029   4.783
11164W        W77947  23.211  15.372   2.599
11165W        W77948  43.300  30.566   5.051
11166W        W77949  13.726   9.116   2.801
11167W        W77950  11.333  24.646   4.671
11168W        W77951   0.756  24.768   3.325
11169W        W77952  26.941  40.616   0.185
11170W        W77953   6.917  14.382   3.511
11171W        W77954  42.542  27.532   1.882
11172W        W77955  19.547   8.218   4.583
11173W        W77956  41.333   9.093   3.631
11174W        W77957  35.349  35.345  12.443
11175W        W77958  31.878  30.021   3.670
11176W        W77959  31.460  28.405  14.367
11177W        W77960  17.833  24.548   0.960
11178W        W77961  33.576  28.693  12.529
11179W        W77962  12.765  42.472  12.109
11180W        W77963  18.725  33.516   1.286
11181W        W77964  23.457  24.522   0.762
11182W        W77965   7.625  17.067   4.951
11183W        W77966  29.373  20.172   1.795
11184W        W77967  16.578  33.407   4.515
11185W        W77968  41.742  23.588  13.395
11186W        W77969  26.260  28.298  14.541
11187W        W77970  16.036  22.787   2.701
11188W        W77971  39.291  41.810   4.621
11189W        W77972  22.209  34.175   0.406
11190W        W77973   4.915   6.761   4.666
11191W        W77974  20.396  44.977   3.419
11192W        W77975  18.743   9.051   5.322
11193W        W77976   3.289   7.220   2.793
11194W        W77977  35.535   0.773   4.804
11195W        W77978  11.300  44.514   2.716
11196W        W77979  17.514  24.065  11.507
11197W        W77980  12.844  23.504   2.418
11198W        W77981  10.596  25.137  10.687
11199W        W77982  21.477  12.833  10.889
11200W        W77983   9.163  34.836   1.177
11201W        W77984  12.730  22.500   3.387
11202W        W77985  16.593  34.162  12.926
11203W        W77986  31.070  15.104   0.865
11204W        W77987  28.831  14.630   0.357
11205W        W77988   2.365   9.236   2.245
11206W        W77989   1.300  16.553   3.700
11207W        W77990  40.417  15.549  14.079
11208W        W77991  31.699  20.965  11.992
11209W        W77992  18.636   6.210   3.330
11210W        W77993   0.942  42.722  13.445
11211W        W77994   4.159  16.779   2.631
11212W        W77995  41.162   3.952   0.452
11213W        W77996   4.268  25.031   1.400
11214W        W77997  35.404   3.780  10.111
11215W        W77998  21.889  43.085   1.452
11216W        W77999  26.916  37.472   5.585
11217W        W78000  10.425  16.273   1.990
11218W        W78001  13.860  33.231   0.312
11219W        W78002  40.392  12.651  10.084
11220W        W78003  10.329  26.481   0.693
11221W        W78004  24.818  23.925  13.477
11222W        W78005  27.017  14.923  11.567
11223W        W78006  24.165  32.079  14.334
11224W        W78007  25.461  17.357  12.976
11225W        W78008  15.615  13.148  14.362
11226W        W78009  39.854  44.417  10.623
11227W        W78010   8.923  24.928   1.766
11228W        W78011  43.514  16.997  12.431
11229W        W78012   1.042  11.530   4.682
11230W        W78013  38.546  10.734   4.253
11231W        W78014  31.188  40.101   3.641
11232W        W78015  18.826   3.931   3.658
11233W        W78016  16.257  29.629   1.370
11234W        W78017  16.803  38.973  14.103
11235W        W78018  16.992  13.695   0.169
11236W        W78019  15.156  15.605   4.157
11237W        W78020  13.922  14.305   2.684
11238W        W78021  12.289  23.345  10.620
11239W        W78022  42.544  24.960   2.161
11240W        W78023  24.240  21.125  14.226
11241W        W78024  28.389  16.673   3.105
11242W        W78025   5.021  22.986  11.189
11243W        W78026   4.960  40.023  10.906
11244W        W78027   1.778  35.914  10.868
11245W        W78028   5.752  26.562   0.857
11246W        W78029  17.667  20.556   0.527
11247W        W78030  31.977  43.387  14.675
11248W        W78031  42.272  30.118  11.563
11249W        W78032  32.514   1.215  10.820
11250W        W78033   9.908  21.789   0.637
11251W        W78034  36.336  21.203  10.748
11252W        W78035   7.446  39.545   4.173
11253W        W78036  44.333  20.729  13.819
11254W        W78037  24.571  41.961  13.847
11255W        W78038  18.147  14.831   1.226
11256W        W78039  14.854   6.809  11.163
11257W        W78040  16.923  11.631   3.564
11258W        W78041  21.160   6.214   0.284
11259W        W78042  21.284  21.751   3.238
11260W        W78043  41.476   6.233   2.345
11261W        W78044  24.023  30.701  13.605
11262W        W78045  17.786   6.219  14.919
11263W        W78046  15.810  11.866   4.173
11264W        W78047  20.929  26.677   2.164
11265W        W78048   5.657  21.715   4.608
11266W        W78049  40.465  39.062   1.414
11267W        W78050   6.166  21.691   4.528
11268W        W78051  32.547  17.639   4.659
11269W        W78052  39.428  41.006   4.148
11270W        W78053  42.255  20.208   1.941
11271W        W78054  38.252  13.707   4.053
11272W        W78055  28.639  15.140   3.309
11273W        W78056  43.086  29.921   3.807
11274W        W78057  33.636   5.724  14.321
11275W        W78058  15.042  27.583  13.392
11276W        W78059  39.009  10.467   2.299
11277W        W78060  40.754  32.480   2.734
11278W        W78061  32.242  10.720   4.127
11279W        W78062  42.785   2.892  11.137
11280W        W78063  27.395  40.820  14.262
11281W        W78064  11.126  34.669  13.496
11282W        W78065  22.557  36.653  13.055
11283W        W78066  26.081  34.533  12.019
11284W        W78067  43.037  15.521  11.624
11285W        W78068  27.209  37.122  10.864
11286W        W78069  31.706  27.681   4.472
11287W        W78070  28.611  23.115   1.762
11288W        W78071  10.304  22.894   4.933
11289W        W78072  30.262  42.366  11.675
11290W        W78073  26.153  40.706   1.797
11291W        W78074  30.303  23.209  11.640
11292W        W78075   1.987  28.197   0.957
11293W        W78076  27.533  44.295   4.881
11294W        W78077   6.847  39.370  11.649
11295W        W78078  37.523   4.072   0.939
11296W        W78079   7.939  31.063  13.958
11297W        W78080  38.347  42.297   2.885
11298W        W78081  38.845  27.092   3.076
11299W        W78082  44.888  17.159  13.578
11300W        W78083  18.332   0.293  11.525
11301W        W78084  20.857  24.498   1.768
11302W        W78085  17.701  42.343   2.764
11303W        W78086  39.878   4.836   1.791
11304W        W78087   1.505   2.652   3.108
11305W        W78088  19.008  15.255  14.897
11306W        W78089  43.307  21.256  14.029
11307W        W78090  30.022  18.588  10.912
11308W        W78091  24.960  21.475   0.170
11309W        W78092  18.377  20.516   3.974
11310W        W78093   2.934  38.864   2.741
11311W        W78094  11.390  32.152  13.054
11312W        W78095  21.279  24.383  13.901
11313W        W78096  28.045  24.146  14.410
11314W        W78097  38.696  42.001   1.940
11315W        W78098  28.166   1.845   0.479
11316W        W78099  37.079  24.015  10.552
11317W        W78100   2.225  41.113  14.022
11318W        W78101  11.466  26.418   0.134
11319W        W78102  24.771   3.427   1.833
11320W        W78103  25.188  28.512   1.734
11321W        W78104  24.188  26.957  13.563
11322W        W78105  38.993  10.077  14.897
11323W        W78106   0.450  32.090  10.766
11324W        W78107  29.335  44.501  12.053
11325W        W78108  41.413   7.401   4.045
11326W        W78109  42.112  44.307   4.509
11327W        W78110   0.501  15.216  11.100
11328W        W78111  15.695  27.669  14.605
11329W        W78112  34.483  31.323   0.304
11330W        W78113  41.814  42.347   4.406
11331W        W78114  13.906  25.167  12.526
11332W        W78115  33.022  11.068   0.816
11333W        W78116  30.140  28.110   2.025
11334W        W78117  15.068  26.188   2.811
11335W        W78118  17.110  10.102  10.985
11336W        W78119   5.182  26.850  10.751
11337W        W78120  11.691  32.153  13.505
11338W        W78121  14.453   3.923  12.902
11339W        W78122   5.376  15.988   4.124
11340W        W78123  29.848  28.629  11.464
11341W        W78124  27.498   8.375  11.440
11342W        W78125  22.252  23.804   0.029
11343W        W78126   3.993  22.244   4.155
11344W        W78127  19.831   7.307   3.012
11345W        W78128  27.864   2.809  12.008
11346W        W78129  42.523  41.838  12.498
11347W        W78130   6.938  40.576   2.354
11348W        W78131  40.721  10.843   0.672
11349W        W78132  26.377  17.384  11.782
11350W        W78133   2.496  36.318   3.815
11351W        W78134  12.796   8.467  13.410
11352W        W78135   9.385  44.036  10.747
11353W        W78136  33.546  21.956  13.880
11354W        W78137   4.806   3.167   2.545
11355W        W78138  26.203  21.010   3.417
11356W        W78139  42.524   4.875   2.566
11357W        W78140  15.653   6.633  12.493
11358W        W78141  28.564  32.702   0.755
11359W        W78142  43.949  44.781   2.292
11360W        W78143  39.303  13.550  13.598
11361W        W78144  23.795  22.122   4.658
11362W        W78145  24.020   6.729  11.928
11363W        W78146  24.560  30.350   1.095
11364W        W78147  34.775   8.480  10.222
11365W        W78148  26.912  38.512  11.570
11366W        W78149   6.673  22.337  14.351
11367W        W78150  40.595  39.474  14.492
11368W        W78151  28.725  30.193   0.252
11369W        W78152  27.599  39.869  12.515
11370W        W78153   1.855   5.204   4.678
11371W        W78154  18.569   0.039  11.167
11372W        W78155  21.424  39.464  14.925
11373W        W78156  17.811  30.853  12.173
11374W        W78157  44.549  33.149   0.087
11375W        W78158   1.996   3.295   1.773
11376W        W78159   9.928  34.461   0.260
11377W        W78160  35.914  42.499  11.440
11378W        W78161  28.831  22.862   0.884
11379W        W78162  23.444  35.064  14.037
11380W        W78163  20.666  42.247  13.485
11381W        W78164  25.224  18.682  11.953
11382W        W78165  30.577   5.495  12.179
11383W        W78166  31.975  34.128  13.967
11384W        W78167   7.677  28.622   1.266
11385W        W78168  33.561  29.961   5.064
11386W        W78169  17.832  21.504   4.070
11387W        W78170  12.156  35.634   1.322
11388W        W78171  28.654  29.693  12.152
11389W        W78172  28.088  21.568   3.779
11390W        W78173  14.385  43.851  14.817
11391W        W78174  32.156  40.650   1.717
11392W        W78175   2.980  42.312   1.396
11393W        W78176  33.587   5.825  12.425
11394W        W78177  44.125  33.110  13.888
11395W        W78178  18.207  25.103   0.223
11396W        W78179  36.277  44.962  11.249
11397W        W78180   1.907   0.318   2.804
11398W        W78181  30.573  33.052  13.535
11399W        W78182  10.728  23.473   2.860
11400W        W78183  19.669  27.896  11.924
11401W        W78184  37.144  40.405  12.878
11402W        W78185  44.942  38.917   2.732
11403W        W78186  29.299  13.142  14.388
11404W        W78187  31.537  28.520  12.969
11405W        W78188  15.976  11.042  10.724
11406W        W78189  33.021   4.241  13.148
11407W        W78190   6.286  38.097   1.192
11408W        W78191  40.836  19.445  12.615
11409W        W78192  25.140   0.690   0.829
11410W        W78193  31.972  25.157   1.766
11411W        W78194   4.624  37.261  11.920
11412W        W78195   7.453  42.308  14.814
11413W        W78196  37.903  18.846   3.709
11414W        W78197   3.390  40.540   2.366
11415W        W78198  12.741  44.195  12.357
11416W        W78199  33.719  39.771   1.267
11417W        W78200   2.670   4.463  14.878
11418W        W78201  20.259  30.879   3.227
11419W        W78202  44.403  14.764   2.679
11420W        W78203  31.667   6.105   5.027
11421W        W78204  22.964   5.450   3.241
11422W        W78205  44.746  19.743  11.254
11423W        W78206  24.489  11.352   0.233
11424W        W78207  41.072   7.854  13.607
11425W        W78208   9.285  28.142   5.289
11426W        W78209   7.898   8.030   4.223
11427W        W78210  38.374  17.205   2.717
11428W        W78211  36.758  17.777   4.637
11429W        W78212  27.142   6.524   4.232
11430W        W78213  14.285  39.464  11.268
11431W        W78214  27.073  30.120   0.380
11432W        W78215   5.263  36.910   0.202
11433W        W78216  21.599   4.903  12.203
11434W        W78217  38.042  18.085  10.965
11435W        W78218  19.342   5.474  14.362
11436W        W78219  20.081  32.855   0.943
11437W        W78220  21.660  14.737  11.560
11438W        W78221  19.341  39.407  12.420
11439W        W78222   2.446  21.883   4.099
11440W        W78223  40.591   4.611  10.138
11441W        W78224  13.177  40.564  14.355
11442W        W78225  12.993  41.915  14.219
11443W        W78226   8.849  12.090  12.653
11444W        W78227   9.324  22.065  11.984
11445W        W78228  43.356  32.256  11.575
11446W        W78229  29.557   9.307  13.626
11447W        W78230  18.126  21.246  11.935
11448W        W78231  39.478   8.639   0.713
11449W        W78232   6.782  16.373  14.270
11450W        W78233  35.486  25.006  12.860
11451W        W78234  34.976  39.848   4.536
11452W        W78235   5.375   7.443  14.010
11453W        W78236  44.436  34.611  10.443
11454W        W78237  28.029  35.104   2.795
11455W        W78238  18.743  15.893   3.203
11456W        W78239   6.724   7.888  12.464
11457W        W78240  24.531  15.614  14.829
11458W        W78241  23.632  30.472   4.372
11459W        W78242   9.176  26.058   1.397
11460W        W78243  14.293  19.838   4.137
11461W        W78244   4.204  42.388   0.821
11462W        W78245  28.070  27.053  10.598
11463W        W78246  17.865  31.218   0.922
11464W        W78247   3.561   9.453   0.239
11465W        W78248  15.593  15.232  11.970
11466W        W78249  26.411  27.464  13.907
11467W        W78250  22.479   7.486  13.255
11468W        W78251   3.709  37.600   4.593
11469W        W78252   4.845  23.115  10.714
11470W        W78253   3.824  42.106   1.042
11471W        W78254  42.373  29.194  13.129
11472W        W78255  16.774  17.774  12.314
11473W        W78256  25.402  43.513  11.984
11474W        W78257  36.871   7.964  14.714
11475W        W78258  35.039  23.507   0.533
11476W        W78259  40.475  34.016   2.054
11477W        W78260   3.405  19.731   2.693
11478W        W78261  32.988   5.310   3.671
11479W        W78262  30.976   8.328   4.621
11480W        W78263  31.247  13.313  14.539
11481W        W78264  23.635  38.519   2.137
11482W        W78265   3.735   3.781  14.512
11483W        W78266  29.492  18.829   2.292
11484W        W78267  10.906   9.338  13.212
11485W        W78268  34.309  38.345   0.734
11486W        W78269  11.708  20.329  13.162
11487W        W78270  27.025  31.565   4.191
11488W        W78271   4.398  26.458  11.343
11489W        W78272   9.111  23.266   0.846
11490W        W78273  31.897  34.546   1.519
11491W        W78274  41.352  32.728  14.425
11492W        W78275   9.220  16.675   4.823
11493W        W78276   0.608  10.772   3.660
11494W        W78277  31.162  37.011   1.293
11495W        W78278  15.859  35.910  12.994
11496W        W78279   3.948   3.494  10.847
11497W        W78280  30.830  37.701   0.732
11498W        W78281  10.886  11.380   4.130
11499W        W78282  37.397  42.025   3.828
11500W        W78283  15.169  29.422   4.001
11501W        W78284   1.409  36.494   2.825
11502W        W78285  24.098  14.494  10.425
11503W        W78286   6.435  18.055  11.749
11504W        W78287  12.826  21.516  14.607
11505W        W78288  24.120  12.316   4.196
11506W        W78289   8.903   4.899  10.679
11507W        W78290   8.800  26.457  11.081
11508W        W78291  22.072  40.261  14.319
11509W        W78292  17.777  30.356  11.988
11510W        W78293  35.513  10.384  12.881
11511W        W78294  40.065   7.195  12.141
11512W        W78295   5.956   4.191   2.858
11513W        W78296   9.750  21.682   3.840
11514W        W78297  21.702  36.962  14.474
11515W        W78298  25.591  21.749   2.369
11516W        W78299  36.227  40.748   3.629
11517W        W78300  44.381  28.140  12.673
11518W        W78301  22.083  21.163   0.290
11519W        W78302  17.873  16.539  13.931
11520W        W78303  40.529  41.078   4.002
11521W        W78304  20.221  32.072   1.831
11522W        W78305   4.624  41.944   4.108
11523W        W78306   6.854  43.875   1.857
11524W        W78307  35.804  31.598   3.526
11525W        W78308  43.457   6.820  14.405
11526W        W78309  19.564   0.438   4.371
11527W        W78310  23.678  32.449  14.857
11528W        W78311   7.510  42.100  13.901
11529W        W78312  26.888  14.008   1.210
11530W        W78313  10.165  25.233   3.432
11531W        W78314   6.873  31.811  11.601
11532W        W78315  31.426  29.609  13.191
11533W        W78316  26.459  39.421  11.559
11534W        W78317  11.338  13.347   3.126
11535W        W78318  41.807  24.113  14.237
11536W        W78319   0.526  18.237   2.746
11537W        W78320  15.613   9.156  11.546
11538W        W78321  42.038  36.351   0.869
11539W        W78322  44.874  11.400   2.799
11540W        W78323  35.954  19.494  13.592
11541W        W78324  42.301   2.301   2.987
11542W        W78325  39.010  42.107   2.347
11543W        W78326  37.479  13.105  12.036
11544W        W78327  27.587  31.821   2.691
11545W        W78328  33.472  25.920   0.966
11546W        W78329  33.947  33.948   3.165
11547W        W78330   8.708  36.543   3.384
11548W        W78331  21.243  41.771   2.881
11549W        W78332  30.805   9.827   3.755
11550W        W78333  18.794  24.061  12.373
11551W        W78334  19.121  11.906  11.053
11552W        W78335  31.037  42.538  13.356
11553W        W78336  28.566  25.117   4.202
11554W        W78337  30.636  38.366  14.068
11555W        W78338  22.527  13.492  10.799
11556W        W78339  23.168   0.660  13.140
11557W        W78340   7.468  39.202   1.531
11558W        W78341  41.396   8.263   1.216
11559W        W78342  41.879  35.014   2.385
11560W        W78343  20.540  40.499   0.034
11561W        W78344  13.855  33.857   2.587
11562W        W78345   8.900  36.319  11.907
11563W        W78346  25.101  27.049  12.601
11564W        W78347  12.996   3.428  11.243
11565W        W78348  11.832  13.854  10.991
11566W        W78349  32.026  38.608  13.572
11567W        W78350  24.124  40.834  12.098
11568W        W78351  21.958  10.277   1.773
11569W        W78352  16.744  23.773   1.311
11570W        W78353  30.179   8.229   0.173
11571W        W78354  29.100  36.944   0.992
11572W        W78355   2.725  15.773  13.920
11573W        W78356  30.729  42.124   1.389
11574W        W78357  29.539  23.702   0.740
11575W        W78358  41.458  12.232  13.129
11576W        W78359  31.532   0.346   3.288
11577W        W78360  27.227  12.323   1.875
11578W        W78361  33.909  30.370   3.120
11579W        W78362  40.944  16.101  11.028
11580W        W78363  27.595  38.724  11.181
11581W        W78364  37.272  18.524   4.148
11582W        W78365  24.793   2.763  11.552
11583W        W78366  44.337  38.559  12.900
11584W        W78367  19.257   0.397  13.184
11585W        W78368  29.009  23.790  12.164
11586W        W78369  36.564  18.762   0.465
11587W        W78370  21.105   2.139  12.627
11588W        W78371   5.483  31.146   0.673
11589W        W78372  15.920  35.220  11.165
11590W        W78373  39.360  31.153  12.598
11591W        W78374  12.386  24.159  13.299
11592W        W78375   2.515  27.547   1.435
11593W        W78376  11.470  33.546   4.388
11594W        W78377  27.365  25.569   4.732
11595W        W78378   8.906  21.261  10.936
11596W        W78379  24.226  21.123   4.502
11597W        W78380   9.276  22.262   4.281
11598W        W78381  29.931  19.805   1.187
11599W        W78382   7.297  18.564  12.251
11600W        W78383  36.386   3.528  12.164
11601W        W78384  44.513  21.545   0.843
11602W        W78385  17.152  13.163   0.741
11603W        W78386  38.069  16.587   3.691
11604W        W78387   0.947  35.962   3.843
11605W        W78388  16.155  32.229  14.434
11606W        W78389  11.128  22.547  13.495
11607W        W78390   0.787  25.241   4.045
11608W        W78391  26.650   0.374   1.527
11609W        W78392  16.617  34.906   0.740
11610W        W78393  31.999   7.806  13.827
11611W        W78394  11.824  28.281  14.306
11612W        W78395  43.552   6.403  14.714
11613W        W78396  42.837  36.306   0.443
11614W        W78397  40.783  13.218   0.282
11615W        W78398  25.912  32.906  14.081
11616W        W78399  29.343  14.902   2.610
11617W        W78400   7.624  32.434   0.001
11618W        W78401  29.346  27.941  11.897
11619W        W78402  11.765   9.591  12.212
11620W        W78403  15.213   0.626   0.740
11621W        W78404  19.355  37.655   3.057
11622W        W78405  28.044  30.677   2.080
11623W        W78406   5.162  19.701   3.949
11624W        W78407  35.969  15.725  10.697
11625W        W78408  15.690  22.317   0.040
11626W        W78409  24.339  43.345   2.247
11627W        W78410  15.796  10.285  13.070
11628W        W78411  36.101  16.096  11.318
11629W        W78412  19.203   1.136  11.932
11630W        W78413  23.919   7.753   4.688
11631W        W78414  26.603  15.003  13.605
11632W        W78415  40.099  35.179  13.388
11633W        W78416  24.422  39.300   4.976
11634W        W78417  18.383  23.893   2.203
11635W        W78418  39.934   9.745  10.658
11636W        W78419  21.938  43.321   2.758
11637W        W78420   3.903  21.512   3.257
11638W        W78421  34.173  22.154  11.402
11639W        W78422  39.102  36.891   3.226
11640W        W78423  24.108  19.968   0.243
11641W        W78424  34.828  10.844   3.351
11642W        W78425  32.860  26.569  14.555
11643W        W78426  39.438  23.441  10.775
11644W        W78427  22.122  15.808  14.038
11645W        W78428  19.867   5.862   0.834
11646W        W78429  40.209  35.495  11.102
11647W        W78430  19.469  11.118  13.526
11648W        W78431  23.579  18.674   1.224
11649W        W78432  12.154  24.189  11.175
11650W        W78433  24.314  30.641   0.738
11651W        W78434  39.224  22.483  10.853
11652W        W78435   5.783  37.819  12.720
11653W        W78436   7.900  23.984  12.482
11654W        W78437  20.315  14.225  13.967
11655W        W78438   8.243  25.577   3.305
11656W        W78439  24.980  32.575  13.986
11657W        W78440  23.986  29.005   4.490
11658W        W78441  13.826   6.369   4.854
11659W        W78442  33.109  39.542  13.334
11660W        W78443  28.423   8.098  14.519
11661W        W78444  28.305  14.728   0.360
11662W        W78445  18.534   7.238   2.347
11663W        W78446  26.642  21.606  13.886
11664W        W78447   0.600  35.335  13.592
11665W        W78448  22.583  18.678   4.536
11666W        W78449  38.823  28.955   2.959
11667W        W78450  26.814  29.854   4.242
11668W        W78451  28.701  16.261  12.074
11669W        W78452  37.026   5.050  10.211
11670W        W78453  23.124  34.290   1.596
11671W        W78454   9.304  19.184  13.815
11672W        W78455  22.550   3.756  13.057
11673W        W78456  44.278  14.666  14.561
11674W        W78457  44.174   9.726   1.012
11675W        W78458  22.508  33.493   3.964
11676W        W78459  19.517  34.000   4.206
11677W        W78460  34.421  20.631  11.790
11678W        W78461  11.778  24.936  11.969
11679W        W78462  28.362  28.120  13.126
11680W        W78463  37.826   6.440  12.522
11681W        W78464  43.205  15.734  13.469
11682W        W78465  29.477   8.879   5.051
11683W        W78466  27.160  27.625  13.462
11684W        W78467  22.109  22.954  14.403
11685W        W78468  41.581  25.864  14.974
11686W        W78469  13.830  34.258   0.396
11687W        W78470   7.292  37.941  12.457
11688W        W78471  30.092  41.892   2.615
11689W        W78472   4.626  40.828   2.910
11690W        W78473  17.700  29.626  14.327
11691W        W78474  11.197  20.782  12.524
11692W        W78475  29.889  17.000  10.307
11693W        W78476   3.830  42.861  10.808
11694W        W78477  26.410  20.113  10.977
11695W        W78478   2.559  44.307  13.919
11696W        W78479   4.775   9.113   1.377
11697W        W78480  28.467  38.884  14.491
11698W        W78481  21.807  19.484  13.954
11699W        W78482  13.202  44.553  12.473
11700W        W78483  23.112  21.121   2.935
11701W        W78484   6.292  36.584   4.552
11702W        W78485  31.128   9.211  12.449
11703W        W78486   7.762  36.803  14.589
11704W        W78487  37.130  36.974   2.849
11705W        W78488  40.841  25.217  13.245
11706W        W78489   9.774  13.089   1.407
11707W        W78490  41.367  38.786   0.387
11708W        W78491  15.550  30.155   1.630
11709W        W78492  21.605  39.981   1.917
11710W        W78493   8.855  18.014   4.949
11711W        W78494  32.012  23.731  13.856
11712W        W78495   8.945   1.046   5.041
11713W        W78496  39.865  28.927   2.994
11714W        W78497  40.870  23.664   3.835
11715W        W78498  21.654   2.183  14.317
11716W        W78499  38.148  21.944   4.336
11717W        W78500  20.465   1.935  12.612
11718W        W78501  29.667  37.400  10.956
11719W        W78502  41.968  21.583   1.688
11720W        W78503  32.430  24.497   1.851
11721W        W78504  40.902   0.985   4.526
11722W        W78505   2.617  36.893  11.254
11723W        W78506  16.162   6.250  11.701
11724W        W78507  13.648  39.905  10.642
11725W        W78508  18.303  27.629  12.380
11726W        W78509  34.078  31.839   3.194
11727W        W78510  26.613   9.804  13.197
11728W        W78511   6.157   3.793   1.969
11729W        W78512  28.925  34.368   0.049
11730W        W78513  37.602   3.364  11.661
11731W        W78514  16.350  24.924   0.313
11732W        W78515  35.056  43.578   3.331
11733W        W78516  41.432  22.749  13.515
11734W        W78517  12.799  27.957  14.331
11735W        W78518  26.753  35.912  14.373
11736W        W78519  28.107  19.344  13.510
11737W        W78520  34.120   3.191  10.771
11738W        W78521  35.366   2.724  13.481
11739W        W78522  18.846   2.442   3.681
11740W        W78523  35.550  42.874   2.799
11741W        W78524  44.281  32.019   1.172
11742W        W78525  20.078   8.294   4.676
11743W        W78526  29.715  15.071  14.908
11744W        W78527   7.164  27.191   3.744
11745W        W78528  42.804  40.622   4.548
11746W        W78529  18.590  32.939  12.449
11747W        W78530  22.547  39.216  11.641
11748W        W78531  30.094  22.527  14.210
11749W        W78532  43.000  15.182   2.773
11750W        W78533  23.680  38.521   1.259
11751W        W78534   6.474  36.314   1.327
11752W        W78535  43.954  42.556   4.952
11753W        W78536  40.955  42.649  13.552
11754W        W78537  34.546   2.323   3.342
11755W        W78538  33.941  16.409  10.678
11756W        W78539  15.722  14.204   3.224
11757W        W78540   0.274   0.211  13.980
11758W        W78541  36.369  32.497   2.610
11759W        W78542  41.445  29.529   1.930
11760W        W78543  38.257  37.151  11.462
11761W        W78544   0.802   8.119  13.249
11762W        W78545   4.880  43.500  14.955
11763W        W78546  28.772  40.227   1.692
11764W        W78547  39.240  20.965   1.382
11765W        W78548  29.909  13.600  14.851
11766W        W78549  13.310  19.262  11.966
11767W        W78550   2.787   9.459  14.976
11768W        W78551  31.630  15.115   0.780
11769W        W78552   4.694   0.787   5.035
11770W        W78553  24.102  12.918  11.303
11771W        W78554   0.728  25.645   2.795
11772W        W78555  43.809  14.169   1.402
11773W        W78556  42.935  10.234   0.575
11774W        W78557   0.827   7.322  12.030
11775W        W78558  31.520  15.855  14.833
11776W        W78559  42.898  44.055   5.118
11777W        W78560   2.456  18.627  13.359
11778W        W78561   1.059  28.119  12.115
11779W        W78562  44.831  31.936  14.983
11780W        W78563   0.276  42.778  12.142
11781W        W78564  27.625  33.805   3.762
11782W        W78565   8.240  29.631   1.038
11783W        W78566  33.823  37.269   2.120
11784W        W78567  15.607  18.091   0.551
11785W        W78568  17.582   7.902  11.964
11786W        W78569  42.236  33.749   0.077
11787W        W78570  23.317  33.401   0.836
11788W        W78571   8.745  11.285  13.830
11789W        W78572  41.893  27.011   3.332
11790W        W78573  40.767  23.025  11.138
11791W        W78574  13.657  22.972   2.838
11792W        W78575  21.127   4.141  12.443
11793W        W78576  34.564   8.645   3.694
11794W        W78577  20.174  42.597   3.500
11795W        W78578  42.818  39.809   0.358
11796W        W78579  33.973  15.176   1.758
11797W        W78580  39.596  22.839  13.520
11798W        W78581   7.411  14.532  10.794
11799W        W78582  21.140  11.605   1.175
11800W        W78583  32.808  41.018  14.920
11801W        W78584  43.864   3.644  13.119
11802W        W78585  21.041  41.183  11.448
11803W        W78586  22.794  16.976  12.289
11804W        W78587   4.394  25.963  11.521
11805W        W78588  28.070  22.251  12.476
11806W        W78589   5.034  27.462  12.068
11807W        W78590  17.328   2.970   3.307
11808W        W78591  10.759  34.030  12.963
11809W        W78592   9.663  10.803   1.259
11810W        W78593  15.117  10.375  14.291
11811W        W78594  26.428  35.975  10.488
11812W        W78595  37.739  34.729  12.343
11813W        W78596   5.272  12.620  14.294
11814W        W78597  23.238  10.899   3.100
11815W        W78598  15.698  15.200   1.410
11816W        W78599  13.550  31.388   0.078
11817W        W78600  36.474  34.413   1.287
11818W        W78601  31.397  37.632  11.122
11819W        W78602   0.841  44.347   1.988
11820W        W78603  34.361  12.638   1.154
11821W        W78604  13.121  23.624  11.642
11822W        W78605   7.310   7.192  10.989
11823W        W78606  30.231  31.961   3.252
11824W        W78607   2.058  31.240  13.882
11825W        W78608   0.835  37.952   4.785
11826W        W78609  36.786   1.753  13.874
11827W        W78610  33.561   4.946  10.833
11828W        W78611   4.155   2.089  13.502
11829W        W78612  44.724  30.323  11.915
11830W        W78613  11.876  34.427  14.464
11831W        W78614   6.690   7.662   3.666
11832W        W78615  32.458  30.433  14.333
11833W        W78616  28.119  20.594   5.002
11834W        W78617  25.554  44.468  14.201
11835W        W78618  15.941  24.924   3.012
11836W        W78619  24.078  43.725  11.047
11837W        W78620  29.506  30.310   4.996
11838W        W78621  12.483  32.401   0.344
11839W        W78622  22.229  13.343  14.093
11840W        W78623  42.839  35.971  14.753
11841W        W78624  33.852   6.334  14.978
11842W        W78625  43.036   6.977  11.545
11843W        W78626   6.754  19.185   3.735
11844W        W78627  41.022  37.375   4.436
11845W        W78628  28.514  40.462  11.414
11846W        W78629  32.859  25.686  13.927
11847W        W78630   0.396  30.972   1.772
11848W        W78631  37.329  25.907   4.067
11849W        W78632  39.677  28.447   3.089
11850W        W78633  33.067   6.249  11.860
11851W        W78634  22.031  31.510  10.330
11852W        W78635  12.574  33.112  12.380
11853W        W78636  42.352  22.300  13.563
11854W        W78637  21.111  30.421  11.113
11855W        W78638  31.048  27.382  13.169
11856W        W78639  18.052  32.219   0.541
11857W        W78640   1.442   2.185  14.863
11858W        W78641  23.670  19.477   3.165
11859W        W78642   1.454  21.962  10.676
11860W        W78643  11.323  34.566   4.497
11861W        W78644  20.349  10.925   4.276
11862W        W78645  26.482  18.152  10.735
11863W        W78646  14.380  18.248   2.780
11864W        W78647  41.989  11.614   4.917
11865W        W78648  43.359  34.429  11.128
11866W        W78649   7.106  44.673   4.698
11867W        W78650  19.174  41.488   4.245
11868W        W78651  39.954  21.657   1.434
11869W        W78652  33.408  27.040   2.258
11870W        W78653   1.375   8.083  12.811
11871W        W78654  42.700  24.144   3.188
11872W        W78655   2.580   5.897  11.999
11873W        W78656  10.411  40.129   4.157
11874W        W78657  29.608  41.218  11.109
11875W        W78658  33.074  29.109   2.381
11876W        W78659  18.308   4.890   1.284
11877W        W78660  35.471  14.553   1.917
11878W        W78661  33.944  14.634   4.105
11879W        W78662  34.955  44.303   0.384
11880W        W78663  40.379  21.830   4.849
11881W        W78664  28.533  16.336   1.451
11882W        W78665  16.702  10.656  10.925
11883W        W78666  28.099   7.350   2.765
11884W        W78667  10.215  12.879   4.102
11885W        W78668  33.887  25.945   0.606
11886W        W78669   1.901  19.246  13.706
11887W        W78670  40.810  11.753   3.592
11888W        W78671  11.166  13.276   4.690
11889W        W78672  29.739   5.185  13.301
11890W        W78673  27.942   6.820   1.644
11891W        W78674  38.906  18.493   2.625
11892W        W78675  32.325  39.005  14.318
11893W        W78676   0.725  22.861  11.693
11894W        W78677  18.805   0.044  13.099
11895W        W78678   4.524  13.845  13.820
11896W        W78679  21.579  27.430   2.408
11897W        W78680  10.720   0.821  12.855
11898W        W78681  27.742   5.065  11.387
11899W        W78682  13.265  34.661  12.374
11900W        W78683  39.032  16.805  11.546
11901W        W78684  16.448  27.620   3.619
11902W        W78685  32.134  39.786   2.257
11903W        W78686  28.926  18.471   3.636
11904W        W78687  16.416  14.227   4.076
11905W        W78688   6.752  39.979   1.143
11906W        W78689   0.652  41.969  12.878
11907W        W78690  29.470  34.352  10.568
11908W        W78691  26.902  28.597  10.920
11909W        W78692  21.473   6.199  13.416
11910W        W78693   1.275  13.218   4.507
11911W        W78694  21.576  23.476   2.348
11912W        W78695  30.988  30.625  14.531
11913W        W78696  12.855  19.057  11.903
11914W        W78697  33.678  32.678   1.329
11915W        W78698  23.841   6.430  10.220
11916W        W78699  35.435   0.382   4.174
11917W        W78700  18.548  29.864  12.451
11918W        W78701  29.421  39.912   4.328
11919W        W78702   5.387   1.384   0.346
11920W        W78703  12.707  31.761  11.116
11921W        W78704  40.079  26.748  10.733
11922W        W78705   5.390  24.230   0.890
11923W        W78706  27.585   7.835   1.744
11924W        W78707  16.319  24.589   2.914
11925W        W78708  29.037   8.245   0.669
11926W        W78709   9.446  30.559   3.764
11927W        W78710   6.199  29.663   4.583
11928W        W78711  44.202  41.633   1.316
11929W        W78712  44.364  30.731   3.401
11930W        W78713  16.821  14.173   2.613
11931W        W78714  14.754  31.089  12.478
11932W        W78715  33.374  41.955   2.078
11933W        W78716   8.253  35.938  12.488
11934W        W78717  43.121   1.698  11.425
11935W        W78718  27.925  33.709  12.791
11936W        W78719   6.409  29.466  13.022
11937W        W78720   4.280  11.719   0.721
11938W        W78721   9.838  32.473  13.311
11939W        W78722   7.744   6.465   1.283
11940W        W78723  37.963  30.439  14.727
11941W        W78724  21.371  13.396  14.292
11942W        W78725  25.461  28.625  11.154
11943W        W78726  43.964  30.934  14.719
11944W        W78727   3.599   7.648   2.875
11945W        W78728  29.508  29.616  14.775
11946W        W78729  36.577  30.937   0.740
11947W        W78730  12.152  37.439   0.114
11948W        W78731  11.121  15.395  11.411
11949W        W78732  29.941   0.404   2.251
11950W        W78733  43.804   1.287   2.563
11951W        W78734  20.212  24.462   1.705
11952W        W78735  21.254  24.577   0.797
11953W        W78736  44.751  39.054  11.148
11954W        W78737   4.933  26.927   2.926
11955W        W78738   3.307  35.637   1.257
11956W        W78739  10.119  16.878   1.329
11957W        W78740   9.368  12.666   3.110
11958W        W78741   5.301  30.341  11.173
11959W        W78742   1.013   5.529  11.588
11960W        W78743  16.168  40.978   2.755
11961W        W78744  40.881  36.817   1.273
11962W        W78745  10.043   0.515   0.953
11963W        W78746  28.775  27.975   2.130
11964W        W78747  36.395  28.506   4.149
11965W        W78748   7.989  20.731  12.036
11966W        W78749  11.325  38.987  13.414
11967W        W78750  11.326  28.456  14.385
11968W        W78751  13.631  23.551  13.481
11969W        W78752  37.431  20.542  13.554
11970W        W78753  36.704  18.251  10.811
11971W        W78754  21.027  24.670  10.506
11972W        W78755  30.842  22.622   3.778
11973W        W78756  19.323  10.737  12.717
11974W        W78757  30.422  37.029  14.265
11975W        W78758   2.845  18.166  14.851
11976W        W78759  11.345  42.888   3.610
11977W        W78760   7.688  40.594   0.765
11978W        W78761  23.656  11.913   0.970
11979W        W78762  19.983  27.464  11.219
11980W        W78763   4.031  39.794  10.814
11981W        W78764  12.191  43.450  12.037
11982W        W78765  26.044   1.495   1.223
11983W        W78766  21.950  36.391   4.057
11984W        W78767  27.275   7.835   4.503
11985W        W78768  20.458  26.409  11.147
11986W        W78769  14.350  27.477   4.573
11987W        W78770  44.989  13.199   2.444
11988W        W78771  15.364  27.321  13.107
11989W        W78772  17.604  28.955   4.070
11990W        W78773   3.462   3.962   0.769
11991W        W78774  12.848   1.887   0.933
11992W        W78775   7.476  36.518   2.746
11993W        W78776  17.320  29.066  10.311
11994W        W78777  20.679  17.918   0.082
11995W        W78778  44.510  35.470   1.172
11996W        W78779  23.039   0.505   1.972
11997W        W78780   4.819  32.137   2.779
11998W        W78781  24.771   5.424   2.784
11999W        W78782  10.175  29.892   2.822
12000W        W78783  44.277  12.831  14.100
12001W        W78784  26.248  14.042  14.259
12002W        W78785   8.644  41.856  12.095
12003W        W78786   1.796  38.150   3.272
12004W        W78787  38.983  14.412  12.058
12005W        W78788  41.894  27.690  14.368
12006W        W78789  23.753  23.551  13.506
12007W        W78790   7.230   7.182   0.262
12008W        W78791  10.701  44.922  14.236
12009W        W78792   4.731   5.891  12.055
12010W        W78793  36.032  19.910   9.863
12011W        W78794  27.259   5.264  12.013
12012W        W78795  35.902  13.342  10.685
12013W        W78796  31.101  26.841  12.433
12014W        W78797  10.109  23.833  14.314
12015W        W78798  21.790   6.402  10.687
12016W        W78799  38.979  30.167   4.313
12017W        W78800  12.925  29.409   2.817
12018W        W78801  44.352  25.456  12.973
12019W        W78802  42.913   2.222   0.123
12020W        W78803  37.725  36.784   2.271
12021W        W78804   5.121  41.830   4.189
12022W        W78805  11.079   1.747  11.602
12023W        W78806  37.321   9.823   2.204
12024W        W78807  34.173   3.943   0.914
12025W        W78808   1.429  10.874  14.331
12026W        W78809  37.357  24.602   1.678
12027W        W78810  31.659  38.733   2.608
12028W        W78811  34.693  43.927   2.313
12029W        W78812  41.774  21.684  14.681
12030W        W78813  36.401  36.023   0.250
12031W        W78814  27.157  34.055  11.383
12032W        W78815  30.441  17.601   0.286
12033W        W78816  13.589  24.649  12.000
12034W        W78817  39.510  10.302   1.125
12035W        W78818   9.783   7.130   3.680
12036W        W78819  19.290   5.906  12.541
12037W        W78820   2.287   4.676  13.205
12038W        W78821   1.216  28.900   1.076
12039W        W78822  13.131  27.706   2.423
12040W        W78823   2.497  26.771  12.953
12041W        W78824  30.003  37.048  12.056
12042W        W78825  11.611  15.986   3.336
12043W        W78826  37.090   1.008   1.320
12044W        W78827   5.484   7.108   4.084
12045W        W78828  16.629  16.287  11.422
12046W        W78829  37.556  34.130   1.727
12047W        W78830  32.348  41.265  14.777
12048W        W78831  41.007   5.412  10.861
12049W        W78832  22.942  35.095   3.206
12050W        W78833  19.390  29.066   0.973
12051W        W78834  30.179  25.969   2.793
12052W        W78835  19.634  38.412   3.612
12053W        W78836  36.575  30.166   2.698
12054W        W78837   3.805  22.295   4.625
12055W        W78838  12.121  42.102  11.493
12056W        W78839  34.111  22.015   1.389
12057W        W78840  17.077  23.750   1.748
12058W        W78841  19.196  19.695   2.715
12059W        W78842  29.588  43.424   0.828
12060W        W78843   5.740  44.912   0.376
12061W        W78844  22.396   7.939  12.037
12062W        W78845  21.456   8.872   0.535
12063W        W78846  15.276  15.332   2.175
12064W        W78847   5.329   1.965   1.233
12065W        W78848  23.612  40.830  12.841
12066W        W78849  40.808  32.446  13.654
12067W        W78850  30.723   4.912   3.117
12068W        W78851  23.246  10.092  10.314
12069W        W78852   0.480  16.099   4.133
12070W        W78853  36.055  32.100   0.882
12071W        W78854   9.402  44.986  12.855
12072W        W78855  36.258  33.437  14.389
12073W        W78856  41.912  39.532  10.824
12074W        W78857  29.937   7.221  12.915
12075W        W78858  44.449  19.497  12.962
12076W        W78859  28.966   6.761  14.891
12077W        W78860   2.983  33.898   1.210
12078W        W78861  41.490  15.675   2.932
12079W        W78862  14.459  27.573  14.404
12080W        W78863  20.642  24.447   4.179
12081W        W78864  38.908  21.665  13.888
12082W        W78865  14.400  40.026  13.474
12083W        W78866  28.612   8.948   3.147
12084W        W78867  11.692  30.553  12.622
12085W        W78868  30.100  39.617  12.821
12086W        W78869   7.936  17.147  12.458
12087W        W78870   1.337   4.620  14.915
12088W        W78871  37.637  37.492   1.365
12089W        W78872   3.975   6.917   4.889
12090W        W78873  17.272  39.896  14.864
12091W        W78874  11.784   4.191   3.313
12092W        W78875  19.725  13.297   0.098
12093W        W78876  32.535  27.716  13.816
12094W        W78877  12.896  14.935   1.986
12095W        W78878  37.278  10.220   4.469
12096W        W78879  23.143   0.470   3.356
12097W        W78880  13.726   0.861  14.029
12098W        W78881  43.422  11.732   1.279
12099W        W78882  16.944  21.211   5.044
12100W        W78883  41.974  15.884  11.682
12101W        W78884   6.918  26.016  13.502
12102W        W78885   3.703  43.382  13.814
12103W        W78886   7.891  37.485  14.113
12104W        W78887  19.111   2.528   0.057
12105W        W78888  10.749  34.343  13.379
12106W        W78889  35.906  32.465   3.638
12107W        W78890  30.475  18.105  13.571
12108W        W78891  32.880  18.084   3.716
12109W        W78892   1.687   8.959   2.790
12110W        W78893  38.585  11.167   3.169
12111W        W78894  12.916  11.774  14.348
12112W        W78895  29.577  16.571  14.776
12113W        W78896   6.639   3.852  12.547
12114W        W78897  25.956  26.605   2.228
12115W        W78898  26.409  33.011  10.720
12116W        W78899  32.884  11.476   3.632
12117W        W78900  34.994  31.705   3.200
12118W        W78901   9.753  13.422   0.431
12119W        W78902  19.856   5.782  12.565
12120W        W78903  22.037  21.205  13.509
12121W        W78904  19.784  35.117   0.773
12122W        W78905  31.545  16.661  14.329
12123W        W78906   0.209  42.929   4.554
12124W        W78907  17.747  30.925   4.052
12125W        W78908  33.136  27.524  11.081
12126W        W78909   7.237  43.495   3.336
12127W        W78910  42.247  38.974   0.382
12128W        W78911   3.140  36.520  11.624
12129W        W78912  33.585   8.729  10.703
12130W        W78913  18.078   9.313  13.135
12131W        W78914  29.950  32.873   2.933
12132W        W78915  29.151  18.285  12.837
12133W        W78916  15.770  41.756  11.565
12134W        W78917  42.124  24.432   4.671
12135W        W78918  19.147  40.268   1.126
12136W        W78919   5.444  12.742  12.954
12137W        W78920  12.842   5.676  11.155
12138W        W78921  11.233  27.958   3.358
12139W        W78922   8.176  36.842   2.220
12140W        W78923  16.931  31.446  11.593
12141W        W78924  23.255  35.132   1.691
12142W        W78925   6.693  15.206  11.142
12143W        W78926   0.189  21.611  11.630
12144W        W78927   2.190  29.216   4.604
12145W        W78928  25.267   2.920  11.018
12146W        W78929  38.812  10.796   3.819
12147W        W78930  44.200  15.798  13.564
12148W        W78931  14.453   7.039   5.098
12149W        W78932   5.659   6.636   2.259
12150W        W78933  13.718   1.489   1.779
12151W        W78934   0.457  10.756  14.740
12152W        W78935  41.001  33.092   4.649
12153W        W78936   5.176   0.722   0.860
12154W        W78937  41.769  40.914   3.752
12155W        W78938   8.915   0.831   4.476
12156W        W78939  20.630  31.112  12.607
12157W        W78940  33.615   3.861  12.355
12158W        W78941   6.251   6.822   0.420
12159W        W78942  36.004  35.643  12.534
12160W        W78943  29.411  39.457  11.500
12161W        W78944  17.095  36.522  12.765
12162W        W78945  10.989  36.470  13.955
12163W        W78946  12.247   9.725   3.020
12164W        W78947   5.150   0.047   2.704
12165W        W78948  32.895  42.957  12.114
12166W        W78949  14.138  13.265   0.703
12167W        W78950  30.103  37.090  12.920
12168W        W78951  20.618  26.050  12.849
12169W        W78952  10.384  18.510  12.131
12170W        W78953  19.470  34.252  14.944
12171W        W78954  31.954  14.114  13.914
12172W        W78955  24.507  21.631   1.301
12173W        W78956  18.242   3.955  14.437
12174W        W78957  26.542  33.401   4.734
12175W        W78958  41.785  14.337  11.608
12176W        W78959  10.046  10.389   0.447
12177W        W78960  37.499  17.820   3.624
12178W        W78961  28.620   9.318  14.049
12179W        W78962  37.173  18.536  14.380
12180W        W78963  27.655  37.861   3.046
12181W        W78964   8.199  24.017   3.442
12182W        W78965  43.245   6.217   4.982
12183W        W78966  41.532   8.170  13.081
12184W        W78967  22.150   3.283  13.766
12185W        W78968   6.115  18.092   0.837
12186W        W78969   8.302   9.361   4.911
12187W        W78970  16.991  43.468  12.010
12188W        W78971  16.164  30.274   4.715
12189W        W78972  31.971  23.752   2.702
12190W        W78973  22.246  17.485  11.332
12191W        W78974  43.166  33.064   0.696
12192W        W78975  13.279  30.468   2.230
12193W        W78976  27.986  38.059  10.842
12194W        W78977  40.009  18.669   2.360
12195W        W78978  21.720  38.510   2.673
12196W        W78979  40.925   1.113  12.222
12197W        W78980  26.312  35.680   4.887
12198W        W78981  34.753  35.939  13.684
12199W        W78982   0.592  11.301   2.346
12200W        W78983  27.448   1.045   4.105
12201W        W78984   4.322  14.060  12.714
12202W        W78985  17.023   9.320  11.473
12203W        W78986  19.716   1.495   3.232
12204W        W78987   6.012  11.600   2.870
12205W        W78988  42.730  39.923  10.807
12206W        W78989   8.856  18.615  10.686
12207W        W78990  15.682  35.584   0.812
12208W        W78991   7.670  24.791  12.908
12209W        W78992  24.899  36.084  10.615
12210W        W78993  18.563   5.298   2.003
12211W        W78994  21.138  42.819   1.994
12212W        W78995  20.456   6.421  13.820
12213W        W78996  43.891  36.932   1.928
12214W        W78997  34.060  35.609   3.109
12215W        W78998  28.694  41.820  14.964
12216W        W78999  28.565  16.916  12.926
12217W        W79000   4.420   6.852  10.979
12218W        W79001   4.644  32.477   0.018
12219W        W79002  40.511  43.279   2.545
12220W        W79003  40.496  16.273  12.110
12221W        W79004  34.075   5.869  11.709
12222W        W79005  25.677  27.406  10.721
12223W        W79006  35.631  33.947  11.967
12224W        W79007  23.197  10.086  14.924
12225W        W79008  11.211  34.537  13.992
12226W        W79009  17.778   0.873   1.921
12227W        W79010  18.167  41.819   4.133
12228W        W79011  40.504  22.148  14.960
12229W        W79012  44.030   9.280  13.590
12230W        W79013  12.854  34.721  14.296
12231W        W79014  38.558  11.731  13.087
12232W        W79015  20.116  19.513  10.692
12233W        W79016  37.947   0.398   2.306
12234W        W79017  15.115  31.835   3.365
12235W        W79018  17.372  38.516   0.378
12236W        W79019  19.599  15.016   3.458
12237W        W79020  36.400  34.885   2.987
12238W        W79021  25.152  30.675   3.803
12239W        W79022  33.007  28.656   1.321
12240W        W79023   7.393  44.492   1.328
12241W        W79024  23.029  42.899   3.236
12242W        W79025   1.006  19.187  11.715
12243W        W79026  27.393  12.292   0.453
12244W        W79027  22.570  29.559  12.198
12245W        W79028  29.606  38.051  11.427
12246W        W79029  17.524  38.264  14.753
12247W        W79030  35.997  34.996  12.957
12248W        W79031   5.564  20.357  14.414
12249W        W79032  26.619  36.623   5.082
12250W        W79033   4.568  29.549   4.939
12251W        W79034   2.404  18.985  12.555
12252W        W79035  26.320  16.476   4.557
12253W        W79036  40.626  24.535  11.228
12254W        W79037   7.738  13.478  14.393
12255W        W79038   5.844   5.535   0.862
12256W        W79039  43.964  23.018   1.141
12257W        W79040  28.483  44.837   4.885
12258W        W79041  44.883  24.339  12.220
12259W        W79042  40.473   5.390   3.116
12260W        W79043  10.616   7.801  13.722
12261W        W79044  31.741   6.966   3.780
12262W        W79045  13.493  26.123  14.189
12263W        W79046  29.111  37.740  11.540
12264W        W79047  35.350  42.785  10.670
12265W        W79048  39.272   0.280  14.799
12266W        W79049  25.090  37.254   5.065
12267W        W79050  22.731  37.098   4.723
12268W        W79051  42.077  27.693  12.463
12269W        W79052  17.598   0.895  14.904
12270W        W79053  40.262  14.081   1.213
12271W        W79054  29.983  42.224   3.771
12272W        W79055  42.482  35.858  10.778
12273W        W79056  20.169   1.758   3.159
12274W        W79057   0.446  27.976  13.506
12275W        W79058   8.264   7.916   4.545
12276W        W79059  32.465   8.748  11.604
12277W        W79060   2.523  33.008   2.350
12278W        W79061  32.543  34.001  11.584
12279W        W79062   8.431  15.622  12.867
12280W        W79063   0.396  27.860   2.855
12281W        W79064  14.323  34.465   0.980
12282W        W79065   7.674  44.566  12.919
12283W        W79066  19.712  30.377  12.156
12284W        W79067  42.710  22.562  12.249
12285W        W79068  23.704  17.334   4.308
12286W        W79069   1.452  41.360  14.395
12287W        W79070  42.838  17.793   1.463
12288W        W79071  43.200  36.269  10.271
12289W        W79072  43.822   9.653  12.548
12290W        W79073  41.961  10.969   3.005
12291W        W79074  22.221  29.086   1.057
12292W        W79075  16.766  34.378  13.362
12293W        W79076   1.884   7.351  10.420
12294W        W79077  40.769  33.013   3.346
12295W        W79078  22.709  22.137  12.508
12296W        W79079  44.978   0.742   0.768
12297W        W79080  28.359  28.139  11.391
12298W        W79081  35.358  26.876  12.946
12299W        W79082   3.205  43.218  14.317
12300W        W79083  23.742  22.640  10.224
12301W        W79084  31.601   0.066   4.166
12302W        W79085   5.889  39.858  10.467
12303W        W79086   2.416  15.678  14.358
12304W        W79087   4.256  32.409   0.978
12305W        W79088  32.941  15.167   1.481
12306W        W79089  31.524  33.584   4.595
12307W        W79090  20.160  30.391   3.233
12308W        W79091  31.694  10.224   3.658
12309W        W79092  24.669  23.144  10.680
12310W        W79093  40.863  15.850  13.286
12311W        W79094  26.644   1.761  14.620
12312W        W79095  33.075   7.773  12.638
12313W        W79096   1.462   0.982   0.907
12314W        W79097  43.406  17.577   1.031
12315W        W79098  12.946  28.687   3.801
12316W        W79099  14.709  16.146  14.211
12317W        W79100  38.164  16.790  14.302
12318W        W79101  14.214  34.544   1.957
12319W        W79102  19.318  33.492  10.741
12320W        W79103  33.480  15.402  13.861
12321W        W79104  28.669  29.164   2.834
12322W        W79105  30.084  39.788   1.996
12323W        W79106  12.142   1.487   4.092
12324W        W79107  12.097   0.482  10.769
12325W        W79108  13.585  31.505   2.148
12326W        W79109  15.265  16.963   2.868
12327W        W79110   3.567  19.557   3.245
12328W        W79111  41.700  13.468  13.513
12329W        W79112  10.781  37.795  12.482
12330W        W79113  17.280  16.169   3.642
12331W        W79114  10.456   5.489   4.971
12332W        W79115  41.569   3.693   4.693
12333W        W79116  21.257  26.443  14.267
12334W        W79117  25.507  36.144  13.583
12335W        W79118  32.977   3.403  11.944
12336W        W79119  25.589  32.415  10.580
12337W        W79120  32.314  37.006  12.536
12338W        W79121  20.120   9.549   0.451
12339W        W79122  22.857  32.498  12.145
12340W        W79123  31.185  12.076  14.854
12341W        W79124  36.264  16.767   2.182
12342W        W79125  30.721  18.638   3.581
12343W        W79126  11.241   6.637  12.596
12344W        W79127  24.756   9.692  11.924
12345W        W79128  17.462  43.123   4.925
12346W        W79129  30.031  19.935   2.970
12347W        W79130  32.719  25.713   1.329
12348W        W79131   2.174  29.068  14.919
12349W        W79132   5.292   1.726  12.068
12350W        W79133  20.093  20.277   3.772
12351W        W79134  17.835  37.926  11.602
12352W        W79135  31.256  19.509  13.043
12353W        W79136  42.998   8.923   4.147
12354W        W79137  27.086  30.489   3.735
12355W        W79138  16.142   1.085   3.317
12356W        W79139   1.283  29.132  14.293
12357W        W79140   6.468  15.644   4.002
12358W        W79141  36.809  20.123  13.893
12359W        W79142  28.973   1.063  14.439
12360W        W79143   7.231  28.352   1.375
12361W        W79144   0.518  44.337  14.862
12362W        W79145  30.519  21.282  11.481
12363W        W79146  42.156  24.441   0.849
12364W        W79147  22.236   7.634  14.465
12365W        W79148  16.265  14.936   3.058
12366W        W79149  36.505  22.606   4.562
12367W        W79150  41.982   6.611  14.286
12368W        W79151  14.097  30.085  11.247
12369W        W79152  17.465   6.110  12.467
12370W        W79153  33.240  13.683  14.888
12371W        W79154  31.386  31.059  12.912
12372W        W79155  26.950  32.835  10.687
12373W        W79156  38.053  19.860   2.471
12374W        W79157  14.386  29.698   2.215
12375W        W79158   0.184   0.069   2.864
12376W        W79159   2.793  43.276  10.801
12377W        W79160  42.296  21.969  10.652
12378W        W79161  41.580  12.300   0.031
12379W        W79162  34.681   2.724  10.778
12380W        W79163  29.703  39.741  11.173
12381W        W79164  12.314  35.369  12.902
12382W        W79165  32.875  34.418   3.313
12383W        W79166  37.046  34.412   3.434
12384W        W79167  35.577   3.183   4.605
12385W        W79168  26.493   4.271  11.110
12386W        W79169   1.239  16.554   1.904
12387W        W79170   7.824  22.797  13.977
12388W        W79171  17.106  36.906  13.094
12389W        W79172  25.607   5.211   5.517
12390W        W79173   5.757  18.803   2.447
12391W        W79174  33.704  40.686  10.511
12392W        W79175  22.800  44.801   2.866
12393W        W79176  29.195  34.902  11.662
12394W        W79177  30.699  14.118   4.568
12395W        W79178   6.233   7.649  12.485
12396W        W79179   4.072  38.477   4.153
12397W        W79180  22.566  22.147   0.286
12398W        W79181   8.444  23.281   4.175
12399W        W79182  31.118  20.593  13.109
12400W        W79183  15.186  40.722   5.240
12401W        W79184  26.198  21.774   2.659
12402W        W79185   0.945  39.413   2.742
12403W        W79186  23.974  43.118   0.828
12404W        W79187  33.411  16.856  11.243
12405W        W79188  31.006   6.840  11.501
12406W        W79189  22.756  44.311  14.768
12407W        W79190  10.609   1.896  10.263
12408W        W79191  34.864   9.278  13.174
12409W        W79192  34.996  37.783   2.812
12410W        W79193  29.219  36.114   2.929
12411W        W79194  29.169   9.794  12.951
12412W        W79195  34.148   5.821  11.208
12413W        W79196  25.719  14.328  10.261
12414W        W79197  18.136   6.369   0.733
12415W        W79198   4.747  11.693  14.994
12416W        W79199  27.065  26.994   1.852
12417W        W79200  35.628  24.198   4.169
12418W        W79201   2.466  21.540   5.019
12419W        W79202  33.388  20.199   1.867
12420W        W79203  40.309  38.939   0.945
12421W        W79204   7.887   4.257  14.281
12422W        W79205  17.689  12.917  14.508
12423W        W79206  22.074   4.089   3.344
12424W        W79207  22.527  24.225   4.020
12425W        W79208   8.358  20.260   0.962
12426W        W79209  18.100   0.465   0.473
12427W        W79210  35.872  29.618   2.838
12428W        W79211  18.515  21.608  11.823
12429W        W79212  36.037   2.134   4.454
12430W        W79213  19.861  27.357  12.661
12431W        W79214  24.531  33.986   3.357
12432W        W79215  44.362  14.815  11.535
12433W        W79216  35.661  25.488   0.741
12434W        W79217  19.075  15.248   2.329
12435W        W79218   1.019  24.583  10.463
12436W        W79219   3.395  40.120  11.549
12437W        W79220  32.515  15.792  13.756
12438W        W79221   0.784  36.520   4.676
12439W        W79222  24.862  30.481   1.481
12440W        W79223   0.164  29.270  13.284
12441W        W79224   6.915  13.969  11.304
12442W        W79225  12.267  14.116   3.068
12443W        W79226  28.750  22.919  13.376
12444W        W79227   2.673  44.288  11.562
12445W        W79228  37.401  42.431  12.537
12446W        W79229  23.987  13.323  12.918
12447W        W79230  30.622  22.706   1.136
12448W        W79231  23.444  23.005  11.124
12449W        W79232  25.768   2.345   1.958
12450W        W79233  31.605  28.942   4.341
12451W        W79234  20.658  30.139   4.321
12452W        W79235  35.027   4.189  12.453
12453W        W79236  24.048  27.275   3.669
12454W        W79237   9.810   9.626  11.056
12455W        W79238  26.076  34.418   0.365
12456W        W79239  15.226  23.052  10.703
12457W        W79240  36.071  36.816   3.570
12458W        W79241  31.104   2.268  11.981
12459W        W79242  38.959  15.711   2.138
12460W        W79243  29.222  33.031  10.741
12461W        W79244  19.193  42.284   1.220
12462W        W79245   7.328  25.953  11.280
12463W        W79246   1.792   2.624  13.607
12464W        W79247  28.374   9.238   2.746
12465W        W79248  13.345   4.838   4.483
12466W        W79249  35.446  41.477  14.441
12467W        W79250  30.973   7.865   3.732
12468W        W79251  42.285  12.347   0.415
12469W        W79252   7.916  34.972   0.267
12470W        W79253  40.391   6.121   3.722
12471W        W79254   6.214  14.784  10.447
12472W        W79255  37.537  15.351  10.577
12473W        W79256   1.505  18.173  10.805
12474W        W79257   9.773  18.680   0.427
12475W        W79258  19.201   4.736  14.968
12476W        W79259  37.287   8.401  14.848
12477W        W79260  32.700  14.776   1.259
12478W        W79261  38.336  15.414   5.125
12479W        W79262  21.962  29.300  12.853
12480W        W79263  36.922  36.245   2.318
12481W        W79264  39.562  13.788   0.418
12482W        W79265  41.811   5.669  12.040
12483W        W79266  25.614   3.299   2.305
12484W        W79267  11.036   6.456   4.919
12485W        W79268  35.089  33.584  12.919
12486W        W79269   7.742   9.759   4.815
12487W        W79270  29.349  15.772   4.109
12488W        W79271  22.836   1.865   1.868
12489W        W79272   7.062  43.855  13.339
12490W        W79273   0.315  36.393   4.509
12491W        W79274  17.858  15.838   3.473
12492W        W79275  12.356   4.163   3.277
12493W        W79276  44.474  28.555   2.185
12494W        W79277   2.062  20.475  11.212
12495W        W79278  32.133  13.708   1.879
12496W        W79279   2.572  13.761   4.130
12497W        W79280  32.404  27.003  13.092
12498W        W79281  23.887  24.027  13.516
12499W        W79282   1.662  12.596   3.236
12500W        W79283  27.412  30.925   1.175
12501W        W79284   7.149  19.158  11.698
12502W        W79285  37.568  17.718   2.837
12503W        W79286  14.763  17.627  12.887
12504W        W79287  30.924  28.448  10.465
12505W        W79288  16.782   9.259  13.889
12506W        W79289  24.593  25.354  12.845
12507W        W79290   9.236  43.728   4.537
12508W        W79291   7.173  43.809   4.153
12509W        W79292  33.035  10.824  12.198
12510W        W79293  26.013  33.596  14.403
12511W        W79294  28.335   3.744  14.385
12512W        W79295  12.820  44.734   0.488
12513W        W79296  20.670  13.377  11.692
12514W        W79297  14.497  18.474  11.182
12515W        W79298  40.437  12.112  13.388
12516W        W79299  33.450   1.405   2.677
12517W        W79300  27.066   2.698  11.605
12518W        W79301  26.971  41.150   0.212
12519W        W79302  28.049  20.310  12.554
12520W        W79303  13.399  39.300  11.189
12521W        W79304  41.952  24.694  11.482
12522W        W79305  20.036   6.605  14.737
12523W        W79306  37.752  28.167  12.866
12524W        W79307  41.272  39.218   3.637
12525W        W79308  21.494   4.694  13.183
12526W        W79309  30.969  24.644  12.368
12527W        W79310  23.560   1.993  11.190
12528W        W79311  43.472  18.999  11.561
12529W        W79312  23.935  39.357  10.678
12530W        W79313  34.118  29.491   3.099
12531W        W79314  34.221  15.879   1.354
12532W        W79315  11.080  20.151  11.945
12533W        W79316  17.020  36.283  11.979
12534W        W79317  23.163  22.540   4.101
12535W        W79318   4.533  17.645  11.162
12536W        W79319  16.142  27.418   2.238
12537W        W79320  11.546  43.074  10.899
12538W        W79321  40.895  38.125  12.961
12539W        W79322  26.993  27.819   1.284
12540W        W79323  27.398  23.268   1.487
12541W        W79324  26.053   3.071   1.197
12542W        W79325  24.190   1.750   1.315
12543W        W79326  34.165   4.888  12.165
12544W        W79327   8.592  10.563   3.488
12545W        W79328  34.912  13.633  11.613
12546W        W79329  35.403  40.567  11.855
12547W        W79330  28.005   6.943   5.075
12548W        W79331  11.734   5.921  13.783
12549W        W79332  12.377   7.274  13.858
12550W        W79333  12.256  28.842  12.047
12551W        W79334  36.284  26.687   3.729
12552W        W79335  41.291  30.746   2.866
12553W        W79336  25.110  19.384   4.123
12554W        W79337  39.231  44.235   0.958
12555W        W79338  43.404  18.486   4.952
12556W        W79339   2.243   3.467   3.786
12557W        W79340  38.022  14.781  14.705
12558W        W79341  27.553  17.602   2.884
12559W        W79342  17.529  30.004   0.065
12560W        W79343  35.508  26.550   1.782
12561W        W79344  10.342  12.852   3.291
12562W        W79345  21.967  26.071  14.875
12563W        W79346  39.859  17.693   3.844
12564W        W79347  11.290  13.075  11.298
12565W        W79348   4.677  25.489  12.892
12566W        W79349  44.905  20.062  13.012
12567W        W79350  21.839  15.777   4.051
12568W        W79351  24.631  17.725   2.860
12569W        W79352   8.041  16.424   3.551
12570W        W79353  16.207  13.316  11.139
12571W        W79354  32.845  40.476   0.039
12572W        W79355  25.679  36.488   3.780
12573W        W79356  37.137  44.772  10.769
12574W        W79357   5.790  20.070   4.017
12575W        W79358  38.344  11.813  13.568
12576W        W79359   6.423  30.914   4.998
12577W        W79360  34.083  24.863   5.042
12578W        W79361  24.561  26.005  14.914
12579W        W79362  14.306  26.767   3.125
12580W        W79363  10.675  39.446  11.588
12581W        W79364  17.646  37.129  11.961
12582W        W79365  31.385  31.906  11.677
12583W        W79366  27.429  20.711  11.716
12584W        W79367  42.260  14.482   3.135
12585W        W79368  39.412  39.930   1.888
12586W        W79369  37.396  11.215   3.593
12587W        W79370  12.593  11.874   1.430
12588W        W79371  35.801   4.871   4.515
12589W        W79372  11.145  42.668   2.569
12590W        W79373  18.400  42.901  11.627
12591W        W79374   2.728  10.283   3.732
12592W        W79375  20.454   0.813   3.395
12593W        W79376  15.317  31.114  13.911
12594W        W79377  11.177  35.855   0.298
12595W        W79378  42.958  10.415  10.574
12596W        W79379   7.360  33.398  13.011
12597W        W79380   8.173  39.840   0.785
12598W        W79381  23.530  11.179  13.041
12599W        W79382  12.970  19.071  10.840
12600W        W79383  10.625  38.877   1.883
12601W        W79384  20.991  21.107  13.447
12602W        W79385   3.910  34.796   3.156
12603W        W79386   3.975  29.001   4.392
12604W        W79387  19.196  16.002   0.468
12605W        W79388   1.176  34.967  12.837
12606W        W79389  35.652  35.614   3.264
12607W        W79390  21.754  37.790  11.947
12608W        W79391   7.628  34.738   2.086
12609W        W79392  19.496  22.251  14.413
12610W        W79393   7.901   8.887  11.449
12611W        W79394  16.209  41.402  12.439
12612W        W79395   2.215  31.946   1.200
12613W        W79396  31.416  30.870   3.206
12614W        W79397  12.394  14.633  14.506
12615W        W79398  17.440  35.828   2.422
12616W        W79399  27.015  41.990   5.648
12617W        W79400   9.924  32.167  13.977
12618W        W79401   7.114  31.493  13.993
12619W        W79402  14.456  39.929   4.246
12620W        W79403  36.349  25.660   0.295
12621W        W79404  22.657  38.032  13.192
12622W        W79405  29.804  27.753   3.709
12623W        W79406  11.095  35.182  13.525
12624W        W79407  23.077  27.075   0.866
12625W        W79408  32.429   3.243   2.176
12626W        W79409  20.591   0.818  13.145
12627W        W79410  40.262  30.566   4.653
12628W        W79411  16.553   6.412   1.206
12629W        W79412  32.509  19.464   2.905
12630W        W79413  25.221  13.763   0.520
12631W        W79414  21.158  18.577  11.474
12632W        W79415  28.952   4.884   1.359
12633W        W79416  25.765  30.591   2.267
12634W        W79417  41.012  19.611  12.176
12635W        W79418  23.112   9.192  13.041
12636W        W79419  26.705  17.341   5.093
12637W        W79420  33.723   0.927   2.544
12638W        W79421  15.131  37.011   0.330
12639W        W79422  16.512   8.217  12.428
12640W        W79423  32.934  12.732  13.744
12641W        W79424  38.768  21.724  11.833
12642W        W79425  14.169  37.430  11.670
12643W        W79426   5.884  11.594   1.404
12644W        W79427  27.677  15.233   3.363
12645W        W79428  34.022   1.230  12.519
12646W        W79429   0.567  29.677  14.570
12647W        W79430   8.123  10.681  11.451
12648W        W79431   1.783  30.605   3.307
12649W        W79432  12.149  20.815   3.904
12650W        W79433  25.532  42.855   2.378
12651W        W79434   0.777  17.197   2.234
12652W        W79435  28.544   7.064   0.043
12653W        W79436   9.638  16.746   3.018
12654W        W79437  13.391  19.153  14.904
12655W        W79438  27.976  25.918   1.319
12656W        W79439  32.912   7.746  13.940
12657W        W79440  14.100   0.018  12.504
12658W        W79441  23.916  43.508  14.554
12659W        W79442  15.545  18.212   3.296
12660W        W79443  39.054  38.593  12.525
12661W        W79444   2.206  14.949  11.636
12662W        W79445  26.095  37.878  14.975
12663W        W79446  32.890  28.872   3.110
12664W        W79447  36.680  23.601  12.466
12665W        W79448  13.108  28.593  11.296
12666W        W79449   2.009  24.507  12.930
12667W        W79450   0.350   9.725   3.291
12668W        W79451  12.178  43.792   1.281
12669W        W79452   3.926  37.078   0.007
12670W        W79453  24.743   2.883   2.251
12671W        W79454  29.501  19.153   0.224
12672W        W79455  35.523  28.533  11.941
12673W        W79456  24.249  20.316   1.679
12674W        W79457  16.682  37.374   3.382
12675W        W79458  13.650  24.707   1.946
12676W        W79459  20.781   4.375  14.287
12677W        W79460   3.003  25.086  12.692
12678W        W79461  36.950  19.147   0.312
12679W        W79462  25.190  33.831  11.152
12680W        W79463  12.237   3.101  12.630
12681W        W79464  35.972   8.476   0.932
12682W        W79465  17.765  41.948  12.081
12683W        W79466   8.732  16.679   4.600
12684W        W79467  26.170  27.749  12.398
12685W        W79468  34.392  36.065  11.590
12686W        W79469  11.315  41.708   0.347
12687W        W79470  10.001  42.591  11.178
12688W        W79471  17.580  32.113   3.241
12689W        W79472   3.294  12.067   0.993
12690W        W79473  42.091  40.652  12.872
12691W        W79474  31.044  10.038  14.319
12692W        W79475  41.240  14.811   2.844
12693W        W79476  28.145  39.089   3.265
12694W        W79477  26.580   4.417  10.630
12695W        W79478  20.579   7.495   0.289
12696W        W79479  11.669  37.907   4.378
12697W        W79480   1.441  11.394   1.791
12698W        W79481   5.099  17.453   0.307
12699W        W79482  19.644  23.603   0.302
12700W        W79483  27.172  33.118   2.129
12701W        W79484  43.902   6.760  14.666
12702W        W79485  19.063  31.608  10.669
12703W        W79486  11.904  28.018   4.969
12704W        W79487  11.744  24.746  11.487
12705W        W79488  41.306   7.817   0.925
12706W        W79489  23.776  11.875   1.784
12707W        W79490  16.794  24.560   3.543
12708W        W79491  28.240  25.934   0.050
12709W        W79492   5.198  12.100  12.438
12710W        W79493  13.838  28.988  12.567
12711W        W79494  16.267  41.680   4.640
12712W        W79495   8.917   9.276  13.309
12713W        W79496  32.573  25.011   0.425
12714W        W79497  18.554  29.121   4.080
12715W        W79498  44.678  34.199   1.217
12716W        W79499  21.813  24.777   3.686
12717W        W79500  39.369  22.929  11.430
12718W        W79501  23.112   9.625   2.910
12719W        W79502  34.177  11.828  13.215
12720W        W79503  42.449   0.357   1.312
12721W        W79504  42.793  27.669   0.455
12722W        W79505  20.675   3.003   0.118
12723W        W79506   8.010   0.055   1.218
12724W        W79507  28.434  15.811   3.635
12725W        W79508  37.126   2.319  12.350
12726W        W79509  17.876   8.762   3.246
12727W        W79510  17.326  16.194  13.521
12728W        W79511   8.406  29.531  14.287
12729W        W79512  43.520  11.915   1.790
12730W        W79513  19.306  35.565  14.403
12731W        W79514   8.500  18.074  12.130
12732W        W79515  39.992  27.675  11.786
12733W        W79516   7.247   4.886  14.815
12734W        W79517  37.492  24.147   2.450
12735W        W79518  24.525   1.976   4.021
12736W        W79519   5.704  27.922   2.183
12737W        W79520  37.323  23.975   0.219
12738W        W79521   1.890   0.819  12.026
12739W        W79522  39.010  41.255  13.677
12740W        W79523  11.397  17.512  14.446
12741W        W79524  40.567  21.976  12.909
12742W        W79525  41.563  28.865   0.293
12743W        W79526  12.254  19.694   2.805
12744W        W79527  18.716   6.648   4.190
12745W        W79528   0.527   2.773  12.745
12746W        W79529  11.687   5.199  14.470
12747W        W79530  16.359  10.698   1.767
12748W        W79531   9.336  34.924  11.871
12749W        W79532  38.509  36.746  11.677
12750W        W79533  25.767  32.053   0.505
12751W        W79534  33.873  36.850   0.651
12752W        W79535   5.397  30.072   1.192
12753W        W79536  16.766  39.438   1.440
12754W        W79537  42.484  32.694   1.277
12755W        W79538   7.644  43.002  13.913
12756W        W79539  27.526   7.819  14.982
12757W        W79540  15.842   2.998   1.316
12758W        W79541  27.603  33.485   5.040
12759W        W79542  14.197  31.959   2.355
12760W        W79543  12.799  25.465  14.460
12761W        W79544  24.548   3.669  14.477
12762W        W79545  15.207  19.076   1.330
12763W        W79546  36.647  10.619   3.959
12764W        W79547  43.094  29.428   0.836
12765W        W79548  41.006   5.712  14.792
12766W        W79549  23.736  13.368   2.778
12767W        W79550  20.418  36.775   0.641
12768W        W79551   7.864  11.742  11.407
12769W        W79552   2.227  10.557   2.874
12770W        W79553  28.405  22.513   4.489
12771W        W79554  27.603  20.029   4.394
12772W        W79555  24.109   5.135   1.806
12773W        W79556  36.278  36.263  13.799
12774W        W79557  12.733  12.643  12.457
12775W        W79558  31.542  24.790   0.900
12776W        W79559  11.973  35.885   0.762
12777W        W79560  25.471  14.752  11.598
12778W        W79561  35.596   4.304   3.703
12779W        W79562   0.330  22.570  11.896
12780W        W79563  23.826  13.891   3.788
12781W        W79564   7.761  18.499   4.365
12782W        W79565  42.320  27.068   3.622
12783W        W79566  18.076  11.728  13.869
12784W        W79567  30.526  36.337   2.667
12785W        W79568  42.813   6.474   2.739
12786W        W79569  35.038  44.108   3.294
12787W        W79570  41.488  19.326  13.981
12788W        W79571  20.998  31.108  10.581
12789W        W79572   2.798  31.765  13.121
12790W        W79573  41.080  38.538  14.845
12791W        W79574  29.685   5.783  13.090
12792W        W79575  20.920  14.731   1.245
12793W        W79576  18.642  29.641  13.443
12794W        W79577  16.638  36.686  12.955
12795W        W79578  14.560  30.544  12.920
12796W        W79579  30.002  22.568   0.327
12797W        W79580  21.583  13.234   0.956
12798W        W79581   9.886  43.763  10.431
12799W        W79582  13.690  20.760  14.020
12800W        W79583  34.560  10.367   2.274
12801W        W79584   8.028  44.349   4.965
12802W        W79585  33.165   6.841   0.553
12803W        W79586  27.219  29.527  12.251
12804W        W79587  20.699  38.607  14.313
12805W        W79588  25.467  25.629  12.070
12806W        W79589  37.726  38.858  13.627
12807W        W79590  42.313  38.818   4.845
12808W        W79591   1.740  44.224  12.422
12809W        W79592  28.073  44.872   4.573
12810W        W79593  34.551  37.530  13.651
12811W        W79594  33.050  29.606   4.637
12812W        W79595  16.657  14.262  14.816
12813W        W79596   0.921  21.673  12.864
12814W        W79597  15.278  21.192   4.195
12815W        W79598  27.576  27.404  14.135
12816W        W79599  24.399  39.719   2.379
12817W        W79600  18.727  36.865  10.704
12818W        W79601  31.457  32.670   4.142
12819W        W79602  19.007  12.723   0.171
12820W        W79603  12.560   3.376  10.278
12821W        W79604  11.311   1.527   4.696
12822W        W79605  39.406   6.503  12.531
12823W        W79606  30.748   3.356   2.374
12824W        W79607  12.253  44.934  12.563
12825W        W79608  19.677  12.578  14.293
12826W        W79609   0.476  23.712  11.127
12827W        W79610  23.467  31.857  10.410
12828W        W79611  17.342  24.719  12.221
12829W        W79612  42.874  23.137  11.564
12830W        W79613  22.736  10.773   4.422
12831W        W79614  25.278  19.877  10.805
12832W        W79615  15.723  12.559   4.604
12833W        W79616   0.336  44.518  11.106
12834W        W79617  24.039  38.063   3.273
12835W        W79618  31.879   5.920  12.983
12836W        W79619  16.995  41.036   0.502
12837W        W79620  22.181  11.479   0.786
12838W        W79621  13.776  32.920   1.779
12839W        W79622  26.879  11.069   1.212
12840W        W79623   8.278  32.857   0.953
12841W        W79624  24.841  17.326  11.909
12842W        W79625   8.268  12.592  10.541
12843W        W79626  34.458  31.505   1.817
12844W        W79627  30.099  14.878  13.297
12845W        W79628  21.578  16.048   5.663
12846W        W79629  12.337   8.422  12.597
12847W        W79630   4.770  18.470   3.330
12848W        W79631  30.937  30.063   3.444
12849W        W79632  38.500   6.487  11.890
12850W        W79633  33.135   6.358   1.445
12851W        W79634   5.777  23.885  13.333
12852W        W79635  28.550   3.314   1.491
12853W        W79636  38.947   7.911   2.863
12854W        W79637  25.694   9.833  11.687
12855W        W79638  16.206  42.022  10.637
12856W        W79639   9.810  18.125  10.767
12857W        W79640  44.106  30.065   0.238
12858W        W79641  36.986   2.501  11.366
12859W        W79642  32.552  37.054   2.341
12860W        W79643   5.645  23.444   1.499
12861W        W79644  34.031  33.221  12.209
12862W        W79645  32.575  22.789   0.904
12863W        W79646  22.130  40.567   0.950
12864W        W79647  27.828  11.555   4.532
12865W        W79648  25.041  21.785  12.378
12866W        W79649  36.743  18.631   4.256
12867W        W79650  24.637  24.467   4.708
12868W        W79651  24.726  18.642  11.800
12869W        W79652  31.926  26.068   1.766
12870W        W79653  40.991  29.402  11.598
12871W        W79654  20.754  13.664  13.710
12872W        W79655  41.076   8.311  12.901
12873W        W79656   3.834   8.719  12.432
12874W        W79657   2.788  28.569  11.501
12875W        W79658  44.771  13.183  13.400
12876W        W79659  31.329  28.733  10.593
12877W        W79660  31.660  30.112  13.914
12878W        W79661  13.094  35.354   0.948
12879W        W79662  13.828  25.214  14.553
12880W        W79663  11.268  21.601   4.416
12881W        W79664  20.988  12.825  11.083
12882W        W79665  20.036  15.719   3.596
12883W        W79666  27.668  31.422   4.560
12884W        W79667  35.486  32.130   3.607
12885W        W79668  29.614  33.884   0.151
12886W        W79669  18.313  25.550   2.689
12887W        W79670  43.266  22.723   2.327
12888W        W79671   0.499  15.848   0.514
12889W        W79672  39.065   4.351  13.994
12890W        W79673  25.482   7.364  11.174
12891W        W79674  39.515  17.131  10.682
12892W        W79675   2.278  10.356  13.449
12893W        W79676  38.343   5.827  10.931
12894W        W79677  41.680  36.154  11.064
12895W        W79678   2.474  25.615   0.653
12896W        W79679  31.745   5.401   1.837
12897W        W79680  14.744  18.070  14.965
12898W        W79681  11.367  32.412   3.108
12899W        W79682  33.995  32.054   4.621
12900W        W79683  22.852   4.836  12.570
12901W        W79684   8.730  30.629  11.498
12902W        W79685  17.775  24.183   4.643
12903W        W79686  16.575  20.353   0.465
12904W        W79687  36.812  21.637   2.195
12905W        W79688  25.063  33.497  10.499
12906W        W79689  44.361  32.483  12.140
12907W        W79690  16.748  41.951  10.591
12908W        W79691  26.544  19.780  12.815
12909W        W79692  18.995   0.178  13.567
12910W        W79693   1.150  30.573   4.892
12911W        W79694  19.979  39.332   3.068
12912W        W79695  20.777  20.599   5.019
12913W        W79696  34.957  18.049   2.341
12914W        W79697  31.533  10.328   1.367
12915W        W79698  33.912   8.097   4.005
12916W        W79699  25.048  44.338  10.634
12917W        W79700  34.693   9.129   0.410
12918W        W79701  13.788   7.303  11.304
12919W        W79702  12.543  19.117  11.152
12920W        W79703  32.967  27.261   3.820
12921W        W79704  16.607  30.003   4.616
12922W        W79705  18.934  18.128   3.367
12923W        W79706  25.887   4.540  14.362
12924W        W79707  17.591  41.878  13.491
12925W        W79708  15.209  28.548   0.279
12926W        W79709  43.492  38.630  11.115
12927W        W79710  33.155  18.162  10.606
12928W        W79711  41.567   7.914  13.518
12929W        W79712   5.769  29.518   2.864
12930W        W79713  21.748   6.865  12.791
12931W        W79714   1.847  19.285  10.649
12932W        W79715  36.029  20.177  13.006
12933W        W79716   5.734   8.371   1.813
12934W        W79717  20.004  41.773  11.170
12935W        W79718  24.485  38.919   3.699
12936W        W79719  13.787  10.642   4.959
12937W        W79720  43.793   1.151   3.082
12938W        W79721   0.979   9.748   0.861
12939W        W79722  11.906  42.190   1.886
12940W        W79723  11.784  19.064   3.576
12941W        W79724  28.557  43.745   3.575
12942W        W79725  32.628   6.104  11.497
12943W        W79726  36.778  12.041  13.109
12944W        W79727   9.885   3.510   0.778
12945W        W79728  23.328  37.197  10.472
12946W        W79729  38.255  37.165   3.024
12947W        W79730   4.702   2.708  10.720
12948W        W79731  32.863  30.762   1.467
12949W        W79732   2.229  24.046  14.082
12950W        W79733  43.980  44.219  11.132
12951W        W79734   9.268   0.946  13.981
12952W        W79735   6.514  27.121   3.099
12953W        W79736   1.466  35.699  11.598
12954W        W79737  42.816  41.788   0.481
12955W        W79738   2.271  34.563  14.681
12956W        W79739   3.702  30.670   3.201
12957W        W79740   8.346  30.791  11.779
12958W        W79741  26.045  23.467   0.514
12959W        W79742  34.342  41.712   1.826
12960W        W79743  13.659  34.713   1.804
12961W        W79744  14.862   2.362   3.443
12962W        W79745  39.207   5.847  10.659
12963W        W79746  42.297   5.369  12.194
12964W        W79747  36.675  34.495  10.793
12965W        W79748  34.596  22.672  11.629
12966W        W79749   5.796   5.288  13.565
12967W        W79750   4.555   4.727  11.658
12968W        W79751   8.717   5.598  12.127
12969W        W79752  15.812  22.267   3.909
12970W        W79753  15.459   0.999   4.854
12971W        W79754  36.612   7.508   2.727
12972W        W79755  32.427  12.106  11.825
12973W        W79756  44.796  28.431  10.694
12974W        W79757   9.944  16.086   1.920
12975W        W79758  34.058  16.834   1.300
12976W        W79759  27.150  42.840  13.859
12977W        W79760  19.198   2.223   1.784
12978W        W79761   5.255   2.375   0.454
12979W        W79762  38.812  33.965  10.774
12980W        W79763  32.619   1.344   0.986
12981W        W79764  39.799  43.818   0.317
12982W        W79765  37.801   4.936   2.816
12983W        W79766  31.087  20.111   2.272
12984W        W79767  37.597  37.058  12.836
12985W        W79768   1.995  26.584  12.021
12986W        W79769  20.571  10.537   2.060
12987W        W79770   2.009  39.660  11.768
12988W        W79771  31.123  14.214  13.681
12989W        W79772  32.610  15.087  11.260
12990W        W79773  17.499  12.424   2.699
12991W        W79774  42.039   0.431   4.749
12992W        W79775  43.756  38.566   3.370
12993W        W79776  20.776  18.067  13.883
12994W        W79777  35.457  38.156  11.309
12995W        W79778  18.322  18.304   1.342
12996W        W79779   5.784  32.679  11.894
12997W        W79780  31.436  12.173   2.267
12998W        W79781  38.536  13.341   3.823
12999W        W79782  16.638  15.871  12.790
13000W        W79783   7.704  21.511   0.884
13001W        W79784   3.998  23.516  14.437
13002W        W79785  38.843  14.960  12.254
13003W        W79786  23.624  31.216   1.221
13004W        W79787  28.084  14.324  12.623
13005W        W79788  27.624  31.691  12.272
13006W        W79789  30.446  33.168  14.119
13007W        W79790   6.705   6.781   3.560
13008W        W79791  39.982  12.802  11.455
13009W        W79792   4.322   1.195  13.329
13010W        W79793  27.043  26.527  11.856
13011W        W79794   0.009   3.819   0.803
13012W        W79795  37.015  39.182   3.294
13013W        W79796  25.969  36.845  12.174
13014W        W79797   4.196  40.275   1.750
13015W        W79798  34.992   2.711   1.481
13016W        W79799  21.301  19.686  14.788
13017W        W79800  21.974  36.890   2.216
13018W        W79801  20.696   5.507   3.615
13019W        W79802  40.033  34.926   3.063
13020W        W79803  22.750  42.058   1.794
13021W        W79804  23.653  39.016   3.355
13022W        W79805   0.006  41.430  11.224
13023W        W79806  32.580  21.519   0.312
13024W        W79807   5.912   2.364   1.776
13025W        W79808  33.813  16.754  11.634
13026W        W79809  28.458  42.557   4.549
13027W        W79810  24.986  13.384  12.452
13028W        W79811  29.085  22.756  12.116
13029W        W79812   5.760  44.228  10.467
13030W        W79813  21.737  17.589  12.579
13031W        W79814  44.792   6.279   0.424
13032W        W79815  38.303  18.378   4.145
13033W        W79816  36.390  27.233  14.117
13034W        W79817  17.514  21.738   3.734
13035W        W79818  21.911  33.101  11.189
13036W        W79819   4.422  11.803  11.155
13037W        W79820  43.860   3.290   2.819
13038W        W79821  35.855  15.979   1.657
13039W        W79822  36.667   6.130   1.070
13040W        W79823  36.247  15.396   4.565
13041W        W79824  24.521  22.498  13.556
13042W        W79825  25.317  30.901   2.317
13043W        W79826   3.497  11.237   1.877
13044W        W79827  42.932  20.302   0.736
13045W        W79828  31.029  37.996  14.144
13046W        W79829  20.743  25.999  11.885
13047W        W79830  14.999  23.146   3.276
13048W        W79831  26.390   6.182  14.311
13049W        W79832  15.848   9.852   3.232
13050W        W79833  31.654  13.573   1.679
13051W        W79834  44.200  38.697   3.167
13052W        W79835   8.864   2.753  14.751
13053W        W79836  27.765  30.132  11.858
13054W        W79837  43.205  21.249  12.415
13055W        W79838  39.122  34.682   0.421
13056W        W79839  41.460   6.891  13.419
13057W        W79840  40.206   7.607  13.633
13058W        W79841  38.928  13.281   3.506
13059W        W79842  15.188  40.817   2.320
13060W        W79843  39.087  24.117   1.820
13061W        W79844   9.368  41.494   4.928
13062W        W79845  12.751   9.788   1.359
13063W        W79846  44.533  41.343   0.076
13064W        W79847  40.257   5.335   2.654
13065W        W79848   8.569  34.050  11.635
13066W        W79849  35.402  44.347   3.632
13067W        W79850  34.515  43.547   1.372
13068W        W79851  18.851  30.586   2.269
13069W        W79852  42.142  44.484   5.011
13070W        W79853   3.407  38.048   1.648
13071W        W79854  38.878  29.761   3.361
13072W        W79855  20.807  15.327   2.798
13073W        W79856  26.875  21.626   4.721
13074W        W79857   9.579  18.236   3.817
13075W        W79858   0.442  18.685   4.770
13076W        W79859   1.449  19.815   4.107
13077W        W79860  41.517  25.348   0.260
13078W        W79861  28.103  24.712   3.327
13079W        W79862  32.484  35.293   2.183
13080W        W79863  18.155  35.364  14.014
13081W        W79864  21.044  28.191   3.245
13082W        W79865  44.300  13.298  10.279
13083W        W79866  37.070  43.957  10.759
13084W        W79867  41.002  23.727  10.740
13085W        W79868  40.030  23.312   0.297
13086W        W79869  42.545  35.362   2.389
13087W        W79870  32.739  22.762   2.340
13088W        W79871   0.819   1.811   2.743
13089W        W79872  23.960  17.779  10.687
13090W        W79873  14.608  24.774  13.043
13091W        W79874  39.454  13.207   2.088
13092W        W79875  32.179  26.298   2.785
13093W        W79876  20.828  12.609   3.636
13094W        W79877  25.570  11.988  11.650
13095W        W79878  30.856   9.220   2.724
13096W        W79879  37.848  21.764  13.847
13097W        W79880  44.670   1.949  14.854
13098W        W79881  13.377  33.002   0.359
13099W        W79882  39.052  13.886   2.661
13100W        W79883  19.110  27.632   3.418
13101W        W79884  32.122  31.108   1.849
13102W        W79885  16.359  23.017  14.559
13103W        W79886  36.440  33.962   2.464
13104W        W79887  23.220  24.697  14.403
13105W        W79888  25.016  19.856   4.318
13106W        W79889  25.531  18.117   0.753
13107W        W79890  12.836  31.853   3.329
13108W        W79891   1.419  20.498   1.421
13109W        W79892  10.668  31.827   2.337
13110W        W79893  26.152  14.656  12.073
13111W        W79894  27.860  41.260  13.021
13112W        W79895   2.299  42.269   3.212
13113W        W79896  18.487  17.265  14.949
13114W        W79897  40.531  41.989   4.087
13115W        W79898  38.159   5.369   1.671
13116W        W79899  31.448  38.368   2.289
13117W        W79900  24.210  27.660   1.363
13118W        W79901  43.986  28.367   1.248
13119W        W79902  44.451  10.295   1.693
13120W        W79903  37.395  21.456  14.896
13121W        W79904  24.587  29.481   2.213
13122W        W79905  32.192  10.951   4.618
13123W        W79906  14.524  21.705  11.117
13124W        W79907   1.771  27.103   0.368
13125W        W79908  22.063   0.558  11.405
13126W        W79909  37.431  41.030   4.108
13127W        W79910  16.313  13.086   0.257
13128W        W79911  11.607  11.230   3.641
13129W        W79912  26.048  34.680  14.416
13130W        W79913  33.120   4.794   4.387
13131W        W79914  42.833  18.064  11.328
13132W        W79915  22.820   0.752   3.658
13133W        W79916  12.410  20.576  13.995
13134W        W79917  40.863  39.440   0.259
13135W        W79918  34.561  29.869  11.239
13136W        W79919  31.011  38.768  11.094
13137W        W79920  17.895  18.130   3.625
13138W        W79921  44.557  44.230   4.262
13139W        W79922  34.683  18.234   1.923
13140W        W79923  31.470   0.993  14.002
13141W        W79924   1.489  12.285   4.957
13142W        W79925   7.251  44.143  14.883
13143W        W79926  32.535  20.056   1.175
13144W        W79927  27.194  15.163   2.493
13145W        W79928  38.282  37.931  11.847
13146W        W79929  13.248  32.981  14.397
13147W        W79930  11.690  24.795   1.239
13148W        W79931  18.319  30.472  14.987
13149W        W79932  37.879  19.291  14.421
13150W        W79933  36.388   4.798   0.864
13151W        W79934  36.511  36.029  10.728
13152W        W79935  39.930   3.749  10.912
13153W        W79936   3.898  42.960  13.540
13154W        W79937  33.000  18.220  10.134
13155W        W79938  18.606  12.045  13.450
13156W        W79939  27.171  18.128   1.982
13157W        W79940   4.218  26.638  12.493
13158W        W79941  26.013  29.517  13.021
13159W        W79942  32.808  44.506  11.526
13160W        W79943  38.334   8.363   1.323
13161W        W79944   4.327  10.001   0.546
13162W        W79945  26.722  30.689  11.949
13163W        W79946  25.499  33.306   2.171
13164W        W79947  43.243  24.923   3.693
13165W        W79948  26.636  11.060   1.775
13166W        W79949   0.755   4.342  13.865
13167W        W79950  40.920  34.507  13.327
13168W        W79951  36.807  39.821   0.972
13169W        W79952  43.526  30.844  11.174
13170W        W79953   5.832  21.529   4.159
13171W        W79954  36.509  44.866   2.936
13172W        W79955  16.121  40.277  10.782
13173W        W79956  26.224  15.669  14.337
13174W        W79957   5.827  40.547  12.935
13175W        W79958   4.639  28.673   4.589
13176W        W79959   9.218  29.997   2.806
13177W        W79960  43.262  38.413  13.776
13178W        W79961   2.279  22.531  13.361
13179W        W79962  29.871  43.559   3.769
13180W        W79963  26.497  38.448  12.811
13181W        W79964  39.592   6.587  14.470
13182W        W79965  30.830  12.303  13.759
13183W        W79966   0.059   4.773  13.728
13184W        W79967   1.912  30.149  12.177
13185W        W79968   7.346  20.451   0.454
13186W        W79969   3.938   7.971  14.364
13187W        W79970  16.121   9.151   4.333
13188W        W79971  10.086  11.259   4.578
13189W        W79972  41.827  41.816  10.537
13190W        W79973   9.077  26.151   2.344
13191W        W79974  39.480  18.820   1.490
13192W        W79975  28.064  36.616  10.667
13193W        W79976  10.857   6.363  14.043
13194W        W79977  31.336  16.691   4.738
13195W        W79978  19.818  18.716  12.891
13196W        W79979  39.572  32.687  14.110
13197W        W79980  31.959  26.472   4.591
13198W        W79981  29.566  31.709  14.789
13199W        W79982   8.170  30.466   4.886
13200W        W79983  38.817   8.617   1.201
13201W        W79984  14.807  40.962   2.855
13202W        W79985  41.152  39.928  13.668
13203W        W79986  13.071  22.639  12.475
13204W        W79987  12.505  19.737   3.266
13205W        W79988   2.869  12.844   0.471
13206W        W79989  17.163  15.701   3.925
13207W        W79990   0.855  17.636   3.146
13208W        W79991  38.919  25.245  14.041
13209W        W79992   4.373  34.624  12.100
13210W        W79993   3.787  32.678   1.363
13211W        W79994  34.653  15.347   2.938
13212W        W79995  35.576  24.081   3.620
13213W        W79996  34.712  23.715   0.915
13214W        W79997  21.847   7.849   2.304
13215W        W79998  18.762  38.878  11.123
13216W        W79999  21.563  15.291  12.444
13217W        W80000   0.091   1.904  14.565
13218W        W80001  28.862  19.538   0.158
13219W        W80002  21.008  37.423   1.349
13220W        W80003   4.959  17.228   0.976
13221W        W80004  14.993  12.539  12.984
13222W        W80005  17.335  21.062   0.367
13223W        W80006  38.079  35.430  11.464
13224W        W80007  33.096  19.394  11.038
13225W        W80008  22.346   3.170  12.993
13226W        W80009  25.750  38.258  11.093
13227W        W80010   9.810  11.365  10.611
13228W        W80011   7.964  44.499   3.186
13229W        W80012   6.516  12.789  13.599
13230W        W80013  11.562  38.377  14.776
13231W        W80014  17.137  27.576   0.242
13232W        W80015  12.321  37.513   4.780
13233W        W80016  37.603   5.859  14.861
13234W        W80017  36.408  20.004   1.222
13235W        W80018  30.692  11.012  13.355
13236W        W80019   0.399  26.902   2.966
13237W        W80020  30.514   2.871   1.339
13238W        W80021  21.550  25.015   0.283
13239W        W80022  23.124   0.246  12.809
13240W        W80023  35.615  33.188   2.872
13241W        W80024  44.820  17.281   2.545
13242W        W80025  38.106   4.921  12.228
13243W        W80026   4.309  41.037  11.668
13244W        W80027  38.454  30.822  14.343
13245W        W80028  43.535   2.259  14.075
13246W        W80029   9.248  37.576   4.554
13247W        W80030  27.519   4.261  14.217
13248W        W80031  25.416  21.595  14.867
13249W        W80032  13.240  31.133   0.975
13250W        W80033  13.075  15.335  13.409
13251W        W80034  29.948  35.780  12.580
13252W        W80035  15.713   7.112   4.035
13253W        W80036  41.751   6.836  13.871
13254W        W80037  36.362  33.486   0.356
13255W        W80038  26.922  42.504   9.659
13256W        W80039  37.388   8.184   4.461
13257W        W80040  12.005  40.251   3.739
13258W        W80041  24.789  27.401   3.337
13259W        W80042  23.588  40.540   4.491
13260W        W80043  21.521   2.208  12.980
13261W        W80044  44.421  14.755  13.289
13262W        W80045  21.508  37.155   2.211
13263W        W80046   1.299   2.607   4.038
13264W        W80047  24.501  36.965  10.915
13265W        W80048  24.522  25.230   0.384
13266W        W80049  13.697  13.293   2.843
13267W        W80050   0.906   3.457   5.096
13268W        W80051  19.773   6.750   0.545
13269W        W80052  19.761  24.870  13.882
13270W        W80053  40.989  12.403   2.227
13271W        W80054  16.287  21.592  10.700
13272W        W80055  39.771  16.149  14.903
13273W        W80056  33.613  24.242  11.534
13274W        W80057  29.094  35.405   0.635
13275W        W80058  18.734  28.543  14.033
13276W        W80059  18.013  22.741   4.401
13277W        W80060  43.454  42.468  14.728
13278W        W80061  15.638  19.246   3.313
13279W        W80062  21.844  27.863  13.418
13280W        W80063  28.139  17.054   1.165
13281W        W80064  12.663  18.751   3.305
13282W        W80065   2.807  21.793   2.874
13283W        W80066  11.717  29.124   3.753
13284W        W80067  38.340  41.888  14.526
13285W        W80068  13.194  40.839  12.097
13286W        W80069  16.345   9.731   3.178
13287W        W80070  32.692  32.042   1.842
13288W        W80071  30.157  21.787  14.158
13289W        W80072   1.797  11.318   2.624
13290W        W80073  38.832  36.641   3.715
13291W        W80074  20.536  15.123   3.284
13292W        W80075  12.363   5.905   2.507
13293W        W80076  35.501  23.678   2.328
13294W        W80077  34.674  40.989  14.360
13295W        W80078  14.849   6.946   3.345
13296W        W80079  20.886  28.912   2.801
13297W        W80080   1.775  31.631  10.725
13298W        W80081  18.761  34.984   2.219
13299W        W80082   9.235  43.283   4.828
13300W        W80083   9.283  20.792  10.759
13301W        W80084  43.800  28.538  10.724
13302W        W80085   6.094  10.490   1.168
13303W        W80086   8.139  15.571   0.797
13304W        W80087  11.526   0.907   1.765
13305W        W80088   7.101  28.004  10.509
13306W        W80089  40.930  22.874   2.253
13307W        W80090  14.145   6.797  12.929
13308W        W80091  14.213  21.295   4.302
13309W        W80092  35.539  13.182   0.867
13310W        W80093  35.760  28.994  11.236
13311W        W80094  43.132  14.482  11.154
13312W        W80095   7.098  30.555   3.164
13313W        W80096  42.776  10.366  12.060
13314W        W80097  34.312  11.870  11.456
13315W        W80098  21.395  35.129   3.122
13316W        W80099  43.516  13.595  11.480
13317W        W80100  29.794  36.501   3.691
13318W        W80101  32.956  24.490  13.431
13319W        W80102  30.971  24.618   4.306
13320W        W80103  16.553   6.977   2.869
13321W        W80104  27.597  37.424  10.727
13322W        W80105  34.894  41.867  10.843
13323W        W80106  27.915   7.738   2.165
13324W        W80107  16.177  43.549  13.751
13325W        W80108  29.528  21.378  11.253
13326W        W80109  36.088  19.842   5.343
13327W        W80110  14.764   3.777   3.807
13328W        W80111   9.359  44.554  10.600
13329W        W80112  17.106  10.216   4.961
13330W        W80113  38.418  27.639  11.351
13331W        W80114  40.860  14.567  11.884
13332W        W80115  27.573  22.343   2.252
13333W        W80116  15.782  14.444  13.994
13334W        W80117   5.412  37.389   3.189
13335W        W80118  41.138  37.357   4.938
13336W        W80119   4.212  13.270  11.028
13337W        W80120  37.206  20.982   0.051
13338W        W80121  23.284  40.884  10.533
13339W        W80122  32.145  27.011  13.540
13340W        W80123  27.684  21.317   1.184
13341W        W80124   7.413  32.019  11.460
13342W        W80125  29.894  13.216   0.921
13343W        W80126  20.053  11.828   2.337
13344W        W80127  13.233  30.668   5.147
13345W        W80128  12.852  13.174   2.221
13346W        W80129  40.150  12.226   4.327
13347W        W80130  37.082  24.536  10.645
13348W        W80131   4.913  26.706  14.783
13349W        W80132  15.850  14.414  10.692
13350W        W80133  35.330  10.609  10.571
13351W        W80134   3.967  19.883   3.058
13352W        W80135  20.092  16.880   4.624
13353W        W80136  42.830  38.636   4.125
13354W        W80137   0.921  36.007   4.764
13355W        W80138  25.967   2.107  12.730
13356W        W80139  21.728  11.090   0.108
13357W        W80140  20.624  28.680  14.335
13358W        W80141  11.732  21.530  11.134
13359W        W80142  23.456  10.502   3.719
13360W        W80143  42.005  12.733   9.899
13361W        W80144  12.674  14.273  14.019
13362W        W80145   4.350  31.864   2.740
13363W        W80146  26.255  14.124   2.753
13364W        W80147  16.284  13.081  14.721
13365W        W80148  16.210  37.511   3.636
13366W        W80149  18.176   9.279  14.036
13367W        W80150  33.165  24.694   5.099
13368W        W80151  12.382  36.123  14.217
13369W        W80152  37.908  22.121  11.442
13370W        W80153  25.031  27.159  13.420
13371W        W80154  36.628   0.309   1.697
13372W        W80155  40.535   4.419  11.168
13373W        W80156  13.886  42.033   4.224
13374W        W80157  42.786   4.293   0.964
13375W        W80158  13.535  43.304  10.746
13376W        W80159  26.710  27.417   4.068
13377W        W80160  37.656   7.394   2.828
13378W        W80161  13.100   1.825  14.088
13379W        W80162  20.498  35.607   2.118
13380W        W80163  18.614   5.815  13.975
13381W        W80164  29.478  31.701  13.886
13382W        W80165  30.361  18.623  13.546
13383W        W80166  22.280  19.231   2.893
13384W        W80167  20.158  26.274  12.937
13385W        W80168   2.040   0.382   0.500
13386W        W80169   0.294  13.427   3.579
13387W        W80170  41.269   7.786   1.439
13388W        W80171   0.968  11.174  11.246
13389W        W80172  23.480  35.591   3.364
13390W        W80173  25.501  43.189  11.040
13391W        W80174  18.791  32.265  11.145
13392W        W80175  34.660  18.305   1.018
13393W        W80176  23.120  40.371  11.227
13394W        W80177  12.694   4.849  11.581
13395W        W80178  34.496   3.271  13.057
13396W        W80179  36.327  33.921  14.575
13397W        W80180  34.591  28.931  14.462
13398W        W80181  15.856  29.634   2.219
13399W        W80182  40.555  44.058  11.871
13400W        W80183  43.431  10.773  13.146
13401W        W80184  19.041  16.489   4.544
13402W        W80185  13.758   7.446  13.605
13403W        W80186  23.412  40.948  13.997
13404W        W80187  42.562  13.318   2.660
13405W        W80188   5.756  34.905  10.747
13406W        W80189  10.656  41.007  10.569
13407W        W80190  43.754  23.530  14.831
13408W        W80191   0.917  23.417  13.505
13409W        W80192  35.322  29.177  13.002
13410W        W80193  37.618  36.418  11.189
13411W        W80194   4.515   9.253   3.109
13412W        W80195  44.139  16.790   2.409
13413W        W80196  22.802  18.220   4.680
13414W        W80197   5.629  30.713   0.000
13415W        W80198  23.238  40.412  12.173
13416W        W80199  41.280  31.506  12.895
13417W        W80200  43.806  40.774   2.238
13418W        W80201  35.929   0.636   4.089
13419W        W80202  15.634  16.396  11.483
13420W        W80203  33.591   8.946   2.817
13421W        W80204  41.764  16.733   1.150
13422W        W80205  14.039  43.201  14.397
13423W        W80206  18.676  31.890   3.679
13424W        W80207  29.827  34.287   0.698
13425W        W80208   2.695  26.002  11.039
13426W        W80209   6.241  32.529  12.141
13427W        W80210  43.376  26.534  10.487
13428W        W80211  34.445   5.304  14.905
13429W        W80212   4.767  11.740  13.976
13430W        W80213  19.866  41.288  11.995
13431W        W80214  28.818  19.077   2.867
13432W        W80215  10.775  15.084  11.598
13433W        W80216  18.849  14.677  11.862
13434W        W80217  40.433  39.899  11.721
13435W        W80218  28.007  40.402  11.726
13436W        W80219   1.216   7.781   4.063
13437W        W80220  42.011  40.937  12.420
13438W        W80221  28.772  21.114  11.619
13439W        W80222  18.528   2.747   2.768
13440W        W80223  21.653   2.615   3.647
13441W        W80224  10.846  21.819  14.681
13442W        W80225  15.825  33.415   0.810
13443W        W80226  16.777  29.231  12.171
13444W        W80227   4.490  33.371   3.915
13445W        W80228  36.000  19.453  11.139
13446W        W80229  30.975  44.319   3.487
13447W        W80230  34.058  34.593  10.361
13448W        W80231  18.594  12.542  12.351
13449W        W80232   6.985  29.168  13.901
13450W        W80233  21.207  31.855  13.920
13451W        W80234  29.023  17.107  13.059
13452W        W80235  31.132  16.603  12.428
13453W        W80236  27.666  42.811  13.699
13454W        W80237  20.615  35.283   1.742
13455W        W80238   8.258  19.231  12.772
13456W        W80239  26.616  33.695   3.656
13457W        W80240  10.171   9.714   3.154
13458W        W80241  43.469  16.906   0.688
13459W        W80242   1.497  11.573  10.659
13460W        W80243  34.139   3.443   2.496
13461W        W80244   0.097  30.756  11.077
13462W        W80245  38.319  20.567  12.954
13463W        W80246  28.914  20.503   3.205
13464W        W80247  17.173  29.895  14.016
13465W        W80248   9.844   1.681  10.769
13466W        W80249   9.568  42.954  13.831
13467W        W80250  15.816   8.331  13.969
13468W        W80251  19.206  38.421   1.043
13469W        W80252  11.869  25.914   3.239
13470W        W80253   6.585  13.562  12.534
13471W        W80254  12.694  30.326   3.360
13472W        W80255  17.067   2.177  13.886
13473W        W80256  12.364  29.133   2.557
13474W        W80257  29.471   5.337   3.847
13475W        W80258   9.236  17.275   1.475
13476W        W80259  11.877  17.628   2.360
13477W        W80260  17.958  26.579   0.187
13478W        W80261  14.601  27.018  11.404
13479W        W80262   0.457  42.795   4.111
13480W        W80263  40.020  31.693   2.732
13481W        W80264   0.484  18.195   0.748
13482W        W80265  24.241  19.710  14.143
13483W        W80266  21.108  33.132   3.764
13484W        W80267  15.838  38.179  13.620
13485W        W80268  36.824  12.073  10.804
13486W        W80269  30.155  22.861  11.048
13487W        W80270   8.956  35.825   1.723
13488W        W80271  39.105  40.412   2.807
13489W        W80272  24.530   1.938   0.861
13490W        W80273  31.151  11.148  10.318
13491W        W80274   1.944  12.272   0.034
13492W        W80275  30.186  19.785   4.418
13493W        W80276  36.397  20.976   0.743
13494W        W80277  30.833  17.320  13.918
13495W        W80278  36.844  32.247  11.953
13496W        W80279  17.305   1.713  11.803
13497W        W80280  30.164   0.824   2.394
13498W        W80281   0.876  22.037   0.927
13499W        W80282  27.361  11.376   0.800
13500W        W80283  10.125  38.115   4.037
13501W        W80284  23.203   9.214   4.156
13502W        W80285  37.617  24.705   2.600
13503W        W80286  14.059   3.785  11.041
13504W        W80287  27.707  36.628   2.087
13505W        W80288  11.536   8.740   1.962
13506W        W80289  21.223  13.569   4.200
13507W        W80290   2.648  12.690   4.581
13508W        W80291  20.584  14.266  12.509
13509W        W80292  35.514  35.726  11.211
13510W        W80293   9.729   6.403  10.740
13511W        W80294  20.372   4.962   2.276
13512W        W80295  21.026  30.781  12.511
13513W        W80296  19.765   4.528  11.888
13514W        W80297  29.165  37.085   4.679
13515W        W80298  42.849  10.284   4.972
13516W        W80299  40.191  28.658   2.215
13517W        W80300  17.808  32.180   3.695
13518W        W80301  14.638  11.692   1.494
13519W        W80302  43.026  17.779  13.553
13520W        W80303   1.724  38.490   1.277
13521W        W80304  40.335  21.592   0.088
13522W        W80305  14.768  23.501  12.865
13523W        W80306  38.776  24.969  13.085
13524W        W80307  22.970  36.977  13.047
13525W        W80308  15.792  17.978  10.714
13526W        W80309  11.643   0.452  10.534
13527W        W80310  21.454  35.440   1.899
13528W        W80311  44.806  39.452  11.452
13529W        W80312  26.246  32.843   3.691
13530W        W80313  18.673  30.398   4.566
13531W        W80314  43.353   8.134   0.202
13532W        W80315   9.872   2.772  13.213
13533W        W80316  35.180   1.688   3.255
13534W        W80317  20.180   9.788   4.811
13535W        W80318   3.452  24.129  13.623
13536W        W80319  10.537  11.368   2.730
13537W        W80320  40.374  17.149   4.607
13538W        W80321   6.043  37.357  12.739
13539W        W80322  31.844  11.884   3.492
13540W        W80323  22.085  13.759  12.375
13541W        W80324  15.756  10.170   2.682
13542W        W80325  40.630  15.378  13.413
13543W        W80326  20.677  39.266   0.619
13544W        W80327  10.308  30.464   0.311
13545W        W80328  29.082  13.206   4.491
13546W        W80329   7.680  32.498   3.714
13547W        W80330  44.415   5.792  10.676
13548W        W80331  23.246  37.093  10.971
13549W        W80332  13.642  42.046   1.910
13550W        W80333  12.753  31.669   2.067
13551W        W80334  28.064  39.615   3.286
13552W        W80335  44.397  15.396  13.313
13553W        W80336   2.206  33.420   2.292
13554W        W80337   4.561   5.028  12.558
13555W        W80338   4.238  27.994   2.854
13556W        W80339  29.326  25.727  11.128
13557W        W80340  44.357  14.158  14.706
13558W        W80341  43.968  30.631   2.300
13559W        W80342   3.344  23.107  11.062
13560W        W80343  37.364  42.164  14.731
13561W        W80344  19.195   8.176  10.665
13562W        W80345  28.189  18.672   4.094
13563W        W80346   6.942  42.528   3.055
13564W        W80347  20.551  24.712   4.864
13565W        W80348  11.226  42.308  14.279
13566W        W80349  41.986  37.616   0.471
13567W        W80350   9.255  15.781  13.462
13568W        W80351  35.956  20.261  14.923
13569W        W80352  40.096  14.133  14.632
13570W        W80353  20.027  37.497  13.406
13571W        W80354   5.890  24.185   4.114
13572W        W80355  15.180  19.036   3.363
13573W        W80356  15.598  19.945  11.907
13574W        W80357  17.889   0.901   0.729
13575W        W80358  32.167  21.707   2.811
13576W        W80359  43.296  36.067   3.658
13577W        W80360   5.692  38.130   2.152
13578W        W80361  37.298  23.059   2.865
13579W        W80362  27.662  35.369  11.638
13580W        W80363  13.075  35.321   3.260
13581W        W80364   5.074  28.583   4.867
13582W        W80365  40.866  42.964   2.812
13583W        W80366  36.842  12.274  11.675
13584W        W80367   6.953  20.146   0.252
13585W        W80368  33.964  31.907  12.627
13586W        W80369  17.670   5.420  13.838
13587W        W80370  17.211  14.077   1.444
13588W        W80371  43.319  25.076  14.324
13589W        W80372  30.210   0.621  11.829
13590W        W80373  27.211  22.210   1.419
13591W        W80374  26.585   9.464   3.090
13592W        W80375  25.559  10.402   3.686
13593W        W80376  22.530  42.035  10.981
13594W        W80377  32.046  15.256  12.045
13595W        W80378  11.676  20.298   4.845
13596W        W80379   3.246  24.731   2.607
13597W        W80380   5.152   8.903   2.357
13598W        W80381   1.424  15.875   0.309
13599W        W80382  37.674   5.255   3.227
13600W        W80383  42.579  27.212   0.393
13601W        W80384  31.563  30.469  11.576
13602W        W80385   5.147   0.229   0.999
13603W        W80386  43.887  44.451   4.794
13604W        W80387  23.789  17.721   3.360
13605W        W80388  44.524  24.618  13.902
13606W        W80389  15.268  21.026  11.035
13607W        W80390  27.893  17.519   3.333
13608W        W80391  25.381  43.679   2.158
13609W        W80392  18.849   5.854  13.496
13610W        W80393   3.688   9.204  12.356
13611W        W80394  32.025   2.359  14.843
13612W        W80395   8.415  19.750   4.620
13613W        W80396   8.278   7.355  10.075
13614W        W80397  25.048  39.917   3.431
13615W        W80398  41.008  44.693  12.144
13616W        W80399  13.897   2.916   4.508
13617W        W80400  27.996  18.834  10.736
13618W        W80401  14.400  35.406  11.154
13619W        W80402  41.057   8.693   0.446
13620W        W80403  10.604  17.974   3.278
13621W        W80404  17.772   3.931   1.946
13622W        W80405  14.048  23.605   0.866
13623W        W80406  12.577  43.348  14.443
13624W        W80407  43.575   8.123  12.036
13625W        W80408  40.260  41.942   0.663
13626W        W80409  41.617  14.320  13.007
13627W        W80410  28.304  22.965   0.872
13628W        W80411  36.440   6.369   0.536
13629W        W80412  25.124   1.525  13.909
13630W        W80413  13.723   6.610   1.453
13631W        W80414  22.169  18.150  13.961
13632W        W80415  12.891  12.907   1.470
13633W        W80416  41.378  23.249  13.506
13634W        W80417  20.944  37.345   0.365
13635W        W80418  40.038  15.532  13.092
13636W        W80419   3.799  37.319   4.160
13637W        W80420  25.128  38.894  11.579
13638W        W80421  40.766  43.245  14.915
13639W        W80422  43.246  11.701   3.245
13640W        W80423  16.859  18.268  12.135
13641W        W80424  23.146  14.489  12.911
13642W        W80425  11.657  31.974   1.420
13643W        W80426   9.869   0.269   3.380
13644W        W80427  36.446  41.588   0.773
13645W        W80428  14.959  14.308   4.530
13646W        W80429  38.101   7.653   4.133
13647W        W80430  12.013  18.717   3.888
13648W        W80431   7.308  39.077  14.311
13649W        W80432   1.160  11.876   5.102
13650W        W80433  18.435   7.698   3.377
13651W        W80434  10.717   8.116   0.935
13652W        W80435  33.091  34.600   3.742
13653W        W80436   1.744   1.587  12.820
13654W        W80437   7.148  39.562  14.365
13655W        W80438  30.989  12.672   3.850
13656W        W80439  10.244  25.476  10.504
13657W        W80440  35.954   2.249  11.063
13658W        W80441  30.326  29.893   3.619
13659W        W80442  42.380   7.811  11.352
13660W        W80443   1.043  43.214  13.352
13661W        W80444  16.097  28.258   3.639
13662W        W80445  36.692  23.676  11.156
13663W        W80446  26.634  25.595  13.133
13664W        W80447  28.470   6.076  10.774
13665W        W80448  40.156  33.186   1.408
13666W        W80449  33.921  32.881  11.838
13667W        W80450  19.123  25.507   1.819
13668W        W80451  15.536  35.614  13.278
13669W        W80452  32.394  43.153  12.005
13670W        W80453  24.969   6.389  10.521
13671W        W80454  32.087  41.791  11.636
13672W        W80455  29.624  35.480  14.493
13673W        W80456   5.313  11.118  14.392
13674W        W80457   2.844  34.293  13.974
13675W        W80458  43.035  21.653  12.136
13676W        W80459  23.030  33.077   0.515
13677W        W80460  21.565  16.605   3.307
13678W        W80461  25.445  27.086   0.905
13679W        W80462  40.436  18.904  11.999
13680W        W80463  27.186  37.082  14.382
13681W        W80464  11.142  15.657  10.991
13682W        W80465  26.978  27.085  14.351
13683W        W80466   8.978  16.679  14.330
13684W        W80467  19.385  25.426   1.225
13685W        W80468  27.020  26.111  12.125
13686W        W80469  23.153   7.744   0.419
13687W        W80470  23.896   9.066  13.038
13688W        W80471   6.837  21.237   1.375
13689W        W80472  25.132  25.699   1.735
13690W        W80473   4.341  26.959   0.431
13691W        W80474  37.413  22.533   1.817
13692W        W80475   0.369  38.604   2.608
13693W        W80476  33.082   3.346   0.533
13694W        W80477  33.645  14.593  10.418
13695W        W80478   3.347  44.182  10.442
13696W        W80479   3.332  13.748   1.282
13697W        W80480  41.466  26.392  11.064
13698W        W80481  30.251  16.609   2.896
13699W        W80482  24.693  32.005   1.925
13700W        W80483   8.388  34.522   1.708
13701W        W80484  24.927  16.579  12.073
13702W        W80485  25.552   5.255   2.411
13703W        W80486  38.284  25.812  13.435
13704W        W80487   8.147   1.162  14.916
13705W        W80488  32.824  34.100  13.072
13706W        W80489  39.428   4.305  14.409
13707W        W80490   8.474  36.363  11.597
13708W        W80491  10.068  41.705   9.917
13709W        W80492  20.191   3.924  11.232
13710W        W80493  27.167  35.385  11.607
13711W        W80494  35.833   7.167  12.483
13712W        W80495  42.307  28.133  13.217
13713W        W80496  19.657  13.749   4.076
13714W        W80497  23.649  44.623   4.477
13715W        W80498  29.558  28.411   3.686
13716W        W80499  44.240  12.953   2.285
13717W        W80500  43.736   9.430  14.493
13718W        W80501   2.817  43.030   0.440
13719W        W80502  34.580  36.872  14.900
13720W        W80503  18.200  23.431   1.283
13721W        W80504   6.624  27.142   0.859
13722W        W80505  42.248  24.911   1.223
13723W        W80506   0.956  23.932  13.458
13724W        W80507  22.302  23.649   0.510
13725W        W80508   0.235  32.884   3.610
13726W        W80509  43.388   5.396   3.213
13727W        W80510  43.441  25.110   0.883
13728W        W80511  36.534  28.626  14.518
13729W        W80512  39.607  16.056  13.067
13730W        W80513  23.509  12.347   2.649
13731W        W80514  19.944  16.147  11.732
13732W        W80515  40.327  20.132   2.264
13733W        W80516  20.666  17.574   0.946
13734W        W80517  12.699   0.556   2.677
13735W        W80518  25.518  12.418  14.239
13736W        W80519   9.435  28.830   3.252
13737W        W80520  25.611   3.614   3.701
13738W        W80521  13.985  25.306   4.138
13739W        W80522  44.399  34.028   1.903
13740W        W80523  36.137  13.268   3.575
13741W        W80524  35.108   9.832   1.671
13742W        W80525  24.489  33.483  10.498
13743W        W80526  18.929  15.726   3.684
13744W        W80527  22.190  40.244  13.466
13745W        W80528  17.072  29.856   1.767
13746W        W80529  39.566  13.994  11.822
13747W        W80530  11.716   0.347   2.597
13748W        W80531  26.618  40.275  12.137
13749W        W80532  37.460  41.809  12.752
13750W        W80533  34.667  13.232   3.437
13751W        W80534  26.559   9.133  14.408
13752W        W80535  35.181  12.472   1.329
13753W        W80536   0.935  17.903   0.661
13754W        W80537  23.282  41.327   2.288
13755W        W80538  35.101   5.922   9.717
13756W        W80539  30.559   6.346   3.889
13757W        W80540  24.342  35.907   2.840
13758W        W80541   9.747   2.495  11.147
13759W        W80542  40.420  20.902  11.049
13760W        W80543  35.466  18.506   2.363
13761W        W80544   9.210  10.535   2.800
13762W        W80545   2.681  39.107  11.178
13763W        W80546  39.412   1.290  14.524
13764W        W80547  10.265  32.137   1.293
13765W        W80548   3.311  42.279  12.031
13766W        W80549  34.875  37.267   4.170
13767W        W80550  15.437  21.618  14.442
13768W        W80551  41.625  21.708   0.705
13769W        W80552  38.973  22.673   1.505
13770W        W80553   5.017  26.906   0.438
13771W        W80554   5.650  17.065  11.447
13772W        W80555   8.818   9.646   2.710
13773W        W80556  14.737  39.605  10.123
13774W        W80557  31.383  39.234  14.302
13775W        W80558  18.662   7.659  14.549
13776W        W80559  30.624  42.884   0.293
13777W        W80560   3.650   1.391   2.560
13778W        W80561  21.221  21.819  10.643
13779W        W80562  14.887   4.797   2.654
13780W        W80563  19.226  17.851  10.603
13781W        W80564  16.084  19.760  13.027
13782W        W80565   1.331  37.237   2.840
13783W        W80566  31.038  35.085   2.290
13784W        W80567  21.908  23.908  14.656
13785W        W80568  26.240   8.971   1.752
13786W        W80569   5.325  19.735  12.736
13787W        W80570  38.254  36.384   0.576
13788W        W80571   5.124  43.897   2.726
13789W        W80572   2.279   8.887   1.685
13790W        W80573  24.349  27.936   2.593
13791W        W80574  20.745  25.949  10.918
13792W        W80575   6.617  14.418  12.934
13793W        W80576  37.931  29.443  12.446
13794W        W80577  21.486  29.183   2.161
13795W        W80578  21.022  11.707  13.843
13796W        W80579  12.705  27.276   3.724
13797W        W80580  35.666  15.728   2.918
13798W        W80581   5.227  16.649  13.979
13799W        W80582  26.648  30.162  11.207
13800W        W80583   2.470  16.668   3.219
13801W        W80584  36.949  33.504  10.783
13802W        W80585  35.864  20.301  14.038
13803W        W80586  38.668   2.415  13.822
13804W        W80587   3.394   1.048  11.625
13805W        W80588  44.970  27.122  10.825
13806W        W80589  12.362  18.342  11.232
13807W        W80590  22.679   5.494  11.032
13808W        W80591  44.020  38.801   1.181
13809W        W80592  14.787   1.365   4.415
13810W        W80593  43.033  36.779  11.908
13811W        W80594  11.680  39.432   2.244
13812W        W80595   0.957   7.192  13.942
13813W        W80596  38.513   9.579  14.386
13814W        W80597  23.190  35.510   0.839
13815W        W80598  10.806  29.298   3.256
13816W        W80599   2.443  23.910   4.235
13817W        W80600  41.258  38.086   1.553
13818W        W80601  35.658  13.069   4.404
13819W        W80602  42.910  24.646   2.386
13820W        W80603  15.530  10.746  13.010
13821W        W80604  34.674  27.948  10.570
13822W        W80605  31.859  24.412  12.073
13823W        W80606  38.947  41.743  13.549
13824W        W80607   8.393  20.249  12.052
13825W        W80608  39.361   3.420   1.518
13826W        W80609  14.157  28.639   0.441
13827W        W80610  14.298   4.495   4.348
13828W        W80611  23.984  36.342  14.479
13829W        W80612  21.643  14.049  12.557
13830W        W80613   5.216   2.038  13.044
13831W        W80614  34.137  28.462   3.595
13832W        W80615  14.822  28.335   3.375
13833W        W80616  38.197  14.129   0.320
13834W        W80617  21.573  42.994   2.874
13835W        W80618  32.639  30.729   3.807
13836W        W80619   1.473  28.482  11.635
13837W        W80620  10.684  42.828  12.918
13838W        W80621   6.620  25.948   2.787
13839W        W80622   9.420  41.755   2.616
13840W        W80623  44.780  42.290   2.917
13841W        W80624  34.568  38.324   3.076
13842W        W80625  16.997  25.113   2.796
13843W        W80626  43.029  40.382   3.561
13844W        W80627  36.537  13.883  14.404
13845W        W80628  22.658   7.425   4.892
13846W        W80629  25.080  39.734   2.917
13847W        W80630   7.713  18.278  11.095
13848W        W80631  15.079  32.437  13.990
13849W        W80632   7.849  30.515  10.456
13850W        W80633   7.686  32.685   0.468
13851W        W80634  25.603   1.420   0.485
13852W        W80635  35.915  19.637  13.107
13853W        W80636  19.048  22.150   1.650
13854W        W80637  29.393  12.861  13.900
13855W        W80638  20.907  21.282   2.782
13856W        W80639   7.153  27.426   1.344
13857W        W80640   5.008  37.417  12.821
13858W        W80641  20.672   2.311  12.872
13859W        W80642   7.148  44.183   3.808
13860W        W80643  10.631   4.138   3.209
13861W        W80644  43.742   8.100   0.955
13862W        W80645   9.648  25.673  12.571
13863W        W80646  30.543  12.143  14.218
13864W        W80647  28.685  34.675  13.581
13865W        W80648  22.439   7.034   5.104
13866W        W80649  39.194   0.438  14.278
13867W        W80650  38.796  12.139   3.738
13868W        W80651  33.730   9.669   4.725
13869W        W80652  22.477  27.252  11.162
13870W        W80653  28.126  41.257   5.488
13871W        W80654   3.398  16.542   1.729
13872W        W80655   3.963  31.453   3.816
13873W        W80656  44.525  40.018  11.978
13874W        W80657   3.424  18.776   0.736
13875W        W80658  19.600  15.837  11.482
13876W        W80659   8.929  30.024   3.237
13877W        W80660  32.429  15.191   1.475
13878W        W80661  31.856  24.728   3.767
13879W        W80662  12.851   7.450  11.588
13880W        W80663  38.941  25.248  11.714
13881W        W80664  38.474  30.674   3.347
13882W        W80665  14.426  28.273   1.380
13883W        W80666  28.673  30.874  13.433
13884W        W80667   8.158  42.939  13.934
13885W        W80668  11.373   9.795  13.843
13886W        W80669  17.746  37.628  12.899
13887W        W80670   7.592  37.478   3.274
13888W        W80671  15.532  29.000   0.398
13889W        W80672  32.131   6.703   0.550
13890W        W80673  42.869   9.097  12.547
13891W        W80674  13.762   9.835   1.422
13892W        W80675  19.257  22.179  13.452
13893W        W80676  11.067  42.974  11.680
13894W        W80677  23.411  43.622   0.356
13895W        W80678  20.266  43.217   2.296
13896W        W80679  11.153  16.890  10.467
13897W        W80680   4.556  34.444  12.544
13898W        W80681  20.081  44.904  14.018
13899W        W80682   5.399   8.370   4.640
13900W        W80683  13.268  39.891   3.759
13901W        W80684   5.227   0.542  14.154
13902W        W80685  26.789  32.492   3.169
13903W        W80686  30.958  39.540  12.191
13904W        W80687  41.977  34.497   0.534
13905W        W80688  43.003   3.750  13.971
13906W        W80689  17.810   8.539   1.009
13907W        W80690  34.841   9.344   0.937
13908W        W80691  14.790  28.916   0.958
13909W        W80692  37.012  33.028  12.876
13910W        W80693  20.541  44.933  12.871
13911W        W80694  12.049  21.343  13.516
13912W        W80695  44.524  19.072   4.593
13913W        W80696  29.620  23.194  14.761
13914W        W80697   5.266  25.732  12.939
13915W        W80698  14.390  37.479   3.326
13916W        W80699  27.623  33.831   1.726
13917W        W80700  30.326  29.585  14.837
13918W        W80701   6.956   0.345  11.321
13919W        W80702  37.493  26.713   0.442
13920W        W80703  34.637   2.197   0.731
13921W        W80704  40.253   3.989  11.841
13922W        W80705  43.266  20.157   3.138
13923W        W80706  40.374  31.492   3.041
13924W        W80707   2.196  33.372   3.799
13925W        W80708   3.795  12.210   4.182
13926W        W80709  39.428   3.863   0.048
13927W        W80710  13.053   0.964  11.983
13928W        W80711  43.790  12.778  13.631
13929W        W80712   0.940  17.169   4.169
13930W        W80713  11.039  25.446  14.949
13931W        W80714   0.284   8.847   3.614
13932W        W80715  20.681  39.776   2.998
13933W        W80716  26.667  19.200  12.528
13934W        W80717  18.620  17.574   3.620
13935W        W80718  10.035  37.300  10.016
13936W        W80719  43.082  25.938  12.461
13937W        W80720  40.010  34.165   2.805
13938W        W80721   2.357   6.592   2.401
13939W        W80722  19.241  26.265  12.876
13940W        W80723  10.327  31.203  14.775
13941W        W80724  43.482  25.472   2.106
13942W        W80725  27.253  41.346  14.852
13943W        W80726  31.201   6.299  13.748
13944W        W80727  40.214   1.242   4.552
13945W        W80728   9.156  21.262   0.857
13946W        W80729  39.778   8.994   2.908
13947W        W80730  41.323  26.106  10.653
13948W        W80731  37.694  18.670   3.249
13949W        W80732   5.358  43.727   4.604
13950W        W80733  28.584  37.960   2.881
13951W        W80734  38.571   8.432  11.175
13952W        W80735   5.888  11.151  14.329
13953W        W80736  23.036  30.548   2.475
13954W        W80737  20.232  24.559  12.165
13955W        W80738   6.095  34.764   1.158
13956W        W80739  29.354   4.542   3.251
13957W        W80740   5.954  17.039   2.861
13958W        W80741  20.122  25.507  14.903
13959W        W80742   0.710  23.648   1.229
13960W        W80743  41.304  43.487   1.894
13961W        W80744   0.794   3.131  13.003
13962W        W80745  29.976  42.523  10.731
13963W        W80746  39.368  24.441  11.672
13964W        W80747  25.567  41.397   2.858
13965W        W80748  11.597  30.260   1.931
13966W        W80749  36.446  10.610   9.979
13967W        W80750   6.717  11.640   2.235
13968W        W80751  10.845   4.102   0.968
13969W        W80752  17.022  32.577  13.940
13970W        W80753  44.424  28.678   3.154
13971W        W80754  24.735  42.582   3.757
13972W        W80755  30.668   8.811  12.133
13973W        W80756  26.577   1.069   1.795
13974W        W80757  20.665  33.314  11.696
13975W        W80758  25.490  27.014   2.687
13976W        W80759  33.002  20.329   1.182
13977W        W80760  39.616  30.939   4.103
13978W        W80761  39.903  42.384   0.631
13979W        W80762  36.135  20.147  10.308
13980W        W80763  13.254  21.500  13.337
13981W        W80764   8.265   0.534   2.404
13982W        W80765  31.382  42.402   3.601
13983W        W80766   3.730  38.356   2.872
13984W        W80767   5.214  36.717  14.724
13985W        W80768  35.884  15.930   0.762
13986W        W80769  39.419   2.671   2.139
13987W        W80770   2.434  26.322  12.109
13988W        W80771  44.629  13.657   4.033
13989W        W80772   6.036  34.881   2.918
13990W        W80773   8.816  38.675   0.880
13991W        W80774  21.851  29.510  13.939
13992W        W80775  13.264   6.864  14.065
13993W        W80776  13.342   1.470   2.425
13994W        W80777  30.388  18.394   2.271
13995W        W80778  19.920  25.945   3.775
13996W        W80779   4.742  32.429  14.518
13997W        W80780  36.302   1.193   0.788
13998W        W80781  28.519  24.419   3.145
13999W        W80782  41.286   5.931  12.917
14000W        W80783   2.177   1.690   2.489
14001W        W80784  40.350  31.363  14.323
14002W        W80785  13.681  13.776  12.157
14003W        W80786  12.900  36.372   3.231
14004W        W80787  44.761  22.750  13.837
14005W        W80788  20.068  22.465   3.705
14006W        W80789  23.696  39.647   4.576
14007W        W80790  34.923  26.404   3.596
14008W        W80791  13.535  30.515  12.920
14009W        W80792  36.725  17.127   1.846
14010W        W80793  36.795  33.956   2.060
14011W        W80794  29.234  12.283  12.465
14012W        W80795  11.207   4.963   2.184
14013W        W80796  34.631  12.307   3.375
14014W        W80797  36.390  19.772   4.898
14015W        W80798  26.466   3.735  11.163
14016W        W80799  32.578  31.694   2.800
14017W        W80800  23.280  32.264  14.332
14018W        W80801  17.382  41.169   5.001
14019W        W80802  24.679  33.327  14.528
14020W        W80803  34.950  15.843   3.285
14021W        W80804  26.381  23.687   1.465
14022W        W80805  31.586  21.080   1.264
14023W        W80806  37.307  12.360   0.157
14024W        W80807   7.293  14.919   1.906
14025W        W80808  27.208  33.913   0.914
14026W        W80809   3.537  27.574  10.756
14027W        W80810  39.267   3.219   3.753
14028W        W80811  38.404   6.662   2.909
14029W        W80812  23.063  38.285  12.387
14030W        W80813  40.924  16.261   4.144
14031W        W80814  38.876   2.935   0.620
14032W        W80815   9.607   3.812  13.994
14033W        W80816   5.274   8.693  10.910
14034W        W80817   9.250  29.550   4.537
14035W        W80818  37.229  38.467   2.089
14036W        W80819  25.529   9.706  13.470
14037W        W80820  27.704  32.345   1.769
14038W        W80821  43.784  39.406   0.806
14039W        W80822  15.364  24.228   4.127
14040W        W80823  28.019  16.823  10.001
14041W        W80824  28.054  43.989   3.532
14042W        W80825  27.991  16.127   0.379
14043W        W80826  20.226  12.132  11.674
14044W        W80827  39.906   3.714   0.832
14045W        W80828  24.242  16.646  14.955
14046W        W80829  38.549  27.373  10.938
14047W        W80830  15.883   5.284   1.237
14048W        W80831  20.092  22.692   4.518
14049W        W80832   6.605  38.926   1.608
14050W        W80833  28.262   3.772  12.179
14051W        W80834  18.955   3.665  11.245
14052W        W80835  23.699  30.244  12.116
14053W        W80836   8.374  34.556  12.057
14054W        W80837  31.830  32.499  12.953
14055W        W80838  15.228  41.011  11.162
14056W        W80839  35.376   5.499   3.143
14057W        W80840   3.351  27.019   0.423
14058W        W80841   5.858  12.345   0.453
14059W        W80842  31.188  34.802   4.170
14060W        W80843   1.608   9.753   3.679
14061W        W80844   5.898  21.238   4.619
14062W        W80845  14.662  13.333  11.406
14063W        W80846  35.426   0.716  13.000
14064W        W80847  40.549   3.293   0.441
14065W        W80848   8.660  23.199  14.762
14066W        W80849  28.575  24.720   3.590
14067W        W80850  26.780  18.238  12.452
14068W        W80851   9.445   9.043   3.604
14069W        W80852  21.881   0.187  11.733
14070W        W80853   0.835   6.618   2.845
14071W        W80854  34.535  29.711   5.020
14072W        W80855   4.154  36.359   1.170
14073W        W80856   2.464  42.871  11.189
14074W        W80857   6.316  34.639   3.877
14075W        W80858  16.118  42.544   2.049
14076W        W80859   4.138  28.597   3.638
14077W        W80860  41.912  15.365   0.879
14078W        W80861   7.575  21.806  11.934
14079W        W80862  35.962  32.053   3.355
14080W        W80863  37.865  13.997  11.635
14081W        W80864  35.045  32.550  14.335
14082W        W80865   9.879  37.094   2.788
14083W        W80866   1.691  35.426   3.522
14084W        W80867  31.957  16.303   0.047
14085W        W80868  29.898  22.988  13.919
14086W        W80869  32.459  40.187   4.143
14087W        W80870   3.573   5.347   5.098
14088W        W80871   3.341  17.830   1.716
14089W        W80872  25.061  30.745   1.878
14090W        W80873   8.633  29.970  13.448
14091W        W80874   3.916  39.589  13.876
14092W        W80875  41.655  28.839  10.754
14093W        W80876  22.446  17.829  11.024
14094W        W80877  40.990   2.382   3.127
14095W        W80878   4.183  38.857   0.144
14096W        W80879   6.862  38.185  13.376
14097W        W80880  33.389  41.073   2.220
14098W        W80881  30.918  40.379  12.431
14099W        W80882  19.013  35.042   1.739
14100W        W80883  31.675  24.216  14.776
14101W        W80884  20.572  23.948   4.160
14102W        W80885  42.936  44.848  14.895
14103W        W80886  22.626   9.238   0.391
14104W        W80887  29.677  13.573   2.740
14105W        W80888  21.534  37.124  13.880
14106W        W80889  23.212   3.736  13.209
14107W        W80890  32.473  11.175   2.918
14108W        W80891  14.851  34.494   4.557
14109W        W80892  40.839   0.236   0.904
14110W        W80893  15.369   6.657  14.873
14111W        W80894  33.185   4.370  11.145
14112W        W80895  34.580  34.621  13.737
14113W        W80896  16.865  35.335  14.812
14114W        W80897   7.970   8.063  12.517
14115W        W80898   3.682  36.533   2.435
14116W        W80899  11.263  43.456   3.657
14117W        W80900  10.589  23.100  14.706
14118W        W80901  43.676   0.680   0.265
14119W        W80902  43.572   1.061  11.156
14120W        W80903  21.322  10.059   9.920
14121W        W80904  23.507  17.070   1.258
14122W        W80905  24.724  24.469   1.196
14123W        W80906  27.662  29.532  13.324
14124W        W80907  23.497  23.157   3.044
14125W        W80908  17.728  18.428   4.020
14126W        W80909  42.688  19.738   0.451
14127W        W80910   6.263   9.331  12.663
14128W        W80911  39.028  19.804   3.056
14129W        W80912   9.745   1.245   1.886
14130W        W80913  41.876   4.928  11.397
14131W        W80914  23.540  37.938   3.324
14132W        W80915   6.467  24.640   4.709
14133W        W80916  27.159  31.336   0.562
14134W        W80917  41.046  26.530  14.928
14135W        W80918  32.387  28.490   1.926
14136W        W80919  21.568   5.118  11.202
14137W        W80920   0.295  16.321  10.615
14138W        W80921  17.803  17.849  14.894
14139W        W80922  44.700  11.081   4.967
14140W        W80923  28.424  35.692  13.429
14141W        W80924  18.464  28.746  13.624
14142W        W80925  34.844   0.547   1.599
14143W        W80926  18.592  24.981   4.098
14144W        W80927  30.882  22.781   0.416
14145W        W80928  25.853   3.856   9.807
14146W        W80929  16.800  10.655  14.762
14147W        W80930  31.280  32.204   2.927
14148W        W80931  21.740  33.237   3.349
14149W        W80932   8.620  37.893   1.845
14150W        W80933  15.350  14.196   1.315
14151W        W80934   6.917  33.121   2.903
14152W        W80935  40.514   5.961   4.567
14153W        W80936  32.293  15.119   4.843
14154W        W80937   3.605  28.538   2.691
14155W        W80938  30.207  37.512   1.165
14156W        W80939   3.329   3.623  12.359
14157W        W80940  11.319  24.814   1.908
14158W        W80941  38.346  25.040   1.183
14159W        W80942  30.378  18.264  14.853
14160W        W80943  18.060  41.019   4.571
14161W        W80944  41.931  13.587   3.982
14162W        W80945  42.513  15.548   0.148
14163W        W80946  37.993  36.231   3.392
14164W        W80947   4.754   6.245   1.349
14165W        W80948  14.833  43.922   4.447
14166W        W80949  37.094  30.231   2.877
14167W        W80950  20.798  38.295  12.314
14168W        W80951  31.907  33.684  12.220
14169W        W80952  20.561   8.820  11.658
14170W        W80953  28.144  14.150   1.807
14171W        W80954   3.476   5.547  12.829
14172W        W80955   2.396  11.614   0.365
14173W        W80956  31.974   3.986   1.200
14174W        W80957   6.431  17.559  13.038
14175W        W80958  29.793  13.133   0.106
14176W        W80959  39.943  20.014   2.605
14177W        W80960  24.894  30.567   2.761
14178W        W80961  21.507  33.811  11.510
14179W        W80962  43.266  42.873  13.857
14180W        W80963  13.362  34.320   3.273
14181W        W80964  13.505  25.793  13.285
14182W        W80965   1.528  27.071  14.863
14183W        W80966  22.728  29.035  11.458
14184W        W80967   7.772  35.096   4.766
14185W        W80968  18.726  26.735   1.975
14186W        W80969   7.174   9.806  13.142
14187W        W80970  29.975   9.219  13.914
14188W        W80971  40.528   6.157  13.307
14189W        W80972  38.361  32.073  11.095
14190W        W80973  30.967  12.801  12.492
14191W        W80974  12.303  15.052   2.603
14192W        W80975   5.252  32.547  12.472
14193W        W80976   6.998  40.016   2.663
14194W        W80977  41.572   0.078  12.847
14195W        W80978  25.439  21.522   3.224
14196W        W80979  23.022  43.278   4.220
14197W        W80980  23.228   1.190  13.091
14198W        W80981  30.560  39.440  12.950
14199W        W80982  31.492   5.957   2.676
14200W        W80983   7.070  39.292   4.454
14201W        W80984  11.960  23.938   3.258
14202W        W80985  14.661   9.762  13.285
14203W        W80986  35.990  10.615  13.917
14204W        W80987  41.081  23.723   0.354
14205W        W80988  22.730   1.922  14.780
14206W        W80989  15.240   8.905  14.385
14207W        W80990   7.461  35.397   3.945
14208W        W80991  23.726   5.015  14.387
14209W        W80992  40.838  19.069  12.279
14210W        W80993  34.073   2.224   4.509
14211W        W80994  21.101  11.137   1.361
14212W        W80995  16.803   3.858  12.498
14213W        W80996  30.043  30.913  13.058
14214W        W80997  39.431  16.203  13.539
14215W        W80998  28.349   8.200  13.153
14216W        W80999  10.627  12.932  14.613
14217W        W81000   7.979   0.521  13.034
14218W        W81001  29.648   7.632  11.640
14219W        W81002  11.425  22.612  10.583
14220W        W81003  19.534  15.035   0.561
14221W        W81004  22.008  44.798  12.058
14222W        W81005   8.618  10.678  13.445
14223W        W81006  44.704  40.875   1.278
14224W        W81007   8.870  40.413  11.214
14225W        W81008  39.522   6.411   0.349
14226W        W81009  28.442  42.515  11.526
14227W        W81010   3.419   1.868   0.164
14228W        W81011  11.898   7.552  12.748
14229W        W81012  37.246  18.086   3.090
14230W        W81013   6.354  16.291  11.575
14231W        W81014  16.116  15.820  13.965
14232W        W81015   7.807   0.611   4.571
14233W        W81016   9.279  11.634  11.421
14234W        W81017   0.805  23.785   4.129
14235W        W81018  43.466  12.742   3.285
14236W        W81019  11.866   2.481   3.427
14237W        W81020  25.691   1.811   3.562
14238W        W81021  28.711  44.295   4.047
14239W        W81022  25.226   2.029  13.977
14240W        W81023   4.942  37.012   4.152
14241W        W81024  26.162   9.103   4.295
14242W        W81025  26.088   5.226  10.491
14243W        W81026  22.000  27.073  11.106
14244W        W81027  15.973   0.330  13.741
14245W        W81028   0.952  41.519   2.260
14246W        W81029  17.368  40.908   2.859
14247W        W81030  33.351  26.082   4.826
14248W        W81031  23.760  31.896   0.594
14249W        W81032   0.393  16.863   0.335
14250W        W81033  37.528  32.938   2.818
14251W        W81034   4.752  12.177  11.172
14252W        W81035   7.002   8.840  11.620
14253W        W81036   1.450  27.707  10.699
14254W        W81037   5.833  31.888  11.564
14255W        W81038   7.317  41.623   3.792
14256W        W81039  29.028  20.308  13.950
14257W        W81040  11.090  31.531  10.725
14258W        W81041  18.635  42.304   1.995
14259W        W81042  20.480  26.499   4.354
14260W        W81043  37.096  26.925   0.700
14261W        W81044   2.661  11.734  11.311
14262W        W81045  40.833  34.781   2.603
14263W        W81046  42.802  24.972   0.371
14264W        W81047   6.468  42.985  14.570
14265W        W81048   7.796  43.822   0.936
14266W        W81049  34.869   0.446   3.369
14267W        W81050  11.779  27.888   3.176
14268W        W81051  20.953  25.481  13.437
14269W        W81052   0.733  10.022  13.311
14270W        W81053  10.313   0.280  12.028
14271W        W81054   5.370  16.609   4.815
14272W        W81055  19.536   4.151   4.189
14273W        W81056  20.440  19.827   0.034
14274W        W81057  30.852  42.403   0.323
14275W        W81058  29.565  31.445   1.683
14276W        W81059  20.283  28.546   4.510
14277W        W81060  44.946  13.830  12.985
14278W        W81061  43.284  11.673  10.794
14279W        W81062  11.073  13.826   0.241
14280W        W81063  32.134  14.818  11.173
14281W        W81064  43.951  37.404   4.746
14282W        W81065  15.690   4.735  11.532
14283W        W81066  16.660  44.029  11.305
14284W        W81067  29.016   7.223   0.298
14285W        W81068  36.004   1.950   3.044
14286W        W81069   4.958  12.154  14.267
14287W        W81070  35.946  12.809   4.811
14288W        W81071  33.458  40.936  11.174
14289W        W81072   8.169  13.789  11.437
14290W        W81073  43.187  19.506   2.679
14291W        W81074  36.438  41.486  10.843
14292W        W81075  44.154  29.974  11.464
14293W        W81076  12.383  25.966   4.144
14294W        W81077  30.405  32.718  14.858
14295W        W81078  30.436  24.374  10.376
14296W        W81079   1.476  19.207  14.010
14297W        W81080  15.702  32.826  10.682
14298W        W81081  38.621  18.568  11.883
14299W        W81082  10.446  43.563  11.642
14300W        W81083   9.355  37.487   5.082
14301W        W81084  10.195  19.554  14.377
14302W        W81085  21.824  17.324  12.124
14303W        W81086  25.984  43.033   0.918
14304W        W81087  11.555  26.665  13.791
14305W        W81088  44.261  30.191  14.758
14306W        W81089  24.959   1.401   3.313
14307W        W81090   4.782   1.870  13.746
14308W        W81091  39.007   2.504  11.884
14309W        W81092  34.227  19.415   5.408
14310W        W81093  13.812   9.042  10.688
14311W        W81094  17.737   8.371   1.915
14312W        W81095  13.169  10.298   4.360
14313W        W81096  43.430  44.791  14.722
14314W        W81097  10.677  29.193  11.151
14315W        W81098  27.370  23.956  11.704
14316W        W81099  43.311  16.474   2.045
14317W        W81100  34.292  28.729  13.329
14318W        W81101  41.293  11.082   2.243
14319W        W81102  39.592  15.675   0.827
14320W        W81103  23.778  40.433  14.239
14321W        W81104   9.549  15.215   0.002
14322W        W81105  13.398  12.863   1.571
14323W        W81106  37.409  28.776  10.751
14324W        W81107  17.015   9.587   0.837
14325W        W81108  36.941  19.643   0.096
14326W        W81109  43.061   1.225  12.598
14327W        W81110  22.153  28.241  11.072
14328W        W81111  40.808   2.892   4.572
14329W        W81112  23.657  30.177   3.701
14330W        W81113  34.873   5.027  11.116
14331W        W81114   4.393  38.550  11.346
14332W        W81115  35.929  22.983   4.717
14333W        W81116   6.926   0.270   2.616
14334W        W81117  17.547  21.024  14.177
14335W        W81118   4.672  33.636  11.080
14336W        W81119  28.276  16.299   0.004
14337W        W81120  34.381  24.394  14.865
14338W        W81121  36.013   8.969   1.016
14339W        W81122   6.142  34.220  11.435
14340W        W81123   8.626   9.794  13.390
14341W        W81124  42.784  10.586  13.879
14342W        W81125  13.390  34.450  14.500
14343W        W81126  31.665   3.788   2.282
14344W        W81127  29.012  37.440   1.756
14345W        W81128  18.942  24.965   3.719
14346W        W81129  42.018  28.203  11.409
14347W        W81130  20.500  36.077  12.933
14348W        W81131  22.635   6.262  14.392
14349W        W81132   4.795  12.683  10.526
14350W        W81133   6.209   1.050  11.034
14351W        W81134   2.700  28.911   2.532
14352W        W81135  30.088   4.896   4.531
14353W        W81136  34.183  21.388  11.946
14354W        W81137  15.539  29.523   5.465
14355W        W81138   5.679  33.577  13.128
14356W        W81139   4.763   0.039   1.841
14357W        W81140  38.378  28.240  13.764
14358W        W81141  31.430  14.826  14.887
14359W        W81142   2.829  18.522   4.280
14360W        W81143  21.151  13.588  11.577
14361W        W81144   7.350  27.876   5.057
14362W        W81145   8.574  25.241  13.152
14363W        W81146  21.756  22.036   1.212
14364W        W81147  11.366  28.502   3.218
14365W        W81148   8.401  31.345  13.396
14366W        W81149   8.831  39.625  14.763
14367W        W81150  19.472   6.336   0.383
14368W        W81151  31.569   7.823   3.878
14369W        W81152  28.608  14.287  12.408
14370W        W81153  11.452  18.943   2.272
14371W        W81154  32.298   4.530   1.879
14372W        W81155  44.054  27.549  11.654
14373W        W81156   8.858   2.186   2.199
14374W        W81157  10.698  38.545  13.080
14375W        W81158  20.306  40.255   2.004
14376W        W81159  17.028  10.735   3.227
14377W        W81160  21.095  35.864   4.844
14378W        W81161  44.889  12.363   4.055
14379W        W81162   0.146  24.475   2.129
14380W        W81163  44.330   3.314   3.109
14381W        W81164  23.572  11.722   4.552
14382W        W81165  21.792  12.855   1.276
14383W        W81166   3.477  14.680   2.944
14384W        W81167  25.288  16.209  11.165
14385W        W81168   5.025  43.453  11.919
14386W        W81169  42.370  31.070   2.699
14387W        W81170  34.926   0.915  12.999
14388W        W81171   0.325  11.628  14.248
14389W        W81172   8.595  15.297   0.805
14390W        W81173   7.196  37.509   4.551
14391W        W81174  38.540  22.084  10.705
14392W        W81175  42.909  43.172  10.747
14393W        W81176  31.959  25.066   0.744
14394W        W81177  14.616  40.395   2.935
14395W        W81178  15.670  20.965   1.397
14396W        W81179  21.200   8.128  14.776
14397W        W81180   4.452  14.999  14.790
14398W        W81181  12.774  44.528   4.314
14399W        W81182  13.083  24.647  11.963
14400W        W81183  39.249  12.603  14.874
14401W        W81184  42.427   3.507  12.396
14402W        W81185  26.595  43.944   1.414
14403W        W81186   9.881  30.475   0.865
14404W        W81187  29.587  14.219  12.496
14405W        W81188  18.689  43.613   2.499
14406W        W81189  34.912  17.848  13.687
14407W        W81190  10.895  39.390   2.578
14408W        W81191  24.596  30.112   4.617
14409W        W81192  17.840  44.113   0.516
14410W        W81193   8.819  25.149   3.125
14411W        W81194   3.198  40.046   0.503
14412W        W81195  16.219  31.792  11.110
14413W        W81196  39.354   4.727   1.818
14414W        W81197  26.302  28.716  12.317
14415W        W81198   2.896   8.171   2.935
14416W        W81199   6.175  26.167  14.868
14417W        W81200  29.632  43.948  12.938
14418W        W81201  41.982  42.725  12.420
14419W        W81202  19.037   0.535   5.040
14420W        W81203  41.552  40.440   3.682
14421W        W81204   5.720  25.707  14.053
14422W        W81205  44.982  29.186   1.713
14423W        W81206   1.497  20.037   2.642
14424W        W81207   4.958  23.486   2.778
14425W        W81208  18.874  40.154   0.103
14426W        W81209  16.279   7.417   3.175
14427W        W81210  20.627  19.585  13.627
14428W        W81211  19.820  30.536   3.619
14429W        W81212  14.240   0.476   2.176
14430W        W81213  20.975  22.492  14.602
14431W        W81214  41.326  24.390   3.586
14432W        W81215  42.983  30.512  13.422
14433W        W81216  15.517  16.640  12.663
14434W        W81217   5.159  41.887  12.110
14435W        W81218  33.002  23.267   0.522
14436W        W81219  20.312  35.532  13.492
14437W        W81220   3.770  41.832  10.781
14438W        W81221   3.186   8.471   3.268
14439W        W81222   0.090  39.896   1.214
14440W        W81223   9.096  23.758   3.520
14441W        W81224   4.760  43.780   0.412
14442W        W81225  19.230  41.361   2.363
14443W        W81226  23.192  30.188   0.294
14444W        W81227  32.156   8.207  13.478
14445W        W81228   7.464  42.297  11.615
14446W        W81229  31.855  36.563  14.434
14447W        W81230   9.901   4.578   2.173
14448W        W81231   6.949  20.721   4.598
14449W        W81232  14.593  20.898  10.441
14450W        W81233  10.721   4.858  12.032
14451W        W81234   6.343  31.648  10.753
14452W        W81235   2.226  29.133  12.584
14453W        W81236  34.564   0.371   2.882
14454W        W81237  42.932  27.919  12.102
14455W        W81238  20.429  26.084  10.530
14456W        W81239  21.848  28.214   0.532
14457W        W81240   0.356  32.968  12.232
14458W        W81241   8.262  18.858  11.895
14459W        W81242  17.962  21.908  12.947
14460W        W81243   4.368   1.383   1.882
14461W        W81244   3.308   3.582   5.054
14462W        W81245  41.262  27.513   0.453
14463W        W81246  40.112   2.459   1.843
14464W        W81247  39.710  43.620   3.009
14465W        W81248  40.511   3.194  13.580
14466W        W81249  38.174  18.620  14.486
14467W        W81250  16.083  20.529  12.319
14468W        W81251   2.787  44.866   1.285
14469W        W81252   8.157   4.455  10.460
14470W        W81253  39.777  31.240  14.846
14471W        W81254  39.106  10.307  10.034
14472W        W81255  31.232  23.371  13.464
14473W        W81256  25.211   3.995   4.996
14474W        W81257  24.155  36.762   0.341
14475W        W81258   3.177  29.971  12.945
14476W        W81259  22.339  36.865  11.797
14477W        W81260   3.009  25.184   4.749
14478W        W81261  35.887  32.107   1.815
14479W        W81262  11.649  17.359   5.101
14480W        W81263   9.917  29.622   3.720
14481W        W81264  21.649  18.916   2.092
14482W        W81265  21.521  32.209   3.197
14483W        W81266   3.178  18.518   2.556
14484W        W81267  28.369   3.006   2.314
14485W        W81268  31.979  24.273   2.766
14486W        W81269  12.194  36.421  12.994
14487W        W81270  43.576  34.179  14.386
14488W        W81271  22.219  29.709   1.687
14489W        W81272  32.587  17.290  11.155
14490W        W81273   4.729  33.696   2.596
14491W        W81274  26.396  26.005  12.901
14492W        W81275  42.579  33.403  11.125
14493W        W81276  38.162  41.481   0.751
14494W        W81277  13.889  26.560   3.333
14495W        W81278  28.983  23.459   3.073
14496W        W81279   7.292  27.389  12.462
14497W        W81280   6.827  43.291  11.943
14498W        W81281  24.970  44.555  12.406
14499W        W81282  35.416  16.113   3.124
14500W        W81283  28.538  13.518   0.850
14501W        W81284  35.540  11.249  13.241
14502W        W81285  26.667  31.159  11.122
14503W        W81286  10.612  36.394  12.236
14504W        W81287  12.394   3.216   0.027
14505W        W81288  15.143   1.902   3.377
14506W        W81289  19.674  17.300  11.121
14507W        W81290  21.756   0.344   3.205
14508W        W81291   2.684  23.795  10.592
14509W        W81292  43.307  22.748  14.988
14510W        W81293   4.210  26.157  10.545
14511W        W81294   2.105  19.615   4.662
14512W        W81295  28.032  43.690   0.846
14513W        W81296   0.242  10.245  13.499
14514W        W81297  11.170  10.144  12.967
14515W        W81298  33.857  32.034  11.651
14516W        W81299   5.909  20.775   3.688
14517W        W81300  41.729  12.656   1.627
14518W        W81301  22.146   8.167   3.443
14519W        W81302  31.656  44.526  13.843
14520W        W81303  19.103  21.588  14.923
14521W        W81304  19.963   3.221  14.456
14522W        W81305  32.455  20.253  14.495
14523W        W81306  11.334  28.282   0.008
14524W        W81307  13.166   4.460  13.063
14525W        W81308  27.524  27.439   1.889
14526W        W81309   1.587  37.424   2.447
14527W        W81310   0.272  24.934  10.693
14528W        W81311  29.456  33.692  14.685
14529W        W81312  37.027  14.141   4.373
14530W        W81313  19.544  34.121  12.519
14531W        W81314  17.556  11.646  13.925
14532W        W81315  35.325  25.085   2.593
14533W        W81316   1.154  22.605   5.144
14534W        W81317   1.451  39.277  14.445
14535W        W81318   8.344  44.335  10.733
14536W        W81319   3.469  39.571  14.794
14537W        W81320  39.570  42.086  13.939
14538W        W81321  11.824  11.809   2.227
14539W        W81322  21.240  34.127  10.646
14540W        W81323  42.204  33.030  11.818
14541W        W81324  33.604  15.200  11.674
14542W        W81325  43.820  32.535   3.760
14543W        W81326  32.675  13.856   1.746
14544W        W81327   4.894   1.507   1.030
14545W        W81328  30.708   6.130   0.450
14546W        W81329   9.332  35.148  12.853
14547W        W81330  10.763  14.657  13.409
14548W        W81331  28.711  30.631  10.458
14549W        W81332  30.479  34.546   0.017
14550W        W81333   4.469  16.645  10.933
14551W        W81334  25.920  33.922   2.674
14552W        W81335  16.621   2.214   4.166
14553W        W81336  10.294  23.256   3.326
14554W        W81337  32.780  38.577   3.470
14555W        W81338  19.613  25.384  14.949
14556W        W81339  42.917  36.978  14.203
14557W        W81340   9.137  16.718  10.202
14558W        W81341  10.930  16.256   4.116
14559W        W81342  24.988  34.305  13.327
14560W        W81343  27.851  34.057  10.117
14561W        W81344  18.073   5.734   4.961
14562W        W81345  40.277  34.845  11.602
14563W        W81346  27.708  43.318   1.524
14564W        W81347  15.458  30.128  10.627
14565W        W81348  30.453  19.873  13.610
14566W        W81349  18.265   9.758   2.285
14567W        W81350   2.421  43.273  14.674
14568W        W81351  27.344  41.943  14.271
14569W        W81352  24.757  29.966   1.445
14570W        W81353  27.249  35.009  11.230
14571W        W81354  39.936  23.292  12.603
14572W        W81355  31.149  14.837   1.510
14573W        W81356  43.668  21.738   2.333
14574W        W81357   8.748  31.246  14.481
14575W        W81358   8.963  17.755   0.759
14576W        W81359  40.789  20.452   3.625
14577W        W81360  25.948  12.261   3.899
14578W        W81361  13.816   1.449   3.095
14579W        W81362  35.638  34.210   0.274
14580W        W81363  23.727  32.575  13.362
14581W        W81364   2.342  21.969   1.252
14582W        W81365  34.358  21.097  12.316
14583W        W81366  34.365  10.776   4.524
14584W        W81367  14.166  11.095   1.775
14585W        W81368   8.828  23.500  12.987
14586W        W81369  22.846  31.048  10.341
14587W        W81370  29.183   6.576   4.475
14588W        W81371   0.568   5.497   4.560
14589W        W81372  44.076  23.085  12.086
14590W        W81373  34.448  25.948   2.416
14591W        W81374  22.435  31.739   2.721
14592W        W81375  11.008  35.152   2.366
14593W        W81376  10.836  26.768  10.601
14594W        W81377  24.483  34.858   3.364
14595W        W81378  42.845   2.322   3.050
14596W        W81379  11.782  36.630   5.635
14597W        W81380  31.578  14.307   5.007
14598W        W81381  39.517  11.615   3.826
14599W        W81382  32.481  33.867   1.959
14600W        W81383  27.528  24.503  13.337
14601W        W81384  24.503   2.724   1.305
14602W        W81385  28.918  13.740  14.841
14603W        W81386  39.430  26.412   0.784
14604W        W81387  25.727  23.010  14.885
14605W        W81388   7.656  11.668   1.950
14606W        W81389  32.305  33.985  13.065
14607W        W81390  24.179  15.430   4.150
14608W        W81391  13.174  27.589  14.543
14609W        W81392  32.164  24.959   3.186
14610W        W81393  11.631  40.579   2.643
14611W        W81394  30.836  36.465  11.118
14612W        W81395  28.914  38.561  11.089
14613W        W81396  17.048  15.099   0.766
14614W        W81397  19.077  33.352   2.953
14615W        W81398  40.511  42.364  11.523
14616W        W81399  43.380  34.740   9.996
14617W        W81400  25.385  32.898  11.273
14618W        W81401  35.999  44.488   2.369
14619W        W81402   6.241   0.447   0.980
14620W        W81403  22.225   7.320  11.603
14621W        W81404   2.365  29.095   0.759
14622W        W81405   8.688   8.791   1.378
14623W        W81406  41.386  16.178  11.380
14624W        W81407  12.024  39.089   0.823
14625W        W81408   1.432  24.525   2.181
14626W        W81409  19.273  40.857   3.183
14627W        W81410  14.635  21.277   3.088
14628W        W81411   4.246  38.814   2.425
14629W        W81412  42.275  17.716  14.837
14630W        W81413  12.185  30.989   0.828
14631W        W81414  23.536  25.172   2.905
14632W        W81415  41.530   9.260  14.779
14633W        W81416  33.506  19.744   2.160
14634W        W81417  25.398   7.072   1.298
14635W        W81418  11.647  11.949  14.337
14636W        W81419  34.368  35.571  12.086
14637W        W81420  31.602  36.412   4.141
14638W        W81421  39.852   9.896  11.985
14639W        W81422   8.568   8.938  10.314
14640W        W81423   9.349   4.739  14.891
14641W        W81424  37.022   2.393   2.424
14642W        W81425  29.505  20.581  14.074
14643W        W81426  18.245   6.439  12.031
14644W        W81427  15.226   1.478   0.234
14645W        W81428  33.452  42.998   1.235
14646W        W81429  17.785  41.337   2.243
14647W        W81430  24.956  14.573   3.280
14648W        W81431  41.468  15.305  13.458
14649W        W81432   7.373  10.808   4.576
14650W        W81433  11.750  20.173   0.307
14651W        W81434  28.883   2.841  12.982
14652W        W81435  31.172  11.614  10.552
14653W        W81436   6.902  27.390  11.287
14654W        W81437   8.710  19.650   2.988
14655W        W81438  22.597  38.203  12.198
14656W        W81439  41.018   0.478  13.908
14657W        W81440  44.274   4.487   0.036
14658W        W81441   5.451  26.421   4.188
14659W        W81442  10.159  39.814  10.981
14660W        W81443  15.723  14.888  14.261
14661W        W81444   8.874  41.908   1.251
14662W        W81445  43.867  17.192   2.110
14663W        W81446  32.800  43.475  11.248
14664W        W81447  18.120  29.535   0.911
14665W        W81448  19.348   3.723  13.910
14666W        W81449   0.437   9.055   4.970
14667W        W81450  36.999  43.866  12.906
14668W        W81451  18.294  35.541   2.875
14669W        W81452  40.424  40.124   3.094
14670W        W81453  31.858  29.567  11.998
14671W        W81454  27.589   9.680  10.822
14672W        W81455  26.703  44.432   1.609
14673W        W81456   1.885  30.630   0.257
14674W        W81457  22.251  35.529  12.417
14675W        W81458  26.494  39.165   9.862
14676W        W81459  25.033  42.839   3.341
14677W        W81460  23.123  40.785   3.718
14678W        W81461   1.000  44.384   1.512
14679W        W81462   9.437   4.232   2.799
14680W        W81463  36.680  17.385   0.330
14681W        W81464   8.828  21.615   1.658
14682W        W81465  43.310   8.829  12.501
14683W        W81466  23.653   4.485  12.684
14684W        W81467  44.769  30.544   0.932
14685W        W81468  44.728  39.404  12.819
14686W        W81469  18.592  14.183  11.496
14687W        W81470  12.184   8.683  13.028
14688W        W81471  11.422  24.227   4.964
14689W        W81472  31.867  22.117  12.909
14690W        W81473  23.510   4.387   0.445
14691W        W81474  28.453  42.746  13.559
14692W        W81475  41.472  31.979  13.141
14693W        W81476   8.626   7.751  10.655
14694W        W81477  23.204  25.491  13.415
14695W        W81478  33.397  16.877  13.636
14696W        W81479  42.222  22.672  10.527
14697W        W81480  27.991  44.904  12.426
14698W        W81481  35.865  18.455   2.714
14699W        W81482   1.790  13.895   4.734
14700W        W81483  20.170  24.501   2.779
14701W        W81484  19.533  40.531  12.674
14702W        W81485   0.750   1.918   3.530
14703W        W81486  15.356  41.261  10.677
14704W        W81487   3.902  16.244  14.926
14705W        W81488   3.651  28.064  14.795
14706W        W81489  25.670  39.195   5.493
14707W        W81490  18.967   7.864   3.661
14708W        W81491   5.713  22.848   1.317
14709W        W81492  34.982  25.071   3.791
14710W        W81493  23.304  10.173  12.988
14711W        W81494  25.053  43.494   1.686
14712W        W81495  20.344  42.133  13.932
14713W        W81496  22.964   8.857   0.460
14714W        W81497   4.149  10.551  11.115
14715W        W81498  21.745   3.490  14.013
14716W        W81499  22.678   0.380   9.937
14717W        W81500  20.772  44.940   0.959
14718W        W81501  26.163  18.200   2.215
14719W        W81502  18.458  38.062  13.989
14720W        W81503  16.807  29.566   0.486
14721W        W81504  33.177  23.240   3.641
14722W        W81505  18.078  24.657  12.968
14723W        W81506   1.381   4.896   4.837
14724W        W81507  31.141  13.713  12.047
14725W        W81508  16.075  34.205  12.921
14726W        W81509  21.500   7.727  14.727
14727W        W81510  11.266  10.170   3.173
14728W        W81511  23.651   1.678   1.332
14729W        W81512  30.331  43.303   2.610
14730W        W81513   1.000  29.994  13.337
14731W        W81514  32.880  12.088  11.075
14732W        W81515  32.049   2.822  11.244
14733W        W81516  38.101  23.713  14.902
14734W        W81517   3.495  33.941   1.213
14735W        W81518  15.510  12.116  11.185
14736W        W81519   5.736  13.160  11.946
14737W        W81520  39.099  38.252  13.968
14738W        W81521   5.915  29.454  12.891
14739W        W81522   1.981  40.503   0.175
14740W        W81523  18.558  13.329  11.006
14741W        W81524  38.362  29.955  13.034
14742W        W81525  31.201  27.999   3.609
14743W        W81526  11.620  25.310   1.224
14744W        W81527  40.778   2.133  11.902
14745W        W81528  31.998   5.813  13.490
14746W        W81529  41.446  39.977  14.082
14747W        W81530  42.425   3.704  12.904
14748W        W81531   1.610  39.473   0.851
14749W        W81532   5.229  22.788  12.128
14750W        W81533  29.715  22.970   2.749
14751W        W81534  23.843   0.680  11.732
14752W        W81535  14.623  24.534   2.812
14753W        W81536  10.400  13.833   2.180
14754W        W81537   8.771  16.535  13.475
14755W        W81538  39.604   5.129   3.891
14756W        W81539  17.216  32.578   0.445
14757W        W81540  19.449  23.107  11.157
14758W        W81541   1.862   9.175   2.323
14759W        W81542  18.807  11.329  13.998
14760W        W81543  11.681  19.044   4.244
14761W        W81544   6.773   5.750  13.981
14762W        W81545  22.602  19.234   5.224
14763W        W81546   8.863  33.096  14.720
14764W        W81547  44.437  34.928   4.182
14765W        W81548  21.964  27.502   4.063
14766W        W81549  29.069  31.413  11.944
14767W        W81550  11.402  43.846   0.874
14768W        W81551  31.090  23.552   3.680
14769W        W81552  14.117  23.117   2.267
14770W        W81553  15.260   5.111  12.620
14771W        W81554  22.427  43.916  14.910
14772W        W81555  32.441  26.098   1.808
14773W        W81556  44.871  36.832  13.266
14774W        W81557  16.675  42.003   1.001
14775W        W81558   2.694  24.113   4.641
14776W        W81559   3.012  37.879  12.705
14777W        W81560   9.089  18.569   2.257
14778W        W81561  19.814   5.423   2.547
14779W        W81562  17.038  24.361  12.038
14780W        W81563  41.305  26.643  10.666
14781W        W81564   6.795  36.823  14.325
14782W        W81565  34.678  42.457  11.128
14783W        W81566  33.436  40.007   2.421
14784W        W81567  30.148   5.567   4.249
14785W        W81568  35.868   2.441   3.295
14786W        W81569  16.819  23.790  14.887
14787W        W81570  41.563  39.524  14.331
14788W        W81571  19.153   7.383   3.675
14789W        W81572  34.575  33.582  10.684
14790W        W81573  38.965  22.697   0.986
14791W        W81574  18.078  19.553   3.630
14792W        W81575   4.426   3.201   4.260
14793W        W81576  37.464  43.662   2.319
14794W        W81577   2.698  18.749   0.274
14795W        W81578  28.992  34.416   2.771
14796W        W81579   3.694  43.824   2.780
14797W        W81580  28.130  41.347   0.217
14798W        W81581  22.585  22.571  11.820
14799W        W81582   3.362   8.291   2.233
14800W        W81583   2.371  30.918  11.186
14801W        W81584  28.058  19.844   4.586
14802W        W81585  44.747  25.070  14.063
14803W        W81586   2.168   1.852  11.178
14804W        W81587  17.208  41.911   1.173
14805W        W81588  28.890  37.660  14.957
14806W        W81589   9.750  28.054   1.765
14807W        W81590  43.937  42.081   0.708
14808W        W81591  39.889  28.435   4.010
14809W        W81592  27.860  20.645   0.790
14810W        W81593  15.159  44.367   4.529
14811W        W81594   5.679  22.772   2.218
14812W        W81595  38.306  40.270   3.770
14813W        W81596  16.188   1.984  12.407
14814W        W81597  40.927   2.092   0.791
14815W        W81598  24.460  37.987   2.660
14816W        W81599  25.092  43.279  13.533
14817W        W81600  20.506  24.999  12.017
14818W        W81601   0.347  36.526  11.473
14819W        W81602  35.336   5.450  12.067
14820W        W81603   4.258  44.785   0.753
14821W        W81604  37.362  40.872  12.721
14822W        W81605   5.391  38.153  12.667
14823W        W81606  27.703  10.257  12.523
14824W        W81607  10.895  42.535  11.001
14825W        W81608  34.945  13.629  12.599
14826W        W81609  10.623   1.920   0.586
14827W        W81610  26.918  25.201   0.393
14828W        W81611   0.340  34.585  12.899
14829W        W81612  33.642  28.151   1.736
14830W        W81613  20.752  20.084   0.955
14831W        W81614  34.115  22.695   3.716
14832W        W81615   1.723   5.128   1.515
14833W        W81616  32.911   2.534  11.873
14834W        W81617  44.330  43.581   3.142
14835W        W81618  34.462  34.227  14.548
14836W        W81619  17.134  43.882   0.924
14837W        W81620  16.303  29.110   1.226
14838W        W81621   6.271   7.266  13.935
14839W        W81622  21.207  28.127   1.404
14840W        W81623  36.881  11.250  14.711
14841W        W81624  44.977  22.580   0.845
14842W        W81625  30.922  23.736   5.196
14843W        W81626  31.078  14.794  14.483
14844W        W81627   2.155  39.799  13.418
14845W        W81628  28.613  27.783  12.801
14846W        W81629  19.538   5.393  11.810
14847W        W81630  36.994  13.026  12.924
14848W        W81631   9.873  36.985  14.984
14849W        W81632   8.201  37.025   1.264
14850W        W81633   0.375  23.183  12.496
14851W        W81634  17.179  41.267  14.297
14852W        W81635   0.788  26.716   2.644
14853W        W81636  36.054  42.949   3.307
14854W        W81637  36.178   2.297  12.571
14855W        W81638   1.353   7.962   5.028
14856W        W81639   7.720   6.200   3.054
14857W        W81640   9.421  42.562  13.510
14858W        W81641   7.628  37.949  14.022
14859W        W81642  36.612  38.382  12.017
14860W        W81643  12.919  42.797   3.673
14861W        W81644  20.575  25.955   0.588
14862W        W81645  43.337  29.196   2.449
14863W        W81646  23.005  15.705   9.891
14864W        W81647  10.341  36.002   1.453
14865W        W81648  27.796  28.193  11.226
14866W        W81649   1.660  14.722   0.745
14867W        W81650  13.711  15.106  13.148
14868W        W81651  36.527  44.799  12.095
14869W        W81652  12.239  11.546   4.474
14870W        W81653   0.307   6.276   3.706
14871W        W81654  44.902  23.682   2.375
14872W        W81655  20.707  34.999  14.150
14873W        W81656  25.916  38.198  12.251
14874W        W81657   2.917   6.371  10.724
14875W        W81658  23.339   9.199  14.528
14876W        W81659  19.264  24.548   3.789
14877W        W81660  23.656  18.386   0.734
14878W        W81661  19.846  13.103   3.217
14879W        W81662   4.269  28.999  13.380
14880W        W81663  35.362  40.922  10.412
14881W        W81664  36.206   8.931  12.425
14882W        W81665  17.066  28.838   2.793
14883W        W81666  19.994  31.605   4.121
14884W        W81667   0.815  34.367  10.909
14885W        W81668   1.282  15.700  13.752
14886W        W81669  27.630   4.833  10.479
14887W        W81670  40.028  33.218  11.151
14888W        W81671  24.459  20.130  11.551
14889W        W81672  14.136  27.063   2.716
14890W        W81673  32.001  28.727  11.130
14891W        W81674  13.171  29.904   1.037
14892W        W81675  18.732  27.376  12.622
14893W        W81676   9.121  12.775  14.917
14894W        W81677   1.901  19.153   4.514
14895W        W81678  23.662   7.641  10.615
14896W        W81679  42.275  39.093   3.808
14897W        W81680  34.636  26.905  12.467
14898W        W81681   9.392  38.511  10.685
14899W        W81682   8.878  35.853  10.961
14900W        W81683   2.356   6.744  10.987
14901W        W81684  24.047   1.274  11.330
14902W        W81685   7.418   3.146  14.991
14903W        W81686  17.678  33.366  10.720
14904W        W81687   9.281   2.958   3.111
14905W        W81688  27.416   2.271  14.302
14906W        W81689   8.641  28.989   4.246
14907W        W81690   3.572  39.472  10.452
14908W        W81691  31.172  42.399  11.971
14909W        W81692   8.400   7.673  14.036
14910W        W81693  14.598  35.323  14.832
14911W        W81694  19.279  11.163   1.673
14912W        W81695   1.606  20.138  11.231
14913W        W81696  24.034  26.776   4.330
14914W        W81697  43.932  27.066  10.968
14915W        W81698  38.138  24.173  14.645
14916W        W81699  35.782  10.635   2.156
14917W        W81700  12.557  40.461   2.853
14918W        W81701   7.866  17.933   2.726
14919W        W81702  11.175  28.993  11.137
14920W        W81703  21.077  15.069   3.173
14921W        W81704   3.355   0.196  14.972
14922W        W81705  17.181   3.493   4.540
14923W        W81706  13.169  21.269  10.372
14924W        W81707  25.174  26.523  13.342
14925W        W81708  12.363  44.118  11.164
14926W        W81709  41.369  24.960  14.920
14927W        W81710   9.712  23.562   1.331
14928W        W81711  37.969  30.906  13.908
14929W        W81712   6.255  40.523   1.001
14930W        W81713  28.837   2.386  14.106
14931W        W81714  43.303  34.559   1.173
14932W        W81715  19.142  13.659  11.668
14933W        W81716  22.525  44.989  11.192
14934W        W81717  40.338  15.095   2.228
14935W        W81718  18.552  11.168  11.402
14936W        W81719  10.645  30.141   1.472
14937W        W81720  40.691  12.808  14.984
14938W        W81721   3.128   8.776   2.334
14939W        W81722   5.709   7.833  14.440
14940W        W81723  23.575  40.621   3.571
14941W        W81724  17.326  34.359   3.267
14942W        W81725  35.316  30.560   2.267
14943W        W81726   9.271  40.427  13.877
14944W        W81727  38.262  36.924  13.310
14945W        W81728  20.092   7.692  10.878
14946W        W81729   9.858   2.213   3.091
14947W        W81730   7.936  11.803   0.089
14948W        W81731   3.437   2.357   4.465
14949W        W81732   1.996   5.434  13.508
14950W        W81733  43.751  15.002   4.816
14951W        W81734  14.857  24.858  12.301
14952W        W81735  18.293  18.816  10.237
14953W        W81736  41.530  18.297   0.648
14954W        W81737  15.885  34.902  11.575
14955W        W81738  28.114  42.310   1.727
14956W        W81739  39.810  16.844  13.324
14957W        W81740  16.518  32.621  10.988
14958W        W81741  33.580  17.593  10.596
14959W        W81742  14.035  19.570  14.216
14960W        W81743  42.240  31.210   0.950
14961W        W81744   4.284  12.092  10.400
14962W        W81745  26.128  41.238   0.431
14963W        W81746  19.434  19.256   2.864
14964W        W81747  20.227  14.300  12.903
14965W        W81748  22.957   8.701  13.120
14966W        W81749   2.835  28.569   0.187
14967W        W81750  14.222  37.389   2.833
14968W        W81751  33.226  20.748  12.656
14969W        W81752  30.399   6.457  12.507
14970W        W81753  40.077   9.707  13.342
14971W        W81754  40.319  14.571  11.237
14972W        W81755   2.684  31.668   3.252
14973W        W81756   3.424  19.459  12.919
14974W        W81757   3.768   2.213   2.843
14975W        W81758  26.981  27.668  10.900
14976W        W81759  16.453   7.455  14.351
14977W        W81760  29.949   7.437   2.162
14978W        W81761   4.229  37.166  11.020
14979W        W81762  25.528  15.179   4.440
14980W        W81763   2.644  23.801  12.523
14981W        W81764  20.012  27.242  14.773
14982W        W81765   6.922  23.903  13.866
14983W        W81766  35.170  13.553  14.335
14984W        W81767   6.022  41.782  12.449
14985W        W81768   7.836   9.160  12.604
14986W        W81769  11.755  34.570   1.895
14987W        W81770   4.687  14.732   3.319
14988W        W81771   5.730  42.267   0.433
14989W        W81772  10.193  13.765  10.742
14990W        W81773  37.536  29.903   2.727
14991W        W81774  23.583  30.553  14.789
14992W        W81775  40.992  11.424  14.436
14993W        W81776  26.740   4.344   4.916
14994W        W81777  38.167  29.488   2.281
14995W        W81778  33.769  25.975  13.933
14996W        W81779  14.654  34.386   4.086
14997W        W81780   6.176  24.207  13.461
14998W        W81781  14.340   6.263   4.074
14999W        W81782  19.040   8.376   4.492
15000W        W81783  10.355  31.191  11.009
15001W        W81784  22.796  41.852   3.664
15002W        W81785  33.177  29.867   3.273
15003W        W81786  37.567  31.431  14.966
15004W        W81787   6.138  26.235   0.368
15005W        W81788  27.156  19.803   4.915
15006W        W81789  38.945   3.294   4.617
15007W        W81790  22.478  31.061  11.668
15008W        W81791   6.941  40.417   3.719
15009W        W81792  13.764  39.231   0.304
15010W        W81793   1.606  42.624  13.209
15011W        W81794  20.088  25.230   1.778
15012W        W81795  14.319   7.679   5.041
15013W        W81796  12.571  20.585  12.146
15014W        W81797   5.909  19.988   1.757
15015W        W81798   1.213  36.083  14.510
15016W        W81799   2.363  30.382   1.813
15017W        W81800  39.325   2.714   4.969
15018W        W81801  18.741   0.446   4.585
15019W        W81802  21.777  25.226   0.696
15020W        W81803  13.248  23.001   0.676
15021W        W81804  18.124  30.157   2.625
15022W        W81805   4.419  39.308   3.693
15023W        W81806  33.711  16.768  10.338
15024W        W81807  28.684  40.507   1.286
15025W        W81808  44.404  14.227  13.422
15026W        W81809  40.943  11.115  11.567
15027W        W81810  13.020   3.951  11.286
15028W        W81811  19.190  13.763  12.191
15029W        W81812  27.640  14.061   4.101
15030W        W81813   7.822  25.146  10.259
15031W        W81814   9.820  42.466  13.076
15032W        W81815   4.265  12.256   3.205
15033W        W81816  22.170   8.335   3.936
15034W        W81817  39.371  17.633   3.956
15035W        W81818  43.329  18.538  14.405
15036W        W81819   0.553  17.810  11.983
15037W        W81820  19.393  17.296   0.459
15038W        W81821  37.276  19.148   1.321
15039W        W81822   2.165  11.677  12.987
15040W        W81823  23.685  19.913  14.393
15041W        W81824  42.317   0.978  11.673
15042W        W81825  11.326  29.520   4.585
15043W        W81826  18.237  19.455  14.959
15044W        W81827  23.418  42.732  14.488
15045W        W81828  40.045  13.739  14.960
15046W        W81829   7.319   0.239  14.869
15047W        W81830  23.218  20.352   0.327
15048W        W81831  28.302  21.719   0.433
15049W        W81832   4.095  30.729   4.681
15050W        W81833  36.329  35.679   2.347
15051W        W81834  41.136  34.018  14.946
15052W        W81835  11.915  23.368  11.358
15053W        W81836  12.666  23.715   0.894
15054W        W81837  41.228  20.470  10.796
15055W        W81838  41.077  43.446   0.418
15056W        W81839  38.748   5.818   5.118
15057W        W81840  39.851   3.782  10.399
15058W        W81841   4.467  12.291   2.170
15059W        W81842  41.033   0.753  11.857
15060W        W81843   2.488  36.995  10.537
15061W        W81844  23.691  15.289  13.538
15062W        W81845  15.695  33.939   1.478
15063W        W81846  14.492  39.502   5.074
15064W        W81847  34.698  20.467   0.969
15065W        W81848  10.277  23.705   2.851
15066W        W81849  16.312  12.122  11.670
15067W        W81850   2.991  31.745   4.050
15068W        W81851  19.670  27.335   2.636
15069W        W81852  30.032   2.551  13.371
15070W        W81853  39.312  15.677   1.283
15071W        W81854   0.551   4.997   1.877
15072W        W81855   2.923  12.961   1.483
15073W        W81856  23.414  39.342  14.949
15074W        W81857   2.884  23.000  10.716
15075W        W81858  18.589  39.098   2.706
15076W        W81859  12.995   6.325  12.765
15077W        W81860  37.308  19.654   3.379
15078W        W81861  25.083  12.967   2.634
15079W        W81862   9.415  10.774   3.729
15080W        W81863  12.596  18.223   0.241
15081W        W81864   0.275  28.461  12.167
15082W        W81865   1.280   7.852   1.338
15083W        W81866  35.460  16.750  13.085
15084W        W81867  44.911  38.605   1.532
15085W        W81868   7.346  21.155  13.409
15086W        W81869  20.643  15.893  13.484
15087W        W81870  38.756  22.154  12.160
15088W        W81871  29.744  20.110  12.933
15089W        W81872  22.687  40.792   1.338
15090W        W81873  39.997  37.924  11.258
15091W        W81874   5.694  15.656   0.003
15092W        W81875  41.074  28.767  13.389
15093W        W81876  41.415  42.718  14.286
15094W        W81877  12.402  17.743   0.399
15095W        W81878  23.086   2.715  12.576
15096W        W81879   4.269  32.025   2.204
15097W        W81880   7.250  29.544   0.899
15098W        W81881  33.019  12.293   0.089
15099W        W81882  20.675  23.121   1.252
15100W        W81883   3.960  28.041   4.358
15101W        W81884   9.794  31.191   0.341
15102W        W81885   4.163  38.970   3.314
15103W        W81886  12.291   9.621  10.929
15104W        W81887  16.663   8.518  12.059
15105W        W81888  30.716   8.802  13.825
15106W        W81889  10.761  10.497  12.927
15107W        W81890  27.122  23.214   3.664
15108W        W81891  19.731  11.215  14.851
15109W        W81892  34.704  17.061  11.555
15110W        W81893  41.756  34.886   3.793
15111W        W81894  38.943  23.221  14.795
15112W        W81895  15.289  10.691   4.385
15113W        W81896  13.543  27.975   3.622
15114W        W81897   4.856   0.507   2.807
15115W        W81898   0.253  26.096   3.359
15116W        W81899   1.467  38.372  14.885
15117W        W81900  10.586  38.426  13.590
15118W        W81901   0.394  31.555   3.518
15119W        W81902  27.196  18.497  11.101
15120W        W81903   9.941  43.046   3.546
15121W        W81904  26.177   9.592  10.434
15122W        W81905  27.167   7.319   4.650
15123W        W81906   8.005  17.882  12.029
15124W        W81907  38.007  17.259   0.415
15125W        W81908   0.341  31.881   0.316
15126W        W81909  17.033  36.442  13.319
15127W        W81910   3.137  10.912  14.882
15128W        W81911   7.813  38.775  13.548
15129W        W81912  23.110  12.942   3.056
15130W        W81913   0.664  33.847  11.725
15131W        W81914   8.930  32.351   5.006
15132W        W81915  35.921  39.343   2.245
15133W        W81916  35.451  23.027   1.248
15134W        W81917   7.826  10.119  14.980
15135W        W81918  23.775   7.695  11.100
15136W        W81919   5.870  19.546  11.156
15137W        W81920   1.038  10.935  12.229
15138W        W81921  21.986   7.906  14.827
15139W        W81922  22.744  16.838   2.889
15140W        W81923   5.910  42.451  10.815
15141W        W81924  34.850  39.272   1.713
15142W        W81925  43.724   8.523  12.495
15143W        W81926  16.677  30.469  11.472
15144W        W81927  40.569   5.978  13.796
15145W        W81928   3.269  10.187   2.644
15146W        W81929  15.118  26.739   0.418
15147W        W81930   9.947  16.720  14.936
15148W        W81931  18.064   9.906   3.593
15149W        W81932  41.807  40.012   3.743
15150W        W81933  13.042  11.168   4.692
15151W        W81934  10.679  44.898   2.074
15152W        W81935   3.451  32.337   5.022
15153W        W81936  18.744   4.903   3.607
15154W        W81937  16.079  20.157   0.257
15155W        W81938  36.502  25.323  10.625
15156W        W81939  11.282   5.552   1.379
15157W        W81940  28.191  29.955   4.903
15158W        W81941   4.502  35.429  11.585
15159W        W81942   3.749  29.630   0.931
15160W        W81943  24.342   8.999   1.869
15161W        W81944   6.223   3.078   0.407
15162W        W81945   7.170  32.677  12.095
15163W        W81946  27.071  14.736   1.706
15164W        W81947  15.776  35.723  11.149
15165W        W81948  40.518  24.158  13.850
15166W        W81949  30.954  39.195   2.734
15167W        W81950  44.262   9.811   2.820
15168W        W81951  28.088   1.973  14.532
15169W        W81952  19.711  22.012   2.857
15170W        W81953   8.163  40.508  13.031
15171W        W81954  32.018  38.194   4.381
15172W        W81955  20.177  21.753   0.780
15173W        W81956   2.041  19.161   2.685
15174W        W81957   8.776  22.766   0.043
15175W        W81958  10.605  36.785   1.315
15176W        W81959  16.108  23.759   4.163
15177W        W81960  14.568  12.210  14.321
15178W        W81961  23.995  44.000  10.617
15179W        W81962   1.300  29.901  11.076
15180W        W81963  38.262  12.978  10.263
15181W        W81964  20.500  14.737  12.987
15182W        W81965  19.805  26.858  10.656
15183W        W81966  23.499  10.205  11.156
15184W        W81967  24.016  44.829   4.803
15185W        W81968  17.663  20.189  12.481
15186W        W81969  23.117   4.206   1.620
15187W        W81970  40.247  39.836   4.569
15188W        W81971  16.056  24.161   0.901
15189W        W81972  42.878  26.749   1.324
15190W        W81973  43.457  28.779   3.790
15191W        W81974   0.348  42.060  13.313
15192W        W81975  11.310  20.971  14.821
15193W        W81976  25.476  14.820   0.384
15194W        W81977  37.215   7.742   0.975
15195W        W81978  26.544  38.807  14.445
15196W        W81979  23.456  15.877  11.970
15197W        W81980  30.140   7.888   1.327
15198W        W81981  27.235  29.512  14.561
15199W        W81982  35.723   8.723  12.525
15200W        W81983  16.717  32.897  12.614
15201W        W81984  11.512  14.821   1.260
15202W        W81985   8.918  32.879   2.769
15203W        W81986   8.859  21.132   0.011
15204W        W81987  43.413  17.441  13.578
15205W        W81988  27.605  28.740  11.924
15206W        W81989  23.514  14.398   2.821
15207W        W81990  33.572   9.500  11.262
15208W        W81991  33.354  18.183  13.592
15209W        W81992  19.085   8.429  11.530
15210W        W81993  33.047   1.216   3.421
15211W        W81994  30.625   7.667  12.914
15212W        W81995  30.561  16.463  13.926
15213W        W81996  10.180   5.954   5.033
15214W        W81997   5.168  12.429  14.779
15215W        W81998  39.718   5.825  12.029
15216W        W81999  37.545  17.153   1.427
15217W        W82000  13.315  13.308   0.445
15218W        W82001  26.037   9.754   4.133
15219W        W82002  35.380  15.546  10.906
15220W        W82003  15.174  18.550   3.229
15221W        W82004  39.752  38.366   2.265
15222W        W82005  38.469  10.132  11.563
15223W        W82006  32.430   7.182   0.767
15224W        W82007  13.339  39.111  14.441
15225W        W82008   2.230   2.209   3.693
15226W        W82009  40.311  42.083   4.539
15227W        W82010  29.408   1.831   0.022
15228W        W82011  20.278   2.602  12.033
15229W        W82012   4.482   3.330  14.187
15230W        W82013  14.447  27.486   2.832
15231W        W82014  10.108  14.738   0.721
15232W        W82015  30.421  25.203  13.116
15233W        W82016   3.465   2.661  14.135
15234W        W82017  22.075  19.827   3.445
15235W        W82018  36.527  35.561  12.514
15236W        W82019  31.986  40.885  12.351
15237W        W82020  18.230   4.491   4.315
15238W        W82021  37.444  36.619  10.721
15239W        W82022   6.297  22.189   3.365
15240W        W82023  29.056  36.049   3.552
15241W        W82024  41.355  13.301  13.837
15242W        W82025   0.811  11.333  10.785
15243W        W82026  21.393  14.609   2.216
15244W        W82027  40.308  30.567   2.925
15245W        W82028  20.918   3.923  10.763
15246W        W82029  29.654  22.455   2.615
15247W        W82030  12.793  44.048   1.876
15248W        W82031  22.136  15.825  13.087
15249W        W82032  26.691  41.325  12.157
15250W        W82033  13.038   3.667  11.708
15251W        W82034  25.137  35.985   3.408
15252W        W82035   4.439  42.348  14.387
15253W        W82036  37.522  19.591  13.712
15254W        W82037  13.215  31.260  14.441
15255W        W82038  25.907  20.064  10.843
15256W        W82039  32.691  10.349   3.657
15257W        W82040  40.996  27.560  10.705
15258W        W82041  13.834  30.717   0.318
15259W        W82042  12.873  39.820  14.861
15260W        W82043   7.238  13.893   2.153
15261W        W82044  15.739  17.371   5.094
15262W        W82045  24.232  33.532   3.231
15263W        W82046  24.479  18.134  13.509
15264W        W82047  13.508  37.498  12.808
15265W        W82048   8.455   4.334   0.569
15266W        W82049  12.239  34.872   0.838
15267W        W82050  23.687  20.216   0.453
15268W        W82051  34.542  12.316   0.554
15269W        W82052   6.930  43.791   0.819
15270W        W82053  12.569  14.268  11.935
15271W        W82054  12.312  15.628   4.592
15272W        W82055  44.574  40.241   3.688
15273W        W82056  36.601  40.755   0.561
15274W        W82057  16.167  30.423  11.599
15275W        W82058  17.100   5.888   1.602
15276W        W82059  25.492  26.666   4.518
15277W        W82060   5.301   1.467   4.096
15278W        W82061   3.666  19.681   1.342
15279W        W82062  43.472  19.371   3.732
15280W        W82063  38.915   1.467  12.434
15281W        W82064  27.895   3.214  10.857
15282W        W82065  15.779   5.747  14.084
15283W        W82066  11.325   3.725  13.195
15284W        W82067  32.108  36.927   3.229
15285W        W82068   5.009  21.841  11.984
15286W        W82069  17.866  43.102   2.192
15287W        W82070  27.651  40.800  12.932
15288W        W82071   0.018  16.067   2.313
15289W        W82072  22.535  36.811   4.307
15290W        W82073  33.461  36.587  14.922
15291W        W82074  21.572  10.918   1.307
15292W        W82075  31.850  12.732  12.654
15293W        W82076   2.273  34.565   3.304
15294W        W82077  34.550  32.330  12.071
15295W        W82078  26.896  26.002  12.959
15296W        W82079  13.801  38.726   3.587
15297W        W82080   5.364  32.613  13.346
15298W        W82081  20.369  33.439  10.830
15299W        W82082   0.040  25.397   4.550
15300W        W82083   6.673  30.773  11.502
15301W        W82084  41.274  21.952   2.714
15302W        W82085   5.914  10.711   0.003
15303W        W82086  20.232  36.953   0.186
15304W        W82087  32.474  19.529   3.724
15305W        W82088  44.048   5.739  14.007
15306W        W82089  29.069  11.527  13.101
15307W        W82090   8.797   6.956  12.322
15308W        W82091  18.449  34.539   2.285
15309W        W82092  44.708   8.695   0.312
15310W        W82093  39.072  11.439  14.133
15311W        W82094  31.638  19.010  12.281
15312W        W82095  24.336  20.605   2.155
15313W        W82096   1.975  32.863   3.863
15314W        W82097  40.448  31.687  13.929
15315W        W82098   7.666  43.168   4.101
15316W        W82099   1.428  29.120   0.318
15317W        W82100  10.778  39.274   3.573
15318W        W82101  38.810  30.344  14.895
15319W        W82102  18.984  25.231   0.972
15320W        W82103   0.581  22.444   4.088
15321W        W82104  10.652  27.815  12.886
15322W        W82105  15.573  32.186   0.057
15323W        W82106  36.045  43.898   0.735
15324W        W82107  28.907  38.406  13.967
15325W        W82108   6.931  32.790  13.891
15326W        W82109  38.205  15.960   4.289
15327W        W82110  12.580  30.081   1.742
15328W        W82111  23.022  38.561  11.016
15329W        W82112   5.264  23.116   1.434
15330W        W82113  12.511   7.434   0.456
15331W        W82114  29.086  36.593  14.087
15332W        W82115  36.950  10.088  13.059
15333W        W82116  44.812   4.982  10.672
15334W        W82117   1.588  40.843   0.342
15335W        W82118  40.374   6.381  14.959
15336W        W82119  43.842   6.730  13.767
15337W        W82120   2.802  44.515  14.426
15338W        W82121  16.424   0.465  14.538
15339W        W82122  44.668  11.732  12.173
15340W        W82123  20.248  18.536  11.642
15341W        W82124   7.513  29.954   0.310
15342W        W82125   7.666  25.490   4.591
15343W        W82126  27.067  18.550   0.811
15344W        W82127  11.999   6.837  12.069
15345W        W82128   9.251  11.120  13.024
15346W        W82129  25.484  14.667   4.561
15347W        W82130  20.245  15.233   3.709
15348W        W82131  17.814  20.194  13.837
15349W        W82132  24.714  24.466   0.340
15350W        W82133   1.298  27.472   2.139
15351W        W82134  42.848  14.467   2.119
15352W        W82135  31.453  40.315   4.363
15353W        W82136  10.753  14.820   2.787
15354W        W82137  43.420  23.091   4.081
15355W        W82138  11.260  20.630   4.437
15356W        W82139  25.787  14.776   3.598
15357W        W82140   4.974  27.354  13.308
15358W        W82141  36.459  25.593   3.174
15359W        W82142  29.983  13.213   4.811
15360W        W82143  44.768  28.219   1.881
15361W        W82144  14.540  37.589   9.866
15362W        W82145  11.360  10.144   1.306
15363W        W82146  43.049  34.487   3.366
15364W        W82147   1.876  16.305  13.851
15365W        W82148  33.091  26.160  14.763
15366W        W82149   0.355  20.502   2.088
15367W        W82150  15.502   9.754   2.861
15368W        W82151  44.942  13.820  14.894
15369W        W82152   8.622  36.093  14.274
15370W        W82153  16.894  28.978  14.332
15371W        W82154  23.546  27.033   2.138
15372W        W82155  43.741   7.876   2.267
15373W        W82156  27.120  21.969  12.449
15374W        W82157  32.975  42.417  10.506
15375W        W82158   6.305  37.090   0.878
15376W        W82159  43.459  37.588   4.776
15377W        W82160  23.289  15.013  12.016
15378W        W82161  21.600  10.419  10.750
15379W        W82162  16.653  32.343   3.737
15380W        W82163   6.837  29.904  13.454
15381W        W82164  29.599  13.068  11.472
15382W        W82165  15.951  42.834   3.728
15383W        W82166   9.377   7.065   0.408
15384W        W82167   1.499   5.381  13.360
15385W        W82168   7.705  21.912   1.249
15386W        W82169  15.791   7.259   3.151
15387W        W82170  41.801  31.057  10.969
15388W        W82171  14.359  24.280   1.438
15389W        W82172  44.510   7.443   3.136
15390W        W82173  25.566  44.677   2.282
15391W        W82174   3.741  25.574   3.873
15392W        W82175  10.143  17.527  14.422
15393W        W82176  41.031  38.269   4.386
15394W        W82177   1.375  11.707  14.054
15395W        W82178  30.461  38.988   0.967
15396W        W82179   1.449  15.249  14.018
15397W        W82180  17.281  40.480  13.045
15398W        W82181  22.840  37.110  10.649
15399W        W82182  28.044  23.258  14.528
15400W        W82183   7.744  36.436   2.278
15401W        W82184  30.060  13.825  10.736
15402W        W82185  43.736  30.986   0.164
15403W        W82186  24.952  28.981   0.970
15404W        W82187  21.191  27.190  14.975
15405W        W82188  33.521  29.481   3.063
15406W        W82189  29.496  44.283  14.413
15407W        W82190  41.768  39.951   2.631
15408W        W82191   2.313  21.058   4.889
15409W        W82192   1.269   7.379   0.402
15410W        W82193  31.369  11.673  14.326
15411W        W82194   2.473  40.802  11.627
15412W        W82195  41.915  23.165   0.078
15413W        W82196  36.609  32.606   2.125
15414W        W82197  37.119  18.746   4.608
15415W        W82198   7.725  32.189   0.492
15416W        W82199  37.885  23.331  13.988
15417W        W82200  34.508  37.596   4.352
15418W        W82201   6.960  41.759  11.091
15419W        W82202   8.121   1.526   2.401
15420W        W82203  34.707   9.600   4.011
15421W        W82204  22.221  37.857  13.460
15422W        W82205   5.874  29.879   1.340
15423W        W82206  32.236  22.201  14.764
15424W        W82207  15.145  21.322  11.432
15425W        W82208  28.501   4.157  11.061
15426W        W82209  15.172   0.049   2.392
15427W        W82210  41.787   6.881   4.628
15428W        W82211  10.858   5.075  11.561
15429W        W82212  13.763  38.262  10.818
15430W        W82213  12.612  12.013  14.753
15431W        W82214  43.546   8.396  11.596
15432W        W82215  34.133  17.256   4.476
15433W        W82216  10.778  27.136  14.940
15434W        W82217  32.929  44.876   4.542
15435W        W82218  29.382  28.083   4.576
15436W        W82219   3.015  32.142  11.805
15437W        W82220  25.350  33.419  14.801
15438W        W82221   4.319  41.807  14.164
15439W        W82222  15.619  33.430   3.299
15440W        W82223   7.776  41.478   3.213
15441W        W82224  36.646  40.027  10.396
15442W        W82225  33.954   4.272   0.310
15443W        W82226   0.701  17.415  14.550
15444W        W82227  28.739  12.568  11.249
15445W        W82228  17.507  39.477  12.139
15446W        W82229   0.239  32.293   1.194
15447W        W82230   2.528   4.740   5.092
15448W        W82231  36.002   6.743  14.805
15449W        W82232  28.084  17.958  11.148
15450W        W82233  44.819  32.351   3.712
15451W        W82234  21.044   9.127   1.331
15452W        W82235  31.878   7.302  11.224
15453W        W82236  26.109   5.374  10.969
15454W        W82237   7.262  12.201   2.810
15455W        W82238  13.813  30.610   3.786
15456W        W82239  29.489  14.141  11.531
15457W        W82240  42.451  37.714  12.797
15458W        W82241  17.670  38.886  13.882
15459W        W82242  10.421   1.824   3.794
15460W        W82243  33.189  43.028  14.432
15461W        W82244  34.933  29.981  13.805
15462W        W82245  44.286  32.311   3.592
15463W        W82246  32.532  34.271  11.004
15464W        W82247  21.763  38.891   0.726
15465W        W82248  34.360   1.867  10.769
15466W        W82249   6.325  35.140   4.469
15467W        W82250  21.700  35.367  14.685
15468W        W82251  26.497   7.548   3.277
15469W        W82252   4.329   6.164  13.504
15470W        W82253  41.828  30.476   3.756
15471W        W82254  25.261  21.201   1.597
15472W        W82255  17.003   6.366  11.578
15473W        W82256   8.857   5.847  12.966
15474W        W82257   5.265  32.226   2.194
15475W        W82258  35.546  26.733   2.296
15476W        W82259  30.109  43.317   0.774
15477W        W82260  35.067  14.089  14.537
15478W        W82261  14.799  31.410   2.735
15479W        W82262  18.163  44.703  10.394
15480W        W82263  44.061  39.440   3.924
15481W        W82264  19.635  32.711   2.666
15482W        W82265  11.279   4.864  14.503
15483W        W82266  34.152  40.817  13.025
15484W        W82267  40.483   4.765  13.537
15485W        W82268  42.930  17.242   0.301
15486W        W82269  37.332  29.147  14.043
15487W        W82270  39.982  24.940   2.821
15488W        W82271  15.825  10.780   4.650
15489W        W82272  31.909   7.785  12.451
15490W        W82273   4.506  42.855  14.495
15491W        W82274   2.345  11.663   3.637
15492W        W82275   4.833   5.910  13.560
15493W        W82276  29.116  38.997   2.456
15494W        W82277   7.713  22.861  12.569
15495W        W82278  37.681   7.353   9.752
15496W        W82279  13.081  29.353  13.277
15497W        W82280   8.971  21.862  12.545
15498W        W82281   8.617   9.133   0.899
15499W        W82282  15.555  34.752   2.110
15500W        W82283  43.323  17.000  14.430
15501W        W82284  14.147   5.853   3.841
15502W        W82285  14.154  21.987  13.349
15503W        W82286  24.422   9.122  14.434
15504W        W82287  24.633  37.866  14.808
15505W        W82288   1.901  14.201   2.921
15506W        W82289  28.205  42.780   2.876
15507W        W82290  16.720  24.682  12.951
15508W        W82291  23.111  33.993   3.045
15509W        W82292  34.694  24.258   4.138
15510W        W82293  11.613   2.495   4.465
15511W        W82294  23.657  44.112   4.544
15512W        W82295   8.804  14.168   1.323
15513W        W82296  26.767  33.206  11.009
15514W        W82297  41.882  24.122   0.280
15515W        W82298  12.548   6.442  12.971
15516W        W82299  22.181  20.500  11.557
15517W        W82300  25.066  43.834   0.370
15518W        W82301   6.216  38.840  12.359
15519W        W82302  13.878  32.448  13.548
15520W        W82303   2.017  42.791   2.041
15521W        W82304  37.021  22.018   0.655
15522W        W82305   0.789  41.183   0.964
15523W        W82306  37.624  33.322   0.926
15524W        W82307  41.006  36.442   0.716
15525W        W82308  18.578   1.992   4.568
15526W        W82309  23.501   0.845   0.357
15527W        W82310  16.023   8.264   0.646
15528W        W82311   6.833  28.210  12.428
15529W        W82312  34.074  11.710  14.341
15530W        W82313  16.674  33.038   2.443
15531W        W82314  24.761  39.923  11.394
15532W        W82315  39.487   2.498  11.703
15533W        W82316  27.458  15.681   2.095
15534W        W82317   3.063  12.782   2.369
15535W        W82318  17.709  44.510   3.604
15536W        W82319   5.975  14.698   4.153
15537W        W82320  37.470  16.792  10.962
15538W        W82321  41.064  41.687   1.785
15539W        W82322  25.019  22.211   1.713
15540W        W82323  11.779  24.114  12.120
15541W        W82324  41.533  27.974  13.402
15542W        W82325  30.622  20.562   1.549
15543W        W82326  41.099  37.357   2.907
15544W        W82327  33.917   4.718  11.648
15545W        W82328   1.252   2.491  14.389
15546W        W82329  14.809  27.286  10.556
15547W        W82330   2.342  11.351   1.640
15548W        W82331  18.301  31.105  11.989
15549W        W82332  29.116  37.586   4.635
15550W        W82333  43.342  16.581   3.692
15551W        W82334  24.570  10.376  11.558
15552W        W82335  11.095   4.317  13.461
15553W        W82336  13.832   0.852  11.550
15554W        W82337  25.516  13.239   1.866
15555W        W82338   4.983  44.592  14.098
15556W        W82339  11.025  44.683  11.122
15557W        W82340  22.570  11.434   3.260
15558W        W82341  41.726  41.006  12.840
15559W        W82342  27.967  37.295   4.301
15560W        W82343  24.895  30.201   3.121
15561W        W82344  28.067  10.504   1.737
15562W        W82345  29.241  10.756  12.009
15563W        W82346   9.937  19.847   4.596
15564W        W82347   6.370   7.281   4.661
15565W        W82348   8.785  10.112  12.555
15566W        W82349  33.873   1.253   2.934
15567W        W82350  44.198  17.417   9.855
15568W        W82351  26.811  29.602  13.368
15569W        W82352   4.626  10.128   3.741
15570W        W82353  11.626  39.056  10.663
15571W        W82354   2.492  43.774   1.436
15572W        W82355  22.032  10.183  14.751
15573W        W82356  30.553  28.059  10.728
15574W        W82357   4.453  11.420   1.701
15575W        W82358   1.305  26.572   1.322
15576W        W82359  19.727  44.365  14.994
15577W        W82360   6.004   7.658   4.600
15578W        W82361  42.770  25.354   4.727
15579W        W82362   4.005  15.163   4.585
15580W        W82363  10.491  40.871   4.844
15581W        W82364  24.518  36.400   0.361
15582W        W82365  30.628  34.172  13.432
15583W        W82366  40.864   9.740  13.879
15584W        W82367  44.872  21.526   2.927
15585W        W82368  37.652  41.424   9.704
15586W        W82369  20.032  22.668  12.149
15587W        W82370   3.884  44.361   0.891
15588W        W82371  17.086  40.979  10.748
15589W        W82372  29.771   0.777  10.779
15590W        W82373  36.308   8.184  11.589
15591W        W82374  31.619  31.196  10.749
15592W        W82375  31.058  24.520  11.870
15593W        W82376   9.665  23.254   2.245
15594W        W82377   4.782   0.100   0.017
15595W        W82378  25.700  31.515   1.307
15596W        W82379   2.456  19.487  11.668
15597W        W82380  36.112   9.678   2.905
15598W        W82381  20.598   4.168  13.313
15599W        W82382  40.991  11.181  13.942
15600W        W82383  25.090  34.691   0.341
15601W        W82384  41.918  27.423  13.272
15602W        W82385   4.821  39.935  11.888
15603W        W82386  16.856   0.967  14.478
15604W        W82387   4.878  20.236  14.395
15605W        W82388  15.644  41.541   0.319
15606W        W82389  31.974   5.941   0.935
15607W        W82390  26.767   3.430  11.457
15608W        W82391  42.320  40.543  14.043
15609W        W82392  44.743  31.851   2.177
15610W        W82393  35.113  27.511  13.500
15611W        W82394  31.101  44.580   1.621
15612W        W82395   8.856  44.708  10.607
15613W        W82396  18.214  28.088  11.870
15614W        W82397  13.820  37.640  14.477
15615W        W82398  37.221   9.874  10.819
15616W        W82399   7.730  14.475   1.235
15617W        W82400  22.788  44.999  11.647
15618W        W82401  18.812  34.112  11.118
15619W        W82402   0.544  15.807   3.191
15620W        W82403  17.778   9.427  12.344
15621W        W82404  37.139  15.795   3.524
15622W        W82405   1.857  10.957  14.617
15623W        W82406  42.703  28.375  12.088
15624W        W82407  41.815  38.581  11.625
15625W        W82408  23.068  38.498   0.418
15626W        W82409  44.480  22.778   0.962
15627W        W82410   0.707  32.032   3.664
15628W        W82411  44.100  41.203  13.680
15629W        W82412  14.172  29.654   0.785
15630W        W82413  10.909  37.070   1.707
15631W        W82414  26.679  17.237  13.714
15632W        W82415  19.306  33.453  12.713
15633W        W82416  25.246   0.825  14.949
15634W        W82417  26.718  31.500   1.362
15635W        W82418  13.337  11.866  14.628
15636W        W82419   3.199   8.344  13.866
15637W        W82420  42.778  11.849  12.599
15638W        W82421   8.620  23.163  14.248
15639W        W82422  34.920  39.808  11.675
15640W        W82423   1.708  13.654  11.178
15641W        W82424  26.044  28.641  14.897
15642W        W82425  33.958  31.099   4.811
15643W        W82426   1.381  25.100  11.426
15644W        W82427   2.738   4.827   0.273
15645W        W82428  17.605  43.757   4.103
15646W        W82429  23.335  30.603   2.897
15647W        W82430  25.139  28.204  11.169
15648W        W82431  35.651  44.732  14.905
15649W        W82432  22.742  26.063   0.327
15650W        W82433   0.988  22.963   1.882
15651W        W82434  34.381  31.557   2.350
15652W        W82435   6.822  24.269   3.201
15653W        W82436  10.667   7.152   1.978
15654W        W82437  16.278  15.326  11.505
15655W        W82438  22.059   1.301   5.358
15656W        W82439   5.279  36.126   2.104
15657W        W82440  10.125  35.360   4.957
15658W        W82441  24.717   3.904   3.070
15659W        W82442  34.374   0.439   1.377
15660W        W82443  34.419   0.905  12.551
15661W        W82444  24.511  24.566   9.852
15662W        W82445  20.450  16.109  11.582
15663W        W82446  14.604  14.932  14.828
15664W        W82447  44.393  33.986   0.398
15665W        W82448  28.587  30.598   4.817
15666W        W82449  24.182   9.861   1.485
15667W        W82450  34.390   1.858   1.010
15668W        W82451  14.586   0.224   1.186
15669W        W82452   8.850  19.403   2.001
15670W        W82453   6.907  42.981  11.528
15671W        W82454  10.417   4.984   1.476
15672W        W82455   3.201  33.120  11.127
15673W        W82456  14.172  39.540  13.497
15674W        W82457  26.428  35.298  11.121
15675W        W82458  40.253   1.627  14.740
15676W        W82459   0.468  37.594  13.501
15677W        W82460  14.918  17.819  10.522
15678W        W82461  24.662  31.685   4.388
15679W        W82462   4.436  20.547   2.168
15680W        W82463   1.845  26.605   2.781
15681W        W82464  41.544  23.950  10.597
15682W        W82465  39.047  38.348  14.841
15683W        W82466  30.983  40.617  11.980
15684W        W82467  36.100  37.430  14.264
15685W        W82468   3.826  21.094  14.804
15686W        W82469  29.517  21.301   1.015
15687W        W82470  13.635  12.142   3.667
15688W        W82471  18.764  39.440  13.310
15689W        W82472  16.095  37.558   2.334
15690W        W82473  29.118  26.601   4.048
15691W        W82474  31.636   7.839   4.906
15692W        W82475   5.496  12.844  13.849
15693W        W82476  39.974   3.114  14.955
15694W        W82477  13.128  21.580  11.342
15695W        W82478  28.499  30.910   2.152
15696W        W82479  21.760  27.019  13.765
15697W        W82480  43.588   4.505  10.627
15698W        W82481   2.431  31.429  11.016
15699W        W82482  43.916  42.420   2.425
15700W        W82483   1.801  15.797  13.823
15701W        W82484  31.546  40.252  14.547
15702W        W82485   0.826  24.672  13.039
15703W        W82486  21.183   9.231  11.637
15704W        W82487  18.139  17.712   3.781
15705W        W82488   7.947  42.596   3.308
15706W        W82489  33.376  10.271   1.143
15707W        W82490  24.773   8.400   3.044
15708W        W82491   2.730   7.463   0.775
15709W        W82492  21.559  43.572   4.583
15710W        W82493  17.837  34.288  11.979
15711W        W82494  10.165  40.931   4.445
15712W        W82495  11.075  36.759  10.209
15713W        W82496  29.781  33.221   1.936
15714W        W82497  20.351  14.677   4.349
15715W        W82498  15.336  33.532  14.912
15716W        W82499   4.212   4.812   0.228
15717W        W82500  29.307   6.120   4.182
15718W        W82501  41.075  33.037  11.552
15719W        W82502  13.957  43.170   2.562
15720W        W82503  30.863  41.361  12.410
15721W        W82504  42.570  35.133  10.575
15722W        W82505  13.796  25.047  13.007
15723W        W82506  40.485   0.883  14.240
15724W        W82507  41.816  19.923   4.536
15725W        W82508  24.778   9.080   0.751
15726W        W82509  16.500  35.352  12.465
15727W        W82510   4.277  20.980  11.708
15728W        W82511   0.614  37.807   2.245
15729W        W82512  16.122   0.833  11.985
15730W        W82513  29.388  31.480   4.948
15731W        W82514  36.881   2.886   2.298
15732W        W82515  19.244   5.695   1.778
15733W        W82516  44.031  40.563   0.831
15734W        W82517   8.313  14.108  12.396
15735W        W82518  37.140  16.232  13.065
15736W        W82519  42.050  27.998   3.729
15737W        W82520  34.773  21.553   3.981
15738W        W82521  35.293  24.966   0.019
15739W        W82522   4.482  32.569  14.079
15740W        W82523  24.218  16.316  14.534
15741W        W82524  43.326  37.277  14.859
15742W        W82525  18.145   0.616  12.060
15743W        W82526  43.329  34.060   4.118
15744W        W82527  19.239  12.733  12.562
15745W        W82528  30.660  32.385  12.550
15746W        W82529   5.547  14.611   1.478
15747W        W82530   0.949  37.540   4.526
15748W        W82531  16.363  18.009  13.393
15749W        W82532  34.755  11.556  11.892
15750W        W82533   0.979  14.044   1.989
15751W        W82534  41.015   3.072   3.654
15752W        W82535  30.879  32.683   0.240
15753W        W82536  36.131  13.860   0.210
15754W        W82537   6.189  31.761   2.217
15755W        W82538   3.288  32.112  14.051
15756W        W82539  32.966   1.764   0.043
15757W        W82540   9.862  43.041   1.410
15758W        W82541  37.595  24.391   0.341
15759W        W82542  42.555   1.495  10.890
15760W        W82543  19.116  34.201   3.416
15761W        W82544  37.019  42.594   3.296
15762W        W82545  31.538  24.249   4.528
15763W        W82546   1.449  10.178   4.590
15764W        W82547   4.670  21.120  14.277
15765W        W82548  19.126  39.992   2.683
15766W        W82549  36.786  22.775  11.972
15767W        W82550   0.348  20.507  13.985
15768W        W82551   3.127   1.367   0.358
15769W        W82552  39.832  28.012  14.399
15770W        W82553  23.791  12.721   2.285
15771W        W82554  19.174   4.483  11.580
15772W        W82555  42.857  31.453   0.102
15773W        W82556  15.284   5.341   1.993
15774W        W82557  17.680  29.988  11.130
15775W        W82558   7.755   1.284  13.745
15776W        W82559  30.627  22.645  11.148
15777W        W82560  42.893   2.635   4.785
15778W        W82561   1.135  41.562  10.233
15779W        W82562  25.976  41.597  10.335
15780W        W82563  29.933  26.936   0.402
15781W        W82564   6.343  42.757   2.854
15782W        W82565  25.531  33.135   3.286
15783W        W82566  20.106  17.320  13.363
15784W        W82567  21.068  34.496   4.593
15785W        W82568  14.931  25.609   0.863
15786W        W82569  15.803   0.458   2.161
15787W        W82570  44.295  35.308  12.020
15788W        W82571  24.614  28.579   0.315
15789W        W82572  29.747  16.074   4.875
15790W        W82573   3.424  43.793  11.912
15791W        W82574  34.616   3.036  14.298
15792W        W82575  36.457   4.352  10.821
15793W        W82576  23.141  11.646   2.461
15794W        W82577   2.924  27.136  12.969
15795W        W82578  31.421   4.621  10.095
15796W        W82579   9.093   1.492  13.061
15797W        W82580  21.269  29.616  11.570
15798W        W82581  42.729  17.643   0.550
15799W        W82582  43.556  10.341  12.441
15800W        W82583  28.403   1.003   2.808
15801W        W82584   1.877  25.756  12.530
15802W        W82585  41.466  10.333   4.137
15803W        W82586  34.217  21.009   2.119
15804W        W82587  18.118  14.383   0.406
15805W        W82588   3.768   9.614   2.191
15806W        W82589   7.696  24.287  12.843
15807W        W82590  17.588  25.145  12.062
15808W        W82591   2.054  19.558  11.051
15809W        W82592   4.536  34.999   1.929
15810W        W82593  22.671  17.366   2.183
15811W        W82594   9.513  14.304   2.021
15812W        W82595  19.254   8.814  12.506
15813W        W82596  27.049  25.498   1.215
15814W        W82597  23.320  31.459   2.633
15815W        W82598  20.108   1.378  10.391
15816W        W82599   7.678  16.546   4.855
15817W        W82600  43.827  27.267  13.043
15818W        W82601  37.442  14.795   0.073
15819W        W82602  41.826   9.903   4.627
15820W        W82603  23.774  35.561  13.979
15821W        W82604  16.648  29.530   3.813
15822W        W82605   6.424  37.886   4.201
15823W        W82606  15.421  27.155   0.414
15824W        W82607  30.076  44.166   2.184
15825W        W82608  15.151   4.718  11.605
15826W        W82609  14.523  39.627  12.972
15827W        W82610  12.312  17.977  11.667
15828W        W82611   0.534  12.142   1.832
15829W        W82612  39.809  12.850   1.878
15830W        W82613  16.845  13.669  11.820
15831W        W82614  14.779  35.879   1.864
15832W        W82615   2.806  23.619  12.067
15833W        W82616  12.781  22.749   2.936
15834W        W82617  31.931  27.941   3.194
15835W        W82618  20.134   5.836  11.216
15836W        W82619  27.529  43.556  10.579
15837W        W82620  32.095  41.818  14.011
15838W        W82621   4.883  28.179  14.538
15839W        W82622  27.995   9.247  10.767
15840W        W82623  21.336   1.298   2.967
15841W        W82624  44.940  22.421  13.429
15842W        W82625   0.941  42.543   4.127
15843W        W82626  12.263  44.051  14.726
15844W        W82627  35.829  24.618  11.706
15845W        W82628   5.259  42.014   3.741
15846W        W82629  34.034   9.321  13.920
15847W        W82630  31.392  13.209  10.516
15848W        W82631   5.064  14.130   9.692
15849W        W82632  34.397  18.477   3.792
15850W        W82633  30.656  35.331  10.750
15851W        W82634  21.120   1.344  13.046
15852W        W82635  34.428  16.216  12.597
15853W        W82636  14.636   7.438  13.481
15854W        W82637  31.398  23.205   3.210
15855W        W82638  38.960  35.572   2.336
15856W        W82639   3.775  30.895  11.380
15857W        W82640  28.077   4.028  14.871
15858W        W82641  26.498  43.752  12.424
15859W        W82642   8.645   6.358   1.833
15860W        W82643  44.896  38.479  14.019
15861W        W82644  37.863  30.730   1.852
15862W        W82645  30.672   7.189  10.683
15863W        W82646  22.744   8.093  11.646
15864W        W82647  33.962  10.327  12.266
15865W        W82648  18.349  24.390  12.538
15866W        W82649  44.339  16.673   1.935
15867W        W82650  41.017  33.839   4.200
15868W        W82651  27.734  29.516   2.280
15869W        W82652   4.809  32.637  12.696
15870W        W82653   6.627  43.556   1.166
15871W        W82654   4.694  21.977  12.697
15872W        W82655  30.073  19.124  10.905
15873W        W82656  41.881  26.501  13.416
15874W        W82657  29.716  38.964   4.970
15875W        W82658  37.696   6.248   3.173
15876W        W82659   4.365  41.579   3.872
15877W        W82660  27.562  22.508  13.046
15878W        W82661  38.449  34.247  12.485
15879W        W82662  44.183  24.978   4.177
15880W        W82663  20.383  12.135  12.160
15881W        W82664  41.608   9.098   0.735
15882W        W82665  17.521   0.027  11.579
15883W        W82666  40.807  35.010   3.602
15884W        W82667  32.649   4.479  11.136
15885W        W82668   1.778   8.899   1.870
15886W        W82669   9.843  41.400  10.511
15887W        W82670  42.085   6.411  12.083
15888W        W82671  35.605   8.337   4.259
15889W        W82672  33.713   7.280  14.521
15890W        W82673  23.587  31.039   0.748
15891W        W82674  24.185  13.932   0.210
15892W        W82675  19.097  34.830  10.966
15893W        W82676  27.585  37.146   1.209
15894W        W82677  40.595   6.249   1.816
15895W        W82678   1.218  26.797   3.992
15896W        W82679  14.063  43.808   0.288
15897W        W82680  43.759  32.993  11.290
15898W        W82681  13.835  39.539  14.809
15899W        W82682  24.542  19.706  12.367
15900W        W82683   9.766  19.173  10.702
15901W        W82684   1.304  20.955   3.735
15902W        W82685  35.493  25.419  13.197
15903W        W82686   7.263  40.031  11.694
15904W        W82687  37.027  38.052  13.422
15905W        W82688  38.165  16.461  12.807
15906W        W82689   5.130  10.630  14.487
15907W        W82690  22.657   7.443   4.382
15908W        W82691  16.620  44.865  11.256
15909W        W82692  19.581  27.781   3.529
15910W        W82693  20.804   2.368  13.361
15911W        W82694  44.238  25.552   2.929
15912W        W82695  22.160   7.488   4.972
15913W        W82696  29.506  29.262  13.303
15914W        W82697  18.820  11.422  12.892
15915W        W82698  33.580  26.019  14.749
15916W        W82699  29.705  12.108   3.211
15917W        W82700  32.972   9.719   4.133
15918W        W82701   6.407  10.288  11.491
15919W        W82702  10.327   1.394   2.262
15920W        W82703  42.539  16.073  13.430
15921W        W82704  13.931  28.461   1.292
15922W        W82705  27.768  18.514  13.901
15923W        W82706   0.742  18.198  11.617
15924W        W82707  39.572  41.445   1.879
15925W        W82708  30.945  35.151  13.278
15926W        W82709  29.034  16.196   1.327
15927W        W82710  26.820  38.586  12.409
15928W        W82711  29.377  37.512  12.529
15929W        W82712  21.123   9.771  10.784
15930W        W82713   3.321  35.776  12.018
15931W        W82714  41.143  32.637   0.541
15932W        W82715   7.642  26.995   2.512
15933W        W82716  11.763  43.871   0.467
15934W        W82717  33.388   0.938  13.625
15935W        W82718  24.340  20.604   4.017
15936W        W82719  37.477  29.190  11.037
15937W        W82720   2.365  40.463   2.786
15938W        W82721  26.172  36.491  14.731
15939W        W82722  36.201  22.501   0.748
15940W        W82723  18.027  34.418  14.674
15941W        W82724  39.462  21.675   3.378
15942W        W82725   7.362  11.717  12.613
15943W        W82726  35.028  27.790   4.609
15944W        W82727  16.026  24.175   2.856
15945W        W82728   0.888   5.399  12.957
15946W        W82729  34.111   8.240  13.092
15947W        W82730  31.393  44.185  12.488
15948W        W82731   4.902  38.789  12.829
15949W        W82732   6.761  44.043  12.604
15950W        W82733  28.583  27.930  14.485
15951W        W82734  25.152  17.111   3.873
15952W        W82735  33.126   8.842   0.692
15953W        W82736  32.614   2.475   2.022
15954W        W82737  27.399  42.786   3.711
15955W        W82738  28.631   8.844  10.448
15956W        W82739  36.880  38.565   2.805
15957W        W82740  18.999  29.581   2.759
15958W        W82741   5.477  17.115  13.859
15959W        W82742  32.191  12.343   1.397
15960W        W82743  43.555  15.456   4.950
15961W        W82744  10.813  12.853  12.896
15962W        W82745  12.581  31.996   2.442
15963W        W82746  29.031  34.979  13.826
15964W        W82747   2.893   6.884   1.910
15965W        W82748  25.753  20.796  13.012
15966W        W82749  42.075   4.445   4.155
15967W        W82750   4.747  27.634   3.153
15968W        W82751  15.701  41.396  11.026
15969W        W82752  30.625   3.323   3.299
15970W        W82753  29.050  25.413   4.042
15971W        W82754  37.879  25.130   2.764
15972W        W82755  34.508  41.063   4.698
15973W        W82756  39.460  34.422  12.412
15974W        W82757  33.609  26.753  14.103
15975W        W82758  32.422  23.996   2.703
15976W        W82759  16.220  43.801   4.555
15977W        W82760  41.070  29.716  11.996
15978W        W82761  40.916  36.151  12.675
15979W        W82762  17.744  35.698   2.011
15980W        W82763  15.733  28.224   3.268
15981W        W82764  25.327   8.580  12.940
15982W        W82765  33.354  41.565   5.178
15983W        W82766  11.206  25.668  12.848
15984W        W82767  34.315   8.135  13.831
15985W        W82768  32.989  44.471  10.669
15986W        W82769   5.566  12.978   2.264
15987W        W82770  35.885  31.236   1.433
15988W        W82771  37.160  19.683  14.625
15989W        W82772   5.702   3.800  12.945
15990W        W82773  10.146  32.136  11.996
15991W        W82774  31.393   1.393   4.744
15992W        W82775  37.169  24.460   2.737
15993W        W82776   5.948  21.043   1.797
15994W        W82777  15.170  22.535   0.925
15995W        W82778   6.230   7.525   2.778
15996W        W82779  14.779  21.667  12.547
15997W        W82780  25.045  40.247   3.007
15998W        W82781  32.544  41.560  12.885
15999W        W82782  40.487  39.559   4.166
16000W        W82783  17.985  34.501  12.914
16001W        W82784   1.728  30.131   0.426
16002W        W82785  18.087   5.362  13.511
16003W        W82786   2.242   4.194  12.048
16004W        W82787  42.813   0.318  12.433
16005W        W82788  27.609  16.152   2.813
16006W        W82789  14.588  43.717   3.079
16007W        W82790  44.686   9.454   0.852
16008W        W82791  24.999  10.651  13.944
16009W        W82792   1.476  42.591   3.739
16010W        W82793   8.869  32.211  11.552
16011W        W82794  29.913  21.991   2.183
16012W        W82795  41.804  18.717  11.507
16013W        W82796   8.082   4.356   4.133
16014W        W82797  42.724  29.006  10.980
16015W        W82798  39.077  44.909   2.503
16016W        W82799   7.834   5.910  10.848
16017W        W82800  13.403   4.431   4.116
16018W        W82801  22.996  36.404  13.165
16019W        W82802  36.472  31.986  11.713
16020W        W82803  22.175  31.585   3.697
16021W        W82804  43.840  30.935   4.188
16022W        W82805  16.817  41.423  13.492
16023W        W82806   4.732  33.506  13.559
16024W        W82807  22.407  33.346   1.885
16025W        W82808   0.912  20.995   4.376
16026W        W82809  37.268  43.523  13.330
16027W        W82810  17.100  14.919  11.478
16028W        W82811  29.606  36.912   2.372
16029W        W82812  11.871  39.993  10.836
16030W        W82813  39.815  44.555  12.516
16031W        W82814  11.614  30.466   1.456
16032W        W82815  20.813   1.917  12.238
16033W        W82816  41.884  26.117   0.819
16034W        W82817  12.693  34.925   3.319
16035W        W82818   6.483  42.338   3.148
16036W        W82819   4.250  11.233   1.254
16037W        W82820  23.138  21.708  11.536
16038W        W82821   0.881  29.467  13.468
16039W        W82822  26.039   4.072   0.197
16040W        W82823   1.813   1.198   1.807
16041W        W82824  33.600  16.672   0.413
16042W        W82825  22.642   2.474   2.680
16043W        W82826  11.486  24.958   3.963
16044W        W82827   0.259  39.403  11.877
16045W        W82828  22.086   2.070   2.203
16046W        W82829  12.167  26.434  12.152
16047W        W82830  39.773  37.067  12.359
16048W        W82831  33.114  10.392   4.586
16049W        W82832   6.128  31.253   2.297
16050W        W82833  28.971  27.784   2.626
16051W        W82834   7.863  38.793   0.528
16052W        W82835  38.889  37.985   4.241
16053W        W82836   4.827   0.772   3.643
16054W        W82837  25.452  40.860  12.366
16055W        W82838  42.808  20.072   5.238
16056W        W82839  14.738  14.703  12.380
16057W        W82840   7.680  32.837   3.278
16058W        W82841  13.698  36.452  13.944
16059W        W82842   7.410   0.963  14.525
16060W        W82843  29.138   1.393   0.191
16061W        W82844   0.480   9.077   4.078
16062W        W82845  28.532  43.838  11.530
16063W        W82846  12.066  21.787  14.444
16064W        W82847   2.480  26.579  10.799
16065W        W82848  16.791  44.429  14.445
16066W        W82849   5.836   0.255  12.053
16067W        W82850  31.846   5.743  14.981
16068W        W82851  16.660   6.626   3.268
16069W        W82852  25.631  39.989   2.234
16070W        W82853  20.983  20.125  12.088
16071W        W82854  32.183   5.673   1.333
16072W        W82855  21.056  36.666  12.024
16073W        W82856   2.072  28.556  10.822
16074W        W82857   4.680   2.421  12.062
16075W        W82858   6.735  42.051   2.775
16076W        W82859  34.273  23.767  14.575
16077W        W82860  18.027   2.716   2.706
16078W        W82861  28.046  43.505   2.338
16079W        W82862  44.824   4.188  11.196
16080W        W82863  44.470  10.586   2.374
16081W        W82864  11.737  42.541   0.441
16082W        W82865  41.438  11.002   4.564
16083W        W82866  39.752  43.900   4.429
16084W        W82867  40.524  22.183   3.171
16085W        W82868  37.096  28.531   1.296
16086W        W82869  16.352  44.041  12.562
16087W        W82870  31.906  30.245   0.892
16088W        W82871  23.005  15.097  11.142
16089W        W82872   3.672  28.893  14.891
16090W        W82873  33.138  38.970   4.197
16091W        W82874  24.940  37.435  13.896
16092W        W82875  11.162  30.626  11.006
16093W        W82876  43.846  30.670  11.929
16094W        W82877  27.271  28.498   4.461
16095W        W82878  32.526  27.109   0.711
16096W        W82879  18.716  34.970   3.685
16097W        W82880  15.183  18.949   4.877
16098W        W82881  38.486   6.366   1.748
16099W        W82882  13.823  44.218  11.110
16100W        W82883  14.097  43.269   4.762
16101W        W82884  41.541  40.013   1.722
16102W        W82885  11.373   2.132  12.940
16103W        W82886   0.533  34.569   1.743
16104W        W82887  43.101   1.810   4.304
16105W        W82888  12.386  18.769  12.460
16106W        W82889  26.912  33.387   0.999
16107W        W82890  36.084  34.092   2.865
16108W        W82891  10.081  24.304   1.770
16109W        W82892   0.299  27.883   3.691
16110W        W82893  25.975   2.509  12.384
16111W        W82894  35.994   2.586  12.946
16112W        W82895  23.295  15.096   3.019
16113W        W82896   3.586  37.956   4.933
16114W        W82897  35.733   5.779  11.699
16115W        W82898  39.910  21.819   3.149
16116W        W82899   1.751  25.092  10.759
16117W        W82900  14.843   8.002  14.854
16118W        W82901   7.747   6.095   4.618
16119W        W82902   3.381  40.293  14.226
16120W        W82903  31.162  39.492   2.272
16121W        W82904  32.179  34.390   2.367
16122W        W82905  36.057  26.625  13.633
16123W        W82906  22.600   8.607  12.568
16124W        W82907  23.259  27.015  13.385
16125W        W82908   6.144   7.305   1.452
16126W        W82909   8.586  44.361   1.760
16127W        W82910  27.480  10.811  11.676
16128W        W82911  40.023   6.893   0.787
16129W        W82912  26.946   1.655   1.352
16130W        W82913  39.022  14.716   3.634
16131W        W82914   9.380  36.111   1.897
16132W        W82915   9.173  14.243  12.362
16133W        W82916  26.513  21.449  14.853
16134W        W82917  19.153  21.214  13.602
16135W        W82918  39.512  30.348  13.526
16136W        W82919   9.412  28.917   4.046
16137W        W82920   9.962  43.437   4.023
16138W        W82921  24.648  19.858  11.914
16139W        W82922   8.838  16.748  12.996
16140W        W82923  23.505  32.983   4.437
16141W        W82924  35.817  34.230  13.069
16142W        W82925  14.606  30.115   2.853
16143W        W82926   7.444  39.821  13.059
16144W        W82927  35.572   8.873  10.355
16145W        W82928  33.147  43.611   3.695
16146W        W82929  43.988  35.100   0.950
16147W        W82930   6.403  34.980  13.439
16148W        W82931  14.284  28.106   2.071
16149W        W82932  30.556   9.832  12.580
16150W        W82933  41.473  34.990  12.848
16151W        W82934  12.696  14.862  14.134
16152W        W82935  37.856   7.195   3.250
16153W        W82936  11.656  41.790  12.768
16154W        W82937  39.627  10.253  10.108
16155W        W82938   0.457   8.700  13.387
16156W        W82939   4.342  35.657  14.830
16157W        W82940  22.806  11.391  10.791
16158W        W82941  37.865   1.259   1.840
16159W        W82942  39.843   0.548  12.649
16160W        W82943  19.344  23.585  14.837
16161W        W82944  25.616  37.351   3.983
16162W        W82945  41.816  24.014  11.133
16163W        W82946   2.736  33.154  12.910
16164W        W82947  26.565  24.572  13.414
16165W        W82948  22.407  35.991  14.921
16166W        W82949  26.999  44.886  12.709
16167W        W82950  36.401  21.686   1.383
16168W        W82951   0.834  34.381  14.636
16169W        W82952  31.598  14.975  12.946
16170W        W82953  35.902  27.419  12.929
16171W        W82954   7.224  14.505  13.923
16172W        W82955  30.418  36.933  12.333
16173W        W82956   0.413   5.834   4.951
16174W        W82957  13.635  39.615  14.292
16175W        W82958  10.911   2.876   1.229
16176W        W82959  37.382  40.314  10.539
16177W        W82960   2.399  36.483   2.865
16178W        W82961  30.082  28.446  11.045
16179W        W82962  21.228  17.300   3.214
16180W        W82963   7.350  12.138  13.004
16181W        W82964   3.859   2.905   2.317
16182W        W82965  10.637  34.645  14.756
16183W        W82966  13.320  19.372  11.078
16184W        W82967  31.953   1.114   2.777
16185W        W82968  14.584  40.309   3.915
16186W        W82969  29.014   5.050  12.470
16187W        W82970  39.325  10.689   3.751
16188W        W82971  26.703  17.344  12.539
16189W        W82972  28.617   7.516   2.506
16190W        W82973  35.373  36.783   2.218
16191W        W82974  10.811   1.979   4.110
16192W        W82975  41.490  24.238   4.049
16193W        W82976  33.268  15.097  13.475
16194W        W82977  42.868  10.690  14.375
16195W        W82978  13.584  43.022   2.890
16196W        W82979  25.994   7.704   3.248
16197W        W82980  17.668  24.140   2.245
16198W        W82981  42.336  24.016   2.476
16199W        W82982  12.537  44.048  10.670
16200W        W82983  41.233   8.691  13.976
16201W        W82984  19.053  34.877  10.409
16202W        W82985  38.403  18.472  10.881
16203W        W82986  20.026  35.740  10.116
16204W        W82987   6.393   5.019  13.546
16205W        W82988  22.976   4.959  11.651
16206W        W82989   4.318   5.741   4.719
16207W        W82990  36.106  15.116   4.126
16208W        W82991  30.882  12.156   1.048
16209W        W82992  14.188  28.653  12.928
16210W        W82993   7.355  10.469   1.268
16211W        W82994   0.059  25.497  13.584
16212W        W82995  38.288  25.742   0.279
16213W        W82996  28.215   2.826  14.388
16214W        W82997  43.717  33.462   4.833
16215W        W82998  27.934   0.395  12.535
16216W        W82999  42.006  15.673   0.231
16217W        W83000  14.798  14.159   1.322
16218W        W83001  10.179  34.888  12.843
16219W        W83002  11.788   0.701  11.546
16220W        W83003   0.328  26.844   2.470
16221W        W83004  21.654  42.786   2.083
16222W        W83005   8.982  38.388  11.479
16223W        W83006   7.195  13.123   2.716
16224W        W83007   4.743   8.605  12.027
16225W        W83008   5.246  20.827  10.688
16226W        W83009  35.088   9.292   0.113
16227W        W83010  18.977  25.102  11.685
16228W        W83011  13.073  44.252  11.603
16229W        W83012  26.500  43.456   0.480
16230W        W83013  16.080   4.854   1.565
16231W        W83014   5.787  25.130  14.883
16232W        W83015  31.811  13.210  11.509
16233W        W83016  43.485  12.265  10.845
16234W        W83017   7.056  14.762  13.502
16235W        W83018  25.520   0.076   0.547
16236W        W83019  41.760  20.575  13.010
16237W        W83020  18.088   5.916   3.410
16238W        W83021  28.919  41.221   1.944
16239W        W83022  15.352  44.927   1.405
16240W        W83023   8.700   0.155  11.244
16241W        W83024  23.575  24.029  12.069
16242W        W83025  22.318  25.086  12.651
16243W        W83026  26.977   5.604  11.749
16244W        W83027   1.695  43.982  12.872
16245W        W83028   0.391   6.064  10.958
16246W        W83029  17.025  11.980   1.045
16247W        W83030   3.758  40.986  14.508
16248W        W83031  13.698   4.016   0.343
16249W        W83032  43.355   6.246  13.002
16250W        W83033  17.298  11.594   4.704
16251W        W83034  24.563   3.556  13.558
16252W        W83035  23.107   4.963   9.960
16253W        W83036  20.633  22.110  12.487
16254W        W83037  29.731  41.785   4.458
16255W        W83038  44.994  22.047  14.808
16256W        W83039  15.907  40.244  12.811
16257W        W83040  42.061   8.594  14.914
16258W        W83041  42.726  29.907  10.738
16259W        W83042  41.470  32.900   0.216
16260W        W83043  25.062  39.449   1.836
16261W        W83044  11.372  44.083  12.675
16262W        W83045  22.935  41.366  13.293
16263W        W83046  38.095  37.713   0.335
16264W        W83047  39.798  22.022   3.601
16265W        W83048   3.596  42.385   3.162
16266W        W83049   7.035  25.957   0.281
16267W        W83050  31.340  17.288   0.489
16268W        W83051  35.576  41.247  13.154
16269W        W83052  33.455   7.446   0.283
16270W        W83053  21.419  28.958   1.714
16271W        W83054   3.325  29.033   9.902
16272W        W83055  16.652  35.498  11.547
16273W        W83056   2.225  21.602   1.788
16274W        W83057   0.396  40.707  12.691
16275W        W83058  20.207  19.824   3.547
16276W        W83059   1.319  32.465  14.521
16277W        W83060   4.707  12.729   1.909
16278W        W83061   1.741  10.341  11.126
16279W        W83062  21.644  20.904   4.828
16280W        W83063  41.534   3.828  11.137
16281W        W83064  30.443  24.009   1.283
16282W        W83065  40.556   5.877  12.433
16283W        W83066   0.283  44.438   0.313
16284W        W83067   4.957   4.324  12.068
16285W        W83068   8.283  28.155   2.955
16286W        W83069  43.234  26.517   4.116
16287W        W83070  32.507  14.144   0.979
16288W        W83071  27.910  12.705   3.253
16289W        W83072  31.384   3.409  10.765
16290W        W83073  11.762  35.034   0.693
16291W        W83074   7.709   2.206   0.405
16292W        W83075  14.237   0.221   0.702
16293W        W83076  29.886  37.599  14.780
16294W        W83077  16.056  34.426  11.567
16295W        W83078  20.774  10.102   3.764
16296W        W83079  33.508  29.391   4.588
16297W        W83080   9.217  11.605  14.395
16298W        W83081   3.132   2.397   2.278
16299W        W83082  29.553  16.605   2.314
16300W        W83083  20.944  25.239   3.722
16301W        W83084  36.478  33.012   2.390
16302W        W83085   2.269  21.823  12.059
16303W        W83086  30.968   8.565   0.749
16304W        W83087  11.145  14.316  10.737
16305W        W83088  42.775   4.726  12.114
16306W        W83089  25.709  31.943   3.586
16307W        W83090  29.199  21.944   0.722
16308W        W83091   9.297  17.627  14.513
16309W        W83092   5.638  20.350   3.567
16310W        W83093  35.615  34.901   1.259
16311W        W83094  34.592  38.778  11.160
16312W        W83095  36.294  15.890  13.491
16313W        W83096  39.289  36.856  12.352
16314W        W83097  27.936  34.564  13.063
16315W        W83098  39.457  43.827  11.046
16316W        W83099   6.785  31.320  11.540
16317W        W83100  36.915  44.733   0.335
16318W        W83101  20.743  10.136  10.685
16319W        W83102  33.514   7.836  13.485
16320W        W83103  24.707   2.455   4.157
16321W        W83104   6.927   1.801  11.995
16322W        W83105  42.996  12.136   4.222
16323W        W83106  43.062  35.315   2.472
16324W        W83107   8.744  28.873  14.768
16325W        W83108  12.838  12.603  10.226
16326W        W83109  36.866  30.194  12.797
16327W        W83110   7.859   6.323  12.502
16328W        W83111   7.222  27.679   0.026
16329W        W83112  10.902   3.573   0.947
16330W        W83113  32.608   3.712   2.331
16331W        W83114  33.432   8.108  13.941
16332W        W83115  27.713  30.653  14.966
16333W        W83116  43.225  19.291   4.203
16334W        W83117   7.425  35.113  12.017
16335W        W83118  34.922   4.691   1.335
16336W        W83119  18.669  30.438   1.804
16337W        W83120  15.318  12.980   1.909
16338W        W83121  17.654   6.304   0.470
16339W        W83122  20.956  34.869   3.225
16340W        W83123   8.830  12.873   4.773
16341W        W83124   5.783  19.832   3.383
16342W        W83125   8.439  25.767   1.902
16343W        W83126  16.811  32.529   1.636
16344W        W83127  35.355  36.119   3.755
16345W        W83128  27.036  23.114  11.290
16346W        W83129  37.470  27.774   4.702
16347W        W83130  44.468  40.919   1.760
16348W        W83131  34.714   5.877   1.439
16349W        W83132   6.207  36.561  12.058
16350W        W83133   1.068  23.779   3.300
16351W        W83134  22.717   7.206  11.517
16352W        W83135  15.137  15.993   2.586
16353W        W83136  32.588   1.769  11.599
16354W        W83137  43.928  28.169  13.059
16355W        W83138   6.497   1.752  14.545
16356W        W83139  24.671  20.342   3.651
16357W        W83140  26.443  20.984   5.004
16358W        W83141  33.995  33.888  13.880
16359W        W83142  31.245  34.832  12.426
16360W        W83143  27.202   8.943   4.248
16361W        W83144  30.142  28.962  11.196
16362W        W83145  21.253  39.485  13.526
16363W        W83146   6.462  12.865   3.274
16364W        W83147  37.738  42.213  12.953
16365W        W83148  19.154  32.085   3.649
16366W        W83149  26.038   2.546   1.153
16367W        W83150   7.139  11.384  14.856
16368W        W83151   0.810  35.763  13.388
16369W        W83152  14.789   1.790  14.391
16370W        W83153   6.552  15.846  14.860
16371W        W83154   3.769  26.272  12.110
16372W        W83155  15.520  10.202  10.773
16373W        W83156  36.758   0.048  14.045
16374W        W83157   7.869  32.099  11.737
16375W        W83158   8.092   5.383  10.493
16376W        W83159  33.143  18.046  11.644
16377W        W83160  17.170  35.871   1.354
16378W        W83161  38.828   9.441   4.081
16379W        W83162  40.824  11.725  10.760
16380W        W83163  31.696  20.150  11.863
16381W        W83164  40.644  15.957   1.328
16382W        W83165  14.624  31.395  12.079
16383W        W83166  33.961   5.648  10.453
16384W        W83167   8.149   9.887   1.466
16385W        W83168  24.755  40.391   0.815
16386W        W83169  44.611   9.226   5.373
16387W        W83170  10.779   4.365  12.156
16388W        W83171  37.378   8.401  10.485
16389W        W83172  16.321  15.838   1.540
16390W        W83173  16.838   9.851   0.382
16391W        W83174  25.043  23.042   0.489
16392W        W83175  17.175  40.479  12.030
16393W        W83176  33.020   0.237   0.920
16394W        W83177  36.665  42.487  10.894
16395W        W83178   6.693  18.131   4.082
16396W        W83179  41.546   3.335  11.264
16397W        W83180  42.842  30.577   1.308
16398W        W83181  27.147  27.584   2.647
16399W        W83182  33.925  42.738   3.245
16400W        W83183  17.230  32.618  12.577
16401W        W83184  21.280  42.577  10.554
16402W        W83185  31.330  11.067   3.194
16403W        W83186  18.993  29.202   1.856
16404W        W83187  21.688   1.776   2.307
16405W        W83188   4.527  43.431  12.888
16406W        W83189  13.392  22.665   0.272
16407W        W83190  35.786  28.454   3.293
16408W        W83191  21.904  24.451   9.997
16409W        W83192  29.692  33.034  10.929
16410W        W83193  12.358   8.201  13.467
16411W        W83194  44.674  20.070  10.845
16412W        W83195  43.793  29.118   2.700
16413W        W83196  21.717  25.084  14.484
16414W        W83197   2.693  33.364  14.408
16415W        W83198  43.977  26.787  12.126
16416W        W83199  17.312  35.848  13.505
16417W        W83200  10.187  10.836  10.344
16418W        W83201  43.267  30.126  13.199
16419W        W83202  30.049  36.967   0.521
16420W        W83203  37.569  25.182  12.420
16421W        W83204  13.546   4.881   2.364
16422W        W83205   4.361  41.561   0.338
16423W        W83206  21.858  42.582   1.295
16424W        W83207  34.561  25.974   3.683
16425W        W83208   8.159  19.270  13.301
16426W        W83209  38.226  34.613  12.232
16427W        W83210  15.885  33.818  13.272
16428W        W83211  35.158  40.099   1.442
16429W        W83212  41.107  30.276  14.595
16430W        W83213  25.453  34.617  12.887
16431W        W83214  36.558   5.699  11.241
16432W        W83215  17.609  16.112  13.968
16433W        W83216  30.656  43.532   1.159
16434W        W83217  19.560   3.651  11.671
16435W        W83218   5.861   7.378  14.262
16436W        W83219  14.264  10.232   0.303
16437W        W83220  25.205   6.719  12.846
16438W        W83221  18.142  34.052  14.314
16439W        W83222  28.238   9.114  13.302
16440W        W83223  35.014  41.624  12.583
16441W        W83224   2.924  44.202   0.759
16442W        W83225  40.032  44.927   0.881
16443W        W83226  26.512  13.889   1.535
16444W        W83227  36.823  43.387  13.056
16445W        W83228   2.941  25.604   2.416
16446W        W83229  15.254   4.230  14.403
16447W        W83230  12.576  17.237   1.484
16448W        W83231  43.300  36.576   0.508
16449W        W83232  30.966   3.690   3.768
16450W        W83233  20.967  43.679   2.757
16451W        W83234   1.835  42.249   3.933
16452W        W83235  30.548  32.494  13.441
16453W        W83236  17.039  40.222   5.005
16454W        W83237  33.483  29.732  12.561
16455W        W83238  15.485  25.565   0.022
16456W        W83239  38.071  42.913   0.849
16457W        W83240  24.553  16.167   3.441
16458W        W83241  18.505  17.658  11.087
16459W        W83242   0.854  33.924   4.283
16460W        W83243   0.480  41.310   2.290
16461W        W83244  14.109  44.688  14.385
16462W        W83245  20.820  15.889  14.366
16463W        W83246  40.080   7.413  10.938
16464W        W83247   6.231  33.573   1.666
16465W        W83248   1.262  28.102   3.716
16466W        W83249  30.651   8.944   4.064
16467W        W83250  38.866   1.615   3.589
16468W        W83251  19.152  26.664  11.240
16469W        W83252   5.358  30.207  14.066
16470W        W83253  21.839  31.802   4.837
16471W        W83254  14.285  19.580  12.430
16472W        W83255  40.540  30.521   0.365
16473W        W83256  19.322  31.201   3.283
16474W        W83257  19.794  25.322  11.517
16475W        W83258   2.469   5.420   3.322
16476W        W83259  38.896  36.140   0.496
16477W        W83260   4.258  14.576   3.583
16478W        W83261  40.584   1.539  11.168
16479W        W83262  11.440  17.037   0.434
16480W        W83263  26.849   7.863  11.110
16481W        W83264  30.369  21.561  11.922
16482W        W83265  30.728  40.552  13.517
16483W        W83266  12.063  41.701  12.433
16484W        W83267  15.178  25.290   2.708
16485W        W83268  41.879  34.632   4.596
16486W        W83269  42.882  26.821  14.993
16487W        W83270  26.625  29.946   3.099
16488W        W83271  39.783  44.320  14.785
16489W        W83272  43.824  35.407  12.380
16490W        W83273  44.480  21.388   4.330
16491W        W83274   6.765  32.764   0.696
16492W        W83275  35.150  28.129   1.907
16493W        W83276  12.423  11.794   0.455
16494W        W83277  43.011  40.843  12.470
16495W        W83278  12.095  16.600  11.122
16496W        W83279  40.572   9.352  14.986
16497W        W83280   9.999  11.662   2.764
16498W        W83281  12.386  22.683   1.210
16499W        W83282   0.476  21.624  12.058
16500W        W83283  26.606   3.407   5.016
16501W        W83284  25.765   9.954   4.566
16502W        W83285  20.521  39.012  11.815
16503W        W83286  17.371  18.252   3.683
16504W        W83287  18.232  12.876  12.083
16505W        W83288   5.830  33.910   3.658
16506W        W83289  40.142  32.173  12.522
16507W        W83290  42.979  13.300  12.872
16508W        W83291  29.117   1.021   3.686
16509W        W83292   5.568  20.763  12.923
16510W        W83293  25.746   7.724  12.966
16511W        W83294  42.448  37.581  14.812
16512W        W83295   4.452   7.074   0.709
16513W        W83296  15.814   8.809   1.651
16514W        W83297   4.176  19.846  12.605
16515W        W83298  43.816  20.054  12.935
16516W        W83299  44.228  22.013  11.429
16517W        W83300  23.179  44.809   1.749
16518W        W83301  26.074  16.936  12.446
16519W        W83302  16.338  34.358   0.665
16520W        W83303  22.773  25.571   5.579
16521W        W83304  28.194  10.366  12.419
16522W        W83305   7.952  28.524   4.129
16523W        W83306  38.758  15.169   4.968
16524W        W83307  33.406  22.454  10.771
16525W        W83308   6.886  34.384   1.350
16526W        W83309   8.301  24.905   0.036
16527W        W83310  28.962  37.223  12.516
16528W        W83311  39.233  26.147   1.568
16529W        W83312  23.834   3.232  13.749
16530W        W83313  29.640   0.216   2.625
16531W        W83314  34.297   3.913   2.723
16532W        W83315  23.650  19.726   0.321
16533W        W83316  37.466  23.668  10.633
16534W        W83317  41.729  33.589   4.694
16535W        W83318  15.585  21.190   4.716
16536W        W83319  14.784   3.236   3.809
16537W        W83320   4.294   3.700   4.282
16538W        W83321  15.549  17.430  11.532
16539W        W83322  43.354  19.644  12.126
16540W        W83323  43.953   5.745   1.802
16541W        W83324  18.348  41.632   0.513
16542W        W83325  21.725  38.370   4.463
16543W        W83326  12.762   5.823  12.916
16544W        W83327  28.112  23.233   1.723
16545W        W83328   4.399  43.427   1.697
16546W        W83329  30.074   6.253   3.121
16547W        W83330   1.121  25.517  11.172
16548W        W83331  40.032  16.846   4.220
16549W        W83332  19.679  28.813   3.667
16550W        W83333  32.482   0.762   4.514
16551W        W83334   0.432  36.799  10.626
16552W        W83335  19.890   4.878   3.571
16553W        W83336  40.313   0.599  12.890
16554W        W83337  39.722  33.028  10.744
16555W        W83338  23.701  25.524   1.786
16556W        W83339  15.285  41.840   4.080
16557W        W83340  30.616  38.312  10.791
16558W        W83341  39.765  13.739  13.491
16559W        W83342  19.632  12.005  11.136
16560W        W83343  37.422   9.460  11.161
16561W        W83344  21.718   1.908   4.583
16562W        W83345   8.924  23.991   4.185
16563W        W83346  43.940  13.806   0.544
16564W        W83347   3.663  25.034   0.312
16565W        W83348  41.343  16.031  14.760
16566W        W83349  41.457   6.483   1.864
16567W        W83350  16.250   9.247   3.673
16568W        W83351  36.616  43.971   2.879
16569W        W83352  18.368   7.598  10.473
16570W        W83353   3.802  12.403  12.139
16571W        W83354  13.909  39.222  10.632
16572W        W83355  17.213  40.006   1.904
16573W        W83356   3.789   9.209  11.505
16574W        W83357  20.776   3.980   0.977
16575W        W83358  14.319  39.771   2.733
16576W        W83359  31.011  33.487   2.712
16577W        W83360  29.794  27.663   2.884
16578W        W83361  14.817  37.969   4.176
16579W        W83362  32.538  20.962   0.277
16580W        W83363  24.559  24.086   2.011
16581W        W83364  12.847  25.743   1.310
16582W        W83365  37.112  24.501  12.159
16583W        W83366  39.224  24.116  11.220
16584W        W83367   3.908  18.572   3.903
16585W        W83368   9.351  21.674  10.728
16586W        W83369  14.518  20.149  13.100
16587W        W83370  29.595  23.583  12.980
16588W        W83371   5.929  42.890   1.397
16589W        W83372   7.710  25.999   1.492
16590W        W83373  19.252  18.690   4.849
16591W        W83374  40.534   2.850  14.795
16592W        W83375  33.630  17.658   0.449
16593W        W83376  44.537  25.843   1.222
16594W        W83377   2.874   8.843  13.083
16595W        W83378   2.726  30.737  13.366
16596W        W83379  11.811   9.454  14.363
16597W        W83380  32.045  22.531  11.435
16598W        W83381   2.901  36.995   0.805
16599W        W83382  13.805   0.758   2.083
16600W        W83383  16.639   6.266  11.906
16601W        W83384   4.406  15.107   3.634
16602W        W83385   7.436  12.011  11.162
16603W        W83386  21.041   6.358   3.974
16604W        W83387  21.767  41.312  11.568
16605W        W83388  18.094   3.244   3.577
16606W        W83389   1.364  38.062   1.306
16607W        W83390   7.984   3.476  13.751
16608W        W83391   8.689  37.306  12.080
16609W        W83392  22.623  43.817   1.879
16610W        W83393  34.821   7.391   2.323
16611W        W83394  43.756  27.212   2.544
16612W        W83395  43.789  35.599  13.393
16613W        W83396  31.565   7.785   4.392
16614W        W83397  43.536  35.056  10.377
16615W        W83398  21.756  27.464   3.280
16616W        W83399  34.077  41.994   3.679
16617W        W83400  30.975  19.492   3.680
16618W        W83401  27.508  10.685   4.960
16619W        W83402  41.887  30.702   3.224
16620W        W83403  10.743  41.274  11.576
16621W        W83404   9.859  33.889  11.972
16622W        W83405   7.710  26.702  12.767
16623W        W83406   3.305   9.821   0.464
16624W        W83407  30.763  30.508   2.202
16625W        W83408   3.380  19.382  14.223
16626W        W83409  27.566  23.978   4.615
16627W        W83410  25.101  24.634   1.705
16628W        W83411  15.297   7.853   0.321
16629W        W83412  10.788  32.575   0.227
16630W        W83413  44.903   1.041   4.484
16631W        W83414  29.948   3.197   4.181
16632W        W83415  26.697  23.992  10.236
16633W        W83416  19.099  39.305  14.941
16634W        W83417  35.489   3.272   3.752
16635W        W83418  24.192  19.845  13.168
16636W        W83419  37.823  42.349   4.569
16637W        W83420  39.173   7.691   4.177
16638W        W83421  20.684   0.860   9.919
16639W        W83422  33.434  27.989  13.251
16640W        W83423  43.341  14.089  12.513
16641W        W83424  14.812  11.238  14.025
16642W        W83425  36.618  31.377   3.339
16643W        W83426  36.929   8.919   3.766
16644W        W83427  31.227  44.535  11.609
16645W        W83428  18.652  26.659   4.233
16646W        W83429  40.528  13.706   1.414
16647W        W83430  34.173  24.241   1.351
16648W        W83431   0.198  13.980  12.350
16649W        W83432  27.505  37.997  12.061
16650W        W83433  14.433  12.954  11.084
16651W        W83434  35.000  34.203   2.666
16652W        W83435  19.524  40.133   3.010
16653W        W83436  26.122  29.220  13.852
16654W        W83437   0.732  24.533   0.977
16655W        W83438  11.207   3.151   1.814
16656W        W83439  18.805  39.806   0.485
16657W        W83440  39.915  44.785   0.029
16658W        W83441  20.142  38.286   2.774
16659W        W83442  20.694  34.062   3.591
16660W        W83443  41.561  30.592  14.519
16661W        W83444  25.955  21.076   4.886
16662W        W83445   8.663  39.715   0.736
16663W        W83446  20.279  15.626  12.805
16664W        W83447   1.796  25.221   4.196
16665W        W83448  28.717  39.888  10.176
16666W        W83449  16.067  25.784   3.409
16667W        W83450   6.209  29.893  13.967
16668W        W83451  39.077   2.366  14.984
16669W        W83452  44.643  14.531  11.180
16670W        W83453  40.122  40.746   0.895
16671W        W83454   9.742   7.660  13.961
16672W        W83455  24.396  38.601  11.621
16673W        W83456  44.885  41.748  14.590
16674W        W83457  37.050  20.531   0.228
16675W        W83458   4.784  25.024  13.671
16676W        W83459  26.109  38.070   2.348
16677W        W83460  25.116  30.415  12.544
16678W        W83461  18.457  27.083   3.365
16679W        W83462  22.119  27.743  14.104
16680W        W83463  38.585  10.429   0.637
16681W        W83464   3.716  12.826  12.545
16682W        W83465   5.060  32.792  12.072
16683W        W83466  21.829  14.353  13.516
16684W        W83467  30.917  22.693  12.982
16685W        W83468  27.970  29.432  12.490
16686W        W83469  24.064  43.886   0.256
16687W        W83470  22.752  24.165  11.722
16688W        W83471  42.487  21.506  11.498
16689W        W83472   0.181  30.561   4.431
16690W        W83473  37.257  35.488  11.857
16691W        W83474  11.690   9.146   4.087
16692W        W83475   4.073  38.305  11.662
16693W        W83476   0.722  24.339  11.941
16694W        W83477  16.841  10.893   1.806
16695W        W83478  22.745   0.728   4.985
16696W        W83479   2.318  15.282   4.576
16697W        W83480  34.919   3.161  13.388
16698W        W83481   2.435   3.464   4.266
16699W        W83482  21.587  11.446  12.094
16700W        W83483  14.431  19.301  14.997
16701W        W83484  16.260   0.214  11.299
16702W        W83485   9.392  33.537  12.812
16703W        W83486  36.929  22.528   3.506
16704W        W83487  11.591  22.280   4.592
16705W        W83488  36.961  29.462  12.456
16706W        W83489  34.805  15.195   3.571
16707W        W83490  32.221   4.440   1.082
16708W        W83491  30.151  26.760   1.710
16709W        W83492  27.331  43.380   2.941
16710W        W83493  41.901  32.610  12.738
16711W        W83494  13.656  30.569   2.605
16712W        W83495  18.196  16.168  12.508
16713W        W83496   4.310  13.834   1.843
16714W        W83497  30.453   8.380  14.624
16715W        W83498  42.885  44.833   0.866
16716W        W83499  12.875  28.978   4.220
16717W        W83500  24.301   3.891  10.668
16718W        W83501  21.575  35.262   1.379
16719W        W83502  10.899   9.827   9.986
16720W        W83503  40.767  31.233  14.602
16721W        W83504  29.668  40.881  13.426
16722W        W83505  44.782  42.263  14.867
16723W        W83506  16.566   7.649  11.711
16724W        W83507  27.213  23.027  12.255
16725W        W83508  26.561  23.605  14.852
16726W        W83509  37.711  12.777  13.473
16727W        W83510  19.585  42.486  12.932
16728W        W83511  36.169  24.660  11.326
16729W        W83512  40.454  13.011  11.558
16730W        W83513   1.177  35.373  12.491
16731W        W83514   3.950   7.332   3.269
16732W        W83515  15.606  29.712  14.828
16733W        W83516  43.747  16.469   0.803
16734W        W83517   5.782  43.993  13.966
16735W        W83518  28.920  33.637  12.059
16736W        W83519  26.398  29.877  11.621
16737W        W83520  23.198  29.217  11.605
16738W        W83521   0.934  21.092   2.909
16739W        W83522  31.516  38.840   0.449
16740W        W83523  44.276  41.022  10.969
16741W        W83524  44.812  30.530  14.144
16742W        W83525  29.914  18.175  12.205
16743W        W83526  42.911  34.164   2.565
16744W        W83527  25.224   6.697  13.359
16745W        W83528  18.518   5.785   4.207
16746W        W83529   7.424  44.460  12.236
16747W        W83530   2.865  33.884   4.382
16748W        W83531  32.812  42.150  13.642
16749W        W83532   0.821  31.549  14.138
16750W        W83533  29.628   9.459   3.249
16751W        W83534  14.258  34.433   5.390
16752W        W83535  38.123  32.376  10.739
16753W        W83536  21.467  29.077   0.464
16754W        W83537   2.244  41.472  11.552
16755W        W83538  13.190  26.053  12.852
16756W        W83539  26.894  42.282   0.119
16757W        W83540  15.555  29.129   4.241
16758W        W83541  21.503  33.156   1.486
16759W        W83542  12.323   6.313  14.892
16760W        W83543   1.831  26.298  11.081
16761W        W83544  18.573  23.592   4.386
16762W        W83545  36.832  10.152   4.055
16763W        W83546  29.910   1.478   1.880
16764W        W83547   5.118  20.823  13.861
16765W        W83548  44.499  15.156  11.904
16766W        W83549  38.471  39.524  12.992
16767W        W83550   1.882  13.656   1.709
16768W        W83551  21.721  27.445   1.909
16769W        W83552  28.656  38.942  13.997
16770W        W83553  31.517  10.237   3.162
16771W        W83554  24.688   7.664  14.116
16772W        W83555  14.267  10.340  10.943
16773W        W83556  30.062  29.015  12.210
16774W        W83557  39.019  21.606   3.633
16775W        W83558  34.564  32.075   3.226
16776W        W83559  22.178  20.248  13.519
16777W        W83560  29.657   1.931   1.801
16778W        W83561   4.233  11.017  12.845
16779W        W83562  21.411  14.779  14.568
16780W        W83563  23.740  15.802  12.385
16781W        W83564   3.676   0.318   4.014
16782W        W83565  10.662  44.214   3.876
16783W        W83566  31.571  23.440   4.168
16784W        W83567  26.606   1.262  14.765
16785W        W83568  13.088  17.852  13.034
16786W        W83569  26.812   4.461  11.471
16787W        W83570   8.700   3.037   0.169
16788W        W83571   5.887   9.010  12.478
16789W        W83572  28.979  12.004  11.300
16790W        W83573  37.375  23.241   2.371
16791W        W83574  13.675  14.676  12.383
16792W        W83575  34.535  42.497   4.283
16793W        W83576  22.761   9.581   3.305
16794W        W83577  29.360  31.140   2.611
16795W        W83578  18.302  23.980  12.214
16796W        W83579  25.986  29.972   3.687
16797W        W83580  42.322  23.445   0.802
16798W        W83581  18.559  26.666  14.391
16799W        W83582  10.338  28.615   2.254
16800W        W83583   2.957  28.023  11.515
16801W        W83584  39.302   9.285   2.765
16802W        W83585  43.562  31.677   3.117
16803W        W83586  22.697  27.700  11.337
16804W        W83587  12.114  27.901  11.233
16805W        W83588  27.425  44.733  14.493
16806W        W83589  15.581  26.464   0.830
16807W        W83590   0.338  31.306   1.401
16808W        W83591  16.549  27.667  12.954
16809W        W83592  12.843  21.030   3.917
16810W        W83593   5.279  12.612  13.432
16811W        W83594   1.544   9.752  10.598
16812W        W83595  36.391  41.707  11.306
16813W        W83596  14.859  20.713   4.859
16814W        W83597  43.393   4.330  12.832
16815W        W83598   4.308  21.299  14.819
16816W        W83599  33.454  33.899   4.539
16817W        W83600  26.358  27.985  13.758
16818W        W83601  21.877   2.726   1.066
16819W        W83602   2.827  27.918   4.365
16820W        W83603  14.400  39.047  10.736
16821W        W83604  27.923   3.346   3.609
16822W        W83605  11.352  22.569   2.156
16823W        W83606   5.551   8.388   0.807
16824W        W83607  10.824  23.546  11.044
16825W        W83608  42.950   6.977   2.884
16826W        W83609  36.093  22.125  12.191
16827W        W83610  18.108  21.827  11.084
16828W        W83611   0.940  30.431  10.392
16829W        W83612  43.849   1.527  10.723
16830W        W83613  24.038   3.889   2.832
16831W        W83614   7.427   5.498   4.050
16832W        W83615   8.006  25.002   3.215
16833W        W83616  44.493  41.498  13.493
16834W        W83617  11.472  31.630   0.753
16835W        W83618  11.230  17.180   3.616
16836W        W83619  18.683  36.889  11.215
16837W        W83620   0.347  14.409  10.724
16838W        W83621  40.507  42.775  14.963
16839W        W83622   0.926  37.410  12.010
16840W        W83623  38.929  41.992   0.998
16841W        W83624  13.576  28.151   2.741
16842W        W83625  24.960  41.004   1.741
16843W        W83626  25.160  27.102   2.188
16844W        W83627  28.698  38.380  10.478
16845W        W83628  14.072  19.569   4.525
16846W        W83629  18.143  33.922  12.894
16847W        W83630  33.635  32.585   4.075
16848W        W83631   3.967  38.800   2.853
16849W        W83632  30.170  25.643   2.299
16850W        W83633  22.156   1.499   4.012
16851W        W83634  15.846  15.358  13.983
16852W        W83635   3.354  31.362   4.292
16853W        W83636   8.320  22.521   2.304
16854W        W83637  13.741  29.510  13.997
16855W        W83638  13.819  41.774   3.354
16856W        W83639  20.608  37.974  14.937
16857W        W83640  33.860  13.957   2.355
16858W        W83641  36.619  40.000  14.827
16859W        W83642  15.383   5.387   1.358
16860W        W83643  32.908  44.684   0.060
16861W        W83644   3.811  18.335  13.375
16862W        W83645  40.472  37.541  12.020
16863W        W83646  11.722   9.228  14.859
16864W        W83647  33.072  33.574  10.759
16865W        W83648  18.420  26.436   2.926
16866W        W83649  32.611  27.077  12.531
16867W        W83650  22.590  27.484   3.714
16868W        W83651  34.630   3.445   0.332
16869W        W83652  43.559   0.997  12.521
16870W        W83653  16.674   8.709  12.547
16871W        W83654  21.720  41.227   1.449
16872W        W83655  42.494  36.015  13.430
16873W        W83656  13.878   2.876   3.917
16874W        W83657  22.848  39.999  13.855
16875W        W83658   8.756  15.707  11.577
16876W        W83659  18.630  12.187   3.249
16877W        W83660  17.748   0.112   0.395
16878W        W83661  18.200  40.009  11.191
16879W        W83662  23.691  31.699   1.370
16880W        W83663  21.692   3.670   2.733
16881W        W83664  16.610  20.287  12.796
16882W        W83665  37.048  27.194   4.141
16883W        W83666  29.710  41.925   1.961
16884W        W83667  29.698  43.826  14.297
16885W        W83668  44.211  38.495   3.650
16886W        W83669   3.686  18.086   3.700
16887W        W83670  31.289  10.107  10.221
16888W        W83671  39.641  44.771  12.979
16889W        W83672  19.905  22.681   9.677
16890W        W83673  21.356  33.393   4.110
16891W        W83674  13.777  14.215   3.182
16892W        W83675  18.666  21.250  13.841
16893W        W83676  33.554   9.725   1.738
16894W        W83677   0.948  12.799   1.335
16895W        W83678  19.162  22.582   0.678
16896W        W83679  16.565  32.152   1.851
16897W        W83680   5.909  23.244  12.587
16898W        W83681  20.941  18.256   3.339
16899W        W83682  11.792  41.622   1.901
16900W        W83683   8.266   3.227   2.329
16901W        W83684   6.660   2.478   1.247
16902W        W83685  37.919   9.471   0.409
16903W        W83686  40.688  12.077  12.920
16904W        W83687  12.173  37.073  13.277
16905W        W83688  17.309  21.740   1.530
16906W        W83689   7.005  30.103  10.978
16907W        W83690  39.797  24.239   0.302
16908W        W83691   0.447  25.600   3.277
16909W        W83692   6.721   3.169   2.760
16910W        W83693  20.625  29.683  14.108
16911W        W83694  18.948  40.982   1.766
16912W        W83695  27.508   7.785  14.016
16913W        W83696  13.580  34.382   4.200
16914W        W83697  43.017   3.815   0.751
16915W        W83698  39.955  43.425   4.676
16916W        W83699  38.860  22.727  11.102
16917W        W83700  43.476  19.047   1.332
16918W        W83701  12.275  42.384  14.189
16919W        W83702  34.535  16.305  12.103
16920W        W83703  34.399  23.789   1.325
16921W        W83704  23.613   9.796  11.477
16922W        W83705   9.176   3.663   1.389
16923W        W83706   5.228  14.267  11.950
16924W        W83707   2.936  25.652   2.926
16925W        W83708  31.884  35.121   3.024
16926W        W83709  23.030  18.683   4.813
16927W        W83710   1.748  42.527   0.277
16928W        W83711  14.155  27.475   2.390
16929W        W83712  30.703  11.666  10.804
16930W        W83713  14.209  35.650  14.940
16931W        W83714  38.950  26.871   1.790
16932W        W83715  29.891  12.677  14.831
16933W        W83716   1.553  33.301  12.462
16934W        W83717  35.405   0.329   2.068
16935W        W83718  18.456  30.865   4.557
16936W        W83719  18.731  31.782   2.259
16937W        W83720  43.179   0.780   0.334
16938W        W83721  10.526  11.779  13.844
16939W        W83722   9.836  13.735  12.082
16940W        W83723  25.739  43.048   0.463
16941W        W83724  25.118  30.724  13.000
16942W        W83725  35.142   8.235   4.422
16943W        W83726  27.113   8.712  13.978
16944W        W83727   8.420  26.491  14.255
16945W        W83728  39.372  22.927  14.807
16946W        W83729  15.116  29.626   0.820
16947W        W83730  41.250   1.892  14.800
16948W        W83731  18.114  39.288   3.317
16949W        W83732  16.292  39.843  13.102
16950W        W83733  11.445  21.091   3.167
16951W        W83734  27.545  20.488   1.471
16952W        W83735  44.425  36.327   0.298
16953W        W83736  26.189  42.203  13.005
16954W        W83737  37.327  22.871  10.925
16955W        W83738  27.134  26.491   1.951
16956W        W83739  20.202  27.712  12.952
16957W        W83740  43.232  30.930  12.580
16958W        W83741  24.417  11.767   3.216
16959W        W83742  11.319  38.516  11.502
16960W        W83743  11.642   8.180   3.996
16961W        W83744  42.306  30.253  12.924
16962W        W83745  30.403  14.698  13.685
16963W        W83746   5.304  30.949   2.208
16964W        W83747  21.467  14.832   0.453
16965W        W83748  31.638  22.321   0.779
16966W        W83749   3.823  26.049  13.642
16967W        W83750  27.871  25.711  10.961
16968W        W83751  25.743  11.302  12.936
16969W        W83752  31.359  21.441  10.208
16970W        W83753  14.411   2.111  11.093
16971W        W83754  32.052  38.649   0.424
16972W        W83755   1.548  40.017   4.129
16973W        W83756  40.534  32.332  12.033
16974W        W83757  31.968  44.749  11.113
16975W        W83758  35.645  30.908  11.237
16976W        W83759  37.773  10.815  10.759
16977W        W83760  30.629  33.375   5.277
16978W        W83761  20.548  37.250   1.434
16979W        W83762  19.012  30.072  10.426
16980W        W83763  28.095  44.289  12.668
16981W        W83764  14.108  15.113   2.315
16982W        W83765  11.813   1.743   4.859
16983W        W83766   1.036  22.073   2.696
16984W        W83767   5.616  20.086   0.419
16985W        W83768  43.375  33.771  13.556
16986W        W83769  44.325   8.194   2.688
16987W        W83770  24.492  13.217  14.963
16988W        W83771  43.796  23.859  12.543
16989W        W83772   0.496  12.282   2.753
16990W        W83773  31.219  14.353  11.258
16991W        W83774  42.261  29.604   0.419
16992W        W83775  17.716  39.940  10.931
16993W        W83776  17.523  34.816   2.137
16994W        W83777  21.100  31.052   0.240
16995W        W83778  25.227   5.467  10.179
16996W        W83779  40.776  32.474   3.269
16997W        W83780  32.736   4.205   2.782
16998W        W83781   7.147  19.622  11.984
16999W        W83782  25.125   2.526  13.941
17000W        W83783  26.455  24.959  14.816
17001W        W83784  38.420   5.319  12.348
17002W        W83785  36.056  21.415  14.979
17003W        W83786  44.267  21.581  14.959
17004W        W83787  21.597   7.329   3.588
17005W        W83788   7.434  41.973  11.170
17006W        W83789  36.213  24.646  13.022
17007W        W83790   3.282  31.424  10.507
17008W        W83791  36.998  11.201   1.892
17009W        W83792   4.456   1.795  12.462
17010W        W83793   9.604  15.633   2.820
17011W        W83794   8.270   0.578   3.340
17012W        W83795  38.012  15.859   5.146
17013W        W83796  40.723  40.026   2.681
17014W        W83797  11.056  17.704  14.817
17015W        W83798  37.817  26.104  13.482
17016W        W83799   2.211  23.059  12.625
17017W        W83800  28.711  18.328   2.689
17018W        W83801  25.407  35.623  14.820
17019W        W83802  24.922   0.195  10.929
17020W        W83803  37.509  43.981   3.324
17021W        W83804   6.862  25.408  12.805
17022W        W83805  32.993  11.333   1.273
17023W        W83806  24.550   3.004   2.717
17024W        W83807  38.195  19.652   0.924
17025W        W83808  23.215  37.813   0.580
17026W        W83809   0.442  20.306  12.221
17027W        W83810  21.410  26.703  12.877
17028W        W83811  14.259  10.719   1.342
17029W        W83812  28.659  25.400  11.931
17030W        W83813  41.717  14.114   3.940
17031W        W83814  11.864  35.628  12.882
17032W        W83815  39.453   3.951  10.718
17033W        W83816  31.056  12.854   0.317
17034W        W83817  20.799  35.658  13.529
17035W        W83818  43.852  21.278  11.590
17036W        W83819  33.695  20.651  12.897
17037W        W83820  35.488  27.289  13.210
17038W        W83821   9.433  33.819  14.935
17039W        W83822  12.117  34.060  13.875
17040W        W83823   5.108   1.220  12.090
17041W        W83824  20.596  19.903  14.508
17042W        W83825  20.091   9.121   3.512
17043W        W83826  42.394  29.122   3.614
17044W        W83827  12.848  17.679   1.233
17045W        W83828  41.011  28.963   1.292
17046W        W83829  26.391  17.406   4.042
17047W        W83830  41.065   9.658  10.864
17048W        W83831  30.377  32.520   0.339
17049W        W83832  27.112  39.684  12.551
17050W        W83833  27.667  17.281   3.735
17051W        W83834   7.155  22.092   0.357
17052W        W83835  21.139  17.608   1.314
17053W        W83836  19.713   9.259   0.328
17054W        W83837  19.622  23.604   0.832
17055W        W83838  11.280  31.638  12.886
17056W        W83839  19.830  10.775   2.748
17057W        W83840   7.381  42.327   2.200
17058W        W83841  15.164  29.130   2.218
17059W        W83842  19.316  39.303  13.098
17060W        W83843   6.776  23.662  13.050
17061W        W83844  21.688  25.893   3.649
17062W        W83845   3.926  32.890   0.048
17063W        W83846  14.731  31.992   0.656
17064W        W83847  36.928  28.609  13.503
17065W        W83848  16.585  28.629   2.820
17066W        W83849  14.588  18.666  11.981
17067W        W83850  19.685  27.487  13.349
17068W        W83851  24.599  44.739  14.415
17069W        W83852  25.241  11.337  10.797
17070W        W83853  25.658  16.246   0.460
17071W        W83854  41.503  44.224   0.393
17072W        W83855  31.651   8.274  14.962
17073W        W83856   3.647  39.922  12.965
17074W        W83857  29.019  13.647  10.951
17075W        W83858  30.173  38.585  10.871
17076W        W83859  18.078  38.381   0.764
17077W        W83860  17.702   2.708  11.155
17078W        W83861  25.092  23.666   4.615
17079W        W83862  40.699   4.247   3.851
17080W        W83863  14.754  28.106  11.640
17081W        W83864  31.058  18.289   1.748
17082W        W83865  21.380  37.474  12.014
17083W        W83866   0.902  28.712  11.524
17084W        W83867  44.901  33.890   2.200
17085W        W83868   1.019  33.017   4.667
17086W        W83869  44.576  34.594  14.931
17087W        W83870   7.246   0.482  14.395
17088W        W83871  21.441  10.363   2.257
17089W        W83872  11.400  39.425   1.669
17090W        W83873  30.883   7.197  12.990
17091W        W83874  40.109  26.697  14.002
17092W        W83875  15.934   9.075  13.303
17093W        W83876  12.771  43.755  11.951
17094W        W83877  28.054  34.046   3.911
17095W        W83878  17.096  26.483  11.941
17096W        W83879   6.189  41.949   4.086
17097W        W83880   1.531  31.174  11.625
17098W        W83881  23.365  26.537   1.660
17099W        W83882  40.579  28.531  14.147
17100W        W83883  41.839  40.930   2.793
17101W        W83884  20.051  23.008   2.629
17102W        W83885   9.950  40.445  11.141
17103W        W83886  35.776  16.341  13.044
17104W        W83887  15.340  26.648   1.293
17105W        W83888  23.116  31.727   4.579
17106W        W83889  43.111   0.739  12.468
17107W        W83890   4.883  21.038   1.815
17108W        W83891  25.074  12.178  10.671
17109W        W83892  34.994  31.528  11.258
17110W        W83893  44.280  20.548  13.344
17111W        W83894  25.682  35.918  10.317
17112W        W83895  36.123  14.596   3.488
17113W        W83896  17.314  33.485   0.260
17114W        W83897  29.975  44.838  11.273
17115W        W83898  35.266  38.516  12.634
17116W        W83899  17.748  35.843   0.226
17117W        W83900  38.772  39.555  13.835
17118W        W83901  25.604  13.100   2.360
17119W        W83902  10.595  24.609   0.820
17120W        W83903   5.410  29.208  12.537
17121W        W83904  40.303   9.373   2.693
17122W        W83905  13.888  29.677   0.345
17123W        W83906  10.293  10.778   2.047
17124W        W83907   8.199  43.235   0.476
17125W        W83908  37.044  21.462   3.834
17126W        W83909   4.902  16.080  13.327
17127W        W83910  21.116  38.416  11.887
17128W        W83911  13.712  43.697   3.227
17129W        W83912   7.567  35.362   1.022
17130W        W83913  13.378  43.392  14.892
17131W        W83914   6.742   3.876  13.057
17132W        W83915  44.312  38.009   4.559
17133W        W83916  43.332   7.241   2.674
17134W        W83917  18.177   3.307   4.481
17135W        W83918  28.267  40.965   2.758
17136W        W83919  18.626  34.326   0.159
17137W        W83920  12.164  43.523  10.560
17138W        W83921  10.760  39.873   0.843
17139W        W83922  22.605   3.212  12.022
17140W        W83923  44.103  21.003   0.361
17141W        W83924  28.169  18.477   3.237
17142W        W83925  24.709   1.670  10.335
17143W        W83926  17.772   3.243   0.440
17144W        W83927  18.726   8.203   2.965
17145W        W83928   6.910  18.769  14.568
17146W        W83929  35.485  14.520   0.434
17147W        W83930  26.534  11.083   4.631
17148W        W83931  38.728  12.087   2.326
17149W        W83932  24.502  43.408   4.245
17150W        W83933  21.985  16.204  10.284
17151W        W83934   5.903  13.272   1.988
17152W        W83935  35.904  34.565   2.727
17153W        W83936  10.661  13.595  14.944
17154W        W83937  19.167  38.242  14.752
17155W        W83938  11.681  29.916   0.024
17156W        W83939  42.750  20.713  10.741
17157W        W83940  32.832   8.794   2.226
17158W        W83941  36.379  10.645   0.886
17159W        W83942   8.391   7.056  12.682
17160W        W83943  31.006  11.937  14.062
17161W        W83944  30.588  23.033  12.084
17162W        W83945  28.568   8.142   3.755
17163W        W83946  33.082  27.005   1.345
17164W        W83947  36.117  44.083   2.074
17165W        W83948  15.776   2.267  14.381
17166W        W83949   0.765   4.227   2.844
17167W        W83950  41.459  41.864   2.416
17168W        W83951  30.917  29.762  13.022
17169W        W83952   0.149   7.423   3.648
17170W        W83953  36.844  30.339   4.488
17171W        W83954  12.805  20.016  13.351
17172W        W83955  35.562  38.502  10.783
17173W        W83956  26.459  29.219  10.695
17174W        W83957  16.698   9.616   4.119
17175W        W83958  36.066  16.615   2.709
17176W        W83959   4.724  42.253  13.958
17177W        W83960  43.349  41.016   2.348
17178W        W83961   2.281   0.795   0.355
17179W        W83962  39.992   3.520   3.202
17180W        W83963   8.339  16.311   1.338
17181W        W83964  29.553   9.789   1.422
17182W        W83965  27.916  22.767   2.646
17183W        W83966  10.338   3.003  13.304
17184W        W83967  36.657  37.936  13.772
17185W        W83968  37.988   8.751   1.406
17186W        W83969  34.741   0.391   4.666
17187W        W83970  33.394   4.930  13.812
17188W        W83971   7.593   1.261   0.793
17189W        W83972  44.347  33.091  10.612
17190W        W83973  44.813  26.641  10.908
17191W        W83974  25.128   1.237   2.829
17192W        W83975   2.083   2.818   0.416
17193W        W83976   8.768  19.119  11.051
17194W        W83977  22.237  16.016   3.254
17195W        W83978  13.741  33.821  12.644
17196W        W83979  22.131  23.021   4.104
17197W        W83980  44.339  25.954  14.262
17198W        W83981  35.060  38.538  13.329
17199W        W83982  24.889   5.358  13.149
17200W        W83983   1.195  19.907  13.521
17201W        W83984  40.545  36.193  10.825
17202W        W83985   8.788   7.149  11.369
17203W        W83986  12.044  40.368   2.886
17204W        W83987  29.580  41.555   3.103
17205W        W83988  41.170   0.565   2.813
17206W        W83989  27.687   0.178  14.592
17207W        W83990   8.410  13.795   1.108
17208W        W83991  24.130  27.158   1.318
17209W        W83992  40.441  22.208  10.706
17210W        W83993  12.669   1.980  13.886
17211W        W83994   8.328   7.720   0.036
17212W        W83995   8.080  24.268   0.947
17213W        W83996   9.700  10.731   2.743
17214W        W83997  20.573   8.714  10.667
17215W        W83998  19.543  28.146  14.549
17216W        W83999  35.554  30.399   4.150
17217W        W84000  24.502   9.219  13.535
17218W        W84001  12.879  22.604  13.075
17219W        W84002  37.988  35.506   2.726
17220W        W84003  10.626  43.521  11.136
17221W        W84004  43.824  36.030   3.633
17222W        W84005  35.523  16.561   4.842
17223W        W84006  18.521  19.680   1.316
17224W        W84007  11.370  33.188   0.829
17225W        W84008  32.295   2.853  12.623
17226W        W84009  13.762  11.225  14.526
17227W        W84010   1.031  28.263   5.016
17228W        W84011   7.283   6.405  13.025
17229W        W84012  15.885  37.522   0.735
17230W        W84013  43.456  21.597   1.877
17231W        W84014   1.399  17.286   1.382
17232W        W84015  31.273  10.599   2.168
17233W        W84016  44.713  33.596   1.821
17234W        W84017  21.535   0.826   3.110
17235W        W84018   9.605   8.379   2.894
17236W        W84019  13.684  28.626  13.502
17237W        W84020  38.559  16.406   4.255
17238W        W84021  40.849  12.603   5.278
17239W        W84022   8.651   6.778   0.831
17240W        W84023  40.420  28.231   1.204
17241W        W84024   8.872  21.273  11.473
17242W        W84025   1.936  29.110  13.502
17243W        W84026  38.790  28.029   3.466
17244W        W84027  32.521   8.762  10.720
17245W        W84028  29.873   7.315  11.142
17246W        W84029  41.669  27.977   2.364
17247W        W84030  35.510  23.195   3.953
17248W        W84031  28.095  44.812  13.450
17249W        W84032  15.261  16.561  10.653
17250W        W84033  43.013  21.244   4.646
17251W        W84034  28.597  41.311  14.994
17252W        W84035  44.247  27.354  11.235
17253W        W84036   1.564  22.425   1.945
17254W        W84037  28.152  36.318   4.119
17255W        W84038  38.696  43.519   3.369
17256W        W84039  27.156  22.590   0.154
17257W        W84040  33.473  34.911  13.147
17258W        W84041  26.308  39.900  11.636
17259W        W84042  13.944  31.117  12.694
17260W        W84043  25.055  30.181   3.631
17261W        W84044   6.514   8.690   1.813
17262W        W84045  36.907  39.686   1.592
17263W        W84046  37.068  41.084  10.748
17264W        W84047  31.337   4.851  12.492
17265W        W84048  23.121   9.110  13.559
17266W        W84049   2.742  15.975  14.913
17267W        W84050   6.402  33.139  13.165
17268W        W84051  17.358  39.032  12.922
17269W        W84052   2.793  11.396  13.812
17270W        W84053  12.150   6.760  14.654
17271W        W84054  19.262  24.649  11.680
17272W        W84055  35.932  39.027  14.297
17273W        W84056   0.865  41.949  12.389
17274W        W84057   9.288  20.493  14.450
17275W        W84058  35.577  22.005   2.232
17276W        W84059  11.184  34.133  13.584
17277W        W84060  18.520   1.838   2.013
17278W        W84061  19.027   0.306   1.506
17279W        W84062   8.804   7.307   2.039
17280W        W84063  25.932  43.554  11.131
17281W        W84064  28.491   8.789   4.025
17282W        W84065  42.921  44.775   4.673
17283W        W84066  14.818   7.378  10.551
17284W        W84067  12.097  23.014  11.008
17285W        W84068  37.010  17.037   2.290
17286W        W84069  34.850  30.385   1.225
17287W        W84070   6.962  26.651  14.017
17288W        W84071   4.848  31.618   2.735
17289W        W84072  35.744   5.405  13.493
17290W        W84073   4.624  29.228  11.536
17291W        W84074   8.702  21.092   0.570
17292W        W84075  10.179  31.452  14.357
17293W        W84076  10.564  15.683   0.716
17294W        W84077  44.457   4.635   2.335
17295W        W84078   4.415  21.258   1.846
17296W        W84079  22.287  25.768  14.036
17297W        W84080  16.621  40.850   1.767
17298W        W84081   2.247  10.362  11.674
17299W        W84082  42.840  41.045   4.874
17300W        W84083   6.189   1.877  11.946
17301W        W84084   8.277   0.673   1.281
17302W        W84085  26.746  17.520   4.417
17303W        W84086  30.382   2.430  13.773
17304W        W84087  16.164  19.741   2.422
17305W        W84088  22.354  44.464   0.689
17306W        W84089  23.596  31.858   1.873
17307W        W84090  23.121  41.014  12.478
17308W        W84091   8.889  24.158  12.454
17309W        W84092   6.102  20.648  10.420
17310W        W84093   2.158  14.193  12.405
17311W        W84094  30.929   5.615   3.905
17312W        W84095  30.907  36.820  12.449
17313W        W84096   1.655  36.159  11.878
17314W        W84097  26.887  32.691  12.512
17315W        W84098   7.394  26.585  11.241
17316W        W84099  38.283  19.186  14.783
17317W        W84100  35.656  12.659  14.311
17318W        W84101  39.985   2.397   4.142
17319W        W84102   4.417  41.493  14.576
17320W        W84103  43.525  28.318   3.594
17321W        W84104  23.087  17.114   3.163
17322W        W84105  15.060  11.765  11.512
17323W        W84106  19.699  37.960   4.172
17324W        W84107  41.076  27.740   3.068
17325W        W84108  33.687  33.509  14.885
17326W        W84109  31.950  27.776   2.702
17327W        W84110  32.354  41.796  10.997
17328W        W84111  27.876  26.108   2.249
17329W        W84112  10.138   4.990   3.280
17330W        W84113  17.766  34.568   1.612
17331W        W84114  23.741   5.732  13.195
17332W        W84115   7.245  14.205   3.872
17333W        W84116  24.567  20.950   4.931
17334W        W84117  20.460  26.630   3.840
17335W        W84118   1.785   5.741  14.687
17336W        W84119  12.596  25.613  11.247
17337W        W84120   7.910  37.652   1.769
17338W        W84121  36.178  43.268  10.895
17339W        W84122  41.473   0.449  14.792
17340W        W84123  27.572   7.097  12.997
17341W        W84124  13.777  35.689  12.948
17342W        W84125  24.715  37.056  10.466
17343W        W84126   0.401  28.716  13.943
17344W        W84127  38.615  18.109   3.235
17345W        W84128  33.097  30.598   1.040
17346W        W84129  21.265  38.443  11.394
17347W        W84130  31.896  38.070   3.694
17348W        W84131  11.735  12.596   0.520
17349W        W84132   0.133  24.656  12.562
17350W        W84133  21.213  35.103   3.612
17351W        W84134   6.499  15.210   4.529
17352W        W84135  36.626  24.299  10.519
17353W        W84136  29.541  11.560   3.204
17354W        W84137  41.264  15.712  11.062
17355W        W84138  24.810   4.169  12.486
17356W        W84139  15.043  24.486  12.003
17357W        W84140  25.722  15.569   3.265
17358W        W84141  36.438   4.886  11.558
17359W        W84142  13.410   4.115  14.900
17360W        W84143  42.801   6.873   3.674
17361W        W84144   3.205  38.807  14.580
17362W        W84145   1.944  28.026  13.491
17363W        W84146  23.344   3.753   3.610
17364W        W84147  13.177  18.124  11.528
17365W        W84148  18.951  10.527  11.126
17366W        W84149  12.511   6.148   0.473
17367W        W84150  16.334  38.855  12.154
17368W        W84151   6.818  43.538   4.544
17369W        W84152   6.537  37.415  12.894
17370W        W84153   3.360  40.290  12.027
17371W        W84154  39.361  29.181   1.726
17372W        W84155  10.316  30.999   0.245
17373W        W84156  35.863  39.713  10.828
17374W        W84157  28.952  40.192   3.177
17375W        W84158  39.953  32.353   1.590
17376W        W84159   4.723   8.683   1.074
17377W        W84160  25.480   3.919   0.922
17378W        W84161   4.754  26.288  11.702
17379W        W84162   9.661  40.299   2.654
17380W        W84163  36.865   1.676   2.755
17381W        W84164  34.457  43.039   1.427
17382W        W84165  21.083  32.109   0.251
17383W        W84166  23.559  32.080  13.518
17384W        W84167  33.677   9.099  14.827
17385W        W84168  30.568  27.037   3.859
17386W        W84169  12.056   6.992   2.273
17387W        W84170  42.048  43.337  12.135
17388W        W84171   2.243  44.290  12.160
17389W        W84172   3.956  35.304   3.263
17390W        W84173  14.518  26.493  12.210
17391W        W84174  36.595  14.441   3.642
17392W        W84175  27.027  41.156  14.394
17393W        W84176  26.751  26.114   1.890
17394W        W84177  22.630  35.967   0.395
17395W        W84178  25.742   6.598   4.194
17396W        W84179  40.105  21.249   1.769
17397W        W84180  23.725  33.968  14.340
17398W        W84181   5.682  29.898  12.013
17399W        W84182  29.300  42.271  10.279
17400W        W84183  33.892   3.694   4.645
17401W        W84184  19.135   1.824   5.223
17402W        W84185   2.951  38.553  13.908
17403W        W84186   7.653  29.306  13.649
17404W        W84187  18.425   1.377   2.636
17405W        W84188  42.636  10.524   1.399
17406W        W84189  39.307  12.817   3.281
17407W        W84190  16.825  29.603  11.253
17408W        W84191  41.244  37.868   4.678
17409W        W84192  26.938  44.899  14.418
17410W        W84193  10.837  12.670   0.025
17411W        W84194  13.564  13.835  12.684
17412W        W84195  27.730  39.574   2.735
17413W        W84196  11.445  12.427  14.433
17414W        W84197  34.982  33.909  10.738
17415W        W84198  35.475  44.696  12.991
17416W        W84199  30.436   2.216  13.279
17417W        W84200  38.614  25.168   3.259
17418W        W84201  27.084  10.296   1.994
17419W        W84202  22.729  29.964  11.882
17420W        W84203  24.809  19.566   2.717
17421W        W84204  39.097  26.572  11.917
17422W        W84205  14.871  31.137   2.284
17423W        W84206  38.568   7.238   0.156
17424W        W84207  42.085  14.316   2.658
17425W        W84208  26.209  30.930   1.865
17426W        W84209  26.276  33.216   2.085
17427W        W84210   5.814  44.247  13.532
17428W        W84211   6.896  34.824  11.307
17429W        W84212  12.381  21.599  11.917
17430W        W84213  38.170  32.875   2.792
17431W        W84214   4.375  39.798  13.564
17432W        W84215   1.015   3.421   1.508
17433W        W84216  41.550  34.702  11.527
17434W        W84217  37.886  36.832   3.674
17435W        W84218   9.367   6.434  11.584
17436W        W84219  29.980   3.557  12.616
17437W        W84220  33.118  22.246  12.894
17438W        W84221  21.074  10.747  13.386
17439W        W84222   0.421  39.360  13.973
17440W        W84223  34.806  43.399  11.060
17441W        W84224  38.849   6.868   0.994
17442W        W84225  30.840  43.842   2.292
17443W        W84226  42.058  23.602  11.317
17444W        W84227  12.758  21.950  11.938
17445W        W84228  39.292  32.383  11.761
17446W        W84229   5.719  20.062  12.004
17447W        W84230  25.315  13.875   4.221
17448W        W84231  37.621   4.168  14.985
17449W        W84232   6.105   5.913  12.097
17450W        W84233  42.404  24.040  12.447
17451W        W84234  23.559  23.921  13.896
17452W        W84235  10.691  34.561  10.439
17453W        W84236  12.371  26.422   4.509
17454W        W84237  25.706  34.396   2.198
17455W        W84238  35.038  29.525  13.270
17456W        W84239   2.292  30.711   2.227
17457W        W84240  41.419   0.687   2.168
17458W        W84241  12.424  35.057   2.139
17459W        W84242  37.918  24.919   0.890
17460W        W84243  10.376  39.505   2.733
17461W        W84244  38.408  36.671   2.818
17462W        W84245  29.523  15.712  14.971
17463W        W84246  23.579  21.801  11.740
17464W        W84247  11.283   3.322   3.100
17465W        W84248  24.232  26.670   3.688
17466W        W84249  26.155   4.374   2.436
17467W        W84250  17.473  27.791   3.263
17468W        W84251  12.023  20.376  13.645
17469W        W84252  28.100  30.189  13.060
17470W        W84253  14.876  36.570   3.248
17471W        W84254  19.751   5.860  13.407
17472W        W84255  36.148  28.503   0.813
17473W        W84256  44.257  18.536  11.907
17474W        W84257  14.073  34.970   1.642
17475W        W84258  15.981  16.845   4.431
17476W        W84259  17.543  35.623  11.851
17477W        W84260  19.066  31.895   4.487
17478W        W84261  18.763  25.902  14.101
17479W        W84262  17.620  15.466   3.817
17480W        W84263  28.680  12.879   2.738
17481W        W84264  42.301  35.063  13.936
17482W        W84265  33.337  18.343  14.862
17483W        W84266   0.322  27.187   4.464
17484W        W84267  38.990  40.899  11.459
17485W        W84268  29.994  19.029  11.632
17486W        W84269  26.992  34.631  14.907
17487W        W84270  18.737  28.456   3.582
17488W        W84271  22.629   1.801  10.849
17489W        W84272  13.252  12.653  12.558
17490W        W84273  20.224   1.195  13.150
17491W        W84274  31.996  12.814  10.255
17492W        W84275  29.606  17.252   0.727
17493W        W84276  38.773   4.972   0.980
17494W        W84277  18.490  37.250  10.442
17495W        W84278  37.591  15.751  14.888
17496W        W84279  22.679   1.260  14.035
17497W        W84280  28.718  22.779  11.224
17498W        W84281  33.006   5.093  12.865
17499W        W84282  15.181  40.479  11.098
17500W        W84283   9.283  41.002   1.766
17501W        W84284  36.081  12.346  12.663
17502W        W84285  27.231  21.422  12.479
17503W        W84286  25.019  36.018  13.816
17504W        W84287  19.059  21.506   0.849
17505W        W84288  24.128  22.912  10.010
17506W        W84289  28.394  44.478  14.432
17507W        W84290  33.413  33.372  13.395
17508W        W84291  16.663  32.510  11.839
17509W        W84292  19.606   2.268  14.332
17510W        W84293  17.575  44.911  13.039
17511W        W84294  11.642  27.711  12.489
17512W        W84295  21.939  26.225  10.735
17513W        W84296  30.956  37.563  10.411
17514W        W84297  20.157  13.638  14.464
17515W        W84298   7.143  25.706   2.303
17516W        W84299  38.942  23.623   1.667
17517W        W84300  42.690  43.802   2.047
17518W        W84301   8.936  37.746   0.683
17519W        W84302   9.290  26.412   0.959
17520W        W84303  24.747   2.834  13.805
17521W        W84304  44.389  12.831   3.757
17522W        W84305  10.346  30.271  12.044
17523W        W84306  35.868  42.606   1.981
17524W        W84307   8.425  17.717   4.107
17525W        W84308  17.570   5.347  10.681
17526W        W84309  29.276  30.503   2.866
17527W        W84310   5.151  18.084  11.224
17528W        W84311  40.983  19.772   4.743
17529W        W84312  21.471  43.074  14.448
17530W        W84313  41.126  27.885   2.583
17531W        W84314  24.238  15.750   4.608
17532W        W84315  15.117  40.566   1.843
17533W        W84316   7.575  32.321  13.989
17534W        W84317  27.800   3.773  14.482
17535W        W84318   3.863  42.193   2.765
17536W        W84319   3.137  15.755   1.051
17537W        W84320  24.744  21.511   2.759
17538W        W84321   9.343  40.142  12.910
17539W        W84322  38.115   2.530   2.203
17540W        W84323  11.896  19.747  14.290
17541W        W84324  29.141  28.361  14.076
17542W        W84325  20.109  26.616  14.472
17543W        W84326   0.740   9.673  14.039
17544W        W84327  38.481  42.556  11.899
17545W        W84328  42.466  32.205  12.974
17546W        W84329  44.225  28.012  14.494
17547W        W84330  30.422  23.422   4.733
17548W        W84331  16.817  22.472   2.234
17549W        W84332  25.141  20.253   3.343
17550W        W84333  34.735  35.113   2.238
17551W        W84334  25.080  19.817   2.308
17552W        W84335  30.484  37.377   2.867
17553W        W84336  31.158  21.707   0.379
17554W        W84337  39.508   4.430   3.182
17555W        W84338  40.390  38.786   0.045
17556W        W84339  41.055  26.422   2.859
17557W        W84340  43.810  32.482   0.771
17558W        W84341  13.602  18.274   0.277
17559W        W84342   4.078  19.731   0.435
17560W        W84343   7.409  40.592  13.466
17561W        W84344  23.249   7.662   1.677
17562W        W84345  18.722  44.579   0.913
17563W        W84346  14.652  44.229   1.414
17564W        W84347  23.449   6.177  12.369
17565W        W84348  37.430   4.190   0.463
17566W        W84349   4.335  18.464   4.198
17567W        W84350  16.031  44.050   0.967
17568W        W84351  24.602   0.268   5.032
17569W        W84352  23.078  31.581  12.008
17570W        W84353  29.998  38.958   2.418
17571W        W84354  15.895  19.298  11.262
17572W        W84355  25.413   9.140  14.135
17573W        W84356   0.582  11.783   4.549
17574W        W84357  30.140  14.793  11.026
17575W        W84358  16.767  40.020  14.982
17576W        W84359  18.549  35.900  12.534
17577W        W84360  10.137  16.567  12.243
17578W        W84361   5.457   6.874  12.900
17579W        W84362  25.048   3.328  13.526
17580W        W84363  30.030  26.775   4.541
17581W        W84364   4.848  10.617   2.799
17582W        W84365  41.757   2.750   4.216
17583W        W84366  17.609  14.069  11.988
17584W        W84367  22.202   3.929   0.236
17585W        W84368  39.679   1.932   3.392
17586W        W84369   2.029  29.695  12.459
17587W        W84370  19.326  24.018  10.345
17588W        W84371   1.671  35.608  12.053
17589W        W84372   3.014  26.092   2.574
17590W        W84373   1.012  29.490  13.964
17591W        W84374  34.940   7.930   1.394
17592W        W84375   5.720  23.734  13.844
17593W        W84376   0.726   5.197  11.279
17594W        W84377  24.894  16.082  11.942
17595W        W84378  24.129  13.102   3.664
17596W        W84379  39.093  40.752  13.788
17597W        W84380  39.508  25.060  14.283
17598W        W84381   9.726   1.711   3.013
17599W        W84382  38.273   8.128   4.172
17600W        W84383  23.817  43.069   2.787
17601W        W84384  44.934  35.698   2.876
17602W        W84385  37.599   4.318  12.656
17603W        W84386   0.264  22.919  11.504
17604W        W84387  36.442   3.961   3.699
17605W        W84388  11.970  11.764  11.096
17606W        W84389  14.520   5.084  13.948
17607W        W84390  36.478   4.273   0.949
17608W        W84391   1.903  44.963   3.193
17609W        W84392  44.268   6.297   0.297
17610W        W84393  41.512  35.886  13.370
17611W        W84394  23.630  25.440  13.087
17612W        W84395  21.235  32.925  12.170
17613W        W84396   6.714  25.298  11.244
17614W        W84397  30.880   7.350   3.721
17615W        W84398  17.006  41.858  11.040
17616W        W84399   5.209   9.657  12.782
17617W        W84400  20.801   3.644  12.585
17618W        W84401   6.579  17.660   0.020
17619W        W84402  44.566  19.312   1.348
17620W        W84403   5.241  40.270   3.176
17621W        W84404  38.515  17.980   1.185
17622W        W84405  43.143  26.502   5.088
17623W        W84406  40.062  17.690  11.107
17624W        W84407  28.416  18.893  11.528
17625W        W84408  17.952  43.890   3.086
17626W        W84409  18.761  28.139   4.004
17627W        W84410  37.974  16.303  14.244
17628W        W84411  16.696  17.755  12.860
17629W        W84412  40.406  38.262  12.904
17630W        W84413  40.033  38.820  10.750
17631W        W84414  22.626  23.967  13.881
17632W        W84415  39.807  40.539   3.576
17633W        W84416  36.554  11.304   2.127
17634W        W84417  24.048  28.175   2.244
17635W        W84418  31.877  24.887  11.907
17636W        W84419  25.621  15.692  13.531
17637W        W84420   8.051  34.891  14.432
17638W        W84421  21.466  20.745   3.270
17639W        W84422  39.384  27.128   4.337
17640W        W84423  14.731  31.163   4.055
17641W        W84424  32.020  16.803   2.955
17642W        W84425  17.248  37.428  12.976
17643W        W84426   6.772  30.438  14.381
17644W        W84427  36.817   5.244   3.664
17645W        W84428  11.650  30.548  13.598
17646W        W84429  34.402  22.762   2.323
17647W        W84430   5.457  12.460   2.284
17648W        W84431  39.825  43.771  12.070
17649W        W84432  11.401  16.625  13.802
17650W        W84433  32.508  34.553  10.585
17651W        W84434   1.677   7.277  11.396
17652W        W84435  30.108  40.080  11.891
17653W        W84436   5.828  33.390   4.865
17654W        W84437  34.892  26.921   0.479
17655W        W84438  13.146  27.103   1.150
17656W        W84439   3.176  28.972  14.971
17657W        W84440   1.081  36.874   2.588
17658W        W84441   5.175  40.085   3.661
17659W        W84442  19.093  34.394  12.406
17660W        W84443  21.512  39.772  10.782
17661W        W84444  21.299  10.344  12.308
17662W        W84445   9.894  18.898  13.504
17663W        W84446  28.723  17.997  13.059
17664W        W84447   0.196  42.875  13.115
17665W        W84448  21.293  40.371  11.347
17666W        W84449  35.675  31.643  10.755
17667W        W84450  11.713   3.400  14.278
17668W        W84451   0.541  27.848   0.478
17669W        W84452  39.388   0.866  10.803
17670W        W84453  43.990  19.285   2.265
17671W        W84454   8.713  20.177  13.940
17672W        W84455  12.475  12.333  14.381
17673W        W84456  23.061  44.764  12.970
17674W        W84457  27.577  41.111  12.475
17675W        W84458  30.111  15.303   1.858
17676W        W84459   9.177   1.361  12.078
17677W        W84460  34.924  38.932   4.013
17678W        W84461  21.723   4.459   3.264
17679W        W84462  10.668   5.636  13.082
17680W        W84463  20.513  44.599   0.485
17681W        W84464   6.208  11.300   1.717
17682W        W84465  31.901  10.212  14.360
17683W        W84466  24.323   8.833  12.838
17684W        W84467  14.214  39.935   3.228
17685W        W84468  20.149  30.319   4.445
17686W        W84469   6.908   5.815  10.789
17687W        W84470  38.051  28.694   3.839
17688W        W84471  10.783  23.822  12.018
17689W        W84472  23.690  17.171   2.850
17690W        W84473   0.471  15.751   1.051
17691W        W84474   6.564   8.188   1.003
17692W        W84475  27.605   0.170   0.911
17693W        W84476   8.596   5.696   4.708
17694W        W84477   8.188  17.468  10.828
17695W        W84478  18.880  40.509   1.544
17696W        W84479  41.111  27.994  12.456
17697W        W84480  22.982   2.781   3.738
17698W        W84481  29.562   7.825  13.005
17699W        W84482  26.104  27.661   3.114
17700W        W84483  43.829  38.961  13.583
17701W        W84484  21.697  24.023   0.125
17702W        W84485  19.169   5.206   3.152
17703W        W84486   1.454  28.584   3.654
17704W        W84487  23.761  19.682  13.941
17705W        W84488  34.430  25.054   4.642
17706W        W84489  34.824   9.199  14.213
17707W        W84490  11.215  27.673   2.399
17708W        W84491  36.534  40.485   1.817
17709W        W84492  29.490   6.902   0.881
17710W        W84493  27.046  14.876   3.118
17711W        W84494   0.442  32.808  13.669
17712W        W84495  12.343  13.865  11.009
17713W        W84496  25.999   7.843  14.870
17714W        W84497  39.645  25.462  13.779
17715W        W84498   9.474  28.645   1.888
17716W        W84499  42.489  21.827  13.354
17717W        W84500  40.874   4.163  12.092
17718W        W84501  22.014  11.675  14.411
17719W        W84502  15.380  13.250  12.182
17720W        W84503  32.061  17.574  11.958
17721W        W84504  23.599   5.179   3.244
17722W        W84505   4.261  44.552   2.660
17723W        W84506  27.241   3.219   3.042
17724W        W84507  36.145   8.006   3.575
17725W        W84508  33.078  28.283   3.764
17726W        W84509  20.934  29.115   0.503
17727W        W84510  30.118   3.937  10.716
17728W        W84511  33.848  20.206   2.165
17729W        W84512   7.420   8.424  10.393
17730W        W84513  41.803  19.204   2.203
17731W        W84514  38.984   2.622   1.034
17732W        W84515  12.917  15.581   4.720
17733W        W84516  12.658  20.201   3.409
17734W        W84517  27.435  24.701   2.613
17735W        W84518  36.891  21.609  11.938
17736W        W84519  10.635  10.178  12.024
17737W        W84520  40.248   4.790  11.508
17738W        W84521  32.481   6.593  10.354
17739W        W84522   2.701  35.637  11.243
17740W        W84523  26.480  11.454  11.488
17741W        W84524  37.701  13.364  12.437
17742W        W84525  44.934   4.913   4.861
17743W        W84526  37.593  31.332  12.629
17744W        W84527  38.112   5.308   0.303
17745W        W84528  36.028  36.921  10.746
17746W        W84529  23.137   1.455  11.922
17747W        W84530   4.535  35.841   1.840
17748W        W84531  37.800  24.343   4.655
17749W        W84532  22.574  43.822   2.427
17750W        W84533  23.976  16.220   4.527
17751W        W84534  33.127  17.641   1.883
17752W        W84535  32.789   0.243   1.386
17753W        W84536   1.642   3.919  11.627
17754W        W84537   4.258  22.955   0.690
17755W        W84538  19.867  16.654  12.024
17756W        W84539  22.068  11.745   4.935
17757W        W84540  34.569  20.879   2.486
17758W        W84541  18.131  30.880   1.284
17759W        W84542  30.135  22.238   2.628
17760W        W84543  44.520   6.229   3.326
17761W        W84544  27.122   8.783  11.447
17762W        W84545  23.879  44.533   2.683
17763W        W84546  22.675  16.914  13.962
17764W        W84547  10.477  36.397   0.446
17765W        W84548  29.152  41.904  11.508
17766W        W84549   3.291  10.271   9.978
17767W        W84550  39.040  43.569   1.472
17768W        W84551  22.249  28.531   0.367
17769W        W84552  10.468   7.784   1.846
17770W        W84553  15.686  32.336  10.481
17771W        W84554  38.522  16.663   2.327
17772W        W84555   1.286  37.467  14.755
17773W        W84556   7.477   9.796  12.605
17774W        W84557  30.814  30.460  12.029
17775W        W84558  13.054  35.835   5.041
17776W        W84559  23.746  31.121   3.286
17777W        W84560  28.406  24.542   0.258
17778W        W84561  31.042  33.050   0.761
17779W        W84562  44.033  13.907   0.042
17780W        W84563   2.041  15.833  12.937
17781W        W84564  42.324  33.557   1.097
17782W        W84565  11.130  42.483  14.760
17783W        W84566  12.251  39.730   4.618
17784W        W84567  39.122  20.306  11.656
17785W        W84568  28.098  17.842  12.414
17786W        W84569  33.726  14.908  12.472
17787W        W84570   9.214   6.468   3.186
17788W        W84571  24.559   3.377   2.327
17789W        W84572   1.895  19.566   4.182
17790W        W84573   1.328  39.227  11.272
17791W        W84574  24.102  30.215   0.492
17792W        W84575   1.244   3.369  13.897
17793W        W84576   2.320  37.648  11.090
17794W        W84577  18.004  41.697   1.463
17795W        W84578  16.711   6.861  13.550
17796W        W84579  41.426  38.838   0.997
17797W        W84580  35.837  16.554  14.978
17798W        W84581   0.831  44.632   4.569
17799W        W84582  26.801  44.806   0.718
17800W        W84583  34.815  19.083  10.653
17801W        W84584  42.440  34.508   3.388
17802W        W84585  23.159  14.317  10.699
17803W        W84586  31.622  27.215  14.393
17804W        W84587  36.333  15.097  12.117
17805W        W84588   4.027  15.340  14.789
17806W        W84589  40.783  13.140   3.077
17807W        W84590  12.104  17.072   1.659
17808W        W84591  34.036  14.966   2.383
17809W        W84592  16.549  34.851   1.838
17810W        W84593  24.841  11.313  11.700
17811W        W84594  39.967   6.592   4.190
17812W        W84595  15.618  15.702   5.057
17813W        W84596  28.105  22.453  10.596
17814W        W84597   8.421  16.250  14.871
17815W        W84598  12.077  30.975   4.694
17816W        W84599  20.018  12.005   3.238
17817W        W84600  21.002  41.602   0.906
17818W        W84601  34.623   7.503   3.064
17819W        W84602  29.465  30.699  12.058
17820W        W84603   3.399  12.773   5.010
17821W        W84604   5.133  35.139   4.359
17822W        W84605  28.734  18.729  14.267
17823W        W84606  22.297  29.712  11.424
17824W        W84607  17.357  12.149  13.836
17825W        W84608  13.716   8.991  14.558
17826W        W84609   1.631   1.686  11.508
17827W        W84610  44.017   0.745  12.490
17828W        W84611  30.678  20.022  14.573
17829W        W84612  29.004  32.271  11.703
17830W        W84613  13.676  25.569   1.526
17831W        W84614  16.136  12.118   3.791
17832W        W84615  26.646  42.097  11.601
17833W        W84616  27.002  13.876   0.339
17834W        W84617  26.481  29.645   4.599
17835W        W84618  42.508   6.437   9.939
17836W        W84619  33.952  30.091  13.927
17837W        W84620  18.269  34.058   2.234
17838W        W84621   5.529  43.317  11.968
17839W        W84622   0.817  39.535   4.101
17840W        W84623  44.796  33.996  11.047
17841W        W84624  38.530  41.537   4.207
17842W        W84625  44.305  31.516  12.121
17843W        W84626  10.385  36.022   0.902
17844W        W84627  35.693   0.370  12.668
17845W        W84628  15.335   5.783   1.717
17846W        W84629  10.759  19.533  10.970
17847W        W84630  44.633   5.356   4.493
17848W        W84631   1.982  30.492  11.187
17849W        W84632  19.147   3.792   4.139
17850W        W84633  38.816  15.665   5.117
17851W        W84634  31.927  18.583  14.702
17852W        W84635  12.812  43.306   1.234
17853W        W84636  32.654   9.928   0.079
17854W        W84637  23.485  27.347  13.051
17855W        W84638  27.958  21.547   0.792
17856W        W84639  27.506  24.650  11.099
17857W        W84640   8.708   4.099  11.278
17858W        W84641  25.053  30.427   2.287
17859W        W84642  17.527  17.679   2.517
17860W        W84643  37.381  37.112  14.755
17861W        W84644   8.744  15.177   4.935
17862W        W84645   1.392  14.373  13.001
17863W        W84646  15.080   9.086  11.516
17864W        W84647  39.130  21.534  14.377
17865W        W84648   7.723  20.059   2.143
17866W        W84649  34.138   4.268  14.811
17867W        W84650   1.793  17.698   4.064
17868W        W84651  19.623  37.906  11.864
17869W        W84652  35.989   3.334   3.500
17870W        W84653   5.007  43.230  10.518
17871W        W84654  35.951  43.996  13.972
17872W        W84655  30.346  29.466  12.185
17873W        W84656  23.017  23.159   1.237
17874W        W84657  24.117  39.873  10.754
17875W        W84658  43.753  20.490  12.048
17876W        W84659  28.627  42.950  13.993
17877W        W84660  19.799  43.566  13.825
17878W        W84661  20.434   4.732   3.686
17879W        W84662  27.208  12.794   1.635
17880W        W84663   0.622  40.410  10.554
17881W        W84664  29.707  37.329  13.881
17882W        W84665  35.554  27.218  12.622
17883W        W84666   1.372   4.222  12.005
17884W        W84667  11.511   7.915   3.583
17885W        W84668  33.346   6.184   0.947
17886W        W84669  38.045  30.707   4.235
17887W        W84670  28.330   0.379  10.700
17888W        W84671  33.006   6.450   2.666
17889W        W84672  26.062  17.687  14.952
17890W        W84673  39.445   3.065  12.415
17891W        W84674   7.347  34.608   1.227
17892W        W84675  21.555  17.998   2.616
17893W        W84676  37.479  33.490   3.716
17894W        W84677   0.568  42.078   3.692
17895W        W84678  38.792  27.940  13.810
17896W        W84679  43.077  16.176   5.119
17897W        W84680   1.817  21.551  11.875
17898W        W84681  41.466  10.166  13.361
17899W        W84682  42.673   5.621   9.965
17900W        W84683   0.023   7.517  11.187
17901W        W84684  44.555  26.642  12.960
17902W        W84685  16.964  19.008   3.186
17903W        W84686  16.648  26.714  12.001
17904W        W84687  31.883  42.963   1.790
17905W        W84688  24.455   4.640  12.653
17906W        W84689  23.691   7.256   1.797
17907W        W84690  14.751  17.567  12.354
17908W        W84691   2.701  17.245   1.575
17909W        W84692   5.786  11.016   0.393
17910W        W84693  13.845  34.533   1.302
17911W        W84694  42.508  12.475  13.781
17912W        W84695   8.716  27.763   3.768
17913W        W84696  25.077   3.943   1.279
17914W        W84697  21.729  30.582  10.671
17915W        W84698   2.459  24.254  14.504
17916W        W84699  41.389  29.548  13.096
17917W        W84700  39.570   9.892   2.912
17918W        W84701  33.566  28.941   2.222
17919W        W84702   5.233   4.715   0.028
17920W        W84703  11.174  11.596   1.074
17921W        W84704   1.747  28.631   0.327
17922W        W84705  19.626  35.954   4.106
17923W        W84706  36.741  11.864   4.440
17924W        W84707   2.173  17.042   0.922
17925W        W84708  34.039  35.531   2.593
17926W        W84709  24.098  13.672  14.763
17927W        W84710  38.242   2.783   1.455
17928W        W84711  29.064  16.010  11.626
17929W        W84712  16.340  43.727  11.578
17930W        W84713  12.638  11.154  14.959
17931W        W84714   6.978  38.323  14.933
17932W        W84715  13.172  41.291   3.970
17933W        W84716   3.827  39.856   3.386
17934W        W84717   4.819  10.369  13.286
17935W        W84718  28.022  34.407   2.195
17936W        W84719  31.797  39.374   0.813
17937W        W84720   5.970   8.644  13.995
17938W        W84721   9.250  10.832   0.935
17939W        W84722   5.155  40.956  12.033
17940W        W84723  24.406   7.555  14.536
17941W        W84724  30.424  20.270   3.032
17942W        W84725  35.473  24.561   3.848
17943W        W84726  11.288  40.452  10.475
17944W        W84727  15.820  43.343  12.791
17945W        W84728  15.650  20.653   4.949
17946W        W84729   3.264  13.162   0.249
17947W        W84730  25.067  27.226  11.700
17948W        W84731  11.079  38.921   9.437
17949W        W84732  21.392  23.816  14.785
17950W        W84733  34.356  43.077  13.681
17951W        W84734   9.321   2.130  11.868
17952W        W84735  37.603   7.732  12.509
17953W        W84736   6.336  17.086   0.691
17954W        W84737  15.586   7.427   2.713
17955W        W84738  20.771  29.157  14.240
17956W        W84739  23.594   0.684   3.289
17957W        W84740  10.057   3.154   3.682
17958W        W84741  22.112  35.523   4.549
17959W        W84742  41.925  16.260  11.242
17960W        W84743  28.533  19.274  11.913
17961W        W84744  38.159  42.354   1.249
17962W        W84745  31.573  40.780  14.469
17963W        W84746   7.947  26.021   3.364
17964W        W84747  31.147  36.615   3.860
17965W        W84748   5.815   6.390   4.065
17966W        W84749  23.029  22.717   2.183
17967W        W84750  44.846  20.130  13.937
17968W        W84751  39.228  29.859   1.310
17969W        W84752  38.561  42.889   2.319
17970W        W84753  27.989  25.942   3.604
17971W        W84754  29.290  23.854   3.227
17972W        W84755  35.162  37.151  11.246
17973W        W84756  12.366  25.189   2.185
17974W        W84757  41.196  12.636  14.884
17975W        W84758   2.949  22.237  14.062
17976W        W84759  26.142  20.641  13.510
17977W        W84760  13.783   1.032  13.540
17978W        W84761  31.100  44.792  10.770
17979W        W84762  27.358  40.000  14.706
17980W        W84763  27.664   3.670  11.029
17981W        W84764  19.490  16.718  12.995
17982W        W84765   8.314  43.503   3.168
17983W        W84766  44.007  15.311   4.321
17984W        W84767  13.677  39.057  12.958
17985W        W84768  39.796  32.467  12.927
17986W        W84769  13.334   2.457  11.987
17987W        W84770  26.516  29.113   4.548
17988W        W84771  23.672  26.630   2.950
17989W        W84772  18.283  16.049   4.303
17990W        W84773  23.716   1.697   3.117
17991W        W84774  12.088  42.838   3.168
17992W        W84775   2.378  23.207  14.587
17993W        W84776  36.924   2.230   4.143
17994W        W84777  21.152  29.897  11.165
17995W        W84778  29.559  23.979   1.233
17996W        W84779  41.888  37.530  11.625
17997W        W84780  42.436  27.754  10.768
17998W        W84781  21.397  35.531  11.970
17999W        W84782   1.387  24.022   4.005
18000W        W84783  40.343   9.685  12.042
18001W        W84784  10.755  23.761  10.024
18002W        W84785  31.163  26.616  14.740
18003W        W84786   4.197  34.448   3.429
18004W        W84787  30.206   9.048  12.547
18005W        W84788  29.051  18.836  12.909
18006W        W84789   0.588   9.825   3.731
18007W        W84790  21.667  20.085   1.322
18008W        W84791   8.323  11.881   1.427
18009W        W84792  32.123  35.057  14.028
18010W        W84793  29.884  26.067   2.391
18011W        W84794  25.199  41.129  13.059
18012W        W84795   1.990  21.230   2.653
18013W        W84796   7.306  40.829  12.675
18014W        W84797  30.478  20.484  14.384
18015W        W84798  11.170  28.026  10.730
18016W        W84799  38.447  11.109  10.751
18017W        W84800  30.369   1.984  11.143
18018W        W84801  22.663  15.244   2.352
18019W        W84802   3.939  14.796   2.683
18020W        W84803  31.256  15.648  12.823
18021W        W84804   6.933  18.072   0.299
18022W        W84805  23.100  27.641   3.716
18023W        W84806  29.959  26.060   3.254
18024W        W84807  17.990  28.641   1.132
18025W        W84808  24.556  43.993  13.975
18026W        W84809  39.860  18.451   2.840
18027W        W84810  22.564  19.095   2.215
18028W        W84811  19.214  40.266  10.656
18029W        W84812  41.144  22.471  14.360
18030W        W84813  27.955  12.211   0.403
18031W        W84814  20.052  26.755   4.162
18032W        W84815  43.779  38.999   2.589
18033W        W84816  20.657  18.156  10.888
18034W        W84817  26.894  35.703   3.636
18035W        W84818  33.156  32.454  12.648
18036W        W84819  34.010  30.877   2.330
18037W        W84820   6.555   5.064  11.059
18038W        W84821  18.347  39.291   0.334
18039W        W84822  42.460  22.528   1.321
18040W        W84823  40.785  41.106  10.706
18041W        W84824  36.613   9.201  12.155
18042W        W84825  15.866  30.297  12.045
18043W        W84826   3.866   4.765  10.551
18044W        W84827  30.525  40.342  12.093
18045W        W84828  43.403   7.628  12.044
18046W        W84829  26.031  32.166  10.775
18047W        W84830  44.215  19.003   0.007
18048W        W84831  26.056   9.453  12.962
18049W        W84832  35.883  40.322   3.594
18050W        W84833  14.420  43.262   2.841
18051W        W84834  19.759   9.907  11.224
18052W        W84835   6.810  26.114   2.356
18053W        W84836  24.339  34.999  12.433
18054W        W84837  38.691  35.889   3.103
18055W        W84838  33.015  36.841   3.600
18056W        W84839   6.555  13.693   4.230
18057W        W84840   6.880  26.840  11.143
18058W        W84841   8.239  16.727  11.277
18059W        W84842  11.653  15.612  14.964
18060W        W84843  37.061  17.458   0.987
18061W        W84844  23.707  26.273  12.043
18062W        W84845  32.516  12.847   1.803
18063W        W84846   5.771  30.882   3.917
18064W        W84847  12.176  29.579   1.805
18065W        W84848  33.559  20.052   2.946
18066W        W84849  30.652   8.074  14.998
18067W        W84850  42.406  10.375  13.591
18068W        W84851  11.938   1.380   3.628
18069W        W84852  27.025  19.271   2.872
18070W        W84853  10.931  27.876   0.683
18071W        W84854  28.441   6.333   4.502
18072W        W84855  24.040   0.545  13.318
18073W        W84856  33.110  32.857   3.302
18074W        W84857  21.572  12.077  13.504
18075W        W84858  11.498  18.730   3.857
18076W        W84859   4.851   1.307   3.714
18077W        W84860  35.094   5.939  14.035
18078W        W84861  43.902   9.457   1.432
18079W        W84862   9.413  13.904  11.183
18080W        W84863  41.979   1.761  12.589
18081W        W84864  28.965  15.027   2.254
18082W        W84865  27.945  36.523  12.930
18083W        W84866   2.656  32.968  13.797
18084W        W84867  10.304  39.394   3.735
18085W        W84868  26.493  36.835  14.503
18086W        W84869  43.468  43.343   2.133
18087W        W84870  43.958  15.371   2.190
18088W        W84871  32.562  29.161   2.208
18089W        W84872  30.879  16.714  11.447
18090W        W84873  22.625  36.010   2.469
18091W        W84874  28.585  37.339  11.065
18092W        W84875  20.129  13.663   3.817
18093W        W84876  30.806   8.714   2.896
18094W        W84877   1.747   0.206   3.937
18095W        W84878  13.769  36.274  14.857
18096W        W84879   1.190  12.365   1.522
18097W        W84880  41.293  25.703   1.960
18098W        W84881  31.083  12.692  13.978
18099W        W84882  27.109  10.896  14.060
18100W        W84883  19.268   4.482   1.272
18101W        W84884   9.606  42.935  12.050
18102W        W84885  43.367  43.451  12.427
18103W        W84886  16.812  25.028   3.290
18104W        W84887  39.574  13.034  10.687
18105W        W84888  30.040  41.318   0.897
18106W        W84889  30.187  30.700  12.604
18107W        W84890  41.122  13.740  12.438
18108W        W84891  19.623  10.081   0.965
18109W        W84892  23.976  30.887   4.209
18110W        W84893  39.976  36.502  13.036
18111W        W84894  44.058  14.821  12.633
18112W        W84895  15.427  30.643  12.022
18113W        W84896  36.084   2.485  14.842
18114W        W84897  12.677  26.128  10.659
18115W        W84898  32.098  44.473  11.810
18116W        W84899  27.087  16.070   4.972
18117W        W84900  10.847  27.575   3.459
18118W        W84901   5.415  42.977   1.352
18119W        W84902  16.007  35.473  10.731
18120W        W84903  42.765  24.163  14.017
18121W        W84904  43.192   1.816  11.903
18122W        W84905  14.337  26.746   1.376
18123W        W84906  26.538  18.701  12.497
18124W        W84907  22.109  35.543   3.569
18125W        W84908   0.814  27.008   4.242
18126W        W84909  36.325  17.210  13.044
18127W        W84910  30.095  19.859   3.461
18128W        W84911  16.698  33.535   2.536
18129W        W84912  25.515  28.883  12.057
18130W        W84913  28.429   0.825   1.073
18131W        W84914  37.626  12.564  14.747
18132W        W84915  32.574  34.917   4.767
18133W        W84916  36.352  10.340   3.278
18134W        W84917  35.010  27.757  12.201
18135W        W84918  18.014  25.223  13.343
18136W        W84919   0.070  35.999   3.287
18137W        W84920  36.211   6.725  13.324
18138W        W84921  33.942   4.009  13.156
18139W        W84922  29.400  43.793   1.186
18140W        W84923   8.259  44.278   3.695
18141W        W84924  35.472  37.544  11.666
18142W        W84925  22.062  11.174  10.820
18143W        W84926  11.277   1.445   2.375
18144W        W84927  26.504  43.845   0.041
18145W        W84928   5.328  44.255  13.905
18146W        W84929   1.827  37.627   3.313
18147W        W84930  17.767  32.948   3.095
18148W        W84931  15.056  16.572  14.392
18149W        W84932  34.223  23.988  13.325
18150W        W84933  32.723  39.040   2.745
18151W        W84934  12.543  21.994   3.684
18152W        W84935  38.078   2.193   4.495
18153W        W84936  36.009  43.464   3.989
18154W        W84937   6.865   8.691  12.991
18155W        W84938  16.989  11.384   1.719
18156W        W84939  27.093  22.438  13.895
18157W        W84940  25.711   9.362   2.836
18158W        W84941  30.507   9.557  13.204
18159W        W84942  14.293   8.470   3.774
18160W        W84943  34.976  40.808  11.637
18161W        W84944  24.963  16.884  14.070
18162W        W84945  19.676  18.135  10.575
18163W        W84946  44.921  43.345  13.550
18164W        W84947  27.503  41.782   3.545
18165W        W84948  24.073   9.428  10.673
18166W        W84949  20.767  42.692  12.262
18167W        W84950   4.238  14.890  13.493
18168W        W84951  27.022  43.693  13.323
18169W        W84952  22.160  13.050   4.308
18170W        W84953  34.334   9.311   3.231
18171W        W84954  12.617  28.210  14.884
18172W        W84955  40.249   8.285   3.044
18173W        W84956  34.260   0.804  13.804
18174W        W84957  25.699  17.864  13.565
18175W        W84958  37.609  22.723   0.806
18176W        W84959  40.241  18.732   3.733
18177W        W84960  39.331  28.957   0.296
18178W        W84961  37.888  13.305   3.606
18179W        W84962   4.842  17.689   0.744
18180W        W84963  25.765  29.956  12.954
18181W        W84964  14.369  36.307  13.091
18182W        W84965  31.967  23.261   2.842
18183W        W84966  12.821  24.653  13.842
18184W        W84967   5.950   6.894   4.108
18185W        W84968  25.717  11.800   1.417
18186W        W84969   3.148  13.858   4.194
18187W        W84970  15.939   9.476   0.542
18188W        W84971  20.871  41.926  14.791
18189W        W84972  36.821  24.868   2.782
18190W        W84973  25.683  29.538  12.634
18191W        W84974   6.267   6.200   4.224
18192W        W84975   0.537  24.488  10.664
18193W        W84976  38.596   8.106  12.579
18194W        W84977  27.775  43.066  11.471
18195W        W84978  10.894  12.878   1.103
18196W        W84979  38.850  24.463  11.224
18197W        W84980  39.534  17.538   3.476
18198W        W84981  34.124  17.939  10.699
18199W        W84982  11.993  36.259  13.898
18200W        W84983  11.060  35.898  10.722
18201W        W84984  16.723  20.783  10.635
18202W        W84985  42.552   3.458  11.535
18203W        W84986   8.219   1.035   2.292
18204W        W84987  29.900   0.305  11.514
18205W        W84988   2.908  16.076  12.927
18206W        W84989  15.211  30.895   1.170
18207W        W84990   7.878  42.596  14.812
18208W        W84991  41.512  19.219  10.660
18209W        W84992  44.905  19.911   4.750
18210W        W84993   7.978  29.122   2.866
18211W        W84994   8.905  21.064   4.887
18212W        W84995  41.430  36.449   4.661
18213W        W84996  44.286  26.956   4.888
18214W        W84997  41.448  30.478   3.400
18215W        W84998  19.254  36.944  10.785
18216W        W84999  37.870   8.258  11.722
18217W        W85000  18.635  25.629   0.906
18218W        W85001  10.744  17.328  12.592
18219W        W85002  17.018  14.811  13.568
18220W        W85003  35.286  29.730  10.784
18221W        W85004   4.461  42.040   2.382
18222W        W85005   5.765   0.038   3.381
18223W        W85006  19.896  41.238   4.991
18224W        W85007  34.508   6.662   0.447
18225W        W85008  16.472   6.176  12.768
18226W        W85009  38.331  34.834   1.658
18227W        W85010  26.521  23.045  13.025
18228W        W85011   2.568  40.423  12.962
18229W        W85012  33.371  42.519  14.324
18230W        W85013  22.115  40.765  13.442
18231W        W85014  25.921  41.030  13.435
18232W        W85015  40.679  44.274   0.851
18233W        W85016  21.550  41.706   1.523
18234W        W85017   1.530  32.776  14.897
18235W        W85018  34.644  24.138   2.258
18236W        W85019  36.323  29.720   2.589
18237W        W85020  26.598  11.320  10.617
18238W        W85021  40.751  26.007   2.755
18239W        W85022  37.394  31.916  10.171
18240W        W85023  17.916  15.576  14.931
18241W        W85024  15.803  14.311   1.028
18242W        W85025  41.300  13.201  12.032
18243W        W85026  12.065  41.581  14.515
18244W        W85027   3.020  36.385   3.822
18245W        W85028  33.204  39.054   2.578
18246W        W85029  40.328  38.483   3.275
18247W        W85030   5.803  25.560   1.393
18248W        W85031   1.736  13.722   0.737
18249W        W85032   4.687  31.413  11.621
18250W        W85033  37.871  40.454   4.700
18251W        W85034  12.312  21.689   4.140
18252W        W85035  22.130   2.336   3.767
18253W        W85036  42.439  43.329   4.616
18254W        W85037  32.525  17.720   3.698
18255W        W85038   3.401  16.184   0.780
18256W        W85039  34.078  16.795  13.989
18257W        W85040  24.037  10.612   4.528
18258W        W85041  25.447   2.707   4.867
18259W        W85042  37.473  16.563   4.739
18260W        W85043  32.542  29.077  14.428
18261W        W85044  13.116  44.332   3.186
18262W        W85045  41.322   8.927   5.349
18263W        W85046   6.608  44.358   1.662
18264W        W85047  17.629  30.203  10.654
18265W        W85048  33.474   4.225  12.024
18266W        W85049  15.658  33.915  12.820
18267W        W85050  21.198  22.281  11.878
18268W        W85051  13.799  42.308  10.727
18269W        W85052  19.781  10.965   2.214
18270W        W85053   6.158  11.757  10.191
18271W        W85054  43.529  30.463  13.474
18272W        W85055  30.222  14.153  11.987
18273W        W85056  17.218   5.493   0.373
18274W        W85057  43.808  41.043   0.005
18275W        W85058  14.064   8.883   1.450
18276W        W85059  43.126  42.102  14.844
18277W        W85060  41.811  43.678   4.031
18278W        W85061  24.507  38.960   4.581
18279W        W85062  35.167   7.765   2.299
18280W        W85063  44.166   6.578  12.788
18281W        W85064  20.745  24.520  12.050
18282W        W85065  17.825  23.946  13.761
18283W        W85066  34.829  38.787   1.859
18284W        W85067  12.398  22.082  11.212
18285W        W85068  34.439  30.613   2.407
18286W        W85069   2.229  36.745  13.634
18287W        W85070  15.642  17.712  14.759
18288W        W85071   7.710  31.478  11.011
18289W        W85072  29.419   9.171   3.678
18290W        W85073  28.575  31.188   0.321
18291W        W85074  30.864   4.171   4.137
18292W        W85075   0.986  42.212   0.889
18293W        W85076  41.289  30.171  11.188
18294W        W85077  20.171  43.534   4.562
18295W        W85078   6.620  30.472   3.357
18296W        W85079  17.761  21.996   0.486
18297W        W85080  32.966   8.026   3.664
18298W        W85081  44.798   3.494  11.784
18299W        W85082   3.003   9.812   3.989
18300W        W85083   7.405  30.080  14.800
18301W        W85084  25.524  10.259   2.701
18302W        W85085  21.172  42.686   2.928
18303W        W85086  35.546  44.350  12.623
18304W        W85087  41.835   1.430   0.838
18305W        W85088  32.579   6.780   3.575
18306W        W85089  36.175  27.473   4.009
18307W        W85090  11.294  30.204   0.782
18308W        W85091  16.722  38.417  14.140
18309W        W85092   4.052   4.780   3.586
18310W        W85093  17.493   9.751  13.379
18311W        W85094   5.305   0.285  13.704
18312W        W85095  26.213   6.663   3.171
18313W        W85096  34.617  17.250  14.999
18314W        W85097  32.072  31.041  14.009
18315W        W85098   4.175  27.880   1.442
18316W        W85099  44.253  22.819   4.641
18317W        W85100  40.366  44.605  11.192
18318W        W85101  21.808  33.457   3.828
18319W        W85102  27.612  23.289   3.833
18320W        W85103   0.417  23.290   3.085
18321W        W85104   1.330  34.807   2.921
18322W        W85105   3.194  30.981  14.514
18323W        W85106  17.247  31.585  12.594
18324W        W85107  18.366  36.056  12.065
18325W        W85108  30.901  32.972  13.922
18326W        W85109  16.279  33.064  10.745
18327W        W85110  12.402  28.375   0.806
18328W        W85111   9.697  31.240  14.451
18329W        W85112  15.488  12.245   0.188
18330W        W85113  29.438  36.408  12.947
18331W        W85114   9.199  24.581  12.279
18332W        W85115  18.732  23.116   2.383
18333W        W85116  26.521   2.668  11.197
18334W        W85117  32.435  43.508  14.493
18335W        W85118   4.845  14.475  12.524
18336W        W85119  11.437  13.383  11.677
18337W        W85120  35.952   4.369  13.395
18338W        W85121  37.749  14.318   0.529
18339W        W85122  42.012  14.910   3.242
18340W        W85123   3.680  37.423  14.099
18341W        W85124   0.930  22.773   1.301
18342W        W85125  26.517  14.291  11.184
18343W        W85126  22.735  40.111   3.568
18344W        W85127  17.424  22.188  11.673
18345W        W85128  17.116   8.685  14.903
18346W        W85129   7.155   1.901  13.802
18347W        W85130  36.055   9.169   2.834
18348W        W85131   6.674  43.246   0.778
18349W        W85132  12.227  11.851  12.139
18350W        W85133   8.740   8.867  13.638
18351W        W85134  31.035  21.308   4.073
18352W        W85135   4.172  30.653  14.361
18353W        W85136  18.962  17.691   2.190
18354W        W85137   9.310   2.457  14.723
18355W        W85138  25.504  41.033   3.363
18356W        W85139  22.601   0.818  14.278
18357W        W85140  41.829  19.506   2.873
18358W        W85141  24.185   7.622  11.382
18359W        W85142  41.338  16.418   1.027
18360W        W85143  20.405  22.933  11.211
18361W        W85144  40.229  19.231   1.222
18362W        W85145  40.380  28.424   1.802
18363W        W85146   9.904  24.622   4.747
18364W        W85147  30.114  31.696  11.271
18365W        W85148  19.427   2.272  11.947
18366W        W85149  11.168  13.878   0.752
18367W        W85150  37.155  34.914  14.827
18368W        W85151  11.881  14.929  10.224
18369W        W85152  34.440   9.536   1.249
18370W        W85153  17.651  26.076  11.948
18371W        W85154   4.238  43.420  14.350
18372W        W85155  42.390   8.724  14.083
18373W        W85156  23.094  35.961   0.635
18374W        W85157  38.069  40.825   4.407
18375W        W85158  20.931  44.028   4.077
18376W        W85159  22.290  22.767  14.857
18377W        W85160  36.349  15.803   4.188
18378W        W85161  10.374  25.826  12.636
18379W        W85162  17.455  34.374   2.454
18380W        W85163   7.652  23.659  13.517
18381W        W85164  10.772  19.057  11.636
18382W        W85165  33.002  22.909  13.453
18383W        W85166  30.247  37.986   2.496
18384W        W85167  29.991  31.483   0.762
18385W        W85168  37.650  15.609  12.086
18386W        W85169  35.523  25.911  13.382
18387W        W85170  32.463  28.530   0.461
18388W        W85171  16.789   7.384   4.638
18389W        W85172  22.680   5.676  10.502
18390W        W85173  34.425  32.618   3.147
18391W        W85174   6.410  27.070   4.396
18392W        W85175  31.152  38.158  14.609
18393W        W85176  27.014   7.354   0.308
18394W        W85177   3.761  42.202   1.885
18395W        W85178  25.439  33.709   1.086
18396W        W85179   8.689  37.297   0.856
18397W        W85180  39.748  18.194   4.328
18398W        W85181   7.568  29.604   4.104
18399W        W85182   6.281  24.105   2.909
18400W        W85183  28.618   3.139  13.753
18401W        W85184  12.652  26.221  13.935
18402W        W85185   8.827   8.510  10.127
18403W        W85186  31.306  37.144   2.993
18404W        W85187   2.355  41.487  12.851
18405W        W85188  25.265  37.677  10.312
18406W        W85189  28.432  39.223   3.750
18407W        W85190  17.870  17.094  12.219
18408W        W85191  39.377  38.312  12.831
18409W        W85192   9.736  28.828  11.325
18410W        W85193  31.136  26.602  13.015
18411W        W85194  15.011  10.113  12.980
18412W        W85195  26.199  37.123  14.216
18413W        W85196  10.912  14.138   4.355
18414W        W85197  22.510  24.812   3.507
18415W        W85198   3.766   5.735  11.934
18416W        W85199   6.339  11.851  12.512
18417W        W85200  40.770  39.047  10.306
18418W        W85201   0.796  40.868  12.947
18419W        W85202  11.111  26.340  14.571
18420W        W85203  34.064  34.664   2.635
18421W        W85204   0.597  18.088   0.250
18422W        W85205  44.323  21.606  10.589
18423W        W85206  14.882  10.291   4.449
18424W        W85207  12.178  36.605  13.536
18425W        W85208  42.303  20.217  11.109
18426W        W85209  10.227  13.869   1.228
18427W        W85210  43.497   0.787  12.062
18428W        W85211  16.478   4.853  14.386
18429W        W85212  29.116  14.699   1.253
18430W        W85213  40.413  26.160   0.471
18431W        W85214  18.865  22.009  11.795
18432W        W85215  43.200   9.161   1.954
18433W        W85216  24.450  30.964  12.461
18434W        W85217  10.851  44.743   4.644
18435W        W85218   4.002  26.054  14.131
18436W        W85219  13.817  35.727   0.619
18437W        W85220  22.056  27.415   0.935
18438W        W85221   1.762  26.063  10.602
18439W        W85222  38.674  32.924   2.896
18440W        W85223   0.894  14.357   5.405
18441W        W85224  17.726  18.761  11.908
18442W        W85225  19.890   8.709  11.189
18443W        W85226  43.458  44.776   4.693
18444W        W85227  27.956  30.725  13.157
18445W        W85228   4.755  17.450   2.374
18446W        W85229   7.588  16.611   2.288
18447W        W85230  39.100   2.864  13.850
18448W        W85231   2.685  20.886  13.435
18449W        W85232  32.940  44.692   0.960
18450W        W85233   4.235  25.698   4.663
18451W        W85234  43.688  24.413  14.838
18452W        W85235  23.464   0.379  14.617
18453W        W85236   6.445   8.458   3.796
18454W        W85237  39.832  13.397  10.252
18455W        W85238   9.455  19.699   4.651
18456W        W85239  30.590  23.185   2.918
18457W        W85240   3.353  11.919  14.949
18458W        W85241   7.153  12.228  11.586
18459W        W85242  30.184  43.957   3.644
18460W        W85243  28.540  44.257   3.567
18461W        W85244  31.663   8.770  14.865
18462W        W85245  25.115  38.450  13.682
18463W        W85246  11.811  22.523   2.895
18464W        W85247  32.933  37.289   3.292
18465W        W85248   3.715  39.309   1.293
18466W        W85249  30.353  10.290  10.538
18467W        W85250   8.415   8.114   0.950
18468W        W85251  43.985  23.326  12.563
18469W        W85252  17.232   2.493   3.100
18470W        W85253  38.091  24.267  12.018
18471W        W85254   4.758  11.714  14.492
18472W        W85255  21.692  14.350  10.184
18473W        W85256  41.117  29.853  14.887
18474W        W85257  43.773  20.487   4.437
18475W        W85258  25.093  34.817  13.414
18476W        W85259  28.543  28.545  11.665
18477W        W85260  15.033  28.548  11.716
18478W        W85261  25.157  37.576   4.628
18479W        W85262  30.885   0.252  10.754
18480W        W85263  35.914  30.495  13.005
18481W        W85264  35.166   6.408  12.878
18482W        W85265  19.029  19.757  10.107
18483W        W85266  25.998  39.839   1.306
18484W        W85267  32.288  18.455   4.356
18485W        W85268  15.400  43.037   2.531
18486W        W85269  21.952  40.016  13.871
18487W        W85270  17.158  16.114  14.956
18488W        W85271  31.812  33.814  12.990
18489W        W85272  39.102  19.846  13.359
18490W        W85273  10.302   3.976  12.213
18491W        W85274  32.098  19.646   1.849
18492W        W85275  29.876   2.834  11.961
18493W        W85276  15.816  31.503  11.008
18494W        W85277  40.708  14.891   3.741
18495W        W85278   2.843   3.834  12.412
18496W        W85279   9.338  11.067   0.309
18497W        W85280  44.975  30.705   1.827
18498W        W85281  29.616  37.431   4.568
18499W        W85282   7.275   8.453  13.810
18500W        W85283  24.016  41.449   4.515
18501W        W85284  22.345   1.992   1.723
18502W        W85285  20.914  20.000  14.920
18503W        W85286  22.255   5.013   2.843
18504W        W85287  14.645  40.113   0.750
18505W        W85288   8.212  32.091  14.462
18506W        W85289   7.954  14.550   3.616
18507W        W85290  32.107  42.046   3.882
18508W        W85291  30.086  18.347   4.127
18509W        W85292  31.160  39.800   0.030
18510W        W85293  39.473  37.220   3.416
18511W        W85294  44.049  31.069   3.745
18512W        W85295  43.903  25.710  12.809
18513W        W85296  36.945   6.572   0.985
18514W        W85297   5.494   7.906  12.988
18515W        W85298   5.710   1.656  11.778
18516W        W85299   7.830  20.097   3.064
18517W        W85300  33.493  39.774  12.481
18518W        W85301  33.956   9.587   0.597
18519W        W85302  42.745  26.960   1.771
18520W        W85303  14.840  22.598   3.518
18521W        W85304   3.481  22.426  14.809
18522W        W85305  14.036  18.766  14.470
18523W        W85306  34.503  27.114  10.305
18524W        W85307  13.139   0.711   1.944
18525W        W85308  30.343  39.341  11.226
18526W        W85309  37.610  26.248  13.023
18527W        W85310   9.824  22.943   2.652
18528W        W85311  28.493  15.593   4.650
18529W        W85312  23.932  21.321   3.223
18530W        W85313  11.602  37.251  13.986
18531W        W85314  41.847  28.269   1.905
18532W        W85315  38.088  33.213   0.459
18533W        W85316  32.373  10.412   0.212
18534W        W85317  33.162  23.515  10.463
18535W        W85318  27.595  42.016   5.003
18536W        W85319   9.351  26.905   4.350
18537W        W85320  10.966   3.738   0.066
18538W        W85321   7.144  33.438  12.548
18539W        W85322   5.168   1.154  13.323
18540W        W85323  41.445   8.393  14.352
18541W        W85324  14.710   4.970  12.556
18542W        W85325  15.253  41.060  12.046
18543W        W85326  32.792  13.203   1.086
18544W        W85327  33.603  10.241  12.880
18545W        W85328  37.455  33.024   4.501
18546W        W85329   8.393  15.066   2.849
18547W        W85330  25.726  42.433  10.550
18548W        W85331   0.922   8.790  12.519
18549W        W85332  11.692  10.200  13.867
18550W        W85333  15.609   7.565   4.950
18551W        W85334  30.881  41.125  11.946
18552W        W85335  16.556  29.812   1.781
18553W        W85336  31.437  28.390  13.844
18554W        W85337  13.179  28.062   5.126
18555W        W85338  41.800   1.752   2.247
18556W        W85339  19.940   4.298   3.080
18557W        W85340   5.897  32.721  14.424
18558W        W85341   5.808  32.063   3.630
18559W        W85342  41.333  26.599   4.832
18560W        W85343  10.836   3.342  11.051
18561W        W85344  39.284  13.725  14.443
18562W        W85345  37.475  41.110  14.166
18563W        W85346  30.057  12.845  11.559
18564W        W85347  24.028  11.338  13.072
18565W        W85348  10.331  11.310  10.519
18566W        W85349  18.576  36.877  12.158
18567W        W85350  23.694  10.522  14.295
18568W        W85351  21.399  37.776   3.732
18569W        W85352  22.472  39.980   4.114
18570W        W85353   8.785   6.910  14.248
18571W        W85354   5.781   0.002   4.398
18572W        W85355  39.449  39.304   0.533
18573W        W85356  21.689  16.615  14.815
18574W        W85357  14.084  28.869   2.713
18575W        W85358   9.152  15.557  14.888
18576W        W85359   2.476  37.256  14.898
18577W        W85360  30.627  12.656  14.283
18578W        W85361  38.999  26.230   0.505
18579W        W85362  29.469  12.566  10.200
18580W        W85363  33.514  42.210  10.686
18581W        W85364   8.344  21.714   1.485
18582W        W85365  39.953  41.320  13.572
18583W        W85366  15.884  39.037   2.362
18584W        W85367  29.007  40.762   2.182
18585W        W85368  20.597  15.153   4.167
18586W        W85369  39.672  37.443   4.190
18587W        W85370  40.838   9.234   2.627
18588W        W85371  17.273  30.823  10.925
18589W        W85372  11.667  39.842   3.688
18590W        W85373  10.154   7.139   1.895
18591W        W85374  39.102  30.713   0.390
18592W        W85375  18.819  14.197   3.321
18593W        W85376  12.432  35.655  14.518
18594W        W85377  19.082  43.653  14.807
18595W        W85378  32.824   1.713  10.789
18596W        W85379  31.892   3.834   2.812
18597W        W85380   3.157  40.526   0.691
18598W        W85381  11.462   1.557   3.294
18599W        W85382  20.326   8.383   0.266
18600W        W85383   9.191  20.092   4.393
18601W        W85384  42.837   2.009   3.852
18602W        W85385   4.832  17.395  12.121
18603W        W85386  27.295  14.564  14.366
18604W        W85387   4.902   4.258  14.402
18605W        W85388   3.350   6.671  12.070
18606W        W85389  32.054   8.667  13.114
18607W        W85390  17.610  14.864   1.294
18608W        W85391  19.264  14.959   2.733
18609W        W85392   4.914  42.668  11.768
18610W        W85393  31.982  31.969   4.543
18611W        W85394  43.180  14.091  14.103
18612W        W85395  15.396  29.489   0.270
18613W        W85396   4.224  39.968  14.041
18614W        W85397  29.225  29.075   1.225
18615W        W85398  31.961  29.750  14.483
18616W        W85399   5.384  26.707  12.911
18617W        W85400   2.433  14.674   0.328
18618W        W85401  21.234  16.146   1.376
18619W        W85402  34.705  22.504  12.539
18620W        W85403  43.662  17.631  12.937
18621W        W85404  12.083  38.050  11.641
18622W        W85405   2.991  43.787  14.985
18623W        W85406  35.980   3.903   0.837
18624W        W85407  11.751  27.490  12.009
18625W        W85408   3.875  32.819  14.348
18626W        W85409   0.551  15.320   2.998
18627W        W85410  14.522  26.843  10.481
18628W        W85411  27.656  16.609   4.326
18629W        W85412  36.236   3.429  13.882
18630W        W85413  31.934  44.556  14.281
18631W        W85414   2.367   7.416  12.901
18632W        W85415  39.276   3.862  12.151
18633W        W85416   0.883  35.614  11.164
18634W        W85417  11.784   8.007   1.308
18635W        W85418   0.474  31.094  12.526
18636W        W85419  40.221  37.948  13.291
18637W        W85420   7.361  19.981  14.978
18638W        W85421  34.705  26.846   1.917
18639W        W85422  12.850  25.617  10.778
18640W        W85423  16.151  22.321   2.898
18641W        W85424  39.891  15.224   0.805
18642W        W85425  36.852  25.304   4.541
18643W        W85426  37.949   2.278   1.786
18644W        W85427   4.210   5.244   4.865
18645W        W85428  19.977   9.181   0.792
18646W        W85429   1.245   9.714   0.365
18647W        W85430  32.551  12.685  11.088
18648W        W85431   5.884  27.535   1.899
18649W        W85432  15.245  16.585   3.239
18650W        W85433  34.988  28.459   3.547
18651W        W85434   9.660  32.488  11.864
18652W        W85435  42.627  41.988  11.113
18653W        W85436  12.566  38.111  12.442
18654W        W85437  41.451  44.734   1.083
18655W        W85438   4.771  33.362   0.883
18656W        W85439   9.854  20.848   2.666
18657W        W85440  31.405  37.735  11.926
18658W        W85441   5.000   1.809  14.428
18659W        W85442   9.596  40.484   0.414
18660W        W85443   6.816  21.487   1.841
18661W        W85444  11.303   3.154   3.934
18662W        W85445  41.556  20.275  13.817
18663W        W85446  14.130  26.700  14.323
18664W        W85447  28.319  42.224  14.897
18665W        W85448  15.354  14.514   1.733
18666W        W85449   5.588   4.436   0.432
18667W        W85450  35.049  25.515  10.701
18668W        W85451  44.594  15.101  12.853
18669W        W85452  24.089  20.508   0.330
18670W        W85453  12.726  33.565   3.520
18671W        W85454  18.589   4.712   3.135
18672W        W85455  13.478  40.281  11.532
18673W        W85456   8.630  30.503  10.982
18674W        W85457  10.333  16.760  11.275
18675W        W85458  42.815  43.268  13.052
18676W        W85459  40.207   9.250  13.124
18677W        W85460  29.567  29.152  12.104
18678W        W85461  32.150  18.746  13.847
18679W        W85462  41.798  21.247   0.479
18680W        W85463  36.418  42.947   2.933
18681W        W85464   0.048  33.031  10.934
18682W        W85465  23.066  12.257   3.714
18683W        W85466  33.250   0.619  14.495
18684W        W85467  41.934  22.610  12.830
18685W        W85468  18.115  41.288   0.195
18686W        W85469  34.985  18.844   1.923
18687W        W85470  29.615  44.342  13.510
18688W        W85471   6.684  10.386  10.696
18689W        W85472  10.683  37.460  14.638
18690W        W85473  24.924  38.076  13.385
18691W        W85474   3.338  28.949  12.377
18692W        W85475   9.517   6.582  12.948
18693W        W85476  14.153  39.871  13.913
18694W        W85477  35.482  37.428   0.707
18695W        W85478   8.800  24.027  11.125
18696W        W85479  19.088  26.704  14.397
18697W        W85480  39.869  30.687  10.631
18698W        W85481  28.507  42.509  12.620
18699W        W85482  43.220  21.475   2.796
18700W        W85483  18.743  34.853  14.359
18701W        W85484  27.795  13.481   1.831
18702W        W85485  43.415  40.162  11.210
18703W        W85486  28.891  21.298   4.149
18704W        W85487  25.028  19.069   2.727
18705W        W85488  12.655  35.277  11.544
18706W        W85489  37.823  27.680  11.145
18707W        W85490  29.209  17.113  13.937
18708W        W85491  12.969   5.321   1.567
18709W        W85492   6.763  25.074  13.676
18710W        W85493  33.257   5.814   4.159
18711W        W85494  32.704  13.695  14.876
18712W        W85495  28.075  12.583  14.986
18713W        W85496  44.898  22.330  12.094
18714W        W85497  22.752   9.467   4.172
18715W        W85498  28.087  13.228  11.500
18716W        W85499  44.384   6.248  11.464
18717W        W85500  26.691  29.632   2.266
18718W        W85501  36.806  24.587   2.356
18719W        W85502   9.875  11.575   2.241
18720W        W85503  39.563  31.042   1.080
18721W        W85504   9.671  24.600  12.541
18722W        W85505   3.803  41.002  13.283
18723W        W85506  30.845  13.943  11.134
18724W        W85507  40.062  31.859   3.261
18725W        W85508   2.230  40.792  10.329
18726W        W85509  33.060  23.179   2.261
18727W        W85510  44.221  26.092   3.198
18728W        W85511   1.765  14.528  12.460
18729W        W85512  31.095  27.038   3.711
18730W        W85513  19.667  30.792  13.994
18731W        W85514  12.812  16.652  11.681
18732W        W85515  20.486  20.989  13.571
18733W        W85516  36.442   5.427  13.979
18734W        W85517   2.010  13.766  13.915
18735W        W85518   9.961  42.244   1.904
18736W        W85519  36.876  33.583   1.276
18737W        W85520  13.660  18.550  10.831
18738W        W85521  28.089  43.801  12.875
18739W        W85522  26.151   5.946   3.991
18740W        W85523   5.880  38.338  12.804
18741W        W85524  21.640  28.577  12.215
18742W        W85525   4.157  44.063   2.736
18743W        W85526  14.917  33.200  13.099
18744W        W85527  15.170  14.996   5.099
18745W        W85528  16.794  27.973  13.288
18746W        W85529  40.590  38.334  14.837
18747W        W85530  18.560  20.744  13.961
18748W        W85531  37.056   9.689  11.951
18749W        W85532  42.049  41.372   3.636
18750W        W85533  35.257  37.368   1.570
18751W        W85534  26.847  35.148  13.984
18752W        W85535  31.407   3.728   4.739
18753W        W85536  32.847  19.957  14.368
18754W        W85537   0.183  28.465  14.521
18755W        W85538   9.721  16.084   1.461
18756W        W85539  11.039  36.911   5.211
18757W        W85540   9.781  25.220   1.659
18758W        W85541  12.454  22.242   1.476
18759W        W85542   8.177  22.856  10.742
18760W        W85543   8.484  30.662   1.230
18761W        W85544  24.075  23.107  12.000
18762W        W85545  10.332   4.482  11.021
18763W        W85546  31.855  16.166  12.143
18764W        W85547   6.123  19.024   4.439
18765W        W85548  36.519  20.237  11.191
18766W        W85549  38.522  27.515  14.937
18767W        W85550  28.623  20.935  11.176
18768W        W85551   5.840  16.262   0.846
18769W        W85552  19.780  12.919  12.017
18770W        W85553  21.479  23.369   4.999
18771W        W85554  11.082  39.024  13.965
18772W        W85555  35.337  20.084  12.521
18773W        W85556  25.602   7.785  12.445
18774W        W85557  37.108  38.361  12.131
18775W        W85558  34.841  14.259   2.286
18776W        W85559  13.108  27.692  11.146
18777W        W85560  39.791  20.005   1.435
18778W        W85561  27.316   0.418  13.375
18779W        W85562  36.012  43.325   0.318
18780W        W85563  14.177  26.230   1.816
18781W        W85564  41.340  40.029  11.740
18782W        W85565  16.144  31.568   0.419
18783W        W85566  39.250  37.800  12.211
18784W        W85567  15.111  17.023  13.531
18785W        W85568  17.977  30.180   3.630
18786W        W85569  44.486  42.941  11.472
18787W        W85570  34.210  31.320  11.080
18788W        W85571  26.559   4.514  11.934
18789W        W85572  35.659  31.139  10.774
18790W        W85573  24.671  14.082   3.385
18791W        W85574  29.303  39.984  11.385
18792W        W85575  22.130   1.302  11.468
18793W        W85576  36.517  42.926  10.661
18794W        W85577  28.981  31.915   2.860
18795W        W85578  36.100  12.249   4.342
18796W        W85579   2.225  36.160  10.744
18797W        W85580  23.758   9.336  12.209
18798W        W85581  40.687  26.376   1.292
18799W        W85582  27.219  26.478   3.250
18800W        W85583   1.499   9.083  12.950
18801W        W85584  17.706  19.794   0.951
18802W        W85585  24.772   0.534  12.072
18803W        W85586  43.802  37.026  13.587
18804W        W85587   0.340  43.819  12.420
18805W        W85588  31.618  20.605  11.627
18806W        W85589   1.387  28.162  10.441
18807W        W85590  18.737   9.538   2.334
18808W        W85591  21.755  30.694   1.870
18809W        W85592  11.978  21.194  14.362
18810W        W85593  44.876  42.798  11.170
18811W        W85594  27.697   2.896  11.532
18812W        W85595  16.274  18.331   1.699
18813W        W85596  40.523  27.163   0.236
18814W        W85597  35.427  34.435   2.448
18815W        W85598  25.631  41.409  13.188
18816W        W85599  12.785  23.116  13.275
18817W        W85600  37.947  15.033   4.604
18818W        W85601  17.148  30.526   2.315
18819W        W85602  14.595  33.018  13.446
18820W        W85603  20.412   4.922  12.561
18821W        W85604  29.997   7.765  13.560
18822W        W85605  17.729  37.633   1.397
18823W        W85606  32.889   8.430  12.968
18824W        W85607  38.089  30.017   0.926
18825W        W85608   5.713  28.225   0.898
18826W        W85609  27.180  38.929   2.162
18827W        W85610  23.238   1.698  12.358
18828W        W85611  18.112  16.696   3.186
18829W        W85612  34.564   0.964   1.934
18830W        W85613  44.917  16.101  12.071
18831W        W85614   8.773  14.082  12.646
18832W        W85615  16.136   1.661   2.442
18833W        W85616  40.022   0.854   3.225
18834W        W85617  26.180  39.233  10.262
18835W        W85618  37.679  16.900   1.852
18836W        W85619  16.597  25.899  13.387
18837W        W85620  22.598  27.748   0.384
18838W        W85621  39.623  29.354   2.126
18839W        W85622   8.254   2.659   1.593
18840W        W85623  34.620  39.937   2.160
18841W        W85624  26.105   6.363   1.651
18842W        W85625   0.545  16.813   3.262
18843W        W85626  15.122   7.656   1.721
18844W        W85627  35.774  33.145   4.761
18845W        W85628  41.638  34.533  10.669
18846W        W85629   9.407  17.186  12.459
18847W        W85630  41.297  28.151   1.128
18848W        W85631  21.078  14.512  14.232
18849W        W85632   1.466  40.866  10.661
18850W        W85633  27.972  24.885   5.108
18851W        W85634  39.438  33.361  14.459
18852W        W85635  29.857  20.913   3.196
18853W        W85636  29.092  34.383  11.679
18854W        W85637  28.598  40.337   2.151
18855W        W85638  43.413  43.643  14.332
18856W        W85639  20.324  35.914   0.029
18857W        W85640  10.750  41.101   2.918
18858W        W85641  33.993   8.707   2.474
18859W        W85642  43.837  34.100   4.151
18860W        W85643  41.800   4.647   0.398
18861W        W85644  14.054   7.163   1.856
18862W        W85645  21.128  16.730   0.174
18863W        W85646  13.277  23.950  11.296
18864W        W85647  24.512  15.148  10.820
18865W        W85648   5.447  37.049  14.375
18866W        W85649  37.750  11.340   0.239
18867W        W85650  28.648  44.977  10.815
18868W        W85651  22.285  23.990  11.564
18869W        W85652  19.513   0.255  11.032
18870W        W85653  32.021  10.445  13.927
18871W        W85654  43.405  37.752   3.131
18872W        W85655   2.687  40.936  13.896
18873W        W85656  16.558  28.590   4.614
18874W        W85657  14.618  29.948   4.744
18875W        W85658   2.353  21.672   2.648
18876W        W85659   6.201  18.033   4.892
18877W        W85660  33.141  27.519  12.871
18878W        W85661  27.948  20.226  11.156
18879W        W85662   7.758  32.970   0.901
18880W        W85663  42.462   9.024   0.586
18881W        W85664  13.271   6.859   1.356
18882W        W85665  34.431  42.789   3.132
18883W        W85666  16.001  12.977   1.335
18884W        W85667  23.171  29.885  13.967
18885W        W85668  21.505   0.780  10.401
18886W        W85669   4.849  31.089   2.718
18887W        W85670   4.328  10.936  11.405
18888W        W85671  27.246  30.295  12.761
18889W        W85672  21.933  29.922   3.028
18890W        W85673   3.732  32.445  14.777
18891W        W85674  37.226  12.956  13.364
18892W        W85675   3.691  28.560  12.567
18893W        W85676  23.633  41.560   0.132
18894W        W85677  23.760   8.635   3.457
18895W        W85678  28.240  37.561   4.661
18896W        W85679  34.836  41.690   0.414
18897W        W85680  30.017  18.660   4.907
18898W        W85681  16.104   7.405  13.942
18899W        W85682  16.803  37.497   1.320
18900W        W85683  25.216  41.870  14.895
18901W        W85684   1.347  24.791   1.737
18902W        W85685  29.422  30.953   4.158
18903W        W85686  24.081  21.823   2.448
18904W        W85687  16.939  26.557  12.431
18905W        W85688  10.938  27.605  10.414
18906W        W85689  31.613  22.830   0.866
18907W        W85690  35.818  35.838   1.487
18908W        W85691  30.997  34.419  14.967
18909W        W85692  25.818  37.972  14.566
18910W        W85693  32.824  12.359  11.529
18911W        W85694  29.861  15.655   4.007
18912W        W85695   2.201  39.088   3.167
18913W        W85696  20.030  20.552  12.823
18914W        W85697   2.017  22.499  13.867
18915W        W85698  42.877  39.744  14.424
18916W        W85699   5.923   5.303  14.947
18917W        W85700  11.588  39.158  12.109
18918W        W85701  14.811  31.453   0.633
18919W        W85702   1.760   1.265  11.765
18920W        W85703   2.178   7.701   0.100
18921W        W85704  38.613  44.888  12.948
18922W        W85705   1.020   7.292   4.213
18923W        W85706   8.674   1.361  12.115
18924W        W85707  36.674   6.159  13.144
18925W        W85708   0.715  34.819   4.039
18926W        W85709  44.541  13.242  13.868
18927W        W85710  27.529  25.565  10.604
18928W        W85711  34.538  20.487   3.208
18929W        W85712  41.919  34.580  13.434
18930W        W85713  39.186   9.113  14.984
18931W        W85714  14.711  40.939   1.006
18932W        W85715  18.494   5.937   4.713
18933W        W85716  25.218  38.589   0.734
18934W        W85717  17.567  35.939  11.456
18935W        W85718  32.965  35.816   2.825
18936W        W85719  28.393  24.945  11.681
18937W        W85720  20.348   9.657  12.482
18938W        W85721  10.204  15.388  13.837
18939W        W85722  42.597  36.342   4.217
18940W        W85723  41.552   1.804   3.796
18941W        W85724  18.948   8.642   0.403
18942W        W85725  41.617  44.536  14.512
18943W        W85726  14.877  38.054   2.526
18944W        W85727  30.811  14.697   1.913
18945W        W85728  10.778  24.216   3.170
18946W        W85729  22.941  30.838  12.494
18947W        W85730  38.733  30.115   2.016
18948W        W85731  37.946  44.148   4.315
18949W        W85732  15.852  15.653  14.911
18950W        W85733  15.462  17.777   9.846
18951W        W85734  20.956  23.993   1.967
18952W        W85735   5.179  32.012   4.909
18953W        W85736  14.943  13.020  11.110
18954W        W85737  10.771  16.062  12.884
18955W        W85738   1.942  29.444  12.025
18956W        W85739  35.669  35.432   0.876
18957W        W85740  26.467   4.043  13.076
18958W        W85741  29.216   9.378   4.086
18959W        W85742  30.959   5.412   2.404
18960W        W85743   2.259  42.656   0.330
18961W        W85744  26.691  29.209  13.068
18962W        W85745  36.504  30.263  12.000
18963W        W85746  17.807  31.872   1.532
18964W        W85747   7.526  43.245  14.399
18965W        W85748  18.618  22.255   1.341
18966W        W85749  33.620  10.766  14.286
18967W        W85750  34.425   5.811  10.260
18968W        W85751   5.061  19.725  14.827
18969W        W85752   0.444   7.321  13.875
18970W        W85753  16.237  12.722  10.306
18971W        W85754   6.264  31.483  13.930
18972W        W85755  26.707   4.950   3.805
18973W        W85756  33.890  28.641  10.773
18974W        W85757  19.909  13.413  12.066
18975W        W85758  33.677  18.631  11.987
18976W        W85759  22.493   7.210   1.543
18977W        W85760  19.257   3.412  10.912
18978W        W85761  21.557  22.573   1.247
18979W        W85762  25.184  14.900   2.955
18980W        W85763  28.916  41.864  10.996
18981W        W85764  12.774   5.682   4.347
18982W        W85765  21.157  32.909   4.903
18983W        W85766  37.308   9.958   4.953
18984W        W85767  26.191  13.770  10.690
18985W        W85768  28.180  39.676  10.716
18986W        W85769  41.781  13.636  14.849
18987W        W85770  41.256  26.299  14.512
18988W        W85771   4.402  34.805  10.751
18989W        W85772  37.394  16.103   2.646
18990W        W85773  40.545   8.302  12.843
18991W        W85774  25.291  24.175   0.776
18992W        W85775  44.076  30.510   2.827
18993W        W85776  28.943  27.366   1.854
18994W        W85777  23.628  18.181  13.121
18995W        W85778  10.315  26.185  11.543
18996W        W85779   3.306  41.293   4.143
18997W        W85780  44.793   2.705   3.675
18998W        W85781  42.011  20.476  13.493
18999W        W85782  34.875   5.125  13.322
19000W        W85783   4.435  39.773  14.971
19001W        W85784  36.119  28.730  12.531
19002W        W85785  32.318  12.827  14.786
19003W        W85786  33.740   0.464  10.380
19004W        W85787  26.529  42.312   2.631
19005W        W85788  43.312   6.529  11.583
19006W        W85789  20.249  20.060  11.547
19007W        W85790  14.389  43.075  11.685
19008W        W85791  39.334   3.237  11.103
19009W        W85792  24.687  41.239   0.516
19010W        W85793  39.418   0.393   1.162
19011W        W85794   2.765  10.150  11.616
19012W        W85795  42.285  16.652  13.687
19013W        W85796   0.787  25.653  12.945
19014W        W85797  15.213  27.617  12.376
19015W        W85798  36.528  39.539  13.993
19016W        W85799  31.054  32.080  11.279
19017W        W85800  10.150  13.685   1.734
19018W        W85801  39.618  38.860   0.321
19019W        W85802   0.815  16.677   0.099
19020W        W85803  22.466  41.570  13.373
19021W        W85804  25.517  16.616  13.778
19022W        W85805  24.821  23.431  10.286
19023W        W85806   1.849  20.799  14.706
19024W        W85807  39.106  22.636   4.443
19025W        W85808  25.895  14.204  14.664
19026W        W85809  44.502  11.562   4.991
19027W        W85810  20.187   2.480  12.947
19028W        W85811  23.976  26.585   0.327
19029W        W85812  23.960  28.921   1.874
19030W        W85813  27.948  11.138  11.589
19031W        W85814  25.961  11.170  11.550
19032W        W85815   0.539  30.552   2.975
19033W        W85816  16.673  10.370  14.348
19034W        W85817  24.968   7.297  11.103
19035W        W85818  24.636  38.437   2.924
19036W        W85819  10.633  26.289   2.334
19037W        W85820  18.326  26.224   4.733
19038W        W85821  25.971  10.674   2.798
19039W        W85822   5.225   9.063   0.415
19040W        W85823   0.846  11.909   0.370
19041W        W85824  14.164  44.419   1.382
19042W        W85825   1.609  11.884  14.948
19043W        W85826  41.131   4.578   4.040
19044W        W85827  44.416  29.042   1.972
19045W        W85828  10.396  40.277   1.909
19046W        W85829  14.115  37.505  13.501
19047W        W85830  25.160  27.708  14.216
19048W        W85831  17.720   0.435   4.404
19049W        W85832  40.213  19.712   0.501
19050W        W85833  38.831  27.568  13.450
19051W        W85834  21.014  42.336  11.972
19052W        W85835   4.659  30.384   0.007
19053W        W85836  29.701  17.978  14.190
19054W        W85837  16.876  40.109  11.028
19055W        W85838  22.499  26.026  14.871
19056W        W85839  17.565  26.661  11.088
19057W        W85840  41.392  33.416   0.114
19058W        W85841  43.239  12.720   4.549
19059W        W85842  35.457  32.940  14.775
19060W        W85843   2.913  10.829  12.017
19061W        W85844  10.430  34.026   4.581
19062W        W85845   1.200  12.425   1.010
19063W        W85846  11.862   7.320  13.576
19064W        W85847  15.523  41.288   0.952
19065W        W85848  36.359   2.897  10.953
19066W        W85849  43.303  24.478  12.495
19067W        W85850   7.801  29.493   1.802
19068W        W85851   6.706  34.784  14.311
19069W        W85852   5.854  17.225  14.401
19070W        W85853  39.432   3.453   3.297
19071W        W85854  23.794  41.390   3.155
19072W        W85855  25.397  44.195   4.942
19073W        W85856  23.028   3.334   3.567
19074W        W85857  36.790  42.816   1.446
19075W        W85858  21.561  19.294   3.123
19076W        W85859   3.470   4.690   2.858
19077W        W85860  23.669  18.744  13.306
19078W        W85861  35.073  27.558  10.587
19079W        W85862  36.375  22.452   2.197
19080W        W85863  43.235  37.344   4.379
19081W        W85864  27.002  16.809   3.160
19082W        W85865   2.918  17.840   4.855
19083W        W85866  29.604  34.280   1.562
19084W        W85867  18.736  28.499  14.540
19085W        W85868  39.016  24.573  14.498
19086W        W85869  28.764  25.049   1.373
19087W        W85870  41.471  38.292   1.072
19088W        W85871   0.156  37.137   0.900
19089W        W85872   1.655   5.601  11.172
19090W        W85873   2.696  42.871  11.653
19091W        W85874  22.490  19.192  12.933
19092W        W85875  11.343  42.535   2.089
19093W        W85876  33.534   1.894  13.261
19094W        W85877  10.250  43.751   3.149
19095W        W85878   7.058  24.581  11.515
19096W        W85879  20.119  38.974  11.488
19097W        W85880  43.541  18.741  14.826
19098W        W85881  35.669  10.273  14.941
19099W        W85882  20.204  13.905  12.562
19100W        W85883  12.280  28.163   0.332
19101W        W85884  12.947  39.374  12.151
19102W        W85885  14.984   9.925   9.949
19103W        W85886   9.105  30.438  11.181
19104W        W85887  24.954  18.162   1.730
19105W        W85888  13.478  11.344   0.522
19106W        W85889  44.759  33.379  10.722
19107W        W85890   5.490  27.529  14.446
19108W        W85891  15.473   0.742   1.872
19109W        W85892  27.467  21.454   3.330
19110W        W85893  10.943  13.737  11.236
19111W        W85894  27.220  13.867   4.406
19112W        W85895   4.771  34.621   2.375
19113W        W85896   3.488  44.793   0.268
19114W        W85897  32.677  20.962  11.775
19115W        W85898   2.727  29.656   1.429
19116W        W85899  37.224  13.208  11.574
19117W        W85900  12.202  11.346  13.397
19118W        W85901  23.750  17.681  11.159
19119W        W85902  37.036  15.714  13.064
19120W        W85903  31.048   8.793   2.421
19121W        W85904  34.298  11.375   0.204
19122W        W85905  18.749  41.244  14.341
19123W        W85906  32.156  37.564   3.785
19124W        W85907   7.681  18.181   0.843
19125W        W85908   3.143  10.640   2.958
19126W        W85909   0.541  10.270  14.906
19127W        W85910  34.627  12.671   2.178
19128W        W85911  26.341  35.602  14.358
19129W        W85912  12.727   9.712  11.193
19130W        W85913  26.213  38.961   4.085
19131W        W85914   9.350  10.061   3.329
19132W        W85915  15.872  29.263  13.525
19133W        W85916  22.127  15.653  11.060
19134W        W85917  43.824  35.487  14.491
19135W        W85918  29.386  13.451   3.192
19136W        W85919  40.286  13.650   3.273
19137W        W85920   6.221  43.264   2.877
19138W        W85921  10.577  35.427   2.148
19139W        W85922  30.718  12.129   5.057
19140W        W85923  41.484  27.176  13.983
19141W        W85924  36.612  24.525   4.216
19142W        W85925  17.044   1.422   1.186
19143W        W85926  32.010   2.308   1.779
19144W        W85927  30.041  25.646   0.025
19145W        W85928  17.682   6.964  13.268
19146W        W85929   4.347  35.895   1.162
19147W        W85930  36.435   0.782  12.012
19148W        W85931   6.976   1.572   3.667
19149W        W85932  17.143  17.661  11.982
19150W        W85933   2.199  25.138   1.896
19151W        W85934  34.526   8.277   0.735
19152W        W85935  35.908  44.490   2.877
19153W        W85936   2.259   0.894  14.829
19154W        W85937  33.774  22.261  12.305
19155W        W85938  11.105  43.321  10.952
19156W        W85939  27.072  12.689  12.204
19157W        W85940  37.526   0.230  11.210
19158W        W85941  20.094   1.886   4.484
19159W        W85942  37.788   1.519  14.556
19160W        W85943  34.421  41.653  10.815
19161W        W85944  14.755  19.245   4.736
19162W        W85945  31.999  26.540  13.390
19163W        W85946   8.172  38.850  12.645
19164W        W85947  24.658  30.493   3.747
19165W        W85948  32.230  19.101   3.622
19166W        W85949   7.973   7.685   2.089
19167W        W85950  32.643   2.028  11.158
19168W        W85951  19.142   2.697   4.879
19169W        W85952   8.256  28.713   4.503
19170W        W85953   3.459  21.758   0.808
19171W        W85954  10.450  15.821   2.743
19172W        W85955   2.358  12.297   4.313
19173W        W85956   1.996  11.395  12.046
19174W        W85957  23.522  34.543   3.855
19175W        W85958  11.705   4.798   2.270
19176W        W85959  42.464   5.366   3.302
19177W        W85960   9.031   9.401   2.204
19178W        W85961  42.522  20.604  13.943
19179W        W85962   6.171  21.831   0.286
19180W        W85963  37.894  33.717  13.231
19181W        W85964  17.780  40.836  11.487
19182W        W85965  10.763  28.965   2.813
19183W        W85966  44.027  18.074  13.843
19184W        W85967  32.379  25.906  11.273
19185W        W85968  33.543  33.373   4.529
19186W        W85969  30.523  27.902  11.601
19187W        W85970  44.982  21.152  13.714
19188W        W85971   0.672  44.163   4.691
19189W        W85972  41.415  44.744   4.848
19190W        W85973   5.468  10.500  11.331
19191W        W85974  37.814  36.686  13.152
19192W        W85975  42.871  32.793   3.842
19193W        W85976  14.677  39.873  13.901
19194W        W85977  10.404   6.509  12.920
19195W        W85978  21.735  25.224  11.572
19196W        W85979  12.844  25.587  13.551
19197W        W85980  18.985  37.563  13.482
19198W        W85981  10.243  41.372  14.875
19199W        W85982  18.060  34.481  12.394
19200W        W85983   6.295  29.114  13.439
19201W        W85984  30.221   7.597  14.383
19202W        W85985  37.835   5.398   4.079
19203W        W85986  28.371   0.729   3.240
19204W        W85987  35.828   1.901  13.479
19205W        W85988  18.836  36.815  12.599
19206W        W85989   5.079   1.832   2.689
19207W        W85990   4.972  23.555  14.353
19208W        W85991  38.502  24.612   1.449
19209W        W85992  16.918   5.077  12.170
19210W        W85993   6.425  11.842  10.630
19211W        W85994  22.690  17.342   2.712
19212W        W85995   9.852  40.907  10.737
19213W        W85996  23.634  25.444  14.002
19214W        W85997   3.858  44.027  11.237
19215W        W85998  23.146  23.776  12.851
19216W        W85999  14.072  23.078   3.673
19217W        W86000  32.579  43.241  10.557
19218W        W86001  30.213  14.900   0.072
19219W        W86002  34.746   7.916   4.564
19220W        W86003  22.842  37.861   1.382
19221W        W86004  33.634  43.288  13.304
19222W        W86005  41.944  12.640   4.213
19223W        W86006   1.142  14.797  11.615
19224W        W86007  41.808   9.828   3.303
19225W        W86008   4.382  38.673  11.855
19226W        W86009  35.495  33.161  11.620
19227W        W86010  26.378  33.840   2.922
19228W        W86011  10.204  12.072   3.592
19229W        W86012   2.235   3.363  10.668
19230W        W86013  10.737  40.311   3.804
19231W        W86014   0.957  22.033  14.571
19232W        W86015  18.712  20.738   2.013
19233W        W86016  34.134   7.840  13.445
19234W        W86017  30.970   6.999  10.170
19235W        W86018   4.720   0.857  13.407
19236W        W86019  30.143  14.341  13.401
19237W        W86020  30.747   2.236  14.122
19238W        W86021   9.130  15.227   3.341
19239W        W86022  31.623  20.707  12.539
19240W        W86023  20.462  40.741   1.867
19241W        W86024  25.781  16.023  11.211
19242W        W86025  38.049  18.835   0.263
19243W        W86026  22.100  42.507   4.897
19244W        W86027   3.209  15.270  12.468
19245W        W86028  28.958  31.719   4.178
19246W        W86029  36.348  43.380  11.990
19247W        W86030  27.349   1.832  14.033
19248W        W86031  30.466   0.360   2.289
19249W        W86032  10.587  10.343   2.734
19250W        W86033  26.487  21.669  12.865
19251W        W86034  27.798  11.761  11.964
19252W        W86035  29.078  13.641   4.772
19253W        W86036  31.435  16.692   4.226
19254W        W86037  37.980   1.410  10.930
19255W        W86038  30.369  43.953   1.385
19256W        W86039  42.766  21.925   4.007
19257W        W86040  22.053  22.833   0.780
19258W        W86041  34.012  23.701   3.632
19259W        W86042  37.997  39.037  11.671
19260W        W86043  13.751  38.958   2.637
19261W        W86044  29.163   8.874   2.451
19262W        W86045  18.551  22.171   1.853
19263W        W86046  40.556  32.797   3.774
19264W        W86047   9.312  33.530   0.375
19265W        W86048  21.112   7.100  12.052
19266W        W86049  18.622  37.784  11.212
19267W        W86050  14.275   6.393   4.587
19268W        W86051  19.737  12.352  12.949
19269W        W86052  33.954  18.390   0.478
19270W        W86053  42.748  10.716  12.497
19271W        W86054  36.023  25.681   1.306
19272W        W86055  31.092  29.668   4.795
19273W        W86056  38.674  33.384  11.482
19274W        W86057  11.765  37.564  11.457
19275W        W86058   1.735   4.840  10.645
19276W        W86059  37.523  19.447  11.020
19277W        W86060  19.763   0.946  13.089
19278W        W86061  37.853  21.032   4.408
19279W        W86062   2.233   7.630   2.251
19280W        W86063   3.213  16.125   4.085
19281W        W86064   8.071  11.449   1.555
19282W        W86065  38.897   0.334   0.183
19283W        W86066  27.116  20.545   1.776
19284W        W86067  22.369   4.317  12.970
19285W        W86068  39.794  34.887   1.130
19286W        W86069  44.824   1.824   0.440
19287W        W86070  30.146  44.424   1.246
19288W        W86071  29.050  25.143   0.483
19289W        W86072   5.178  25.995   2.880
19290W        W86073  22.191  16.744  13.949
19291W        W86074  26.125   8.704   2.228
19292W        W86075  27.642  33.830  13.942
19293W        W86076  44.049  23.142  13.486
19294W        W86077   2.036  26.664   1.701
19295W        W86078  21.327  41.288   0.511
19296W        W86079   4.871   3.442   2.992
19297W        W86080   5.945   2.988   0.849
19298W        W86081  13.217  12.193   4.580
19299W        W86082  36.806  43.830  11.194
19300W        W86083  37.503   5.164  14.332
19301W        W86084  29.102  15.984  10.661
19302W        W86085  41.116  18.495  12.884
19303W        W86086  12.691  35.609   1.755
19304W        W86087  30.217   9.803   2.667
19305W        W86088  21.238  29.385  14.887
19306W        W86089  33.062  25.087   4.790
19307W        W86090  27.740  12.820  11.096
19308W        W86091  33.128  15.837   0.428
19309W        W86092  15.485   7.047  13.352
19310W        W86093  16.785  31.059   0.013
19311W        W86094  26.263  18.158   4.361
19312W        W86095  28.197  32.983   2.394
19313W        W86096  35.916  33.488   1.196
19314W        W86097  17.118  31.163  14.574
19315W        W86098   9.422  31.603  12.343
19316W        W86099  32.731  28.675  13.508
19317W        W86100   6.571   2.903   1.509
19318W        W86101  42.503   4.967  12.997
19319W        W86102  11.448  13.167  13.870
19320W        W86103  41.445  35.808   3.868
19321W        W86104  13.252  21.925  10.984
19322W        W86105  16.100  14.569  14.385
19323W        W86106   7.467  11.439   3.756
19324W        W86107  32.746  39.304  13.052
19325W        W86108  13.432   8.976   1.480
19326W        W86109  33.619  27.524   2.360
19327W        W86110   8.741  23.765   0.343
19328W        W86111  33.583  16.686   1.419
19329W        W86112   3.663  34.053  12.026
19330W        W86113   4.868   8.143   1.242
19331W        W86114  38.392  29.915  13.566
19332W        W86115   1.949  31.156   3.330
19333W        W86116  32.562  44.854   3.207
19334W        W86117  43.779   7.182  13.523
19335W        W86118  43.533   2.215   3.637
19336W        W86119  13.025  33.972  13.769
19337W        W86120  32.978  15.919  11.016
19338W        W86121  25.010  31.970   4.114
19339W        W86122   8.335  13.243  12.190
19340W        W86123  25.627  25.663  12.567
19341W        W86124  22.681   8.894  11.897
19342W        W86125  31.731  33.048   3.910
19343W        W86126  18.550  10.705   0.746
19344W        W86127  40.662  19.536  13.064
19345W        W86128   6.805  43.224  10.594
19346W        W86129  10.661  12.717   4.337
19347W        W86130  25.930  30.595   1.294
19348W        W86131   2.164   7.152  11.258
19349W        W86132  35.811   0.217   3.854
19350W        W86133  33.367  41.419   2.850
19351W        W86134  29.554  25.012   4.979
19352W        W86135  26.169  38.973   2.172
19353W        W86136  26.721   7.636  13.047
19354W        W86137  35.824  37.306   2.764
19355W        W86138  14.224  25.103   0.910
19356W        W86139   7.375  29.145   1.879
19357W        W86140   3.824   6.461  12.743
19358W        W86141  30.632   5.876   3.095
19359W        W86142  42.761  18.330   0.733
19360W        W86143  23.868  43.232  11.312
19361W        W86144  13.636  37.464  13.304
19362W        W86145  12.565  25.147   2.666
19363W        W86146   4.444  23.150  14.466
19364W        W86147  33.668  16.002   2.180
19365W        W86148   4.597  14.207   3.265
19366W        W86149  28.011  25.271  10.146
19367W        W86150  32.535  41.289   2.897
19368W        W86151  32.141  42.862   0.440
19369W        W86152  28.559  36.537   2.244
19370W        W86153   9.551  43.314   0.348
19371W        W86154  12.753  13.659   3.812
19372W        W86155  33.625  18.113  14.047
19373W        W86156  11.244  24.739   2.795
19374W        W86157  32.440  20.636  12.141
19375W        W86158  13.896  24.557  11.580
19376W        W86159  14.782   8.169   3.727
19377W        W86160  21.571  26.236   1.843
19378W        W86161  44.751  35.936   0.455
19379W        W86162   1.483  41.602  13.073
19380W        W86163  11.419  20.020   2.292
19381W        W86164   7.869  19.974  12.904
19382W        W86165  19.558  38.621   2.721
19383W        W86166   3.692   2.839   3.232
19384W        W86167  30.901  32.344   1.254
19385W        W86168  17.288  38.587  11.082
19386W        W86169  38.769  18.406  10.530
19387W        W86170  38.523  10.166  12.075
19388W        W86171  18.008  21.150   3.226
19389W        W86172   9.050  11.322   1.580
19390W        W86173   9.588  16.785   0.293
19391W        W86174  30.876  26.877   2.722
19392W        W86175  19.574  10.285  11.512
19393W        W86176  40.794  30.659  11.593
19394W        W86177  38.305  15.770  10.761
19395W        W86178  43.255  39.623  12.904
19396W        W86179   0.463  44.361   4.208
19397W        W86180  23.681  17.038   3.861
19398W        W86181   7.445  37.505  13.857
19399W        W86182   1.448  44.645   3.117
19400W        W86183   6.351  27.214   0.407
19401W        W86184  37.901  31.611  12.953
19402W        W86185  14.054  33.021  14.827
19403W        W86186  34.652  32.362  13.353
19404W        W86187   7.564  15.432   2.653
19405W        W86188  38.890  30.886   3.618
19406W        W86189  10.121  18.652  13.972
19407W        W86190  34.593  35.581  13.077
19408W        W86191   5.692  16.118  12.958
19409W        W86192  15.355  33.406  12.058
19410W        W86193  32.730   7.521   1.787
19411W        W86194  44.250  41.858  12.344
19412W        W86195  13.605   6.930  13.576
19413W        W86196  23.055  14.712   1.718
19414W        W86197  31.363   0.827  12.022
19415W        W86198   7.276   1.237   3.924
19416W        W86199   2.210  22.070  13.084
19417W        W86200  35.537  39.903   3.106
19418W        W86201   8.251  11.225   2.810
19419W        W86202  36.603   5.929  13.861
19420W        W86203  28.094  27.429  11.816
19421W        W86204  17.540  23.247   3.665
19422W        W86205  18.103  13.034   4.990
19423W        W86206  25.282  37.742   5.092
19424W        W86207   7.355  34.934   0.720
19425W        W86208   1.720   7.826  14.452
19426W        W86209   5.490  32.171   0.752
19427W        W86210  26.543  25.782  11.407
19428W        W86211  24.495  41.090   3.813
19429W        W86212  21.290  14.009  10.941
19430W        W86213  36.038  41.885  14.799
19431W        W86214  20.643  12.466   9.929
19432W        W86215  40.538  42.535  13.276
19433W        W86216  28.907  18.002  11.767
19434W        W86217  43.209  32.055   1.397
19435W        W86218   2.780  40.414   4.582
19436W        W86219   6.892  18.347  13.752
19437W        W86220  43.311  27.541   0.303
19438W        W86221  16.132  36.872  12.839
19439W        W86222  13.880  37.051  13.541
19440W        W86223  43.750  16.755   5.070
19441W        W86224  13.145   9.046   3.108
19442W        W86225  20.491  14.382  13.500
19443W        W86226  38.812   5.943  11.078
19444W        W86227  22.169  20.066  14.855
19445W        W86228  23.621  31.329   1.727
19446W        W86229  40.102   3.958  12.915
19447W        W86230   6.453  30.116   0.123
19448W        W86231  44.307  29.239  14.982
19449W        W86232  18.371  15.221   1.436
19450W        W86233   3.692  13.442  10.972
19451W        W86234   9.014  32.351   2.785
19452W        W86235   8.744  40.046   2.439
19453W        W86236  11.775  43.693   4.577
19454W        W86237  28.378  39.254  11.996
19455W        W86238  43.773  30.040  14.662
19456W        W86239  37.072  21.822  10.970
19457W        W86240  20.556  30.612  12.682
19458W        W86241  41.898  25.034  11.108
19459W        W86242  30.606   7.164  11.513
19460W        W86243  22.507  11.790   1.675
19461W        W86244  36.413  13.156  12.097
19462W        W86245  29.243  30.093   2.281
19463W        W86246  27.748  37.009  12.953
19464W        W86247  25.179  27.655   4.569
19465W        W86248   3.517  11.155   0.673
19466W        W86249  16.545  20.682  12.411
19467W        W86250  29.170  25.076   3.645
19468W        W86251   1.747  16.879   4.502
19469W        W86252  10.886  33.482  14.455
19470W        W86253  14.838  19.662  11.575
19471W        W86254  15.662  39.302  12.535
19472W        W86255  14.162  19.041   3.722
19473W        W86256  36.998  30.755  14.803
19474W        W86257  12.209  28.211   1.275
19475W        W86258  39.370  20.991   0.188
19476W        W86259  28.964  14.985  12.843
19477W        W86260  25.638   8.804  13.780
19478W        W86261  40.476  17.600  14.242
19479W        W86262  38.035  38.621   1.930
19480W        W86263  13.848  33.341   1.255
19481W        W86264  26.437  10.042   2.356
19482W        W86265  25.147   5.848  12.966
19483W        W86266  27.364  25.500   1.881
19484W        W86267  15.065  17.838   2.423
19485W        W86268  44.749  10.769   3.236
19486W        W86269  10.116  20.756   0.015
19487W        W86270  34.882   5.470   2.385
19488W        W86271  26.014  24.133  14.274
19489W        W86272  25.655  27.086  12.541
19490W        W86273  19.908  14.308  12.469
19491W        W86274  11.126  41.877  12.085
19492W        W86275  19.093  42.613   2.662
19493W        W86276  44.804  42.388   3.943
19494W        W86277   9.373  35.050  12.359
19495W        W86278  25.873  30.658   4.194
19496W        W86279  19.877  16.155  10.400
19497W        W86280  43.579  34.597   3.233
19498W        W86281  15.652  18.162   4.294
19499W        W86282  12.325  20.128   0.223
19500W        W86283  41.524   0.274   4.654
19501W        W86284  40.480  43.984   3.278
19502W        W86285  31.070  40.581   4.098
19503W        W86286  18.742  17.323   2.734
19504W        W86287   8.238   4.278   0.071
19505W        W86288   0.791  12.743   2.406
19506W        W86289  39.069  15.254   2.881
19507W        W86290  10.788  26.470  11.574
19508W        W86291   0.191  25.694  12.053
19509W        W86292  32.601  42.268   0.817
19510W        W86293  34.932  34.861   1.035
19511W        W86294  16.513  26.034  11.302
19512W        W86295  34.003  24.569   3.904
19513W        W86296  23.182  22.750   3.082
19514W        W86297  39.397  36.334   1.976
19515W        W86298  18.777   5.822   2.395
19516W        W86299  38.850  17.245  13.030
19517W        W86300  42.669  42.480   1.857
19518W        W86301   3.270  12.369   1.824
19519W        W86302  33.376   7.255  12.572
19520W        W86303   9.463  38.791  10.194
19521W        W86304  23.384  39.499   4.185
19522W        W86305   1.412  42.154  13.117
19523W        W86306  13.134   9.689  11.522
19524W        W86307   3.189   0.156   2.812
19525W        W86308   5.963   3.600   4.248
19526W        W86309  27.552   1.523   4.300
19527W        W86310   3.838  17.008  13.234
19528W        W86311  41.535  23.785  14.542
19529W        W86312  35.011   3.497  10.299
19530W        W86313  39.213  39.989   4.505
19531W        W86314  19.779  27.525  13.860
19532W        W86315  35.593   0.291  12.188
19533W        W86316   0.062  27.994  10.545
19534W        W86317  23.760   8.123   1.143
19535W        W86318  42.613  16.455   4.928
19536W        W86319   6.357  15.987   3.621
19537W        W86320  21.440  35.990  13.052
19538W        W86321   7.876  43.216   2.225
19539W        W86322   1.467   2.977   0.479
19540W        W86323  33.985  23.921  14.166
19541W        W86324  38.487  12.326   1.713
19542W        W86325  36.441  38.625  10.572
19543W        W86326  32.371  11.806   3.606
19544W        W86327  33.681  43.993   2.402
19545W        W86328  38.095  20.759   4.781
19546W        W86329  26.220  12.191  12.949
19547W        W86330   4.138  32.430   0.092
19548W        W86331  25.130  38.363   2.809
19549W        W86332  38.033  41.062   3.438
19550W        W86333  44.610  10.933   0.751
19551W        W86334  34.661  13.006   4.632
19552W        W86335  35.807  42.062  12.930
19553W        W86336  25.731   1.881   4.594
19554W        W86337  21.521  16.651   1.928
19555W        W86338  33.567  32.589  12.314
19556W        W86339   1.700  17.309   3.575
19557W        W86340   6.476  12.917   2.556
19558W        W86341  15.385  28.612   2.265
19559W        W86342  14.228  40.955  13.990
19560W        W86343  15.744  32.836   2.038
19561W        W86344  12.708  23.305  13.973
19562W        W86345  35.488  31.993  14.951
19563W        W86346  38.066  14.741  13.366
19564W        W86347   3.858   0.836   3.248
19565W        W86348  14.364  24.174  13.971
19566W        W86349  43.891  41.703  13.111
19567W        W86350  35.436   8.809   2.607
19568W        W86351  21.056  18.023  14.329
19569W        W86352  36.675  41.522   3.568
19570W        W86353  19.928  33.104  11.131
19571W        W86354  25.105  37.786   1.415
19572W        W86355  12.337  28.170  14.418
19573W        W86356  32.149  30.399   2.424
19574W        W86357  42.153  20.168   2.448
19575W        W86358   4.262  13.410   4.717
19576W        W86359  28.091   9.211  11.618
19577W        W86360   2.350   8.806  13.369
19578W        W86361  14.369  38.499  12.522
19579W        W86362  14.823  35.471  11.995
19580W        W86363  40.803   7.582   0.970
19581W        W86364  15.233   8.407   3.658
19582W        W86365  43.709  19.824   3.568
19583W        W86366  39.038  25.471   0.570
19584W        W86367  24.669   1.349   0.034
19585W        W86368   5.745  19.975  13.891
19586W        W86369  37.179  35.714   4.370
19587W        W86370  25.678  23.552  13.284
19588W        W86371  28.924  40.004  11.023
19589W        W86372   5.908  40.741   0.302
19590W        W86373  24.754   6.300  11.010
19591W        W86374  44.328  18.036  10.517
19592W        W86375  24.654  24.362  13.155
19593W        W86376  42.467  18.160  14.070
19594W        W86377  22.276   9.775  14.499
19595W        W86378   8.111  31.017  13.094
19596W        W86379  39.568  41.589   0.304
19597W        W86380  33.540  19.956   3.965
19598W        W86381  10.265  37.450  14.308
19599W        W86382  30.362  38.140   3.717
19600W        W86383  42.789  37.313   4.058
19601W        W86384  35.031  43.298   1.442
19602W        W86385  34.181  22.139   4.544
19603W        W86386  16.618  32.381   0.212
19604W        W86387  34.360  21.200  14.236
19605W        W86388  14.885  18.297  11.723
19606W        W86389  22.508  43.485   1.373
19607W        W86390   8.254  21.997  13.496
19608W        W86391  20.738  21.046   0.996
19609W        W86392  40.387  42.377   1.422
19610W        W86393  10.324  31.733  14.826
19611W        W86394  27.414  29.897   3.170
19612W        W86395  40.285  39.472  11.391
19613W        W86396  33.625  36.397   0.386
19614W        W86397  30.075  30.392  13.094
19615W        W86398   3.798   3.929  11.098
19616W        W86399  17.039  32.685   3.558
19617W        W86400   7.452   6.539  13.952
19618W        W86401  21.414  17.573  10.764
19619W        W86402  14.257  40.456  11.037
19620W        W86403  21.488  34.487   0.759
19621W        W86404   4.271  20.776   3.101
19622W        W86405  44.874  23.452   1.417
19623W        W86406  10.801  33.599  13.946
19624W        W86407  18.950   1.880  10.257
19625W        W86408   1.155  34.726  11.834
19626W        W86409  23.139  38.550   4.252
19627W        W86410  38.847  20.977   1.013
19628W        W86411  13.871  35.427  13.803
19629W        W86412  10.121  15.860  12.949
19630W        W86413  42.004  19.038   2.659
19631W        W86414  31.645  12.997   2.904
19632W        W86415  25.821  42.161  11.013
19633W        W86416   9.820  11.034   2.192
19634W        W86417  23.242  39.497  12.042
19635W        W86418   1.115  40.178   1.729
19636W        W86419  35.352  42.527  14.094
19637W        W86420  12.801  34.342   1.270
19638W        W86421  42.324   5.321  11.211
19639W        W86422   8.218  12.052   2.477
19640W        W86423  40.869  38.362   3.061
19641W        W86424  40.008  27.111   0.302
19642W        W86425   9.628  34.543  14.809
19643W        W86426  11.942  29.769   2.842
19644W        W86427  13.327  18.237   5.042
19645W        W86428   8.267  34.306   2.153
19646W        W86429  37.607  35.152   3.339
19647W        W86430  11.204  17.815  10.914
19648W        W86431   1.079  32.014  14.402
19649W        W86432  10.163  30.729  13.940
19650W        W86433  29.859  11.829  12.090
19651W        W86434  28.983  17.023  11.656
19652W        W86435  21.714  19.449   2.141
19653W        W86436  18.720  36.386  12.336
19654W        W86437  38.463  21.499  11.489
19655W        W86438  13.088   0.305   2.895
19656W        W86439  33.112  41.534   2.222
19657W        W86440  38.605  26.223   3.288
19658W        W86441  31.561   1.015   2.448
19659W        W86442  28.708  33.620   1.151
19660W        W86443  20.697  14.083   1.942
19661W        W86444  34.342  29.197   2.715
19662W        W86445  37.153  17.758  12.408
19663W        W86446  40.444   8.341   1.297
19664W        W86447  24.996  17.764  11.730
19665W        W86448  16.133  29.680  12.627
19666W        W86449   1.717   7.553   2.779
19667W        W86450   6.665  17.545  12.446
19668W        W86451  37.823  10.488   2.634
19669W        W86452   7.064  41.902   0.066
19670W        W86453  42.849  39.465  11.992
19671W        W86454  25.018  37.289  14.428
19672W        W86455  24.537   9.556   0.705
19673W        W86456  17.107  26.469   0.499
19674W        W86457  25.912   5.388   2.050
19675W        W86458  26.606  12.657   0.987
19676W        W86459  12.602  22.266   2.935
19677W        W86460  21.621  32.359  11.719
19678W        W86461  24.629  41.481  11.092
19679W        W86462  21.274   9.094   2.633
19680W        W86463   5.366  35.840  11.541
19681W        W86464  31.375  22.141  13.868
19682W        W86465   1.016  12.044   4.583
19683W        W86466  31.173  19.082   2.364
19684W        W86467  18.344  33.836   1.430
19685W        W86468  15.032  39.410   5.286
19686W        W86469  41.760   1.797   2.770
19687W        W86470  11.690  33.988   2.277
19688W        W86471  25.215  39.471   3.629
19689W        W86472  12.407  11.240  10.757
19690W        W86473  37.439   0.050  14.520
19691W        W86474  34.984  26.034  11.612
19692W        W86475  19.455   2.382   1.348
19693W        W86476  37.779  36.885  11.402
19694W        W86477  13.358  36.455  11.864
19695W        W86478   1.115  35.578   2.879
19696W        W86479   5.851  43.727  13.515
19697W        W86480  44.774  31.980  13.458
19698W        W86481  19.573  43.449  14.797
19699W        W86482   6.151  25.319  11.191
19700W        W86483  20.700   7.900   1.598
19701W        W86484  16.799  16.169  13.577
19702W        W86485   7.225   1.747  11.131
19703W        W86486  12.784  27.958  12.858
19704W        W86487  25.087  35.377   0.720
19705W        W86488  39.788  40.217  10.562
19706W        W86489  20.590  16.559   0.814
19707W        W86490  41.486  22.642   4.197
19708W        W86491  36.711   9.761  11.570
19709W        W86492  23.116  24.412   3.202
19710W        W86493   8.636  31.904  13.513
19711W        W86494  13.954  19.499  13.705
19712W        W86495  24.523  12.693   3.312
19713W        W86496   6.612   6.086  12.554
19714W        W86497  34.977  21.253  13.050
19715W        W86498  19.352  22.025  12.036
19716W        W86499  26.897   5.928  10.829
19717W        W86500  33.167   7.893  12.132
19718W        W86501   3.325  41.957   1.183
19719W        W86502   8.814   8.630  11.130
19720W        W86503  44.211   5.753   0.445
19721W        W86504  34.137  18.701  11.101
19722W        W86505  34.122  13.733  11.521
19723W        W86506  43.314  40.815   3.720
19724W        W86507  29.946  30.953  12.009
19725W        W86508  44.531  37.531   3.070
19726W        W86509  26.938  17.627  14.349
19727W        W86510  16.422  26.714   2.644
19728W        W86511  39.938  18.277  14.828
19729W        W86512  30.536  28.525  12.229
19730W        W86513  10.140   9.862   0.851
19731W        W86514  23.691  28.999   1.322
19732W        W86515  36.268   7.345   1.342
19733W        W86516  13.594  29.392  13.197
19734W        W86517  30.163   0.981   3.728
19735W        W86518  14.566  20.485   1.424
19736W        W86519  29.650  28.436   0.182
19737W        W86520   8.737   8.016  14.819
19738W        W86521  34.910   5.536  13.764
19739W        W86522  11.513  20.455   2.607
19740W        W86523   8.704   0.596  12.589
19741W        W86524  17.964  19.166   1.465
19742W        W86525   6.477  40.681  11.852
19743W        W86526  25.434  38.298   4.068
19744W        W86527  23.251  10.717  11.308
19745W        W86528  12.863   0.627   0.621
19746W        W86529   6.425  42.980   1.480
19747W        W86530   1.822  13.062  12.671
19748W        W86531  34.653  24.864   5.071
19749W        W86532  37.997  44.004   3.471
19750W        W86533  24.618  27.170  13.764
19751W        W86534  17.921   2.223   2.769
19752W        W86535  14.675   9.321  14.977
19753W        W86536  36.539  14.379  12.465
19754W        W86537  20.028  25.703   4.248
19755W        W86538  11.683  38.112  10.594
19756W        W86539  44.109  10.195  10.685
19757W        W86540  33.495  37.601   4.571
19758W        W86541  20.602   2.360  12.360
19759W        W86542   8.886  44.451   2.185
19760W        W86543  17.998   4.983   0.353
19761W        W86544  42.020  35.356  12.805
19762W        W86545  42.325  42.560  13.042
19763W        W86546  17.967  32.397  10.662
19764W        W86547  14.578  33.191   1.157
19765W        W86548  13.646  32.363  14.966
19766W        W86549  31.834  11.817   4.466
19767W        W86550  28.178  42.340  11.116
19768W        W86551  19.703  40.011   0.039
19769W        W86552  21.601  23.074   0.963
19770W        W86553  22.985  40.484   0.946
19771W        W86554  18.598  26.612   2.448
19772W        W86555  44.845  17.114  10.233
19773W        W86556  10.520  38.303  14.774
19774W        W86557  43.014  32.301  10.503
19775W        W86558  22.554   7.289   2.473
19776W        W86559   6.402  43.862   4.597
19777W        W86560  10.428  17.601   1.721
19778W        W86561   7.733  10.384  11.761
19779W        W86562  34.529  33.281   1.281
19780W        W86563  40.530  12.506   1.439
19781W        W86564   3.888  38.018  12.451
19782W        W86565  12.701   4.931   0.046
19783W        W86566  40.042  41.478   0.485
19784W        W86567   0.043  10.691   1.125
19785W        W86568  42.855  20.596   0.041
19786W        W86569   0.426  40.065  14.840
19787W        W86570  20.523  23.695  10.749
19788W        W86571  28.624  20.524   4.609
19789W        W86572  12.205   1.215  13.757
19790W        W86573  33.653  30.385  11.104
19791W        W86574  32.294  13.893   1.391
19792W        W86575  20.793  44.117  12.297
19793W        W86576  37.039  24.675  11.163
19794W        W86577   3.498  11.760  12.542
19795W        W86578   4.442  38.378  12.283
19796W        W86579   7.911   0.633  14.059
19797W        W86580  17.129  19.777   2.362
19798W        W86581  38.408   3.812  12.644
19799W        W86582  17.800   7.658  12.372
19800W        W86583  17.667  36.318  11.125
19801W        W86584  20.462  36.546  11.594
19802W        W86585  37.393  38.359   4.703
19803W        W86586  28.474  14.100   3.264
19804W        W86587  29.737  13.722  13.956
19805W        W86588  33.474  14.893  12.927
19806W        W86589  23.534   6.126   5.454
19807W        W86590  12.260  18.511   3.493
19808W        W86591  13.675  31.857  14.926
19809W        W86592  34.828  18.732   1.274
19810W        W86593  29.101  32.393   0.955
19811W        W86594  41.972  18.139   2.925
19812W        W86595  30.826  31.267  11.596
19813W        W86596  13.655  21.101  10.266
19814W        W86597  27.237  14.849   4.124
19815W        W86598  29.249  15.505   0.396
19816W        W86599  11.415  29.432  11.687
19817W        W86600  31.359   5.830  13.860
19818W        W86601   8.296  37.616  13.483
19819W        W86602   2.931  42.957   3.187
19820W        W86603  20.035   2.246  14.942
19821W        W86604  12.049   3.160  11.043
19822W        W86605   5.270   2.474  11.676
19823W        W86606  23.639  11.771  12.148
19824W        W86607  35.818  41.392  13.593
19825W        W86608  10.426   2.883   0.483
19826W        W86609  22.711  38.859   3.373
19827W        W86610  12.342   2.744   2.834
19828W        W86611  42.591   0.970   4.133
19829W        W86612  32.682  37.838  11.462
19830W        W86613  34.876  43.270  14.611
19831W        W86614  35.537   8.868  13.010
19832W        W86615   0.900  36.545  13.135
19833W        W86616  16.763  34.650   1.430
19834W        W86617  16.653  36.027   1.354
19835W        W86618  26.662  22.145  12.639
19836W        W86619  38.102   9.151   4.963
19837W        W86620  16.500  22.130   3.252
19838W        W86621  40.818  32.415   4.547
19839W        W86622  24.397   9.216   3.461
19840W        W86623  41.423  20.735   0.941
19841W        W86624  23.425  13.841   4.569
19842W        W86625  32.218  43.109   0.891
19843W        W86626  27.177  35.815  13.986
19844W        W86627  31.902  28.644   2.094
19845W        W86628  18.054   1.815   3.857
19846W        W86629  30.959  36.310  12.505
19847W        W86630  37.055  33.649   2.761
19848W        W86631   3.687   9.139   2.663
19849W        W86632   3.448  29.560  13.645
19850W        W86633  43.526   3.744  13.976
19851W        W86634  10.655  20.040  11.160
19852W        W86635  20.305   0.859   3.871
19853W        W86636  43.605  10.002   5.424
19854W        W86637  42.003  26.157   4.401
19855W        W86638  33.657  41.566   2.230
19856W        W86639  44.988  42.495   2.403
19857W        W86640  12.754  10.739  14.416
19858W        W86641  36.933  34.199  13.373
19859W        W86642  42.316  19.725   0.806
19860W        W86643  13.299   5.829   0.085
19861W        W86644  26.128  27.530   1.261
19862W        W86645  40.031  30.213  10.523
19863W        W86646  37.858  22.095  14.239
19864W        W86647  39.803   6.823  12.415
19865W        W86648  33.919  33.604  14.396
19866W        W86649   4.800  32.277   9.992
19867W        W86650   1.655  34.042  12.809
19868W        W86651  23.585  12.912   0.876
19869W        W86652  23.229  44.095   3.771
19870W        W86653   9.071  16.071  13.902
19871W        W86654  24.607  39.543   1.389
19872W        W86655  15.313  16.750  11.926
19873W        W86656  19.672   0.885   4.621
19874W        W86657  43.371  20.120   0.903
19875W        W86658  21.211   0.174  11.082
19876W        W86659  14.332  28.218   4.068
19877W        W86660  33.761   7.513   3.663
19878W        W86661   7.423  27.583   1.783
19879W        W86662  10.757  42.030  10.839
19880W        W86663   9.492  17.783   0.839
19881W        W86664  15.832  39.527  11.546
19882W        W86665  42.942  42.856   4.123
19883W        W86666  35.272  24.200  13.436
19884W        W86667   6.846  21.394  13.319
19885W        W86668  23.272  31.708  14.267
19886W        W86669  21.334  23.675  11.301
19887W        W86670   9.246  24.545  11.766
19888W        W86671  28.417  44.201   4.447
19889W        W86672  19.124  44.764  11.828
19890W        W86673  14.354  21.107  14.133
19891W        W86674  34.367   5.419  10.619
19892W        W86675   5.629  10.697   3.202
19893W        W86676  35.852  20.072   2.135
19894W        W86677   2.508   4.553   9.957
19895W        W86678  11.341  10.645   1.277
19896W        W86679  32.913   9.965  13.926
19897W        W86680  16.204   7.884   4.353
19898W        W86681  15.829   1.879   1.658
19899W        W86682  40.346  28.189  12.928
19900W        W86683  40.108  27.218  13.482
19901W        W86684  28.927  35.866  11.627
19902W        W86685  37.054  34.003   1.621
19903W        W86686  38.361  31.492   1.770
19904W        W86687   2.890  29.075  11.601
19905W        W86688  21.992  17.205  14.026
19906W        W86689  13.052  34.508   3.740
19907W        W86690  37.960  34.419   4.689
19908W        W86691  28.527  18.143  14.525
19909W        W86692  14.631  17.275   0.282
19910W        W86693   6.841  10.777   3.627
19911W        W86694  15.575   5.910   2.930
19912W        W86695  24.637   6.255  11.525
19913W        W86696  39.499   2.545   1.218
19914W        W86697  15.294   9.727   4.066
19915W        W86698  25.315   0.761   2.748
19916W        W86699  27.644  32.654  11.595
19917W        W86700  31.167  43.907   2.718
19918W        W86701   8.982  22.446   4.674
19919W        W86702  10.738  17.016  14.114
19920W        W86703  26.394  28.942  11.563
19921W        W86704   2.059  39.121  11.801
19922W        W86705  31.513   9.404  12.148
19923W        W86706   4.850  23.113  14.121
19924W        W86707  29.755  12.744  11.090
19925W        W86708  24.218  37.959   0.866
19926W        W86709  30.466  44.919   3.868
19927W        W86710   0.336  12.230   0.891
19928W        W86711  41.238  21.668   4.301
19929W        W86712  21.409  34.696  10.716
19930W        W86713   4.497  22.333   4.117
19931W        W86714   6.981  13.601   2.584
19932W        W86715   0.705   6.067  14.267
19933W        W86716  34.880  10.902  13.511
19934W        W86717   4.255  35.619  11.178
19935W        W86718   8.173  10.387   1.684
19936W        W86719  38.105  14.860   1.861
19937W        W86720  38.581  36.093   5.022
19938W        W86721  25.697  27.778   1.483
19939W        W86722  42.842  18.584  13.556
19940W        W86723   4.962  40.769   1.799
19941W        W86724  14.620  39.426   2.283
19942W        W86725  29.851  29.521  12.426
19943W        W86726  14.250  16.155   4.241
19944W        W86727   1.317  14.696   3.166
19945W        W86728  43.502  34.335  11.625
19946W        W86729   4.327   4.236  11.289
19947W        W86730   6.362  34.383  10.865
19948W        W86731   1.422  20.080   3.622
19949W        W86732   8.180  15.794   4.338
19950W        W86733  20.087  25.972  14.538
19951W        W86734  44.417  20.966   4.056
19952W        W86735   0.401   5.315  12.783
19953W        W86736  41.718  33.060  13.499
19954W        W86737  36.092  40.253  11.112
19955W        W86738  17.053   1.797  12.247
19956W        W86739  40.517  26.646  10.974
19957W        W86740   5.487  31.586   3.203
19958W        W86741  34.499  21.320  13.304
19959W        W86742   1.165  33.645   0.305
19960W        W86743  38.340  30.455   0.777
19961W        W86744   0.773  31.064   4.145
19962W        W86745  21.847  35.603   4.996
19963W        W86746  44.244  35.818   3.874
19964W        W86747  37.010  38.301  12.976
19965W        W86748  35.196  25.505   3.987
19966W        W86749  35.402  35.306  11.480
19967W        W86750  31.922   5.153  10.206
19968W        W86751  31.541  13.743   2.178
19969W        W86752  28.428  13.811  12.566
19970W        W86753  31.404   2.775   3.435
19971W        W86754  13.976  10.584   4.490
19972W        W86755   9.725  14.345  13.036
19973W        W86756  23.173   9.109   2.885
19974W        W86757  39.958  12.351  13.452
19975W        W86758  13.583  16.194   4.663
19976W        W86759   8.329  30.166   1.146
19977W        W86760  26.680  12.164  14.823
19978W        W86761   4.455  25.290   2.943
19979W        W86762  27.443  18.554   1.792
19980W        W86763  36.399  43.055  14.108
19981W        W86764  23.756   6.277  11.040
19982W        W86765   2.184  42.624  14.004
19983W        W86766  11.680  33.377  11.699
19984W        W86767  27.249  44.123   5.575
19985W        W86768   8.389  23.551   2.887
19986W        W86769   4.018  44.589  12.990
19987W        W86770  32.484  34.900  14.946
19988W        W86771  41.682  43.688  12.423
19989W        W86772  15.869  27.449   3.640
19990W        W86773  13.716  29.372  11.604
19991W        W86774   2.219   8.832  11.546
19992W        W86775  28.029  31.897  11.269
19993W        W86776  37.464  29.528   3.707
19994W        W86777  10.680  44.402  14.109
19995W        W86778  22.973  28.925  11.978
19996W        W86779  30.542  34.489  12.960
19997W        W86780   5.659  33.579  13.641
19998W        W86781  10.608  41.556  12.445
19999W        W86782  21.511  11.711   1.850
20000W        W86783   1.551  18.425   3.384
20001W        W86784   6.353  29.673   1.191
20002W        W86785  12.776  27.975   0.329
20003W        W86786   1.496  40.523   4.268
20004W        W86787   6.158  29.206   2.650
20005W        W86788  31.832  21.999   4.971
20006W        W86789   9.497  22.332  14.701
20007W        W86790  31.199  13.107   3.148
20008W        W86791  10.621  39.306  14.495
20009W        W86792  23.012   6.314   2.728
20010W        W86793  18.030  38.390   2.811
20011W        W86794  14.138  34.369  14.951
20012W        W86795   4.631  13.245   2.145
20013W        W86796  16.605   2.709   3.993
20014W        W86797  33.818  12.802  14.643
20015W        W86798  34.603  15.667   3.712
20016W        W86799   5.146   0.497   3.272
20017W        W86800  42.019   7.218   3.285
20018W        W86801  14.654  21.201  11.244
20019W        W86802  23.177  33.988  14.016
20020W        W86803  19.233  32.107  11.844
20021W        W86804  18.228  41.573   3.659
20022W        W86805  14.646   4.770  10.730
20023W        W86806   0.932   6.842  12.232
20024W        W86807  16.862  30.471   4.255
20025W        W86808  30.410  38.896  10.510
20026W        W86809  14.578   0.119  14.256
20027W        W86810   2.132  17.891   1.270
20028W        W86811  26.239  18.765  12.084
20029W        W86812  22.153  15.398  14.413
20030W        W86813  40.016  10.672   3.204
20031W        W86814  20.558  13.675   3.227
20032W        W86815  11.319  12.359  11.288
20033W        W86816   8.738  34.605   4.223
20034W        W86817   0.815  12.640   3.445
20035W        W86818  24.931  13.213  11.084
20036W        W86819   1.971  32.623   4.749
20037W        W86820  18.199  11.570   0.967
20038W        W86821  20.142  27.705  12.416
20039W        W86822  13.084  24.877   5.214
20040W        W86823  37.326  21.752   0.341
20041W        W86824  31.877  32.116  12.548
20042W        W86825  33.549   5.134   4.633
20043W        W86826  42.510   1.962   2.155
20044W        W86827  18.428  12.852  10.167
20045W        W86828  35.143  10.946   2.929
20046W        W86829  38.997  30.392   4.984
20047W        W86830  44.373  21.916  10.162
20048W        W86831  23.885  44.362  12.509
20049W        W86832  35.906   0.493   3.424
20050W        W86833   4.787  14.265   0.825
20051W        W86834  34.394  35.686   0.888
20052W        W86835  14.120  12.077  11.483
20053W        W86836  28.889  44.231   1.742
20054W        W86837   0.242  37.991   3.158
20055W        W86838  37.461  22.996  14.092
20056W        W86839  41.581   0.814   3.783
20057W        W86840  33.534  24.922  14.872
20058W        W86841  25.755  11.726   1.962
20059W        W86842  43.768   1.202   1.247
20060W        W86843  19.468  23.454  10.755
20061W        W86844  13.393  10.457  10.234
20062W        W86845  32.132  42.527   4.077
20063W        W86846  43.570  17.784  11.996
20064W        W86847  11.711   5.426   4.590
20065W        W86848  23.302  16.237  11.260
20066W        W86849   0.551  36.982  14.980
20067W        W86850  31.681  37.951   3.224
20068W        W86851  24.966  25.619  10.856
20069W        W86852  14.231  44.997   2.349
20070W        W86853  14.424  23.825   3.229
20071W        W86854  22.750   9.687  10.960
20072W        W86855  32.626  36.313  14.562
20073W        W86856  39.153  22.008   2.256
20074W        W86857  41.384   6.249  14.112
20075W        W86858  22.217  44.558  11.213
20076W        W86859  30.814  44.983   1.383
20077W        W86860  19.638  13.338   1.195
20078W        W86861   9.721  27.619  12.419
20079W        W86862  34.035  23.633  11.937
20080W        W86863  38.588  17.285   4.216
20081W        W86864   2.888   7.089  14.472
20082W        W86865  20.281   0.516  13.951
20083W        W86866  38.358   4.147   2.468
20084W        W86867  31.827  32.501  11.084
20085W        W86868   1.772  38.276   4.122
20086W        W86869  42.392  20.690   3.107
20087W        W86870  14.792  44.897  10.812
20088W        W86871   9.635  13.906   1.712
20089W        W86872  40.402   6.816  12.226
20090W        W86873  41.961  44.838  12.112
20091W        W86874  33.492  36.642   1.261
20092W        W86875  24.547  13.253  12.119
20093W        W86876  20.556  10.168  14.596
20094W        W86877  43.062  26.518   0.389
20095W        W86878  35.920  18.762  13.878
20096W        W86879   8.748  11.931  11.610
20097W        W86880  26.682  21.988   2.589
20098W        W86881  28.526  10.849   3.630
20099W        W86882   1.069  24.992   2.740
20100W        W86883  29.151  38.284   1.301
20101W        W86884  22.575   4.722   0.699
20102W        W86885  22.783  27.491   1.299
20103W        W86886  32.999  37.749  11.865
20104W        W86887  38.447  41.342   0.307
20105W        W86888  15.542  18.957   2.681
20106W        W86889  35.959  16.378   4.622
20107W        W86890  23.969  16.605   0.405
20108W        W86891  25.401  32.714  13.398
20109W        W86892  12.222  25.526   3.901
20110W        W86893  21.004  27.380   2.685
20111W        W86894  17.570  30.137  14.326
20112W        W86895  13.210  10.814   1.175
20113W        W86896  25.488  23.591  14.330
20114W        W86897  16.619  41.507  14.540
20115W        W86898  19.559  25.105   2.863
20116W        W86899  20.064   3.197   3.171
20117W        W86900  32.026   1.015   2.261
20118W        W86901  43.097  44.265  14.040
20119W        W86902  12.045  21.327  10.705
20120W        W86903  21.796  42.508  11.047
20121W        W86904  26.068  44.899   3.134
20122W        W86905  19.744  20.245   4.164
20123W        W86906  34.511  37.482   0.482
20124W        W86907  31.013  31.690  14.481
20125W        W86908  18.153  34.587   0.155
20126W        W86909  40.844  28.123  12.036
20127W        W86910   4.768  20.759   2.921
20128W        W86911  39.764  10.700  10.325
20129W        W86912   6.089  35.940   1.828
20130W        W86913  44.502  16.228  14.418
20131W        W86914  41.983  23.828   1.727
20132W        W86915  10.416  29.569   2.492
20133W        W86916   8.915   6.412   2.290
20134W        W86917  21.440  17.227   4.076
20135W        W86918  29.607  30.378  13.412
20136W        W86919  11.280  16.065  14.993
20137W        W86920   7.327  36.453   3.906
20138W        W86921  43.567   0.479  12.511
20139W        W86922   5.222  12.173  10.413
20140W        W86923  39.581  33.422   3.260
20141W        W86924  24.003  24.066   1.303
20142W        W86925  31.046  38.887  12.442
20143W        W86926  15.746  27.869   0.880
20144W        W86927  28.252  35.385  10.819
20145W        W86928  32.641  21.993  11.732
20146W        W86929  20.780  30.542   2.291
20147W        W86930  26.321  20.047  13.646
20148W        W86931  37.808  41.873  14.570
20149W        W86932  35.157  28.090   0.551
20150W        W86933  20.342  12.716   4.590
20151W        W86934   1.843  26.194   1.824
20152W        W86935  37.462  39.183   3.563
20153W        W86936  38.360  10.086  12.949
20154W        W86937  20.999   8.738   1.723
20155W        W86938  17.772   1.358   4.393
20156W        W86939  37.604  34.145  13.040
20157W        W86940  10.211  14.729  10.580
20158W        W86941  31.081  22.766  11.766
20159W        W86942  32.325  43.396  11.082
20160W        W86943  19.681  26.145  13.258
20161W        W86944  17.000  29.127  11.300
20162W        W86945   8.976  17.154  13.956
20163W        W86946  44.700   1.357   4.095
20164W        W86947   8.289   8.898  13.892
20165W        W86948  16.035  23.113   2.284
20166W        W86949  41.727   7.198   2.521
20167W        W86950   6.397  41.363   4.536
20168W        W86951  21.817   7.220   0.424
20169W        W86952  40.796  17.065   1.388
20170W        W86953   3.989  35.523  12.487
20171W        W86954  12.662  43.909   4.110
20172W        W86955  44.268  27.470  10.743
20173W        W86956  30.949  42.897   3.250
20174W        W86957  24.925  23.092   3.212
20175W        W86958  32.804  37.608  14.941
20176W        W86959  16.364  39.354   2.416
20177W        W86960  34.010   4.394   4.866
20178W        W86961  29.055  34.884  14.317
20179W        W86962   7.852  13.043  13.046
20180W        W86963  27.876  29.643   3.977
20181W        W86964   9.241  20.197   0.740
20182W        W86965   5.349  28.589   0.199
20183W        W86966  21.047  38.090   4.046
20184W        W86967   7.735  39.825  10.416
20185W        W86968  26.688  19.934  13.281
20186W        W86969  32.122  10.341  13.047
20187W        W86970   4.957   9.871   4.085
20188W        W86971  25.291  17.723  13.310
20189W        W86972   1.472   9.348   3.031
20190W        W86973  35.100  36.717  14.795
20191W        W86974  23.510   5.259   1.920
20192W        W86975  24.062  31.101  13.285
20193W        W86976  35.526  19.946  12.997
20194W        W86977  38.115  18.600   4.652
20195W        W86978  42.500   6.533   2.312
20196W        W86979   8.575  38.883  11.085
20197W        W86980  26.464  22.750   0.488
20198W        W86981  27.151  33.986  12.265
20199W        W86982  13.358   9.692  12.385
20200W        W86983  14.047  28.000   1.098
20201W        W86984   0.439  44.338  12.575
20202W        W86985   3.605  21.968   3.282
20203W        W86986   8.633  24.989  14.627
20204W        W86987  29.087   1.053  13.539
20205W        W86988   3.877  11.395   4.577
20206W        W86989  31.499  17.808  14.861
20207W        W86990  42.053  42.828  14.697
20208W        W86991  43.399  42.060  11.156
20209W        W86992  13.251  42.078  12.370
20210W        W86993  21.743  25.579  11.957
20211W        W86994   9.741  43.541  14.895
20212W        W86995  29.793  36.076   0.079
20213W        W86996  27.646  18.070   4.173
20214W        W86997  29.135  16.319  12.600
20215W        W86998  39.526  32.691  12.095
20216W        W86999  35.475  34.855  14.228
20217W        W87000   2.293  10.276  14.831
20218W        W87001   3.029   6.804   4.570
20219W        W87002  43.265  10.697   5.023
20220W        W87003  20.618  38.091   3.250
20221W        W87004  30.943  26.000   0.918
20222W        W87005  15.189  43.185  14.937
20223W        W87006  26.144   9.798  13.908
20224W        W87007  24.774   8.090   4.581
20225W        W87008   3.382  35.323   0.848
20226W        W87009   5.389  42.476   1.213
20227W        W87010  22.600  22.189  11.480
20228W        W87011  44.640  23.337  14.779
20229W        W87012  21.007  20.228   4.715
20230W        W87013  44.371  12.026  12.893
20231W        W87014  40.792  14.907   2.385
20232W        W87015  36.401   5.516   0.192
20233W        W87016  27.182   1.470   0.511
20234W        W87017   8.758  24.754   0.443
20235W        W87018  38.945  27.659   4.754
20236W        W87019  19.527   7.154  14.033
20237W        W87020  12.498  36.476   1.219
20238W        W87021   2.953  20.718   4.139
20239W        W87022  15.062  17.362  11.961
20240W        W87023  26.103   1.440  10.597
20241W        W87024  33.062  42.250  12.490
20242W        W87025  41.426  43.230  14.441
20243W        W87026  20.651  23.371  11.119
20244W        W87027  42.291  24.865   2.707
20245W        W87028  24.228  22.610  14.513
20246W        W87029  11.242  20.575   4.967
20247W        W87030   0.429  14.106   2.293
20248W        W87031  28.585   8.606  14.421
20249W        W87032  34.587  40.967   1.226
20250W        W87033  42.641  24.614   0.923
20251W        W87034  33.858  11.261  11.077
20252W        W87035   7.774  44.089  14.632
20253W        W87036  25.288   3.387   2.887
20254W        W87037   4.321  35.828  14.335
20255W        W87038  37.932  37.918  12.226
20256W        W87039  15.294  33.625  11.570
20257W        W87040  27.679  15.886  11.425
20258W        W87041  37.864  35.286  14.305
20259W        W87042   6.999  18.620  11.474
20260W        W87043   1.301  13.975   0.163
20261W        W87044   7.159  12.673  12.985
20262W        W87045  14.609  23.817  11.432
20263W        W87046  36.774  37.869   2.159
20264W        W87047  29.593  11.735  14.297
20265W        W87048   5.841   6.728   3.639
20266W        W87049  43.233  13.852   2.662
20267W        W87050  20.777   1.730  10.567
20268W        W87051  28.560  19.729  12.654
20269W        W87052  12.089  38.056   3.195
20270W        W87053  24.531  14.077  12.542
20271W        W87054   5.369  16.184   3.142
20272W        W87055  22.898  41.926   0.487
20273W        W87056  16.680  19.039   2.272
20274W        W87057   0.066   6.462  11.592
20275W        W87058  23.225  16.597  13.408
20276W        W87059  16.280   3.825  10.693
20277W        W87060   0.525  40.584  14.936
20278W        W87061  17.769   9.883   2.277
20279W        W87062   8.718   9.020  10.812
20280W        W87063  33.573  30.007   2.986
20281W        W87064  44.910  39.983  11.631
20282W        W87065  43.074  27.233   1.278
20283W        W87066   7.506  23.271   2.586
20284W        W87067  39.647  14.274   3.221
20285W        W87068  29.895  24.220  10.456
20286W        W87069  18.323  34.770   4.105
20287W        W87070  19.933   4.941   0.358
20288W        W87071  18.287  27.075  13.085
20289W        W87072   6.984  30.443   4.317
20290W        W87073  19.190   5.848  11.138
20291W        W87074  23.756  22.788  14.751
20292W        W87075  20.301   8.174   1.819
20293W        W87076   0.977   1.704  14.566
20294W        W87077  43.385   7.985  13.367
20295W        W87078  20.646   8.928  14.024
20296W        W87079   1.175  10.170   0.599
20297W        W87080  19.159  19.550   4.304
20298W        W87081  34.003  33.400   4.193
20299W        W87082  16.071  11.068   0.443
20300W        W87083  24.065  32.809  14.916
20301W        W87084  17.636  27.516   1.932
20302W        W87085   4.202  23.989  14.319
20303W        W87086  27.761  44.197   3.901
20304W        W87087  43.872   8.430  13.752
20305W        W87088  25.259  42.297  13.412
20306W        W87089  27.631  24.103  14.087
20307W        W87090  23.279  43.697  12.386
20308W        W87091  27.171  32.481   3.810
20309W        W87092  33.435  40.278  13.562
20310W        W87093  15.469  14.765   9.893
20311W        W87094  17.784  43.031  14.270
20312W        W87095   9.406   9.553   3.531
20313W        W87096  26.482  14.612  13.944
20314W        W87097  24.122  22.053  12.890
20315W        W87098  35.001  33.880  12.497
20316W        W87099  27.898  37.906   4.049
20317W        W87100   3.245  11.158  13.733
20318W        W87101  16.127   9.760   0.950
20319W        W87102  18.230  33.377  11.592
20320W        W87103  44.128  26.478   4.479
20321W        W87104  37.508   9.151  11.582
20322W        W87105  43.448  15.558  11.142
20323W        W87106  31.682  26.463   5.018
20324W        W87107  17.535  19.316   1.172
20325W        W87108  19.066  36.605   0.486
20326W        W87109  34.494  24.101  12.358
20327W        W87110  26.619  41.439  14.979
20328W        W87111  37.213   4.920  13.397
20329W        W87112  25.226  10.807  13.498
20330W        W87113  25.595  38.938   3.335
20331W        W87114   2.715  42.280  12.514
20332W        W87115  42.076  14.703  13.714
20333W        W87116  30.814   8.904   0.383
20334W        W87117   1.450   8.737  13.357
20335W        W87118  42.248  19.189  14.909
20336W        W87119  34.862  25.243   0.734
20337W        W87120  35.600  26.551   4.219
20338W        W87121  33.406  34.401  13.313
20339W        W87122  37.278  29.374  14.870
20340W        W87123  10.336  17.660  11.357
20341W        W87124  11.335  35.363  10.251
20342W        W87125  20.191  25.974   0.180
20343W        W87126  22.686  25.649  12.393
20344W        W87127  44.575  31.887   0.766
20345W        W87128  16.870   2.348   0.754
20346W        W87129  27.381  22.664  13.522
20347W        W87130  36.115  43.380   5.003
20348W        W87131  19.207  21.912  12.532
20349W        W87132  38.030   3.291   0.826
20350W        W87133  41.038  34.782  12.013
20351W        W87134  13.353  17.738   3.460
20352W        W87135  24.169  12.116   0.833
20353W        W87136  35.680   6.804  13.532
20354W        W87137  39.578  10.751  14.445
20355W        W87138   1.150  36.549  13.977
20356W        W87139  14.229  18.970   4.573
20357W        W87140  20.176  32.098  14.736
20358W        W87141  42.890  38.809   2.381
20359W        W87142  27.179  34.472  13.615
20360W        W87143  44.965  21.536  12.458
20361W        W87144  35.134  18.270   3.279
20362W        W87145  27.875   2.141   1.490
20363W        W87146  39.271  11.688  14.675
20364W        W87147  13.157  43.631   2.553
20365W        W87148  42.904   8.913   1.325
20366W        W87149  30.645  44.492   0.009
20367W        W87150  29.574  14.384   3.789
20368W        W87151  24.205  39.166  13.028
20369W        W87152  23.709  21.078   4.152
20370W        W87153   0.808  39.897  13.032
20371W        W87154  15.684   2.019  11.998
20372W        W87155  35.161   9.091   0.622
20373W        W87156  38.083   7.450   2.344
20374W        W87157  39.452  44.050   3.220
20375W        W87158  39.873   7.863  13.284
20376W        W87159   3.858  27.545   1.133
20377W        W87160  28.720  17.521  11.526
20378W        W87161  16.754   1.457  14.327
20379W        W87162  42.985   2.673  12.391
20380W        W87163  33.074  19.650   1.721
20381W        W87164  11.653  27.036  10.411
20382W        W87165  19.654  40.236  13.584
20383W        W87166   5.455  13.251   0.803
20384W        W87167  22.333  34.490   2.893
20385W        W87168  25.315   1.294  13.477
20386W        W87169  28.595  15.697  12.818
20387W        W87170  24.965  29.467   5.101
20388W        W87171   5.163  10.237  11.019
20389W        W87172   5.831   8.619   1.249
20390W        W87173   8.227  29.704  14.731
20391W        W87174  28.515  38.103   4.054
20392W        W87175  20.584  12.621   5.030
20393W        W87176  43.527   9.877  14.309
20394W        W87177  42.829  10.303  14.732
20395W        W87178  10.108  34.578   2.783
20396W        W87179  12.996  10.651  10.528
20397W        W87180  28.537  36.643   4.003
20398W        W87181  38.269   9.651  11.597
20399W        W87182  12.517  15.717  12.898
20400W        W87183  35.384  30.110  13.970
20401W        W87184  27.196  32.091  10.112
20402W        W87185  23.518  34.791  12.689
20403W        W87186  15.504  34.471  11.545
20404W        W87187   8.685  16.162  11.809
20405W        W87188  38.977  38.566   1.663
20406W        W87189   3.765  37.397  12.563
20407W        W87190  39.333  22.785   1.856
20408W        W87191  12.542  37.591  14.232
20409W        W87192  42.338  22.245   4.060
20410W        W87193  23.072  31.891   3.225
20411W        W87194  44.968   2.004   5.068
20412W        W87195  31.351   6.885   2.798
20413W        W87196  26.018   3.524  14.334
20414W        W87197   0.138   4.918  11.912
20415W        W87198  27.418  18.681   3.694
20416W        W87199  39.254  18.503   3.745
20417W        W87200  26.965  40.613  11.638
20418W        W87201  39.711  42.048  10.768
20419W        W87202  14.015   9.093   3.235
20420W        W87203   5.325  37.930   3.843
20421W        W87204  29.601  27.978  11.448
20422W        W87205  43.911  12.100  12.628
20423W        W87206  20.676  28.378  10.644
20424W        W87207   3.845  18.729   4.973
20425W        W87208   1.444  38.387  10.743
20426W        W87209   1.824  36.504  13.942
20427W        W87210   3.263   3.233  10.712
20428W        W87211  26.358  11.140   0.968
20429W        W87212  23.710   1.352  13.217
20430W        W87213   3.182  21.237  13.421
20431W        W87214  32.099  35.773   0.730
20432W        W87215  37.024  20.622  10.981
20433W        W87216  13.610  43.504   0.400
20434W        W87217  34.114  26.351   2.346
20435W        W87218   4.626  37.957  14.849
20436W        W87219  21.286  18.368  12.458
20437W        W87220  31.445  39.261  14.817
20438W        W87221  36.697  34.653  13.235
20439W        W87222  30.520  42.025  13.919
20440W        W87223  44.964  12.668  10.697
20441W        W87224  37.510  29.295   4.259
20442W        W87225   3.293  41.784  12.146
20443W        W87226   7.802  26.521   2.351
20444W        W87227  27.526  41.807   0.251
20445W        W87228   5.750  36.143  14.057
20446W        W87229  38.536   0.223  10.645
20447W        W87230  18.490   3.556   0.703
20448W        W87231  16.015   7.470  11.616
20449W        W87232  18.614  35.059  10.094
20450W        W87233   1.422  42.282  10.728
20451W        W87234  39.509  39.776  11.467
20452W        W87235  30.932  40.911  11.492
20453W        W87236  13.926  39.081  11.146
20454W        W87237   4.492  30.289   2.822
20455W        W87238  34.869   5.060   5.031
20456W        W87239   8.842   3.652  11.053
20457W        W87240  38.047  33.383  14.274
20458W        W87241   3.204  21.008   1.332
20459W        W87242  41.484  38.673   3.693
20460W        W87243  18.935  23.018  14.099
20461W        W87244  16.248  23.332   2.872
20462W        W87245  35.647  43.445   4.772
20463W        W87246  18.520  18.516   0.905
20464W        W87247  31.582   7.881   1.383
20465W        W87248  38.513  17.578  11.489
20466W        W87249  15.713   3.477  14.037
20467W        W87250   1.402   7.267   2.461
20468W        W87251  23.744  29.006  13.957
20469W        W87252   6.915  10.320   3.251
20470W        W87253  30.564  12.504   4.712
20471W        W87254  40.758  27.641   0.402
20472W        W87255   7.127  30.610  11.134
20473W        W87256   1.765  41.729   5.225
20474W        W87257  29.625  27.885   2.471
20475W        W87258  32.934  14.054  11.940
20476W        W87259  18.742  40.523   3.041
20477W        W87260   2.312  14.832   2.400
20478W        W87261  32.134  12.383  11.131
20479W        W87262  18.762  37.357  11.439
20480W        W87263   3.455  20.268   3.739
20481W        W87264  43.030  39.433   4.670
20482W        W87265   0.989   1.489   3.683
20483W        W87266  25.895   0.916   4.830
20484W        W87267  20.160  23.086   3.143
20485W        W87268  23.030  31.197  14.229
20486W        W87269  39.508  27.683  10.698
20487W        W87270  34.993   4.520  11.149
20488W        W87271  35.768  30.615  10.603
20489W        W87272  36.877  22.494   2.555
20490W        W87273   0.852  20.836  11.127
20491W        W87274  43.141  38.105  12.352
20492W        W87275   9.824  35.135  14.952
20493W        W87276   5.342  22.143  14.412
20494W        W87277  40.980   6.159  12.546
20495W        W87278  11.367   3.343  10.859
20496W        W87279  39.383  39.811  12.912
20497W        W87280  30.821  18.952   0.563
20498W        W87281   0.828  36.016   2.220
20499W        W87282  44.804   6.475   3.734
20500W        W87283  39.096   8.265  12.514
20501W        W87284  16.104   0.992  13.263
20502W        W87285   5.681  33.993  14.936
20503W        W87286  29.037  19.061   1.929
20504W        W87287  29.141  12.721   0.753
20505W        W87288   0.319  32.096  14.817
20506W        W87289  12.668  33.428  14.959
20507W        W87290  29.202   3.320   3.196
20508W        W87291  31.414  38.356   1.763
20509W        W87292  42.252  23.600   4.192
20510W        W87293  12.515   2.379   0.687
20511W        W87294  43.520  41.249  11.961
20512W        W87295  16.554  12.275  13.373
20513W        W87296  29.061   1.515  13.266
20514W        W87297   4.459  15.418   4.532
20515W        W87298  36.370  19.324   4.626
20516W        W87299   0.210  36.617   1.718
20517W        W87300  18.075  25.417   0.879
20518W        W87301  13.850   2.130  11.925
20519W        W87302  32.850  24.055   1.206
20520W        W87303  12.256  24.738  12.473
20521W        W87304  26.567  16.980   1.026
20522W        W87305  32.388   3.328   1.684
20523W        W87306  25.265  39.857  13.645
20524W        W87307   7.767   1.811   0.032
20525W        W87308   9.745  36.513  13.017
20526W        W87309   4.776  25.489   2.279
20527W        W87310  43.244  33.612   4.700
20528W        W87311  15.472  21.589  13.613
20529W        W87312  43.142  32.817  14.805
20530W        W87313  31.603  17.547  13.869
20531W        W87314  31.076  16.149   2.391
20532W        W87315   1.069  30.727  11.285
20533W        W87316  33.329  40.091   1.814
20534W        W87317  35.545   2.045   3.276
20535W        W87318   2.109  22.193   0.851
20536W        W87319  38.796  34.039   4.586
20537W        W87320  25.120  36.375   1.711
20538W        W87321  35.569  17.963   3.200
20539W        W87322  12.761  43.941   3.183
20540W        W87323   5.782  12.791   1.809
20541W        W87324  33.378  13.915   0.348
20542W        W87325  13.251  41.122  12.585
20543W        W87326  36.969   7.931   2.361
20544W        W87327  42.595   8.852   2.079
20545W        W87328  13.423  41.009   2.407
20546W        W87329   3.257  31.634   3.189
20547W        W87330  22.312  27.459  12.590
20548W        W87331  40.425   8.376  12.339
20549W        W87332  39.575  33.429  11.079
20550W        W87333  43.547   6.499   9.921
20551W        W87334  20.893   9.990  13.238
20552W        W87335   5.440  39.395   0.808
20553W        W87336   8.370  19.973   1.400
20554W        W87337  39.147  44.855   1.992
20555W        W87338  41.586   2.925  14.736
20556W        W87339  13.611   0.284  10.926
20557W        W87340  32.852   9.806  12.896
20558W        W87341  19.206   9.787  11.542
20559W        W87342   9.389  25.740  11.587
20560W        W87343  21.234   6.475  14.395
20561W        W87344  15.125   8.311  13.607
20562W        W87345  42.055  33.346  10.989
20563W        W87346  25.329   1.841   0.330
20564W        W87347  25.990  36.560  10.796
20565W        W87348   1.000  24.791   3.800
20566W        W87349  40.465   2.561   3.177
20567W        W87350   0.788  38.554   1.493
20568W        W87351  31.131  40.070   1.329
20569W        W87352  43.605   6.069  11.474
20570W        W87353  24.760  27.605   0.460
20571W        W87354  13.139  25.600  11.197
20572W        W87355  20.118  44.852   2.390
20573W        W87356   3.652   8.687   2.404
20574W        W87357  15.804  23.829  11.878
20575W        W87358  38.417  38.246   3.803
20576W        W87359   9.267  24.632  13.531
20577W        W87360  15.806   7.884  12.051
20578W        W87361   5.421   1.887   2.298
20579W        W87362  35.453  17.615   0.526
20580W        W87363  44.684  20.666  14.822
20581W        W87364  35.404  20.808  11.539
20582W        W87365  22.204   9.352  12.434
20583W        W87366  20.622  29.563   3.303
20584W        W87367  16.105  41.260   0.347
20585W        W87368   5.872  22.013  11.060
20586W        W87369  30.460   5.942  11.126
20587W        W87370  39.104   5.442   1.486
20588W        W87371   0.884  18.454  13.476
20589W        W87372  16.703  14.652   4.163
20590W        W87373  23.583  20.748  13.121
20591W        W87374  30.149  14.715  11.970
20592W        W87375  17.740  42.998  11.564
20593W        W87376  43.679   7.685   3.517
20594W        W87377  40.982  12.758  12.084
20595W        W87378   6.708  10.766   2.235
20596W        W87379  44.635  10.015  10.842
20597W        W87380  32.994  21.815  12.087
20598W        W87381  33.118  33.041  14.325
20599W        W87382   9.742  42.741   3.185
20600W        W87383  25.645   1.229   2.773
20601W        W87384   5.259   3.042  13.290
20602W        W87385  42.757   1.818  13.824
20603W        W87386  17.200  12.756   3.558
20604W        W87387   9.241   1.340   1.767
20605W        W87388   9.333  32.888  11.907
20606W        W87389  20.545  23.254  11.603
20607W        W87390  32.928  34.654  15.000
20608W        W87391  41.732   8.061   1.556
20609W        W87392  18.643   8.807   1.754
20610W        W87393  24.729  34.880  14.085
20611W        W87394  21.633  15.305   1.379
20612W        W87395  13.907  33.982   4.473
20613W        W87396  29.094  31.571  11.125
20614W        W87397  26.454   4.833  11.537
20615W        W87398   9.741  23.908   1.789
20616W        W87399  18.549  22.985  14.952
20617W        W87400  42.883  32.018  14.528
20618W        W87401  27.213  12.277  13.883
20619W        W87402  42.736  18.513   2.722
20620W        W87403  10.864  10.507   3.144
20621W        W87404   1.397  33.603  12.843
20622W        W87405  22.814   8.478   1.355
20623W        W87406  25.668  11.312  14.762
20624W        W87407  16.079   2.584   0.373
20625W        W87408  33.449  11.380   0.986
20626W        W87409   4.954  21.776   2.051
20627W        W87410  41.597  19.035  11.146
20628W        W87411  23.225   5.189   0.759
20629W        W87412  35.365  27.262  14.134
20630W        W87413  37.365  21.721  12.993
20631W        W87414  10.122  20.661   2.188
20632W        W87415   4.326  41.493   2.370
20633W        W87416  36.929  35.596   2.818
20634W        W87417  39.186  24.187  13.521
20635W        W87418  31.560  21.468   4.065
20636W        W87419  19.742   7.720   5.138
20637W        W87420  41.044   6.374   1.543
20638W        W87421  24.734  30.559  13.299
20639W        W87422  25.970  12.333  11.543
20640W        W87423  22.262  38.388   2.221
20641W        W87424   5.294  32.656   3.104
20642W        W87425  31.654  34.360   0.794
20643W        W87426  14.793  34.658  12.069
20644W        W87427   9.672  22.076  10.713
20645W        W87428   9.765  32.571  11.357
20646W        W87429  25.544   0.181  13.044
20647W        W87430  21.609  15.675  13.865
20648W        W87431  42.393  24.165   0.433
20649W        W87432  27.665  19.975   1.390
20650W        W87433   6.197  39.331  12.510
20651W        W87434  37.890  22.576  10.770
20652W        W87435  25.655   1.804  10.242
20653W        W87436   7.155  20.290   3.867
20654W        W87437  14.537   0.704  11.241
20655W        W87438  31.114  13.774  10.721
20656W        W87439  13.175  41.475   2.381
20657W        W87440  43.345   3.673   0.306
20658W        W87441   7.879   9.391  14.553
20659W        W87442  39.238  38.495  11.555
20660W        W87443  43.997  30.517   0.437
20661W        W87444  38.811  19.375   3.679
20662W        W87445  22.758  39.603  13.449
20663W        W87446  26.857  12.547   2.587
20664W        W87447   2.224  16.677   3.683
20665W        W87448   7.356  31.637   1.900
20666W        W87449  30.052  40.453  14.145
20667W        W87450  28.684  32.817  12.690
20668W        W87451  19.574   3.003   0.755
20669W        W87452  16.516  14.896   2.524
20670W        W87453  27.095  37.523   3.739
20671W        W87454  14.603   5.299   1.857
20672W        W87455   3.450  32.585   3.543
20673W        W87456  40.502   7.230  14.483
20674W        W87457  18.518  17.175  10.895
20675W        W87458  10.357  36.366  14.523
20676W        W87459  19.037   9.897   2.695
20677W        W87460  11.794  10.903   5.189
20678W        W87461   3.817   4.811  10.046
20679W        W87462   3.024  26.216   0.132
20680W        W87463  11.668  12.162   3.697
20681W        W87464   7.477   0.660  12.977
20682W        W87465  31.492  12.484   1.839
20683W        W87466  41.634  42.552  10.583
20684W        W87467  15.050  16.441  12.908
20685W        W87468   0.158  40.377  13.984
20686W        W87469  30.707  23.817   1.846
20687W        W87470  13.644  32.850  11.609
20688W        W87471  33.267  42.350   2.385
20689W        W87472  34.370  17.021   3.638
20690W        W87473  43.258  39.536   2.492
20691W        W87474  36.790  23.625   1.227
20692W        W87475   8.987  25.166   5.049
20693W        W87476  33.997  15.457   3.722
20694W        W87477  22.190   2.055  11.037
20695W        W87478  12.162  41.094  13.810
20696W        W87479   3.992   9.782   3.742
20697W        W87480  43.350  25.936   1.172
20698W        W87481   9.559   3.926  12.294
20699W        W87482   0.597  16.563  14.614
20700W        W87483  14.333  12.438  13.812
20701W        W87484   9.726  32.913   2.313
20702W        W87485   3.871  43.173   2.784
20703W        W87486  32.869  17.275  12.633
20704W        W87487   7.730  15.685   4.565
20705W        W87488   3.000  43.849   1.391
20706W        W87489  36.682  43.449   2.316
20707W        W87490   7.407  18.625  10.747
20708W        W87491  11.174   0.372   2.687
20709W        W87492  32.141  25.641  13.171
20710W        W87493   9.697   5.260   0.406
20711W        W87494   7.676  10.082  14.060
20712W        W87495  29.755  19.081  14.784
20713W        W87496  43.416  33.530  12.168
20714W        W87497  44.379  34.859  12.427
20715W        W87498  26.061  44.569   5.009
20716W        W87499   5.295  33.428   4.754
20717W        W87500  27.771  39.016  11.570
20718W        W87501  43.365  16.050  10.944
20719W        W87502  30.475   3.268  10.665
20720W        W87503  14.970  24.419  13.203
20721W        W87504   6.711   8.990   2.311
20722W        W87505  21.358  34.324  11.108
20723W        W87506  36.437   6.230   9.825
20724W        W87507  12.021  21.242   2.283
20725W        W87508   1.711  21.423   0.584
20726W        W87509  33.978  26.004  14.411
20727W        W87510  28.506  13.390  14.926
20728W        W87511  16.349   6.702  11.931
20729W        W87512  23.747   0.734  14.907
20730W        W87513   3.502   3.889   4.669
20731W        W87514  20.802  24.187  11.646
20732W        W87515  33.023  44.666  14.029
20733W        W87516  37.086  25.048   0.044
20734W        W87517  29.905  15.251  12.630
20735W        W87518  34.468  13.107  11.014
20736W        W87519  40.033  16.623  14.794
20737W        W87520  11.223  10.940  11.159
20738W        W87521   1.321  35.656  10.700
20739W        W87522   9.729  35.817   2.186
20740W        W87523  21.756  28.011   1.396
20741W        W87524  31.421  30.466  14.294
20742W        W87525  44.689  43.323  11.153
20743W        W87526   2.881  19.348  14.052
20744W        W87527   9.882   8.545  13.503
20745W        W87528  31.891  16.986   1.314
20746W        W87529   2.164  38.440  14.337
20747W        W87530  25.564   2.706   4.229
20748W        W87531  33.915  10.152  13.581
20749W        W87532   1.271   5.119  14.839
20750W        W87533   4.931  42.751   1.286
20751W        W87534  23.157  14.385   4.173
20752W        W87535  40.214  41.358   3.698
20753W        W87536  44.021   0.678  14.887
20754W        W87537  34.488  12.754  11.444
20755W        W87538  18.850  13.400  12.026
20756W        W87539  42.291   4.299   1.775
20757W        W87540  21.679  32.903   0.461
20758W        W87541  26.075   0.420   1.205
20759W        W87542   7.366  12.082   0.341
20760W        W87543   2.799  25.629  13.809
20761W        W87544   5.911  35.998   0.859
20762W        W87545  10.346  21.538   0.803
20763W        W87546  41.341  34.506   1.304
20764W        W87547  21.943   9.459  10.789
20765W        W87548  37.874  11.250   4.335
20766W        W87549  37.523  26.865  14.935
20767W        W87550  18.291   0.346  14.995
20768W        W87551  27.661   2.845  13.590
20769W        W87552  26.660  20.115   1.265
20770W        W87553   5.057  30.078  14.848
20771W        W87554  13.659  36.110  14.358
20772W        W87555  30.237   2.836   1.814
20773W        W87556   8.887  13.019  13.409
20774W        W87557  21.088  26.170   2.095
20775W        W87558  27.521  38.428  14.698
20776W        W87559  18.564  39.739  12.136
20777W        W87560  31.733   3.178  13.003
20778W        W87561  25.605  40.545   2.186
20779W        W87562  13.335  40.283  10.983
20780W        W87563  29.676  27.194  14.543
20781W        W87564   0.276  28.295   0.440
20782W        W87565  41.498   5.378  14.562
20783W        W87566  37.873  44.938  12.412
20784W        W87567  38.454  13.826  13.472
20785W        W87568  31.421   9.139   0.705
20786W        W87569  27.777   6.701   0.307
20787W        W87570  40.594  13.580   2.821
20788W        W87571  13.408  44.311  10.795
20789W        W87572  28.869   4.301   2.246
20790W        W87573  24.809  25.022   4.071
20791W        W87574  15.508   9.440   3.265
20792W        W87575  28.138  42.094  11.572
20793W        W87576  14.394  29.618   3.080
20794W        W87577  18.244  40.305   4.119
20795W        W87578  30.332  42.249  10.492
20796W        W87579   7.244  25.990  12.310
20797W        W87580  27.093  37.160   3.317
20798W        W87581  18.642  36.062  14.803
20799W        W87582  15.551   6.004  12.172
20800W        W87583  36.092  31.041  11.447
20801W        W87584  25.917  44.743   1.442
20802W        W87585   4.662  31.298   4.446
20803W        W87586  14.226  14.607   3.137
20804W        W87587   6.804  30.937   3.025
20805W        W87588   5.701   0.360  14.310
20806W        W87589   9.719  30.645   2.664
20807W        W87590  44.687  42.771   2.732
20808W        W87591  33.562  23.836  12.670
20809W        W87592  28.434   1.282  11.049
20810W        W87593  36.998  16.538   0.004
20811W        W87594  30.359  16.558   0.817
20812W        W87595  27.965  17.270   5.027
20813W        W87596  23.671  24.041   1.718
20814W        W87597  13.674  35.597  14.238
20815W        W87598   0.398  40.101  11.157
20816W        W87599  12.762  27.415  12.894
20817W        W87600  35.837  29.612   4.583
20818W        W87601  31.905  18.798   4.294
20819W        W87602   1.558  32.435   0.983
20820W        W87603  34.085   3.816  14.566
20821W        W87604  34.207   8.788   4.060
20822W        W87605  18.263   1.022  14.277
20823W        W87606   1.759   0.450  14.321
20824W        W87607  20.065  20.660   1.423
20825W        W87608  40.353  12.790   1.835
20826W        W87609  19.020  38.506  13.416
20827W        W87610   8.762   2.288  11.734
20828W        W87611   1.486  23.899  12.980
20829W        W87612   7.436   3.664   0.017
20830W        W87613  23.468  12.924   2.660
20831W        W87614  35.165  19.602  12.620
20832W        W87615  41.462   0.348  10.807
20833W        W87616  43.038  20.965   3.424
20834W        W87617  36.316  21.806   0.251
20835W        W87618  11.826   6.641   4.012
20836W        W87619  25.475  17.621  11.653
20837W        W87620   5.864  31.388  14.249
20838W        W87621  18.687  26.042  12.024
20839W        W87622  24.419   5.329   3.177
20840W        W87623  34.840  28.794   0.698
20841W        W87624  19.640  21.753  14.191
20842W        W87625  28.497  38.562   4.287
20843W        W87626  34.719  16.639  12.465
20844W        W87627  34.974  30.496   1.760
20845W        W87628   6.830  37.253   4.800
20846W        W87629  39.472  29.689   1.753
20847W        W87630  38.380  44.545   4.194
20848W        W87631   0.253  32.009   4.577
20849W        W87632  41.272   0.709  13.459
20850W        W87633  21.599  38.991  14.738
20851W        W87634  22.582  16.360   0.375
20852W        W87635  40.527  36.031   3.799
20853W        W87636  20.666  13.325  13.321
20854W        W87637  28.792  21.631   0.558
20855W        W87638  33.475  33.560   0.402
20856W        W87639  39.882  35.626   4.953
20857W        W87640  17.616  30.997  14.631
20858W        W87641  38.336  18.683   2.025
20859W        W87642   2.077  24.259   0.309
20860W        W87643   9.201  15.228  14.108
20861W        W87644  35.015  36.651  11.214
20862W        W87645  20.335   6.807   2.281
20863W        W87646  41.278  25.234  13.582
20864W        W87647   4.018   3.722   3.821
20865W        W87648  13.622   7.584   4.187
20866W        W87649  43.365  43.439  10.576
20867W        W87650  23.637  22.800  10.698
20868W        W87651   6.828  16.345  11.765
20869W        W87652  10.252  13.470  11.995
20870W        W87653  14.424  34.127   4.512
20871W        W87654  34.226  41.737  13.002
20872W        W87655   3.040  31.793  12.407
20873W        W87656  37.512  15.428   0.770
20874W        W87657  44.521  24.941  11.085
20875W        W87658   0.782  35.352   3.202
20876W        W87659  43.015  34.587   1.625
20877W        W87660  43.660  41.357  12.799
20878W        W87661  21.128   6.874  12.514
20879W        W87662  12.410  34.477  14.505
20880W        W87663  33.286  35.396  12.930
20881W        W87664  34.818  19.938  10.785
20882W        W87665  21.785   2.672   2.155
20883W        W87666  44.370  20.512   4.314
20884W        W87667   6.737   5.474  11.578
20885W        W87668  19.062  17.322   4.501
20886W        W87669   5.419  40.059   2.735
20887W        W87670  19.587  37.310  11.193
20888W        W87671  14.768  43.852  12.051
20889W        W87672  12.453  17.709   3.248
20890W        W87673  10.780  18.317  13.402
20891W        W87674  28.972   0.569  13.391
20892W        W87675  33.405  34.675   1.387
20893W        W87676  13.664  21.823  12.424
20894W        W87677  34.836   0.042  11.802
20895W        W87678  42.857   0.652   3.366
20896W        W87679   7.780   8.859   4.688
20897W        W87680  37.250  24.665  13.794
20898W        W87681  41.031   9.704   3.992
20899W        W87682  20.605   4.760  13.955
20900W        W87683  20.500   4.679  13.450
20901W        W87684   9.565  11.274   4.531
20902W        W87685  11.198  11.442   4.606
20903W        W87686   6.731  40.389   0.827
20904W        W87687   9.550  25.749   3.548
20905W        W87688  27.971  42.282   4.382
20906W        W87689  19.603  43.804   3.885
20907W        W87690  25.340  38.606   3.657
20908W        W87691   8.955  28.133  12.890
20909W        W87692   9.628  43.653  11.252
20910W        W87693   4.375  36.829  14.293
20911W        W87694  38.399   5.779   2.246
20912W        W87695   7.365  24.563  14.712
20913W        W87696   0.943  40.523  14.379
20914W        W87697   7.006  28.070  11.009
20915W        W87698  41.975  28.610   1.469
20916W        W87699  12.050  18.041   3.198
20917W        W87700   6.311  21.167   0.770
20918W        W87701  37.687  28.211  11.165
20919W        W87702  24.651  28.065   4.944
20920W        W87703  22.756  37.799   2.760
20921W        W87704  27.160  25.826  13.748
20922W        W87705  42.694   0.279  12.997
20923W        W87706   1.792  34.558   0.883
20924W        W87707   3.437  25.257   3.582
20925W        W87708   1.922  39.027  14.968
20926W        W87709  40.468  41.942   1.143
20927W        W87710  37.847  38.702   0.533
20928W        W87711  11.612  43.735  11.399
20929W        W87712  23.557  35.068   2.469
20930W        W87713   9.881   4.425   1.674
20931W        W87714   3.583  16.095   4.844
20932W        W87715  13.835  38.565  11.225
20933W        W87716  40.180  41.875   3.702
20934W        W87717  21.584   5.913   0.368
20935W        W87718  22.265  10.628   3.125
20936W        W87719  44.547  35.437   4.337
20937W        W87720  40.358  35.235  13.852
20938W        W87721   2.434   7.256  13.386
20939W        W87722  38.819  13.853  14.277
20940W        W87723   8.621  24.005   3.736
20941W        W87724   9.806  18.657  10.703
20942W        W87725  21.216  20.322   0.822
20943W        W87726  40.077  37.001   3.635
20944W        W87727  18.312   9.895  10.535
20945W        W87728  33.105   2.434   1.923
20946W        W87729  36.022  29.607  13.395
20947W        W87730  15.591  39.440  13.030
20948W        W87731  28.381   2.718  12.959
20949W        W87732  19.754  11.776   3.643
20950W        W87733   0.620  33.772  12.266
20951W        W87734  17.121  29.919   3.602
20952W        W87735   7.472  26.908  13.451
20953W        W87736  11.379   8.868   2.858
20954W        W87737   9.034  20.193  13.534
20955W        W87738  15.855  42.093   3.306
20956W        W87739  28.571   9.401   2.288
20957W        W87740  41.678   3.233  11.752
20958W        W87741  14.008   8.585  10.863
20959W        W87742  21.922   0.974   1.416
20960W        W87743  35.914  44.929   0.314
20961W        W87744  26.638  43.175   4.973
20962W        W87745   8.723  15.163   4.097
20963W        W87746  14.558   0.517  13.890
20964W        W87747  43.233   9.184  10.794
20965W        W87748  43.419   4.267  13.357
20966W        W87749  34.484  35.024   4.561
20967W        W87750  40.930  17.325   1.890
20968W        W87751  37.996  15.674   2.175
20969W        W87752  39.919  37.880   4.072
20970W        W87753  34.427  13.395   4.323
20971W        W87754  29.898  22.100  11.185
20972W        W87755   8.703  40.501   3.774
20973W        W87756  28.757   7.444   0.928
20974W        W87757   6.023   2.579   4.087
20975W        W87758  36.852  26.301  14.176
20976W        W87759  32.226  26.424   5.066
20977W        W87760  35.293  35.447  12.961
20978W        W87761  10.606  34.503   3.536
20979W        W87762  14.074  33.950   5.469
20980W        W87763   1.333  36.616  11.148
20981W        W87764  24.234  32.187   2.669
20982W        W87765   1.340   0.696   0.243
20983W        W87766   0.814  32.844  12.955
20984W        W87767  24.527  34.081   2.821
20985W        W87768  13.030   7.468   3.328
20986W        W87769  43.541  23.117  13.439
20987W        W87770  14.145  38.758  13.097
20988W        W87771  26.908  16.397  13.384
20989W        W87772  21.283  22.720  12.602
20990W        W87773  41.320   8.858  12.618
20991W        W87774  13.564  35.411   4.090
20992W        W87775  42.852   4.844   0.310
20993W        W87776  37.491  27.585  13.574
20994W        W87777  30.540   9.459   1.890
20995W        W87778  16.273  15.317  13.654
20996W        W87779  13.157  36.303  13.403
20997W        W87780  26.054   9.779  13.392
20998W        W87781  34.985   3.183   2.014
20999W        W87782   3.619  39.392   1.785
21000W        W87783  12.813  24.910   2.234
21001W        W87784  31.698  12.160  14.937
21002W        W87785  44.008  16.756  14.075
21003W        W87786  42.488  12.451  10.732
21004W        W87787  10.368   7.949   0.425
21005W        W87788  34.600  22.670  13.832
21006W        W87789   3.150  22.590  14.409
21007W        W87790  28.038  18.073   1.321
21008W        W87791   7.961  31.954   4.559
21009W        W87792  43.289  27.167  14.918
21010W        W87793   5.201  39.457   4.172
21011W        W87794  28.051  37.976   2.712
21012W        W87795  12.643  42.599  13.840
21013W        W87796  13.644   8.505   1.796
21014W        W87797   4.746  20.674  10.602
21015W        W87798   7.520  40.865   3.180
21016W        W87799  38.950   8.373  11.642
21017W        W87800   0.924  23.228  11.992
21018W        W87801  19.262  38.628  12.085
21019W        W87802   7.759  28.919   2.440
21020W        W87803  42.626  37.166  12.760
21021W        W87804  37.925  44.945   1.303
21022W        W87805   2.486  44.460  13.033
21023W        W87806  37.317  25.060   4.287
21024W        W87807  27.069  11.805   0.646
21025W        W87808  43.718  40.530   4.714
21026W        W87809  35.157  29.517   4.975
21027W        W87810  40.306   1.500  13.391
21028W        W87811   5.656   2.202  13.575
21029W        W87812  13.809  13.812   2.839
21030W        W87813  35.485  37.454   3.503
21031W        W87814   9.595  34.986  14.512
21032W        W87815  27.530  23.310  14.627
21033W        W87816  36.024  29.095  13.452
21034W        W87817  14.546  11.004  14.954
21035W        W87818  15.758  32.539  14.314
21036W        W87819  16.558   9.328   4.550
21037W        W87820  23.689  40.885  11.833
21038W        W87821   8.345   1.218   1.428
21039W        W87822  16.576  40.834   4.623
21040W        W87823  28.679   3.184  12.403
21041W        W87824  42.697  24.785   1.531
21042W        W87825   3.850  44.584   1.943
21043W        W87826  10.297  15.057   0.237
21044W        W87827  27.595  14.359   3.672
21045W        W87828  41.039  32.857  12.883
21046W        W87829  34.433  29.385  11.156
21047W        W87830  25.935  25.545   0.501
21048W        W87831  28.599  16.210   2.376
21049W        W87832  24.349   4.122  12.688
21050W        W87833  12.100  12.603  13.866
21051W        W87834  18.906  39.536   1.455
21052W        W87835  38.797  37.886  10.443
21053W        W87836  20.769  20.026   0.432
21054W        W87837  19.141  38.073   3.270
21055W        W87838  28.918  33.470   3.708
21056W        W87839  25.452  33.956   2.903
21057W        W87840  38.942  19.255   0.428
21058W        W87841   7.557  25.659  14.067
21059W        W87842  36.433   3.440   3.772
21060W        W87843  38.582  21.232  13.369
21061W        W87844  14.839  16.204   0.854
21062W        W87845  17.122  25.080  11.537
21063W        W87846  16.037   8.341   4.131
21064W        W87847  17.063  34.697   1.867
21065W        W87848  15.359  23.148  13.846
21066W        W87849  44.079  30.738   1.819
21067W        W87850  16.857   3.591   1.711
21068W        W87851  24.131  15.764   0.748
21069W        W87852  29.896   1.431   3.718
21070W        W87853  40.925   0.209  12.090
21071W        W87854  19.603   0.681  10.747
21072W        W87855   8.301  20.759  12.959
21073W        W87856  44.889  17.776  12.447
21074W        W87857   5.121  37.743   4.724
21075W        W87858   2.484  44.974   1.736
21076W        W87859  39.816  25.392   4.250
21077W        W87860  13.794  41.004   4.610
21078W        W87861  32.363  28.486   4.126
21079W        W87862  28.962  21.762   1.442
21080W        W87863   3.409  42.297  14.349
21081W        W87864   5.325   0.637  11.270
21082W        W87865  12.161  28.069   3.513
21083W        W87866  13.924  35.506   2.837
21084W        W87867  34.596  13.749   0.085
21085W        W87868   4.818  30.993   4.006
21086W        W87869   9.429  10.858   4.243
21087W        W87870  19.123  25.536  14.089
21088W        W87871  41.991  21.284   4.166
21089W        W87872  38.579   2.395   1.300
21090W        W87873  16.612   6.685  11.497
21091W        W87874  39.862  36.486  11.192
21092W        W87875  44.350  14.564  11.988
21093W        W87876  15.418  23.618   3.139
21094W        W87877   1.612  10.272  10.596
21095W        W87878   0.014   4.691  11.086
21096W        W87879  42.585  41.433  13.814
21097W        W87880  44.716  25.006   0.336
21098W        W87881  20.241  17.102  12.898
21099W        W87882  11.635   6.288  11.055
21100W        W87883  21.217   2.348   3.492
21101W        W87884  18.779  17.736  11.528
21102W        W87885   8.841  23.089  11.720
21103W        W87886  10.722  39.886   1.766
21104W        W87887  28.098  41.612  10.747
21105W        W87888  36.857   1.086   0.035
21106W        W87889  19.156  25.760   0.874
21107W        W87890   3.754  24.491   4.892
21108W        W87891   9.335  24.548   3.424
21109W        W87892  37.443   5.450  10.501
21110W        W87893  21.677   7.359  10.697
21111W        W87894   9.587   6.899  11.635
21112W        W87895  24.681   4.428   1.412
21113W        W87896  27.939   0.878   4.199
21114W        W87897  28.015   5.694   3.405
21115W        W87898  36.665  34.352   1.757
21116W        W87899  24.040  37.686  10.902
21117W        W87900  32.858  16.793  12.448
21118W        W87901  12.414   0.523   0.865
21119W        W87902   3.775  23.567  11.282
21120W        W87903  37.782  33.160  10.993
21121W        W87904  43.029  41.002  11.618
21122W        W87905  13.566  18.608   3.443
21123W        W87906  19.644  38.473  13.141
21124W        W87907   8.798  29.665  13.048
21125W        W87908  36.027   1.888  14.366
21126W        W87909  25.228  44.090  13.802
21127W        W87910   7.816  27.559   4.206
21128W        W87911  23.281  11.277  12.555
21129W        W87912  24.171  15.126  12.863
21130W        W87913  22.541  18.703  10.902
21131W        W87914   7.939  38.300  11.336
21132W        W87915   6.137  44.703   0.120
21133W        W87916  22.062  43.141  13.816
21134W        W87917  23.586  19.261  11.427
21135W        W87918  44.400  16.816   4.060
21136W        W87919  43.702  29.461   3.178
21137W        W87920  26.418  39.314  13.866
21138W        W87921  42.553  12.320   1.312
21139W        W87922  12.809  38.341   3.704
21140W        W87923   0.614  25.172   4.559
21141W        W87924  31.088   0.733  14.247
21142W        W87925  43.500  26.650  13.591
21143W        W87926  14.849  18.146  13.082
21144W        W87927  11.780  29.393   5.108
21145W        W87928  25.883  29.622  10.528
21146W        W87929  41.300  14.782   0.371
21147W        W87930  27.487  35.256   3.641
21148W        W87931   2.953   4.645   2.899
21149W        W87932   4.202   2.947  12.747
21150W        W87933  34.470  39.369  13.804
21151W        W87934  38.014  37.191   2.160
21152W        W87935  31.026   4.508   3.258
21153W        W87936  32.085  32.632  12.540
21154W        W87937   9.848  15.236   1.950
21155W        W87938  34.381   8.430   2.267
21156W        W87939  13.106  32.414   0.959
21157W        W87940  44.251  29.007  12.146
21158W        W87941   4.241   7.804   0.188
21159W        W87942   2.437   0.845  13.769
21160W        W87943  19.775  21.016   0.337
21161W        W87944  39.258  38.241   2.312
21162W        W87945  13.991  24.080   1.113
21163W        W87946  15.011  12.168  14.877
21164W        W87947  20.967  31.577  11.897
21165W        W87948   1.836  37.280  13.521
21166W        W87949  24.081  17.764   1.581
21167W        W87950  30.009  15.531   1.280
21168W        W87951  25.634  14.347  12.110
21169W        W87952  15.768   3.486   2.737
21170W        W87953  23.986  18.055  10.243
21171W        W87954   8.201  26.610   3.612
21172W        W87955  32.551   8.497   0.240
21173W        W87956  26.483  33.426   3.252
21174W        W87957  21.926  12.660  11.131
21175W        W87958  16.336  15.173  12.474
21176W        W87959   9.247  42.819   5.065
21177W        W87960   1.776  44.300  11.933
21178W        W87961  29.996  12.688   1.187
21179W        W87962  16.629  13.102   4.601
21180W        W87963  11.311  19.871   2.786
21181W        W87964  42.044  33.163   4.683
21182W        W87965  14.794  13.345   4.071
21183W        W87966  36.480  36.949  12.071
21184W        W87967  44.939  35.439   4.683
21185W        W87968  24.299  34.960   2.875
21186W        W87969  30.034  34.959   0.030
21187W        W87970  41.882   3.006   1.821
21188W        W87971  32.346  28.894  11.471
21189W        W87972  13.094   9.764   1.760
21190W        W87973  14.349  18.826  14.883
21191W        W87974   6.654  15.107   0.848
21192W        W87975  12.321  24.772   3.806
21193W        W87976  22.212  41.065   1.322
21194W        W87977  28.147  28.303   3.870
21195W        W87978   8.431  15.092   1.681
21196W        W87979  28.714  40.335   4.917
21197W        W87980  32.580   0.506  13.087
21198W        W87981  38.335  38.852  10.608
21199W        W87982  31.473  35.753  14.528
21200W        W87983  26.552  23.597  13.811
21201W        W87984  30.443   6.697  10.650
21202W        W87985  27.910  44.809  10.555
21203W        W87986  29.296  14.413   0.224
21204W        W87987  12.232  26.582  12.642
21205W        W87988  26.692  11.873   1.454
21206W        W87989   2.574  20.187  13.890
21207W        W87990  20.196   7.040   3.325
21208W        W87991   9.881  39.391  11.193
21209W        W87992   3.589  32.313  12.337
21210W        W87993  26.085  23.127  12.249
21211W        W87994  28.701  31.995  14.663
21212W        W87995  14.189  13.812  12.039
21213W        W87996  34.100  30.105  11.199
21214W        W87997   3.480  22.559  13.048
21215W        W87998  36.265   7.351  13.946
21216W        W87999  25.595   8.700   2.210
21217W        W88000   0.287   8.127   4.190
21218W        W88001  16.859  35.513   1.204
21219W        W88002  16.571  14.240  10.362
21220W        W88003  14.783  39.516   4.292
21221W        W88004   6.917  43.832  11.078
21222W        W88005   0.351   4.597  14.448
21223W        W88006  37.633  29.537  13.902
21224W        W88007  44.714   4.147  12.969
21225W        W88008  24.719   0.337  12.534
21226W        W88009  28.955  23.267  11.272
21227W        W88010  10.103  19.922   4.052
21228W        W88011   4.700  32.063   0.334
21229W        W88012  25.512  41.196  13.716
21230W        W88013  20.327  26.498   1.335
21231W        W88014  40.888   8.847  10.049
21232W        W88015   0.583  10.168  11.393
21233W        W88016  31.075   7.803   4.585
21234W        W88017  36.540  13.221   4.255
21235W        W88018  28.413   6.302  11.343
21236W        W88019  40.507  19.655   1.376
21237W        W88020  33.600   1.918   3.204
21238W        W88021  30.679  21.106   3.126
21239W        W88022  29.520  28.434   4.199
21240W        W88023  40.293  13.232  12.028
21241W        W88024  41.838  11.570  13.034
21242W        W88025  29.880  13.781   4.391
21243W        W88026  11.168   4.640   4.595
21244W        W88027  36.620  13.861   0.354
21245W        W88028  19.133  40.923  11.655
21246W        W88029  18.470  22.041  12.978
21247W        W88030  40.330  17.227  13.082
21248W        W88031  33.835   4.434   5.369
21249W        W88032  42.905  12.091  13.922
21250W        W88033  34.634  34.461   4.205
21251W        W88034  44.529   6.413  14.840
21252W        W88035  39.939  28.604  10.962
21253W        W88036  22.983  22.188  14.382
21254W        W88037  22.780  22.204   4.276
21255W        W88038   8.814  33.130   1.421
21256W        W88039  37.548   8.233  12.559
21257W        W88040   0.709  23.218   1.522
21258W        W88041  38.984  24.569   1.594
21259W        W88042  30.113  26.928  14.390
21260W        W88043  36.135  10.623   3.913
21261W        W88044   1.762  16.832   2.843
21262W        W88045  39.072  13.735   0.250
21263W        W88046  41.977  37.061  11.399
21264W        W88047  40.057  25.947  11.146
21265W        W88048  17.146  15.701  13.008
21266W        W88049  37.640  26.533  10.699
21267W        W88050   3.742  32.062   2.161
21268W        W88051  17.840  30.793   0.629
21269W        W88052   9.371  36.522  10.599
21270W        W88053  43.086  40.683   2.664
21271W        W88054  20.116  17.575  12.633
21272W        W88055  22.749  44.970   4.613
21273W        W88056   3.078   2.812   4.064
21274W        W88057  26.354  35.910   2.655
21275W        W88058  24.572  29.278  11.897
21276W        W88059  17.828  23.064   4.066
21277W        W88060  12.823  36.660   0.870
21278W        W88061   6.194  19.436   4.818
21279W        W88062   6.677  24.530   1.431
21280W        W88063  12.055  10.576  11.964
21281W        W88064  27.548  39.864   1.323
21282W        W88065  15.234  24.730  14.079
21283W        W88066  42.753  31.756  12.728
21284W        W88067  14.535  40.615   0.642
21285W        W88068  40.507   8.076   4.967
21286W        W88069   3.163  27.563   2.310
21287W        W88070  36.035   8.477  11.202
21288W        W88071   5.920  12.244   3.713
21289W        W88072  44.235  18.298   5.148
21290W        W88073  23.977  24.673   2.280
21291W        W88074  20.454  18.945  14.785
21292W        W88075  21.241  33.063   3.290
21293W        W88076  39.915  40.959   0.446
21294W        W88077   8.452  42.614  12.412
21295W        W88078   6.056  12.683  14.895
21296W        W88079  25.613  38.483   1.062
21297W        W88080  40.787  11.234   0.324
21298W        W88081   8.634  33.215   4.061
21299W        W88082  32.071   5.666  10.213
21300W        W88083  20.180   9.079  11.440
21301W        W88084  30.542  31.980   0.256
21302W        W88085  44.559  12.136   0.268
21303W        W88086  14.360   3.868  14.781
21304W        W88087  44.247   9.283   2.789
21305W        W88088  22.233  11.678  13.134
21306W        W88089   2.112  16.369   1.969
21307W        W88090  22.980   5.834   2.277
21308W        W88091   8.308  44.295  11.241
21309W        W88092  12.724  14.178   2.166
21310W        W88093  36.883  19.664   1.134
21311W        W88094  26.119  20.219  13.189
21312W        W88095   5.153  13.538  14.366
21313W        W88096   2.987   0.591  10.750
21314W        W88097  26.495  21.180  12.975
21315W        W88098  20.076  28.534   3.565
21316W        W88099  15.611  23.168   0.311
21317W        W88100  11.310   0.509  14.415
21318W        W88101  14.805  32.469   0.904
21319W        W88102  13.928  29.997  14.058
21320W        W88103   0.150   9.193   0.756
21321W        W88104  36.776  24.873  12.009
21322W        W88105  10.992  35.015  13.997
21323W        W88106  19.564   8.302  14.425
21324W        W88107  33.546  37.441  13.844
21325W        W88108  33.128  40.829   4.017
21326W        W88109  28.047   3.259  13.028
21327W        W88110  35.455  37.999  14.571
21328W        W88111  30.974  36.258   3.504
21329W        W88112  24.124  37.000  11.639
21330W        W88113  36.154   8.418  12.511
21331W        W88114  21.333  36.840   3.573
21332W        W88115  32.881  35.852   4.489
21333W        W88116  18.073  28.896  13.934
21334W        W88117  32.764  31.251  11.449
21335W        W88118  19.688  32.643   1.762
21336W        W88119   0.268  26.210  13.285
21337W        W88120  10.320  11.130   3.138
21338W        W88121  12.944   0.924  14.676
21339W        W88122   4.937  12.777  12.038
21340W        W88123  22.831  18.770  13.704
21341W        W88124  27.003  43.291   0.808
21342W        W88125  10.333  18.396  12.650
21343W        W88126  29.950  17.540   1.611
21344W        W88127  14.200   2.324  10.666
21345W        W88128  11.899  14.638  13.013
21346W        W88129  40.744  17.872   0.817
21347W        W88130   4.185  19.503  12.225
21348W        W88131  29.834  15.322   2.793
21349W        W88132  13.000  12.585  14.971
21350W        W88133  25.321   4.470   2.791
21351W        W88134  32.618   8.809   0.674
21352W        W88135  26.139   9.187  14.735
21353W        W88136  15.056  25.657  13.799
21354W        W88137   0.106  26.128   0.374
21355W        W88138  26.137  26.205   2.542
21356W        W88139  35.169  40.999  14.534
21357W        W88140  41.497  21.142   4.795
21358W        W88141   4.504  44.627  11.131
21359W        W88142  20.569   2.802  11.611
21360W        W88143  18.922  17.027  13.442
21361W        W88144  28.748  35.428  13.090
21362W        W88145   9.954  21.756  13.817
21363W        W88146  42.303  21.503   1.232
21364W        W88147  42.823  25.731   3.888
21365W        W88148  23.998  20.954  10.780
21366W        W88149  10.097  40.349   0.296
21367W        W88150   3.098  30.524   1.896
21368W        W88151  20.643  33.954   1.118
21369W        W88152  36.428  17.732   4.223
21370W        W88153  33.840  21.078  14.791
21371W        W88154  30.425   7.227   3.519
21372W        W88155  37.566   3.288   0.018
21373W        W88156  23.518   5.823  10.882
21374W        W88157  24.088  27.647   4.451
21375W        W88158  14.406  13.722   0.869
21376W        W88159  25.222  39.378  10.204
21377W        W88160   2.041   4.399  10.880
21378W        W88161  40.255  41.106  12.006
21379W        W88162  15.570  26.963   3.599
21380W        W88163  38.474  22.548  12.977
21381W        W88164   3.107  20.587   4.614
21382W        W88165  32.728   0.518   2.809
21383W        W88166   9.314  20.936  14.799
21384W        W88167  29.198  17.173  12.095
21385W        W88168  44.516  10.515  10.713
21386W        W88169  19.519  14.659   3.083
21387W        W88170   5.970  33.363  14.003
21388W        W88171   2.472  25.973   4.417
21389W        W88172  28.837   7.256  11.245
21390W        W88173  34.170  24.184  10.653
21391W        W88174  12.272  37.285   0.637
21392W        W88175  42.074  28.198  13.932
21393W        W88176  13.147  10.756   4.148
21394W        W88177   6.681  18.514   4.457
21395W        W88178  11.013  38.720   4.624
21396W        W88179  22.941  24.385   4.804
21397W        W88180  21.342  26.655  13.792
21398W        W88181   1.578  17.048  12.611
21399W        W88182  18.859  17.729  14.547
21400W        W88183  26.694  26.714   1.205
21401W        W88184  17.541  10.089   2.938
21402W        W88185   5.842  44.505   4.176
21403W        W88186  37.305  20.250   3.229
21404W        W88187  32.893  39.511   3.729
21405W        W88188  34.830  31.446  11.862
21406W        W88189  30.126  38.097  13.879
21407W        W88190  31.886  22.152  13.789
21408W        W88191   3.493  26.586   1.466
21409W        W88192  26.855  21.324  11.575
21410W        W88193  37.901  11.887  13.312
21411W        W88194  42.434   4.945  11.542
21412W        W88195  22.011   6.692   1.243
21413W        W88196  35.011  36.299   0.732
21414W        W88197  33.242  27.229   1.793
21415W        W88198   8.904  35.878  12.891
21416W        W88199   1.285  35.104  14.204
21417W        W88200  22.634   1.198   2.420
21418W        W88201  17.158   8.149  14.010
21419W        W88202  12.998  21.530   1.703
21420W        W88203  29.825   8.426  12.005
21421W        W88204   2.300  22.717   0.447
21422W        W88205  21.707  12.842   2.676
21423W        W88206  41.302  40.454   3.248
21424W        W88207   3.842  27.708  12.665
21425W        W88208  10.102   4.098   2.339
21426W        W88209  30.655  43.779  10.753
21427W        W88210  19.502  33.471   3.222
21428W        W88211  16.241  21.059  10.624
21429W        W88212   1.321  39.879  14.917
21430W        W88213  26.429  41.040   3.345
21431W        W88214  13.713  11.597  12.483
21432W        W88215  31.600  15.427   2.540
21433W        W88216  27.753  12.676   0.392
21434W        W88217  44.249  38.297  10.785
21435W        W88218  36.479   2.706   3.040
21436W        W88219  11.274  34.875   0.459
21437W        W88220  16.188  38.438  14.323
21438W        W88221   7.374  20.459   2.177
21439W        W88222  38.306  29.427  12.097
21440W        W88223  40.306  38.427  12.426
21441W        W88224  35.043  33.381  10.756
21442W        W88225  42.477  10.708  14.719
21443W        W88226  19.744   6.386   4.337
21444W        W88227   1.080  31.443  11.461
21445W        W88228  28.619  32.425  14.362
21446W        W88229  21.203  13.203   5.068
21447W        W88230  20.811  35.910   3.771
21448W        W88231  43.329  20.320   4.176
21449W        W88232  27.122  37.936   9.909
21450W        W88233  11.033  33.291   4.316
21451W        W88234  44.661  35.970   4.175
21452W        W88235   7.934  39.295  13.599
21453W        W88236  31.537  23.475  14.019
21454W        W88237  23.021   1.508   5.406
21455W        W88238  23.082   5.920  11.644
21456W        W88239   6.305  22.740  10.683
21457W        W88240   0.677  19.678   1.484
21458W        W88241   7.545  22.458   5.003
21459W        W88242   2.523  39.105   4.815
21460W        W88243  13.262  43.427  12.040
21461W        W88244  15.136  33.639   4.877
21462W        W88245  17.576  17.676   1.228
21463W        W88246  41.011  14.592   1.470
21464W        W88247   0.183  16.293  12.926
21465W        W88248  13.444  38.402   4.127
21466W        W88249   4.969  30.056   2.561
21467W        W88250  36.740  18.773  14.545
21468W        W88251  35.607  28.167   4.530
21469W        W88252   1.711  15.621  13.338
21470W        W88253  37.960  19.875   4.318
21471W        W88254   4.966  37.438   0.195
21472W        W88255  41.878  19.778   3.305
21473W        W88256  21.756   7.201  13.570
21474W        W88257  44.020  36.328   4.616
21475W        W88258   8.804  25.582  12.307
21476W        W88259  24.910  13.800   2.351
21477W        W88260  40.028  29.718  11.554
21478W        W88261  17.214   4.401  10.759
21479W        W88262  30.675  24.009  13.702
21480W        W88263  29.022   2.956   2.813
21481W        W88264  30.949  23.467   3.165
21482W        W88265  37.375  30.291  12.911
21483W        W88266  25.478   0.924   4.065
21484W        W88267  31.149  24.082   1.857
21485W        W88268  40.552  37.473  14.975
21486W        W88269   4.165  38.078   2.900
21487W        W88270  17.300   0.792  10.594
21488W        W88271  43.262  42.822   3.715
21489W        W88272  32.840  35.832   3.723
21490W        W88273  12.642  34.984  11.955
21491W        W88274  44.674  22.316   1.175
21492W        W88275  19.912  35.926   4.584
21493W        W88276  23.611  28.153  14.796
21494W        W88277  16.353  36.574  11.117
21495W        W88278   6.749  32.014  13.670
21496W        W88279  32.413   4.701  11.547
21497W        W88280  25.750  19.438  11.606
21498W        W88281  43.441  42.338   3.682
21499W        W88282  35.951  30.613   2.112
21500W        W88283  42.267  12.696   1.723
21501W        W88284  40.817  25.578  12.512
21502W        W88285  20.700  19.710  13.108
21503W        W88286  23.293  18.254  12.427
21504W        W88287   3.664   6.245  11.162
21505W        W88288   2.438   1.215   3.172
21506W        W88289  10.778  25.998  12.912
21507W        W88290   4.391  40.548  14.257
21508W        W88291  18.287  34.147  11.092
21509W        W88292  20.811  30.726  14.952
21510W        W88293   4.511  43.345   0.687
21511W        W88294  10.814  16.133   3.622
21512W        W88295  12.195  23.837   2.742
21513W        W88296  15.884  31.843   0.838
21514W        W88297  41.244   4.549   1.962
21515W        W88298   4.305  32.498  12.942
21516W        W88299  12.678  25.953   4.558
21517W        W88300  32.948   5.358  12.395
21518W        W88301  18.252  35.969  14.489
21519W        W88302  21.627  30.701   0.994
21520W        W88303  14.704  43.502   4.148
21521W        W88304  20.163  28.176   5.039
21522W        W88305   5.443  27.514   2.782
21523W        W88306  30.263   9.941  13.559
21524W        W88307  32.522  23.216   2.273
21525W        W88308   4.838  25.768  11.680
21526W        W88309  14.739  16.520  14.851
21527W        W88310  39.320   7.180  14.898
21528W        W88311  43.363   2.568   1.412
21529W        W88312  33.327  28.859  11.318
21530W        W88313   0.763   5.336  14.841
21531W        W88314   5.209  29.082   2.397
21532W        W88315  38.933  30.578  14.447
21533W        W88316  21.584  39.705   2.375
21534W        W88317   7.134   6.117  13.865
21535W        W88318   7.980  19.468   4.484
21536W        W88319  13.746   7.838   9.734
21537W        W88320   2.139   1.887  12.640
21538W        W88321  26.595  44.716  12.431
21539W        W88322  37.435  38.870   4.016
21540W        W88323  26.633  41.947  14.819
21541W        W88324  39.254  28.753   3.344
21542W        W88325  35.098  33.651   0.114
21543W        W88326  23.449  33.033   1.415
21544W        W88327  13.728   2.042  13.499
21545W        W88328   0.291   0.352  11.724
21546W        W88329  13.772  16.437  14.898
21547W        W88330  28.070  41.342   0.721
21548W        W88331  16.641   3.643  14.630
21549W        W88332  44.976  14.795  12.611
21550W        W88333   3.142  30.096   4.895
21551W        W88334  18.018   6.729   4.548
21552W        W88335   2.071  17.040   3.272
21553W        W88336  35.874  19.701   4.884
21554W        W88337  26.729  26.355  10.420
21555W        W88338  32.635  43.035  14.663
21556W        W88339  14.628  44.231   3.165
21557W        W88340  36.935  17.255   4.565
21558W        W88341  19.593   2.622   3.611
21559W        W88342  20.364  31.374   3.193
21560W        W88343  43.041  33.020   4.649
21561W        W88344  40.789  10.027  13.022
21562W        W88345   5.510  20.181  11.550
21563W        W88346  10.195  32.036   2.134
21564W        W88347  40.613   4.668   4.114
21565W        W88348  26.429  12.604  14.962
21566W        W88349  30.171  10.902  13.446
21567W        W88350  44.538  12.891   4.642
21568W        W88351  11.710  25.522  10.400
21569W        W88352  20.341  12.361   4.179
21570W        W88353  42.353  30.015   2.628
21571W        W88354   8.996  22.055  13.981
21572W        W88355   7.901  13.541  12.901
21573W        W88356   2.670   1.122   0.310
21574W        W88357  28.121  40.991   9.934
21575W        W88358  18.516  33.118  12.949
21576W        W88359  29.954  32.375  12.585
21577W        W88360  19.162  44.633   4.744
21578W        W88361  26.505  38.992  12.476
21579W        W88362  12.211   2.281   3.740
21580W        W88363  15.211  43.225   4.049
21581W        W88364   9.383  22.192  12.472
21582W        W88365  15.724  10.862  11.973
21583W        W88366  29.982  14.118   3.990
21584W        W88367   2.724  23.164  13.850
21585W        W88368  12.233  41.550   1.323
21586W        W88369  14.595  43.701   2.556
21587W        W88370  11.932  34.073   1.817
21588W        W88371  23.985   0.459   2.598
21589W        W88372   5.232   2.052   4.107
21590W        W88373  31.630   1.613  13.201
21591W        W88374  23.664  40.946  13.335
21592W        W88375  25.065  32.214   3.615
21593W        W88376   4.688   9.919   4.541
21594W        W88377  29.651   5.825   1.779
21595W        W88378  15.818   4.401  13.950
21596W        W88379   0.258   8.747  13.873
21597W        W88380   8.105  34.574   2.838
21598W        W88381   5.939   4.114   4.334
21599W        W88382  33.806  27.551   3.669
21600W        W88383  35.482  38.318   1.471
21601W        W88384  44.896  31.194   1.640
21602W        W88385  29.901  14.224  12.945
21603W        W88386  24.230   8.746   3.657
21604W        W88387  26.787  31.218   4.597
21605W        W88388  35.354  21.277  11.120
21606W        W88389  12.092   6.389  12.293
21607W        W88390  21.597   1.400   4.755
21608W        W88391  11.209  42.320   3.405
21609W        W88392  39.283  24.105   1.309
21610W        W88393  35.322  29.648   4.440
21611W        W88394  29.402  26.419   3.650
21612W        W88395  12.357   2.055   1.439
21613W        W88396  22.154  29.129  14.130
21614W        W88397  16.814  39.313  11.525
21615W        W88398  24.389  11.266  10.666
21616W        W88399  13.246  30.889   2.513
21617W        W88400   1.336  30.995   0.696
21618W        W88401  42.230  39.739   2.788
21619W        W88402  18.246  38.803  12.975
21620W        W88403   9.991  19.377  12.424
21621W        W88404  13.122  31.982  12.501
21622W        W88405  19.874  31.614   1.994
21623W        W88406  38.355   6.858  13.348
21624W        W88407  18.855   9.328   4.090
21625W        W88408   9.672  43.944   4.745
21626W        W88409  32.135  37.435  10.369
21627W        W88410  29.678   6.091   1.336
21628W        W88411  26.109  40.521   2.269
21629W        W88412  10.601  32.051  11.211
21630W        W88413  25.512  16.961   4.598
21631W        W88414  24.595  16.132   4.465
21632W        W88415  23.215   0.791   2.905
21633W        W88416  35.831   6.027  14.427
21634W        W88417  11.971  40.794   1.718
21635W        W88418  43.072  27.752   4.176
21636W        W88419  34.796  38.826  10.306
21637W        W88420   9.729  43.886  13.957
21638W        W88421  39.822  41.004   4.550
21639W        W88422  14.776  11.232  14.549
21640W        W88423  40.543  42.226  14.267
21641W        W88424   3.374   5.340   1.244
21642W        W88425  26.625  11.755   0.391
21643W        W88426  12.883  19.814   2.052
21644W        W88427  43.224  34.392   2.905
21645W        W88428  25.959  20.526   1.449
21646W        W88429  23.684  28.176  11.059
21647W        W88430   1.471   8.871   1.390
21648W        W88431   1.247  34.622  10.670
21649W        W88432  24.228  44.932  11.727
21650W        W88433  44.265  44.207  14.358
21651W        W88434  42.028  42.478   3.420
21652W        W88435  12.648  15.116   4.665
21653W        W88436   4.859  31.570  14.611
21654W        W88437  16.519   0.721   2.076
21655W        W88438  36.906  26.372  11.988
21656W        W88439   0.915  33.021  11.442
21657W        W88440  30.454  13.449   1.446
21658W        W88441  21.511  20.708  14.864
21659W        W88442  13.065  31.960   4.533
21660W        W88443  33.092  24.444  14.387
21661W        W88444  23.658  33.415  12.970
21662W        W88445  29.512  17.868  12.985
21663W        W88446  12.264  20.082  10.619
21664W        W88447  34.084  30.620  13.897
21665W        W88448  18.680  41.232  11.711
21666W        W88449   0.889   1.368  14.965
21667W        W88450   1.283  27.203  14.377
21668W        W88451   2.015  38.960   4.660
21669W        W88452  30.240  34.799  11.561
21670W        W88453  12.126   2.926   1.703
21671W        W88454  14.052  35.052   4.561
21672W        W88455  27.085  37.620   5.110
21673W        W88456  44.954  29.189  11.140
21674W        W88457  33.636   9.220   1.843
21675W        W88458  36.437  26.348  13.439
21676W        W88459  38.327  24.200   2.279
21677W        W88460  35.223  20.743   1.776
21678W        W88461  23.686  15.747  13.850
21679W        W88462  24.881   9.285  10.349
21680W        W88463   8.734   9.827   0.264
21681W        W88464  11.026  13.207   1.900
21682W        W88465  30.412   0.214  11.522
21683W        W88466   6.312   2.942  12.843
21684W        W88467   9.884  30.821   1.287
21685W        W88468  41.413  37.819  10.548
21686W        W88469  24.480  33.054  13.915
21687W        W88470  37.824  44.730  11.515
21688W        W88471  28.682  12.160   4.394
21689W        W88472  41.477  27.474   2.482
21690W        W88473  37.102  19.318   2.297
21691W        W88474   7.085  35.919  10.666
21692W        W88475  12.807  43.287  14.920
21693W        W88476  31.969  27.610  14.581
21694W        W88477   9.332  13.685   2.642
21695W        W88478  26.174  43.759   2.814
21696W        W88479  44.545  12.194  13.819
21697W        W88480   5.966  15.674  11.998
21698W        W88481   1.478  34.323   2.990
21699W        W88482   0.932  20.185   0.203
21700W        W88483  30.129  19.405  14.948
21701W        W88484  31.434  41.545   1.947
21702W        W88485  23.105  32.934   3.222
21703W        W88486  19.481  21.376   4.540
21704W        W88487  21.649  35.663  13.860
21705W        W88488  15.854  21.537  10.955
21706W        W88489  31.133  18.054  11.580
21707W        W88490  31.057  44.698   2.188
21708W        W88491  32.416  43.283   3.811
21709W        W88492  40.431  24.747  14.756
21710W        W88493  30.539   3.779  14.485
21711W        W88494  27.753  16.575   0.487
21712W        W88495  33.582  25.302  12.585
21713W        W88496  40.743   4.949   4.538
21714W        W88497  18.533   9.147  14.376
21715W        W88498  22.825  35.883  12.365
21716W        W88499   8.222  29.229   4.473
21717W        W88500  43.479  41.914  13.397
21718W        W88501  22.673  40.109  13.361
21719W        W88502  41.875  24.453  12.963
21720W        W88503   8.375   2.453  10.733
21721W        W88504  27.592  19.681  14.117
21722W        W88505   8.271   5.358  11.921
21723W        W88506  21.648  44.698   3.839
21724W        W88507  43.903  20.234  12.470
21725W        W88508   2.209  39.059  10.818
21726W        W88509  37.572  34.240  11.086
21727W        W88510  30.024  10.656  14.896
21728W        W88511  32.137  30.327   9.700
21729W        W88512  26.511  40.041   1.386
21730W        W88513  12.623  16.255   0.523
21731W        W88514  30.673   5.798  14.497
21732W        W88515  43.711  25.776   4.056
21733W        W88516  19.932  36.813   3.505
21734W        W88517   8.611   1.509  12.917
21735W        W88518  32.461  24.625  12.537
21736W        W88519  25.960  23.402   1.392
21737W        W88520  24.189  35.999   3.336
21738W        W88521  11.672  23.219   2.822
21739W        W88522  44.873  38.908  14.431
21740W        W88523  10.042  25.546  14.838
21741W        W88524  31.284  12.244   3.966
21742W        W88525   5.357  26.140   0.900
21743W        W88526  17.868   5.705  10.953
21744W        W88527  16.735  26.691  12.899
21745W        W88528  18.175  16.493  11.511
21746W        W88529  15.412   6.644  13.964
21747W        W88530  28.003  40.634  14.758
21748W        W88531  40.825   4.324  14.008
21749W        W88532  30.908  31.663   0.464
21750W        W88533  17.582  40.462  14.336
21751W        W88534  40.236  31.520   4.573
21752W        W88535   3.809  23.753   1.914
21753W        W88536  12.120  10.550   3.237
21754W        W88537  25.574  28.096  12.449
21755W        W88538   5.868  42.139   3.677
21756W        W88539  41.226  38.267   2.430
21757W        W88540   6.009   9.641   2.639
21758W        W88541   8.701   5.943   0.856
21759W        W88542  14.535  43.438  11.366
21760W        W88543  27.736  33.609   1.253
21761W        W88544   8.662  26.588  13.803
21762W        W88545  23.574  10.751   4.701
21763W        W88546  42.570   9.327  11.682
21764W        W88547   5.400  16.693  12.911
21765W        W88548  17.085  19.198   0.468
21766W        W88549  40.264  33.388  10.313
21767W        W88550  36.352  41.957  12.996
21768W        W88551  29.876  32.167  11.254
21769W        W88552  34.796  42.493   0.811
21770W        W88553  37.946  28.660   2.887
21771W        W88554  22.657  40.834  12.732
21772W        W88555  38.610  34.659   0.298
21773W        W88556  19.767  39.046  14.506
21774W        W88557  10.466  42.305  11.165
21775W        W88558  15.751  31.555   2.189
21776W        W88559   3.452  22.458  13.924
21777W        W88560  34.398  42.404  11.544
21778W        W88561  39.364  29.637   3.581
21779W        W88562  11.110  34.597   3.634
21780W        W88563   4.552  22.700  11.511
21781W        W88564  34.058  27.017   1.276
21782W        W88565  12.872  39.582   1.618
21783W        W88566  17.781  11.283   0.982
21784W        W88567  39.915  11.950   3.518
21785W        W88568   5.482  25.731  12.466
21786W        W88569  26.835   6.344   0.217
21787W        W88570  16.778  22.974   4.191
21788W        W88571  30.616  23.772   4.368
21789W        W88572   2.204  31.996   4.460
21790W        W88573  18.373  17.125  13.564
21791W        W88574   6.761  21.798  11.858
21792W        W88575  43.981  39.616  14.979
21793W        W88576  43.367  15.576  14.939
21794W        W88577  38.878  27.664   0.318
21795W        W88578  14.232  33.884  14.244
21796W        W88579   3.423  28.537  10.816
21797W        W88580  40.121  27.591   3.112
21798W        W88581  17.524  37.948  12.492
21799W        W88582  40.141  28.966  13.373
21800W        W88583  15.340  11.373  13.380
21801W        W88584  33.082  19.298   1.295
21802W        W88585  17.157  29.682   3.148
21803W        W88586  15.785   0.393  11.889
21804W        W88587  18.021  12.496  10.120
21805W        W88588  27.641  43.726  11.917
21806W        W88589  20.556   9.288   3.140
21807W        W88590  41.092   3.262   4.156
21808W        W88591   6.157  28.129  10.375
21809W        W88592   8.638   1.362  14.880
21810W        W88593  15.232  10.141  12.098
21811W        W88594  29.754  19.696   9.935
21812W        W88595   0.166  12.335  14.904
21813W        W88596   6.475  29.458  12.061
21814W        W88597   7.483  39.154  13.394
21815W        W88598   8.536  24.083   1.132
21816W        W88599  22.948   8.207   0.457
21817W        W88600  12.657   1.531   4.155
21818W        W88601  30.249  14.006   1.472
21819W        W88602  16.983  17.621   2.546
21820W        W88603   0.913  28.536  14.825
21821W        W88604  25.561  15.656   0.755
21822W        W88605  18.019  17.888  11.963
21823W        W88606  33.593  33.082   1.688
21824W        W88607  24.535  43.697   0.335
21825W        W88608  11.672  32.200   3.804
21826W        W88609  42.422  37.929  14.454
21827W        W88610  24.957  10.800   2.807
21828W        W88611  23.514  15.060  13.972
21829W        W88612  32.010   0.530   0.722
21830W        W88613  23.081  34.881  14.884
21831W        W88614   0.855  32.220   5.018
21832W        W88615  21.953  17.153   3.888
21833W        W88616  20.570   9.145  12.627
21834W        W88617  33.804   1.008  13.919
21835W        W88618  35.510  16.015  10.738
21836W        W88619  21.281  36.289   4.603
21837W        W88620  21.779  15.239  13.356
21838W        W88621  31.641  13.221   3.400
21839W        W88622  21.231  38.554   1.698
21840W        W88623  37.644  42.006   5.346
21841W        W88624  26.519  37.464  10.348
21842W        W88625  25.117   1.177   3.775
21843W        W88626  35.958  15.215  12.492
21844W        W88627  28.744  33.589   0.253
21845W        W88628  39.422   1.819   0.707
21846W        W88629  37.976  25.101  14.624
21847W        W88630  31.297  23.040   1.715
21848W        W88631  20.358  20.266   3.336
21849W        W88632  13.165  16.003   4.901
21850W        W88633  32.669   6.716   0.688
21851W        W88634   7.740   1.185   2.738
21852W        W88635   9.687  20.466   2.991
21853W        W88636  31.121   2.950  13.384
21854W        W88637   5.067  29.700   1.423
21855W        W88638  36.505  19.168   3.177
21856W        W88639  40.849  42.019   3.671
21857W        W88640  17.610  14.949  14.919
21858W        W88641  43.460  36.730  12.596
21859W        W88642  13.698  43.762  10.934
21860W        W88643  19.648   4.848   1.310
21861W        W88644  12.800  30.081  10.972
21862W        W88645  28.653  23.018   3.164
21863W        W88646  39.059  26.485   3.259
21864W        W88647  16.667  43.300  12.456
21865W        W88648   0.045  12.256   0.424
21866W        W88649  35.112  10.756   1.535
21867W        W88650  40.881  26.627  12.199
21868W        W88651   7.205  34.443  14.323
21869W        W88652  23.218  42.205  11.598
21870W        W88653  27.494  41.466  14.425
21871W        W88654   2.191  19.947   1.406
21872W        W88655  10.442  42.988  12.473
21873W        W88656  33.981  33.926   4.146
21874W        W88657  30.523  41.291  14.612
21875W        W88658  38.117   7.704  13.853
21876W        W88659  10.658   9.210   1.795
21877W        W88660  23.060  35.575   3.079
21878W        W88661  32.788  24.062  11.689
21879W        W88662  10.564  23.104  11.134
21880W        W88663  42.038   0.354  13.547
21881W        W88664  25.620  24.977  14.852
21882W        W88665  39.360  14.124   3.634
21883W        W88666   8.163  27.653   4.588
21884W        W88667  42.287   5.935  12.983
21885W        W88668  29.473  33.640   2.961
21886W        W88669  10.919  40.524   4.828
21887W        W88670  42.950  21.245  11.475
21888W        W88671  18.518  12.382   2.776
21889W        W88672  12.321  29.557  13.729
21890W        W88673  34.957  44.676   4.347
21891W        W88674  18.268   0.831  12.761
21892W        W88675  28.635  11.289  14.609
21893W        W88676  24.062  34.982   2.401
21894W        W88677  35.522  40.552   3.248
21895W        W88678  20.694   3.893  14.602
21896W        W88679  27.153  17.949   2.969
21897W        W88680  37.734   8.204   0.162
21898W        W88681   3.285   0.270   4.834
21899W        W88682  15.489   5.181  14.563
21900W        W88683  40.252  26.068   1.903
21901W        W88684   4.646  30.852   3.549
21902W        W88685  41.533  38.437  13.516
21903W        W88686   1.264  34.366  14.945
21904W        W88687  12.414  25.032  14.518
21905W        W88688  13.016  19.735  11.990
21906W        W88689  11.297  22.426  14.712
21907W        W88690  34.058  43.705   1.548
21908W        W88691   9.717   3.696   3.233
21909W        W88692  15.363  20.686   2.235
21910W        W88693  37.756   8.188  10.791
21911W        W88694  18.231   9.788   0.467
21912W        W88695   7.204  16.917   2.153
21913W        W88696  12.188  23.691  13.376
21914W        W88697  39.443  41.530   4.171
21915W        W88698   0.256  38.960   0.740
21916W        W88699  26.143  18.081  13.393
21917W        W88700  14.712   1.266   2.207
21918W        W88701  35.382  32.694   2.822
21919W        W88702  17.659   6.199   3.201
21920W        W88703  14.337  23.751   1.320
21921W        W88704  31.341  18.373  11.205
21922W        W88705  34.659   5.832  11.157
21923W        W88706   0.583  26.498   3.305
21924W        W88707  28.919   0.332  11.569
21925W        W88708   8.603  22.644  12.009
21926W        W88709  43.033  16.700   5.078
21927W        W88710   1.694  16.794  13.836
21928W        W88711  21.023  25.148   0.122
21929W        W88712  21.174  23.073   0.292
21930W        W88713  14.334  11.467   4.600
21931W        W88714  23.356   3.749  11.640
21932W        W88715  16.282   5.253   0.336
21933W        W88716   7.283  25.924  11.794
21934W        W88717  31.109  11.291   1.395
21935W        W88718   4.350  34.312   2.444
21936W        W88719  12.347  34.584   3.106
21937W        W88720  19.718  29.746   1.426
21938W        W88721  33.819   7.837   0.256
21939W        W88722  19.920  14.893   1.949
21940W        W88723  33.218  13.455  11.545
21941W        W88724  16.661  36.572   1.522
21942W        W88725  37.497   1.234   2.893
21943W        W88726  29.445  17.704  12.489
21944W        W88727  29.680  43.069   2.788
21945W        W88728  18.143  41.122  12.199
21946W        W88729   3.055   2.271   4.115
21947W        W88730   7.494  22.390  14.036
21948W        W88731  17.152   9.885   1.398
21949W        W88732   0.680  44.242   9.851
21950W        W88733  35.099   0.516  14.886
21951W        W88734  38.440  16.368   1.908
21952W        W88735   1.367   1.701  11.962
21953W        W88736   5.386  15.539  11.185
21954W        W88737  38.114  37.649  11.467
21955W        W88738  20.125   5.507  13.861
21956W        W88739  15.926  22.813  10.230
21957W        W88740  37.326   3.201   3.953
21958W        W88741  27.042  24.390   4.944
21959W        W88742  13.860  13.743  13.546
21960W        W88743  28.959  13.219   0.759
21961W        W88744  34.099  41.366  12.062
21962W        W88745  28.161  13.014   2.656
21963W        W88746   3.980   6.783   3.323
21964W        W88747  15.165  21.017   0.722
21965W        W88748  20.068   7.181   1.869
21966W        W88749  31.969  28.748   0.708
21967W        W88750  15.636  28.235  11.156
21968W        W88751  27.477  11.450   1.305
21969W        W88752  29.443   4.185   0.309
21970W        W88753   1.062  44.805  11.598
21971W        W88754   5.205  34.111  10.655
21972W        W88755  12.640  41.930  10.994
21973W        W88756  19.162  17.324   0.933
21974W        W88757  36.589  20.810   0.199
21975W        W88758  13.635  30.070  10.543
21976W        W88759  38.823  30.571   4.042
21977W        W88760  10.414  27.161   4.087
21978W        W88761  36.317  11.983   4.756
21979W        W88762  26.020  33.847  13.099
21980W        W88763  10.619  11.836   4.160
21981W        W88764  14.172  24.026   3.672
21982W        W88765  32.402  24.623  13.936
21983W        W88766  32.594   3.199  14.779
21984W        W88767  15.370  21.714   1.321
21985W        W88768  42.826  35.441   3.272
21986W        W88769   5.927  30.922  11.947
21987W        W88770  33.856  11.135   3.248
21988W        W88771  41.734   7.209   5.038
21989W        W88772  36.901  30.764   4.781
21990W        W88773  43.991  15.349  12.603
21991W        W88774  32.063   8.333  13.966
21992W        W88775  21.202  27.718   9.924
21993W        W88776  36.206  39.932  13.851
21994W        W88777   6.834   9.672   1.751
21995W        W88778  12.379  32.354  12.813
21996W        W88779  32.688  13.828  11.537
21997W        W88780  34.701  19.508   3.222
21998W        W88781  21.085  13.083  10.625
21999W        W88782  35.463  21.252  12.914
22000W        W88783  37.207  13.186  12.480
22001W        W88784  20.151   6.774   0.213
22002W        W88785   3.618   9.663  11.702
22003W        W88786   6.384  29.170   1.327
22004W        W88787  27.689  16.992  13.430
22005W        W88788  31.283  17.612   1.466
22006W        W88789   7.023   2.851   3.264
22007W        W88790  38.959  14.047   0.683
22008W        W88791  20.266  44.851   0.991
22009W        W88792  28.453  28.090  11.889
22010W        W88793  18.731   9.105   0.240
22011W        W88794  24.365   4.255   2.939
22012W        W88795   7.150  34.129   4.099
22013W        W88796  35.094  18.863   0.234
22014W        W88797  16.275  11.567   2.684
22015W        W88798  34.578  16.598   0.377
22016W        W88799  42.189  28.442   0.829
22017W        W88800  10.192   8.622  11.586
22018W        W88801  19.425  27.690   0.496
22019W        W88802  24.821  25.530  14.019
22020W        W88803   3.671  26.114  10.480
22021W        W88804  21.280  38.625  14.948
22022W        W88805  23.674  37.086  14.375
22023W        W88806  30.645   3.201  14.524
22024W        W88807  37.941   5.948  11.231
22025W        W88808  23.165  34.611   0.305
22026W        W88809   2.295  11.775   1.309
22027W        W88810  35.620  41.467   3.675
22028W        W88811  28.218  34.783   3.198
22029W        W88812  23.880  24.022   3.268
22030W        W88813  26.155  31.425   2.194
22031W        W88814  22.665  11.932   1.156
22032W        W88815  22.608  26.493  13.882
22033W        W88816  43.417  31.488   2.150
22034W        W88817  35.356   3.931  10.603
22035W        W88818  38.656  40.967   1.765
22036W        W88819  30.038  11.207   1.418
22037W        W88820  15.800  28.726  11.323
22038W        W88821  26.149  43.828   4.310
22039W        W88822  43.460  26.919  13.147
22040W        W88823  10.653  15.620  10.704
22041W        W88824  37.413   6.869  14.888
22042W        W88825  43.386   8.939   3.163
22043W        W88826   8.513   8.617   2.389
22044W        W88827  44.818  18.382  13.963
22045W        W88828  17.735   8.494   4.191
22046W        W88829  42.083  32.328  14.564
22047W        W88830  29.901  29.382   1.226
22048W        W88831  12.593  34.145   0.501
22049W        W88832  44.976  42.453   4.429
22050W        W88833   7.273  35.578   0.171
22051W        W88834  13.057  10.885  14.854
22052W        W88835  21.651  31.572   1.930
22053W        W88836  15.840  36.158   0.906
22054W        W88837  29.036  29.349  13.946
22055W        W88838  10.033  41.937  11.990
22056W        W88839  18.277  44.990   0.370
22057W        W88840  18.161  16.881  14.852
22058W        W88841   6.414  41.381  13.989
22059W        W88842  44.140  23.750  11.707
22060W        W88843  36.199   3.828   4.127
22061W        W88844  41.259  38.835  14.436
22062W        W88845   6.870  26.914   2.797
22063W        W88846  43.945  19.661   3.124
22064W        W88847  21.090   7.702   0.088
22065W        W88848  16.858  14.487  13.968
22066W        W88849   6.254  17.514   4.838
22067W        W88850  41.848  44.883   2.882
22068W        W88851  44.735  29.087   4.961
22069W        W88852  36.589   0.285  14.738
22070W        W88853   1.324  12.456  10.637
22071W        W88854  37.964  30.996  14.809
22072W        W88855  18.245  22.077   0.733
22073W        W88856  12.282  38.827   2.789
22074W        W88857  39.351  28.812  12.162
22075W        W88858  42.037  41.269   1.848
22076W        W88859  28.901   9.718   4.838
22077W        W88860  36.421  23.292  10.669
22078W        W88861  22.987  26.083   0.811
22079W        W88862  21.265  12.505   4.396
22080W        W88863  11.886  14.704  14.490
22081W        W88864  16.296  30.585  13.146
22082W        W88865  44.332  42.880  10.483
22083W        W88866  32.845  36.399  13.442
22084W        W88867  25.330   3.670  13.223
22085W        W88868   6.778  30.551   3.835
22086W        W88869  34.605  14.851   4.701
22087W        W88870  30.020  22.641  13.213
22088W        W88871  10.952   5.269  12.250
22089W        W88872  33.339  39.758   3.806
22090W        W88873  28.271  32.973  13.487
22091W        W88874   0.729  44.380  10.362
22092W        W88875  30.949  12.539  12.042
22093W        W88876  40.438   5.935  10.683
22094W        W88877  17.570  22.501   4.232
22095W        W88878  37.110   3.946  14.888
22096W        W88879  33.984  38.177  14.408
22097W        W88880   4.761  17.693  10.531
22098W        W88881  24.512   5.437   2.332
22099W        W88882  29.398  10.063   0.607
22100W        W88883  39.099  19.415  12.015
22101W        W88884  24.749  36.372  11.637
22102W        W88885  28.043   5.709  12.096
22103W        W88886  28.993   1.519  14.209
22104W        W88887   1.855  18.155  13.424
22105W        W88888  29.505  23.597   9.929
22106W        W88889  31.075  21.116   2.201
22107W        W88890  41.107  36.550  14.870
22108W        W88891  17.811  10.321   3.796
22109W        W88892  42.984  42.308   9.693
22110W        W88893   0.826  14.795   2.666
22111W        W88894  38.373  19.704   4.560
22112W        W88895  27.555   8.438  12.703
22113W        W88896   3.653  23.244   2.689
22114W        W88897   2.761  30.012   4.512
22115W        W88898  23.838  38.855   2.920
22116W        W88899  28.166  40.554   1.282
22117W        W88900   9.168   2.169  13.714
22118W        W88901  13.937  16.216  12.451
22119W        W88902   3.188  29.623   5.077
22120W        W88903  39.525  43.835  14.775
22121W        W88904   6.778  24.488   3.688
22122W        W88905   7.019  32.486   1.896
22123W        W88906  24.271  18.102   1.213
22124W        W88907  12.620  28.204   1.597
22125W        W88908  24.438  13.629   2.146
22126W        W88909   4.351  11.731   1.245
22127W        W88910  29.197  39.013  11.171
22128W        W88911  22.647  22.739  10.781
22129W        W88912  37.274  25.611   5.069
22130W        W88913   7.360  11.717  11.602
22131W        W88914  13.618   1.828   2.182
22132W        W88915  11.014  14.777  12.408
22133W        W88916  37.878  12.609   2.336
22134W        W88917  34.496   4.798  13.096
22135W        W88918  26.636  21.165   4.589
22136W        W88919   5.002  25.439   3.669
22137W        W88920   5.448  38.930   0.505
22138W        W88921  37.170  14.786  12.923
22139W        W88922  22.930   1.190   1.254
22140W        W88923  22.772  33.982  13.074
22141W        W88924  37.265  18.472  13.043
22142W        W88925  43.445   7.110   1.700
22143W        W88926  44.286  38.095  12.049
22144W        W88927   7.106  34.392  11.562
22145W        W88928  11.886  34.747   1.186
22146W        W88929   1.739  36.063  11.363
22147W        W88930  21.149  43.260   0.302
22148W        W88931  37.763   8.304   1.261
22149W        W88932  41.870  36.899   1.491
22150W        W88933  37.872   4.739   4.477
22151W        W88934  18.530  31.608  10.674
22152W        W88935  26.521  38.086   1.638
22153W        W88936   9.349  44.579  14.884
22154W        W88937  21.452  15.311   0.170
22155W        W88938  10.167   8.658  13.937
22156W        W88939  35.326  32.815   4.152
22157W        W88940   8.594  28.338  12.511
22158W        W88941   1.073  25.742   3.859
22159W        W88942  21.192  14.864   0.030
22160W        W88943   4.828  18.434   4.082
22161W        W88944   6.313   0.158  14.933
22162W        W88945   5.247   1.431  11.637
22163W        W88946   1.015  22.229  10.717
22164W        W88947  44.144   0.661   4.324
22165W        W88948   8.677  39.502  12.097
22166W        W88949   1.273   1.200   0.434
22167W        W88950  14.789  35.227   0.311
22168W        W88951  36.426  42.421  12.137
22169W        W88952   3.718  23.602  12.430
22170W        W88953  24.768  38.367  12.954
22171W        W88954  31.357  21.489  12.002
22172W        W88955  43.848  19.614   1.839
22173W        W88956   9.997  24.020  10.753
22174W        W88957  37.411   6.320   2.701
22175W        W88958  44.279  26.124  14.756
22176W        W88959  42.463  24.055   4.870
22177W        W88960  39.497  12.730   4.607
22178W        W88961   6.508  34.842   2.706
22179W        W88962   7.752   4.515   4.497
22180W        W88963  23.626  23.169   4.526
22181W        W88964  27.987  22.020   2.236
22182W        W88965  39.487  27.053   1.982
22183W        W88966  20.670  20.322   3.810
22184W        W88967  41.868  44.122   1.640
22185W        W88968  31.597  18.815  11.432
22186W        W88969   1.170  40.743  11.551
22187W        W88970   9.954  12.175   1.758
22188W        W88971  10.401   6.692  12.131
22189W        W88972   6.793  19.925   1.701
22190W        W88973   7.962   8.863  11.952
22191W        W88974  13.705  17.268  14.423
22192W        W88975  17.184  36.125  11.163
22193W        W88976  31.006  44.836  12.973
22194W        W88977  23.104   1.674   1.207
22195W        W88978  23.673   7.214  14.896
22196W        W88979  10.468  24.609   2.981
22197W        W88980  29.132  11.229  13.869
22198W        W88981  15.716  11.485  10.776
22199W        W88982   1.261  17.662  10.833
22200W        W88983  33.070  31.334   3.341
22201W        W88984   6.657  24.545   2.332
22202W        W88985  39.540  17.974   0.030
22203W        W88986  27.219  30.502  13.568
22204W        W88987  16.111   9.349  12.894
22205W        W88988  22.947   2.089  10.549
22206W        W88989  21.807  27.471  12.709
22207W        W88990  29.348  32.460   0.149
22208W        W88991   5.663  42.122   0.928
22209W        W88992  44.452   1.351   4.791
22210W        W88993  33.031   9.198  12.598
22211W        W88994  28.145  27.960   4.251
22212W        W88995  42.305  10.501   4.670
22213W        W88996  44.348   2.313   4.261
22214W        W88997  15.854  22.442  12.602
22215W        W88998  38.012   4.911  11.305
22216W        W88999  22.324  36.406   4.571
22217W        W89000   4.449  40.786   1.743
22218W        W89001  26.726  10.354   2.976
22219W        W89002   2.644  22.418  14.469
22220W        W89003  40.426  44.703  14.934
22221W        W89004  41.925   5.656   3.410
22222W        W89005  30.362  11.726  12.119
22223W        W89006  35.594   7.391  12.060
22224W        W89007  14.781  36.333   2.811
22225W        W89008  34.629  10.181   2.753
22226W        W89009  33.951  16.560   1.764
22227W        W89010  44.982  44.983   4.562
22228W        W89011  18.417  15.717  11.647
22229W        W89012  18.371  34.201  12.054
22230W        W89013  31.064   2.668   3.803
22231W        W89014  22.515  41.776   4.455
22232W        W89015  30.432   2.507   0.265
22233W        W89016  44.912   9.104  12.232
22234W        W89017  30.154  10.428  13.675
22235W        W89018   6.259  13.050   4.830
22236W        W89019  25.680  11.841  14.946
22237W        W89020  10.718  30.949   4.203
22238W        W89021   8.961   6.070  10.326
22239W        W89022  42.987  33.839  14.008
22240W        W89023   1.313  40.398   1.094
22241W        W89024  19.482   1.792   1.869
22242W        W89025  21.596  31.585  12.534
22243W        W89026  31.533  33.031   2.328
22244W        W89027   1.650  38.371  14.341
22245W        W89028  10.819  38.880  13.520
22246W        W89029  32.859  10.738  13.109
22247W        W89030   5.971  21.547  11.930
22248W        W89031  40.390  42.554   4.835
22249W        W89032  13.312  23.609   1.448
22250W        W89033  10.442   9.926   0.403
22251W        W89034   6.343  28.193  14.348
22252W        W89035  36.225  17.619   1.446
22253W        W89036  21.245   1.872  10.245
22254W        W89037  33.322  37.807  10.954
22255W        W89038  42.258  15.838   1.596
22256W        W89039   3.204   2.035   0.967
22257W        W89040   8.167  35.604  12.865
22258W        W89041  37.780  12.337  12.971
22259W        W89042  15.793   7.248   0.783
22260W        W89043   6.220  42.038  13.852
22261W        W89044  29.735  19.073  13.949
22262W        W89045  36.946  28.577  10.702
22263W        W89046  14.547  29.140   2.877
22264W        W89047  43.942  42.609  12.084
22265W        W89048  14.562  33.902  12.294
22266W        W89049  27.657   0.244  11.232
22267W        W89050   4.773  29.363   2.790
22268W        W89051  21.112  17.247  11.030
22269W        W89052  37.313   2.341   0.270
22270W        W89053  33.036   1.923  13.582
22271W        W89054  20.393  27.955  13.404
22272W        W89055  10.841   6.431  13.529
22273W        W89056  16.116  13.858   2.378
22274W        W89057  27.417  11.564   2.291
22275W        W89058  25.530  31.495  10.691
22276W        W89059  30.668  14.197  14.532
22277W        W89060  30.719  31.625   3.172
22278W        W89061  12.127  33.880   0.694
22279W        W89062  23.003  42.857   2.379
22280W        W89063  18.446   6.878   2.826
22281W        W89064  42.554   2.955   2.394
22282W        W89065  41.905   3.985   3.996
22283W        W89066  29.090  11.318  10.890
22284W        W89067   1.300   4.404   4.090
22285W        W89068   3.667  43.459   2.422
22286W        W89069  44.547  38.105   3.709
22287W        W89070  42.481  19.788   2.276
22288W        W89071  34.781  42.419   3.254
22289W        W89072  20.899  34.105  11.186
22290W        W89073   2.795  11.700   3.124
22291W        W89074  43.392  21.683  10.968
22292W        W89075  37.178  43.914   1.720
22293W        W89076  18.150   6.016   3.921
22294W        W89077  17.242  19.290  11.608
22295W        W89078  34.502   7.210   2.683
22296W        W89079   1.865  40.079  11.009
22297W        W89080  20.919  39.231  11.596
22298W        W89081   4.266  30.459  13.417
22299W        W89082   1.355   7.315  10.564
22300W        W89083  21.048  29.949  13.949
22301W        W89084  29.465  33.441   2.288
22302W        W89085  32.197  40.957   4.088
22303W        W89086   6.146  27.287   2.288
22304W        W89087  38.530  20.269  10.523
22305W        W89088  44.335  30.627   1.392
22306W        W89089  21.226   2.208  12.143
22307W        W89090  19.513   5.482   1.210
22308W        W89091   9.908   3.272   4.643
22309W        W89092  15.915   2.874   1.972
22310W        W89093  24.527  20.042  14.949
22311W        W89094  12.819   0.720  11.469
22312W        W89095  29.456   1.256  14.394
22313W        W89096   8.884  37.342   0.365
22314W        W89097  44.922  44.363  10.078
22315W        W89098  33.221  42.847   4.043
22316W        W89099  27.250   3.744   0.573
22317W        W89100  36.494  13.669  14.880
22318W        W89101  34.032  21.772  13.742
22319W        W89102  27.252  39.014   1.241
22320W        W89103   8.462  35.679  10.723
22321W        W89104   8.154  28.447   0.509
22322W        W89105   1.270  24.950  12.956
22323W        W89106  31.223  34.715  14.543
22324W        W89107  22.679   0.309   2.302
22325W        W89108  17.553  14.275  14.378
22326W        W89109   6.681  13.452   1.596
22327W        W89110  19.206  21.410   4.095
22328W        W89111  11.183   4.753   3.591
22329W        W89112   1.934  40.940  12.049
22330W        W89113   3.202  40.886   2.713
22331W        W89114  25.481  12.008   4.525
22332W        W89115  19.181   2.194  14.035
22333W        W89116   1.328  30.804  14.335
22334W        W89117  17.104  34.484  14.305
22335W        W89118  22.975  42.509   1.630
22336W        W89119  23.114  40.840  13.498
22337W        W89120  12.795  11.334   2.291
22338W        W89121  29.485  14.054   0.689
22339W        W89122  26.970  19.242  12.097
22340W        W89123  27.961  39.491  14.034
22341W        W89124  17.544  31.175  12.503
22342W        W89125  23.531  42.945   3.219
22343W        W89126  12.402  21.095  12.008
22344W        W89127  33.827  11.692  11.457
22345W        W89128   7.324  38.549  10.710
22346W        W89129  36.601  33.098  10.762
22347W        W89130  14.197  21.422   1.996
22348W        W89131  32.015  22.501   2.381
22349W        W89132  11.468  44.967   2.852
22350W        W89133  12.569  30.937  11.288
22351W        W89134  40.870  30.191  13.670
22352W        W89135   5.447  18.916   1.358
22353W        W89136   3.992  21.164  10.180
22354W        W89137  30.057  14.423  11.576
22355W        W89138  12.314   1.758   3.658
22356W        W89139  16.775  30.417  13.161
22357W        W89140  36.679   2.660   0.865
22358W        W89141  43.497  16.978   4.198
22359W        W89142  27.997   8.909  12.063
22360W        W89143  11.253  32.471  11.450
22361W        W89144  38.225  28.091  12.036
22362W        W89145  32.854   8.411  11.544
22363W        W89146  10.691  14.390   1.220
22364W        W89147  20.871  14.885  10.728
22365W        W89148  12.229  17.617  12.036
22366W        W89149  28.874   6.998   4.634
22367W        W89150  27.245  33.094  11.134
22368W        W89151  25.590  13.623   2.341
22369W        W89152   8.716  42.726   0.852
22370W        W89153  42.716  14.199  11.308
22371W        W89154  37.759  22.629  12.222
22372W        W89155  10.199  37.340  12.798
22373W        W89156  19.016   6.653   1.986
22374W        W89157  15.025  14.227   3.989
22375W        W89158  25.609  11.297  12.162
22376W        W89159   5.227  41.314  12.506
22377W        W89160  44.303   8.280   1.709
22378W        W89161  11.588  36.809   1.026
22379W        W89162   4.702  27.851   1.369
22380W        W89163  16.580  34.576  11.142
22381W        W89164  38.877  23.439  12.984
22382W        W89165  39.745   4.721  11.576
22383W        W89166  17.734  23.711   3.713
22384W        W89167  24.686  26.432  12.042
22385W        W89168  10.304   6.188  13.309
22386W        W89169  43.919   6.954   1.428
22387W        W89170  20.692  32.377  12.174
22388W        W89171  24.520  18.712   0.366
22389W        W89172  42.076  13.575  13.027
22390W        W89173  17.320  29.971   0.967
22391W        W89174  30.941  21.851  13.432
22392W        W89175  13.708  32.115  10.620
22393W        W89176  25.368  24.335  11.483
22394W        W89177   5.227  12.190  10.923
22395W        W89178  25.628  27.477  14.311
22396W        W89179   1.983  22.503  12.933
22397W        W89180  35.775  44.940   2.250
22398W        W89181  27.019  11.829   1.982
22399W        W89182  26.491   8.130   1.584
22400W        W89183  32.496  29.301  10.673
22401W        W89184   6.523  24.527  12.417
22402W        W89185  24.361  23.752   4.095
22403W        W89186  19.352  42.417  12.452
22404W        W89187   3.727  43.022  10.342
22405W        W89188  27.514  14.582  13.408
22406W        W89189  34.090  15.403  10.757
22407W        W89190  29.981  11.454  14.483
22408W        W89191  26.530  31.395  12.464
22409W        W89192  11.039   5.643   3.734
22410W        W89193  31.584  29.684  14.819
22411W        W89194  12.822  38.583   0.643
22412W        W89195  35.431  29.168   4.576
22413W        W89196  15.840  15.672   2.669
22414W        W89197   7.060   8.852  12.407
22415W        W89198  19.147  24.611  12.961
22416W        W89199  10.335   8.916   0.293
22417W        W89200  33.708  31.378  11.126
22418W        W89201   2.261  23.967  13.556
22419W        W89202  19.305  35.650  13.444
22420W        W89203  36.413   2.730   1.684
22421W        W89204   6.591  30.871  10.623
22422W        W89205  18.289  10.180   3.976
22423W        W89206  14.821  32.335  11.159
22424W        W89207  29.886   0.528   0.386
22425W        W89208  10.568  44.221  14.763
22426W        W89209  32.860  17.074   2.281
22427W        W89210   1.922   2.761   1.769
22428W        W89211   9.172  26.003   3.801
22429W        W89212  20.540  43.276  13.415
22430W        W89213  39.046  40.420  11.689
22431W        W89214  22.935  26.157  10.660
22432W        W89215   8.467   7.572   9.645
22433W        W89216   0.113  32.331  12.629
22434W        W89217  13.458  35.532  11.953
22435W        W89218  16.435  22.428  13.846
22436W        W89219  22.485  25.693  11.388
22437W        W89220  44.375  39.385  14.675
22438W        W89221  34.407  31.541  13.791
22439W        W89222  17.417  32.409   1.714
22440W        W89223  26.874  22.438  12.206
22441W        W89224   1.010   4.708  13.581
22442W        W89225   7.768  31.011   1.818
22443W        W89226  19.315  44.524  11.105
22444W        W89227  30.101  42.836   2.080
22445W        W89228   7.783   7.657  12.221
22446W        W89229  34.099  39.209  14.530
22447W        W89230  26.212  41.535  12.074
22448W        W89231  30.555  44.986  11.063
22449W        W89232   5.211  20.750  13.325
22450W        W89233  10.845   8.234   0.443
22451W        W89234  42.579   4.792  14.046
22452W        W89235   8.583   4.528   4.134
22453W        W89236  29.524   6.126  11.513
22454W        W89237   6.862  25.679   1.871
22455W        W89238   8.880  15.042   2.649
22456W        W89239  32.011  40.665  12.819
22457W        W89240  43.367  21.752   3.312
22458W        W89241  39.444   8.846  12.522
22459W        W89242  34.300  38.117  10.722
22460W        W89243  13.830  22.160   4.192
22461W        W89244  29.547  39.102   1.201
22462W        W89245  13.764  39.019   3.144
22463W        W89246  17.750  13.688  10.675
22464W        W89247  19.221  26.753   3.601
22465W        W89248  42.768  39.180   4.002
22466W        W89249   6.323  44.563  13.350
22467W        W89250  11.789  14.845  13.477
22468W        W89251  23.825  16.701   1.440
22469W        W89252  17.324   6.004  11.447
22470W        W89253  40.512  34.909  12.074
22471W        W89254  23.222  20.843   0.132
22472W        W89255  35.460  40.088   2.608
22473W        W89256  28.477  36.206  13.448
22474W        W89257   0.198  24.921  11.590
22475W        W89258  11.520   1.449   1.038
22476W        W89259   6.709  40.189  12.390
22477W        W89260  31.985  16.402   0.558
22478W        W89261  39.905  10.167  13.434
22479W        W89262  14.204  27.614   1.902
22480W        W89263  20.636  42.507   0.390
22481W        W89264  25.421   7.944  13.429
22482W        W89265  27.135  25.655  13.278
22483W        W89266  11.290  44.761   1.467
22484W        W89267  14.102   3.262  11.085
22485W        W89268   0.351  24.755   1.282
22486W        W89269  30.521   7.752   0.401
22487W        W89270  23.590  35.074  10.860
22488W        W89271   9.767  11.414   0.455
22489W        W89272   8.376  37.087  13.417
22490W        W89273  20.230  41.806  11.637
22491W        W89274  17.718  37.162   1.635
22492W        W89275  40.352   7.266   2.841
22493W        W89276   0.749   6.157   2.614
22494W        W89277   0.988  34.477   4.398
22495W        W89278   9.138  23.149  14.949
22496W        W89279   7.712  27.532   2.885
22497W        W89280  29.090  24.468  10.592
22498W        W89281  13.236  42.358  14.081
22499W        W89282  36.102   9.816  13.429
22500W        W89283  23.677  24.177   4.595
22501W        W89284  14.639   1.329  12.503
22502W        W89285  18.391  43.266   2.183
22503W        W89286  30.648   6.910   3.174
22504W        W89287  43.831  10.876   0.547
22505W        W89288   6.202   9.837  11.358
22506W        W89289  42.336  33.908  12.552
22507W        W89290  38.375  20.109   0.767
22508W        W89291  33.171  24.551  11.649
22509W        W89292   1.909  38.033   4.573
22510W        W89293  38.886   8.934  14.059
22511W        W89294  36.587  34.622   4.129
22512W        W89295  32.405   2.550  11.995
22513W        W89296   9.870  21.321  11.214
22514W        W89297   3.928  43.978   0.544
22515W        W89298  21.074  35.240  12.239
22516W        W89299  30.489  26.775  12.604
22517W        W89300  21.012  27.447  12.887
22518W        W89301   7.294  27.439   4.170
22519W        W89302  40.498   0.564   3.113
22520W        W89303  24.936   0.467  13.476
22521W        W89304  32.295  20.611  13.887
22522W        W89305  10.783  35.818   1.245
22523W        W89306  19.800  12.732   4.568
22524W        W89307  41.004  33.445   2.936
22525W        W89308  29.214  36.066   1.786
22526W        W89309  27.482  37.928  10.725
22527W        W89310  15.840   4.414  11.985
22528W        W89311  26.351  15.606   4.915
22529W        W89312   8.666   8.973  14.596
22530W        W89313  14.637  15.184  13.112
22531W        W89314  29.376   9.402  14.790
22532W        W89315  40.458  36.497  11.892
22533W        W89316  16.893  16.140  14.501
22534W        W89317  28.275   6.985   1.272
22535W        W89318  24.596  31.977   3.761
22536W        W89319  18.250  17.708  11.517
22537W        W89320  24.551  43.541  11.118
22538W        W89321  16.096  28.752   3.775
22539W        W89322  12.853  16.181  10.353
22540W        W89323  11.773  22.387   4.064
22541W        W89324  34.047  37.050   1.700
22542W        W89325  42.096  37.937   4.257
22543W        W89326  38.288   3.653   2.302
22544W        W89327  35.666  13.578   3.290
22545W        W89328   6.405  39.347  14.799
22546W        W89329   0.480   8.848   0.983
22547W        W89330  29.416  19.202   1.617
22548W        W89331  11.884  22.792   3.755
22549W        W89332  31.013  37.482   2.187
22550W        W89333  16.408  10.296  14.822
22551W        W89334  44.404  25.055   2.211
22552W        W89335   4.157  14.101   0.009
22553W        W89336  23.454  14.375   4.600
22554W        W89337  23.831  17.003   5.098
22555W        W89338   1.479   4.682   0.802
22556W        W89339  37.335  43.470  14.590
22557W        W89340  20.857  18.877  11.158
22558W        W89341  13.243  24.266   2.658
22559W        W89342   1.471  23.391  12.998
22560W        W89343   9.161   9.425   1.694
22561W        W89344  43.276  37.272   3.341
22562W        W89345  35.119  22.130  13.388
22563W        W89346  44.303  11.543   4.145
22564W        W89347  36.526  39.132  14.420
22565W        W89348  11.403  27.399   0.443
22566W        W89349  11.020  29.232   0.875
22567W        W89350  17.113   5.790   4.904
22568W        W89351  39.761  44.652   4.026
22569W        W89352   2.922   2.287   1.362
22570W        W89353  25.122  10.417   1.414
22571W        W89354  21.987  26.096  12.556
22572W        W89355  43.679   3.410   1.778
22573W        W89356   7.561  38.069  12.034
22574W        W89357  18.239  10.444  14.495
22575W        W89358   8.659  37.787  10.705
22576W        W89359  16.443  15.789   3.238
22577W        W89360  44.442  37.887  14.979
22578W        W89361  31.963   5.336  11.649
22579W        W89362  29.911  42.833  12.429
22580W        W89363   4.648  10.306   4.209
22581W        W89364  36.554  23.898   2.181
22582W        W89365  15.652  19.442   0.234
22583W        W89366  35.611  16.138  14.774
22584W        W89367  19.689  28.188   0.445
22585W        W89368  32.425   7.947   1.790
22586W        W89369  27.605  27.422   4.720
22587W        W89370  19.236  20.248  11.906
22588W        W89371  33.022  23.566  11.468
22589W        W89372  32.101   2.530   1.259
22590W        W89373   0.755  22.564  10.985
22591W        W89374  12.099   1.870  14.513
22592W        W89375  38.257   8.229   0.378
22593W        W89376  39.719  30.748  12.392
22594W        W89377  28.740  29.920   2.278
22595W        W89378  43.439  14.210  11.556
22596W        W89379  18.114  28.081  14.333
22597W        W89380  26.145  10.109   0.701
22598W        W89381  18.699   9.878   4.370
22599W        W89382   1.852   0.641  12.514
22600W        W89383   7.708  29.058  14.958
22601W        W89384  33.545  24.604   3.675
22602W        W89385  40.902  42.559   3.653
22603W        W89386  23.557   6.740  11.131
22604W        W89387  38.743  27.598   1.838
22605W        W89388  11.955  23.975  14.062
22606W        W89389   4.683   4.210  11.652
22607W        W89390   2.772   3.835  14.196
22608W        W89391   7.437  28.787   4.669
22609W        W89392  14.458  15.068  12.118
22610W        W89393   7.609  35.611   4.803
22611W        W89394  36.558  43.291   0.248
22612W        W89395  31.231  26.988  10.612
22613W        W89396  15.783  27.765   2.303
22614W        W89397  16.724  16.586  12.110
22615W        W89398  21.751  34.381   0.232
22616W        W89399  36.867  14.340   1.058
22617W        W89400  43.339  42.880   2.315
22618W        W89401  11.325  13.871  11.594
22619W        W89402  44.386  33.060   2.639
22620W        W89403  28.429  36.846   4.481
22621W        W89404  18.372  32.012   4.108
22622W        W89405  17.122  20.790  11.119
22623W        W89406   9.736   9.290  12.939
22624W        W89407  23.515  10.941   2.662
22625W        W89408   1.495  16.166  13.544
22626W        W89409  37.627  15.139  14.718
22627W        W89410  40.423  31.724   5.014
22628W        W89411   2.773  11.826  12.921
22629W        W89412  21.344  18.036   0.189
22630W        W89413   7.542  23.524   3.235
22631W        W89414   0.704  10.633   4.987
22632W        W89415  27.700  29.725  12.163
22633W        W89416  22.619  34.298  11.083
22634W        W89417  29.358  37.447   4.116
22635W        W89418  24.238  27.363   1.792
22636W        W89419   7.722  15.843  13.981
22637W        W89420  33.325  27.579   0.942
22638W        W89421  44.434  12.068   4.137
22639W        W89422  15.510   7.074   3.554
22640W        W89423   8.231  44.880  11.979
22641W        W89424  43.514  12.065   2.813
22642W        W89425  22.327  20.082  11.223
22643W        W89426  12.715  29.969  11.460
22644W        W89427  41.015   6.335   2.090
22645W        W89428  39.041  11.445   2.618
22646W        W89429  19.230  18.217   4.671
22647W        W89430  14.653   1.774   4.695
22648W        W89431  27.952  25.026   1.971
22649W        W89432   1.414  27.979  13.842
22650W        W89433  23.457  28.859   1.742
22651W        W89434   2.730  26.683   2.198
22652W        W89435   4.945  24.582   0.138
22653W        W89436  29.347   0.152   1.354
22654W        W89437  17.840  28.991  11.553
22655W        W89438  14.520  19.076   2.897
22656W        W89439   5.154  17.011  12.050
22657W        W89440  28.049  31.599   2.641
22658W        W89441   5.408  42.974   3.757
22659W        W89442  31.447  33.462  12.020
22660W        W89443  10.149  23.988  12.994
22661W        W89444  43.515   8.256  12.897
22662W        W89445  25.678  39.060   2.298
22663W        W89446  31.452   0.322  14.295
22664W        W89447  15.541  24.624   4.829
22665W        W89448  37.806  41.381  14.762
22666W        W89449  19.779   8.768  14.468
22667W        W89450   0.034  33.576   1.437
22668W        W89451  26.126  10.212  14.831
22669W        W89452  36.526   3.513   1.917
22670W        W89453  37.045  35.886  10.684
22671W        W89454  35.387  25.511  13.700
22672W        W89455  23.890   8.887  11.896
22673W        W89456  42.398   0.466   3.209
22674W        W89457  38.917   2.739   3.192
22675W        W89458  17.681  32.499   1.257
22676W        W89459  15.314  44.017   0.356
22677W        W89460  20.584  28.139   2.818
22678W        W89461  22.187   0.496   2.286
22679W        W89462  27.272   3.994   1.935
22680W        W89463  13.671  18.624   2.948
22681W        W89464   0.797  16.010   1.832
22682W        W89465  18.344  44.863   4.281
22683W        W89466  42.380  26.521   4.388
22684W        W89467  40.948  35.386   3.279
22685W        W89468  24.238  33.438  11.698
22686W        W89469  42.386  13.418   3.161
22687W        W89470   5.274  31.111   0.185
22688W        W89471  39.599  17.207   2.261
22689W        W89472  11.161   4.821  13.986
22690W        W89473  14.328  12.759   2.788
22691W        W89474  35.446  35.627   3.722
22692W        W89475  32.982  30.298   0.048
22693W        W89476   8.845   9.786   1.885
22694W        W89477  24.839  25.579  14.884
22695W        W89478  15.156   1.510  12.548
22696W        W89479   9.809  16.807   0.776
22697W        W89480   9.148  10.706  13.427
22698W        W89481  30.683   4.727  10.607
22699W        W89482  37.881  18.362  14.000
22700W        W89483  33.044  28.642   2.654
22701W        W89484  41.857   1.928  11.076
22702W        W89485  31.557  17.462  12.050
22703W        W89486   3.006  33.688   2.337
22704W        W89487  21.936  34.550   3.599
22705W        W89488  18.066  22.599   4.937
22706W        W89489   0.620  15.727   5.220
22707W        W89490  31.684   5.142   2.295
22708W        W89491  20.501  22.165  12.984
22709W        W89492   9.259  34.142  12.579
22710W        W89493  15.179   4.109   2.083
22711W        W89494  22.122  24.984  13.656
22712W        W89495  30.504   5.428  11.136
22713W        W89496  17.631  22.880   2.708
22714W        W89497  34.201  27.154  11.605
22715W        W89498  39.375   7.178   4.376
22716W        W89499  29.530  26.587   1.777
22717W        W89500  25.476   4.817   1.137
22718W        W89501  15.916  32.177   3.693
22719W        W89502  13.267  15.560  11.053
22720W        W89503  40.534  27.797   3.443
22721W        W89504  31.922  35.371   0.375
22722W        W89505   1.282  10.050  10.258
22723W        W89506  14.751  43.377  12.395
22724W        W89507  30.191  19.557  14.019
22725W        W89508  31.871  26.739  14.547
22726W        W89509  27.945  19.820  11.498
22727W        W89510   9.644   1.706   1.711
22728W        W89511  13.589  44.014  13.737
22729W        W89512  20.151  14.975  12.073
22730W        W89513   3.284  34.855  10.968
22731W        W89514  42.780  26.753   4.087
22732W        W89515  39.088   8.476  14.930
22733W        W89516  33.502  17.722   3.443
22734W        W89517   3.323  13.775  10.689
22735W        W89518   5.330  12.286   0.420
22736W        W89519   4.011  25.053   2.731
22737W        W89520  21.628  40.981  11.984
22738W        W89521  17.795  33.587  12.637
22739W        W89522  40.097  43.947  11.671
22740W        W89523  32.632   8.829   1.205
22741W        W89524   4.426  38.129   0.781
22742W        W89525  44.066  43.752   0.803
22743W        W89526   2.860   7.963   0.807
22744W        W89527  43.361  34.772   3.660
22745W        W89528  10.846   3.199   0.591
22746W        W89529  33.054  38.077  10.534
22747W        W89530  15.589  19.457   2.852
22748W        W89531  43.746  12.371   0.749
22749W        W89532  42.496  32.911  13.988
22750W        W89533  34.564  26.535   0.050
22751W        W89534  30.067  11.421   2.320
22752W        W89535  42.303  42.385  14.654
22753W        W89536  12.590  10.151   1.030
22754W        W89537  29.525  13.727   1.933
22755W        W89538  43.627   9.490   0.394
22756W        W89539   2.997  16.516   3.191
22757W        W89540  13.771  42.648  11.215
22758W        W89541  30.048  17.751  11.914
22759W        W89542  19.637  17.802  12.799
22760W        W89543  12.612  29.205  13.450
22761W        W89544  22.031   3.429   0.193
22762W        W89545  14.541  22.415  13.770
22763W        W89546  17.254  39.771  11.159
22764W        W89547  17.153  36.775   2.349
22765W        W89548  42.368  24.726  14.607
22766W        W89549  26.123  32.445  12.105
22767W        W89550  32.471  22.315   2.223
22768W        W89551  14.339   9.392   3.594
22769W        W89552  21.565  34.834   2.725
22770W        W89553  44.481  25.147  12.451
22771W        W89554  13.337  24.703  14.914
22772W        W89555   0.973   5.775   3.439
22773W        W89556  43.423  26.235  14.651
22774W        W89557  19.100  17.887  13.430
22775W        W89558  17.603  33.498   2.219
22776W        W89559   5.531  37.399  12.881
22777W        W89560  15.557   0.010  14.286
22778W        W89561  15.251  25.201  12.410
22779W        W89562  11.633  24.350   2.172
22780W        W89563  20.321  43.576  13.786
22781W        W89564  44.773   2.198   0.799
22782W        W89565  44.511   5.935   0.026
22783W        W89566   9.615  23.851   0.451
22784W        W89567  27.431  18.045   0.647
22785W        W89568   6.448   4.811   2.334
22786W        W89569   5.798  26.765  10.739
22787W        W89570  26.884  32.720  11.194
22788W        W89571   3.672  22.605  14.375
22789W        W89572   7.680   5.325  10.811
22790W        W89573  23.940   9.735  12.467
22791W        W89574  26.120  17.214  14.737
22792W        W89575  28.898  28.054  13.130
22793W        W89576  38.374  40.371   0.043
22794W        W89577  24.250  15.764  12.407
22795W        W89578  31.706  26.549   4.112
22796W        W89579  14.034  22.276   2.474
22797W        W89580   0.393  38.287   2.189
22798W        W89581  33.096  28.361  12.621
22799W        W89582  28.200  31.209  10.308
22800W        W89583  32.378  31.765   4.908
22801W        W89584  35.146  12.610   2.190
22802W        W89585   5.385  43.949  13.512
22803W        W89586  17.577  28.696  14.829
22804W        W89587  16.548  26.056   4.729
22805W        W89588   5.901  39.010  10.673
22806W        W89589  16.384   1.286  11.953
22807W        W89590  41.006  23.190  10.713
22808W        W89591  38.785   8.127  13.458
22809W        W89592  27.445   2.923  12.909
22810W        W89593  32.163  33.466   0.764
22811W        W89594   0.743  34.118   2.620
22812W        W89595   6.725   9.831  10.630
22813W        W89596  34.851  30.599  14.558
22814W        W89597  13.212  15.505  10.544
22815W        W89598  15.718  10.026  13.521
22816W        W89599  36.431   4.242  14.415
22817W        W89600  12.215  36.571   5.359
22818W        W89601  13.341  25.155   4.806
22819W        W89602  11.255  18.298  13.981
22820W        W89603  21.494  34.689   4.318
22821W        W89604  33.416  39.267  12.517
22822W        W89605   0.385  26.671  14.542
22823W        W89606  31.865   9.710  11.934
22824W        W89607  41.100   1.502  11.233
22825W        W89608  18.476  25.027  14.207
22826W        W89609  10.322   0.504  13.588
22827W        W89610  16.633  44.737   4.540
22828W        W89611  10.664  35.483  12.593
22829W        W89612  44.975  31.495  13.476
22830W        W89613  11.910  18.897   4.735
22831W        W89614  43.205  28.394  12.017
22832W        W89615   9.402   4.028   4.130
22833W        W89616   5.525  42.850   4.885
22834W        W89617  27.633  19.067  13.446
22835W        W89618  21.548  38.537   0.390
22836W        W89619   7.619  27.672   0.370
22837W        W89620   1.175   4.122  13.005
22838W        W89621  15.075  25.756   1.743
22839W        W89622   4.739  35.383   0.215
22840W        W89623   5.241  11.173   2.009
22841W        W89624   7.335   6.788   1.332
22842W        W89625  24.592  39.121  12.693
22843W        W89626  35.131  28.650  14.345
22844W        W89627  13.718  27.596   0.678
22845W        W89628  44.182  29.418   3.355
22846W        W89629  27.072   1.749   3.101
22847W        W89630  19.757  24.641   0.780
22848W        W89631  32.607  12.375  12.223
22849W        W89632  28.129  16.775   4.994
22850W        W89633  44.464  20.019   5.004
22851W        W89634  35.095  40.743  13.784
22852W        W89635  17.186  39.266  11.180
22853W        W89636   7.701   2.347  14.484
22854W        W89637   7.389  30.426  10.730
22855W        W89638   3.729   0.955  14.097
22856W        W89639   8.240  31.991   1.004
22857W        W89640   7.870  12.087  12.997
22858W        W89641  32.519  21.628   1.622
22859W        W89642  19.595  24.935  12.882
22860W        W89643   4.909   7.741   3.340
22861W        W89644  43.079  37.297   2.611
22862W        W89645  28.877  20.985   4.567
22863W        W89646  27.621  14.414   0.910
22864W        W89647   5.885  18.696   3.807
22865W        W89648  13.284   4.562  14.497
22866W        W89649  27.973  14.305   0.418
22867W        W89650   4.312  28.532  13.626
22868W        W89651  21.793  32.237   1.100
22869W        W89652  16.766  18.447   1.829
22870W        W89653  14.148  31.378   4.126
22871W        W89654  28.173  29.546   0.792
22872W        W89655  42.140  15.137   1.330
22873W        W89656  30.039  39.125   4.575
22874W        W89657   2.039  22.665  11.697
22875W        W89658  10.468  31.294   0.674
22876W        W89659  11.477   8.579  14.273
22877W        W89660  37.945   0.657   3.319
22878W        W89661  31.359  10.373  14.558
22879W        W89662   0.341  43.424   3.379
22880W        W89663  25.294  27.666   0.256
22881W        W89664  13.144  26.444  13.920
22882W        W89665   7.475  29.070   0.996
22883W        W89666  30.346   3.856   2.613
22884W        W89667  19.620   1.788   4.735
22885W        W89668  12.382  41.470  14.102
22886W        W89669  13.251  28.065  13.111
22887W        W89670   2.732   8.034  12.550
22888W        W89671  38.618  37.466  14.555
22889W        W89672  30.522  13.606   0.568
22890W        W89673  41.692  18.840  14.032
22891W        W89674  29.106  17.114   4.628
22892W        W89675  29.409  44.383   4.618
22893W        W89676  36.071  32.984  14.226
22894W        W89677   8.444  28.312  13.982
22895W        W89678  29.438  36.927  10.846
22896W        W89679  14.616   8.233   0.357
22897W        W89680   1.710  22.778   2.747
22898W        W89681  30.402  41.600  14.229
22899W        W89682  23.200  22.143   1.317
22900W        W89683  34.466   3.846  13.059
22901W        W89684  29.289  36.526   3.618
22902W        W89685  29.949  20.221   0.131
22903W        W89686  15.691  12.834  12.125
22904W        W89687  28.090   2.841  10.511
22905W        W89688  14.038  19.176  12.616
22906W        W89689  17.036  28.618  11.335
22907W        W89690  27.668  39.294   3.171
22908W        W89691  32.934   4.603   0.022
22909W        W89692  21.478  25.715   0.651
22910W        W89693  32.694   1.352   0.104
22911W        W89694  29.156  30.074   3.155
22912W        W89695  41.874   4.402  14.932
22913W        W89696  27.163  25.869   2.671
22914W        W89697   0.709  30.267  14.557
22915W        W89698  29.855  18.189  14.980
22916W        W89699  36.395   9.743  13.863
22917W        W89700   2.638  34.522   1.946
22918W        W89701   6.283  11.616   4.352
22919W        W89702  38.591  40.530  11.468
22920W        W89703  17.731  32.573   0.197
22921W        W89704  41.650  23.287  14.627
22922W        W89705   7.664   3.574  10.572
22923W        W89706  21.585  22.949   2.195
22924W        W89707   3.899  22.799   4.714
22925W        W89708   4.331  14.569  12.619
22926W        W89709  26.781  31.541  11.617
22927W        W89710   2.841  39.901   1.411
22928W        W89711   8.159   3.831  14.129
22929W        W89712  34.247  19.091   1.848
22930W        W89713  13.477  10.431  12.056
22931W        W89714  13.104  12.914   4.069
22932W        W89715  39.608   1.969  14.418
22933W        W89716  15.411  28.042  13.887
22934W        W89717   4.730  27.219  11.296
22935W        W89718  41.885  18.549  14.417
22936W        W89719   4.198  31.145  14.566
22937W        W89720  27.197  34.461  11.929
22938W        W89721  42.915   3.352   2.878
22939W        W89722  29.883   1.360   0.940
22940W        W89723   8.523  26.040   4.910
22941W        W89724  31.068  30.031  11.913
22942W        W89725   0.798  26.136  13.123
22943W        W89726  22.547  11.209   2.195
22944W        W89727  37.673   5.262   1.823
22945W        W89728  28.160  15.501   1.333
22946W        W89729  32.895  31.909   5.034
22947W        W89730  31.931  23.561  13.053
22948W        W89731   2.754   0.168  12.572
22949W        W89732  18.708  18.621   0.441
22950W        W89733  25.998  10.257   1.887
22951W        W89734   6.461  23.522   9.921
22952W        W89735   3.871  28.245   1.619
22953W        W89736  44.832  16.810   2.773
22954W        W89737  32.247   9.619   0.004
22955W        W89738  19.021   6.086   0.502
22956W        W89739  18.334  29.947   1.202
22957W        W89740  42.913  35.020   4.520
22958W        W89741  41.737  34.424  12.964
22959W        W89742  11.117  35.580   0.924
22960W        W89743  11.541  33.694  10.358
22961W        W89744  16.269  25.589   4.440
22962W        W89745   8.411  11.682   3.567
22963W        W89746  27.173  26.610   0.955
22964W        W89747  38.108  25.521   4.167
22965W        W89748  11.930  39.346  11.226
22966W        W89749   4.076  15.358  12.051
22967W        W89750   2.771   8.536  11.639
22968W        W89751  18.639   9.194   1.435
22969W        W89752   4.337  24.693  14.299
22970W        W89753  24.173  39.804   0.933
22971W        W89754   2.948  40.324   3.563
22972W        W89755  32.562  34.924   2.536
22973W        W89756  19.397   0.669   2.191
22974W        W89757   9.611  40.443   3.510
22975W        W89758  13.342  25.221  14.895
22976W        W89759  32.469  30.389  12.857
22977W        W89760   2.646  18.162   2.111
22978W        W89761   6.946  44.351  11.182
22979W        W89762  40.136  11.178   3.227
22980W        W89763  30.685  17.836  14.879
22981W        W89764   1.373  41.458  12.019
22982W        W89765  36.357  39.443   3.584
22983W        W89766   0.467  31.098  13.059
22984W        W89767  10.152  37.991   0.931
22985W        W89768   4.251  23.649  13.283
22986W        W89769  14.890   3.288  14.019
22987W        W89770  25.744  15.289  11.729
22988W        W89771   2.652  26.436  12.606
22989W        W89772  20.132  39.786  14.878
22990W        W89773  19.726  12.597  13.398
22991W        W89774  12.223  20.948  14.772
22992W        W89775   6.377  12.839  14.082
22993W        W89776  11.784  36.080   1.695
22994W        W89777  15.668  16.895   3.197
22995W        W89778  22.585  23.220   4.070
22996W        W89779  39.480  17.549  14.744
22997W        W89780  30.538  17.058   0.795
22998W        W89781   3.471  15.587  12.801
22999W        W89782  44.929  36.052   2.303
23000W        W89783  17.105  13.082   4.811
23001W        W89784  19.586  30.717   0.380
23002W        W89785  42.369   4.232  14.829
23003W        W89786  22.421  11.504   1.276
23004W        W89787   1.226  17.526   0.895
23005W        W89788  20.289  26.608  10.558
23006W        W89789  44.520  27.591  12.570
23007W        W89790  18.718   1.985   0.759
23008W        W89791  21.021  24.981  12.111
23009W        W89792  32.333  32.572  13.011
23010W        W89793  42.303  28.087   0.340
23011W        W89794  37.368  40.414   0.926
23012W        W89795   3.386   5.687  10.112
23013W        W89796   8.539  27.035   2.324
23014W        W89797  30.422   1.441   3.756
23015W        W89798  10.767   1.329  12.792
23016W        W89799  27.222   6.035  13.968
23017W        W89800  24.055   9.957  10.740
23018W        W89801   8.348  12.139  10.761
23019W        W89802   5.433  13.090  13.365
23020W        W89803  14.711   8.090   2.931
23021W        W89804   8.419  24.775  11.222
23022W        W89805  12.592  10.209  14.543
23023W        W89806   7.412  28.902  11.194
23024W        W89807   3.891   2.292   4.122
23025W        W89808  36.018   3.406  13.427
23026W        W89809   9.744   8.914  11.514
23027W        W89810   7.731   2.203   2.783
23028W        W89811  38.022  14.121   0.910
23029W        W89812  40.575  37.326  11.569
23030W        W89813  22.522  17.036  12.696
23031W        W89814   8.790  30.901  12.557
23032W        W89815  28.643  27.988   0.864
23033W        W89816  31.164  36.077  11.179
23034W        W89817  11.804  44.823   4.569
23035W        W89818   5.361  36.874   1.194
23036W        W89819  11.656  25.138   0.276
23037W        W89820   8.236   7.743   1.297
23038W        W89821  35.830  11.703   1.749
23039W        W89822  13.562  22.246   0.491
23040W        W89823  30.529   8.699   2.359
23041W        W89824  21.666  19.820   3.124
23042W        W89825  44.839  31.522  10.418
23043W        W89826  28.100  33.102  14.929
23044W        W89827  28.813  43.119   0.859
23045W        W89828  29.462  37.807   2.880
23046W        W89829  19.102   3.748   2.810
23047W        W89830  38.339  16.837   0.269
23048W        W89831  32.048  41.599  13.066
23049W        W89832  17.655   4.562  12.215
23050W        W89833  19.519   1.739  14.091
23051W        W89834  10.359  30.674  14.815
23052W        W89835  40.397  10.949   4.404
23053W        W89836   0.144  42.589   1.880
23054W        W89837  12.112  39.055  10.419
23055W        W89838  11.015  25.470  14.038
23056W        W89839  11.222  36.861  11.041
23057W        W89840  42.555  24.565   4.925
23058W        W89841  19.143  40.106   4.705
23059W        W89842  41.023  27.156  12.831
23060W        W89843  20.154  40.760   1.445
23061W        W89844  24.116   0.728  13.977
23062W        W89845  37.356  25.565   2.882
23063W        W89846  44.366  10.149   0.162
23064W        W89847  38.309  14.767   4.305
23065W        W89848  38.390  35.526  10.674
23066W        W89849  40.252  38.512   2.320
23067W        W89850   1.039  32.953   0.896
23068W        W89851   8.033  12.832   2.752
23069W        W89852  29.999  36.099   1.434
23070W        W89853  39.466   8.692  13.349
23071W        W89854  23.048  23.423   1.719
23072W        W89855   2.448  11.858   4.606
23073W        W89856  24.049  32.479   1.915
23074W        W89857  13.598  37.092   2.460
23075W        W89858  20.609  32.678   2.587
23076W        W89859  25.778  23.823   0.830
23077W        W89860  28.982  11.827  10.771
23078W        W89861  39.071  35.184  13.625
23079W        W89862  19.531  18.338  13.084
23080W        W89863  28.928  38.068  10.914
23081W        W89864   8.126  23.457  13.410
23082W        W89865  38.433  23.140   4.084
23083W        W89866  12.555  41.408  13.604
23084W        W89867  18.573  25.236   1.261
23085W        W89868  34.893  15.037  14.944
23086W        W89869   1.481  23.489   1.777
23087W        W89870  36.491  35.110   3.923
23088W        W89871  36.957  40.057  11.595
23089W        W89872  31.864  27.710  11.054
23090W        W89873   7.231  33.933  14.494
23091W        W89874  28.216  37.351  13.935
23092W        W89875  26.178  44.003   2.328
23093W        W89876   7.849   6.678   2.777
23094W        W89877  24.435  18.424  14.937
23095W        W89878  31.662  40.752  13.543
23096W        W89879  11.203  41.700  12.993
23097W        W89880   4.352  21.426  13.014
23098W        W89881   5.358  35.843  14.779
23099W        W89882  37.843  42.945  10.371
23100W        W89883  18.622  13.798   4.986
23101W        W89884  31.155  31.846   4.136
23102W        W89885  31.135  18.322  14.309
23103W        W89886   5.822  33.876   0.948
23104W        W89887  15.800  17.774  14.270
23105W        W89888  26.784  16.260  14.659
23106W        W89889  26.441  32.410  12.532
23107W        W89890  43.518  41.817  13.915
23108W        W89891  26.612   8.145   2.562
23109W        W89892   2.842  17.269   2.079
23110W        W89893  22.542   7.878  13.631
23111W        W89894   9.380  38.363  14.939
23112W        W89895   4.112   1.442  12.125
23113W        W89896  31.721   7.830   0.889
23114W        W89897  23.027  19.707   1.430
23115W        W89898  24.975  24.121   1.676
23116W        W89899  20.708  21.129  10.788
23117W        W89900  10.888  37.873  14.892
23118W        W89901  15.784  18.481  10.707
23119W        W89902  44.942   5.790   1.577
23120W        W89903  24.323  27.686   3.457
23121W        W89904   4.968  19.143   1.307
23122W        W89905  14.701  38.986  14.050
23123W        W89906   4.942   5.933   1.874
23124W        W89907   9.337  14.795  10.676
23125W        W89908  24.940  26.519  14.105
23126W        W89909  43.585  13.807  13.276
23127W        W89910  42.549  11.377  13.769
23128W        W89911   6.928  44.494   3.079
23129W        W89912  44.677   7.707  13.337
23130W        W89913  42.225  28.403  14.914
23131W        W89914  39.466   9.660   0.474
23132W        W89915  20.241  31.480   3.697
23133W        W89916  31.396   9.203   2.425
23134W        W89917  28.895  38.872  10.695
23135W        W89918  35.504  10.221   4.588
23136W        W89919  34.190  16.214   4.496
23137W        W89920  12.735  15.999   3.833
23138W        W89921   6.810   7.389   4.919
23139W        W89922   8.680  27.261  11.588
23140W        W89923  24.681  18.319   4.461
23141W        W89924   9.644   3.951   3.674
23142W        W89925  24.183  17.649   4.115
23143W        W89926  29.355   3.449  13.361
23144W        W89927  39.865  19.253  11.107
23145W        W89928  10.119  15.175  12.226
23146W        W89929   4.854  11.253   4.631
23147W        W89930  37.818   1.043   2.346
23148W        W89931   7.898   2.890  14.923
23149W        W89932   7.053  12.648   1.731
23150W        W89933  16.500  44.469  13.464
23151W        W89934   1.338  37.366  13.743
23152W        W89935  15.791  31.581  14.411
23153W        W89936  38.844   7.911   0.860
23154W        W89937  41.759  36.022  11.542
23155W        W89938  11.739   6.788  14.334
23156W        W89939  43.040   8.356  11.638
23157W        W89940  31.917  43.404  12.826
23158W        W89941  26.967  37.546   2.351
23159W        W89942   4.549  36.383   2.729
23160W        W89943   6.994  25.215   2.205
23161W        W89944  33.399  21.079   1.336
23162W        W89945  14.330   6.894   1.504
23163W        W89946  30.133  23.894   3.527
23164W        W89947  37.102  28.125   4.530
23165W        W89948  39.070  27.037  12.138
23166W        W89949  41.038  28.421   2.663
23167W        W89950  25.456  26.959   4.048
23168W        W89951  28.621  21.619  13.715
23169W        W89952  39.353  32.002   3.766
23170W        W89953  26.317  20.172   1.639
23171W        W89954  33.778  15.257   1.272
23172W        W89955  10.836   5.777   1.542
23173W        W89956   9.165   4.750   3.666
23174W        W89957   9.420  17.883  11.638
23175W        W89958  20.082   1.733   4.986
23176W        W89959  28.144  13.591  12.030
23177W        W89960   4.195  16.593   0.717
23178W        W89961  28.475  37.998   1.017
23179W        W89962   0.971  27.093   2.331
23180W        W89963   2.721  12.833  12.571
23181W        W89964  19.822  30.263   2.262
23182W        W89965  29.183  27.205  14.379
23183W        W89966  43.152  37.050  12.853
23184W        W89967  25.660   5.650   1.242
23185W        W89968  10.659  26.999  11.562
23186W        W89969  22.405  39.401  10.793
23187W        W89970   3.748   3.934   1.492
23188W        W89971  44.812   0.365  11.530
23189W        W89972  29.510  13.739  10.789
23190W        W89973  21.959  36.925  12.141
23191W        W89974   0.801  38.380  11.499
23192W        W89975   6.267  44.233  11.439
23193W        W89976  44.261  17.158  12.032
23194W        W89977  34.320  10.810   1.881
23195W        W89978   0.423   5.481   0.224
23196W        W89979   8.777  31.145   4.153
23197W        W89980  35.907  11.204   0.454
23198W        W89981   7.357   9.044   4.938
23199W        W89982   7.068   0.388  12.235
23200W        W89983   1.942  30.997  12.436
23201W        W89984   4.900   5.219  14.850
23202W        W89985  37.892  16.555   2.197
23203W        W89986  22.642   7.736  10.829
23204W        W89987   4.803  28.120   2.195
23205W        W89988  28.932   5.398   3.012
23206W        W89989   3.214  41.812  14.298
23207W        W89990  33.666  32.537  13.564
23208W        W89991   3.313  23.481  14.793
23209W        W89992   3.246   8.122  11.207
23210W        W89993  15.480  37.747  13.540
23211W        W89994  39.264   4.556   2.742
23212W        W89995  35.121   0.370  11.257
23213W        W89996  44.614  20.909   4.567
23214W        W89997  20.835  39.426   1.575
23215W        W89998  12.188  10.829  13.399
23216W        W89999  13.869  42.616   2.753
23217W        W90000  35.671  43.411   1.297
23218W        W90001  44.340  35.995  13.925
23219W        W90002  15.772  36.091  14.548
23220W        W90003  10.465  18.908   5.103
23221W        W90004  28.912  24.628   0.365
23222W        W90005  43.981  28.987   3.176
23223W        W90006   8.722  26.694   4.206
23224W        W90007   7.475  32.020   3.672
23225W        W90008  19.230  17.115   4.944
23226W        W90009  27.968  28.020  11.695
23227W        W90010  40.073  23.872   2.783
23228W        W90011  20.175  40.716  12.941
23229W        W90012  13.383   6.363  11.869
23230W        W90013  43.487  19.765   2.201
23231W        W90014   6.788  19.911   3.254
23232W        W90015  37.552   7.901  10.428
23233W        W90016  24.938  22.619   3.751
23234W        W90017  21.258  33.096  13.066
23235W        W90018  26.546   3.732  13.498
23236W        W90019  31.855  34.824   0.823
23237W        W90020   5.713  23.042  12.136
23238W        W90021  38.475  33.795  13.826
23239W        W90022  20.231  42.388  14.357
23240W        W90023  27.414  32.593   2.157
23241W        W90024  39.850  25.164   2.348
23242W        W90025  20.700   5.834  12.159
23243W        W90026  14.641  32.643   5.001
23244W        W90027  43.007  25.058  11.992
23245W        W90028  30.473  39.826  14.632
23246W        W90029  24.265  21.652  13.571
23247W        W90030  37.423  44.773  12.106
23248W        W90031  11.222   1.749  11.108
23249W        W90032  13.807  36.190  13.069
23250W        W90033  14.224   0.424  14.464
23251W        W90034  35.124  16.734  10.692
23252W        W90035   0.253   6.786   3.401
23253W        W90036  20.607  31.143  11.300
23254W        W90037  24.996  26.135   0.999
23255W        W90038  37.701  38.783   4.753
23256W        W90039  27.667  37.186  11.177
23257W        W90040  30.999  34.495  10.216
23258W        W90041   9.585  14.004  14.417
23259W        W90042  33.162  28.053  11.459
23260W        W90043  12.607  23.672   1.944
23261W        W90044  13.721  43.505  13.871
23262W        W90045  19.538   0.325  12.373
23263W        W90046  44.721  20.839  13.380
23264W        W90047   9.127  29.487  13.961
23265W        W90048  13.236   7.923   3.109
23266W        W90049  13.994   6.113  13.845
23267W        W90050  38.719  17.459  10.601
23268W        W90051  23.666  16.658  14.057
23269W        W90052   8.177   7.971  12.066
23270W        W90053   2.981   6.319   1.185
23271W        W90054  38.026  21.561  11.757
23272W        W90055   0.189  19.852  12.395
23273W        W90056  20.362   5.898   1.004
23274W        W90057  42.826  26.264   3.874
23275W        W90058  40.153  14.147   3.302
23276W        W90059  11.562  32.857   2.299
23277W        W90060  14.529  32.360   1.401
23278W        W90061  18.736  35.620  11.202
23279W        W90062  18.564  27.006  13.992
23280W        W90063  18.051  33.157   3.602
23281W        W90064  32.070  28.044   1.841
23282W        W90065  38.690  22.004  13.020
23283W        W90066  34.046  26.020   3.656
23284W        W90067   0.929  14.644   2.185
23285W        W90068  38.728   3.441   5.082
23286W        W90069  20.727  22.056   4.320
23287W        W90070  12.349   5.793  11.121
23288W        W90071  15.640  44.365   0.770
23289W        W90072  11.686  23.775   2.841
23290W        W90073   1.731  26.938  14.401
23291W        W90074  27.725   4.606   4.242
23292W        W90075  44.303  24.601   2.457
23293W        W90076  30.410   9.215   2.350
23294W        W90077   8.049  20.389   1.436
23295W        W90078  33.029   7.334   2.338
23296W        W90079   4.383  27.725   0.981
23297W        W90080  20.346  39.137   2.552
23298W        W90081  25.414  35.117   3.327
23299W        W90082   9.526  38.934   2.800
23300W        W90083  40.771   2.449   4.857
23301W        W90084  15.284  30.107   3.718
23302W        W90085  13.874  21.058   2.897
23303W        W90086  31.663  18.260   0.217
23304W        W90087  39.116  38.929  12.908
23305W        W90088  40.720  34.982  12.560
23306W        W90089   6.817  35.053   0.717
23307W        W90090  39.097  43.241  11.239
23308W        W90091  40.930  32.032   3.019
23309W        W90092  18.007  30.679   2.846
23310W        W90093  37.378   2.409  14.329
23311W        W90094  24.466  34.626   1.653
23312W        W90095   5.246  15.164   3.735
23313W        W90096  29.502  42.758   1.410
23314W        W90097   1.471  41.871  13.551
23315W        W90098  35.480  30.103   3.737
23316W        W90099  40.874   1.545  10.747
23317W        W90100  31.075  32.668  10.646
23318W        W90101  24.938  32.995   4.069
23319W        W90102  10.622  42.902   2.292
23320W        W90103   4.983  33.581  13.997
23321W        W90104  15.631  36.975  12.937
23322W        W90105  16.763  15.783   1.274
23323W        W90106  36.599   1.243   3.230
23324W        W90107   4.419  29.569  12.648
23325W        W90108  34.826  24.988   0.299
23326W        W90109  20.428  26.312  14.764
23327W        W90110  42.457  26.072   4.666
23328W        W90111  28.901   6.341  12.106
23329W        W90112  25.503  38.308  11.990
23330W        W90113   6.225  29.605  12.498
23331W        W90114  17.261  35.931   0.455
23332W        W90115  11.867  44.797  10.662
23333W        W90116  10.194  21.701   1.269
23334W        W90117  14.744  27.815   3.187
23335W        W90118  40.928  36.727   0.304
23336W        W90119  38.644  20.537   0.863
23337W        W90120  17.682  43.965  13.422
23338W        W90121  35.991  28.245   2.872
23339W        W90122   7.299  35.156  11.175
23340W        W90123  24.644  17.685   3.789
23341W        W90124  21.971   0.647  11.918
23342W        W90125   8.955   3.785  14.815
23343W        W90126  39.102  42.414  12.422
23344W        W90127  36.108  29.560  13.903
23345W        W90128  30.962  27.236  11.053
23346W        W90129   3.456   6.531  14.996
23347W        W90130  35.494  24.635   2.824
23348W        W90131  30.367  33.365  13.001
23349W        W90132  33.030  23.242   5.071
23350W        W90133   8.066  25.499  11.544
23351W        W90134   0.317  18.572  14.381
23352W        W90135  42.979  25.761   4.404
23353W        W90136  19.734  36.382   2.742
23354W        W90137  24.146  14.295  13.842
23355W        W90138  38.062  18.292  13.513
23356W        W90139  41.286  17.141   3.326
23357W        W90140  23.524  25.134   0.562
23358W        W90141  42.367  15.020   1.806
23359W        W90142  42.587  24.402   2.730
23360W        W90143  12.561  37.432   2.226
23361W        W90144  22.998   1.330  10.231
23362W        W90145  25.660   7.477  13.421
23363W        W90146  35.628  39.480  12.893
23364W        W90147  41.190  21.771  10.457
23365W        W90148  21.664  24.125  10.320
23366W        W90149   1.699  24.216   4.880
23367W        W90150   9.670  37.337   2.371
23368W        W90151  15.230  14.575  12.493
23369W        W90152  32.192  17.319   3.769
23370W        W90153   6.868  37.916   4.478
23371W        W90154  33.341  14.363  13.860
23372W        W90155  42.455  21.190   4.406
23373W        W90156  19.937   8.125   2.185
23374W        W90157  40.012  31.898   1.338
23375W        W90158  12.576  22.552  12.601
23376W        W90159   1.549  20.572   0.390
23377W        W90160  40.888  13.671   1.021
23378W        W90161  30.830  31.610   1.801
23379W        W90162  29.903  39.799   3.202
23380W        W90163  16.678  19.123  12.562
23381W        W90164  29.844  20.140   1.618
23382W        W90165   0.951  38.447  11.978
23383W        W90166  13.576  43.000  12.091
23384W        W90167  35.126  19.545   0.770
23385W        W90168  19.307  20.574   4.149
23386W        W90169  26.148  41.446   2.174
23387W        W90170   6.213   9.683  10.342
23388W        W90171   2.402  16.723   2.212
23389W        W90172  33.663   9.227   0.326
23390W        W90173  18.103  19.231  13.976
23391W        W90174  11.066  30.134   1.818
23392W        W90175  25.864  20.757  14.322
23393W        W90176  33.010  34.808   4.490
23394W        W90177  29.453  30.530   3.765
23395W        W90178  39.934  19.196  12.888
23396W        W90179  11.890  20.671  14.083
23397W        W90180  10.081  44.731  11.978
23398W        W90181  40.034  25.408  11.145
23399W        W90182  21.052  12.921  12.477
23400W        W90183  13.910  35.532  11.029
23401W        W90184  40.441  22.702   4.522
23402W        W90185   3.887  24.059   4.018
23403W        W90186  26.674  13.989  12.489
23404W        W90187  18.771  42.026  10.762
23405W        W90188   3.887   1.487   0.837
23406W        W90189  22.452  35.997   3.470
23407W        W90190  16.275   5.897   0.470
23408W        W90191   2.743  21.906  13.354
23409W        W90192  22.517   2.707  14.295
23410W        W90193   5.807  27.875  11.462
23411W        W90194  44.174  33.390  13.422
23412W        W90195  41.321  19.335  11.442
23413W        W90196  18.434  25.145  11.466
23414W        W90197  19.125  42.992   1.721
23415W        W90198  24.231  39.331  11.887
23416W        W90199   7.819  10.737   4.867
23417W        W90200  15.559  15.210  10.479
23418W        W90201  20.918  13.688  12.036
23419W        W90202   6.657  16.998  10.558
23420W        W90203  38.559  43.300   1.452
23421W        W90204  19.086  17.631   4.930
23422W        W90205  18.512  28.374   2.759
23423W        W90206  21.717  13.374  12.039
23424W        W90207  28.021  19.755   1.701
23425W        W90208  39.700  14.339   4.126
23426W        W90209   9.683  14.008   3.809
23427W        W90210  23.656  17.398   2.393
23428W        W90211   4.501   9.305  14.994
23429W        W90212  31.218  41.038   4.361
23430W        W90213  35.498  20.949   0.971
23431W        W90214  40.121  32.696  12.023
23432W        W90215  22.418   9.256  10.891
23433W        W90216  39.432   9.059  12.973
23434W        W90217  13.812   8.221  14.096
23435W        W90218  24.847   9.783  14.072
23436W        W90219  43.307  18.779   4.174
23437W        W90220  31.503   3.190   2.252
23438W        W90221  26.704   2.526  14.833
23439W        W90222  41.036   0.639  12.349
23440W        W90223  13.630  40.208  12.441
23441W        W90224  20.584  43.692   4.245
23442W        W90225  18.437  40.098  10.260
23443W        W90226  13.264  43.822  10.685
23444W        W90227  29.890  28.848   2.311
23445W        W90228   0.265   9.966  11.052
23446W        W90229  35.245  25.475  12.733
23447W        W90230  12.934  38.081  11.166
23448W        W90231  11.283  22.136  13.873
23449W        W90232  24.451   5.287   0.933
23450W        W90233   7.289   9.341   5.355
23451W        W90234   3.909  17.646   3.448
23452W        W90235  17.977  12.445  14.470
23453W        W90236  43.317  21.194   3.784
23454W        W90237  18.827  39.984  14.602
23455W        W90238   5.008  15.375  10.882
23456W        W90239   5.069  21.307   2.211
23457W        W90240  14.279  29.561   4.054
23458W        W90241  19.739  24.817  11.479
23459W        W90242  27.243  30.520   4.617
23460W        W90243  39.256  44.479  11.621
23461W        W90244  36.577  25.662  13.916
23462W        W90245  25.704   1.937  13.726
23463W        W90246  29.406  13.710  13.544
23464W        W90247   6.661  30.261   2.863
23465W        W90248  10.403  28.804   0.901
23466W        W90249  22.476   0.256   2.778
23467W        W90250  42.658  20.012   1.522
23468W        W90251  39.111   9.926   0.840
23469W        W90252   6.003  14.497   3.685
23470W        W90253  35.838  31.078   4.124
23471W        W90254  41.908  28.357  13.451
23472W        W90255   9.186  36.785   1.327
23473W        W90256  43.512  22.989  10.744
23474W        W90257  22.718  23.511   4.480
23475W        W90258  29.677  26.900   2.176
23476W        W90259  14.697  11.154   1.806
23477W        W90260  25.066  29.178   4.641
23478W        W90261  15.231  32.735  10.486
23479W        W90262  16.192  43.966  12.085
23480W        W90263  12.990  26.517   0.272
23481W        W90264  16.228  33.553  11.230
23482W        W90265  35.385  39.408   3.879
23483W        W90266  40.848  26.740   5.015
23484W        W90267   3.727  21.337  10.594
23485W        W90268  31.087  23.701  13.829
23486W        W90269   5.212  11.911  14.672
23487W        W90270  17.052  30.386  12.626
23488W        W90271  39.604  40.033   0.538
23489W        W90272  16.210  43.113  10.240
23490W        W90273  17.194  24.844  12.853
23491W        W90274  38.007  15.514  10.390
23492W        W90275   0.123  29.200  11.883
23493W        W90276  34.590  25.522   4.510
23494W        W90277  20.436  44.422  10.564
23495W        W90278  31.630  24.291  13.489
23496W        W90279  30.964  38.256  11.175
23497W        W90280  12.836   7.290   0.053
23498W        W90281  44.625  10.851  11.105
23499W        W90282  31.867  31.048  14.860
23500W        W90283  28.233  22.509  14.347
23501W        W90284   6.323  20.982  14.872
23502W        W90285  19.593  44.281   2.489
23503W        W90286  15.371  28.104   4.074
23504W        W90287  43.285   1.351  13.922
23505W        W90288   1.008  35.495  13.914
23506W        W90289  27.612  34.743   4.535
23507W        W90290  22.151  19.040   0.216
23508W        W90291   4.994  16.632  11.669
23509W        W90292  26.346  34.807  11.008
23510W        W90293  30.007  18.047  11.309
23511W        W90294  33.929  21.062   2.582
23512W        W90295   2.600  34.548   0.511
23513W        W90296   8.159   7.820   3.148
23514W        W90297  37.627  16.160   1.429
23515W        W90298   8.630  14.912  14.614
23516W        W90299  33.319  22.387  11.270
23517W        W90300  28.882  39.441  14.010
23518W        W90301  41.269   9.226   4.114
23519W        W90302  37.011  12.282   4.267
23520W        W90303  24.860  13.173  14.290
23521W        W90304   7.483  25.064   3.326
23522W        W90305  10.194  35.860  14.448
23523W        W90306   0.226  37.343  14.856
23524W        W90307  14.651  23.616  14.747
23525W        W90308  12.123  12.269   4.914
23526W        W90309   3.823  41.346   2.377
23527W        W90310  33.960   6.974  13.359
23528W        W90311  35.395   2.200  13.623
23529W        W90312  26.592  12.148   1.887
23530W        W90313   1.233  29.963   0.332
23531W        W90314  13.185  26.930  10.915
23532W        W90315  39.498  25.030   4.561
23533W        W90316  37.379   8.687   4.577
23534W        W90317  32.843  17.561   0.064
23535W        W90318  42.602  19.775  10.987
23536W        W90319  34.801   6.174  14.773
23537W        W90320  35.424  12.740   3.702
23538W        W90321   6.496  29.845  11.574
23539W        W90322  14.741  17.833   2.870
23540W        W90323   4.637   3.555  13.715
23541W        W90324  23.951  42.409   3.105
23542W        W90325  20.668   3.533  11.596
23543W        W90326  33.021  24.609  14.883
23544W        W90327  20.631   6.676   5.035
23545W        W90328   4.287  11.668   3.895
23546W        W90329  33.638  39.131   4.960
23547W        W90330  23.302  42.422   2.375
23548W        W90331  10.752  36.303   1.430
23549W        W90332  40.746   6.040   4.084
23550W        W90333   1.342  23.544  12.024
23551W        W90334  15.977  27.429  11.011
23552W        W90335  29.479  35.624   1.851
23553W        W90336  21.751  10.719   3.164
23554W        W90337  21.082  32.360   1.233
23555W        W90338  17.416  10.100  14.836
23556W        W90339  37.727  39.064   2.490
23557W        W90340  37.457  15.160   1.439
23558W        W90341  35.889  19.538   2.746
23559W        W90342   0.583  13.204   2.340
23560W        W90343  16.680   5.594   2.325
23561W        W90344  19.712  29.475   0.965
23562W        W90345  17.989  10.508  14.047
23563W        W90346  13.868  43.441  12.981
23564W        W90347  43.855  43.784   2.579
23565W        W90348  36.550  12.709  11.821
23566W        W90349  15.339   3.555  11.150
23567W        W90350  23.535  20.183   2.740
23568W        W90351   7.802  36.603   0.982
23569W        W90352  15.786  42.847   2.868
23570W        W90353  16.622  22.620  14.305
23571W        W90354  13.068  33.415  10.363
23572W        W90355  26.151  25.561  12.985
23573W        W90356  38.561  41.755   2.910
23574W        W90357  26.050  14.102   1.423
23575W        W90358  39.655   1.793  12.675
23576W        W90359  16.710   5.477   1.485
23577W        W90360  25.448  32.960   4.066
23578W        W90361  34.211  28.084   0.843
23579W        W90362  10.350   1.409  12.474
23580W        W90363  43.819  30.091   0.723
23581W        W90364  38.678   1.217  11.185
23582W        W90365  10.631  29.150   0.556
23583W        W90366  32.081  35.090  11.122
23584W        W90367  24.021   4.357   0.207
23585W        W90368  27.245  33.587   2.900
23586W        W90369  18.677  33.840  14.348
23587W        W90370  33.537  35.629   3.247
23588W        W90371  11.661  37.671  14.334
23589W        W90372   3.882  42.524  10.398
23590W        W90373   2.844  36.522   1.039
23591W        W90374  43.547  26.416  13.064
23592W        W90375   2.786  37.369  11.084
23593W        W90376   5.843   4.290  14.953
23594W        W90377   1.427  28.178   0.169
23595W        W90378   3.218   1.829  12.094
23596W        W90379   3.988  32.158  11.998
23597W        W90380   3.753   3.540  11.578
23598W        W90381   1.523  21.697   4.663
23599W        W90382  20.319  28.922   4.930
23600W        W90383   8.508  14.045  11.133
23601W        W90384  32.433  39.467  14.011
23602W        W90385  23.251  28.428   1.898
23603W        W90386  33.657   9.413  13.099
23604W        W90387  18.954  26.508  12.148
23605W        W90388   0.505   4.637  13.477
23606W        W90389   1.919  16.539  14.297
23607W        W90390   6.691  16.476   2.787
23608W        W90391   8.900  28.231   2.267
23609W        W90392   3.443  17.740   3.263
23610W        W90393  11.743   7.575   0.992
23611W        W90394   3.346  24.987   1.320
23612W        W90395   5.203  44.062   4.031
23613W        W90396   1.836  13.487   2.201
23614W        W90397  38.780  12.094   4.466
23615W        W90398  33.385  44.282  10.405
23616W        W90399  31.277   6.988   5.004
23617W        W90400  21.886  31.136   4.987
23618W        W90401  40.022  26.023  12.448
23619W        W90402  10.718  41.727   5.115
23620W        W90403   9.694  35.041  11.082
23621W        W90404   1.210  30.049  12.850
23622W        W90405  23.483  35.394   3.853
23623W        W90406  13.305  36.058  14.771
23624W        W90407  33.267  38.251  12.469
23625W        W90408  22.337  10.638  11.123
23626W        W90409  33.580  21.270  10.143
23627W        W90410  34.186  10.397   1.018
23628W        W90411  29.263  37.920  10.534
23629W        W90412  43.970  40.414  12.464
23630W        W90413   5.419  15.092   1.649
23631W        W90414  33.429  27.593  13.566
23632W        W90415  25.280  13.819   3.689
23633W        W90416  16.768  35.646   1.699
23634W        W90417  30.422  21.093   2.070
23635W        W90418  36.483  11.022   2.564
23636W        W90419  12.372  22.577  13.085
23637W        W90420  12.096  41.808  11.052
23638W        W90421  40.787  41.455  14.973
23639W        W90422  28.422   9.807  13.315
23640W        W90423  44.702  20.068  12.149
23641W        W90424   6.385  25.889   0.824
23642W        W90425  44.464  25.128  14.871
23643W        W90426  22.388   5.245   4.037
23644W        W90427   5.013  19.770   4.423
23645W        W90428  36.347  21.110  11.259
23646W        W90429   6.323  27.881   5.140
23647W        W90430   6.639  42.078  13.055
23648W        W90431  38.134  28.576   1.369
23649W        W90432  33.906   1.924   4.088
23650W        W90433   8.815   7.253   1.027
23651W        W90434  14.540  36.484  13.536
23652W        W90435  22.645  17.758   0.400
23653W        W90436  41.393  29.000  13.794
23654W        W90437  37.434  43.863  13.707
23655W        W90438  36.380  40.566   0.999
23656W        W90439  26.521  27.618   2.810
23657W        W90440  40.418  44.854  13.328
23658W        W90441  38.442   7.848  12.126
23659W        W90442  23.125  20.749  10.457
23660W        W90443  24.067  21.534   0.459
23661W        W90444  36.477  41.091   0.959
23662W        W90445  13.291  39.899   2.777
23663W        W90446   7.341  25.627   4.989
23664W        W90447   6.296  15.807  12.347
23665W        W90448  37.712  23.937  11.010
23666W        W90449  30.481  20.334  13.354
23667W        W90450  34.013  38.435  13.456
23668W        W90451   7.415  29.637   4.950
23669W        W90452  12.780  39.101   1.748
23670W        W90453  21.061  18.171   2.366
23671W        W90454  14.872   0.105   0.109
23672W        W90455  14.626  29.953   0.407
23673W        W90456  11.922  28.427   2.284
23674W        W90457  18.340  40.004  14.790
23675W        W90458   2.507   1.383   1.215
23676W        W90459  20.260  16.599   1.434
23677W        W90460  32.889  12.135   0.898
23678W        W90461  13.357  31.539   4.651
23679W        W90462   0.196  11.732  11.071
23680W        W90463  17.590  40.403  13.509
23681W        W90464  35.779  35.662  11.669
23682W        W90465  40.546  20.065  11.252
23683W        W90466  30.017  44.286   3.284
23684W        W90467   2.431   5.691   3.767
23685W        W90468   8.835   9.709   4.669
23686W        W90469  20.543  26.870  10.963
23687W        W90470  34.510  30.124   0.908
23688W        W90471  43.220  35.880  12.463
23689W        W90472  31.564  40.768   4.068
23690W        W90473   5.917  41.382  14.497
23691W        W90474  34.992  16.198  12.353
23692W        W90475  44.853  39.517   3.208
23693W        W90476  12.702  22.104  10.558
23694W        W90477  40.131  35.973   1.704
23695W        W90478  13.635   7.335   9.804
23696W        W90479  16.551  24.188   2.691
23697W        W90480  31.303  17.162  14.104
23698W        W90481  18.274  28.343  13.897
23699W        W90482  39.465  12.311  13.986
23700W        W90483  12.248  26.910   1.878
23701W        W90484   8.165  26.303   0.035
23702W        W90485  12.233  14.893  13.824
23703W        W90486  17.069  33.943   1.835
23704W        W90487  36.121  10.909  14.343
23705W        W90488  24.579  13.797   0.541
23706W        W90489  16.260  39.561   0.763
23707W        W90490  14.512  17.062  14.140
23708W        W90491  19.976   4.435   4.267
23709W        W90492  17.190  42.515   3.506
23710W        W90493  42.527   0.239   4.634
23711W        W90494  13.709   5.503  10.377
23712W        W90495  38.891  35.425   1.748
23713W        W90496  12.646  30.233  12.371
23714W        W90497  27.095   6.668   1.657
23715W        W90498  14.299  23.210  14.692
23716W        W90499   3.514  19.500  11.158
23717W        W90500  37.029   6.743  12.612
23718W        W90501  31.886  26.469  12.483
23719W        W90502   6.201  33.707  11.460
23720W        W90503  41.904  11.732   2.175
23721W        W90504  19.555  18.791  14.963
23722W        W90505  32.136   2.435   2.247
23723W        W90506  12.411  23.460  12.600
23724W        W90507  29.126  17.760  14.401
23725W        W90508   4.678  13.843   1.173
23726W        W90509  26.588  30.445   0.523
23727W        W90510  40.840  39.294   1.144
23728W        W90511  35.887  35.120  14.904
23729W        W90512  23.561  37.577  12.667
23730W        W90513  30.462   9.986   4.101
23731W        W90514  20.632  22.522   2.217
23732W        W90515  40.722  19.165   1.342
23733W        W90516  25.733   8.840   1.728
23734W        W90517  39.593  19.604  11.956
23735W        W90518  30.143  13.870   3.563
23736W        W90519  32.092  28.948  10.655
23737W        W90520  33.431   2.779  13.838
23738W        W90521  42.917  38.928  12.169
23739W        W90522   1.504  22.727  11.537
23740W        W90523  35.704  25.798   0.310
23741W        W90524  40.915   0.011   1.902
23742W        W90525  27.982  27.427   2.869
23743W        W90526  38.969  38.931  11.680
23744W        W90527  16.669  22.233  11.107
23745W        W90528  22.688  23.680  11.546
23746W        W90529  33.723  30.197   0.530
23747W        W90530  25.433   6.340   4.564
23748W        W90531  39.025  34.197  14.454
23749W        W90532  22.022  43.382   3.649
23750W        W90533  37.404  28.453   0.877
23751W        W90534   7.304  17.115  14.191
23752W        W90535  40.120   1.908  14.319
23753W        W90536  16.039  32.517   4.085
23754W        W90537  26.146   1.303   4.081
23755W        W90538   5.405  21.101  12.449
23756W        W90539  26.552  44.203  11.418
23757W        W90540  42.875  19.343  14.559
23758W        W90541  24.104   2.033   2.219
23759W        W90542  23.945   2.381  13.071
23760W        W90543  19.121  21.989  11.316
23761W        W90544  33.905  29.917  11.636
23762W        W90545  29.429  14.676  12.704
23763W        W90546  36.948  39.251  12.835
23764W        W90547  31.648  44.185  11.620
23765W        W90548  15.901   9.063   0.217
23766W        W90549  22.223  10.808   2.230
23767W        W90550  18.645  35.144   5.014
23768W        W90551  19.970   5.346   1.010
23769W        W90552  36.132   5.470  11.586
23770W        W90553  38.020  29.159   3.096
23771W        W90554  39.332  10.727  12.310
23772W        W90555  22.202  37.117   3.974
23773W        W90556  23.446   1.172   1.362
23774W        W90557  30.428  35.999  12.462
23775W        W90558  23.125  16.801  14.885
23776W        W90559   3.437  13.730  13.564
23777W        W90560  39.914  43.023   0.736
23778W        W90561  13.173  24.605  12.460
23779W        W90562  44.493  39.532  13.299
23780W        W90563  33.450  16.206   1.273
23781W        W90564  21.538  15.768   3.634
23782W        W90565  12.388   6.118  11.984
23783W        W90566   7.403  16.404  13.512
23784W        W90567  19.056  43.488  13.560
23785W        W90568  40.811  20.269  12.989
23786W        W90569  25.333  33.096   1.734
23787W        W90570  11.410  27.860   4.233
23788W        W90571  20.491  37.877  13.978
23789W        W90572  15.057  37.051   1.753
23790W        W90573  25.971  28.914   2.376
23791W        W90574   8.212  14.609  13.355
23792W        W90575  20.534  21.569   3.700
23793W        W90576  35.448  35.421   2.834
23794W        W90577   4.334  42.172  12.122
23795W        W90578  37.593   3.569   0.994
23796W        W90579  13.965  26.117  13.976
23797W        W90580   3.797  30.202   2.434
23798W        W90581   2.993  26.644  12.986
23799W        W90582  21.240  20.310  11.664
23800W        W90583  12.699  11.779  12.414
23801W        W90584   8.253  14.825   3.273
23802W        W90585  43.321   1.242   2.880
23803W        W90586  38.270  12.023   2.672
23804W        W90587  18.968   2.471   1.400
23805W        W90588  13.632  12.715  14.026
23806W        W90589  38.773  15.078  13.636
23807W        W90590  40.836  29.664  14.454
23808W        W90591  26.966  34.460   4.708
23809W        W90592   5.119   2.688   1.710
23810W        W90593  19.499  41.260  10.661
23811W        W90594  37.133  16.006  14.914
23812W        W90595  24.273  32.086   1.628
23813W        W90596  31.950  26.902   4.883
23814W        W90597   4.220  31.108   3.353
23815W        W90598   9.946  42.927   0.229
23816W        W90599  39.596  20.595  14.929
23817W        W90600   8.649  32.707   0.385
23818W        W90601  36.775  17.059  10.669
23819W        W90602  18.901  28.341   5.301
23820W        W90603  40.930  20.498   4.698
23821W        W90604  22.197  24.925   0.795
23822W        W90605  20.006  25.023  11.934
23823W        W90606  23.549  22.739   2.263
23824W        W90607  12.781   7.137  12.010
23825W        W90608  33.980  40.620  14.333
23826W        W90609  23.281  33.013  11.466
23827W        W90610  41.937  13.112   1.734
23828W        W90611   3.512  42.805  14.428
23829W        W90612  11.205  19.131  13.614
23830W        W90613  36.653  25.773   0.693
23831W        W90614  24.308  20.548   2.664
23832W        W90615  36.929  21.290  14.695
23833W        W90616  38.850  35.110   0.429
23834W        W90617  18.542  36.350   0.390
23835W        W90618  15.777   3.306  11.189
23836W        W90619  28.558   6.781   4.271
23837W        W90620  16.943  22.128  11.521
23838W        W90621  15.539  11.291   2.253
23839W        W90622  12.218  38.495  12.555
23840W        W90623   4.757   9.248   0.449
23841W        W90624  41.460  44.906  12.206
23842W        W90625  25.941   7.781   4.074
23843W        W90626  35.271  25.380   0.382
23844W        W90627  19.182  15.461   0.431
23845W        W90628  19.645  16.054   0.759
23846W        W90629   8.147  35.093  11.171
23847W        W90630   4.436  15.557  14.510
23848W        W90631  43.847  17.675   1.266
23849W        W90632  16.722  23.976  14.190
23850W        W90633  28.171  15.375   3.312
23851W        W90634  26.042  30.434   1.816
23852W        W90635  43.176  37.335  11.258
23853W        W90636   3.520   3.198   2.798
23854W        W90637  16.005  16.869   3.595
23855W        W90638  15.827  29.324   1.256
23856W        W90639  20.069  34.279  14.105
23857W        W90640  33.880  27.978  11.055
23858W        W90641  40.876   9.154  13.434
23859W        W90642  42.342   5.803   3.096
23860W        W90643   3.628  27.227   3.020
23861W        W90644   6.097  34.415   4.867
23862W        W90645  16.844  16.568   2.634
23863W        W90646   5.196  12.724   4.000
23864W        W90647   6.075   7.800   1.721
23865W        W90648  38.587   6.208  11.470
23866W        W90649   2.154  21.360  14.431
23867W        W90650   0.936  20.481   0.937
23868W        W90651  42.479  27.939  12.746
23869W        W90652  12.855   3.833  12.155
23870W        W90653  35.588  10.136   2.135
23871W        W90654  16.379  44.359   3.900
23872W        W90655  33.888  30.580  13.414
23873W        W90656  18.193  22.464   1.091
23874W        W90657   4.278  44.553   3.538
23875W        W90658   4.002  40.850  10.446
23876W        W90659  37.468  36.119  14.400
23877W        W90660  26.024   2.668  12.963
23878W        W90661  22.456  37.125  12.197
23879W        W90662  16.736  28.225   3.121
23880W        W90663  16.208   5.204  12.798
23881W        W90664   0.500  40.482   2.917
23882W        W90665   3.849  14.804  12.843
23883W        W90666  18.650  38.259  11.368
23884W        W90667  40.961  22.603   4.342
23885W        W90668  28.762  33.970  11.663
23886W        W90669   4.743  22.083   2.719
23887W        W90670  29.354   0.865   3.176
23888W        W90671  28.399  30.084   2.646
23889W        W90672   7.250  36.547   0.381
23890W        W90673  29.075   1.967  13.958
23891W        W90674  32.620  33.411   0.996
23892W        W90675  23.178   1.015   3.348
23893W        W90676   1.792  18.086  14.376
23894W        W90677  27.163  12.242   0.960
23895W        W90678   4.449  29.042   0.456
23896W        W90679  33.350  34.408  12.061
23897W        W90680  38.216  44.449  10.187
23898W        W90681  13.621  28.461   4.390
23899W        W90682  20.693  22.493  11.939
23900W        W90683  18.594  11.141  10.807
23901W        W90684  28.664  23.763   2.362
23902W        W90685  33.956  18.375   2.309
23903W        W90686  37.410  29.826   2.181
23904W        W90687  27.576  37.812  13.386
23905W        W90688  25.741  20.762   2.844
23906W        W90689  37.984  35.932   0.553
23907W        W90690  34.049   8.249   1.309
23908W        W90691  19.851  34.388   4.223
23909W        W90692  23.740   4.833   2.100
23910W        W90693  12.246  27.876   0.801
23911W        W90694  20.770  40.787  12.366
23912W        W90695  22.481   4.215  11.630
23913W        W90696   5.674  38.592   0.156
23914W        W90697  11.370   5.250  12.553
23915W        W90698  44.119  33.801  14.987
23916W        W90699  27.127  24.425  14.700
23917W        W90700  26.634  10.970  11.566
23918W        W90701   2.698   0.582  14.467
23919W        W90702   8.868   5.308   4.476
23920W        W90703  10.565  19.864   5.349
23921W        W90704  16.686   9.637   1.281
23922W        W90705  29.386  16.310   1.900
23923W        W90706   5.867  42.363   1.360
23924W        W90707   4.547   6.970  12.994
23925W        W90708   6.948   5.262  14.047
23926W        W90709  32.711   5.002  11.169
23927W        W90710   2.698  11.344   0.057
23928W        W90711  41.513  22.235  11.676
23929W        W90712  42.896   4.032  13.525
23930W        W90713  27.183   8.957  13.431
23931W        W90714  20.029   7.288   5.240
23932W        W90715   0.560   7.674  11.797
23933W        W90716   9.515   1.781  13.893
23934W        W90717  14.602   3.284  11.229
23935W        W90718   4.293  21.996   0.245
23936W        W90719  43.319   4.346   1.780
23937W        W90720   0.908  24.912  11.297
23938W        W90721  43.873  36.821   3.418
23939W        W90722   4.068  11.608  10.312
23940W        W90723   6.691  13.844  13.456
23941W        W90724  31.484  39.001  13.843
23942W        W90725  12.570  39.673  14.445
23943W        W90726  44.905  11.873   4.129
23944W        W90727  27.116  11.173  10.601
23945W        W90728   4.834   8.705  10.225
23946W        W90729  10.268  41.733  10.446
23947W        W90730  25.527  21.697   3.725
23948W        W90731  14.772  41.476   0.346
23949W        W90732  31.637   4.931   3.668
23950W        W90733  21.107  22.835   0.757
23951W        W90734   8.809  44.841   1.826
23952W        W90735  10.534   1.539   4.217
23953W        W90736  28.769  42.329  13.597
23954W        W90737   1.801  18.719  11.466
23955W        W90738  41.267   4.944  14.474
23956W        W90739  13.244  43.306  13.973
23957W        W90740  38.256  21.239  10.796
23958W        W90741  44.190  24.097   2.335
23959W        W90742   1.606  35.169   2.651
23960W        W90743  35.933  12.332  11.940
23961W        W90744  36.328  34.380  13.957
23962W        W90745  16.403  30.794  11.144
23963W        W90746   8.643  11.157   1.857
23964W        W90747  30.354   9.189   3.702
23965W        W90748  21.098   4.134  13.862
23966W        W90749  12.641  15.073  11.503
23967W        W90750   0.269  15.346   1.861
23968W        W90751  35.808  42.738  12.703
23969W        W90752  10.732  18.066  11.354
23970W        W90753   3.382  26.620   5.187
23971W        W90754   2.920  29.030   3.821
23972W        W90755  31.708  20.970   0.346
23973W        W90756  11.186  16.737  10.944
23974W        W90757  43.874   0.141  11.050
23975W        W90758  44.894  44.005   1.018
23976W        W90759  12.567  28.978  12.590
23977W        W90760  33.548  42.763  14.761
23978W        W90761  11.988  23.719  10.402
23979W        W90762   1.642  44.410   3.695
23980W        W90763  38.507  35.686   2.628
23981W        W90764  42.464  40.619  11.099
23982W        W90765  10.806  12.425   2.025
23983W        W90766  42.541  16.709   1.028
23984W        W90767  30.000  21.816  12.593
23985W        W90768  14.164  21.079   0.500
23986W        W90769  41.232   7.731  13.147
23987W        W90770  37.383  22.910  12.465
23988W        W90771  25.751  39.872  11.822
23989W        W90772   2.508  41.482  13.827
23990W        W90773   3.536  42.063  11.622
23991W        W90774  14.204   5.329  11.221
23992W        W90775   4.953   9.433  12.389
23993W        W90776  36.190  40.796   0.231
23994W        W90777  11.194  43.239   0.220
23995W        W90778   4.988  19.280   3.686
23996W        W90779  20.511   5.242   1.768
23997W        W90780  33.025  40.307   2.160
23998W        W90781  20.024  22.041   2.081
23999W        W90782  20.190  11.574   0.360
24000W        W90783  42.556  23.796  14.479
24001W        W90784  30.371  13.131  14.401
24002W        W90785  26.121  30.922  13.098
24003W        W90786   6.042  13.171   2.464
24004W        W90787  23.425  36.833   0.754
24005W        W90788   6.849  40.962   1.422
24006W        W90789  43.041  41.195   2.806
24007W        W90790  15.369  35.413   1.391
24008W        W90791  20.991  27.990   1.863
24009W        W90792  11.880  22.662  10.256
24010W        W90793  33.202  40.437  11.182
24011W        W90794  37.414  26.489  11.148
24012W        W90795  18.869   7.735   3.146
24013W        W90796   0.989  14.692   1.681
24014W        W90797  38.992  43.307   4.251
24015W        W90798  13.854  26.743   2.313
24016W        W90799   8.773   1.026  11.240
24017W        W90800  15.050  12.242   0.441
24018W        W90801   0.016  17.285  11.603
24019W        W90802   4.784  15.798  12.627
24020W        W90803  20.374  18.029  12.538
24021W        W90804  36.497  22.237   3.622
24022W        W90805  42.932  11.086  14.019
24023W        W90806  13.333  19.526   3.302
24024W        W90807  41.481  39.624  13.290
24025W        W90808  18.753  21.441   3.201
24026W        W90809  21.791  26.429   1.367
24027W        W90810   4.014  23.285  12.121
24028W        W90811  38.093  36.721   3.227
24029W        W90812  28.956  21.298  12.040
24030W        W90813  11.204  44.217  10.897
24031W        W90814   6.915  26.715   1.872
24032W        W90815  26.804  23.604  14.326
24033W        W90816  33.060  21.476   2.809
24034W        W90817  37.049  12.732  11.677
24035W        W90818  37.289  38.790  11.588
24036W        W90819  22.107   7.006   0.812
24037W        W90820  13.308   8.220  11.489
24038W        W90821  28.468  11.511   1.944
24039W        W90822  44.880   4.666   2.634
24040W        W90823  10.263  33.962  13.507
24041W        W90824   2.546   0.876  10.659
24042W        W90825  24.619  23.679   1.033
24043W        W90826  39.060  27.986  10.654
24044W        W90827  32.962  11.752  10.643
24045W        W90828  32.993   8.370  14.015
24046W        W90829  43.616  15.275  12.975
24047W        W90830  19.327  42.890   3.105
24048W        W90831   3.457  24.157   0.945
24049W        W90832  17.298  22.578   1.399
24050W        W90833  22.236  35.064   2.710
24051W        W90834  12.969  32.413   3.991
24052W        W90835  13.704  25.612  11.147
24053W        W90836   9.198   0.363   4.577
24054W        W90837   3.634   7.168  11.194
24055W        W90838  13.174  26.608  14.408
24056W        W90839  42.996   4.734   1.693
24057W        W90840  24.967  14.688   0.290
24058W        W90841  23.418  24.109  12.552
24059W        W90842  37.966  34.642   2.395
24060W        W90843   5.107   1.554  14.915
24061W        W90844  37.832  30.480  11.572
24062W        W90845  30.199  14.945   2.743
24063W        W90846   4.471  28.844   1.345
24064W        W90847  39.531  23.274   0.573
24065W        W90848   7.791  31.342  14.390
24066W        W90849  34.357  33.145   3.130
24067W        W90850  15.187  40.501  13.423
24068W        W90851  19.249   7.026   1.702
24069W        W90852  24.467  35.620   3.673
24070W        W90853   7.497  26.739  13.944
24071W        W90854   9.233  32.156   2.333
24072W        W90855  42.829  27.020   0.859
24073W        W90856  41.526  15.226   2.670
24074W        W90857  38.147  26.505  10.629
24075W        W90858  18.960  22.618  13.358
24076W        W90859   4.770  42.961   2.278
24077W        W90860  42.314  19.736   4.606
24078W        W90861   0.272   6.227   2.840
24079W        W90862  25.444  23.617   1.162
24080W        W90863  36.857   7.276   2.329
24081W        W90864  34.618  29.929   1.380
24082W        W90865  21.817  39.954   0.290
24083W        W90866  13.162  44.837   3.126
24084W        W90867  44.901  39.078   1.311
24085W        W90868   5.216  42.067   2.870
24086W        W90869   7.245  14.163  13.512
24087W        W90870  16.694   5.045   1.943
24088W        W90871   7.926  21.414   1.340
24089W        W90872  43.540   8.726  11.198
24090W        W90873  27.707  35.534   0.913
24091W        W90874  42.002  26.978   1.182
24092W        W90875  13.790  14.585   0.786
24093W        W90876  37.923  23.048  13.097
24094W        W90877  37.746  23.095   0.420
24095W        W90878  18.669  39.803  11.151
24096W        W90879  13.043  19.597  13.584
24097W        W90880  29.470  35.099  11.244
24098W        W90881  23.993  12.887   2.765
24099W        W90882  16.152   0.077   4.223
24100W        W90883  37.781  23.953   1.164
24101W        W90884   3.474  35.533  12.477
24102W        W90885  17.094  41.854  13.396
24103W        W90886   3.851  22.210   0.111
24104W        W90887  36.991   0.678   4.837
24105W        W90888   4.500   8.746   1.744
24106W        W90889  17.504  16.886   1.877
24107W        W90890  31.698  39.875  10.428
24108W        W90891  31.347  23.246  12.508
24109W        W90892  36.063   2.904   3.226
24110W        W90893  16.740  41.922   4.582
24111W        W90894  26.526  17.337  13.234
24112W        W90895   1.877   2.327   0.711
24113W        W90896  35.056  20.683   3.372
24114W        W90897  13.104  39.256   4.313
24115W        W90898  33.127   0.551  12.011
24116W        W90899  15.697   3.671   1.721
24117W        W90900  32.512  16.088  14.933
24118W        W90901   1.052  30.047   4.863
24119W        W90902   3.234  14.298   2.655
24120W        W90903  23.617  15.293  13.028
24121W        W90904  20.588  27.475  13.215
24122W        W90905  39.587   9.277  13.833
24123W        W90906  35.193  13.192  12.336
24124W        W90907  12.968   4.186  11.786
24125W        W90908  28.108  14.127   2.906
24126W        W90909  26.299  10.131  12.437
24127W        W90910   4.848   3.406   0.067
24128W        W90911  32.534  13.376   1.897
24129W        W90912  12.337  20.047  11.684
24130W        W90913  32.711  26.445   4.328
24131W        W90914  16.303  28.030  13.462
24132W        W90915  27.533   3.396   1.272
24133W        W90916  27.784  10.845   2.388
24134W        W90917  39.774  18.704   0.081
24135W        W90918  38.374   1.463   3.890
24136W        W90919  25.709  28.420   3.784
24137W        W90920  43.905   5.922   0.862
24138W        W90921   0.766   9.325   3.725
24139W        W90922   3.916  18.703   2.109
24140W        W90923  42.198  12.346  13.373
24141W        W90924  14.312  29.859  12.589
24142W        W90925  39.523  11.088  10.593
24143W        W90926  31.900  31.857  13.356
24144W        W90927  39.143  30.663  11.029
24145W        W90928  11.760  19.030  12.542
24146W        W90929   7.272  37.502  10.722
24147W        W90930  42.066  18.149  13.606
24148W        W90931  40.324  12.203   0.438
24149W        W90932  13.013  43.204  13.538
24150W        W90933   9.299  19.960   1.405
24151W        W90934  23.204  27.798   1.138
24152W        W90935  32.600  14.310   1.447
24153W        W90936  12.857   3.226   2.395
24154W        W90937   7.692   2.192  12.142
24155W        W90938  24.731  26.070   1.888
24156W        W90939  29.253   6.512   1.690
24157W        W90940  16.604  22.580   1.747
24158W        W90941  22.513  12.670   1.751
24159W        W90942   4.572  44.337   4.550
24160W        W90943  38.760  43.837   4.960
24161W        W90944  43.564  43.858   0.767
24162W        W90945   4.077   9.827  14.625
24163W        W90946  25.552  36.600   0.390
24164W        W90947  16.195  20.240   2.263
24165W        W90948  34.964  33.900   1.307
24166W        W90949  22.719  17.191  13.137
24167W        W90950  18.443  44.420  11.993
24168W        W90951   4.962  35.251  14.755
24169W        W90952  31.638  11.746  12.708
24170W        W90953  14.500  21.808   1.819
24171W        W90954  43.648   6.350  11.924
24172W        W90955  25.411  10.417   0.293
24173W        W90956  44.382  41.093   2.999
24174W        W90957   9.906  27.934  11.213
24175W        W90958  35.595  31.152  11.990
24176W        W90959  11.741  20.726   4.585
24177W        W90960  16.193  16.767   3.113
24178W        W90961  18.216  10.248  13.094
24179W        W90962   9.663  16.323  10.516
24180W        W90963  10.348   5.020   4.133
24181W        W90964  27.102  31.403  11.224
24182W        W90965  31.695  10.217   4.617
24183W        W90966  29.722  36.061   0.990
24184W        W90967  15.611  20.962   0.470
24185W        W90968  10.207  32.685  11.119
24186W        W90969  22.473  18.228   3.311
24187W        W90970  26.512  12.059   4.662
24188W        W90971  16.039  30.577  13.596
24189W        W90972  25.567  40.555  11.538
24190W        W90973  34.639   4.900   1.746
24191W        W90974  43.872  28.213   1.733
24192W        W90975  11.668  43.030   0.236
24193W        W90976  33.985  31.553   1.022
24194W        W90977  41.798  31.631  12.012
24195W        W90978  17.860  11.226  13.967
24196W        W90979  15.757   2.930   4.599
24197W        W90980  43.949   6.890  11.884
24198W        W90981  12.878  44.238   0.308
24199W        W90982  30.913  11.727   2.594
24200W        W90983  37.350  17.977  13.154
24201W        W90984  17.656  20.462  12.906
24202W        W90985   2.717  15.494   2.667
24203W        W90986  40.920  12.767  11.588
24204W        W90987  14.345  16.870  11.933
24205W        W90988  15.171  29.371  14.286
24206W        W90989  40.034   0.297  11.914
24207W        W90990   6.884  28.597   2.197
24208W        W90991  35.749  22.294  14.058
24209W        W90992  12.240  22.825  14.444
24210W        W90993  41.315   7.202  13.987
24211W        W90994  26.937  30.711  12.666
24212W        W90995  27.267  44.439  12.943
24213W        W90996  39.075  39.880  14.794
24214W        W90997  24.118  28.477   0.222
24215W        W90998  20.642  25.750   2.866
24216W        W90999  12.055  28.406  11.244
24217W        W91000  38.969  10.742   3.335
24218W        W91001  34.359  34.289   1.387
24219W        W91002   7.326  14.253   1.528
24220W        W91003  40.474  26.466  11.944
24221W        W91004  20.499   9.085   0.895
24222W        W91005  18.056  18.635  11.529
24223W        W91006  30.008   1.988  13.070
24224W        W91007  23.106  39.024   0.945
24225W        W91008  11.397  24.225   2.652
24226W        W91009  14.571  10.423  11.667
24227W        W91010  27.039   0.564   3.139
24228W        W91011  14.343  44.228  11.170
24229W        W91012  38.367   9.707   3.948
24230W        W91013  30.916  30.895  14.967
24231W        W91014  28.883  13.939  13.978
24232W        W91015  40.093  36.052  13.273
24233W        W91016  34.289  10.289   1.792
24234W        W91017  30.003  14.690   4.617
24235W        W91018  33.601  33.579  10.691
24236W        W91019   7.554   4.210   4.126
24237W        W91020  33.893  16.620   3.146
24238W        W91021  32.386  34.577   3.199
24239W        W91022  23.869   4.859   0.231
24240W        W91023  42.413  18.542  14.491
24241W        W91024  37.120  16.669   0.568
24242W        W91025  26.126  24.124  11.151
24243W        W91026  36.074   2.316  11.602
24244W        W91027  30.481  43.357  11.044
24245W        W91028  10.876  24.503   1.798
24246W        W91029  10.042  39.280   0.426
24247W        W91030  37.508   3.611   3.713
24248W        W91031  29.103  30.120  11.519
24249W        W91032  18.482  43.181   3.426
24250W        W91033   2.993  17.567   1.297
24251W        W91034  36.987  42.966   3.686
24252W        W91035   9.970  28.075   1.308
24253W        W91036  32.925  37.393  13.515
24254W        W91037   3.963  13.289  11.454
24255W        W91038  16.526  32.078  12.085
24256W        W91039  42.156  25.937   1.251
24257W        W91040  34.621  19.619   0.734
24258W        W91041  13.683  42.270   2.385
24259W        W91042  14.133  41.076  12.868
24260W        W91043   4.244  37.748   3.842
24261W        W91044  40.671   3.988   0.669
24262W        W91045  36.824  28.313  11.593
24263W        W91046  20.953  39.642  14.889
24264W        W91047  32.552  17.098   0.940
24265W        W91048  20.504  21.958   0.381
24266W        W91049   9.628  27.700   3.363
24267W        W91050   2.012  20.770  10.746
24268W        W91051  28.709  22.962   4.667
24269W        W91052  32.370  17.111   2.142
24270W        W91053  11.577  15.892   4.172
24271W        W91054  31.905  26.940   4.350
24272W        W91055  30.640  15.769   3.226
24273W        W91056  41.022  16.652   2.653
24274W        W91057  24.755  25.215   2.338
24275W        W91058  32.016  14.838  14.455
24276W        W91059  30.740  43.891  14.340
24277W        W91060  24.163  19.214  11.212
24278W        W91061   5.209  32.652   0.840
24279W        W91062   9.206   6.929  13.943
24280W        W91063   4.299  29.132  12.355
24281W        W91064  12.543  34.361  13.451
24282W        W91065  14.918  38.506  13.946
24283W        W91066   6.404  15.700  12.820
24284W        W91067  31.244  40.390   2.154
24285W        W91068  25.717  30.531  13.382
24286W        W91069   7.124   1.327  11.927
24287W        W91070  26.422  34.360   4.737
24288W        W91071  33.375  43.703  10.346
24289W        W91072  34.604  18.620  13.376
24290W        W91073  29.836   0.990   3.296
24291W        W91074  34.991  29.465   3.184
24292W        W91075  29.983   3.817   4.458
24293W        W91076  16.153  42.931   3.257
24294W        W91077   4.879  28.714  13.469
24295W        W91078  35.633   6.838   2.763
24296W        W91079   0.277  16.569   4.176
24297W        W91080  35.251  14.249  13.286
24298W        W91081  34.425  33.902  10.278
24299W        W91082  33.069  19.812   1.221
24300W        W91083  27.567  30.006   2.215
24301W        W91084  20.397  35.842  11.953
24302W        W91085  28.698   1.959   0.489
24303W        W91086  10.771   8.228  14.538
24304W        W91087  31.631  27.334   4.122
24305W        W91088  26.454   7.580   4.113
24306W        W91089  10.079  39.541   1.364
24307W        W91090   7.147  10.801  13.526
24308W        W91091  30.475  24.779  12.375
24309W        W91092  30.293  35.299  13.906
24310W        W91093  24.247  14.575   2.292
24311W        W91094  27.028  41.741   0.083
24312W        W91095   2.627  26.480   4.661
24313W        W91096  31.725  15.874  12.906
24314W        W91097   7.259  20.228   4.358
24315W        W91098   3.140   4.157   2.939
24316W        W91099  32.261  11.139  12.080
24317W        W91100  29.282   9.844   3.142
24318W        W91101  18.040  11.204   4.109
24319W        W91102   5.030   7.151  14.767
24320W        W91103  35.120  13.332   2.557
24321W        W91104  26.145   5.195   4.617
24322W        W91105  39.763   9.250   4.198
24323W        W91106  22.518  21.952  10.031
24324W        W91107  44.292  41.241   3.722
24325W        W91108   6.734  30.373   1.599
24326W        W91109  19.721  12.059   0.830
24327W        W91110  10.965  19.910   3.604
24328W        W91111   2.220  44.899  12.913
24329W        W91112  32.225  18.550  13.038
24330W        W91113   7.747  39.579   0.886
24331W        W91114  16.932  39.470  14.931
24332W        W91115  10.664  37.589  13.017
24333W        W91116   3.067  26.045  11.404
24334W        W91117  11.971  26.290   2.407
24335W        W91118   8.192   5.741   0.284
24336W        W91119  15.167  42.838  12.227
24337W        W91120   5.958  26.297  10.934
24338W        W91121  27.111   4.299   1.535
24339W        W91122  14.252  30.544   1.959
24340W        W91123  18.166  36.063   2.843
24341W        W91124  40.404   9.003  13.552
24342W        W91125  44.314  34.608   4.585
24343W        W91126  24.121  30.465  11.265
24344W        W91127  26.080  43.943  12.671
24345W        W91128  14.657   5.917   0.903
24346W        W91129  25.654  14.090   2.145
24347W        W91130  36.022  21.155   4.639
24348W        W91131  14.548  31.015  11.292
24349W        W91132  18.037  15.756   3.950
24350W        W91133   6.394  32.982   2.888
24351W        W91134  40.826  10.397   2.117
24352W        W91135  27.048  29.714  12.877
24353W        W91136  44.431  27.337   1.240
24354W        W91137  44.271  29.075  12.656
24355W        W91138   4.929  37.101   1.403
24356W        W91139  15.628  29.518  11.693
24357W        W91140  18.149  37.590  12.477
24358W        W91141  22.222  26.051  14.442
24359W        W91142   4.891   7.491   4.152
24360W        W91143  35.877  15.567   4.223
24361W        W91144  31.193   5.308  13.957
24362W        W91145  17.567  12.147   4.573
24363W        W91146  18.256  10.677  12.521
24364W        W91147   5.624  35.093   4.229
24365W        W91148  35.149  38.788   3.593
24366W        W91149  26.029  19.854  12.807
24367W        W91150  16.215  23.509   3.717
24368W        W91151   1.712  41.826  14.577
24369W        W91152  32.853  18.056  13.541
24370W        W91153  12.121  12.254  12.955
24371W        W91154   7.066   0.438  13.892
24372W        W91155   2.435  13.874   5.047
24373W        W91156   6.739  12.147   2.836
24374W        W91157  22.874  28.565  14.386
24375W        W91158  33.096   3.468   2.507
24376W        W91159  21.492  24.576   4.565
24377W        W91160   7.924   4.946   0.254
24378W        W91161  38.508  38.757   1.407
24379W        W91162  23.613  38.794   1.705
24380W        W91163  15.986  19.084   2.913
24381W        W91164  19.653  27.371   3.834
24382W        W91165  11.250  37.273   2.881
24383W        W91166  31.128   3.810   1.551
24384W        W91167  10.830  21.645   0.678
24385W        W91168  19.282   0.396   3.352
24386W        W91169  25.522  27.008   4.905
24387W        W91170  37.176   9.159  10.270
24388W        W91171  22.523   7.911  14.767
24389W        W91172   6.950  37.884   1.460
24390W        W91173  21.621   4.712   0.369
24391W        W91174  13.835  13.356   2.166
24392W        W91175  27.770  33.465   4.558
24393W        W91176  30.121  18.356   1.233
24394W        W91177  35.447  13.340  14.860
24395W        W91178  43.161  11.272  14.865
24396W        W91179  28.032  33.644  12.242
24397W        W91180  16.675  41.407   1.821
24398W        W91181  17.563  33.123  12.554
24399W        W91182  25.481  27.900  12.938
24400W        W91183   2.863  27.653   0.317
24401W        W91184  21.905   9.068   4.487
24402W        W91185  32.882   6.827   2.324
24403W        W91186   7.163  34.959  10.728
24404W        W91187  40.881   0.363  11.564
24405W        W91188   7.284  27.515  11.610
24406W        W91189  43.980  21.503   4.524
24407W        W91190  29.519  44.724   0.061
24408W        W91191  23.245  36.581  14.953
24409W        W91192   6.652  40.997   2.275
24410W        W91193  28.017  23.667   2.737
24411W        W91194  20.307  31.545  12.985
24412W        W91195  32.791  43.490   4.095
24413W        W91196  19.430   9.338   0.775
24414W        W91197  28.188  19.554  11.146
24415W        W91198  40.026  10.260  10.482
24416W        W91199  37.110  32.924   0.472
24417W        W91200  30.901   6.774   0.825
24418W        W91201   7.997   6.208   5.055
24419W        W91202  42.434  17.851  12.417
24420W        W91203  26.222  39.778   1.792
24421W        W91204   3.367  33.562  13.451
24422W        W91205  26.688  19.991   5.082
24423W        W91206  12.610  20.546   4.664
24424W        W91207   2.255  19.991  10.847
24425W        W91208  39.341  23.289   1.930
24426W        W91209  23.031  38.452  12.893
24427W        W91210  37.924  42.905   3.984
24428W        W91211   9.321   8.134   0.486
24429W        W91212  22.210  10.313   4.361
24430W        W91213  40.827  18.582  12.443
24431W        W91214  11.542  20.583   0.062
24432W        W91215  24.016  28.671   2.306
24433W        W91216  43.490  27.782   3.539
24434W        W91217   7.330  17.705   3.504
24435W        W91218  19.474   5.985   1.381
24436W        W91219  28.344  28.925   5.156
24437W        W91220   4.929  30.464  12.951
24438W        W91221  26.261   4.822  14.550
24439W        W91222  35.473  15.690   0.976
24440W        W91223  27.716  12.556  13.021
24441W        W91224  31.588  17.119   4.498
24442W        W91225  42.825  25.209  11.090
24443W        W91226  42.817   4.336   2.479
24444W        W91227  40.457  44.491   2.354
24445W        W91228  39.358  25.554  14.261
24446W        W91229  34.518   6.385  12.935
24447W        W91230  25.301  17.792  12.123
24448W        W91231  41.033  44.186  12.039
24449W        W91232  33.554  16.868   1.904
24450W        W91233  27.191   4.651   0.450
24451W        W91234   9.570  41.605   3.932
24452W        W91235  11.242  26.646  11.745
24453W        W91236  23.733  18.852  12.572
24454W        W91237  25.858  21.601  11.896
24455W        W91238   6.604  32.423  14.847
24456W        W91239   8.616  13.039   4.284
24457W        W91240  39.259  13.908   3.165
24458W        W91241  32.144   6.680   1.466
24459W        W91242  18.554  41.533   3.155
24460W        W91243  34.242   1.656  12.180
24461W        W91244  40.810  40.292  12.007
24462W        W91245  32.038   9.621  10.942
24463W        W91246  37.305  22.167   3.256
24464W        W91247  12.039  31.079  14.425
24465W        W91248  31.543  17.945   1.148
24466W        W91249  31.390   1.367  12.055
24467W        W91250   8.439  23.627   1.428
24468W        W91251  37.453   5.244  11.845
24469W        W91252  28.848   3.127   0.817
24470W        W91253  41.310  25.511   4.503
24471W        W91254  24.747  29.244   4.190
24472W        W91255   2.637  15.663   1.909
24473W        W91256   8.566  22.172   3.893
24474W        W91257   8.765   7.066   4.137
24475W        W91258  27.120  23.540   0.705
24476W        W91259  30.505  28.087   0.367
24477W        W91260  41.346  11.445  10.702
24478W        W91261  19.352   2.957  14.938
24479W        W91262  42.634  13.535  11.479
24480W        W91263  14.593  28.068  14.289
24481W        W91264  44.301  15.676   3.322
24482W        W91265  42.542  17.527   4.637
24483W        W91266  29.932  35.851  11.710
24484W        W91267  43.312   4.652   0.442
24485W        W91268  21.349  33.389   0.654
24486W        W91269  22.613  16.040  14.925
24487W        W91270  15.908  29.392   0.303
24488W        W91271   2.677  25.108  11.697
24489W        W91272   7.277  32.996   1.930
24490W        W91273   4.349  42.702  13.996
24491W        W91274  31.526  30.622   5.034
24492W        W91275  31.038  37.463  13.186
24493W        W91276  10.188   8.599   1.460
24494W        W91277  23.499  43.869  10.708
24495W        W91278  11.709   5.131  14.984
24496W        W91279  29.500  29.343  10.731
24497W        W91280  39.823  43.681   3.966
24498W        W91281  37.001   5.760  13.371
24499W        W91282  26.996  21.572  12.021
24500W        W91283  34.127  12.169  14.092
24501W        W91284   2.335   9.861  11.590
24502W        W91285  38.742  25.845   0.767
24503W        W91286  33.366   9.865  10.754
24504W        W91287  28.616  14.016   0.923
24505W        W91288  15.639  17.583   3.119
24506W        W91289  20.322  12.631   3.728
24507W        W91290  18.303   2.395   2.383
24508W        W91291  21.668  17.805  11.976
24509W        W91292   1.740  43.851  14.968
24510W        W91293  35.007   8.087   0.878
24511W        W91294   3.757  26.167   1.653
24512W        W91295  19.726   3.774   0.216
24513W        W91296  11.577  34.327  12.534
24514W        W91297  12.323  16.420  11.625
24515W        W91298   0.866  14.215   3.843
24516W        W91299  31.824   4.982  12.523
24517W        W91300   4.390  40.516  11.936
24518W        W91301  44.502  19.219   3.669
24519W        W91302  23.950  12.161   2.463
24520W        W91303  22.256  16.560   4.841
24521W        W91304  36.262   3.410  10.782
24522W        W91305   7.728  28.612  13.284
24523W        W91306  43.019  43.073  12.606
24524W        W91307  41.913   0.917   4.890
24525W        W91308  20.912   4.222   4.030
24526W        W91309   1.924  11.243  11.355
24527W        W91310  12.814  36.099  13.053
24528W        W91311   3.480  29.820   2.325
24529W        W91312  32.358  14.224  11.312
24530W        W91313   2.712  10.322   2.801
24531W        W91314   8.197  41.221   2.506
24532W        W91315  43.494  40.909  12.990
24533W        W91316  13.188   0.525   2.429
24534W        W91317  30.495   0.143   2.786
24535W        W91318  39.307  35.593  11.129
24536W        W91319  18.189   5.009   4.248
24537W        W91320  44.070  15.089  11.203
24538W        W91321  34.487  16.140  13.645
24539W        W91322  31.933  33.014   0.733
24540W        W91323  44.257  12.503   0.452
24541W        W91324  14.797  37.145  13.898
24542W        W91325  15.067  17.982   4.885
24543W        W91326  37.597  14.314   2.339
24544W        W91327  24.356  44.006   3.753
24545W        W91328   1.376  17.192   2.812
24546W        W91329  20.956  21.549  13.954
24547W        W91330  27.549   4.824   1.325
24548W        W91331  13.038   1.870  14.595
24549W        W91332  39.989  22.189   1.259
24550W        W91333   7.938  36.264   2.747
24551W        W91334  18.902  22.757   0.247
24552W        W91335  28.235  41.359  10.308
24553W        W91336  25.676  14.856  12.048
24554W        W91337  25.133  12.438  13.000
24555W        W91338   9.270   3.762   1.886
24556W        W91339   6.142  12.745   0.973
24557W        W91340  30.557  29.971  10.803
24558W        W91341   4.343  26.062  14.957
24559W        W91342  17.343  16.447   4.095
24560W        W91343  24.427  29.036  13.336
24561W        W91344  32.077  18.962   1.412
24562W        W91345  24.168  43.954  11.501
24563W        W91346  10.393   5.162  10.705
24564W        W91347  17.619  25.457  14.801
24565W        W91348   5.311  17.772  14.906
24566W        W91349  15.544  27.719  11.085
24567W        W91350  41.453  17.037   4.317
24568W        W91351  18.765  21.703  12.745
24569W        W91352  31.969  24.616  14.983
24570W        W91353  33.617  18.265   2.708
24571W        W91354  30.556  37.458  12.988
24572W        W91355  18.594   8.079   3.979
24573W        W91356  21.496  43.416   3.687
24574W        W91357   7.350   6.120  11.714
24575W        W91358  12.198  28.665   0.300
24576W        W91359  23.171   6.727  13.339
24577W        W91360  22.374  36.159   1.255
24578W        W91361  17.096  31.076   1.322
24579W        W91362  12.031   6.262   0.318
24580W        W91363  14.825  15.597   4.583
24581W        W91364   9.828  35.475   3.676
24582W        W91365  19.287   0.733   1.684
24583W        W91366   6.190  41.071  12.057
24584W        W91367  30.008  29.823  13.988
24585W        W91368  43.295  31.077  10.776
24586W        W91369  40.405  20.674  10.553
24587W        W91370  33.932   9.153  12.744
24588W        W91371   9.261  10.565  10.636
24589W        W91372   2.117  41.898   2.665
24590W        W91373  30.513   2.333   3.551
24591W        W91374  35.606  43.404  14.924
24592W        W91375  35.794   7.930   1.789
24593W        W91376   5.388   8.096   0.382
24594W        W91377  16.623  25.361   1.883
24595W        W91378  21.274  44.089   1.719
24596W        W91379   5.754  25.117  11.896
24597W        W91380   4.742  26.438   4.628
24598W        W91381  17.303  34.620   1.388
24599W        W91382  42.862  35.901   4.194
24600W        W91383  30.947  33.378   4.169
24601W        W91384  24.276  33.655   0.578
24602W        W91385  39.968  24.469  14.015
24603W        W91386   3.847  32.948   4.749
24604W        W91387  25.514  32.865   1.282
24605W        W91388  32.661  23.611   4.964
24606W        W91389  17.263  29.502   2.156
24607W        W91390  22.090  40.841   2.479
24608W        W91391  26.935   1.108  14.350
24609W        W91392   3.388  35.974  10.744
24610W        W91393  42.206  41.755  13.679
24611W        W91394   8.394   2.498  14.380
24612W        W91395  10.603  37.325   1.386
24613W        W91396   8.627  10.483   4.762
24614W        W91397  21.050  11.872  12.484
24615W        W91398   9.113  22.892   1.251
24616W        W91399  20.477   0.542   4.666
24617W        W91400  31.079  31.969   4.628
24618W        W91401   1.046  41.567   1.751
24619W        W91402  29.259  24.019  10.271
24620W        W91403   3.408  20.254  11.041
24621W        W91404   9.278  16.058  14.818
24622W        W91405  18.247   2.221   0.740
24623W        W91406   0.243  26.601  10.125
24624W        W91407  34.840  12.222  12.736
24625W        W91408  27.359  30.716  11.495
24626W        W91409  17.013  18.207  12.618
24627W        W91410  16.466  27.115  13.819
24628W        W91411  10.802  10.165  13.326
24629W        W91412  18.791  28.417   1.470
24630W        W91413  10.663   3.659  12.425
24631W        W91414  37.325  19.697   2.866
24632W        W91415  16.529  33.475   1.282
24633W        W91416  44.571  10.821  11.984
24634W        W91417  19.017  28.183  12.499
24635W        W91418  17.532  30.779  11.752
24636W        W91419   4.255  29.367   2.714
24637W        W91420  33.748  42.105   2.405
24638W        W91421   6.608  27.985  10.621
24639W        W91422   0.549  32.549  12.496
24640W        W91423  37.697  27.674   2.821
24641W        W91424  33.457  31.783   4.632
24642W        W91425   3.900   8.161  11.544
24643W        W91426  14.796   4.845   4.577
24644W        W91427   8.440  43.369  14.033
24645W        W91428  38.864  30.071  13.755
24646W        W91429  23.215  12.821  10.734
24647W        W91430  37.381  39.914   1.648
24648W        W91431  24.882  20.297  14.009
24649W        W91432   1.499  22.765   4.521
24650W        W91433  34.362  39.345   0.871
24651W        W91434  22.710   1.244   2.915
24652W        W91435  43.423  23.441  11.476
24653W        W91436   7.372   4.185   0.165
24654W        W91437  32.366  10.865  10.587
24655W        W91438   8.636  15.330  14.952
24656W        W91439  29.389  16.673   4.133
24657W        W91440  15.646  34.635  14.549
24658W        W91441   3.607  41.875  14.641
24659W        W91442   2.869  21.178  13.837
24660W        W91443  32.126  11.219  10.270
24661W        W91444  31.936   0.843  12.947
24662W        W91445   0.782  41.661  10.890
24663W        W91446  24.102  31.177   2.842
24664W        W91447  10.843  16.849  14.696
24665W        W91448  31.259   8.386   5.549
24666W        W91449  14.774  10.218   0.040
24667W        W91450  40.510  40.364  13.047
24668W        W91451  28.948  21.104   3.652
24669W        W91452  17.661   0.209  12.163
24670W        W91453   4.671  39.817  14.270
24671W        W91454   9.744  39.439  11.716
24672W        W91455  29.957   6.143   0.829
24673W        W91456   2.283  18.875   4.222
24674W        W91457  12.036  12.688  11.062
24675W        W91458  17.026  43.459   3.242
24676W        W91459  27.475  44.117   1.830
24677W        W91460  43.571  23.968  14.575
24678W        W91461  37.953   8.210  13.806
24679W        W91462  38.764   3.871   2.247
24680W        W91463  21.081  12.981  13.422
24681W        W91464   9.401  20.120  11.551
24682W        W91465  10.894   6.344   0.067
24683W        W91466  23.003  17.041  13.556
24684W        W91467  28.914  36.995   1.521
24685W        W91468  31.892  40.282  12.474
24686W        W91469  32.038  17.352  11.502
24687W        W91470  22.284  21.800   3.553
24688W        W91471  24.508  32.684  12.621
24689W        W91472  25.504  12.797   0.510
24690W        W91473  12.545  38.517   0.152
24691W        W91474   9.273  14.628  12.992
24692W        W91475  21.459   6.470  12.532
24693W        W91476  31.368  15.332  11.612
24694W        W91477  14.728   7.620  14.016
24695W        W91478  32.205  44.096  10.878
24696W        W91479   2.780  26.005  12.385
24697W        W91480  36.374  37.885   3.134
24698W        W91481  31.907  42.445   3.589
24699W        W91482  44.389  36.683   4.613
24700W        W91483  10.932   8.418  12.614
24701W        W91484  32.520  14.123  14.483
24702W        W91485   0.085  10.175  11.549
24703W        W91486  42.568  10.181  11.641
24704W        W91487  14.677  29.142   1.420
24705W        W91488  26.503  16.481  10.782
24706W        W91489   4.922  11.768  10.879
24707W        W91490   6.709  29.171   3.173
24708W        W91491  11.053  10.454   0.120
24709W        W91492   4.598  41.871  11.796
24710W        W91493   8.201  37.553  12.121
24711W        W91494   8.815  11.219  12.766
24712W        W91495  25.658   1.414  13.853
24713W        W91496  28.151   5.653   2.172
24714W        W91497  26.897  43.574   4.184
24715W        W91498  30.504  16.323   1.287
24716W        W91499  20.779  41.244  13.560
24717W        W91500  32.477  39.971   0.455
24718W        W91501  11.337  15.672   1.454
24719W        W91502  33.096  20.188   3.131
24720W        W91503   8.909  39.400   4.070
24721W        W91504  37.878  24.723   3.091
24722W        W91505   7.092   0.296  12.765
24723W        W91506  26.872  27.772  14.931
24724W        W91507   0.931  24.928   9.986
24725W        W91508  23.237  27.515   2.664
24726W        W91509  23.119   8.592   2.814
24727W        W91510  35.229  40.487   4.811
24728W        W91511  42.312  19.290   2.149
24729W        W91512  35.367  13.718  11.030
24730W        W91513  10.666  34.482   1.188
24731W        W91514  40.957  14.756   3.313
24732W        W91515  15.018  12.597   4.143
24733W        W91516  34.029  23.119  13.593
24734W        W91517  24.417  43.498  12.833
24735W        W91518  35.407  17.549   0.015
24736W        W91519  38.139  23.042  10.735
24737W        W91520  25.676  31.025   1.163
24738W        W91521  30.056  19.191  14.369
24739W        W91522  43.307   0.250   1.552
24740W        W91523  20.653  24.693   2.779
24741W        W91524  37.331  26.757   3.727
24742W        W91525  21.415  38.354   2.174
24743W        W91526  20.847  33.140   2.409
24744W        W91527  21.449  43.487   2.780
24745W        W91528  27.104  38.309   2.773
24746W        W91529  31.850  23.196   0.043
24747W        W91530  31.145  27.319   0.614
24748W        W91531  33.102   4.090  12.435
24749W        W91532  11.711  29.895  11.578
24750W        W91533   4.760  40.485  11.053
24751W        W91534   7.219  30.201   1.666
24752W        W91535  44.694  29.087  13.107
24753W        W91536  20.047  41.504  14.594
24754W        W91537   0.216  43.259  10.468
24755W        W91538   4.138   8.380  13.961
24756W        W91539   0.301  23.488   3.558
24757W        W91540  43.395  22.089  10.562
24758W        W91541  32.050  20.966  12.385
24759W        W91542  25.562   4.757   0.304
24760W        W91543  23.814   0.015   2.812
24761W        W91544  16.323  41.946   3.158
24762W        W91545  44.994  16.013  14.390
24763W        W91546  22.692  37.972  13.684
24764W        W91547  44.277   4.448  12.893
24765W        W91548  22.745   4.706   5.241
24766W        W91549  38.652  25.547  14.770
24767W        W91550  27.502  34.592  14.967
24768W        W91551  39.977  24.769  13.013
24769W        W91552  23.013  21.675  14.223
24770W        W91553  23.815  27.579  14.407
24771W        W91554  22.156  14.877  11.520
24772W        W91555  43.621  20.640  11.157
24773W        W91556  31.153  24.497  13.428
24774W        W91557  30.149   8.825  12.099
24775W        W91558  18.163   8.358   2.755
24776W        W91559  20.002   2.725  13.383
24777W        W91560  32.413  27.971   4.148
24778W        W91561  35.533  17.541  11.173
24779W        W91562  11.392  32.502  12.644
24780W        W91563  16.381   6.136  10.897
24781W        W91564  42.865  15.643  12.572
24782W        W91565  12.714  18.327  11.591
24783W        W91566  12.705   4.259   1.960
24784W        W91567  22.804  19.583   4.217
24785W        W91568  25.277  28.542   5.517
24786W        W91569  19.549   3.429  14.807
24787W        W91570   6.344  31.429  13.153
24788W        W91571  44.851  41.665   1.832
24789W        W91572   9.307  41.351  14.943
24790W        W91573   2.161  13.877  10.279
24791W        W91574  19.497  15.575   1.686
24792W        W91575  40.084   4.224  10.785
24793W        W91576  35.453  40.363   3.891
24794W        W91577   2.713   2.807  12.535
24795W        W91578   1.298  27.568  14.781
24796W        W91579  28.829  44.908   0.921
24797W        W91580  16.214  41.147   1.776
24798W        W91581  27.491  20.783  10.736
24799W        W91582  41.343  12.672  14.353
24800W        W91583  31.960  13.882  13.449
24801W        W91584   3.512   8.850   1.948
24802W        W91585  40.360  33.841  14.449
24803W        W91586  29.840  12.539  13.716
24804W        W91587   6.619  30.615  13.876
24805W        W91588  20.538  15.594  14.021
24806W        W91589   9.280   6.006  12.046
24807W        W91590   1.998  10.224  12.906
24808W        W91591  27.439   0.874   3.208
24809W        W91592  13.176  12.196  13.387
24810W        W91593  10.328   6.166  11.557
24811W        W91594  41.472  12.191  14.538
24812W        W91595   9.677  42.408   4.477
24813W        W91596  10.700  34.963  10.756
24814W        W91597  44.898   9.938   1.706
24815W        W91598  21.405  26.589   4.491
24816W        W91599  13.782  11.674  14.802
24817W        W91600  10.551   3.237  12.843
24818W        W91601  21.777   4.339   1.513
24819W        W91602  17.163  17.198  12.205
24820W        W91603  17.482  32.200  14.948
24821W        W91604  42.321  18.582  11.468
24822W        W91605  10.344  34.889   3.130
24823W        W91606  16.073  44.849   2.887
24824W        W91607  37.834   3.965   2.275
24825W        W91608  26.199  10.122  11.529
24826W        W91609  30.452   7.667   3.790
24827W        W91610  42.384  25.469   3.779
24828W        W91611   9.741  17.303  12.866
24829W        W91612  25.521  21.801   0.902
24830W        W91613  11.697  14.350  10.836
24831W        W91614  17.696  13.451  14.582
24832W        W91615   3.575   3.219  13.357
24833W        W91616  22.001  30.122  11.531
24834W        W91617  22.138  38.950  14.868
24835W        W91618  10.362  20.488  13.924
24836W        W91619   2.525  43.779  12.462
24837W        W91620   6.634   5.776  12.152
24838W        W91621  41.162  34.466  13.784
24839W        W91622  14.959  18.591   3.696
24840W        W91623  33.397  14.601   4.712
24841W        W91624  32.525  13.184  11.233
24842W        W91625  30.700  32.943  14.508
24843W        W91626  43.759  30.463  13.956
24844W        W91627  39.601  29.494  12.365
24845W        W91628   2.777   0.821   2.146
24846W        W91629  25.247  12.628   1.623
24847W        W91630  26.312   6.387   0.185
24848W        W91631  20.000  21.595   4.517
24849W        W91632   1.573  43.721   3.116
24850W        W91633  24.467   2.469  11.274
24851W        W91634  29.594   9.784   4.033
24852W        W91635  26.383  24.586   2.402
24853W        W91636  16.803   5.414  13.572
24854W        W91637  15.668   1.455  13.009
24855W        W91638  14.746  23.192  11.596
24856W        W91639  10.264  13.135   1.161
24857W        W91640  27.588  33.297  13.955
24858W        W91641   9.806  37.694  10.282
24859W        W91642  22.735   1.993  10.035
24860W        W91643  27.210  28.081   0.904
24861W        W91644  32.691  12.747   4.122
24862W        W91645  26.410  17.731   2.212
24863W        W91646  25.337  34.060  13.649
24864W        W91647  40.983   6.082   0.654
24865W        W91648  24.666   5.932   4.176
24866W        W91649  38.023   1.961  14.795
24867W        W91650  30.383  33.896  11.238
24868W        W91651  36.370  27.277   4.990
24869W        W91652   4.941  43.704  12.716
24870W        W91653  40.953   3.887   3.586
24871W        W91654  10.450  27.503  11.643
24872W        W91655   1.264  37.106   2.172
24873W        W91656  21.629  37.417   2.859
24874W        W91657  43.212  40.294  12.007
24875W        W91658   1.241  38.168   2.768
24876W        W91659  13.949  27.663   2.835
24877W        W91660   3.558  36.013   5.037
24878W        W91661  10.627  23.127   0.777
24879W        W91662  14.756   5.966  14.874
24880W        W91663  26.031  20.016  12.309
24881W        W91664  29.908  23.595   4.643
24882W        W91665  44.076  18.215   0.529
24883W        W91666  15.517  29.649  13.428
24884W        W91667   1.827   2.504  12.208
24885W        W91668   9.674  12.940  10.720
24886W        W91669  33.819  13.760  12.233
24887W        W91670  20.120  13.094  14.397
24888W        W91671  12.439  39.529   1.984
24889W        W91672  38.279  28.687  10.634
24890W        W91673  17.980   5.332  14.817
24891W        W91674  31.090  43.125   1.437
24892W        W91675  18.733   3.807  14.324
24893W        W91676  16.629  42.403   0.284
24894W        W91677  29.107  11.549  12.556
24895W        W91678  32.318  31.270   2.662
24896W        W91679  29.616  40.304   4.053
24897W        W91680  31.894  15.966   1.585
24898W        W91681  27.761   5.690   1.827
24899W        W91682   5.205  28.152   1.226
24900W        W91683  10.327   5.952  12.861
24901W        W91684  16.000  23.540  11.153
24902W        W91685  37.288  19.366  12.798
24903W        W91686  15.550  34.888   4.929
24904W        W91687  27.594   9.771   2.779
24905W        W91688  34.888  33.058   4.279
24906W        W91689   8.893  32.570   2.325
24907W        W91690  39.018  17.908   5.274
24908W        W91691  16.515  17.758   3.608
24909W        W91692  40.342  19.190   4.896
24910W        W91693  24.180  20.066  12.465
24911W        W91694   0.725   1.224  11.331
24912W        W91695  27.492   2.329   1.205
24913W        W91696  32.857  44.356   1.432
24914W        W91697  13.578  21.566  10.556
24915W        W91698   2.893  25.187   1.138
24916W        W91699  38.074  25.084  14.132
24917W        W91700   8.809  26.163  14.064
24918W        W91701  28.447  19.951   3.314
24919W        W91702  27.485  19.422  13.058
24920W        W91703  28.584  13.504  13.962
24921W        W91704  31.388  33.207  13.919
24922W        W91705  43.996  18.761   2.349
24923W        W91706  22.275  34.119  14.047
24924W        W91707  31.675   9.651   4.074
24925W        W91708   0.683  20.042  12.642
24926W        W91709  34.084  35.896   4.292
24927W        W91710  28.987  33.144   0.485
24928W        W91711   0.122  28.077  13.904
24929W        W91712  20.609   3.051  11.086
24930W        W91713  13.164  23.770  13.319
24931W        W91714  44.058   2.880   3.155
24932W        W91715  20.130  23.437   0.300
24933W        W91716  11.870  32.043  11.704
24934W        W91717   5.389  12.616  11.223
24935W        W91718  34.907  34.157  10.291
24936W        W91719   8.905  31.968   4.564
24937W        W91720  32.621  28.017  11.484
24938W        W91721   2.793  37.310   3.112
24939W        W91722  37.935  21.052   1.442
24940W        W91723  39.327  12.670   0.826
24941W        W91724   2.648   0.797   4.471
24942W        W91725  21.325  30.228   3.832
24943W        W91726  23.703   9.671  10.997
24944W        W91727  40.409   4.877   1.842
24945W        W91728  17.274  28.361  13.926
24946W        W91729   1.702  10.674   1.847
24947W        W91730  43.091  42.722  11.098
24948W        W91731   7.879   7.363   3.248
24949W        W91732  43.954   0.209   2.732
24950W        W91733  37.842  31.876  10.450
24951W        W91734   5.382  28.021   4.241
24952W        W91735  36.581  37.484   1.426
24953W        W91736  10.838  20.975   3.748
24954W        W91737  18.707  18.605  13.544
24955W        W91738  34.715  26.466   0.676
24956W        W91739  17.514  32.989   0.444
24957W        W91740  40.803   6.292  11.176
24958W        W91741  20.785   9.698  14.708
24959W        W91742  42.866  22.639  11.729
24960W        W91743  10.655  25.489  12.973
24961W        W91744  25.162   4.898   4.561
24962W        W91745  10.372  28.303  11.254
24963W        W91746  39.373  35.833  11.587
24964W        W91747  21.310   2.464  13.398
24965W        W91748  16.333  41.189  13.372
24966W        W91749  24.676  35.827   3.237
24967W        W91750  36.161   6.224   0.989
24968W        W91751   3.318  31.296  13.017
24969W        W91752   9.151  12.563   1.803
24970W        W91753  11.096  30.000   3.868
24971W        W91754  34.936  15.634  14.255
24972W        W91755  22.208  20.469   0.183
24973W        W91756  38.957  40.028  10.923
24974W        W91757  15.329   9.689  12.975
24975W        W91758  13.701   3.845   1.829
24976W        W91759   8.614  18.585  12.150
24977W        W91760  18.136   8.556  14.882
24978W        W91761  24.490  15.532  11.232
24979W        W91762  36.599  27.989   3.662
24980W        W91763  15.618   0.380   1.258
24981W        W91764  13.319  32.182  13.026
24982W        W91765  35.934  38.803  13.336
24983W        W91766   4.419  38.410   0.002
24984W        W91767  28.332  29.562   1.719
24985W        W91768   9.554  17.831  12.869
24986W        W91769   5.332  11.230  10.505
24987W        W91770   9.534  21.332  12.049
24988W        W91771  16.624  28.501   0.031
24989W        W91772  12.301  44.898   0.330
24990W        W91773  32.627  25.518   2.724
24991W        W91774  36.781  17.709   1.364
24992W        W91775  31.568  34.078  13.616
24993W        W91776  11.808   4.761   2.786
24994W        W91777  21.999  12.922   0.802
24995W        W91778  34.999  24.484  10.719
24996W        W91779  36.778  18.130   4.042
24997W        W91780  33.029  16.712  10.582
24998W        W91781  30.951  41.321   1.716
24999W        W91782  29.557  18.798   0.860
25000W        W91783  12.869  29.827  12.580
25001W        W91784  36.229  40.356  11.607
25002W        W91785  33.020  22.654  11.578
25003W        W91786  44.275  32.861   1.486
25004W        W91787  42.034  21.718  11.623
25005W        W91788  41.413   1.284   1.435
25006W        W91789  15.526   6.217   2.394
25007W        W91790   8.328   3.531   1.913
25008W        W91791   4.711  19.739  14.462
25009W        W91792  28.586  27.582  13.805
25010W        W91793  43.255   8.574   1.151
25011W        W91794   3.956   4.442   3.216
25012W        W91795  19.217  30.903   2.439
25013W        W91796  36.956  22.062  14.236
25014W        W91797   5.746   1.434  14.065
25015W        W91798  44.967  29.937  14.901
25016W        W91799  27.716  16.781   0.971
25017W        W91800   3.911  36.104   4.681
25018W        W91801  29.940  40.364  10.177
25019W        W91802  30.712   6.160   4.879
25020W        W91803  24.624  42.364   0.502
25021W        W91804  10.752  37.016   4.479
25022W        W91805  20.297  12.595  10.300
25023W        W91806  13.355  33.921  13.019
25024W        W91807  20.544  22.688  14.817
25025W        W91808  23.973  41.214   0.893
25026W        W91809  13.897  34.678   0.774
25027W        W91810  37.840  39.009  10.731
25028W        W91811  37.773  36.005   4.338
25029W        W91812  18.133  39.796   3.174
25030W        W91813  31.015  12.317  14.413
25031W        W91814  15.070   3.739   1.149
25032W        W91815  29.515  29.054  13.947
25033W        W91816  30.566   0.268   1.760
25034W        W91817  33.178  32.940  11.196
25035W        W91818  33.367  10.753  10.620
25036W        W91819   9.910  22.624  10.757
25037W        W91820   6.829  33.430   0.031
25038W        W91821   9.836  41.014   2.655
25039W        W91822  41.290  39.880   4.522
25040W        W91823   5.774  10.283  14.339
25041W        W91824   0.006   8.677   1.151
25042W        W91825   7.997  38.585  14.939
25043W        W91826  20.017  31.363  10.751
25044W        W91827  22.417  11.202   4.284
25045W        W91828  42.019  39.456   1.295
25046W        W91829  23.656  26.721  12.391
25047W        W91830  26.045  16.708  10.707
25048W        W91831  44.472   9.837   1.431
25049W        W91832  39.812   6.722  12.947
25050W        W91833  17.371  18.207  13.447
25051W        W91834  11.092  14.294  14.470
25052W        W91835  19.460   4.879   4.884
25053W        W91836   1.367   7.343   1.245
25054W        W91837  15.551  16.033   4.230
25055W        W91838  20.709   8.269  14.788
25056W        W91839  13.223  29.028  11.063
25057W        W91840  22.319  30.918  13.871
25058W        W91841   6.480  18.775  12.903
25059W        W91842  32.397   9.844   0.527
25060W        W91843  11.154  44.303   3.169
25061W        W91844  19.741  23.167   4.416
25062W        W91845   6.876  12.282   0.431
25063W        W91846   5.974   0.691   0.616
25064W        W91847  32.070  37.027   1.926
25065W        W91848  10.438  27.983   4.125
25066W        W91849  27.726  17.131  12.570
25067W        W91850  30.851  21.638  12.928
25068W        W91851  30.630   0.898   2.220
25069W        W91852   9.082  18.938   4.449
25070W        W91853  21.019   3.761   1.395
25071W        W91854   6.737  21.693   3.147
25072W        W91855  12.135  36.051  10.648
25073W        W91856  17.193  39.007   3.661
25074W        W91857  23.022  40.471   3.325
25075W        W91858  43.000  24.632  14.029
25076W        W91859  34.861   6.448  13.301
25077W        W91860  43.394  27.979  12.331
25078W        W91861  25.733  14.531  11.219
25079W        W91862  33.447  28.402  10.235
25080W        W91863  35.780  20.329   0.732
25081W        W91864  13.280  20.726  10.446
25082W        W91865   5.473  32.099  13.297
25083W        W91866  13.866   0.903  14.886
25084W        W91867   6.396  37.102  14.506
25085W        W91868  20.846   8.277  10.727
25086W        W91869   0.196   0.865   1.232
25087W        W91870   0.462  39.452   1.962
25088W        W91871   6.348  36.102   4.807
25089W        W91872  37.982  32.630   4.369
25090W        W91873   5.144   1.753   1.675
25091W        W91874  24.675  23.294   2.336
25092W        W91875  12.709  41.959  12.037
25093W        W91876  37.284  33.322  11.114
25094W        W91877  26.970  36.125   0.985
25095W        W91878  19.433  40.474   2.293
25096W        W91879  21.267  31.639   3.651
25097W        W91880  19.731  31.112   0.704
25098W        W91881  13.189   7.463  11.985
25099W        W91882  27.460  16.150   0.360
25100W        W91883  27.209  19.713  12.023
25101W        W91884   4.251  13.560  12.892
25102W        W91885  25.765   9.172   0.104
25103W        W91886  33.455  44.031   3.650
25104W        W91887   6.769  14.350  13.418
25105W        W91888  24.633  18.266   3.928
25106W        W91889  11.749  30.628   3.913
25107W        W91890  18.259  36.528   1.816
25108W        W91891   3.711  18.994  14.350
25109W        W91892  22.156  14.214   2.854
25110W        W91893  14.851   6.831  12.195
25111W        W91894  32.712  26.973  13.525
25112W        W91895  20.108  14.461  11.186
25113W        W91896  33.942  26.190   1.048
25114W        W91897  11.615  40.036  12.801
25115W        W91898  37.470  39.873  10.771
25116W        W91899  11.357  33.362   3.904
25117W        W91900  35.917  10.141   0.388
25118W        W91901  34.373  37.722  11.985
25119W        W91902  26.415  29.232  14.297
25120W        W91903  23.469  43.105   0.494
25121W        W91904  30.723  35.822   1.884
25122W        W91905   8.474  26.352  11.444
25123W        W91906  42.810   1.363   2.200
25124W        W91907   1.726  18.632   0.686
25125W        W91908  40.272  31.874  12.078
25126W        W91909  32.793   7.986  11.187
25127W        W91910  22.705  17.734   4.902
25128W        W91911  43.787  35.831   0.119
25129W        W91912   0.319  42.269  13.886
25130W        W91913   9.886  16.767  13.972
25131W        W91914   8.385  30.869  13.606
25132W        W91915  38.830  13.601   3.093
25133W        W91916  41.899  11.367   2.668
25134W        W91917  32.767  36.782  12.528
25135W        W91918  43.778  24.473  13.389
25136W        W91919  43.072   2.266  13.816
25137W        W91920   5.329  22.244   0.826
25138W        W91921  11.289  37.594  12.604
25139W        W91922  19.418  35.737   4.525
25140W        W91923  40.899  38.795   1.123
25141W        W91924  10.589  12.162   4.907
25142W        W91925  29.008  41.603  14.503
25143W        W91926  12.820   9.870   2.281
25144W        W91927  25.540   4.585   4.367
25145W        W91928  10.023  22.788  11.636
25146W        W91929  33.956   9.398   1.134
25147W        W91930   6.882  41.624  13.013
25148W        W91931  37.546  12.804  11.621
25149W        W91932  17.492   0.373   2.680
25150W        W91933  12.660  14.654  10.596
25151W        W91934  28.625  34.582  11.986
25152W        W91935  25.534   1.552  10.694
25153W        W91936  40.213  20.236  12.182
25154W        W91937  42.721   6.500   4.512
25155W        W91938  15.399  29.020  12.492
25156W        W91939  36.314  19.799  13.387
25157W        W91940  21.078  25.663  11.661
25158W        W91941  28.113  42.460  12.991
25159W        W91942  11.642   1.986   3.013
25160W        W91943  36.387  40.706  12.597
25161W        W91944  13.295  34.223  12.041
25162W        W91945   4.462   4.036  13.677
25163W        W91946  39.120  27.615  10.300
25164W        W91947  21.684  44.809  14.237
25165W        W91948  27.544  38.065   2.600
25166W        W91949   8.276  15.361   3.877
25167W        W91950  26.001   5.956  11.797
25168W        W91951  38.629  14.190  13.876
25169W        W91952  11.604  38.542  13.333
25170W        W91953   7.283  12.862   2.221
25171W        W91954   7.302   8.440  12.025
25172W        W91955  22.316   2.435  13.473
25173W        W91956  42.005   1.985   3.631
25174W        W91957  22.599   9.883   1.859
25175W        W91958  26.924  16.729   3.709
25176W        W91959  20.030  21.564   3.711
25177W        W91960  28.195   2.819   0.313
25178W        W91961   0.918  34.957  13.823
25179W        W91962  25.502  26.275   0.023
25180W        W91963  22.124  26.433   4.087
25181W        W91964  27.008   1.894  13.671
25182W        W91965   0.647  10.799  11.211
25183W        W91966  16.129  32.348  14.942
25184W        W91967   4.155  29.016   0.010
25185W        W91968  16.729   0.775   3.030
25186W        W91969  18.361  16.538   2.572
25187W        W91970   5.937  12.860  14.367
25188W        W91971  36.734  13.152  13.397
25189W        W91972   5.319   4.665   0.861
25190W        W91973   2.215   4.191  13.055
25191W        W91974  24.573  17.904   4.803
25192W        W91975  11.515   1.618   3.806
25193W        W91976  13.175  31.839   2.305
25194W        W91977   3.723  33.506   4.708
25195W        W91978  13.748   2.794   3.401
25196W        W91979  32.324  36.020  10.380
25197W        W91980  26.162   2.264  11.387
25198W        W91981   6.299  25.994   2.318
25199W        W91982  19.636  15.107   1.574
25200W        W91983  13.281  32.741  12.989
25201W        W91984   4.500  16.730  11.441
25202W        W91985  33.930  24.120   1.815
25203W        W91986   2.005  34.605  12.428
25204W        W91987  23.264  28.505   3.662
25205W        W91988  27.549  29.118  12.394
25206W        W91989   8.383   9.852  12.852
25207W        W91990  38.822  28.492  14.814
25208W        W91991  44.066  12.906   4.434
25209W        W91992  32.687  35.589  13.809
25210W        W91993  11.264  37.585  11.588
25211W        W91994  36.377  39.995  13.014
25212W        W91995  14.429  20.616  13.315
25213W        W91996  37.813   8.689  13.967
25214W        W91997   3.992  20.728  11.371
25215W        W91998   0.720  12.809   0.390
25216W        W91999  38.544  43.075  12.046
25217W        W92000  20.330  37.934  13.364
25218W        W92001  24.244   9.730   2.794
25219W        W92002  31.153  18.690   1.432
25220W        W92003   8.792   1.423  11.616
25221W        W92004  39.991  25.168  11.589
25222W        W92005  35.953  27.464   4.472
25223W        W92006  19.262   1.214  11.182
25224W        W92007   0.620  10.697   0.774
25225W        W92008  23.765  14.685   2.440
25226W        W92009   7.216  24.512  12.883
25227W        W92010   8.703  34.709   3.371
25228W        W92011   8.362  34.383   4.542
25229W        W92012  30.818   9.564  12.185
25230W        W92013  13.355  21.600  11.799
25231W        W92014  14.085  13.082   4.078
25232W        W92015  29.945  26.992  13.066
25233W        W92016   5.748  30.799   1.583
25234W        W92017  34.074  15.549   0.946
25235W        W92018   0.536  16.631  13.110
25236W        W92019  18.354  15.585  13.751
25237W        W92020  34.331   5.675   5.679
25238W        W92021  21.110  24.091  13.008
25239W        W92022  16.405  33.075  11.243
25240W        W92023  40.242  37.981   0.719
25241W        W92024  32.593  38.729   1.382
25242W        W92025  13.858  11.634   0.352
25243W        W92026  21.780  17.546   2.432
25244W        W92027  24.217  42.582  14.369
25245W        W92028  43.523  38.400   0.228
25246W        W92029  24.264  17.127   0.876
25247W        W92030  37.306  33.858   2.110
25248W        W92031   2.236  35.938  11.222
25249W        W92032  25.937  23.643   4.544
25250W        W92033  42.283  10.768  13.279
25251W        W92034  34.371  10.836   5.070
25252W        W92035  30.022   4.703  14.800
25253W        W92036   6.319  28.036   2.726
25254W        W92037  28.179   8.189   0.998
25255W        W92038  41.472  14.286   0.286
25256W        W92039   3.380   6.135  10.745
25257W        W92040   9.409  31.113  11.216
25258W        W92041  35.325  37.035  13.371
25259W        W92042   9.321  34.547   3.543
25260W        W92043  16.851  42.301  13.571
25261W        W92044  22.252   8.010  10.614
25262W        W92045  20.055  30.849  14.413
25263W        W92046  22.687  43.296   3.784
25264W        W92047   4.388  19.269   2.008
25265W        W92048  30.405  27.414  11.541
25266W        W92049  14.877  20.352  13.461
25267W        W92050  18.868  28.960   3.610
25268W        W92051  18.492  33.332   2.170
25269W        W92052  18.608  32.656  13.857
25270W        W92053   6.955  38.351   0.830
25271W        W92054   0.705   3.225  11.532
25272W        W92055  18.282  43.382  11.523
25273W        W92056  19.643  10.352   3.587
25274W        W92057  24.304   8.328  12.975
25275W        W92058  28.357   7.930  13.825
25276W        W92059  12.710  27.731  13.852
25277W        W92060  34.867  41.540   1.786
25278W        W92061  27.243  40.033   1.683
25279W        W92062  34.166  30.418  14.754
25280W        W92063  22.745  30.818   3.591
25281W        W92064  18.614  21.014   0.781
25282W        W92065  10.735  27.607   1.143
25283W        W92066  23.888   3.595  10.797
25284W        W92067  14.717   2.768   0.390
25285W        W92068  41.105   0.543   3.725
25286W        W92069  15.074  21.231  12.427
25287W        W92070  21.618  42.571   2.584
25288W        W92071  36.820  18.183  14.283
25289W        W92072  11.881  35.086  12.946
25290W        W92073  32.093   6.337  14.220
25291W        W92074   4.823  11.850  12.161
25292W        W92075  31.548  20.837   2.955
25293W        W92076  10.289   5.475   2.243
25294W        W92077  25.542  19.157   3.237
25295W        W92078  23.321   6.350   3.153
25296W        W92079  41.543  30.288   0.369
25297W        W92080  13.976  32.470   2.578
25298W        W92081   9.377  40.064   1.796
25299W        W92082  26.130   9.597  11.524
25300W        W92083  38.495  38.455  14.751
25301W        W92084  15.838  29.067   2.125
25302W        W92085   1.171  42.459  11.130
25303W        W92086  21.452  36.277  12.629
25304W        W92087   1.457  43.501   0.808
25305W        W92088  33.730  11.222   3.788
25306W        W92089  23.672  42.775  12.825
25307W        W92090  17.307   0.214   4.162
25308W        W92091   1.270  40.377  12.499
25309W        W92092  14.696  13.069  14.513
25310W        W92093   4.415  38.050  10.705
25311W        W92094  43.897  32.894   2.641
25312W        W92095  38.999  22.498  10.047
25313W        W92096  34.112  30.513   0.758
25314W        W92097  28.046  32.549   0.801
25315W        W92098  16.798   7.963  12.091
25316W        W92099   1.474  21.028   1.378
25317W        W92100  33.965  33.650   2.739
25318W        W92101  39.062  38.408   1.161
25319W        W92102  29.735  28.032  14.870
25320W        W92103  12.248   1.866  11.181
25321W        W92104   6.804  21.746  12.375
25322W        W92105   8.436  43.765   4.347
25323W        W92106   7.406  10.142  11.430
25324W        W92107  27.435  44.058  10.634
25325W        W92108  36.542  41.575   1.933
25326W        W92109   4.061  34.399   0.751
25327W        W92110   2.821   4.535   2.309
25328W        W92111   1.836   9.409  10.832
25329W        W92112  31.483  42.229  12.556
25330W        W92113  18.611  20.003   3.264
25331W        W92114   5.585  39.068  14.516
25332W        W92115  31.633   0.504   3.791
25333W        W92116   3.438  40.441   3.383
25334W        W92117  41.478  11.861  12.787
25335W        W92118  20.161   8.328   1.307
25336W        W92119  25.641  27.693  10.235
25337W        W92120   4.157   8.664   2.441
25338W        W92121  37.978  19.165   3.266
25339W        W92122  11.558   0.964   3.625
25340W        W92123  20.102  39.791   1.814
25341W        W92124  11.641  12.139   0.267
25342W        W92125   1.549  19.602   2.358
25343W        W92126  41.064  43.679  11.994
25344W        W92127  20.720  41.869   2.807
25345W        W92128  27.902  14.189  10.753
25346W        W92129  12.236  16.608  12.947
25347W        W92130  44.757  17.275  10.723
25348W        W92131  33.567  39.564   4.677
25349W        W92132   7.974  19.706   1.691
25350W        W92133   0.036  21.199  13.173
25351W        W92134  16.106  13.522   0.480
25352W        W92135  24.225  13.721  13.806
25353W        W92136  26.259   2.911  12.529
25354W        W92137  13.702  17.374   4.880
25355W        W92138  33.601  14.684  13.386
25356W        W92139  31.315   6.568   9.735
25357W        W92140  33.581  42.948  11.424
25358W        W92141  44.238  42.423   0.960
25359W        W92142  28.326   3.347   1.947
25360W        W92143   6.671  13.333   3.412
25361W        W92144  22.753  14.091  13.900
25362W        W92145  34.578  31.015  11.955
25363W        W92146  14.758  17.751   0.377
25364W        W92147  25.929  12.145  13.377
25365W        W92148  21.916  43.706  11.433
25366W        W92149  23.082  17.200  10.782
25367W        W92150  22.663  34.282   1.925
25368W        W92151  20.517  34.628   3.284
25369W        W92152  10.627   8.785  12.872
25370W        W92153  40.502  23.075   4.931
25371W        W92154  16.190   5.211  14.677
25372W        W92155  44.565  37.617   1.612
25373W        W92156   3.831   3.331   0.241
25374W        W92157  30.962  35.833   4.979
25375W        W92158  11.792  33.818   5.371
25376W        W92159  37.320  34.968   4.596
25377W        W92160  14.856  14.289  13.546
25378W        W92161  17.736  11.966   2.749
25379W        W92162  18.667  26.504  11.157
25380W        W92163  44.837  26.147   3.019
25381W        W92164   3.702  13.390   2.992
25382W        W92165  23.453  15.352  11.155
25383W        W92166  36.213  26.980   4.578
25384W        W92167   8.318  43.008  11.512
25385W        W92168  18.700  33.420   3.646
25386W        W92169  15.423  39.076   1.557
25387W        W92170  14.072   3.700   3.409
25388W        W92171  20.567   8.399  14.036
25389W        W92172  39.257  17.739  14.301
25390W        W92173  11.661  22.806   4.321
25391W        W92174  33.058  29.784  14.864
25392W        W92175   0.456   2.985  14.491
25393W        W92176  19.158  34.084  12.881
25394W        W92177  32.821  36.105  12.495
25395W        W92178   4.692  24.255   3.180
25396W        W92179  42.571  36.549  12.478
25397W        W92180  24.026  37.517   3.181
25398W        W92181   6.870  19.009   1.757
25399W        W92182   8.886  13.699  11.113
25400W        W92183  40.510  43.067  12.211
25401W        W92184  33.074  42.244   1.361
25402W        W92185  35.509  22.252   2.708
25403W        W92186   3.151  19.045  11.294
25404W        W92187  42.934  41.324   2.256
25405W        W92188  39.282  12.404   2.956
25406W        W92189  38.733  14.224   0.207
25407W        W92190   5.910   0.451   2.777
25408W        W92191  39.917   0.432   0.884
25409W        W92192  25.575   0.243  11.594
25410W        W92193   3.463  15.668   1.485
25411W        W92194  27.480  16.973  14.380
25412W        W92195  19.017  36.942   1.824
25413W        W92196  36.618  12.121   1.013
25414W        W92197  43.059   1.991   3.387
25415W        W92198  30.704  33.590   1.408
25416W        W92199  17.186  26.452  14.624
25417W        W92200  44.206   7.742  13.078
25418W        W92201  27.712  28.074  14.890
25419W        W92202   9.307  19.193   2.141
25420W        W92203  26.122   4.326   3.331
25421W        W92204  28.460  18.111   2.300
25422W        W92205  24.677  40.841   3.069
25423W        W92206  22.810  25.287   1.741
25424W        W92207  17.526  44.724  12.027
25425W        W92208   1.975   7.458   4.112
25426W        W92209  28.485  31.639  13.897
25427W        W92210  43.057  34.443   3.918
25428W        W92211  36.484   7.202   0.880
25429W        W92212  20.557  13.737   4.135
25430W        W92213  24.284  42.270  14.791
25431W        W92214  26.006   4.674  11.761
25432W        W92215  35.037  39.115   3.102
25433W        W92216  14.323  14.644  11.619
25434W        W92217  30.957   8.828   1.903
25435W        W92218  35.611  25.271   2.193
25436W        W92219  22.267  14.659  12.385
25437W        W92220  16.689  22.504  12.816
25438W        W92221  42.584  28.568   2.301
25439W        W92222   0.188   3.048   3.695
25440W        W92223  44.739  12.739  14.295
25441W        W92224  26.546  38.865  10.287
25442W        W92225  38.062  28.215  13.335
25443W        W92226  16.814   8.617  14.107
25444W        W92227  26.174   6.843  12.124
25445W        W92228  41.238  22.058  13.995
25446W        W92229  10.676  11.146  13.667
25447W        W92230  16.840   9.791   4.574
25448W        W92231  38.937  12.604   4.451
25449W        W92232  20.524  24.731  13.318
25450W        W92233  12.168  12.801  12.181
25451W        W92234   5.531  30.077  11.556
25452W        W92235  43.656  18.603  12.010
25453W        W92236  44.805  29.113   0.739
25454W        W92237  38.526  32.549   2.579
25455W        W92238  13.129  35.125  12.093
25456W        W92239   1.735  44.941  13.902
25457W        W92240  40.822  24.454   1.066
25458W        W92241   9.369  36.178  13.064
25459W        W92242  16.993  30.472   2.817
25460W        W92243  40.866  24.096   1.461
25461W        W92244   7.564  33.379  14.996
25462W        W92245  38.034  34.974  11.220
25463W        W92246  10.240  44.296   0.164
25464W        W92247  26.834  25.357   3.911
25465W        W92248  17.755  18.804  13.867
25466W        W92249   1.281  21.279   4.136
25467W        W92250   7.021   8.343  13.379
25468W        W92251  36.011  12.282   2.792
25469W        W92252  36.631  12.835   2.555
25470W        W92253   1.765  15.531   4.156
25471W        W92254   8.469   2.787   3.099
25472W        W92255   9.573  39.935   0.803
25473W        W92256  32.147  12.716  10.739
25474W        W92257   3.472   9.196   0.721
25475W        W92258  40.075  43.823  12.934
25476W        W92259  21.927  16.973   1.925
25477W        W92260  16.490  19.193   4.322
25478W        W92261   0.931   8.670   1.383
25479W        W92262  21.526  24.234   2.836
25480W        W92263  27.232  14.395   3.228
25481W        W92264   8.742  20.938   5.374
25482W        W92265   8.467  27.604   1.745
25483W        W92266  16.812  36.279  14.745
25484W        W92267  42.694  10.539   0.187
25485W        W92268  41.752  25.939  11.588
25486W        W92269  14.096   8.760   0.899
25487W        W92270  16.913  30.696  11.863
25488W        W92271   9.651   5.625   3.997
25489W        W92272   2.397  10.645  12.088
25490W        W92273  37.448  37.338   2.687
25491W        W92274  15.532   9.086  11.038
25492W        W92275  21.284  23.144   1.817
25493W        W92276  17.565  26.093   3.648
25494W        W92277  12.185  39.600  11.656
25495W        W92278   1.801  44.127  13.582
25496W        W92279   3.765  19.068   3.270
25497W        W92280  31.705  30.050  12.882
25498W        W92281   1.508  18.099  12.105
25499W        W92282  30.071  14.607   3.181
25500W        W92283  13.059  31.050   3.861
25501W        W92284   3.954  36.354  12.992
25502W        W92285   7.717  36.906  10.415
25503W        W92286  37.957  18.002   3.923
25504W        W92287  37.475  34.001  14.763
25505W        W92288  18.123  12.213  12.941
25506W        W92289  36.401   0.773   2.443
25507W        W92290  34.938  30.615  11.406
25508W        W92291   7.788  37.860  13.033
25509W        W92292   8.963  28.571   3.262
25510W        W92293   7.361  24.872   0.951
25511W        W92294  21.661  16.108   3.180
25512W        W92295  42.288  11.941   4.558
25513W        W92296   7.530  15.181   4.592
25514W        W92297  27.794  12.663   2.754
25515W        W92298  20.759  11.771   0.865
25516W        W92299  20.657  43.873   3.324
25517W        W92300  32.063  11.369   1.288
25518W        W92301   8.741  23.641  14.451
25519W        W92302  24.657  38.375  12.026
25520W        W92303  41.887  17.723  12.365
25521W        W92304  15.714  44.424   4.978
25522W        W92305  31.508  27.908   2.356
25523W        W92306  14.114  36.934   2.113
25524W        W92307   4.989  38.984   2.003
25525W        W92308  10.160  44.426  12.879
25526W        W92309   9.749  35.846  11.855
25527W        W92310   0.330  29.529   4.274
25528W        W92311  13.347   4.083   3.677
25529W        W92312   7.920  16.944   3.559
25530W        W92313  31.229  34.949  11.502
25531W        W92314   8.732  29.181  11.060
25532W        W92315  24.257   8.431   3.134
25533W        W92316  14.750   2.490  12.894
25534W        W92317  25.412  30.506  10.172
25535W        W92318  16.872  24.549  13.467
25536W        W92319  36.135  39.834  12.489
25537W        W92320   1.957  35.589   2.622
25538W        W92321   1.638   6.122  11.111
25539W        W92322  27.182  42.468   1.431
25540W        W92323   9.648  11.549   3.224
25541W        W92324   3.377  34.718  10.461
25542W        W92325  11.630  41.435   2.397
25543W        W92326   6.753  14.360  12.156
25544W        W92327   0.847  22.998   2.902
25545W        W92328   9.759   2.740  10.691
25546W        W92329  44.478  44.794  13.550
25547W        W92330   2.299  27.613  11.989
25548W        W92331  23.058  32.992  11.952
25549W        W92332  31.174   0.922   0.730
25550W        W92333  39.074  10.527  10.898
25551W        W92334  12.977   1.194   3.836
25552W        W92335  25.787  27.086   4.445
25553W        W92336  36.577  21.699  12.439
25554W        W92337  42.192   6.691   0.701
25555W        W92338   9.731  25.440  11.251
25556W        W92339  43.798   7.747  14.384
25557W        W92340  33.067   8.094  13.598
25558W        W92341  33.551   7.873   1.939
25559W        W92342  43.678   0.288  14.784
25560W        W92343   9.328  10.315  11.965
25561W        W92344  21.189  16.743  13.981
25562W        W92345  28.141   1.159   0.330
25563W        W92346  10.252  20.068  13.634
25564W        W92347  31.064  21.453   3.207
25565W        W92348   4.178   7.454   2.178
25566W        W92349  19.140  16.287   0.039
25567W        W92350  44.755  35.344  12.933
25568W        W92351  20.976   7.395   1.727
25569W        W92352   9.844  40.569  13.603
25570W        W92353  43.090  36.470   2.762
25571W        W92354  43.858  42.462  11.575
25572W        W92355  29.869  35.640   2.200
25573W        W92356  38.887  38.285  13.498
25574W        W92357  31.638  11.382  10.416
25575W        W92358   4.888   8.549   2.062
25576W        W92359  28.648  35.455  11.748
25577W        W92360  39.810  14.630  14.306
25578W        W92361  26.851  33.927   2.689
25579W        W92362  11.427   5.458   2.171
25580W        W92363  12.337  42.071   2.201
25581W        W92364  34.551  10.833   0.417
25582W        W92365   5.577  39.226   3.349
25583W        W92366  38.337   3.809  14.639
25584W        W92367  34.905  13.888  11.181
25585W        W92368  42.909  32.324   1.967
25586W        W92369   8.405  16.801   3.553
25587W        W92370  10.867  39.955  11.349
25588W        W92371  42.393  12.167  12.470
25589W        W92372  39.088  34.410   3.678
25590W        W92373  32.039   7.442   0.998
25591W        W92374  11.694  35.833  12.433
25592W        W92375  12.127  22.341   3.650
25593W        W92376  41.311  22.644   0.714
25594W        W92377  20.658  43.545   3.735
25595W        W92378  21.261   3.875   1.839
25596W        W92379  17.260   2.711  11.910
25597W        W92380  43.923  28.709   0.375
25598W        W92381  24.334  14.070  12.061
25599W        W92382   6.276  23.502  11.656
25600W        W92383  17.506  41.046   1.317
25601W        W92384  14.364  14.773   4.730
25602W        W92385  44.027   2.798   2.238
25603W        W92386  25.076  40.524  14.360
25604W        W92387  25.066   4.447  10.699
25605W        W92388  35.604  11.923   1.346
25606W        W92389  31.375  38.716  11.933
25607W        W92390   5.727  19.037  13.217
25608W        W92391  19.144  39.121  12.026
25609W        W92392  33.951   6.098  14.509
25610W        W92393   1.992  31.743  11.163
25611W        W92394   3.873  16.218   0.532
25612W        W92395   1.715  17.753  12.479
25613W        W92396  27.892  40.894   0.183
25614W        W92397  27.921  22.193  13.377
25615W        W92398   4.828   5.401   1.810
25616W        W92399   7.717  16.036   3.584
25617W        W92400   6.462   0.797   4.139
25618W        W92401  27.382  24.065  13.617
25619W        W92402   9.203  36.820  13.717
25620W        W92403  19.031   4.524   3.825
25621W        W92404   5.095   7.877   0.799
25622W        W92405  11.653  19.257   0.625
25623W        W92406  22.706  38.096   2.328
25624W        W92407   0.382   4.132  13.509
25625W        W92408  39.576  32.391  10.781
25626W        W92409  36.049   7.100   1.771
25627W        W92410  33.213  40.395   4.705
25628W        W92411  23.164  14.633  14.780
25629W        W92412  14.976  30.469   2.733
25630W        W92413  10.279  41.392   1.799
25631W        W92414   0.517  13.811   2.759
25632W        W92415  30.190  13.360   2.825
25633W        W92416  33.256  40.503   0.871
25634W        W92417  22.012  39.023   1.845
25635W        W92418  37.616  25.456   2.442
25636W        W92419  38.149  28.284   3.181
25637W        W92420  25.696  38.781   4.876
25638W        W92421  31.456   6.902   2.179
25639W        W92422  42.427   6.644   4.939
25640W        W92423  10.138  29.959   2.262
25641W        W92424  42.315  15.303   4.715
25642W        W92425  29.003   0.813  11.716
25643W        W92426  38.770  40.031   4.170
25644W        W92427   4.971   1.134  12.584
25645W        W92428  15.435  23.220  12.443
25646W        W92429  39.218  37.158  10.570
25647W        W92430  35.126  40.244  12.186
25648W        W92431  14.235   9.201   2.730
25649W        W92432  35.176  16.888  11.670
25650W        W92433  33.320  17.323  11.101
25651W        W92434  30.912  39.268   0.918
25652W        W92435  28.881  31.951   1.911
25653W        W92436  15.550  14.100   1.973
25654W        W92437  41.317  32.599  13.515
25655W        W92438  14.617  31.050   4.545
25656W        W92439   2.872  16.566   4.162
25657W        W92440  21.241   8.083  12.086
25658W        W92441  19.183   8.520   2.902
25659W        W92442  21.611  21.151  11.497
25660W        W92443   9.127  16.723   2.181
25661W        W92444  31.092  23.673  12.360
25662W        W92445   2.391  12.329   4.845
25663W        W92446  22.090  42.357   3.247
25664W        W92447   7.415  33.808  12.302
25665W        W92448  44.957  12.094   3.079
25666W        W92449   0.851   7.016   1.702
25667W        W92450  29.906  25.687   1.433
25668W        W92451  37.051  34.629  13.606
25669W        W92452  29.195   8.416   4.244
25670W        W92453  15.152   6.682   0.352
25671W        W92454  16.057   1.977   3.466
25672W        W92455  32.636  32.032   3.202
25673W        W92456  28.989  41.438   2.955
25674W        W92457   6.619  25.324  11.984
25675W        W92458  22.611   0.221   5.042
25676W        W92459  16.133  41.080   3.267
25677W        W92460  21.031   4.452  13.385
25678W        W92461  35.656   8.442   1.755
25679W        W92462  22.557  23.197   0.526
25680W        W92463  29.356   5.886  12.134
25681W        W92464   4.621   6.213  13.982
25682W        W92465  13.688  39.971  11.947
25683W        W92466  12.177  43.513   2.768
25684W        W92467  19.196  33.862   3.811
25685W        W92468  17.311  28.194   0.473
25686W        W92469  24.109   2.291   2.674
25687W        W92470  43.463  41.295  13.826
25688W        W92471  27.907   2.423  14.339
25689W        W92472   0.519  35.161  14.967
25690W        W92473  39.935   2.388  14.357
25691W        W92474  41.350  20.024  12.227
25692W        W92475  23.634  40.287  10.577
25693W        W92476  40.031  33.443  13.812
25694W        W92477  42.796  18.442  10.631
25695W        W92478  34.631  32.515  10.723
25696W        W92479  39.013  43.828  14.799
25697W        W92480   1.055   0.156   3.446
25698W        W92481  15.195  10.822  13.412
25699W        W92482   0.838  29.228   0.933
25700W        W92483  13.876  13.693   0.858
25701W        W92484   1.765  35.865   1.286
25702W        W92485  33.100  18.774   0.318
25703W        W92486   1.613  31.811   4.198
25704W        W92487  20.014  29.082   0.216
25705W        W92488  26.672  11.112  14.753
25706W        W92489  27.078  13.834  10.628
25707W        W92490  39.943  12.798   4.855
25708W        W92491  15.657   3.759   0.738
25709W        W92492  33.117  12.117   1.744
25710W        W92493  10.827  31.961   1.455
25711W        W92494  19.086  25.865   4.072
25712W        W92495  34.978  22.984   0.838
25713W        W92496  27.469  32.179  11.447
25714W        W92497  29.954  17.037   1.440
25715W        W92498   4.562   4.823   3.761
25716W        W92499  40.219   2.462   3.690
25717W        W92500  15.584  38.888   4.445
25718W        W92501  23.089  39.169   3.646
25719W        W92502  44.916  21.696   4.337
25720W        W92503  27.503   4.212   3.233
25721W        W92504  12.704  19.709   4.100
25722W        W92505  17.887  39.478   0.308
25723W        W92506  32.697  44.035  11.643
25724W        W92507  18.006  12.420   2.721
25725W        W92508  27.003  43.820   3.726
25726W        W92509  24.085   8.652   0.900
25727W        W92510  42.433  22.352  14.070
25728W        W92511  30.921  32.479  14.747
25729W        W92512  44.408  32.091   0.275
25730W        W92513  37.858   0.529  14.839
25731W        W92514   3.460  13.271  11.435
25732W        W92515  25.555  23.797  11.576
25733W        W92516  13.402   6.989   1.939
25734W        W92517  22.000   9.447   2.267
25735W        W92518  33.063   0.555  14.012
25736W        W92519  12.650  17.753  10.756
25737W        W92520  25.704  13.939  10.659
25738W        W92521  43.045  23.507   0.362
25739W        W92522  20.838   3.763  13.601
25740W        W92523  18.305  38.466  12.576
25741W        W92524  23.468   3.444  14.421
25742W        W92525   3.205  20.489   1.393
25743W        W92526   8.390   6.389   2.284
25744W        W92527  43.024  12.565   3.552
25745W        W92528  31.951  11.366  12.508
25746W        W92529  36.533  16.070   1.795
25747W        W92530  32.441  42.125  11.395
25748W        W92531   5.353  11.718   1.690
25749W        W92532   0.734  19.301   3.240
25750W        W92533  19.608   6.471   3.828
25751W        W92534  16.714  39.794   0.905
25752W        W92535  41.835  37.896  14.831
25753W        W92536  18.055  14.189   0.878
25754W        W92537  22.161  33.492  12.831
25755W        W92538  28.500  36.334  10.638
25756W        W92539  37.883  19.114  13.414
25757W        W92540  10.764   6.195  10.643
25758W        W92541  38.524   5.715  13.946
25759W        W92542  40.289  24.727  12.575
25760W        W92543  40.068  42.362  13.474
25761W        W92544  41.298  42.913  10.694
25762W        W92545  26.526   2.276   4.961
25763W        W92546  42.259  30.657  11.566
25764W        W92547  29.042  21.468  12.529
25765W        W92548  22.495   7.085  10.659
25766W        W92549  30.041  22.986  14.464
25767W        W92550  13.663  11.631   2.327
25768W        W92551  30.598  23.669  11.487
25769W        W92552  23.796   2.477   0.929
25770W        W92553  28.092  41.953  13.111
25771W        W92554   8.764  12.072   3.241
25772W        W92555  40.044  18.752  11.143
25773W        W92556  26.127  44.221   4.633
25774W        W92557  28.195  12.900   0.397
25775W        W92558   7.975  10.443   4.225
25776W        W92559  26.463   6.929  13.880
25777W        W92560   9.839   2.977  11.548
25778W        W92561  18.137   8.750  11.023
25779W        W92562  12.303  31.669   4.164
25780W        W92563  44.052  10.382   3.274
25781W        W92564  18.224  18.789  12.861
25782W        W92565  32.378   3.812   4.574
25783W        W92566  42.333   0.705  11.223
25784W        W92567  42.423   6.125  13.957
25785W        W92568  34.545  15.633  10.607
25786W        W92569  42.200  22.642  12.369
25787W        W92570  37.057  42.955   1.009
25788W        W92571  39.592   7.844   0.376
25789W        W92572  12.619  41.965   4.232
25790W        W92573  34.318   3.881   0.426
25791W        W92574  31.728  13.038  12.010
25792W        W92575  42.751   3.282  14.027
25793W        W92576  21.256  36.770  14.307
25794W        W92577  26.238  24.276  10.654
25795W        W92578  24.286  29.574   3.226
25796W        W92579  31.150  14.079   3.697
25797W        W92580  11.289  15.847  10.549
25798W        W92581  10.131   1.199  14.070
25799W        W92582  43.183  31.797  10.444
25800W        W92583  23.196  39.471   2.339
25801W        W92584  23.787  16.156  12.790
25802W        W92585  37.934  17.551   3.670
25803W        W92586  19.845  17.768  10.944
25804W        W92587  42.232  34.537   4.255
25805W        W92588  29.638  36.513  13.427
25806W        W92589  36.592  33.345  13.421
25807W        W92590   6.840  42.380  13.432
25808W        W92591   4.906  38.747  13.799
25809W        W92592  33.562  26.260  13.470
25810W        W92593  18.000  28.188  10.848
25811W        W92594  15.187  16.463   0.485
25812W        W92595  14.858  19.574  12.420
25813W        W92596  27.822  15.118   1.415
25814W        W92597  17.434  32.122   4.124
25815W        W92598  23.603  11.303  14.999
25816W        W92599  39.375  21.144   4.658
25817W        W92600  11.885   9.143   1.982
25818W        W92601  35.210  26.461  13.978
25819W        W92602  44.198  39.434  10.201
25820W        W92603  17.066  20.703  14.065
25821W        W92604  40.759  41.289  12.122
25822W        W92605  32.086  36.066   0.280
25823W        W92606  28.723   4.867  12.887
25824W        W92607  43.819  25.444   1.653
25825W        W92608  16.608  19.394   1.729
25826W        W92609  28.101  23.314  10.729
25827W        W92610  22.703  42.515  11.199
25828W        W92611  24.670  11.177  11.095
25829W        W92612  42.587  38.106  11.831
25830W        W92613  29.010  22.150   4.614
25831W        W92614   9.563  37.927  13.176
25832W        W92615   3.894  12.386  13.738
25833W        W92616  40.958  41.199   1.856
25834W        W92617  36.995  10.159  11.709
25835W        W92618   0.811  34.024  13.864
25836W        W92619  14.141  32.387  10.635
25837W        W92620  29.396  42.647  11.439
25838W        W92621  30.635  14.655   0.269
25839W        W92622  44.945  18.695   4.567
25840W        W92623  23.267  17.821  14.734
25841W        W92624  11.036  44.450   3.655
25842W        W92625   5.378  18.550  14.289
25843W        W92626  41.029  39.894   1.697
25844W        W92627  41.922  42.754   2.043
25845W        W92628  11.325  11.633   1.580
25846W        W92629  39.988  17.252  10.844
25847W        W92630  23.760  38.044  14.947
25848W        W92631  28.693   8.909   2.190
25849W        W92632  21.811  27.695   2.812
25850W        W92633  35.166  37.322  12.004
25851W        W92634  23.351  37.927  14.663
25852W        W92635   8.894  38.165  12.393
25853W        W92636   7.114   0.320   0.809
25854W        W92637  15.989  35.376  12.443
25855W        W92638   8.360   2.297   4.960
25856W        W92639  16.579  35.086   1.222
25857W        W92640   7.425  13.746  13.831
25858W        W92641   6.315   2.884  13.352
25859W        W92642  36.391  44.723  13.044
25860W        W92643  25.437  24.634  12.081
25861W        W92644  35.880  18.780   4.636
25862W        W92645   6.839  19.464   4.191
25863W        W92646  31.143  17.775  12.058
25864W        W92647   3.151   1.313  11.987
25865W        W92648  35.503  21.385  12.162
25866W        W92649  15.560  44.507  12.386
25867W        W92650  43.758  15.557   3.047
25868W        W92651  24.468  14.680   0.104
25869W        W92652   9.081  32.525  13.804
25870W        W92653  32.971   1.409   3.899
25871W        W92654   3.961  43.924   3.217
25872W        W92655  19.518  27.404  14.715
25873W        W92656  29.613  41.761   1.486
25874W        W92657  31.847  15.739  11.120
25875W        W92658  41.325  32.659   1.017
25876W        W92659  34.341   9.666  11.638
25877W        W92660  43.947  38.041  11.670
25878W        W92661  29.119  26.597   1.228
25879W        W92662  26.496  14.324   1.238
25880W        W92663  30.706  20.695  10.697
25881W        W92664  28.601  11.798  14.998
25882W        W92665  22.020  34.014   0.844
25883W        W92666  15.177  28.885  14.067
25884W        W92667  41.841  10.167   2.305
25885W        W92668  19.706   0.056   4.673
25886W        W92669  36.611  41.021   2.821
25887W        W92670  22.766  41.490   4.079
25888W        W92671  29.470  25.684   4.095
25889W        W92672   7.335  23.229  12.539
25890W        W92673   0.066  38.667  13.570
25891W        W92674  26.541   5.870  11.960
25892W        W92675  24.357   6.394   4.971
25893W        W92676   7.392   4.891  12.089
25894W        W92677  24.732  26.733   0.001
25895W        W92678  15.234  26.445   2.393
25896W        W92679   0.295  26.945  11.635
25897W        W92680  31.977   5.849   1.831
25898W        W92681  13.288  20.013   0.125
25899W        W92682  10.454  11.341  12.335
25900W        W92683   6.642   0.485   0.174
25901W        W92684  34.120  11.954   3.155
25902W        W92685  27.403  33.099   3.118
25903W        W92686  44.806  23.008  11.272
25904W        W92687   1.709  24.640  11.662
25905W        W92688  31.491   1.820  13.765
25906W        W92689  23.387   2.890   3.449
25907W        W92690  27.150  41.033  13.844
25908W        W92691   3.532  36.431   3.836
25909W        W92692  26.528  22.927   2.498
25910W        W92693  28.631   7.863   4.976
25911W        W92694  36.728  19.644   2.143
25912W        W92695  24.541  35.001  12.903
25913W        W92696  29.970  28.758   1.074
25914W        W92697  38.820  37.547   3.939
25915W        W92698  30.016  22.133  14.527
25916W        W92699  43.523  29.131   1.470
25917W        W92700  40.598  23.607  12.046
25918W        W92701   6.793  37.928  10.734
25919W        W92702  43.279  43.911   1.228
25920W        W92703  10.293  27.945   2.372
25921W        W92704   3.503  32.848  12.408
25922W        W92705  25.692  13.099  13.529
25923W        W92706   7.230  21.720   2.627
25924W        W92707  43.099  15.163  14.620
25925W        W92708  10.253  38.216  11.716
25926W        W92709  24.187  23.264  13.382
25927W        W92710  13.236  28.120   4.581
25928W        W92711   8.927  15.572  13.855
25929W        W92712   7.672  20.973  14.953
25930W        W92713  38.401  27.665   3.562
25931W        W92714  39.850   9.733   0.099
25932W        W92715  40.042  22.419   0.760
25933W        W92716  25.654  22.329   5.490
25934W        W92717  26.722   6.848   0.314
25935W        W92718  25.015  31.678  10.686
25936W        W92719   1.041  40.831  13.376
25937W        W92720  26.908   0.400   2.449
25938W        W92721  18.888  36.919  11.710
25939W        W92722  12.493   9.332   1.374
25940W        W92723  24.741  11.512  12.835
25941W        W92724  31.039  16.370   3.224
25942W        W92725  42.244  39.464  11.769
25943W        W92726  15.446  18.455   2.811
25944W        W92727  37.420  40.727  10.925
25945W        W92728  41.308  36.937  12.086
25946W        W92729  38.619   7.684   3.990
25947W        W92730  41.392  37.952  11.573
25948W        W92731  43.474  11.192  13.945
25949W        W92732  37.963  38.190   0.510
25950W        W92733   5.814  18.130   1.832
25951W        W92734  34.689  44.415  13.022
25952W        W92735  20.734   0.383   1.189
25953W        W92736  15.672  44.967   4.035
25954W        W92737  42.555   8.773  12.933
25955W        W92738  32.559  34.455  14.678
25956W        W92739   1.381  38.987   2.233
25957W        W92740  34.922   6.859  12.928
25958W        W92741   7.703   0.504  14.651
25959W        W92742  18.497  33.174   4.573
25960W        W92743  11.267  21.976  14.399
25961W        W92744  42.303  22.564   3.172
25962W        W92745   6.402   8.437  12.835
25963W        W92746  17.653  30.255   2.395
25964W        W92747  24.175  19.588  12.696
25965W        W92748  43.108  11.879  10.343
25966W        W92749   4.158  43.314  11.449
25967W        W92750  20.075  33.631  11.206
25968W        W92751  15.843  33.571   2.860
25969W        W92752  34.979  17.285  12.528
25970W        W92753  13.278  19.595   0.449
25971W        W92754  34.449  20.496   0.086
25972W        W92755  41.048  21.599   0.672
25973W        W92756  29.367   3.156   0.942
25974W        W92757  37.524  33.812  13.928
25975W        W92758  13.366  44.391  12.979
25976W        W92759  13.666  33.365  13.558
25977W        W92760   7.847   6.017  14.481
25978W        W92761   1.863  35.581  11.255
25979W        W92762  23.594  29.950   4.156
25980W        W92763   8.366   7.802  14.527
25981W        W92764  31.910   6.273  14.992
25982W        W92765  10.689  19.765   4.019
25983W        W92766  12.605  10.598  14.891
25984W        W92767  19.718   7.629   2.166
25985W        W92768  41.120  44.961  13.878
25986W        W92769  42.471  23.041   1.369
25987W        W92770  42.586   2.276  13.618
25988W        W92771  41.976  16.903   4.245
25989W        W92772  40.990  14.184   0.071
25990W        W92773  28.673  10.388  12.618
25991W        W92774   6.196  28.369   3.728
25992W        W92775  44.216  41.474   2.662
25993W        W92776  14.170  41.371   3.578
25994W        W92777   4.880   7.787   1.686
25995W        W92778  17.545  23.476   4.158
25996W        W92779  14.886  14.778   1.845
25997W        W92780   1.693  31.070   1.519
25998W        W92781   3.435   6.201  13.351
25999W        W92782  30.632  19.821  14.090
26000W        W92783   6.521  25.742   0.309
26001W        W92784  38.857  40.105  14.375
26002W        W92785  25.946  19.674   3.496
26003W        W92786  42.979  25.584  12.098
26004W        W92787  24.185  23.861   4.563
26005W        W92788  30.916  34.040   4.751
26006W        W92789  40.169   6.701   4.654
26007W        W92790  15.720   2.502   1.238
26008W        W92791  17.495  38.101  11.958
26009W        W92792  16.716  12.820  14.982
26010W        W92793  15.222   8.187   1.756
26011W        W92794   0.725  36.049  12.975
26012W        W92795  22.989  24.397   4.157
26013W        W92796   0.631  12.125   4.923
26014W        W92797  27.917   1.615   3.079
26015W        W92798  25.271   9.204   0.851
26016W        W92799  29.659  42.312   4.164
26017W        W92800  10.766  23.314  12.065
26018W        W92801  33.602   0.383  12.121
26019W        W92802  11.498  35.405   4.015
26020W        W92803  26.031  43.616  13.279
26021W        W92804  28.501  37.354  10.547
26022W        W92805  43.936  34.993  12.661
26023W        W92806   7.185   4.410  12.128
26024W        W92807   3.096  35.511   3.503
26025W        W92808   9.248   8.375  11.284
26026W        W92809  18.630  44.337   1.923
26027W        W92810  31.478   3.137   3.091
26028W        W92811  25.206  30.128   1.315
26029W        W92812  42.328   2.751   1.708
26030W        W92813  24.959   2.835   1.776
26031W        W92814  11.702  19.524   1.128
26032W        W92815  23.308  22.493   1.771
26033W        W92816  31.930  14.363  11.047
26034W        W92817   0.379  21.247  14.443
26035W        W92818  35.995  27.983  14.923
26036W        W92819   3.931  44.921   4.279
26037W        W92820  41.778  28.030   0.280
26038W        W92821   6.439  33.548  14.239
26039W        W92822  22.911  11.297   4.384
26040W        W92823  13.199  28.296   0.369
26041W        W92824  24.568  15.434   0.829
26042W        W92825  20.321  10.873   2.888
26043W        W92826  37.008   4.228   0.829
26044W        W92827  22.528  25.009   2.069
26045W        W92828  20.291  12.085   0.229
26046W        W92829  29.499  12.405   2.274
26047W        W92830   4.977  44.052   4.771
26048W        W92831   6.200  28.119  14.854
26049W        W92832  11.333   1.224  13.014
26050W        W92833  21.777   8.635   4.191
26051W        W92834   9.849  34.987  11.993
26052W        W92835   8.856  29.090   1.662
26053W        W92836  17.839  26.483  13.821
26054W        W92837  12.191  37.785   0.534
26055W        W92838  35.142   6.477   1.285
26056W        W92839  23.275  10.139  13.514
26057W        W92840  14.322   6.117  10.365
26058W        W92841  17.764  16.217   3.917
26059W        W92842  22.569  28.045   3.029
26060W        W92843  20.991  26.044  10.458
26061W        W92844  15.672  21.152  14.416
26062W        W92845   2.223  23.360   2.155
26063W        W92846  25.689  37.826   3.785
26064W        W92847  17.317   1.720   1.852
26065W        W92848  25.965  37.581   2.186
26066W        W92849  27.665  18.590   4.133
26067W        W92850  42.001  43.961   2.575
26068W        W92851  25.697  32.487  13.849
26069W        W92852  43.852  27.101   1.953
26070W        W92853  33.474  30.581   0.263
26071W        W92854   9.066  17.184   2.952
26072W        W92855  36.566  19.911  10.125
26073W        W92856  30.437  22.657   0.646
26074W        W92857  33.953  12.889   1.342
26075W        W92858   0.699  38.109  14.787
26076W        W92859  44.881  23.452   2.835
26077W        W92860   4.286  28.500  14.164
26078W        W92861  15.659   5.170   4.138
26079W        W92862  44.553  24.097  14.905
26080W        W92863  12.610   9.360   2.312
26081W        W92864  38.703  16.111   2.383
26082W        W92865  24.635  17.329   4.163
26083W        W92866  14.152  43.774   3.703
26084W        W92867   3.049  33.086  14.689
26085W        W92868   0.567   3.031   4.156
26086W        W92869  13.418   2.852   4.087
26087W        W92870   1.783   6.501   0.852
26088W        W92871  11.202   9.721   2.213
26089W        W92872   1.054   8.660   4.175
26090W        W92873  26.009   2.499  14.457
26091W        W92874  21.948  43.818  13.374
26092W        W92875  33.173   4.981   0.282
26093W        W92876  33.585  17.185   1.186
26094W        W92877  42.716  27.158   2.250
26095W        W92878  39.227  19.659   4.847
26096W        W92879   6.634  37.056   1.749
26097W        W92880   7.201  23.122   1.323
26098W        W92881   7.841  29.635   2.786
26099W        W92882  23.250  22.576  13.614
26100W        W92883  36.587   5.692   3.548
26101W        W92884  33.734  43.959  12.502
26102W        W92885  40.823  40.770  13.914
26103W        W92886  13.867  32.128  12.365
26104W        W92887  38.591  10.678  12.057
26105W        W92888   7.100  13.651  12.511
26106W        W92889  34.102  18.676  12.980
26107W        W92890   9.352  32.666   2.558
26108W        W92891  37.405   6.333   4.090
26109W        W92892  17.812  14.568  12.084
26110W        W92893  28.736  13.666   3.766
26111W        W92894  42.365  15.195  11.550
26112W        W92895  38.553  33.545   4.574
26113W        W92896  34.436   3.527  12.618
26114W        W92897  25.056  29.787  13.934
26115W        W92898  15.846  27.506  11.516
26116W        W92899  26.161  31.981  14.502
26117W        W92900  43.764  29.210  12.856
26118W        W92901  34.836  37.247   5.048
26119W        W92902  16.806  33.319   1.673
26120W        W92903  34.074  34.973  12.505
26121W        W92904  32.189  18.566   3.268
26122W        W92905   4.668  41.500   4.908
26123W        W92906  18.934  28.263   4.474
26124W        W92907  13.261   2.384   4.174
26125W        W92908  23.193  13.107  11.149
26126W        W92909  24.393  23.525  11.950
26127W        W92910   9.188  26.649  14.791
26128W        W92911  43.381  44.936   4.196
26129W        W92912  22.408  32.928  11.149
26130W        W92913  29.393  35.423   2.306
26131W        W92914   8.298  42.091   4.120
26132W        W92915   2.614  17.274   5.131
26133W        W92916  38.483   9.199  11.812
26134W        W92917  17.488  29.013  11.206
26135W        W92918  11.524   2.834  12.135
26136W        W92919  21.421  42.705  14.928
26137W        W92920  16.272  32.057   2.751
26138W        W92921  23.628  19.184  13.964
26139W        W92922  17.171  38.288   1.237
26140W        W92923   8.946  35.001   2.376
26141W        W92924  27.674  17.265   0.725
26142W        W92925   0.860  40.641   1.848
26143W        W92926  26.870  24.503  10.253
26144W        W92927  22.740  38.005  10.282
26145W        W92928   4.998  36.605   2.934
26146W        W92929  22.289  36.457  11.518
26147W        W92930  15.634  26.515  13.881
26148W        W92931  17.119  32.308  11.537
26149W        W92932  29.900  29.094  13.586
26150W        W92933  28.469  26.464   0.508
26151W        W92934  18.896  38.812   5.163
26152W        W92935  12.686  27.601   4.124
26153W        W92936  33.945   1.794   0.054
26154W        W92937  43.783   2.848  11.214
26155W        W92938  44.802   6.031  11.679
26156W        W92939   8.948  19.735  13.774
26157W        W92940  20.781  42.790  13.493
26158W        W92941  36.516  31.920   4.010
26159W        W92942  42.836  33.298   2.242
26160W        W92943  18.697  18.339   2.637
26161W        W92944  27.469  26.365  12.130
26162W        W92945   4.962  13.760  12.056
26163W        W92946  24.391  21.113   4.018
26164W        W92947  42.148  33.527   3.773
26165W        W92948  42.702  28.479   0.839
26166W        W92949  17.116  11.789   5.148
26167W        W92950  21.174   6.757  11.164
26168W        W92951  23.640   6.182   4.607
26169W        W92952  40.294   6.423   0.898
26170W        W92953   2.887   0.297  11.613
26171W        W92954  43.062  17.874  10.330
26172W        W92955  24.552  12.831   3.815
26173W        W92956  30.258   5.269  13.533
26174W        W92957   7.617  31.626   2.368
26175W        W92958  24.177  37.251  11.200
26176W        W92959  16.103  19.568   4.281
26177W        W92960  23.622   0.169   2.364
26178W        W92961  26.758  36.527   3.655
26179W        W92962  37.159  10.727   1.865
26180W        W92963  22.221  12.614   2.374
26181W        W92964  36.468  17.429   3.188
26182W        W92965  17.024  13.496   4.516
26183W        W92966  21.689  11.097   4.957
26184W        W92967   9.739   1.938   0.181
26185W        W92968  33.258  15.366   0.197
26186W        W92969  24.781  36.939  13.868
26187W        W92970  16.053  24.534   1.454
26188W        W92971  21.645  29.057  14.901
26189W        W92972  21.995   8.676   4.834
26190W        W92973   1.801  35.066   3.159
26191W        W92974  26.585   0.892   1.294
26192W        W92975  22.199   6.481   0.806
26193W        W92976   9.071  44.431   4.105
26194W        W92977  36.249  25.433  12.608
26195W        W92978  10.297  30.823  11.377
26196W        W92979   2.184  12.398  13.401
26197W        W92980   7.399  16.369   1.872
26198W        W92981  18.603  27.387  11.378
26199W        W92982  35.672  24.109  11.693
26200W        W92983  43.007  15.898  13.017
26201W        W92984   0.330  20.030  11.505
26202W        W92985   5.951   3.376   1.721
26203W        W92986   8.538  38.097   1.321
26204W        W92987  20.687  34.901   3.731
26205W        W92988  12.433   4.889   3.397
26206W        W92989   6.678  32.279  11.485
26207W        W92990  15.642  28.694  14.980
26208W        W92991  38.335  34.635   1.170
26209W        W92992  18.227  37.294  14.245
26210W        W92993  42.633  12.210   4.846
26211W        W92994  18.041  10.806  14.802
26212W        W92995  27.654   0.882   2.343
26213W        W92996  25.476  35.061   0.896
26214W        W92997   0.409   3.684  10.700
26215W        W92998  34.780  13.166  11.419
26216W        W92999  29.384   0.842  13.166
26217W        W93000  23.170  25.229  13.874
26218W        W93001   7.897   7.739  14.717
26219W        W93002  33.353  36.514  10.867
26220W        W93003  38.941  19.490   2.673
26221W        W93004  17.656   6.976  11.602
26222W        W93005   4.664  26.021   2.937
26223W        W93006   5.431   0.707  13.225
26224W        W93007  14.849  37.072   1.280
26225W        W93008   1.237  15.843  13.240
26226W        W93009  25.579  38.583  12.439
26227W        W93010  21.765  25.715  13.915
26228W        W93011   3.354   5.454   4.199
26229W        W93012  21.108  20.049  14.426
26230W        W93013   5.811  16.686   0.525
26231W        W93014   0.486  27.395   3.110
26232W        W93015   9.032  34.931   3.701
26233W        W93016  28.322  26.619  10.395
26234W        W93017  19.007   7.912  11.514
26235W        W93018  37.500   8.691  13.532
26236W        W93019  24.609  29.289  12.933
26237W        W93020  22.738  26.090  14.386
26238W        W93021  14.212  43.680  14.348
26239W        W93022  40.610   5.470  12.064
26240W        W93023  25.195  41.731   3.116
26241W        W93024  35.900  12.614   3.206
26242W        W93025  17.254  29.960  10.352
26243W        W93026  24.231   4.674   3.563
26244W        W93027  21.797  23.718   0.517
26245W        W93028   8.733  31.048   2.076
26246W        W93029  29.223  35.639  10.603
26247W        W93030  35.818  15.947  12.127
26248W        W93031  31.949  15.107  10.771
26249W        W93032  14.066  17.410  13.097
26250W        W93033  12.175  16.835   0.981
26251W        W93034  36.920  34.433  11.247
26252W        W93035   6.291   7.367  14.513
26253W        W93036  43.341   8.141   2.089
26254W        W93037  26.515   1.402   1.419
26255W        W93038   2.881  21.687   3.870
26256W        W93039  35.091  20.251   9.380
26257W        W93040   1.912   1.793  14.375
26258W        W93041  37.603  20.090   4.648
26259W        W93042  16.323  39.088  14.861
26260W        W93043  20.111  43.215  12.918
26261W        W93044  38.869  29.211  13.834
26262W        W93045  35.073   6.691   1.791
26263W        W93046  16.571  35.644   2.214
26264W        W93047  34.480  12.892  13.944
26265W        W93048  25.924  43.033  14.990
26266W        W93049   5.294   4.747  12.163
26267W        W93050   9.427  24.462  13.064
26268W        W93051  11.943  30.281   4.287
26269W        W93052  40.003  32.884  13.847
26270W        W93053   6.323   0.388  10.550
26271W        W93054   2.868  43.529  14.549
26272W        W93055  31.429  37.862   3.693
26273W        W93056  26.316  43.474  12.841
26274W        W93057  35.471  24.505   3.326
26275W        W93058  15.562  32.951  13.292
26276W        W93059  38.394  44.367  10.667
26277W        W93060   6.721  23.010   3.851
26278W        W93061  12.394   2.425  11.128
26279W        W93062  10.916  30.327   5.112
26280W        W93063  26.988  33.539   2.393
26281W        W93064  43.486  31.133  12.978
26282W        W93065  18.784  27.340  14.926
26283W        W93066  23.652  36.931  12.150
26284W        W93067  17.469  18.763  13.435
26285W        W93068  22.330  39.367  12.225
26286W        W93069  43.028  14.297   2.582
26287W        W93070  14.024  28.040   1.623
26288W        W93071  22.895  36.280   1.338
26289W        W93072   1.715  24.466   1.000
26290W        W93073   0.379  21.029   2.179
26291W        W93074  39.953  33.479   0.216
26292W        W93075   0.719   3.640  11.819
26293W        W93076  30.321  15.731   3.651
26294W        W93077  33.008  43.082   1.871
26295W        W93078   4.039  26.550   1.404
26296W        W93079   2.427  29.453  10.587
26297W        W93080  42.062  38.308  11.078
26298W        W93081  40.284  24.148   3.220
26299W        W93082  18.580   5.291  11.473
26300W        W93083  42.796   2.200   1.192
26301W        W93084  34.110   4.386   2.623
26302W        W93085  13.207   1.146   3.366
26303W        W93086  30.511  22.056   1.303
26304W        W93087   2.710   2.034  10.312
26305W        W93088  11.234  28.973  14.356
26306W        W93089  36.797  44.068   3.705
26307W        W93090   7.155   4.498  13.478
26308W        W93091   2.693  36.608   4.190
26309W        W93092  28.055  38.878   4.154
26310W        W93093  26.920  20.161  11.061
26311W        W93094  16.563  13.839   0.414
26312W        W93095  17.999  10.575  11.180
26313W        W93096  42.329  40.402   0.407
26314W        W93097  15.463  41.754   3.295
26315W        W93098  10.268  30.403  12.537
26316W        W93099  14.875   2.206  11.917
26317W        W93100  36.368  40.274   3.789
26318W        W93101  15.618  12.167   1.166
26319W        W93102  28.645  35.567   0.330
26320W        W93103  30.308  35.472   3.027
26321W        W93104  38.014   1.988   2.312
26322W        W93105  23.631  30.855   1.929
26323W        W93106  38.861  19.862  10.448
26324W        W93107  27.236   2.364   4.390
26325W        W93108  12.404   1.421  12.760
26326W        W93109  43.762  39.747  13.063
26327W        W93110  10.148  12.283   5.235
26328W        W93111  12.811  40.960  11.251
26329W        W93112   8.129  24.075   3.936
26330W        W93113  27.386  28.001  13.108
26331W        W93114  17.945  22.700  13.287
26332W        W93115   5.930  17.984  11.619
26333W        W93116  28.982   8.766   0.703
26334W        W93117   2.385  25.082  12.140
26335W        W93118  35.411  40.522  13.290
26336W        W93119  18.315  27.388   2.812
26337W        W93120  29.915  11.406  12.938
26338W        W93121  32.649   4.372  12.423
26339W        W93122  30.911  31.441  14.976
26340W        W93123  36.554  28.707   0.537
26341W        W93124  13.471   3.670  12.894
26342W        W93125  25.640   1.792   1.321
26343W        W93126  32.313   5.431   4.030
26344W        W93127   6.457   6.312   0.890
26345W        W93128   2.185  41.042   4.507
26346W        W93129  41.461  11.799   0.180
26347W        W93130   4.408  13.696   3.353
26348W        W93131  29.934  40.702   4.553
26349W        W93132  34.929  40.663   2.032
26350W        W93133  15.375  44.554  14.479
26351W        W93134   7.279  17.158   2.634
26352W        W93135  21.362  34.361   1.270
26353W        W93136  12.738  13.502  12.995
26354W        W93137  20.741   8.709   3.997
26355W        W93138  39.816  34.454  14.008
26356W        W93139  39.012   0.270  12.060
26357W        W93140  17.143  23.970  14.510
26358W        W93141  16.798  31.504   2.391
26359W        W93142  25.455  31.707   4.441
26360W        W93143  14.601  13.681   1.353
26361W        W93144  18.865   4.256  11.962
26362W        W93145  23.414  24.005   0.760
26363W        W93146  43.263  35.287  11.098
26364W        W93147   2.204  15.327  12.918
26365W        W93148  17.771   2.819  14.032
26366W        W93149  36.798  13.501  12.453
26367W        W93150  41.812  20.254   4.092
26368W        W93151  29.076  30.622  14.492
26369W        W93152   2.175  15.125   4.109
26370W        W93153  30.988  43.425  14.412
26371W        W93154  14.696  37.234   4.495
26372W        W93155  37.377  40.950  13.212
26373W        W93156  39.361  43.936  13.358
26374W        W93157  15.650   8.360   0.298
26375W        W93158  44.993  10.582   2.426
26376W        W93159  43.481  41.331   0.900
26377W        W93160  43.283  19.870   1.343
26378W        W93161  20.533  42.344  12.982
26379W        W93162   2.253  34.065   4.500
26380W        W93163  28.938  25.546   2.694
26381W        W93164   8.851  36.867  12.895
26382W        W93165  16.368  42.455   2.502
26383W        W93166   3.837  33.643  12.648
26384W        W93167  37.808  27.671  12.018
26385W        W93168  39.821  39.638   0.281
26386W        W93169  42.329  31.436  14.948
26387W        W93170  18.154  15.054   3.188
26388W        W93171   0.784   5.438   3.794
26389W        W93172  35.883  14.320   0.093
26390W        W93173  12.788  27.832   3.699
26391W        W93174  43.957  44.011  12.173
26392W        W93175  35.242   6.023   4.130
26393W        W93176  21.078  18.526  11.984
26394W        W93177   5.335  44.864   0.699
26395W        W93178  27.067   6.932  10.821
26396W        W93179   7.262  38.772   2.285
26397W        W93180  31.906   8.877   1.779
26398W        W93181  10.826   4.966   2.755
26399W        W93182  38.345  44.307  11.666
26400W        W93183  40.924  39.614   0.734
26401W        W93184  44.921  25.099  14.541
26402W        W93185  17.345  27.565   4.141
26403W        W93186   0.737  34.540  12.508
26404W        W93187  19.343   3.169  12.881
26405W        W93188  29.198  32.086   3.295
26406W        W93189  18.099   8.129   4.166
26407W        W93190  16.088   2.769  12.802
26408W        W93191  38.425  16.349   4.744
26409W        W93192   6.158  16.688   1.379
26410W        W93193   8.272   8.113   3.597
26411W        W93194  32.858  24.138   4.034
26412W        W93195  19.256  38.875   4.790
26413W        W93196  23.949  33.865  11.542
26414W        W93197   9.594   3.218   0.386
26415W        W93198  14.377  35.250   5.057
26416W        W93199  16.578  19.620   0.794
26417W        W93200   9.817  19.601  11.900
26418W        W93201  37.665  29.455   2.401
26419W        W93202  34.093  20.560   0.463
26420W        W93203  10.716  39.528   4.577
26421W        W93204  42.068  27.196   0.278
26422W        W93205  11.663  27.900  11.478
26423W        W93206  22.457  32.959   1.163
26424W        W93207  30.023   5.991  11.461
26425W        W93208  13.886   6.779  11.205
26426W        W93209   5.313  26.733   2.222
26427W        W93210  14.745  18.639   2.095
26428W        W93211  27.565  26.068   3.275
26429W        W93212   3.340  34.483   9.858
26430W        W93213  15.041  22.616  12.002
26431W        W93214  26.901  27.535  14.065
26432W        W93215  33.218  15.919   1.801
26433W        W93216  19.952  42.841   1.413
26434W        W93217  38.100   8.702  11.812
26435W        W93218  40.109  39.911  14.929
26436W        W93219   3.019  25.047  11.312
26437W        W93220  24.572  31.488   3.580
26438W        W93221   0.325  16.117  14.791
26439W        W93222  33.387  31.261  14.991
26440W        W93223  14.264  23.987   0.555
26441W        W93224  43.940  35.506  11.376
26442W        W93225  44.637  26.882  14.050
26443W        W93226  10.416  15.831  14.013
26444W        W93227  24.120  27.147   2.269
26445W        W93228   0.977  29.564  12.563
26446W        W93229  32.892  43.649   2.718
26447W        W93230  14.173   8.551   0.423
26448W        W93231   6.935  23.132   4.341
26449W        W93232  12.578  15.004   0.870
26450W        W93233  17.788  41.234  11.160
26451W        W93234   3.304  16.524   4.890
26452W        W93235  11.209  28.538  10.891
26453W        W93236  14.311   1.681   2.897
26454W        W93237   7.773  25.511  14.760
26455W        W93238   1.369   6.086  12.510
26456W        W93239  40.186  23.758  12.514
26457W        W93240  44.981  19.054   3.665
26458W        W93241  16.638  24.124  11.303
26459W        W93242  14.298   7.982  12.178
26460W        W93243  40.840   4.709  14.356
26461W        W93244  11.094  37.908  12.974
26462W        W93245   6.214  44.361   1.332
26463W        W93246   5.728   6.834  10.727
26464W        W93247  36.411   6.293   2.861
26465W        W93248  43.537  35.055   0.373
26466W        W93249  42.880  15.603  14.790
26467W        W93250  44.522   4.856   1.844
26468W        W93251  29.811  28.844  13.117
26469W        W93252  40.457  31.318   1.452
26470W        W93253  42.491  11.539   2.424
26471W        W93254   2.191  27.720   3.288
26472W        W93255  27.488  14.529  12.655
26473W        W93256  39.345  42.419   4.552
26474W        W93257   3.295  11.280  12.679
26475W        W93258  11.751   9.868   3.952
26476W        W93259   8.684  26.026  14.961
26477W        W93260  33.177  22.400   3.193
26478W        W93261  43.702  19.211   3.268
26479W        W93262  41.000  42.062  10.987
26480W        W93263   2.881   2.863  10.804
26481W        W93264  33.167   8.235   1.848
26482W        W93265  20.680  23.645   2.885
26483W        W93266  34.644  43.751  11.954
26484W        W93267  39.381  30.469  10.612
26485W        W93268  23.653  42.489  10.838
26486W        W93269   5.897  21.770  12.789
26487W        W93270  28.145  28.415   2.775
26488W        W93271   7.352  31.516   2.885
26489W        W93272   0.448  21.642   1.306
26490W        W93273  13.108  33.130   1.329
26491W        W93274  34.521  21.234  12.794
26492W        W93275   1.448  26.088   1.447
26493W        W93276  12.400   4.827   4.798
26494W        W93277  43.922  22.690  14.886
26495W        W93278  17.761  12.362   0.901
26496W        W93279  33.959  36.057   2.837
26497W        W93280  19.894  31.577  14.766
26498W        W93281  33.396  28.561  14.987
26499W        W93282  20.950  17.727  10.953
26500W        W93283  21.050  14.734   5.055
26501W        W93284  30.936   1.306  14.472
26502W        W93285  15.088  15.379  12.880
26503W        W93286   0.122   1.471   3.643
26504W        W93287  15.496  18.303   4.887
26505W        W93288  17.685  39.774   4.549
26506W        W93289   9.749  26.536   0.545
26507W        W93290   4.458  41.561   4.427
26508W        W93291   4.524   8.966   2.219
26509W        W93292  32.463  41.825   1.774
26510W        W93293   2.205  22.587  12.426
26511W        W93294  39.818  30.282   4.621
26512W        W93295  13.024  14.606  11.654
26513W        W93296  26.207  37.033  10.719
26514W        W93297  33.022  43.268   1.380
26515W        W93298  11.464  16.535  13.283
26516W        W93299  16.276  35.599  12.038
26517W        W93300   9.874   9.744   1.779
26518W        W93301  11.646  41.673   0.970
26519W        W93302   1.488  16.614  12.873
26520W        W93303  25.985  22.614  10.735
26521W        W93304  38.009  13.029  11.512
26522W        W93305  12.205   0.435  12.695
26523W        W93306  14.785  37.045  11.290
26524W        W93307   8.416   0.024   0.893
26525W        W93308   6.962  11.397   4.507
26526W        W93309   4.801  35.895  13.431
26527W        W93310  34.937  43.970  10.991
26528W        W93311   7.257  38.744   3.707
26529W        W93312  44.963   5.365  12.451
26530W        W93313  25.191  20.921  11.748
26531W        W93314  28.084  24.902  13.921
26532W        W93315   2.398  30.854  13.984
26533W        W93316   5.240   9.238  13.107
26534W        W93317  37.575  41.915   2.872
26535W        W93318   6.125  12.124  11.453
26536W        W93319  28.142  36.356   1.960
26537W        W93320   9.401  39.961  10.618
26538W        W93321  20.616  34.790   1.857
26539W        W93322  42.355   4.509   2.254
26540W        W93323   2.354  27.195  12.266
26541W        W93324   2.145  40.917  12.547
26542W        W93325  40.031  37.549   0.943
26543W        W93326  18.576   0.432   2.775
26544W        W93327   6.815  24.570  11.974
26545W        W93328  35.404  37.532  14.826
26546W        W93329  15.746  44.381  10.628
26547W        W93330  23.565  15.498   3.758
26548W        W93331   5.414   3.425   4.123
26549W        W93332   3.413  17.425  13.098
26550W        W93333  30.584  11.756  14.984
26551W        W93334  42.434  16.140   4.567
26552W        W93335  12.135  10.908   3.951
26553W        W93336  43.783   0.661   1.182
26554W        W93337  33.912  17.582   0.893
26555W        W93338  16.321   6.832  14.973
26556W        W93339  43.508  28.970   4.813
26557W        W93340   3.100  17.857  13.116
26558W        W93341   1.952  10.261   4.708
26559W        W93342  24.164   3.665  12.788
26560W        W93343  16.177  10.838   4.241
26561W        W93344  24.878   1.506   2.377
26562W        W93345  11.043  21.521  14.298
26563W        W93346  37.583  31.893   0.811
26564W        W93347  43.923  40.045   0.782
26565W        W93348   2.323  13.124  12.752
26566W        W93349  40.097  44.854   2.326
26567W        W93350  25.504  11.413  14.263
26568W        W93351  34.855   1.978   3.687
26569W        W93352  19.735  30.886  12.200
26570W        W93353  29.750  33.432   3.749
26571W        W93354   3.425  13.094   4.565
26572W        W93355   9.754  21.791  12.060
26573W        W93356   0.443  22.313   0.799
26574W        W93357  34.689  40.002   1.288
26575W        W93358  33.094  31.676   0.991
26576W        W93359  26.591  42.937  14.476
26577W        W93360  44.627  12.777   0.008
26578W        W93361  25.956  18.649   3.726
26579W        W93362  23.241  38.236  14.256
26580W        W93363   0.830  26.928  14.437
26581W        W93364  34.005   4.876   1.805
26582W        W93365  15.600  43.670  13.125
26583W        W93366   7.265  28.938   0.301
26584W        W93367  37.385  28.377  14.981
26585W        W93368  27.042  34.414   2.519
26586W        W93369  19.659  28.693   2.231
26587W        W93370  26.129  24.528  11.925
26588W        W93371  36.273  19.713  11.619
26589W        W93372  29.189  21.619  13.527
26590W        W93373  19.172  16.584  11.409
26591W        W93374  21.871  24.064   1.765
26592W        W93375   1.684  38.854  11.480
26593W        W93376  15.101  13.787   4.265
26594W        W93377  24.702  36.430  14.881
26595W        W93378  18.512  42.594  12.069
26596W        W93379   4.192  31.993   0.344
26597W        W93380  41.758  12.516   5.091
26598W        W93381  40.939   6.775   1.225
26599W        W93382  20.559  32.639  12.604
26600W        W93383  29.109  37.826   0.395
26601W        W93384  31.011  21.801   1.324
26602W        W93385  44.567  23.618   0.422
26603W        W93386  41.879  22.185  14.456
26604W        W93387  31.158   9.083   4.053
26605W        W93388   1.518  19.722   3.261
26606W        W93389  20.118  35.787   4.111
26607W        W93390   1.265   3.871  13.467
26608W        W93391  25.244  44.421   4.104
26609W        W93392  34.542  24.472  11.959
26610W        W93393  17.530  29.051   2.814
26611W        W93394  30.499  36.437   1.711
26612W        W93395  26.497  44.324  13.238
26613W        W93396  39.930  39.778  11.167
26614W        W93397   8.392  41.862  14.986
26615W        W93398   3.904   6.297   1.913
26616W        W93399  42.954  28.177  12.549
26617W        W93400  25.428  17.789   4.401
26618W        W93401  22.997  25.660   3.670
26619W        W93402   0.426   1.761  12.972
26620W        W93403  17.694  39.531   3.140
26621W        W93404  14.055  23.655  14.798
26622W        W93405  25.602  27.951   9.773
26623W        W93406  16.817  35.823  13.335
26624W        W93407  16.881  17.258   0.722
26625W        W93408  26.404  22.494   4.349
26626W        W93409  17.812  11.157   3.134
26627W        W93410  43.250  25.997  11.225
26628W        W93411  35.902  20.616   2.384
26629W        W93412  21.274  44.917  14.493
26630W        W93413  35.363  19.720  14.389
26631W        W93414  25.660  18.662   5.161
26632W        W93415  33.014  27.321   4.323
26633W        W93416  30.551   5.233  11.732
26634W        W93417  15.741  27.201   3.168
26635W        W93418  35.432   8.515   3.344
26636W        W93419  22.365   9.676  13.415
26637W        W93420  16.844  29.728  12.127
26638W        W93421  18.007  22.999   3.606
26639W        W93422  41.924   3.557  12.990
26640W        W93423  27.622   7.641  14.493
26641W        W93424  18.981  22.116  13.005
26642W        W93425  27.063   9.887   4.196
26643W        W93426  44.372   4.224  13.361
26644W        W93427  38.315  39.744   2.766
26645W        W93428   4.844  26.440   2.274
26646W        W93429   0.207  44.542  13.500
26647W        W93430  26.061  25.553  14.457
26648W        W93431  30.930   6.608   4.147
26649W        W93432  44.186  15.617   3.968
26650W        W93433  34.664   5.330   5.437
26651W        W93434  34.414  14.336   4.010
26652W        W93435  28.148  22.843   3.115
26653W        W93436  28.019  43.882  11.425
26654W        W93437  32.906  24.557   9.758
26655W        W93438  32.444  26.304   2.315
26656W        W93439  33.965  32.319  13.965
26657W        W93440  12.909  18.082  13.918
26658W        W93441   7.339  37.915   3.682
26659W        W93442   7.084  35.097   0.272
26660W        W93443  41.047   0.496   4.594
26661W        W93444  39.131  11.954   2.730
26662W        W93445  29.535  37.027  14.709
26663W        W93446  12.039  18.983  10.523
26664W        W93447  20.566  38.468   0.819
26665W        W93448  38.522   1.932   0.686
26666W        W93449   6.850  42.221  10.825
26667W        W93450  19.655   9.764   0.537
26668W        W93451   8.675  30.665  10.002
26669W        W93452  30.174   7.847  11.903
26670W        W93453  44.344  18.060   4.557
26671W        W93454  30.535  39.175  10.058
26672W        W93455  21.482   1.366  14.708
26673W        W93456  17.791   3.252   1.287
26674W        W93457  38.605  25.646  10.736
26675W        W93458  41.673  43.813   2.202
26676W        W93459   9.276  12.938  11.082
26677W        W93460  32.861  41.807  11.165
26678W        W93461  25.073  16.160  12.455
26679W        W93462  12.729  36.140  11.277
26680W        W93463  25.551  18.268  13.271
26681W        W93464  15.871  26.725   4.347
26682W        W93465  31.949   3.528   1.433
26683W        W93466  25.648   0.690   1.399
26684W        W93467  32.012   2.421   0.739
26685W        W93468   1.477  11.847   4.685
26686W        W93469  43.557  42.540  12.516
26687W        W93470  19.679  22.270   2.407
26688W        W93471  37.419  24.895  11.968
26689W        W93472  34.626  10.328  13.959
26690W        W93473   7.313  19.028   0.351
26691W        W93474   0.325  13.743   1.134
26692W        W93475   3.525  34.953   1.798
26693W        W93476  40.062  41.332  14.473
26694W        W93477   3.514  30.828  13.113
26695W        W93478  36.228  31.351  12.462
26696W        W93479   3.973   4.595   2.724
26697W        W93480  31.249   3.999   2.023
26698W        W93481  31.671  27.841  12.528
26699W        W93482  43.499  15.787  12.993
26700W        W93483  34.445  13.788   3.153
26701W        W93484  13.846  20.540  11.810
26702W        W93485  35.176  44.253  12.961
26703W        W93486  24.450   6.444  11.999
26704W        W93487  33.384  12.934  12.382
26705W        W93488  32.827  33.608  12.536
26706W        W93489  17.249  21.659   3.297
26707W        W93490  17.289  29.411  12.140
26708W        W93491  20.232   7.541   3.323
26709W        W93492  20.010  29.962  14.277
26710W        W93493  26.653  43.761   2.273
26711W        W93494  11.580  26.447   3.219
26712W        W93495  16.171  26.602  14.339
26713W        W93496  37.399  10.628  12.471
26714W        W93497  28.656  30.638  14.842
26715W        W93498  36.608  34.504   0.386
26716W        W93499   6.323   6.806  12.089
26717W        W93500  43.961   4.461  14.406
26718W        W93501  28.443  21.464  12.074
26719W        W93502  16.804  15.300  13.525
26720W        W93503  19.924   3.828  10.778
26721W        W93504   5.081  23.037   4.561
26722W        W93505  41.214  11.622  13.752
26723W        W93506  39.333  33.678  13.118
26724W        W93507   5.937  12.943   3.284
26725W        W93508  15.090  28.919   4.104
26726W        W93509  10.733  32.566   0.780
26727W        W93510  30.464  39.951  13.086
26728W        W93511  25.438  10.355   4.673
26729W        W93512  15.124  16.571   1.019
26730W        W93513  26.623   3.943   2.571
26731W        W93514   3.745  23.151  14.805
26732W        W93515  43.795   3.817  12.181
26733W        W93516  39.053  17.723   0.775
26734W        W93517  28.718  27.414   2.355
26735W        W93518  20.545  26.008   1.141
26736W        W93519  29.193   3.276   2.344
26737W        W93520  31.004   2.909  11.571
26738W        W93521  36.683  21.329   1.648
26739W        W93522   6.484   1.298   2.750
26740W        W93523  19.785   4.254  12.850
26741W        W93524  32.620  44.424   4.531
26742W        W93525  31.478   0.831   3.163
26743W        W93526  42.076  26.997  12.967
26744W        W93527  27.927  36.479   0.968
26745W        W93528   3.704  22.663   4.262
26746W        W93529  43.890  19.296   0.885
26747W        W93530  43.757  32.584   1.748
26748W        W93531  29.963  42.039   1.161
26749W        W93532  41.688  18.628   4.161
26750W        W93533  37.031   5.949  11.921
26751W        W93534  13.416  32.489   0.528
26752W        W93535  26.164  35.451  13.870
26753W        W93536   8.144  17.046  11.645
26754W        W93537  12.053  15.168  10.682
26755W        W93538   3.916   3.392  14.230
26756W        W93539  34.699   1.842   1.423
26757W        W93540  14.229  25.071   0.364
26758W        W93541   6.478  26.968  13.450
26759W        W93542   9.905   1.698   2.175
26760W        W93543  44.243  37.370  12.554
26761W        W93544  20.964  15.562  12.042
26762W        W93545  24.586  11.853   4.826
26763W        W93546  37.807  12.147   2.883
26764W        W93547   9.427  17.497   2.770
26765W        W93548   2.987   0.691   3.517
26766W        W93549  36.634  29.593  13.942
26767W        W93550  38.543   4.743   2.317
26768W        W93551  43.737  12.409   0.229
26769W        W93552  38.414  16.875   1.832
26770W        W93553  24.180  32.661   0.414
26771W        W93554  17.492  39.932  14.393
26772W        W93555  10.614  11.150   1.025
26773W        W93556  43.816  15.017  14.707
26774W        W93557  32.753  10.750   2.975
26775W        W93558  17.554   4.354  13.525
26776W        W93559  27.703  25.089  10.911
26777W        W93560  15.831  17.651  11.886
26778W        W93561   5.693  13.235   1.508
26779W        W93562  40.981  43.202  12.102
26780W        W93563  41.082  29.796  13.428
26781W        W93564  32.441  34.354  11.947
26782W        W93565  23.765  34.821   9.924
26783W        W93566   9.265   1.966  14.888
26784W        W93567   5.458  21.612  13.043
26785W        W93568   8.902  36.822   2.554
26786W        W93569  17.626   5.866  14.167
26787W        W93570   8.220  24.083   0.061
26788W        W93571   3.461   9.724   3.757
26789W        W93572  10.578   2.749  14.186
26790W        W93573  15.092  10.882  14.276
26791W        W93574  12.860  16.982   4.956
26792W        W93575  38.334  31.221   2.772
26793W        W93576  36.980  33.918   0.633
26794W        W93577  28.513  16.165  13.052
26795W        W93578  21.586  44.531   0.566
26796W        W93579  21.694  35.156   0.853
26797W        W93580  40.273   4.154  13.484
26798W        W93581  30.913  34.705   1.908
26799W        W93582  14.300  16.572  13.838
26800W        W93583   8.470  23.277   1.831
26801W        W93584  39.933   3.338  14.483
26802W        W93585  18.092  36.318   3.280
26803W        W93586  11.478  34.954  13.813
26804W        W93587   4.433   5.665   2.065
26805W        W93588   4.240  34.296   0.252
26806W        W93589  38.331  22.021   1.684
26807W        W93590  16.086  16.034   1.981
26808W        W93591  19.625  18.874   3.152
26809W        W93592   5.681   4.716   1.307
26810W        W93593  31.657  33.447  14.808
26811W        W93594  23.971   4.272   4.189
26812W        W93595  43.586  22.592   0.395
26813W        W93596  20.504  42.273   2.562
26814W        W93597  24.935  38.038   2.445
26815W        W93598  41.503   5.797  11.583
26816W        W93599  24.907  35.470  12.117
26817W        W93600   4.484   1.691  13.341
26818W        W93601  24.185  12.024  13.846
26819W        W93602  39.949  12.169  14.459
26820W        W93603   3.680  21.641   2.257
26821W        W93604   4.995   4.594   3.629
26822W        W93605   6.456   4.214   2.700
26823W        W93606  11.393   6.690  11.282
26824W        W93607  34.471  23.637  10.656
26825W        W93608  41.113  28.484   4.265
26826W        W93609  37.191  39.776  11.223
26827W        W93610  21.271  24.165   0.443
26828W        W93611  21.217  42.932  13.749
26829W        W93612   7.268  43.366   4.366
26830W        W93613  43.211   8.447   4.354
26831W        W93614  11.279   2.750  14.899
26832W        W93615   0.271  33.851   0.421
26833W        W93616  12.726  14.454   5.044
26834W        W93617  43.459  21.388  10.048
26835W        W93618   8.816  30.468  13.492
26836W        W93619  31.646  12.479  11.073
26837W        W93620  30.004  29.071   1.873
26838W        W93621  19.936  26.050  10.688
26839W        W93622  19.216  19.108   2.388
26840W        W93623  10.788   6.363  12.615
26841W        W93624  39.112   6.615   3.317
26842W        W93625  30.592  41.934   0.281
26843W        W93626  17.605  29.545   2.948
26844W        W93627  30.379  43.823  12.622
26845W        W93628  41.754  40.146   0.319
26846W        W93629  34.004  13.178  14.356
26847W        W93630  32.642  10.561  14.309
26848W        W93631   3.011  10.236   0.321
26849W        W93632  37.592  15.140  11.074
26850W        W93633  12.827  33.646  12.495
26851W        W93634  32.466  41.955   0.372
26852W        W93635  17.543  33.467   1.281
26853W        W93636  16.660  23.860   2.290
26854W        W93637  33.012  43.026   3.216
26855W        W93638  28.893  19.277   1.444
26856W        W93639  11.775  13.123   0.546
26857W        W93640   7.365  39.509  12.436
26858W        W93641  27.422  30.691   4.150
26859W        W93642  22.317  26.534   3.212
26860W        W93643  44.805  33.643   0.524
26861W        W93644   9.788  15.061  10.563
26862W        W93645  30.638  39.338   1.335
26863W        W93646   5.732  42.987  11.480
26864W        W93647   1.713  21.578   1.864
26865W        W93648   9.738   8.320   3.875
26866W        W93649  19.065  21.861  14.438
26867W        W93650  30.593   1.738   3.345
26868W        W93651  38.314  18.207   0.767
26869W        W93652  28.764  30.700   4.341
26870W        W93653   5.388  29.203   0.257
26871W        W93654  43.047  41.701  11.113
26872W        W93655   4.324  39.135  11.601
26873W        W93656  26.630  21.577  13.358
26874W        W93657  11.259   2.681  13.014
26875W        W93658  23.031  39.951  12.160
26876W        W93659   6.492  28.527  10.509
26877W        W93660  28.214  35.017  12.909
26878W        W93661   3.887  42.932  14.049
26879W        W93662  16.056  13.435  14.393
26880W        W93663  37.061  31.416   3.597
26881W        W93664  14.101  41.121  10.328
26882W        W93665  16.190  30.765  14.224
26883W        W93666   5.166  26.399  10.509
26884W        W93667   2.432  16.601  12.563
26885W        W93668  38.390   0.780   3.563
26886W        W93669  14.314  28.801   1.297
26887W        W93670   7.325  10.245  14.859
26888W        W93671  15.942  37.610  12.452
26889W        W93672  42.324  19.720   1.796
26890W        W93673  39.256   1.929  11.093
26891W        W93674  17.154  41.565   4.720
26892W        W93675  14.278  13.041   2.081
26893W        W93676  31.698  23.342   1.795
26894W        W93677  16.702  39.299   0.929
26895W        W93678   4.187  44.293  11.548
26896W        W93679  39.048  28.184   4.087
26897W        W93680  17.162   1.992   3.228
26898W        W93681  27.841  33.022   3.369
26899W        W93682   8.964   8.909   0.017
26900W        W93683  14.515  35.433  13.475
26901W        W93684   0.250  16.228   3.177
26902W        W93685  12.360  23.848   3.629
26903W        W93686  18.121   1.697   4.771
26904W        W93687  26.228  15.342   2.236
26905W        W93688  35.170  21.165  10.010
26906W        W93689  25.008  37.383   1.072
26907W        W93690  37.497  17.521   4.054
26908W        W93691   3.963  18.522   2.843
26909W        W93692  13.893  17.819  12.866
26910W        W93693  40.703  24.556   3.308
26911W        W93694   5.873  38.957   1.790
26912W        W93695  33.752   6.307  12.565
26913W        W93696  44.958  43.614  13.094
26914W        W93697  22.521  32.031  12.541
26915W        W93698  31.072   9.197   4.801
26916W        W93699  31.172  36.996  13.020
26917W        W93700   2.673  18.557  12.473
26918W        W93701  42.809  29.523  13.969
26919W        W93702   0.956   3.970  12.153
26920W        W93703  10.909  22.576  13.004
26921W        W93704  34.844  37.000  10.840
26922W        W93705  43.438  29.374   4.479
26923W        W93706  37.137  40.023  13.467
26924W        W93707  39.884  20.113   4.031
26925W        W93708   5.670  37.386   0.851
26926W        W93709  18.607   7.341   3.694
26927W        W93710  16.225  24.525  12.987
26928W        W93711  21.661   8.766   2.783
26929W        W93712  31.210  20.104  10.617
26930W        W93713  40.323  12.726   3.238
26931W        W93714  32.812  16.170  13.978
26932W        W93715  29.250   0.984  14.013
26933W        W93716  41.522  29.514  13.618
26934W        W93717  17.020   5.156   2.337
26935W        W93718  43.875   5.970   2.287
26936W        W93719   9.624  29.974  13.839
26937W        W93720  12.813  24.143  13.631
26938W        W93721  26.615  43.933  13.592
26939W        W93722  17.792  11.464   2.708
26940W        W93723  11.642  41.601  13.281
26941W        W93724  31.671  10.793   2.444
26942W        W93725  19.826  44.775  13.511
26943W        W93726  35.453  33.694   1.312
26944W        W93727   8.875   4.393   4.559
26945W        W93728  22.909  17.681  14.371
26946W        W93729  32.178  44.569  12.312
26947W        W93730  32.186  20.044   0.132
26948W        W93731  26.150  36.529  11.792
26949W        W93732   2.811  21.015  11.076
26950W        W93733  41.565  18.287   0.120
26951W        W93734  16.605  42.453  14.388
26952W        W93735  17.808  33.806  10.942
26953W        W93736  44.172  29.863   2.379
26954W        W93737  38.765  27.047  14.867
26955W        W93738  27.582   5.393   3.367
26956W        W93739  38.877  16.860   0.241
26957W        W93740  22.782  34.833  10.187
26958W        W93741  30.639  26.338  13.911
26959W        W93742   1.877  12.047   1.996
26960W        W93743  23.994  10.093  11.303
26961W        W93744   1.748  12.135  13.495
26962W        W93745  36.551  27.568   3.389
26963W        W93746  21.998  43.977  13.847
26964W        W93747  21.898  36.107  11.587
26965W        W93748  15.394  17.702   4.092
26966W        W93749  20.328  41.818  14.908
26967W        W93750  32.001  23.126  13.971
26968W        W93751  34.471  40.403   0.041
26969W        W93752  35.752   4.115  13.804
26970W        W93753   9.384  31.635   4.612
26971W        W93754   9.634  12.217   4.711
26972W        W93755  41.994  38.494   1.954
26973W        W93756  10.746   0.838   3.605
26974W        W93757  32.579  27.111   2.605
26975W        W93758  44.312  16.083  11.071
26976W        W93759   9.094  13.288  14.905
26977W        W93760  10.752  10.752  14.452
26978W        W93761   4.057  37.463  11.373
26979W        W93762  15.088  43.540   0.322
26980W        W93763   5.846  28.949   0.198
26981W        W93764  12.761   6.099   3.134
26982W        W93765   0.406  24.539   2.558
26983W        W93766  23.374   1.948  11.690
26984W        W93767  10.781  41.908  12.769
26985W        W93768  33.972  42.391   1.639
26986W        W93769  27.994  44.286   0.531
26987W        W93770  23.508  10.837  13.444
26988W        W93771   3.274  27.985   4.632
26989W        W93772  18.166  14.223   1.883
26990W        W93773  21.026  16.153   4.089
26991W        W93774  42.453  25.481  14.832
26992W        W93775  35.880  14.395   1.579
26993W        W93776  23.087  30.996  10.797
26994W        W93777  25.230   5.191   2.800
26995W        W93778  41.881  36.363  12.903
26996W        W93779  36.841  44.416   0.766
26997W        W93780  22.548  39.658   3.721
26998W        W93781   2.168  10.726   4.732
26999W        W93782  34.533  38.941  14.527
27000W        W93783  29.012  31.644   0.398
27001W        W93784  38.703  39.608   0.899
27002W        W93785  30.162  11.640   3.809
27003W        W93786  19.183  41.402  13.386
27004W        W93787  29.907  22.659   4.655
27005W        W93788  23.673   3.081   3.059
27006W        W93789   4.290   3.952  12.425
27007W        W93790  17.339   1.408  10.733
27008W        W93791  23.784  25.071   2.018
27009W        W93792  39.806   6.656  10.342
27010W        W93793  35.918  15.056   3.646
27011W        W93794  28.055   0.518  11.114
27012W        W93795  26.534  24.531   0.991
27013W        W93796   1.412  24.980  14.572
27014W        W93797  42.094   9.047  13.799
27015W        W93798  13.643   9.811  13.516
27016W        W93799  19.645   4.316  14.193
27017W        W93800  22.926  26.725  14.347
27018W        W93801  40.059   0.660  10.722
27019W        W93802  31.079  22.361  13.421
27020W        W93803   1.792  16.981  13.084
27021W        W93804  14.309  30.519   0.287
27022W        W93805  21.615  32.695   3.323
27023W        W93806   2.128  32.528   3.396
27024W        W93807  34.793  27.864   4.137
27025W        W93808   1.389  29.297   3.197
27026W        W93809  33.701  36.245   2.418
27027W        W93810   2.084  32.577  11.053
27028W        W93811   6.894   8.411   4.752
27029W        W93812  44.846  29.169  14.476
27030W        W93813  23.005   2.442  10.949
27031W        W93814  40.091   5.474  12.038
27032W        W93815  29.988  36.863  11.552
27033W        W93816  29.287  34.018  11.988
27034W        W93817  29.168  21.741  12.062
27035W        W93818  22.821  22.662  12.580
27036W        W93819  18.762  15.611  11.994
27037W        W93820  16.816  29.953   0.861
27038W        W93821  22.508   4.554  14.008
27039W        W93822  19.695  27.644   2.230
27040W        W93823  20.251  30.835  11.569
27041W        W93824  39.091  15.550   0.764
27042W        W93825  19.818  19.597   1.790
27043W        W93826  18.717   6.666  11.096
27044W        W93827  41.262  17.855   0.835
27045W        W93828  33.731  22.678   2.596
27046W        W93829  25.266  31.436  13.458
27047W        W93830  23.323  20.074  13.559
27048W        W93831  31.949  24.421   4.827
27049W        W93832  28.012   9.999   4.530
27050W        W93833   1.640  12.548   3.752
27051W        W93834  17.041   0.231  11.437
27052W        W93835  12.018   0.870  11.110
27053W        W93836   5.870  33.885   2.818
27054W        W93837  20.042  40.578  14.376
27055W        W93838  22.663  29.111  10.469
27056W        W93839  19.442  32.525   2.211
27057W        W93840  11.959  31.456   0.900
27058W        W93841  21.584   7.679   4.167
27059W        W93842  24.623  36.108   1.802
27060W        W93843   8.225  15.900   3.818
27061W        W93844  14.377  41.776   4.208
27062W        W93845  18.863  16.348  14.034
27063W        W93846  19.614   1.468  10.253
27064W        W93847  23.009  22.625  14.070
27065W        W93848  35.299   4.760   4.364
27066W        W93849   9.741  38.041  10.682
27067W        W93850  14.119   0.533  12.456
27068W        W93851   2.879  35.277  14.969
27069W        W93852  38.673  43.575  12.146
27070W        W93853  11.745  23.084  13.903
27071W        W93854  16.699  10.160   1.313
27072W        W93855   4.831  27.681   4.422
27073W        W93856  12.174  12.307   3.725
27074W        W93857  31.948  33.496   4.010
27075W        W93858  20.975  44.052  14.908
27076W        W93859   3.740  34.613  11.111
27077W        W93860  21.419  14.802   5.407
27078W        W93861  40.929  29.121  12.022
27079W        W93862  38.770  37.375  14.051
27080W        W93863   8.753   2.784  10.560
27081W        W93864  10.125  30.463   2.984
27082W        W93865   4.404   4.754   1.732
27083W        W93866  34.919  22.216   2.861
27084W        W93867  39.354  42.046  13.469
27085W        W93868  21.222   5.445  11.470
27086W        W93869  13.850  21.247  14.166
27087W        W93870  29.064   5.287   3.519
27088W        W93871  35.358   2.347  14.118
27089W        W93872  18.321  31.790   1.440
27090W        W93873   2.777   0.484   3.060
27091W        W93874  17.860   5.411  14.322
27092W        W93875   5.767  33.032   4.039
27093W        W93876   1.988   0.239   0.989
27094W        W93877  15.805  29.399   2.734
27095W        W93878  24.977  29.577  11.927
27096W        W93879  32.857  35.546   1.405
27097W        W93880  40.416  28.446  11.045
27098W        W93881  14.321  42.023   3.140
27099W        W93882   0.320  10.281   3.720
27100W        W93883  15.745  38.442   4.690
27101W        W93884  17.209  15.018  12.305
27102W        W93885   4.821  29.225   1.420
27103W        W93886  24.133  11.966  12.095
27104W        W93887  21.119   4.506   3.606
27105W        W93888  41.316  34.140  12.551
27106W        W93889  39.382  26.670  13.583
27107W        W93890  33.428  14.675   1.935
27108W        W93891   1.310  44.618   1.176
27109W        W93892  41.582   7.354   0.246
27110W        W93893  21.857  11.496  13.933
27111W        W93894  21.105  38.851   4.564
27112W        W93895   7.744  23.287  13.884
27113W        W93896  15.257   6.613  13.481
27114W        W93897  19.221  29.989   2.414
27115W        W93898  11.560  17.085  11.079
27116W        W93899  30.320  10.941   3.222
27117W        W93900  41.586  37.087   4.754
27118W        W93901  24.899  42.467   4.241
27119W        W93902  15.958  25.743  14.078
27120W        W93903  19.247  12.206  12.758
27121W        W93904  20.308  25.041  10.925
27122W        W93905   0.736  18.120   3.241
27123W        W93906  22.292   1.896   1.183
27124W        W93907  23.474  40.937  11.379
27125W        W93908  15.370  22.544   4.664
27126W        W93909  35.697  39.840  13.945
27127W        W93910  32.515  23.986  13.140
27128W        W93911  38.031  32.138  12.327
27129W        W93912   7.832  23.398  10.234
27130W        W93913   0.898  37.731   0.815
27131W        W93914  39.882  33.055  14.332
27132W        W93915  14.807  16.954   4.151
27133W        W93916  42.519  33.148  13.177
27134W        W93917   9.408  41.588  13.328
27135W        W93918  22.398  41.458   0.866
27136W        W93919  19.730  22.895   1.593
27137W        W93920  41.773   6.250   2.790
27138W        W93921  29.424   7.379   4.232
27139W        W93922  18.776  21.182  10.611
27140W        W93923  18.217   0.945  11.008
27141W        W93924  38.897   2.994   0.025
27142W        W93925  25.532  16.090  13.842
27143W        W93926   4.724  15.199  11.274
27144W        W93927  32.945   2.049   0.473
27145W        W93928  35.399  43.468   2.213
27146W        W93929  26.443   2.977  13.022
27147W        W93930  44.886  17.862  14.316
27148W        W93931  30.638   9.624  13.703
27149W        W93932  27.678  16.674  12.987
27150W        W93933  35.043  26.553  11.593
27151W        W93934   7.314   1.766  11.639
27152W        W93935  33.323  33.599  12.472
27153W        W93936  29.561  41.842  11.193
27154W        W93937   6.165   6.986   0.918
27155W        W93938  39.483  22.245  12.336
27156W        W93939  12.484  18.185  13.374
27157W        W93940  27.241   5.795   2.189
27158W        W93941  20.387  24.272   4.624
27159W        W93942  21.274   0.412   1.135
27160W        W93943  41.959  25.462   0.007
27161W        W93944  28.443  18.682   0.142
27162W        W93945  21.766  26.784  11.556
27163W        W93946  11.285  34.309   2.292
27164W        W93947  23.249  23.739   0.368
27165W        W93948  42.248  44.539   2.762
27166W        W93949   7.903  13.275  11.028
27167W        W93950  36.333  31.064   4.205
27168W        W93951  31.452  38.063   0.814
27169W        W93952  14.904  21.503  13.064
27170W        W93953  30.427  21.232   0.767
27171W        W93954  16.738   1.246  10.662
27172W        W93955   3.520  41.506  11.163
27173W        W93956  18.991  34.896  13.611
27174W        W93957  20.694  16.063   2.278
27175W        W93958   0.075  15.765   3.912
27176W        W93959   5.579  34.660   1.140
27177W        W93960  42.446  22.074   4.820
27178W        W93961  40.775   5.769   3.631
27179W        W93962  28.555  34.821   4.656
27180W        W93963  35.503  27.027  14.819
27181W        W93964  28.950  21.766  11.209
27182W        W93965  34.622  31.336  13.350
27183W        W93966   5.333   5.729  14.316
27184W        W93967  36.523  42.013  11.729
27185W        W93968  41.560  23.028  10.729
27186W        W93969  26.139  11.159   1.919
27187W        W93970  29.638  34.643   0.003
27188W        W93971   7.041  13.772   4.070
27189W        W93972   8.385  35.079  12.051
27190W        W93973  27.158  44.502   1.368
27191W        W93974   5.473  22.280  10.833
27192W        W93975  24.669  27.593  14.044
27193W        W93976  30.482  11.019   4.118
27194W        W93977  13.285   1.891   0.656
27195W        W93978  11.436  44.922  12.613
27196W        W93979   8.342  43.329   1.348
27197W        W93980   9.269  18.524   1.739
27198W        W93981  27.715   9.880   3.709
27199W        W93982  34.951   6.229  11.600
27200W        W93983   3.910   2.556  12.577
27201W        W93984  12.424  24.271  14.879
27202W        W93985   4.890  29.560   2.322
27203W        W93986  39.822  41.205   2.772
27204W        W93987  29.345   6.705  10.720
27205W        W93988   2.989  30.602  11.050
27206W        W93989  15.931  15.576   1.131
27207W        W93990  10.589  14.872  12.054
27208W        W93991  39.908  41.741   2.758
27209W        W93992   2.396  30.096  12.515
27210W        W93993  21.662  35.616  13.333
27211W        W93994  24.974  26.725   4.521
27212W        W93995  19.081  12.318  12.283
27213W        W93996  41.407  43.652  11.600
27214W        W93997  43.609   7.912  12.499
27215W        W93998   8.716   0.053   4.612
27216W        W93999  10.274  41.466  11.792
27217W        W94000  42.412  22.054  11.534
27218W        W94001  19.518  10.283  13.648
27219W        W94002  44.995  15.304  11.141
27220W        W94003  44.935  37.997   0.470
27221W        W94004   4.127   0.514   4.172
27222W        W94005   1.349  28.700  12.929
27223W        W94006   0.798  11.814   4.095
27224W        W94007  25.257  33.307  11.988
27225W        W94008  31.133  36.018   2.179
27226W        W94009  18.967  29.409  13.758
27227W        W94010  39.120  32.483  14.751
27228W        W94011   4.265  31.323   2.732
27229W        W94012   8.173  33.000   3.311
27230W        W94013  32.018  23.945  11.016
27231W        W94014  39.067  42.481   0.270
27232W        W94015   6.377  28.750   2.297
27233W        W94016  41.997  10.863  14.897
27234W        W94017  43.779  24.783  10.602
27235W        W94018  30.345  31.936  10.547
27236W        W94019  18.824   2.352   2.561
27237W        W94020  27.175  41.530   1.321
27238W        W94021   3.827  39.042   3.831
27239W        W94022   0.695  29.078  12.546
27240W        W94023  39.062  27.171   3.939
27241W        W94024  13.830  38.983  14.875
27242W        W94025  41.559   7.138   1.293
27243W        W94026  24.663  16.965  14.967
27244W        W94027   9.253  26.882  12.899
27245W        W94028  10.000   6.368   1.114
27246W        W94029  28.111  10.736  14.925
27247W        W94030   8.319  35.865  11.615
27248W        W94031  35.023   3.266  14.500
27249W        W94032  33.904  38.773  13.838
27250W        W94033  31.541  21.263  14.435
27251W        W94034   6.659  26.093   4.097
27252W        W94035   7.694  37.597  14.944
27253W        W94036  42.365  34.936   2.170
27254W        W94037  12.753  26.355   4.852
27255W        W94038  22.558  24.493   1.238
27256W        W94039  26.232  17.041   2.661
27257W        W94040  13.732  38.214   1.272
27258W        W94041   9.250  13.176   2.665
27259W        W94042   8.378  15.100   0.355
27260W        W94043   4.354   9.645  13.655
27261W        W94044  44.927   1.982  12.022
27262W        W94045  24.415  28.985   3.827
27263W        W94046  14.811   6.752   1.693
27264W        W94047   1.048  25.977  11.577
27265W        W94048   0.793  33.089   1.362
27266W        W94049  28.866   0.951   4.136
27267W        W94050   6.764  15.093   2.726
27268W        W94051   1.405  37.842  10.946
27269W        W94052  26.262  38.558  12.350
27270W        W94053   2.310  41.467   2.423
27271W        W94054  34.385  34.118   3.875
27272W        W94055   5.251   1.221   0.806
27273W        W94056  31.428  28.729  12.090
27274W        W94057  31.381  17.370   4.101
27275W        W94058  14.953  43.813  12.559
27276W        W94059   0.946  33.624   3.866
27277W        W94060   9.457   7.111   1.185
27278W        W94061  33.419   4.424  13.981
27279W        W94062  10.600   1.348   3.627
27280W        W94063  13.661  34.226   2.260
27281W        W94064  41.705   7.170  14.797
27282W        W94065  22.816  44.272   4.039
27283W        W94066   7.931  35.992  11.232
27284W        W94067  15.256  29.777  13.961
27285W        W94068   0.043   7.676   4.088
27286W        W94069  36.936  26.448  13.362
27287W        W94070  19.559   0.991   3.224
27288W        W94071  18.466  34.915  13.467
27289W        W94072  13.637   7.937  14.497
27290W        W94073  41.267  17.311   1.493
27291W        W94074   2.738  13.260  13.760
27292W        W94075  31.840  30.533  12.033
27293W        W94076  23.206  21.987   4.038
27294W        W94077  21.705  20.699   0.907
27295W        W94078  43.307  28.504   4.738
27296W        W94079   2.720   0.013   2.590
27297W        W94080  21.254  16.528  13.529
27298W        W94081  35.518   4.316  12.377
27299W        W94082   7.518  28.088  10.798
27300W        W94083   8.181  33.317  12.573
27301W        W94084  10.327  23.629   3.710
27302W        W94085  15.163  11.327   3.089
27303W        W94086   1.694  32.985  12.073
27304W        W94087  41.521  30.194   1.364
27305W        W94088  11.185  16.339   3.311
27306W        W94089   6.144  26.283  14.085
27307W        W94090  19.832  39.777  12.404
27308W        W94091  24.637  37.038   2.277
27309W        W94092  42.448  42.325   3.679
27310W        W94093  32.675   0.777   3.578
27311W        W94094  34.711  28.358   0.992
27312W        W94095   9.348  27.911  12.612
27313W        W94096   2.988   5.419   3.352
27314W        W94097   4.874   4.951   0.985
27315W        W94098  40.501  37.444  13.355
27316W        W94099  23.548  20.194   1.378
27317W        W94100  38.365  17.667   3.941
27318W        W94101  16.744  26.360   0.881
27319W        W94102  36.367  18.000  11.115
27320W        W94103  28.948  36.990   4.179
27321W        W94104  17.504   4.906   0.358
27322W        W94105  29.316  25.626  13.833
27323W        W94106  26.128  17.658   0.462
27324W        W94107   3.041  39.108  13.862
27325W        W94108  11.341   0.543   4.553
27326W        W94109  25.118  21.924  13.321
27327W        W94110  15.679  24.143   2.193
27328W        W94111   0.882   9.303   0.303
27329W        W94112  34.752  29.886   0.456
27330W        W94113  22.616  21.814  14.510
27331W        W94114  17.884  38.629   4.126
27332W        W94115  15.346  12.240   3.971
27333W        W94116   3.193   9.817   3.051
27334W        W94117   4.532  39.838  10.671
27335W        W94118  34.460  27.256   0.320
27336W        W94119  19.869   8.469   4.220
27337W        W94120  38.023  16.046   1.794
27338W        W94121  22.479  31.557  11.296
27339W        W94122  14.214  10.072  13.915
27340W        W94123  31.226  10.393   3.828
27341W        W94124  16.124  39.444   1.952
27342W        W94125  19.595  17.241   4.356
27343W        W94126  30.935   4.199  14.810
27344W        W94127  30.413  35.680  11.649
27345W        W94128  32.882  38.361  12.761
27346W        W94129  18.667  38.133  12.966
27347W        W94130  17.219  36.474   3.746
27348W        W94131  42.539   9.698   1.993
27349W        W94132  32.675  44.829  12.254
27350W        W94133   5.367  29.711   4.172
27351W        W94134  22.277  30.975   2.294
27352W        W94135   9.700   0.937   4.135
27353W        W94136  43.289  32.288  12.619
27354W        W94137   5.106  19.363  13.599
27355W        W94138  17.726  35.965   0.740
27356W        W94139  21.707  12.300   4.151
27357W        W94140   8.876  22.550  13.941
27358W        W94141   4.530   4.893  13.375
27359W        W94142  16.984   7.351   3.717
27360W        W94143  19.599  39.167   4.024
27361W        W94144  44.550  28.256   4.117
27362W        W94145  43.348  42.035   2.368
27363W        W94146  15.559  35.956  11.700
27364W        W94147  34.174  22.681   2.859
27365W        W94148  38.965  29.505  14.363
27366W        W94149  17.075  23.779  13.127
27367W        W94150   3.236  17.069  12.500
27368W        W94151  21.524  41.948   0.558
27369W        W94152  32.406  10.783  13.853
27370W        W94153  37.044  25.066  13.560
27371W        W94154  41.616  31.564  11.068
27372W        W94155   1.463  38.822  12.617
27373W        W94156  37.102  13.825   2.776
27374W        W94157  16.193   6.503  11.249
27375W        W94158  28.732  39.423   0.769
27376W        W94159   7.844  37.896   1.287
27377W        W94160  40.234  23.298   1.908
27378W        W94161  21.615  24.713  11.653
27379W        W94162   3.100  22.527  11.565
27380W        W94163  23.426  18.592  14.670
27381W        W94164  13.122  21.812  10.491
27382W        W94165   9.121  10.620  11.553
27383W        W94166  27.328  15.351  11.605
27384W        W94167  28.430  20.076   1.712
27385W        W94168  38.804  23.522   3.278
27386W        W94169  14.133   7.645   4.173
27387W        W94170   9.141  25.611  11.155
27388W        W94171  21.220   4.994  14.546
27389W        W94172  42.047  24.777  13.419
27390W        W94173   5.895  11.377   3.783
27391W        W94174  23.595  39.271   3.778
27392W        W94175   3.820   8.402  11.097
27393W        W94176  31.168  11.299  14.612
27394W        W94177  38.139   3.043   2.233
27395W        W94178  43.472  37.994   2.244
27396W        W94179  25.109  42.496   0.308
27397W        W94180  17.755  26.610   2.360
27398W        W94181   1.788  32.692  12.793
27399W        W94182  29.654  30.225   2.612
27400W        W94183  13.066   1.920   3.315
27401W        W94184  26.711  36.608   4.556
27402W        W94185  19.561  24.579   2.100
27403W        W94186  40.392  16.646   1.279
27404W        W94187   8.224  35.183   1.108
27405W        W94188  40.508  29.533  11.211
27406W        W94189  25.678  36.576  11.594
27407W        W94190  39.362  34.659   4.570
27408W        W94191  43.501  28.007  13.345
27409W        W94192  20.495  29.671   4.143
27410W        W94193   8.301  38.022   0.435
27411W        W94194  40.808   3.205   2.856
27412W        W94195  25.493  25.128   0.391
27413W        W94196  28.646  42.010  11.516
27414W        W94197   3.157  21.258   0.317
27415W        W94198   2.298  13.415  12.010
27416W        W94199  15.109  33.541   3.832
27417W        W94200  41.529   9.751  14.555
27418W        W94201   4.694  12.612  14.979
27419W        W94202  31.574  29.607  11.585
27420W        W94203  31.998  41.579  13.572
27421W        W94204  19.241  43.177   3.699
27422W        W94205   8.869  31.941   3.472
27423W        W94206  23.311   4.067   5.019
27424W        W94207  23.947  44.829  14.099
27425W        W94208  23.195  15.331   0.458
27426W        W94209  38.966  32.722  11.970
27427W        W94210  21.157  20.094  13.385
27428W        W94211   7.584  23.156   1.683
27429W        W94212  16.652   9.631   2.239
27430W        W94213  28.824  36.535  10.983
27431W        W94214   5.796  25.108  12.903
27432W        W94215  22.300  24.634   2.706
27433W        W94216  29.547  10.850  14.818
27434W        W94217  36.871  42.515  12.395
27435W        W94218  29.150   2.408   1.424
27436W        W94219  33.702  11.893   4.780
27437W        W94220  36.606   3.623   2.887
27438W        W94221  25.240   9.949   0.467
27439W        W94222  32.106  29.373   1.306
27440W        W94223  13.093   6.841  13.574
27441W        W94224   9.899  28.569   4.774
27442W        W94225  18.268  19.848   1.828
27443W        W94226  21.337  35.860   2.249
27444W        W94227  35.512  35.598  13.450
27445W        W94228   5.806  35.979  11.804
27446W        W94229  39.228  22.052  11.937
27447W        W94230  19.113  33.850  12.428
27448W        W94231  30.222  27.992   3.538
27449W        W94232  28.845   9.903  14.291
27450W        W94233  21.534  44.479   1.465
27451W        W94234  36.793  19.435  14.342
27452W        W94235   1.823  23.795  14.259
27453W        W94236   1.353  30.459   0.722
27454W        W94237   7.664  14.790   0.812
27455W        W94238  24.171  40.840  13.110
27456W        W94239  35.976  31.631  13.258
27457W        W94240  20.770  39.242  12.371
27458W        W94241  11.652  14.848   4.516
27459W        W94242   3.958  14.610   2.177
27460W        W94243  14.649  42.407   1.777
27461W        W94244  26.618  24.393  12.033
27462W        W94245  33.577  14.331   3.698
27463W        W94246  38.561   3.375  14.852
27464W        W94247  22.030  10.849   2.711
27465W        W94248   1.281  30.664  12.188
27466W        W94249  35.569  20.634   1.354
27467W        W94250   1.757  28.533   3.236
27468W        W94251  16.651  10.288  10.541
27469W        W94252  27.095   5.758   3.538
27470W        W94253  36.812  30.904   1.900
27471W        W94254  16.719   9.878   1.758
27472W        W94255   8.998  36.633  11.461
27473W        W94256  43.274  17.406  10.229
27474W        W94257   9.970   5.813   1.833
27475W        W94258  23.705  27.089  14.278
27476W        W94259  29.322  21.026   4.352
27477W        W94260  41.012  31.140   3.580
27478W        W94261  44.904  42.445   4.955
27479W        W94262  34.616  26.986   1.384
27480W        W94263  44.005  43.366  12.483
27481W        W94264  13.127  44.849  12.879
27482W        W94265  11.614  23.260   4.574
27483W        W94266  25.920   9.359   1.920
27484W        W94267  10.549  42.289   4.456
27485W        W94268  18.766  25.038   3.246
27486W        W94269  39.646  17.076   2.801
27487W        W94270  12.144  39.127   2.372
27488W        W94271  44.761  27.370  12.156
27489W        W94272  26.923  27.207   3.585
27490W        W94273  33.003  29.083   0.931
27491W        W94274  19.811  34.866   1.270
27492W        W94275  44.119   1.924  13.082
27493W        W94276  14.515   1.457  11.566
27494W        W94277   6.312   3.109  11.615
27495W        W94278  44.739  18.651   2.847
27496W        W94279  38.872  26.673  13.449
27497W        W94280  24.558  12.653  11.195
27498W        W94281  42.998  23.635  11.690
27499W        W94282  38.343  40.625   2.315
27500W        W94283  29.200   1.723   4.171
27501W        W94284  39.444  32.383   0.500
27502W        W94285   6.255   1.973  11.008
27503W        W94286  31.301   1.776  11.121
27504W        W94287   3.377  15.724  10.315
27505W        W94288  28.006  34.485  14.239
27506W        W94289   1.787  10.302   2.845
27507W        W94290  40.039  11.036  12.901
27508W        W94291  18.694  18.592  14.050
27509W        W94292  22.110  10.658  13.426
27510W        W94293  18.602  10.754   1.804
27511W        W94294   0.067  29.192   0.301
27512W        W94295  33.414   5.384  12.163
27513W        W94296   9.843  43.860   3.769
27514W        W94297  14.902  42.595  11.813
27515W        W94298   1.322  43.272   3.036
27516W        W94299   7.295   7.442  12.963
27517W        W94300   0.607  18.580  11.259
27518W        W94301  16.875  43.896   0.455
27519W        W94302  35.352  14.868  14.051
27520W        W94303   7.829  24.791   3.655
27521W        W94304  42.082   8.840   2.136
27522W        W94305  43.826  30.953   2.702
27523W        W94306  15.172   9.864  14.376
27524W        W94307   5.198  11.836   0.182
27525W        W94308  39.849   1.902  13.893
27526W        W94309  23.212  10.828   1.308
27527W        W94310  25.725   5.402   2.862
27528W        W94311  42.923  38.523   3.252
27529W        W94312   5.288  35.415  13.444
27530W        W94313  11.235  38.823   4.118
27531W        W94314  44.358  32.653   4.499
27532W        W94315  27.930   6.209  12.087
27533W        W94316  23.889  19.523  14.920
27534W        W94317  27.106  28.767  12.436
27535W        W94318  38.857   6.629   2.023
27536W        W94319  18.383  29.074   0.723
27537W        W94320  31.929  40.195   1.659
27538W        W94321   0.715   4.429  12.896
27539W        W94322  21.520   0.046  12.044
27540W        W94323  38.364  28.181  10.683
27541W        W94324  15.313  13.306   4.144
27542W        W94325  32.849  25.036  11.521
27543W        W94326   2.926  23.703   4.225
27544W        W94327  25.137  28.489   1.202
27545W        W94328  40.891  10.082  10.633
27546W        W94329  36.144  23.519   0.717
27547W        W94330   4.340  32.054   3.832
27548W        W94331  36.359  36.602   1.871
27549W        W94332  40.015   0.685   1.803
27550W        W94333  15.302  20.035  13.451
27551W        W94334  37.581  30.620   1.423
27552W        W94335   3.305  39.950   3.432
27553W        W94336   7.025  14.981  14.006
27554W        W94337  33.885  37.273   0.266
27555W        W94338  42.006   8.151  12.898
27556W        W94339  34.135  10.530   0.499
27557W        W94340  20.737  13.374   2.005
27558W        W94341   6.835  39.999  11.432
27559W        W94342  16.139  41.473  14.867
27560W        W94343  30.097  21.282  13.348
27561W        W94344  32.532  14.285   4.147
27562W        W94345  10.773  38.893  12.550
27563W        W94346  12.379   9.446   0.534
27564W        W94347  43.884  35.073  13.158
27565W        W94348   4.108  17.525  12.549
27566W        W94349   5.657  41.989  12.058
27567W        W94350   2.463  12.584   0.308
27568W        W94351  17.064  21.025   4.554
27569W        W94352  33.762  29.023  12.169
27570W        W94353  14.277   9.914  12.983
27571W        W94354  26.455   1.788   2.466
27572W        W94355  24.464  17.541  10.636
27573W        W94356  13.697  43.262   1.315
27574W        W94357  35.055  22.437  13.812
27575W        W94358   5.207  28.619  11.691
27576W        W94359  15.418  42.545  11.892
27577W        W94360  25.215  33.804  11.913
27578W        W94361  11.324  15.617   0.366
27579W        W94362  10.651  24.749   2.187
27580W        W94363  22.105  34.392  13.294
27581W        W94364  28.016  20.853   4.537
27582W        W94365  17.775  17.717  10.687
27583W        W94366  24.281  36.901  14.821
27584W        W94367  30.683  18.828   1.308
27585W        W94368  19.465   1.302  12.876
27586W        W94369   8.948  41.749  11.317
27587W        W94370   5.785   6.362  13.469
27588W        W94371  38.894  12.872  12.897
27589W        W94372  12.670  31.282   1.710
27590W        W94373  27.138  19.243   3.393
27591W        W94374  11.874   2.369   0.616
27592W        W94375  21.034  10.323  14.680
27593W        W94376   7.907  39.786   4.104
27594W        W94377  18.070  17.514  13.927
27595W        W94378  13.247  19.651   2.404
27596W        W94379  22.224   6.555  11.886
27597W        W94380  11.762   5.376   1.502
27598W        W94381  38.878  40.661  14.455
27599W        W94382   3.322   1.411   3.857
27600W        W94383  40.869  35.873   2.565
27601W        W94384  43.898  14.713  12.151
27602W        W94385  41.320  40.307  11.286
27603W        W94386  16.210  26.610   3.571
27604W        W94387   4.471   6.089   3.623
27605W        W94388   0.820  16.789   3.704
27606W        W94389   2.977  19.065   0.586
27607W        W94390  24.449   1.848  10.747
27608W        W94391  27.036  27.408   0.324
27609W        W94392  25.245  35.493   2.148
27610W        W94393  19.338  35.365   0.667
27611W        W94394  22.029  19.549   0.321
27612W        W94395  38.847  25.698  14.275
27613W        W94396   5.706  27.974  11.953
27614W        W94397   1.610  10.923   3.638
27615W        W94398   0.675  14.563  14.969
27616W        W94399  12.608  32.475   0.874
27617W        W94400  37.810  21.737   0.563
27618W        W94401   1.192  41.930   3.201
27619W        W94402  40.774   9.166   1.680
27620W        W94403  29.529  18.724  10.784
27621W        W94404  15.593  36.142  12.620
27622W        W94405  24.972  21.936   2.563
27623W        W94406  23.748  30.732  11.046
27624W        W94407  19.497  20.534  11.143
27625W        W94408  38.411  20.969   0.745
27626W        W94409  20.633   1.293  12.853
27627W        W94410   7.490  44.206  10.022
27628W        W94411  39.509  24.790   2.210
27629W        W94412  17.513   7.844   3.064
27630W        W94413  23.910  41.252  12.950
27631W        W94414   2.192   2.815  12.685
27632W        W94415  24.940  37.146   3.730
27633W        W94416  20.687  30.124  11.112
27634W        W94417   8.954  17.862  11.408
27635W        W94418   4.631  18.097  13.061
27636W        W94419  41.964  43.365   1.315
27637W        W94420  15.251  18.015  13.418
27638W        W94421  14.748   3.845   2.753
27639W        W94422  24.467  12.890   4.599
27640W        W94423  29.471  36.260   0.498
27641W        W94424   0.149  10.742  13.315
27642W        W94425   2.113  29.409  11.520
27643W        W94426  18.818   5.526   4.532
27644W        W94427   0.754   7.656   1.430
27645W        W94428  39.241  33.006   3.131
27646W        W94429  22.042   7.935   4.218
27647W        W94430  37.024  32.048  13.335
27648W        W94431  17.624  42.106   3.208
27649W        W94432  13.247   2.053   3.776
27650W        W94433  36.313  42.080  13.836
27651W        W94434  22.108  22.873   2.711
27652W        W94435  14.310  25.149  12.873
27653W        W94436   1.862  17.217  14.794
27654W        W94437   3.539   6.390   3.805
27655W        W94438   5.964  38.340   4.892
27656W        W94439   7.498   2.039   2.334
27657W        W94440  30.994   9.706   1.994
27658W        W94441   7.240  23.086   4.816
27659W        W94442  34.540  32.714  14.429
27660W        W94443  30.534   3.391   1.360
27661W        W94444   2.781  23.018  12.956
27662W        W94445  23.154  36.925  12.286
27663W        W94446  14.114  42.504   1.339
27664W        W94447  11.175   2.328  10.651
27665W        W94448  13.768  14.745  13.513
27666W        W94449  24.688  34.003   4.564
27667W        W94450  43.667  26.946  10.347
27668W        W94451  20.090  24.680   2.156
27669W        W94452  26.481  11.904  14.396
27670W        W94453  17.575  42.433  11.561
27671W        W94454  10.543  31.134   2.367
27672W        W94455  20.298   6.173   2.799
27673W        W94456  11.171  43.746  10.628
27674W        W94457  27.622  10.380  10.702
27675W        W94458  32.254  43.469   3.378
27676W        W94459  24.485  19.038  11.573
27677W        W94460  38.967  23.222  13.903
27678W        W94461  15.390  37.060   1.307
27679W        W94462  23.423  37.007   2.625
27680W        W94463   7.341  37.849   1.805
27681W        W94464   3.590  26.353  14.305
27682W        W94465   9.227  39.338   2.828
27683W        W94466  13.791  22.689   2.214
27684W        W94467  24.251   5.609   2.787
27685W        W94468  23.709   4.817   1.602
27686W        W94469  31.430  25.574  12.444
27687W        W94470  17.787  19.114  10.971
27688W        W94471  24.014   8.293  14.268
27689W        W94472   4.734  42.447  13.443
27690W        W94473   8.380   7.926   1.785
27691W        W94474  43.924   2.339  12.837
27692W        W94475  41.098  24.086   1.935
27693W        W94476   1.831  15.548  11.121
27694W        W94477  17.797  37.496  14.050
27695W        W94478  26.675  28.817  10.313
27696W        W94479  13.075  16.512  11.257
27697W        W94480   6.919  14.280  14.826
27698W        W94481  38.473  15.661  11.231
27699W        W94482   6.262   9.965  12.886
27700W        W94483   8.166   5.242  13.901
27701W        W94484  34.876   6.045  12.061
27702W        W94485  26.883  34.290   3.834
27703W        W94486  28.655  25.778  12.319
27704W        W94487  21.704  39.200   2.288
27705W        W94488  25.534  44.362   0.882
27706W        W94489  39.476   2.043   1.430
27707W        W94490  29.636  40.337  12.587
27708W        W94491   1.255  15.825  14.825
27709W        W94492  13.372  39.775  14.691
27710W        W94493  11.164   7.344   1.866
27711W        W94494   6.853  20.844  11.693
27712W        W94495  18.008  37.967   1.711
27713W        W94496  29.515  31.686  12.976
27714W        W94497  28.440  41.299   3.227
27715W        W94498   7.605  16.383   0.255
27716W        W94499   8.734  43.263   0.830
27717W        W94500  14.120  39.524   3.572
27718W        W94501  41.369  21.033   1.386
27719W        W94502   8.199  13.432   1.979
27720W        W94503  11.128  11.679   3.273
27721W        W94504   9.474  35.877   3.460
27722W        W94505   7.697  16.336   0.764
27723W        W94506   4.317  29.341   1.449
27724W        W94507  21.290  15.173  12.030
27725W        W94508  11.278  39.256   3.807
27726W        W94509  23.995   1.269   1.435
27727W        W94510   8.372  19.447  11.269
27728W        W94511  25.149  34.738   4.656
27729W        W94512  36.935  42.352   0.537
27730W        W94513   6.966  13.142  12.594
27731W        W94514  36.239  15.575  14.839
27732W        W94515  35.696  44.332   4.697
27733W        W94516  36.715  29.181  12.843
27734W        W94517  42.278  37.363   2.241
27735W        W94518  39.879  38.312  12.685
27736W        W94519  21.126  38.116  10.572
27737W        W94520  41.576  30.133  14.806
27738W        W94521  13.638   5.280   0.767
27739W        W94522  15.000  41.138  11.602
27740W        W94523  10.826  28.942  10.718
27741W        W94524  25.586  37.446  14.850
27742W        W94525  26.927   1.940   2.655
27743W        W94526  26.635  10.200  14.990
27744W        W94527  16.714  31.453  14.431
27745W        W94528  25.533  40.375  14.565
27746W        W94529  43.310  39.254  12.046
27747W        W94530   9.284   5.677  10.525
27748W        W94531  19.616  37.272   1.341
27749W        W94532  42.746  43.346  13.559
27750W        W94533  27.475  17.183  13.015
27751W        W94534  22.617  20.676   1.383
27752W        W94535   6.441  15.660   1.249
27753W        W94536   7.718  11.065  13.123
27754W        W94537   9.283  39.271  13.317
27755W        W94538   6.792  21.990   3.553
27756W        W94539  43.425  31.227   0.545
27757W        W94540  30.074  19.309   4.233
27758W        W94541  43.054   8.825   2.320
27759W        W94542  24.685  22.335  11.587
27760W        W94543  21.497  23.534   1.457
27761W        W94544  13.768  14.294  14.909
27762W        W94545  42.608  33.461  13.569
27763W        W94546  24.751   3.270  11.660
27764W        W94547  40.465  10.074  13.450
27765W        W94548   8.745  19.074  12.017
27766W        W94549   8.135   8.343   2.682
27767W        W94550  18.566   3.887  10.985
27768W        W94551  37.432  40.163   4.577
27769W        W94552  33.459   2.469  11.117
27770W        W94553  35.396  15.555   3.314
27771W        W94554   0.832   1.502   0.475
27772W        W94555  22.572  29.675  14.837
27773W        W94556  28.600  26.605   2.858
27774W        W94557  43.322  24.364  11.194
27775W        W94558  34.305  39.867  12.934
27776W        W94559  28.954   9.726  13.427
27777W        W94560  12.626   8.647   3.207
27778W        W94561  25.492  15.898   1.262
27779W        W94562  37.536  23.159   3.291
27780W        W94563   7.278   4.686   1.281
27781W        W94564  12.694  13.020  13.149
27782W        W94565  19.583  16.879  14.422
27783W        W94566  39.696  10.618  13.574
27784W        W94567  35.785  24.718  14.930
27785W        W94568  26.978  24.577  11.112
27786W        W94569  43.299  11.581   4.647
27787W        W94570   0.678  28.096   0.018
27788W        W94571  29.963  35.082   3.788
27789W        W94572  41.844  40.595  12.080
27790W        W94573   6.088   5.769  11.345
27791W        W94574  25.466  34.034   1.922
27792W        W94575  14.228  13.357   1.197
27793W        W94576  21.240  21.700  11.973
27794W        W94577   0.058   2.735   2.486
27795W        W94578  41.004  14.624   0.940
27796W        W94579  21.484   7.183  13.138
27797W        W94580   3.536   7.706   4.591
27798W        W94581  19.263  37.383   1.682
27799W        W94582  40.183   1.954   3.566
27800W        W94583  29.156  42.826  11.857
27801W        W94584  17.731  35.301  12.242
27802W        W94585  28.899   7.677  13.886
27803W        W94586  32.200  25.251  12.797
27804W        W94587  11.290  32.490   0.339
27805W        W94588  19.081  33.562   0.039
27806W        W94589  23.577  13.128   3.208
27807W        W94590  14.877  39.144   3.208
27808W        W94591  33.943   9.628  13.525
27809W        W94592  17.235   5.288  12.526
27810W        W94593   3.099  32.114  13.540
27811W        W94594  13.591   8.454   0.298
27812W        W94595  32.589  14.507  13.318
27813W        W94596  28.529  23.913   0.874
27814W        W94597   5.634  12.336  14.986
27815W        W94598  19.645  11.654  13.503
27816W        W94599  33.133  12.404   1.287
27817W        W94600  41.198   6.916   1.687
27818W        W94601   3.822  35.183   2.770
27819W        W94602   5.614   1.665  13.614
27820W        W94603  20.137   1.943   2.643
27821W        W94604  39.109  24.727  13.414
27822W        W94605  17.511   8.072  12.591
27823W        W94606   4.106  12.158   1.344
27824W        W94607   6.117   1.443   0.876
27825W        W94608  37.592  20.710  11.641
27826W        W94609  39.626  36.791  12.755
27827W        W94610   8.606  36.385  14.862
27828W        W94611  28.335  31.975   9.944
27829W        W94612  44.364   2.451   3.740
27830W        W94613  40.088  28.596   1.418
27831W        W94614   8.334  16.853   1.233
27832W        W94615  38.841  11.325   2.155
27833W        W94616  42.851  38.539  10.686
27834W        W94617  18.822  27.411   2.701
27835W        W94618  23.467   4.355   2.934
27836W        W94619  44.295  28.187  14.989
27837W        W94620  20.755  10.981  11.067
27838W        W94621  17.657  28.508   0.737
27839W        W94622  26.063  33.488   4.518
27840W        W94623  31.561  17.320   0.026
27841W        W94624  31.924  18.950  14.270
27842W        W94625   3.966   2.450   0.020
27843W        W94626  34.896  28.246  12.098
27844W        W94627   7.740  38.372   1.462
27845W        W94628  12.436  10.664   2.780
27846W        W94629  38.020  40.355   2.601
27847W        W94630  33.700  31.910  11.151
27848W        W94631  44.480  20.313   1.938
27849W        W94632  28.297  19.577  13.078
27850W        W94633  40.063  19.997  11.469
27851W        W94634  31.007   5.416  13.035
27852W        W94635  32.964  20.840   1.166
27853W        W94636  33.540  31.539   1.299
27854W        W94637  39.297  31.416  12.156
27855W        W94638  25.773   2.099  13.218
27856W        W94639  16.337  28.436   2.418
27857W        W94640  40.723  29.039   0.813
27858W        W94641  26.981  35.003   1.840
27859W        W94642   1.541  35.997   1.739
27860W        W94643  13.814  28.424   3.533
27861W        W94644  16.864   2.376   4.586
27862W        W94645  41.519  37.667   1.732
27863W        W94646  22.586  29.432   3.341
27864W        W94647  43.152  14.618  12.549
27865W        W94648   9.082  28.828   4.987
27866W        W94649   9.290  20.725   0.777
27867W        W94650  42.308  29.939   0.796
27868W        W94651   6.484  28.241   2.293
27869W        W94652  21.787  41.810  14.795
27870W        W94653  18.850  33.994   1.444
27871W        W94654  12.662   6.179   3.674
27872W        W94655  19.511  27.141   1.364
27873W        W94656  16.609   7.494   2.766
27874W        W94657  25.147  36.483   4.659
27875W        W94658  36.952  35.142   2.214
27876W        W94659  20.805   1.915  14.477
27877W        W94660  36.001  20.936  11.608
27878W        W94661  20.044  44.506   0.691
27879W        W94662  23.878  20.785  14.420
27880W        W94663   0.471  17.038  14.835
27881W        W94664  40.393  14.981   3.273
27882W        W94665   8.386  18.355  10.703
27883W        W94666  26.645   2.576   0.754
27884W        W94667  44.846  32.919  10.480
27885W        W94668  41.273  29.548   4.506
27886W        W94669  16.406  16.718   1.297
27887W        W94670  30.859  16.571   0.934
27888W        W94671  11.628   9.907  13.044
27889W        W94672  39.054   8.963   2.359
27890W        W94673  13.488  35.848  10.265
27891W        W94674  37.228  20.570   4.213
27892W        W94675  12.954   2.744   1.420
27893W        W94676  22.567  11.387   2.691
27894W        W94677   3.768  28.818  11.151
27895W        W94678  16.870  19.227  14.507
27896W        W94679  26.429  28.436   4.113
27897W        W94680  41.889  14.890   1.723
27898W        W94681  36.141  32.355  12.610
27899W        W94682  29.033  33.356  14.800
27900W        W94683  38.712  12.305  14.679
27901W        W94684  38.205   5.336  14.254
27902W        W94685  14.353  32.517  11.074
27903W        W94686  25.908  32.923  11.200
27904W        W94687  16.202  28.922  13.266
27905W        W94688  38.849   2.660  14.611
27906W        W94689  38.565  15.594  13.831
27907W        W94690  24.722   1.688  12.514
27908W        W94691  39.954   0.327   1.400
27909W        W94692  27.636  31.974   3.173
27910W        W94693  35.579  41.021  12.106
27911W        W94694  23.240  14.211  14.472
27912W        W94695  44.010   5.753  14.973
27913W        W94696  21.290  43.984  14.500
27914W        W94697  39.795   8.463   3.795
27915W        W94698   1.699   2.458   4.382
27916W        W94699   0.422   1.358   0.219
27917W        W94700  22.008  39.767  10.902
27918W        W94701  36.496   2.651   2.533
27919W        W94702  24.404  11.369   5.002
27920W        W94703   7.303  13.309   4.062
27921W        W94704  36.718  24.210   2.797
27922W        W94705   7.902  32.056   2.413
27923W        W94706  28.957  25.718   0.331
27924W        W94707  35.917  29.260  11.640
27925W        W94708  12.832  21.745  14.121
27926W        W94709  14.251  27.973  10.753
27927W        W94710  11.230  14.344   3.247
27928W        W94711  38.253  31.963   4.329
27929W        W94712  42.370  40.927   4.647
27930W        W94713   2.244   6.305  12.068
27931W        W94714  35.105  39.458  12.896
27932W        W94715   4.430  39.657   4.093
27933W        W94716  16.086  21.738   1.947
27934W        W94717   7.879  28.420  10.497
27935W        W94718  44.472   2.237  12.042
27936W        W94719  30.628  33.103  11.837
27937W        W94720   3.653  16.066  12.907
27938W        W94721  18.136  20.696   4.409
27939W        W94722   0.361  38.499  14.843
27940W        W94723  33.561  14.188   1.751
27941W        W94724   5.918  21.610  13.289
27942W        W94725  18.976  41.819   2.278
27943W        W94726   2.775   3.898   3.209
27944W        W94727  29.215  39.895  10.039
27945W        W94728  21.067  29.876   4.159
27946W        W94729  37.459  14.864   3.270
27947W        W94730   8.714  25.957  11.196
27948W        W94731  38.444   9.199   3.784
27949W        W94732  38.416  33.145   4.879
27950W        W94733  33.102  18.258   2.813
27951W        W94734  32.626  41.216   3.894
27952W        W94735  20.688   4.913  12.137
27953W        W94736  13.341  10.033   3.237
27954W        W94737  11.642  39.272   3.401
27955W        W94738  38.401   0.920   4.562
27956W        W94739  14.751   2.728   2.173
27957W        W94740  18.130  14.155  11.250
27958W        W94741  30.209   1.077   1.956
27959W        W94742  40.213  16.671  11.951
27960W        W94743   3.759  21.656  14.076
27961W        W94744  34.279  28.637   0.931
27962W        W94745  30.341  20.164   1.750
27963W        W94746  35.137   2.005   4.865
27964W        W94747  12.887  11.605  14.878
27965W        W94748  10.364   8.906   2.812
27966W        W94749  17.525   9.361  11.910
27967W        W94750  34.105  16.818   0.389
27968W        W94751  40.990   4.722  13.303
27969W        W94752  22.418  16.829   1.908
27970W        W94753  44.166  26.906  10.485
27971W        W94754  42.054  28.483   2.331
27972W        W94755  43.401  12.742   0.667
27973W        W94756   9.740  36.865  12.081
27974W        W94757  37.189   1.796   4.193
27975W        W94758   1.918  23.050   4.230
27976W        W94759   7.856  40.218  11.142
27977W        W94760  13.541   4.991  14.578
27978W        W94761  38.462   6.327  13.091
27979W        W94762  11.741  14.833  12.006
27980W        W94763  17.342  16.580  13.893
27981W        W94764   1.508  38.923   0.942
27982W        W94765  42.068  18.111  12.664
27983W        W94766  16.145   6.960   4.290
27984W        W94767  43.952  32.118  14.780
27985W        W94768   1.281  36.047   1.279
27986W        W94769  37.311   5.043   3.654
27987W        W94770  29.905   4.739  14.297
27988W        W94771  18.766  32.886  14.287
27989W        W94772  33.877  34.108  13.314
27990W        W94773  30.541  28.616  14.105
27991W        W94774  30.559  44.701  13.215
27992W        W94775  11.611  18.225  12.848
27993W        W94776  41.533  25.366   3.655
27994W        W94777  43.850   3.496   0.394
27995W        W94778  16.073   3.352  10.763
27996W        W94779  17.805  13.496   5.352
27997W        W94780  20.924  38.965   1.835
27998W        W94781  17.051  20.705   3.671
27999W        W94782  19.332  15.971  14.258
28000W        W94783  40.935  29.477   0.526
28001W        W94784  24.196   7.820   1.254
28002W        W94785  20.140   4.856   0.829
28003W        W94786  11.980  29.585  12.464
28004W        W94787  36.850   3.852   2.323
28005W        W94788  42.954  21.998   3.519
28006W        W94789  11.033  36.507   9.760
28007W        W94790  41.045  10.930  14.403
28008W        W94791  28.854  29.152  12.535
28009W        W94792  26.720  37.053   4.254
28010W        W94793   4.935  31.229   1.289
28011W        W94794  19.068  20.520  13.944
28012W        W94795  33.387   5.624   3.692
28013W        W94796   4.716  19.342  14.831
28014W        W94797  14.995  29.603  13.123
28015W        W94798  23.094  31.568  12.962
28016W        W94799   2.512  28.152  11.312
28017W        W94800  31.917  11.752  14.390
28018W        W94801  16.199  11.614   0.997
28019W        W94802  14.279  11.052   3.170
28020W        W94803  14.913  18.319   2.831
28021W        W94804  38.621  17.701   2.467
28022W        W94805   5.005   8.930   4.573
28023W        W94806  23.122   5.509  10.765
28024W        W94807  15.633  28.053   5.045
28025W        W94808  18.726  37.735  10.407
28026W        W94809  30.426  23.251   2.021
28027W        W94810  11.276  29.491  11.212
28028W        W94811  41.521  17.571  11.270
28029W        W94812  27.138  38.052   3.647
28030W        W94813  15.518  14.749   5.424
28031W        W94814  36.482   4.039  12.059
28032W        W94815   5.525  31.494  11.427
28033W        W94816  26.463  39.452   2.254
28034W        W94817  29.106  36.056  13.999
28035W        W94818  28.357  18.755   2.835
28036W        W94819  15.570  37.035   1.817
28037W        W94820  18.354  26.540   5.192
28038W        W94821  36.572   4.790  11.075
28039W        W94822  16.115  38.937  14.321
28040W        W94823  29.114  30.600  10.826
28041W        W94824  22.338  29.508  13.765
28042W        W94825   6.318  22.820   4.116
28043W        W94826  44.363   4.713  11.531
28044W        W94827  32.409  28.709   3.206
28045W        W94828   1.015  35.872   1.704
28046W        W94829  14.328  33.417  11.310
28047W        W94830  13.061   0.682   3.721
28048W        W94831  11.630  44.762  14.579
28049W        W94832  42.352  26.004  11.547
28050W        W94833  31.461  22.158  10.797
28051W        W94834  20.649   8.886  13.112
28052W        W94835  36.494  37.393  11.167
28053W        W94836  24.470  24.583   2.177
28054W        W94837   4.412   1.469   4.351
28055W        W94838  33.252  27.663   9.810
28056W        W94839  19.086   7.804  11.011
28057W        W94840  43.187   8.065   1.231
28058W        W94841  22.604   7.347   3.890
28059W        W94842  11.577  24.225  10.291
28060W        W94843  17.752  24.427   2.670
28061W        W94844   1.983  37.956  12.617
28062W        W94845  25.129  33.251   1.285
28063W        W94846   2.252  38.745  12.090
28064W        W94847   9.135  22.532   2.936
28065W        W94848  24.294  22.839   1.710
28066W        W94849  11.687  16.360   4.765
28067W        W94850  33.149  33.108   3.762
28068W        W94851  32.978  16.805  14.016
28069W        W94852  21.693  15.362   2.345
28070W        W94853  32.305   7.900  11.081
28071W        W94854  30.690  20.698  12.535
28072W        W94855  36.778   7.196  12.613
28073W        W94856   5.733  43.129   3.033
28074W        W94857  20.905  42.931   4.837
28075W        W94858  26.869  38.523   2.313
28076W        W94859  11.688  37.507   3.121
28077W        W94860  25.819  42.873   4.526
28078W        W94861   7.526  38.465   0.822
28079W        W94862  30.915  39.842   4.101
28080W        W94863  16.247   7.217   1.753
28081W        W94864  19.536  33.205   2.767
28082W        W94865  24.796  33.384  13.609
28083W        W94866   5.838  22.526  13.304
28084W        W94867  30.201  25.844  12.060
28085W        W94868  23.453  27.227   0.133
28086W        W94869  16.583  23.083   0.331
28087W        W94870  23.185  38.996  11.199
28088W        W94871  32.928  41.878  12.170
28089W        W94872  32.029  20.516  14.365
28090W        W94873  25.173  30.064  12.083
28091W        W94874  20.185  39.723  12.879
28092W        W94875  11.847  26.941  12.891
28093W        W94876  43.365  16.677   4.630
28094W        W94877  36.552   1.237   1.290
28095W        W94878  22.539  23.541  12.022
28096W        W94879  17.710  41.736   1.904
28097W        W94880  23.243  10.765   2.236
28098W        W94881   5.162  36.049   4.054
28099W        W94882  22.202  19.766   2.928
28100W        W94883  31.477  31.212   3.591
28101W        W94884   0.486  19.487  13.907
28102W        W94885  24.651  22.640   3.288
28103W        W94886  42.959   9.192   0.692
28104W        W94887   1.018  12.451   2.761
28105W        W94888  12.745   9.558   2.808
28106W        W94889  33.525  16.401  11.393
28107W        W94890  26.362  11.870   3.320
28108W        W94891  12.222  32.841   2.742
28109W        W94892  18.921  42.728   1.317
28110W        W94893  21.225  40.016  14.665
28111W        W94894  20.949  12.223   2.343
28112W        W94895  29.129  43.552  10.750
28113W        W94896  16.808   4.200   0.504
28114W        W94897  41.295  22.497  12.570
28115W        W94898  30.545  23.153   0.229
28116W        W94899  21.806  25.300  14.931
28117W        W94900  13.438  40.096  14.242
28118W        W94901  40.449   3.509  11.968
28119W        W94902  20.873   6.142  13.937
28120W        W94903  28.699   7.158  14.121
28121W        W94904  16.054  15.650  11.170
28122W        W94905  16.639  40.827   2.679
28123W        W94906   5.578  42.309  11.213
28124W        W94907  37.436  43.961  12.552
28125W        W94908  35.084  26.497   2.112
28126W        W94909  41.641  21.195  13.642
28127W        W94910  27.627  13.199   0.495
28128W        W94911  29.295   4.381   3.984
28129W        W94912  34.170  18.536  12.065
28130W        W94913   6.002  40.244   0.183
28131W        W94914  37.574  11.387  13.029
28132W        W94915  29.939  43.794   0.661
28133W        W94916  11.023   5.106   0.589
28134W        W94917  20.104  32.378  12.535
28135W        W94918   4.727  28.229  13.510
28136W        W94919  36.294  13.749  12.920
28137W        W94920  17.845   1.427   0.734
28138W        W94921  14.713  16.351   0.363
28139W        W94922  44.557  33.062   3.177
28140W        W94923  24.232  11.803  11.618
28141W        W94924  41.802  33.936  12.550
28142W        W94925  14.059   6.812   3.698
28143W        W94926  17.621   9.791   1.799
28144W        W94927  28.608  24.147  14.735
28145W        W94928   5.181   4.283   2.327
28146W        W94929  39.786  43.416  14.945
28147W        W94930  14.311   4.435  13.014
28148W        W94931  11.646  17.146   1.371
28149W        W94932  23.042  19.505  11.336
28150W        W94933  35.066  14.720  11.668
28151W        W94934  33.193  37.280   2.794
28152W        W94935  23.537  39.362   0.470
28153W        W94936   0.997   9.985   2.417
28154W        W94937   9.837   9.239   4.712
28155W        W94938   5.954   5.429  12.191
28156W        W94939   2.210   4.355  14.090
28157W        W94940   7.044  23.869   4.875
28158W        W94941  13.314  39.076   2.390
28159W        W94942  34.677  38.028   4.585
28160W        W94943   4.415   4.849   1.202
28161W        W94944  19.150  40.958  14.499
28162W        W94945  25.854  14.939   1.766
28163W        W94946   4.458  41.312  14.064
28164W        W94947   2.442  26.414  13.898
28165W        W94948  28.832  10.499   1.297
28166W        W94949   0.789  43.171   0.319
28167W        W94950  17.260  25.464   2.354
28168W        W94951  22.743   7.220  12.888
28169W        W94952  20.467  37.962   0.849
28170W        W94953  35.331  17.634  14.516
28171W        W94954  33.996  30.624   4.604
28172W        W94955  15.218  37.936   2.894
28173W        W94956  19.540  36.855   3.126
28174W        W94957   9.408  26.184   2.734
28175W        W94958  38.225  27.844  14.565
28176W        W94959  18.596  40.470  14.792
28177W        W94960  28.116   3.020  14.843
28178W        W94961   1.731  27.447  14.520
28179W        W94962  26.680  32.613   0.303
28180W        W94963   5.331  13.721  13.068
28181W        W94964  24.012  39.913  12.611
28182W        W94965  29.036  18.583   2.160
28183W        W94966  33.129   1.982  10.445
28184W        W94967  29.901  33.193  12.951
28185W        W94968   6.675  35.383   2.051
28186W        W94969   8.746  34.067   2.303
28187W        W94970  10.435  33.708   3.735
28188W        W94971   9.182   9.369   3.955
28189W        W94972  32.928  13.218   4.124
28190W        W94973  23.990  32.215   0.231
28191W        W94974  33.530  21.915  12.001
28192W        W94975  12.135  32.054   2.183
28193W        W94976  42.832  22.210   1.525
28194W        W94977   5.363  18.311   3.315
28195W        W94978  24.388  16.649   0.715
28196W        W94979  15.082  24.923   1.359
28197W        W94980  29.111   2.917  12.525
28198W        W94981  31.107  36.881   4.646
28199W        W94982   3.473  18.095  11.014
28200W        W94983  42.555  23.060  10.612
28201W        W94984  12.305  16.247  14.755
28202W        W94985   3.274  28.728  11.314
28203W        W94986   0.941  14.305  14.497
28204W        W94987  11.336  29.164   2.844
28205W        W94988   6.475  13.979   1.477
28206W        W94989  29.552  15.229   1.821
28207W        W94990  44.979  37.583  12.908
28208W        W94991  27.097   4.605  12.553
28209W        W94992  34.215  13.647  14.733
28210W        W94993  16.932  16.577  11.133
28211W        W94994  28.521  36.318  12.511
28212W        W94995  41.151  16.118   2.801
28213W        W94996   2.024   8.415   1.809
28214W        W94997  40.001  36.962  14.450
28215W        W94998  10.114  16.362  12.721
28216W        W94999  27.731  40.517  13.367
28217W        W95000  43.534  17.082  13.263
28218W        W95001  40.139  44.685  12.928
28219W        W95002  19.835   0.757   3.591
28220W        W95003   2.681   1.792  13.375
28221W        W95004  32.601  17.712  10.816
28222W        W95005  13.088  22.017   2.203
28223W        W95006  17.001  11.834   3.098
28224W        W95007   1.828   5.507  12.954
28225W        W95008  30.921  36.574   2.457
28226W        W95009   9.622  15.341   3.273
28227W        W95010   3.330  24.755   4.720
28228W        W95011   2.964  29.427  11.219
28229W        W95012   0.431  35.698   3.045
28230W        W95013  37.978  13.336  12.873
28231W        W95014  13.939  17.148   3.264
28232W        W95015  18.715  39.652  14.994
28233W        W95016  35.861   8.842  13.969
28234W        W95017   6.466   5.005   0.504
28235W        W95018  13.858  26.434  14.988
28236W        W95019  16.108  12.128   0.942
28237W        W95020  43.451   5.247   0.928
28238W        W95021   7.650  13.127   2.514
28239W        W95022  42.103   9.681  14.517
28240W        W95023  24.663  26.767  10.125
28241W        W95024  10.342   5.942  10.282
28242W        W95025  34.441  44.059   1.391
28243W        W95026  43.510  44.501   2.434
28244W        W95027  31.101  28.867   0.673
28245W        W95028  25.597  12.595   2.392
28246W        W95029  28.847  25.687   3.606
28247W        W95030  13.586  17.141  11.591
28248W        W95031  27.436   2.748   2.946
28249W        W95032  28.051  22.524   2.202
28250W        W95033  32.620  33.486  10.528
28251W        W95034  16.524   8.641  13.551
28252W        W95035  43.278  32.092   3.209
28253W        W95036  21.745  30.607  14.559
28254W        W95037  38.316  38.594   3.431
28255W        W95038   9.328  35.896   1.005
28256W        W95039  30.571   6.229  13.260
28257W        W95040  39.296  26.775  10.114
28258W        W95041   8.413  30.965   0.333
28259W        W95042  34.494   7.417   0.670
28260W        W95043  17.778   6.084   0.948
28261W        W95044  29.179  27.678  11.437
28262W        W95045   4.352  14.098   3.716
28263W        W95046  25.103  38.296  14.170
28264W        W95047  22.158  43.949   2.123
28265W        W95048  29.317   8.189   3.346
28266W        W95049  34.866  10.758  10.710
28267W        W95050  36.462  30.905   3.215
28268W        W95051   9.179   5.507  11.891
28269W        W95052  15.340   7.268  10.415
28270W        W95053  26.634  20.979   0.059
28271W        W95054  30.506   4.747   2.691
28272W        W95055   9.799  25.434   3.884
28273W        W95056  40.880  33.085   2.240
28274W        W95057  18.649   3.520   4.561
28275W        W95058  37.892  39.745  11.959
28276W        W95059  33.163  14.438  11.152
28277W        W95060  31.168  31.583  11.333
28278W        W95061   6.574  31.531   3.632
28279W        W95062   9.848   1.580  12.515
28280W        W95063  43.738  17.275  12.022
28281W        W95064  20.176  33.180  12.104
28282W        W95065   9.255  30.271  10.675
28283W        W95066   7.351  13.828  11.552
28284W        W95067  22.423  17.362   3.710
28285W        W95068  43.189  15.850   0.750
28286W        W95069  39.545  18.940   2.320
28287W        W95070   5.818  17.622   4.077
28288W        W95071  29.197  19.046  10.529
28289W        W95072  25.544  34.683  13.836
28290W        W95073  39.496  35.702  14.078
28291W        W95074  21.784  16.159   0.571
28292W        W95075  24.975  29.637   1.804
28293W        W95076  27.742  31.844   1.792
28294W        W95077   5.700  30.647  11.129
28295W        W95078   1.200  10.738   5.068
28296W        W95079   1.732  29.465   4.553
28297W        W95080  17.268   9.466  14.466
28298W        W95081  29.000   0.333  12.484
28299W        W95082   8.786  16.628   1.376
28300W        W95083  26.678   6.737   4.214
28301W        W95084  41.942  11.635  12.067
28302W        W95085   3.671  18.632  12.552
28303W        W95086   4.867  32.052  10.463
28304W        W95087  38.831  41.558   3.689
28305W        W95088  11.621  44.425   1.709
28306W        W95089  37.594  35.311   4.299
28307W        W95090  18.425   9.045  11.499
28308W        W95091  11.339  42.330  13.785
28309W        W95092  35.649  17.983  10.473
28310W        W95093   1.990  17.787   4.705
28311W        W95094  40.858  20.852  10.735
28312W        W95095   4.806  25.062   2.622
28313W        W95096  21.425  34.962  14.939
28314W        W95097  28.469  34.070   4.218
28315W        W95098  31.224  20.611   2.284
28316W        W95099  17.742  28.558  10.590
28317W        W95100   2.340  18.581   0.804
28318W        W95101  41.351  16.845  12.483
28319W        W95102   0.845  44.668   4.045
28320W        W95103   6.215  14.199   4.071
28321W        W95104  32.031  14.085   0.768
28322W        W95105  39.824  27.749   0.505
28323W        W95106  20.703  31.239  14.958
28324W        W95107   3.222  26.163   1.318
28325W        W95108   9.762  29.765   4.672
28326W        W95109  10.105  18.697  14.986
28327W        W95110  38.816  23.933   0.384
28328W        W95111  28.777   4.526   0.903
28329W        W95112  23.990  43.453   1.247
28330W        W95113  33.082   5.811  11.583
28331W        W95114   0.771  28.165   2.618
28332W        W95115   2.077  17.569  11.912
28333W        W95116  42.785   9.913   2.941
28334W        W95117  20.655  21.499  13.528
28335W        W95118  35.963  10.607   1.301
28336W        W95119  26.999   2.157   1.281
28337W        W95120  17.670   9.405  13.751
28338W        W95121  16.392  13.256  13.945
28339W        W95122  10.832   8.362   2.353
28340W        W95123  26.597  13.592   0.490
28341W        W95124  20.101  36.241  14.677
28342W        W95125  25.527  43.238  14.393
28343W        W95126   0.411  28.574   0.003
28344W        W95127  26.860  26.727  11.415
28345W        W95128  30.403  14.928   3.598
28346W        W95129  14.157  31.630  12.050
28347W        W95130  30.980  39.315   9.806
28348W        W95131  27.529  43.806  14.608
28349W        W95132  33.577  32.051   3.222
28350W        W95133  15.341  44.208  10.909
28351W        W95134  18.206  41.648  11.907
28352W        W95135   7.815  41.545   2.682
28353W        W95136  39.425  10.573   0.279
28354W        W95137  21.189  43.329  11.979
28355W        W95138  43.848  21.579  10.770
28356W        W95139  36.045   3.443   2.129
28357W        W95140  12.782  26.448   2.415
28358W        W95141  42.460  16.055   2.019
28359W        W95142  14.926  40.376   5.525
28360W        W95143  12.151  26.234  10.681
28361W        W95144   1.662  18.858   0.227
28362W        W95145  26.946   5.994  12.853
28363W        W95146  11.689  13.854   3.647
28364W        W95147  23.632  44.047  12.187
28365W        W95148   5.521  15.114  13.931
28366W        W95149  27.669  20.832   2.491
28367W        W95150  20.102  10.707   1.887
28368W        W95151  36.332   4.622  14.907
28369W        W95152  30.262  12.721  11.090
28370W        W95153  15.164   2.496  13.523
28371W        W95154  33.911  12.297  13.145
28372W        W95155  11.161  12.715  13.813
28373W        W95156  39.467  39.743   3.680
28374W        W95157  21.593  37.139   4.329
28375W        W95158   3.535   9.294   4.557
28376W        W95159  17.815  41.434  13.504
28377W        W95160  18.055  25.121  11.837
28378W        W95161   2.172  23.971  11.395
28379W        W95162  11.823  10.067  11.208
28380W        W95163  39.587   7.426  10.727
28381W        W95164  22.808  17.424   1.676
28382W        W95165  13.734   5.764   3.237
28383W        W95166  16.399  38.931   3.206
28384W        W95167  13.680  14.248   4.187
28385W        W95168   3.389  13.257  10.587
28386W        W95169  18.163  21.710   0.340
28387W        W95170  17.791  38.429  12.440
28388W        W95171   0.260   4.339  13.981
28389W        W95172  23.088  22.171   0.397
28390W        W95173   0.498  16.149  14.296
28391W        W95174   7.747  40.323   0.293
28392W        W95175  32.983  14.342   4.922
28393W        W95176  41.020   5.939  11.507
28394W        W95177  32.580  44.778   1.342
28395W        W95178  27.377  20.696   3.287
28396W        W95179   5.461  23.301   4.062
28397W        W95180  12.125   4.435   2.223
28398W        W95181  25.428   5.286   3.278
28399W        W95182  24.290  13.736  13.005
28400W        W95183   5.518  20.809  14.186
28401W        W95184  11.917  18.718   0.644
28402W        W95185   6.909   3.793   1.369
28403W        W95186   5.686   5.215   2.024
28404W        W95187   9.706  44.146  12.950
28405W        W95188  24.947   0.056  13.915
28406W        W95189   3.898  12.382   0.946
28407W        W95190  10.027  14.867  13.981
28408W        W95191  40.367  33.411   4.533
28409W        W95192  21.271  12.568   2.866
28410W        W95193  44.318   8.842  12.395
28411W        W95194  30.465   8.704   4.518
28412W        W95195  39.527  23.118  11.919
28413W        W95196  21.701  20.531  12.523
28414W        W95197   5.695  19.042   0.151
28415W        W95198   3.786  24.133  11.665
28416W        W95199  15.050  40.822  10.725
28417W        W95200  16.649  10.622  12.392
28418W        W95201  25.544  34.329   0.279
28419W        W95202  38.659  36.145  11.998
28420W        W95203   0.463  26.256  11.054
28421W        W95204   3.134  19.762   2.215
28422W        W95205  34.901  33.945   3.095
28423W        W95206  24.229  23.826   0.703
28424W        W95207  43.914  24.511  11.400
28425W        W95208  25.107   6.002   3.893
28426W        W95209  20.871  28.892  11.273
28427W        W95210  28.979  44.726   1.420
28428W        W95211  22.071  11.176  13.272
28429W        W95212  12.390  37.014   1.139
28430W        W95213  38.386   7.296  10.586
28431W        W95214  27.510   4.703   0.040
28432W        W95215  22.002  17.627   3.735
28433W        W95216  32.416  44.290   4.993
28434W        W95217  15.793  42.541  11.109
28435W        W95218  21.339   0.108  13.279
28436W        W95219   6.504   2.768  11.962
28437W        W95220  30.093  23.646   1.941
28438W        W95221  19.121  22.058   0.784
28439W        W95222   7.117  29.497   2.243
28440W        W95223  27.108   4.508  10.456
28441W        W95224  20.530  12.594  12.810
28442W        W95225  19.801  17.604  13.680
28443W        W95226  17.716  29.968   0.586
28444W        W95227  30.242  20.555   0.386
28445W        W95228  36.895  33.501   0.347
28446W        W95229  37.732  37.542   3.066
28447W        W95230  36.682  24.293  11.947
28448W        W95231  41.505  33.942   4.415
28449W        W95232  28.658  26.381   2.414
28450W        W95233  13.507  28.010   1.472
28451W        W95234   6.470  25.572  10.872
28452W        W95235  39.558  27.684  12.960
28453W        W95236  36.527  13.014   3.799
28454W        W95237   3.530  14.694   1.862
28455W        W95238  42.339  33.876  13.395
28456W        W95239   0.873   5.211   4.248
28457W        W95240  32.852   9.118  13.420
28458W        W95241   3.480   8.949   0.244
28459W        W95242  14.388  10.251  13.442
28460W        W95243   3.974  28.344  11.316
28461W        W95244  39.359  13.239   4.297
28462W        W95245   2.027  23.055   1.798
28463W        W95246   4.600   4.510   2.189
28464W        W95247  44.824  44.690  12.405
28465W        W95248  31.624  12.335   3.605
28466W        W95249  23.646   1.426  13.724
28467W        W95250  37.013   6.770   1.904
28468W        W95251  25.600  33.631  13.459
28469W        W95252  20.030  29.064  10.941
28470W        W95253  35.995  16.877   4.550
28471W        W95254  29.476  24.702   1.908
28472W        W95255  28.439   0.400   3.634
28473W        W95256  23.914  44.003  14.775
28474W        W95257  44.843  35.101   0.703
28475W        W95258  22.922   7.217  12.075
28476W        W95259   9.623  25.117  10.678
28477W        W95260  21.438  37.411  12.925
28478W        W95261  30.035  40.026  13.864
28479W        W95262  27.035  10.129  13.076
28480W        W95263  32.066  34.924   4.988
28481W        W95264   1.719  12.364   2.395
28482W        W95265  29.132  27.232   3.455
28483W        W95266  19.243   9.382  13.200
28484W        W95267  19.268  14.580  12.145
28485W        W95268  37.335   7.283   3.231
28486W        W95269  44.388   0.231  10.263
28487W        W95270  26.186   1.038   2.148
28488W        W95271  39.535  16.620  14.953
28489W        W95272  29.821  15.572   2.209
28490W        W95273  19.544  17.865   1.301
28491W        W95274   9.868  18.230   0.194
28492W        W95275   5.367  10.292  10.015
28493W        W95276  44.317  41.023   9.910
28494W        W95277  22.609  28.513   2.185
28495W        W95278  40.092  12.267   3.097
28496W        W95279   7.418  37.039  13.143
28497W        W95280  12.593  34.357   0.018
28498W        W95281   7.369  34.126  11.189
28499W        W95282  22.632  24.967   1.048
28500W        W95283  35.294  26.145   1.015
28501W        W95284  43.383  35.498  10.623
28502W        W95285   7.513   0.796  10.802
28503W        W95286  36.625  40.269  13.397
28504W        W95287  32.743  20.539  12.576
28505W        W95288   0.802  10.399  14.450
28506W        W95289  20.467  37.273   0.524
28507W        W95290   5.705   1.217  14.535
28508W        W95291   2.976   3.486  12.014
28509W        W95292   1.532  18.700   2.182
28510W        W95293  11.183  14.917   2.494
28511W        W95294  41.386  22.620  12.025
28512W        W95295  31.289  33.428   3.172
28513W        W95296  18.468  16.849  10.063
28514W        W95297  28.483  33.816  12.449
28515W        W95298   2.667  36.559  13.786
28516W        W95299  30.948  44.331   2.530
28517W        W95300  15.467  40.849  12.469
28518W        W95301   7.174  21.525  12.066
28519W        W95302   3.488  16.594  13.437
28520W        W95303  30.174  35.023   3.280
28521W        W95304   1.213   1.263   1.349
28522W        W95305  27.214  36.339  13.926
28523W        W95306   2.327  24.283  12.586
28524W        W95307  30.707  15.392   3.601
28525W        W95308   4.089   2.817   4.166
28526W        W95309   8.729  29.647  11.290
28527W        W95310   6.108   1.805  10.541
28528W        W95311  20.874  20.804  13.862
28529W        W95312   7.418  41.816   1.348
28530W        W95313  37.709  12.935  10.288
28531W        W95314   1.366   1.105  14.926
28532W        W95315  35.058  12.148   0.636
28533W        W95316  17.812  28.073   0.455
28534W        W95317  14.478  12.251   4.183
28535W        W95318  32.280  21.113  13.978
28536W        W95319  16.114  10.251  14.376
28537W        W95320  38.917  44.230  11.923
28538W        W95321  12.351  10.664   4.374
28539W        W95322   9.677  32.003  13.533
28540W        W95323  26.123  35.056  13.364
28541W        W95324  26.715  43.611  14.003
28542W        W95325  10.915  25.035   0.764
28543W        W95326  29.549  32.224  14.749
28544W        W95327  32.616  18.600   3.563
28545W        W95328  44.557   7.650   0.584
28546W        W95329   7.175  40.869  14.080
28547W        W95330  14.411  13.699  14.955
28548W        W95331  15.661   1.971  12.938
28549W        W95332   5.308  15.565  14.093
28550W        W95333  11.881  19.021   1.076
28551W        W95334  18.542  24.612   4.884
28552W        W95335  22.696   9.407  11.912
28553W        W95336  19.561  40.334   0.794
28554W        W95337  15.236  10.177  14.783
28555W        W95338  12.180  17.339  13.785
28556W        W95339  41.792  15.706  13.463
28557W        W95340  26.232  32.874   0.383
28558W        W95341  27.195  42.983   1.277
28559W        W95342  27.589  36.793  13.401
28560W        W95343  17.681   8.888   1.902
28561W        W95344  25.453  23.937   2.371
28562W        W95345  44.152  35.843   3.163
28563W        W95346  16.556  22.061   1.875
28564W        W95347   9.192   8.083   1.442
28565W        W95348  19.568   9.446  11.351
28566W        W95349  31.916   6.837  13.415
28567W        W95350  31.043  34.424   3.829
28568W        W95351  33.435  17.645  11.494
28569W        W95352  33.398  20.932   3.217
28570W        W95353   1.370  32.866  10.646
28571W        W95354  30.586  11.905   2.158
28572W        W95355  27.520  38.241   3.921
28573W        W95356  15.746   3.940   4.633
28574W        W95357  16.522  14.229  11.503
28575W        W95358  15.003  16.996  14.027
28576W        W95359   5.595  13.430   2.495
28577W        W95360  35.920  31.115  13.287
28578W        W95361  29.334  26.216  11.921
28579W        W95362  20.723   7.358  14.269
28580W        W95363  21.204  16.209  13.943
28581W        W95364  18.021   7.289   0.416
28582W        W95365   6.504   8.900  11.458
28583W        W95366  10.816  42.415  13.510
28584W        W95367  42.607  29.650   3.322
28585W        W95368  18.129   0.904   1.215
28586W        W95369   8.330  40.880   4.963
28587W        W95370   1.741  11.690   2.982
28588W        W95371   8.153  42.285  12.724
28589W        W95372  33.448   6.815   1.734
28590W        W95373  22.606  33.247  11.940
28591W        W95374  10.324  17.526  13.401
28592W        W95375  16.152  14.804   2.121
28593W        W95376  37.636  30.356   4.301
28594W        W95377   4.010   5.413   3.163
28595W        W95378  15.827  33.040   2.906
28596W        W95379  33.638  21.420   1.045
28597W        W95380  13.355   8.127   3.584
28598W        W95381  38.829  15.676  11.606
28599W        W95382  14.237   9.708   1.616
28600W        W95383  40.080  40.550   4.640
28601W        W95384   2.706  23.727  13.416
28602W        W95385  42.689  33.167  11.604
28603W        W95386  44.759  39.085  13.475
28604W        W95387  34.821  27.630   3.666
28605W        W95388   2.908  32.384  14.327
28606W        W95389  44.802  10.830  12.907
28607W        W95390  21.695   8.255   4.549
28608W        W95391   4.448  10.379   2.450
28609W        W95392  33.636  18.648  11.108
28610W        W95393   1.657   1.610  13.390
28611W        W95394   9.162  21.391  12.889
28612W        W95395  21.052  12.390  12.564
28613W        W95396   8.207  16.954  10.826
28614W        W95397  15.147  23.673   1.037
28615W        W95398  37.369   1.925  13.993
28616W        W95399  26.523  14.543   2.276
28617W        W95400  25.763  42.361  13.399
28618W        W95401  33.769  11.268  13.747
28619W        W95402   8.319  11.223  11.973
28620W        W95403   1.509  28.142  10.981
28621W        W95404  12.066  25.921  14.735
28622W        W95405  25.771  17.004   1.779
28623W        W95406  44.403   6.742  10.687
28624W        W95407  32.702   7.613   0.858
28625W        W95408  15.625  16.347   0.245
28626W        W95409  15.230  15.859   2.101
28627W        W95410  18.215   0.293   4.528
28628W        W95411  18.831  29.871  14.518
28629W        W95412  22.959  30.443   5.052
28630W        W95413  24.694  28.980  10.272
28631W        W95414  18.560  12.672  10.631
28632W        W95415   8.929   7.581  11.075
28633W        W95416  11.137  12.210   0.366
28634W        W95417   3.461  21.312  12.154
28635W        W95418   0.615   3.654  12.330
28636W        W95419   7.713  27.495   2.316
28637W        W95420   4.013   4.995  11.509
28638W        W95421  28.164  23.511   0.842
28639W        W95422   1.810   6.443   4.649
28640W        W95423  38.235  11.681  14.085
28641W        W95424  16.348  38.471   3.445
28642W        W95425  12.095  36.096  13.398
28643W        W95426  21.640  16.161  13.532
28644W        W95427  31.044  43.774   3.226
28645W        W95428   0.129  34.547  13.919
28646W        W95429  22.163  21.859  11.579
28647W        W95430   9.353  29.360  14.415
28648W        W95431  16.367  29.014  14.319
28649W        W95432  10.036  34.858   5.077
28650W        W95433   0.191  42.425   0.560
28651W        W95434  40.559  42.487   0.434
28652W        W95435   4.331  18.535  10.645
28653W        W95436  34.927   7.178   1.847
28654W        W95437  35.531  20.103   3.051
28655W        W95438  33.641   6.479  13.051
28656W        W95439  23.426  42.337   3.192
28657W        W95440  16.157  29.325   4.467
28658W        W95441   9.744  39.313  14.961
28659W        W95442  40.880  33.579  12.637
28660W        W95443  44.833  26.511  12.443
28661W        W95444  22.407  15.331   4.658
28662W        W95445  34.974   7.555  14.539
28663W        W95446  14.810  39.083  11.569
28664W        W95447  10.797   0.033   1.221
28665W        W95448  38.279  39.485   3.239
28666W        W95449  18.836  38.518   3.269
28667W        W95450   3.500   9.659  12.497
28668W        W95451  27.956  14.340  13.514
28669W        W95452  23.553  15.653   0.808
28670W        W95453  33.381  23.001  10.380
28671W        W95454  31.156  23.068   0.826
28672W        W95455  26.432  43.469  11.970
28673W        W95456  24.726   9.365   4.395
28674W        W95457  41.894  42.818  12.924
28675W        W95458  42.960  38.438  12.006
28676W        W95459  37.801   9.475   9.750
28677W        W95460  36.548  37.932   1.702
28678W        W95461  17.234  18.462  13.016
28679W        W95462  16.525   6.409   2.690
28680W        W95463   6.676  16.186  10.831
28681W        W95464  11.689   4.341   2.504
28682W        W95465  42.489  11.156  10.300
28683W        W95466  18.954  38.429  11.738
28684W        W95467   5.206  34.586   3.147
28685W        W95468  11.303  27.949  14.455
28686W        W95469  35.303   9.215  14.364
28687W        W95470  18.554  39.930   4.361
28688W        W95471  10.030   8.183  12.434
28689W        W95472  31.685  26.216   3.701
28690W        W95473  11.691   4.344  10.709
28691W        W95474  37.473  13.431   4.490
28692W        W95475  10.947  40.399  11.124
28693W        W95476  16.260   6.936   3.312
28694W        W95477  12.449  31.138  12.616
28695W        W95478  29.218  23.208  13.047
28696W        W95479  37.350  28.898  13.579
28697W        W95480  37.670  40.484   2.948
28698W        W95481  34.406  33.104  12.539
28699W        W95482  22.596   2.201   2.232
28700W        W95483  39.131  15.154   3.370
28701W        W95484   7.312  35.976  14.767
28702W        W95485  24.909  18.731   0.991
28703W        W95486  17.710  23.390   2.801
28704W        W95487  41.323  42.883  11.933
28705W        W95488  32.038  12.696   2.683
28706W        W95489  24.612  17.371  13.142
28707W        W95490  28.881  22.592   1.858
28708W        W95491  25.210  44.295   2.134
28709W        W95492  34.752   9.681   2.692
28710W        W95493  30.787   5.631   1.242
28711W        W95494  34.436  40.104   4.448
28712W        W95495   5.954  32.944   4.525
28713W        W95496  30.049  29.100   0.411
28714W        W95497  25.532   2.385  12.683
28715W        W95498   8.997   6.368   0.898
28716W        W95499  11.744   2.291   4.937
28717W        W95500  16.213   1.475  12.413
28718W        W95501  22.054  35.110   1.314
28719W        W95502  35.746  29.953   3.217
28720W        W95503  14.167  35.435   3.357
28721W        W95504  28.961  17.893  13.534
28722W        W95505  30.536  43.323  12.537
28723W        W95506  34.626  29.656  10.763
28724W        W95507  16.062   9.216  14.149
28725W        W95508   6.722  43.240  14.951
28726W        W95509  38.514  23.656   3.715
28727W        W95510   2.228  38.255  13.482
28728W        W95511  38.092  32.035  14.349
28729W        W95512  40.711  13.252   1.266
28730W        W95513   0.431  17.869  14.405
28731W        W95514  40.235  21.148   2.649
28732W        W95515  17.505  25.264  13.477
28733W        W95516  16.160  35.465   3.782
28734W        W95517  36.513  30.002   4.245
28735W        W95518  17.227   9.783   2.320
28736W        W95519  23.454  34.097   2.472
28737W        W95520   3.252   4.809   0.321
28738W        W95521  11.829   8.327   3.524
28739W        W95522  33.067   3.265   0.002
28740W        W95523  32.121  13.186   5.005
28741W        W95524  40.537  35.056  11.195
28742W        W95525  28.488  23.221  11.059
28743W        W95526  34.335   5.024  11.568
28744W        W95527  25.547  23.083   1.363
28745W        W95528  25.686   3.447   1.105
28746W        W95529  21.237  12.663   2.341
28747W        W95530   0.959  18.629   4.576
28748W        W95531  31.849  21.266   3.664
28749W        W95532  37.836  25.389   3.619
28750W        W95533  40.457  27.166   3.055
28751W        W95534  36.429  31.081   2.700
28752W        W95535  14.530  13.030   4.725
28753W        W95536  32.556  24.645   3.293
28754W        W95537  33.686  43.059   4.243
28755W        W95538   1.311  10.046  10.977
28756W        W95539  35.709  15.777   9.759
28757W        W95540  21.273  12.317  13.079
28758W        W95541  26.271   4.874  10.856
28759W        W95542  43.393   5.255   4.113
28760W        W95543  14.133  26.907  12.076
28761W        W95544  21.271   0.011   0.781
28762W        W95545  24.728  37.193   0.663
28763W        W95546   0.760  19.213   2.213
28764W        W95547  36.832  25.293   3.691
28765W        W95548  17.285  39.577  11.637
28766W        W95549  10.461  15.604  12.121
28767W        W95550  12.728  39.782   4.923
28768W        W95551  44.450   2.299   3.228
28769W        W95552  36.660  28.004   3.152
28770W        W95553  35.169  23.944   1.102
28771W        W95554  25.890  24.693   2.175
28772W        W95555  28.080  27.813   3.751
28773W        W95556  38.829  33.064  11.110
28774W        W95557  39.824  11.665   1.210
28775W        W95558  25.940   3.677   5.416
28776W        W95559  32.468  20.112  13.996
28777W        W95560  11.315  38.140  13.956
28778W        W95561  21.095   1.786   0.326
28779W        W95562  23.593  12.931  14.870
28780W        W95563   5.747  10.307  13.784
28781W        W95564  29.287  36.134  10.349
28782W        W95565  20.070  12.157  14.776
28783W        W95566  23.722  44.156   2.365
28784W        W95567  44.159  36.470  13.909
28785W        W95568  29.238  17.801   4.215
28786W        W95569  19.177  12.744   4.729
28787W        W95570  10.877  42.710   4.514
28788W        W95571  37.492  40.772   0.384
28789W        W95572   6.770   6.838  10.787
28790W        W95573  24.445  27.674  10.928
28791W        W95574  27.051  44.889  11.685
28792W        W95575  16.885  39.019   3.260
28793W        W95576  23.668  15.619  14.421
28794W        W95577  15.868  26.898   0.697
28795W        W95578   8.488  26.340   4.498
28796W        W95579  23.159  28.569   4.151
28797W        W95580   2.365  36.448  11.135
28798W        W95581  20.731   2.830  14.614
28799W        W95582  34.607  29.163   1.815
28800W        W95583   9.914   4.306  12.261
28801W        W95584  23.214  33.494   3.203
28802W        W95585  26.523  17.049  12.151
28803W        W95586  31.833  43.282  11.050
28804W        W95587  13.103  35.327  11.155
28805W        W95588  10.200  19.800  10.264
28806W        W95589   0.815   0.233  14.159
28807W        W95590   8.391  12.831  11.898
28808W        W95591   6.215   2.696  12.399
28809W        W95592  29.027  28.876   3.997
28810W        W95593  33.114  31.595   3.802
28811W        W95594  21.517  17.561  14.506
28812W        W95595   1.279  13.054  13.364
28813W        W95596   0.302  21.323   1.771
28814W        W95597  23.207  32.621   2.244
28815W        W95598   1.770  13.162  13.613
28816W        W95599  12.113  34.882  10.794
28817W        W95600  22.061  27.228  11.939
28818W        W95601  15.227   3.519   3.837
28819W        W95602  28.051  15.572   2.363
28820W        W95603  18.054  20.718  12.225
28821W        W95604   5.401   4.070  14.292
28822W        W95605  11.389  19.804  14.196
28823W        W95606  14.559  25.477  13.781
28824W        W95607  42.794  42.747  12.950
28825W        W95608  17.696  31.071   2.643
28826W        W95609  29.784  21.028  11.565
28827W        W95610  37.299  19.468  11.506
28828W        W95611  30.967  22.010   2.335
28829W        W95612  37.431  20.098  14.478
28830W        W95613  38.838   4.439   0.979
28831W        W95614  25.649   5.909  10.778
28832W        W95615  34.756  36.344   2.652
28833W        W95616  21.370  16.681   9.804
28834W        W95617  22.533  30.192  11.414
28835W        W95618   8.181  19.600  10.826
28836W        W95619   6.638  34.481   2.363
28837W        W95620   3.008  11.768   0.655
28838W        W95621  17.224  17.757   3.528
28839W        W95622  30.733  15.514  14.145
28840W        W95623  17.495  43.419   4.491
28841W        W95624   5.066  10.629   1.911
28842W        W95625  29.441  42.533   4.585
28843W        W95626  15.361  20.555  13.436
28844W        W95627  12.488  20.967  14.341
28845W        W95628   3.464  35.600   2.828
28846W        W95629  44.456  35.475   2.947
28847W        W95630  26.645  41.608   5.055
28848W        W95631  10.721  15.121   2.372
28849W        W95632  26.370  24.137   3.240
28850W        W95633  10.661  14.529   4.613
28851W        W95634  14.557  37.118   4.004
28852W        W95635  43.395   8.584  10.729
28853W        W95636  24.171  30.617  10.289
28854W        W95637  16.220  23.389  13.606
28855W        W95638   8.785  10.291   4.009
28856W        W95639  28.424  12.023   2.839
28857W        W95640  18.662  44.068   1.008
28858W        W95641  31.369  38.258  13.335
28859W        W95642  22.593  20.482   4.425
28860W        W95643   8.391  13.348  10.647
28861W        W95644  36.744  23.036  13.004
28862W        W95645   7.708  23.991   1.183
28863W        W95646  35.831   6.263   3.538
28864W        W95647  43.757  38.607   3.880
28865W        W95648   5.768  27.706   0.748
28866W        W95649  31.124   3.737   4.289
28867W        W95650   7.682  35.939  10.427
28868W        W95651  10.235  28.896  11.160
28869W        W95652  38.116  39.275  12.113
28870W        W95653   1.487  28.599   4.565
28871W        W95654  17.288  12.650   0.858
28872W        W95655  40.571  37.112  13.762
28873W        W95656   1.502  35.921   4.581
28874W        W95657  43.540  41.827   3.783
28875W        W95658  23.037  43.004  14.242
28876W        W95659  36.548  30.916   3.748
28877W        W95660  16.748  39.341  13.719
28878W        W95661  24.965  35.507  11.234
28879W        W95662  24.271  44.927   2.669
28880W        W95663  35.428  11.609  10.680
28881W        W95664   3.704  44.199  11.711
28882W        W95665   8.265  10.677   2.120
28883W        W95666  24.649   4.470  11.001
28884W        W95667  43.568  42.519  11.024
28885W        W95668  41.454  25.006   4.506
28886W        W95669  24.555   1.361   3.637
28887W        W95670  33.442  30.931  10.972
28888W        W95671  30.332   1.469  11.188
28889W        W95672   2.143  11.821  14.835
28890W        W95673  30.079  11.937  13.541
28891W        W95674  26.636  28.219   3.689
28892W        W95675  34.907  15.100  11.971
28893W        W95676  20.989   0.858   3.271
28894W        W95677  39.469  31.198  13.121
28895W        W95678  23.559  28.687  13.291
28896W        W95679  31.678  44.000   3.817
28897W        W95680  24.704  18.585   2.652
28898W        W95681   4.426   3.774   1.822
28899W        W95682   4.926  24.008   2.766
28900W        W95683  40.695  29.214   4.034
28901W        W95684  15.997   7.264   3.609
28902W        W95685  11.290  12.902  14.810
28903W        W95686  39.545  23.618   4.566
28904W        W95687  29.558  17.816   2.134
28905W        W95688  39.281  13.441  10.187
28906W        W95689  29.684   9.874   1.910
28907W        W95690  16.348   9.346   2.668
28908W        W95691  10.336   1.853  10.731
28909W        W95692  26.263   8.245  13.815
28910W        W95693  12.338  37.086   4.188
28911W        W95694   9.919  33.601  11.150
28912W        W95695  43.389  30.645   0.341
28913W        W95696  11.627  10.766   2.370
28914W        W95697   7.220  42.474   3.907
28915W        W95698  19.733  41.868   4.648
28916W        W95699  31.567  44.834   3.119
28917W        W95700  24.276   3.435   2.767
28918W        W95701  28.752  13.257   4.917
28919W        W95702  17.815  41.547   0.541
28920W        W95703  37.333  14.516   4.585
28921W        W95704  40.536  18.645  11.162
28922W        W95705   6.181  25.232   0.512
28923W        W95706  16.497  33.947   1.055
28924W        W95707  43.275  30.800   0.852
28925W        W95708  27.796  33.119  14.501
28926W        W95709  21.654  43.593  14.515
28927W        W95710  28.096  13.390   0.265
28928W        W95711  35.963  17.639   3.352
28929W        W95712  17.764  33.080   0.943
28930W        W95713   9.993  41.754   3.333
28931W        W95714   8.829  27.434  14.942
28932W        W95715  27.165  12.202  12.512
28933W        W95716  40.011   5.989   2.293
28934W        W95717   7.163  36.138  14.277
28935W        W95718  26.617  44.518   3.857
28936W        W95719  43.541  15.252   2.660
28937W        W95720   5.301  17.860   0.579
28938W        W95721  26.359  18.341   1.071
28939W        W95722   4.452  27.214   0.885
28940W        W95723   1.886  13.252   2.667
28941W        W95724  15.323  11.532   0.627
28942W        W95725  38.258  23.639   4.178
28943W        W95726  40.474  21.563   2.857
28944W        W95727  18.842   2.460  11.413
28945W        W95728   4.748  36.240   3.218
28946W        W95729  32.280  30.370   3.722
28947W        W95730  40.586  16.551   0.692
28948W        W95731  28.397  40.827   0.059
28949W        W95732  13.843  17.559   3.568
28950W        W95733  20.731   6.760  12.162
28951W        W95734   4.931   9.462   4.466
28952W        W95735   5.531  19.121  11.087
28953W        W95736   4.520  30.000  10.722
28954W        W95737   9.540   1.887   4.250
28955W        W95738  25.046  29.085  11.730
28956W        W95739   5.070   2.433  11.195
28957W        W95740  19.211  21.020   2.359
28958W        W95741   8.161   9.047  10.599
28959W        W95742  30.607  27.560  11.968
28960W        W95743   4.485   1.851  14.370
28961W        W95744  26.158  12.156  14.807
28962W        W95745  43.458   2.383  13.029
28963W        W95746  11.611   8.713  12.070
28964W        W95747  24.264   0.245   2.203
28965W        W95748  19.516  10.145   2.694
28966W        W95749  26.451  35.291  10.568
28967W        W95750  25.572  15.107   2.376
28968W        W95751  10.439  41.439   2.347
28969W        W95752  23.158  30.620   0.844
28970W        W95753  20.723  28.411  11.155
28971W        W95754  24.468  21.893  11.502
28972W        W95755  18.581  41.559  13.074
28973W        W95756  10.157  23.255   4.603
28974W        W95757   3.507  26.173   2.475
28975W        W95758  26.770   9.490   4.371
28976W        W95759   3.731  22.105  13.108
28977W        W95760  44.831  28.443  11.593
28978W        W95761  42.042  14.209   3.528
28979W        W95762   9.368   0.838  14.480
28980W        W95763   3.944   7.743   1.211
28981W        W95764  17.870  16.651   2.716
28982W        W95765  40.001   3.460   4.056
28983W        W95766  44.761  44.015   2.434
28984W        W95767   2.929   1.292  11.523
28985W        W95768  27.138  40.458   1.395
28986W        W95769   6.676  39.571  13.515
28987W        W95770  12.186  37.620  12.638
28988W        W95771  38.162  11.525   3.542
28989W        W95772  14.967  33.342  13.839
28990W        W95773  18.738  30.736  12.046
28991W        W95774  15.373  26.180  10.342
28992W        W95775   2.106  32.987   2.037
28993W        W95776  21.490  35.587  11.207
28994W        W95777  21.469   9.985   4.212
28995W        W95778  34.572  10.164   4.425
28996W        W95779  16.037  10.255  11.652
28997W        W95780  28.730  25.900  10.705
28998W        W95781  29.713  22.916   3.281
28999W        W95782  23.599  26.411   1.204
29000W        W95783  20.144  16.281  14.895
29001W        W95784   1.557  10.534   1.340
29002W        W95785  20.564  44.932   0.011
29003W        W95786  11.902  29.653  11.180
29004W        W95787   1.846  42.413  14.792
29005W        W95788   2.816  24.891   0.160
29006W        W95789  26.870  29.967  13.719
29007W        W95790  28.368   4.161   1.319
29008W        W95791   9.249   5.923   4.113
29009W        W95792   5.182   4.778  13.095
29010W        W95793  25.675   5.531  11.161
29011W        W95794  35.420  39.399   2.314
29012W        W95795  42.850  42.924   3.118
29013W        W95796  17.330  13.112   3.197
29014W        W95797  28.426  22.825  10.753
29015W        W95798  16.283  34.112  13.420
29016W        W95799  44.192  15.744   2.843
29017W        W95800  22.322  33.189  14.497
29018W        W95801  29.886   0.159  13.641
29019W        W95802  32.216  41.126   0.283
29020W        W95803  44.911  40.111   0.770
29021W        W95804  25.067  37.188  14.976
29022W        W95805  16.318  16.572  14.835
29023W        W95806  10.875  22.625   1.632
29024W        W95807  13.852  28.523  11.004
29025W        W95808  36.565  36.527  12.491
29026W        W95809  19.659  43.253   2.333
29027W        W95810  19.999  16.649   3.458
29028W        W95811  32.068   1.907  12.903
29029W        W95812   6.451  28.689   4.539
29030W        W95813  23.121  27.919  11.899
29031W        W95814  33.086  31.629   1.515
29032W        W95815   7.290  31.935  13.676
29033W        W95816   8.436  32.021   4.348
29034W        W95817  27.801  14.027  13.900
29035W        W95818  39.996  34.857   1.610
29036W        W95819   1.102   8.934  14.316
29037W        W95820  16.358  31.526  11.518
29038W        W95821  32.224  37.321   4.542
29039W        W95822  40.755  13.388  13.262
29040W        W95823  11.788   1.440  14.459
29041W        W95824  33.614  34.001   0.182
29042W        W95825  17.073  14.810  14.388
29043W        W95826  31.365  34.910  10.767
29044W        W95827   1.167   7.101   0.816
29045W        W95828   7.926  10.283   1.211
29046W        W95829  26.793  23.393   1.618
29047W        W95830  22.296  27.687   2.628
29048W        W95831  26.391  25.267   2.858
29049W        W95832   5.323  25.100   4.422
29050W        W95833   6.703  27.005  11.580
29051W        W95834  18.364   6.593  10.738
29052W        W95835  39.228  36.257   3.759
29053W        W95836  28.334   6.562  10.886
29054W        W95837  26.257  18.263  12.506
29055W        W95838  29.190  23.012  12.575
29056W        W95839   4.731  13.257   4.579
29057W        W95840  36.435  33.650  13.034
29058W        W95841  31.467  39.225   2.632
29059W        W95842   1.287   9.681   4.531
29060W        W95843  36.904  26.769  10.271
29061W        W95844  17.488   9.967  14.333
29062W        W95845  18.371   8.306  11.038
29063W        W95846  30.569  44.317   2.186
29064W        W95847  10.451   4.214  14.267
29065W        W95848   3.615  30.620  12.155
29066W        W95849  40.933   3.702  11.848
29067W        W95850  44.935   8.153  13.388
29068W        W95851  23.108  28.084  12.381
29069W        W95852   4.300  34.575  11.188
29070W        W95853   5.325  33.649  11.294
29071W        W95854  22.293  37.897  12.546
29072W        W95855  30.928  12.123   3.604
29073W        W95856  22.167  17.722  12.344
29074W        W95857  30.651  13.110  13.379
29075W        W95858  16.040  26.391   2.755
29076W        W95859  11.683  37.775   0.786
29077W        W95860  15.649  27.085  10.738
29078W        W95861   0.362  25.397   2.087
29079W        W95862  31.135   0.821   4.612
29080W        W95863  21.250  25.240   0.661
29081W        W95864  28.011  20.348  13.447
29082W        W95865  39.760  24.657  12.562
29083W        W95866  12.571  37.000  11.578
29084W        W95867  11.728  31.298  14.066
29085W        W95868  32.170  21.576  11.621
29086W        W95869  16.385   3.157   2.189
29087W        W95870  33.017   2.469   4.656
29088W        W95871  15.222  44.997   3.720
29089W        W95872   0.332  11.873   9.779
29090W        W95873  19.354   8.312  11.957
29091W        W95874  23.024   3.943  12.266
29092W        W95875  12.555  36.662   4.971
29093W        W95876  40.662  44.975   2.370
29094W        W95877  16.863   4.461  11.172
29095W        W95878  40.303  33.837   0.242
29096W        W95879  41.700  25.087   1.200
29097W        W95880  41.912  15.715  10.796
29098W        W95881   1.728  38.342   2.784
29099W        W95882  33.828  22.575   4.129
29100W        W95883  22.694  42.319  11.663
29101W        W95884  32.571   1.757  12.461
29102W        W95885  24.743  15.054  13.502
29103W        W95886  33.791  22.263   0.845
29104W        W95887  15.218  17.850  11.595
29105W        W95888  43.316  34.508   2.390
29106W        W95889  14.126   3.806   0.935
29107W        W95890  43.478   0.359   2.836
29108W        W95891  41.281  13.294   0.376
29109W        W95892  25.630  26.067  11.839
29110W        W95893  10.830  42.461   0.444
29111W        W95894  32.131  21.240  13.133
29112W        W95895  33.315  36.531   2.187
29113W        W95896   9.805  21.644   4.893
29114W        W95897  41.010  19.089   2.639
29115W        W95898  30.131   6.381   1.275
29116W        W95899  25.472  24.209  12.581
29117W        W95900  41.348  23.871   3.708
29118W        W95901  40.579  35.581   1.289
29119W        W95902  11.751  38.439   1.373
29120W        W95903  43.786  13.080   1.444
29121W        W95904  20.450  12.377   3.255
29122W        W95905  18.187  10.930  14.281
29123W        W95906  20.853  38.997   2.407
29124W        W95907  43.762  40.429  13.755
29125W        W95908  40.168  34.407   1.808
29126W        W95909  19.085   7.993  13.768
29127W        W95910  39.459  38.890   2.776
29128W        W95911   4.224  16.837   1.754
29129W        W95912   9.592  29.139  13.477
29130W        W95913   5.847  40.604   4.676
29131W        W95914  16.131   0.794   2.381
29132W        W95915  28.400  28.827  14.736
29133W        W95916  27.313  31.448  14.999
29134W        W95917  23.465  20.247  14.064
29135W        W95918   0.306  31.825   1.381
29136W        W95919  36.653   3.311   4.682
29137W        W95920  39.251  17.171   1.232
29138W        W95921  42.153  38.959   1.831
29139W        W95922   2.723  26.545   3.748
29140W        W95923   5.232  32.173   4.405
29141W        W95924  20.808   0.859   1.014
29142W        W95925  22.168  12.091   4.116
29143W        W95926  23.293   6.361  13.958
29144W        W95927  44.798  25.574   2.779
29145W        W95928  20.255  13.654  10.765
29146W        W95929  37.569   6.798   3.941
29147W        W95930  10.575   5.306  13.462
29148W        W95931  42.007   8.187  13.436
29149W        W95932  38.819   8.906   4.926
29150W        W95933   1.973  38.077  14.661
29151W        W95934  27.120  10.160  14.716
29152W        W95935  33.901  20.886  12.482
29153W        W95936  24.657  38.002   1.616
29154W        W95937  40.982  30.700   3.298
29155W        W95938  39.196  43.544  13.070
29156W        W95939  14.273  20.187   0.459
29157W        W95940  37.510   2.690  11.114
29158W        W95941  19.284  41.933  14.048
29159W        W95942  24.042  22.550   1.303
29160W        W95943   0.428  23.451  12.964
29161W        W95944   5.966  40.534  13.483
29162W        W95945  23.006   4.701  14.847
29163W        W95946  15.413  34.008  14.666
29164W        W95947  29.994   4.471  10.647
29165W        W95948  32.494  29.785  11.539
29166W        W95949   1.335  20.041   2.148
29167W        W95950  24.091  31.695   5.038
29168W        W95951  17.164   6.282   5.020
29169W        W95952  44.355  26.460  13.871
29170W        W95953   1.083  11.667  12.412
29171W        W95954  31.432  14.118  11.863
29172W        W95955  26.139  40.806   3.747
29173W        W95956  14.316  26.679  14.995
29174W        W95957  17.558  37.092  13.257
29175W        W95958  25.684  39.327  11.953
29176W        W95959  28.561  21.444  11.192
29177W        W95960  26.651  41.586   1.343
29178W        W95961   1.119  37.071  11.318
29179W        W95962  24.528  38.058   2.116
29180W        W95963  20.358  41.420  11.988
29181W        W95964  19.202  14.328  13.130
29182W        W95965  41.863   4.647  12.223
29183W        W95966  27.416  35.661  14.456
29184W        W95967  36.942  28.780  12.103
29185W        W95968   9.482  11.159  14.491
29186W        W95969  19.082  44.900   3.866
29187W        W95970  41.339   3.406   1.179
29188W        W95971  24.073  30.445  14.990
29189W        W95972  19.085  32.152   2.238
29190W        W95973  17.179  27.905  13.704
29191W        W95974  41.435   3.171  12.538
29192W        W95975  15.364   5.708  13.427
29193W        W95976  24.169  29.380  14.700
29194W        W95977  37.522  28.850   1.859
29195W        W95978  40.329  18.518  13.324
29196W        W95979  29.975  30.198  12.646
29197W        W95980  31.056  22.310   4.199
29198W        W95981  36.856  31.010   2.414
29199W        W95982  36.126  44.022  14.858
29200W        W95983   6.253  13.549  14.798
29201W        W95984  23.766  27.707   3.903
29202W        W95985   2.327   5.216   0.696
29203W        W95986  23.594  41.453  10.029
29204W        W95987  28.340  32.356   4.451
29205W        W95988  12.393  27.248  13.913
29206W        W95989  28.124   3.146  11.669
29207W        W95990  11.690   7.072   1.006
29208W        W95991  13.975   6.316  13.054
29209W        W95992  10.050  24.437  12.111
29210W        W95993  26.554  17.869   1.195
29211W        W95994  17.144  29.165   3.177
29212W        W95995  39.793   4.747   0.856
29213W        W95996  31.029  14.287  10.791
29214W        W95997   3.962  14.165  14.524
29215W        W95998   7.793  29.119  10.888
29216W        W95999  29.616  25.189  14.709
29217W        W96000   0.353  22.121  13.486
29218W        W96001   3.082   7.272  14.024
29219W        W96002  16.134   0.102   1.866
29220W        W96003  35.184  11.858  12.733
29221W        W96004  21.675  40.302  13.531
29222W        W96005   2.936   7.646  11.108
29223W        W96006  30.933   5.793   4.478
29224W        W96007  20.552   1.235   0.767
29225W        W96008  26.619  44.988  11.979
29226W        W96009  25.092  21.588   2.207
29227W        W96010   8.232  10.767   3.175
29228W        W96011   5.092   7.158   2.255
29229W        W96012  10.266   2.866   1.964
29230W        W96013   6.410  29.579   3.569
29231W        W96014  34.408  25.207   4.123
29232W        W96015   1.798  19.466  12.305
29233W        W96016  25.609  29.683   3.067
29234W        W96017  13.187   9.924   0.363
29235W        W96018  36.644  42.842  10.148
29236W        W96019  35.072  22.642  12.896
29237W        W96020  25.618   4.890   2.938
29238W        W96021  35.459  20.237  14.360
29239W        W96022  39.041  31.388  14.021
29240W        W96023  24.469  15.236  13.907
29241W        W96024   9.236   7.112   4.885
29242W        W96025  16.675  32.790  10.532
29243W        W96026   5.466  40.849  12.434
29244W        W96027  36.903  15.523  11.656
29245W        W96028  20.595  39.726   0.818
29246W        W96029   0.784  14.789  13.199
29247W        W96030  33.507  38.019  14.696
29248W        W96031   2.337  35.418   4.664
29249W        W96032  17.217  31.591   0.384
29250W        W96033   8.619   1.507  11.134
29251W        W96034   0.316   1.714   0.565
29252W        W96035  31.885  36.329   5.022
29253W        W96036  15.238  25.170  13.818
29254W        W96037   3.050   9.014   1.795
29255W        W96038  12.274   6.245  10.814
29256W        W96039  16.533   1.924  14.524
29257W        W96040  43.306  11.227  12.960
29258W        W96041  31.924  36.106  11.688
29259W        W96042  39.531  20.545  12.951
29260W        W96043  42.791  31.614  12.222
29261W        W96044  42.545   4.032  12.524
29262W        W96045  16.801  17.320  12.541
29263W        W96046   1.920   9.454   2.758
29264W        W96047  13.056  23.148   4.635
29265W        W96048  24.429  25.047  11.985
29266W        W96049  32.496  43.791  13.882
29267W        W96050  23.444  40.032   4.350
29268W        W96051   1.972   0.369  13.037
29269W        W96052  39.393   9.679  12.118
29270W        W96053   4.718  20.968  14.779
29271W        W96054  39.559  17.757  12.493
29272W        W96055   6.096  16.317   2.412
29273W        W96056  20.808   0.428  13.915
29274W        W96057  43.326  20.252  11.039
29275W        W96058  18.226  18.681   4.189
29276W        W96059   3.916  10.187  12.523
29277W        W96060  20.226   9.774   1.405
29278W        W96061   0.395  29.250   1.412
29279W        W96062  20.980  17.793  12.992
29280W        W96063  33.037  42.746   0.427
29281W        W96064  30.498  44.205   0.412
29282W        W96065  18.457  16.823   5.156
29283W        W96066  14.154  15.325  12.942
29284W        W96067  10.335  42.065  13.407
29285W        W96068  42.802   3.722  10.854
29286W        W96069  23.327  17.987   0.698
29287W        W96070  17.068  41.040   1.957
29288W        W96071  11.610  24.217   1.313
29289W        W96072  28.697   3.795  13.971
29290W        W96073  32.375   9.288  11.401
29291W        W96074   2.215  11.594   2.747
29292W        W96075  29.835  39.332  13.605
29293W        W96076  33.434  38.758  12.555
29294W        W96077  24.713  37.962   1.093
29295W        W96078  22.707   1.800   0.877
29296W        W96079  27.079   1.864  11.920
29297W        W96080   8.906  17.102   4.869
29298W        W96081   2.303   5.143  14.346
29299W        W96082  41.842  38.766  11.121
29300W        W96083  10.772  20.721   4.181
29301W        W96084   3.928  28.465  10.817
29302W        W96085   0.812  36.667  11.279
29303W        W96086  32.400  36.066   4.454
29304W        W96087  24.503  16.497   3.043
29305W        W96088  28.960  24.239   2.347
29306W        W96089   4.130  15.634  10.757
29307W        W96090  34.616  15.836   2.023
29308W        W96091   6.350  40.495  11.007
29309W        W96092  30.074  40.577   2.858
29310W        W96093   8.755   1.926   4.943
29311W        W96094   7.461  11.028  10.922
29312W        W96095  42.759  40.387  11.731
29313W        W96096  41.472  21.190   4.228
29314W        W96097  29.399  26.722  14.403
29315W        W96098   6.431  37.971   3.698
29316W        W96099  37.416  39.917  12.964
29317W        W96100   9.391  41.829   0.217
29318W        W96101  16.235  10.194   1.885
29319W        W96102  39.135  21.291   1.799
29320W        W96103  16.146  34.526  13.768
29321W        W96104   1.588  25.247   4.966
29322W        W96105  21.238  34.124   0.489
29323W        W96106  19.986   3.019   2.463
29324W        W96107   0.984   7.836   0.439
29325W        W96108  38.485  35.934   0.780
29326W        W96109  30.545  30.337  12.495
29327W        W96110   4.349  16.718  13.101
29328W        W96111  22.765   4.430   3.625
29329W        W96112   2.710  29.073  14.028
29330W        W96113  22.209  36.933  14.535
29331W        W96114  16.093   2.428  11.588
29332W        W96115  10.569   6.864  11.683
29333W        W96116   2.824   7.270  13.019
29334W        W96117  27.430   0.437   0.488
29335W        W96118  20.387  29.942  14.656
29336W        W96119  26.445  41.055  14.358
29337W        W96120  30.661  10.772   4.533
29338W        W96121  31.400  37.415   4.219
29339W        W96122  10.567  32.177   0.472
29340W        W96123  25.667  13.831  11.973
29341W        W96124  14.847  31.606   4.830
29342W        W96125  26.894  29.905   0.859
29343W        W96126   2.808  23.712   3.188
29344W        W96127  16.440   5.323  11.528
29345W        W96128   7.689   9.119   1.673
29346W        W96129  42.003   8.399   1.854
29347W        W96130  34.021  32.020  10.303
29348W        W96131  30.085  31.935  13.034
29349W        W96132  25.353  43.197   3.158
29350W        W96133  35.061  41.001   0.052
29351W        W96134  16.052  14.281  11.995
29352W        W96135  44.333  15.460  13.985
29353W        W96136  12.104  23.035  14.903
29354W        W96137  15.387   5.361  13.051
29355W        W96138  44.576  29.592   0.799
29356W        W96139   9.225  44.925  10.266
29357W        W96140  26.215  24.633   1.800
29358W        W96141   7.061   5.708  11.881
29359W        W96142   1.270  21.041  10.914
29360W        W96143  25.356  25.634   0.776
29361W        W96144  25.470  39.580   0.835
29362W        W96145  23.600  40.611   2.654
29363W        W96146   6.821   9.162   1.824
29364W        W96147  32.453  13.058   2.848
29365W        W96148  29.557  27.523  11.733
29366W        W96149   4.359  25.140   2.356
29367W        W96150  12.373  44.519  14.530
29368W        W96151  12.360  19.017   1.304
29369W        W96152  32.800  14.329   1.930
29370W        W96153  21.770  26.269  11.564
29371W        W96154  13.319  16.066  12.916
29372W        W96155  42.859  41.347  12.563
29373W        W96156  19.281   5.310   4.388
29374W        W96157  40.673  28.445   2.272
29375W        W96158  14.795  25.775   0.376
29376W        W96159  23.711  16.623  11.583
29377W        W96160  42.843  40.269  14.494
29378W        W96161   1.816  41.987   4.767
29379W        W96162   6.925  36.629   3.611
29380W        W96163   6.321  37.306   3.277
29381W        W96164   8.292  17.484   1.825
29382W        W96165   4.389  22.016   0.750
29383W        W96166   5.644  16.119   2.488
29384W        W96167  22.600  22.395  12.963
29385W        W96168  31.859  40.525   2.932
29386W        W96169  29.834  31.056   2.379
29387W        W96170  30.554  29.630   2.866
29388W        W96171  13.076  17.844   4.832
29389W        W96172  37.328  15.566   3.961
29390W        W96173  36.440  28.750  10.766
29391W        W96174  15.799  23.030  11.528
29392W        W96175  28.649  16.653   2.659
29393W        W96176   7.458  28.497  14.152
29394W        W96177   7.853   0.886   1.440
29395W        W96178   9.283  38.265  13.599
29396W        W96179   1.934  16.024   3.214
29397W        W96180  30.945   5.159  12.583
29398W        W96181  17.162  39.656  13.663
29399W        W96182  14.996  26.038  11.180
29400W        W96183   3.081  38.711   4.087
29401W        W96184  33.795   5.540   0.321
29402W        W96185  12.420  44.225   3.502
29403W        W96186   9.326  15.658   3.599
29404W        W96187  33.405   2.464  12.040
29405W        W96188  28.559   7.786   4.435
29406W        W96189  32.351  26.508  14.522
29407W        W96190  44.857  17.506   3.789
29408W        W96191  28.435  43.426   3.966
29409W        W96192  28.414  14.589  13.619
29410W        W96193  10.818  30.112   0.994
29411W        W96194  35.559  21.871  13.510
29412W        W96195  30.893  35.811  11.577
29413W        W96196   2.570  12.594   1.374
29414W        W96197  32.868   0.361   2.307
29415W        W96198  22.576  37.567  10.698
29416W        W96199  33.848   3.873   2.450
29417W        W96200  17.091   5.531  14.858
29418W        W96201  33.603  31.422   3.946
29419W        W96202  18.232  21.918   1.245
29420W        W96203   7.054  11.721  13.049
29421W        W96204  27.724  13.321   4.669
29422W        W96205  26.593  43.705  11.445
29423W        W96206  26.861   1.919   4.176
29424W        W96207  10.191  37.855   1.933
29425W        W96208   4.074   0.988  10.623
29426W        W96209  33.355   1.436  11.261
29427W        W96210  24.104  37.608  10.383
29428W        W96211   6.131  28.279  11.281
29429W        W96212   6.261  40.057   4.108
29430W        W96213  13.330  27.454  13.571
29431W        W96214   1.714  27.922   3.280
29432W        W96215   4.094   5.545   0.020
29433W        W96216  15.200   6.156  13.216
29434W        W96217   5.518   9.381   0.111
29435W        W96218  25.638  41.910  10.593
29436W        W96219  10.375  14.321  11.323
29437W        W96220  43.201  37.101   1.332
29438W        W96221   2.941  22.546   2.298
29439W        W96222   2.745  37.415   4.410
29440W        W96223  26.472  28.217  12.964
29441W        W96224   7.826  10.111  13.562
29442W        W96225   9.920  36.654  14.576
29443W        W96226  23.695   1.699   0.559
29444W        W96227   2.480  12.722  13.027
29445W        W96228  38.140  37.544   1.227
29446W        W96229  40.752  28.157   0.266
29447W        W96230  37.575  11.025  10.276
29448W        W96231  39.037  31.936   1.197
29449W        W96232  21.292  38.973  10.689
29450W        W96233   3.242  10.173   3.687
29451W        W96234   5.481  26.056   3.339
29452W        W96235  36.530  42.133  12.543
29453W        W96236  44.541  25.685  14.923
29454W        W96237  40.971   7.203  12.698
29455W        W96238  36.622  21.593   4.609
29456W        W96239   8.483  14.101  13.345
29457W        W96240  10.078   8.223  14.196
29458W        W96241  10.722   3.252  11.552
29459W        W96242  41.045  35.741  13.548
29460W        W96243  39.538  11.600  13.494
29461W        W96244  44.724  44.311   2.861
29462W        W96245   5.856   6.739   0.120
29463W        W96246  36.330  35.539  10.789
29464W        W96247  18.760  28.792   4.533
29465W        W96248  22.193  37.748   4.720
29466W        W96249  44.399   9.337   1.890
29467W        W96250  33.674   3.943  10.627
29468W        W96251   3.591   1.183  10.555
29469W        W96252  31.138   8.562   3.989
29470W        W96253  29.487   2.765   2.599
29471W        W96254  34.832  33.992   4.121
29472W        W96255   1.802  10.669   4.347
29473W        W96256  42.389  28.278  10.388
29474W        W96257  18.844  25.937  12.901
29475W        W96258  25.278  14.742   1.140
29476W        W96259  19.269  41.024  11.168
29477W        W96260  31.638  37.959  11.524
29478W        W96261  37.163  25.938   1.655
29479W        W96262  26.665   9.333  11.872
29480W        W96263  34.876  35.364  11.635
29481W        W96264   1.362   9.782  11.551
29482W        W96265  10.379  12.566  12.181
29483W        W96266   7.768   5.852   2.099
29484W        W96267  37.533  23.093  14.951
29485W        W96268  11.906  12.179   9.955
29486W        W96269  20.422   1.332   5.048
29487W        W96270  11.179  33.012   4.761
29488W        W96271  12.732  19.621   2.519
29489W        W96272  20.637  36.693   4.090
29490W        W96273   3.813  12.250  11.628
29491W        W96274  20.614  35.933   4.573
29492W        W96275  31.433  11.720  13.826
29493W        W96276  22.082   4.846   0.808
29494W        W96277   2.281  40.268   5.172
29495W        W96278   0.698  19.359  14.395
29496W        W96279   6.118  31.113   2.812
29497W        W96280  16.712  10.871  11.378
29498W        W96281  24.893  21.174   1.967
29499W        W96282  30.839  11.383   1.842
29500W        W96283  12.279   3.979   1.930
29501W        W96284  44.284  39.362   1.789
29502W        W96285  28.141   5.729   3.903
29503W        W96286   2.870  33.647  13.343
29504W        W96287  14.797  38.556  11.554
29505W        W96288   2.033  26.467   0.813
29506W        W96289  10.314  44.055  11.692
29507W        W96290   4.925   3.936  13.483
29508W        W96291  27.456   6.355   4.711
29509W        W96292  14.829  14.333   9.760
29510W        W96293  20.438  15.291  11.673
29511W        W96294   9.146   4.888  11.133
29512W        W96295  42.382  35.946   2.467
29513W        W96296   3.769   7.845  12.387
29514W        W96297  41.428  43.889  13.778
29515W        W96298  16.512  33.861   3.286
29516W        W96299  32.610  22.157  12.976
29517W        W96300  26.820  27.201  11.186
29518W        W96301  30.887  21.561   4.921
29519W        W96302  42.844  41.867  12.025
29520W        W96303  30.061  13.659  12.048
29521W        W96304  28.227  12.013   1.736
29522W        W96305   9.339  15.309  13.628
29523W        W96306  11.408  20.889  13.016
29524W        W96307  32.092   7.727   1.428
29525W        W96308   8.174  38.629  14.448
29526W        W96309  39.118  27.312   1.607
29527W        W96310   6.268  37.905  11.991
29528W        W96311  42.894  24.230   4.100
29529W        W96312  18.430  26.430  12.300
29530W        W96313  20.040  16.231   3.789
29531W        W96314  16.021   6.708   1.031
29532W        W96315  13.879   5.429  12.601
29533W        W96316  43.727  40.899  13.496
29534W        W96317   0.259  39.833  10.722
29535W        W96318  33.955  24.614   1.975
29536W        W96319   4.366  29.348  14.179
29537W        W96320  17.302  28.982   2.335
29538W        W96321  44.023  17.639   3.290
29539W        W96322  35.988   6.911  11.895
29540W        W96323  32.823  30.651  14.058
29541W        W96324  35.614   0.273  14.031
29542W        W96325   8.950  15.853  12.115
29543W        W96326   7.412  33.882  10.732
29544W        W96327  24.105  10.248  11.791
29545W        W96328  10.727   3.961  11.861
29546W        W96329  31.651   8.409   1.801
29547W        W96330  41.254  14.345  11.646
29548W        W96331  32.094   3.865   3.807
29549W        W96332   7.183  27.578   2.227
29550W        W96333  35.451  37.595  12.866
29551W        W96334   9.132  21.555  14.028
29552W        W96335  33.030   3.177   2.925
29553W        W96336  35.432   4.370  14.092
29554W        W96337  43.278  36.501  13.571
29555W        W96338  25.450  29.081  12.546
29556W        W96339   2.810  14.106   2.345
29557W        W96340  29.996  17.847   0.351
29558W        W96341  32.580  24.072   3.599
29559W        W96342   3.206  37.828   4.571
29560W        W96343   4.742  19.213  14.309
29561W        W96344  28.555  33.945   3.320
29562W        W96345  34.983  39.273  10.487
29563W        W96346  13.848  32.696   0.781
29564W        W96347  37.029   4.976  14.471
29565W        W96348  24.601  24.949   4.533
29566W        W96349  26.231   8.077  13.049
29567W        W96350   8.536  23.666  13.970
29568W        W96351  22.123  12.098  10.671
29569W        W96352   3.731  29.698  14.594
29570W        W96353  27.560  37.357   1.670
29571W        W96354   8.234  21.288  12.926
29572W        W96355   1.212  13.057   2.654
29573W        W96356  14.609  32.598   3.341
29574W        W96357  28.681  29.412   2.346
29575W        W96358  25.222  12.860   2.095
29576W        W96359  24.776  17.238   2.744
29577W        W96360  12.422  37.993   4.980
29578W        W96361   0.190   4.848   3.358
29579W        W96362   1.621  37.938   2.455
29580W        W96363  33.851  22.829   3.277
29581W        W96364  42.780  14.074   1.769
29582W        W96365  12.301  41.428   4.494
29583W        W96366   5.684  10.253  14.858
29584W        W96367  25.424  43.087  14.910
29585W        W96368   4.804  18.618  12.397
29586W        W96369   6.215  29.010   3.118
29587W        W96370  25.549  33.829  14.488
29588W        W96371  13.228  29.417  11.965
29589W        W96372   6.618  17.120  13.278
29590W        W96373  32.253  37.764   4.252
29591W        W96374   8.223   6.767   0.473
29592W        W96375  33.138   7.479   3.004
29593W        W96376  33.379  30.629  14.333
29594W        W96377  10.892  34.933   4.381
29595W        W96378  24.519  33.035  11.934
29596W        W96379  32.465  17.884  11.842
29597W        W96380  25.619  39.060  11.498
29598W        W96381  32.773   4.289   1.867
29599W        W96382  21.210  28.392  12.478
29600W        W96383  32.466   1.654  14.747
29601W        W96384  26.627  35.951   3.108
29602W        W96385  22.009  40.546  13.880
29603W        W96386  33.528   8.118   4.343
29604W        W96387  33.885   2.939   0.327
29605W        W96388  40.593  28.994   2.179
29606W        W96389   4.119  17.207   3.724
29607W        W96390  14.036  22.114  14.510
29608W        W96391  17.193  15.172   2.661
29609W        W96392  15.074  11.021   2.128
29610W        W96393   3.435   7.302  13.660
29611W        W96394   8.947  16.221   4.765
29612W        W96395   1.415  37.787   4.668
29613W        W96396  44.782  37.334  13.329
29614W        W96397  42.904  41.829   2.165
29615W        W96398   8.752   0.706   3.490
29616W        W96399  37.876  11.451   1.061
29617W        W96400  34.234  19.762   5.010
29618W        W96401  25.147  16.570  14.445
29619W        W96402  29.604  10.258   3.279
29620W        W96403   3.184  28.140  13.064
29621W        W96404  33.614  13.273   0.831
29622W        W96405  24.101  25.155   1.130
29623W        W96406  41.512  17.060   3.803
29624W        W96407  28.455  35.605  14.380
29625W        W96408   0.159  13.739   3.989
29626W        W96409  36.682  14.785  12.750
29627W        W96410   5.615  35.511  11.920
29628W        W96411   5.254   4.479   2.788
29629W        W96412  31.831   3.180   4.326
29630W        W96413   0.858  41.489   4.078
29631W        W96414  31.275  26.538   3.828
29632W        W96415   1.667  43.815  12.127
29633W        W96416  26.589  15.325  12.151
29634W        W96417  38.171  39.491   0.858
29635W        W96418  15.117   0.709  11.379
29636W        W96419   8.824   4.303   1.530
29637W        W96420  38.390  33.391   2.183
29638W        W96421  20.426  43.690  10.942
29639W        W96422  30.867  21.832   4.142
29640W        W96423  36.101   6.650   2.680
29641W        W96424  12.808  18.482  12.474
29642W        W96425  19.819  21.797   3.312
29643W        W96426   0.455  12.240  12.066
29644W        W96427  41.383  34.140  14.511
29645W        W96428  20.646  25.105  14.154
29646W        W96429  33.370  12.330   0.803
29647W        W96430  23.968  30.694   2.696
29648W        W96431  37.098  15.143  10.818
29649W        W96432  23.028  15.617  13.688
29650W        W96433   0.909  43.194  10.964
29651W        W96434  17.823  18.598  11.075
29652W        W96435  36.275   2.939   1.204
29653W        W96436  35.024  41.839   4.909
29654W        W96437  41.319  10.190   2.132
29655W        W96438   1.109  12.708  11.031
29656W        W96439   0.034   8.522   1.681
29657W        W96440   3.971  18.122   0.927
29658W        W96441   7.333  29.711   1.816
29659W        W96442  28.170  14.558  13.092
29660W        W96443  27.956  21.155   4.103
29661W        W96444  15.281  32.918  12.240
29662W        W96445  10.143  37.008  12.388
29663W        W96446  22.488  35.799  10.308
29664W        W96447  43.279   4.210  13.855
29665W        W96448   1.239  28.656   0.204
29666W        W96449  38.341   4.470  13.388
29667W        W96450  34.295   9.176  11.716
29668W        W96451  42.336  14.781   2.715
29669W        W96452  41.308  25.599   1.459
29670W        W96453  30.500  44.347  12.267
29671W        W96454  17.757  13.841  11.512
29672W        W96455   1.465  37.718   2.906
29673W        W96456  22.059  38.551  11.197
29674W        W96457  32.107  16.886   0.697
29675W        W96458  44.746   0.931  14.494
29676W        W96459   1.054  33.045   1.806
29677W        W96460   5.218  14.256   3.838
29678W        W96461  40.699  10.576   4.134
29679W        W96462  33.400   6.827  14.434
29680W        W96463  23.717  25.957  13.003
29681W        W96464  16.256  40.481   1.887
29682W        W96465  28.216  37.349  12.041
29683W        W96466  12.779  19.133   2.736
29684W        W96467  32.083  29.046   2.373
29685W        W96468  16.356  41.580   0.907
29686W        W96469  15.624  43.424   1.042
29687W        W96470   8.630  14.357  11.657
29688W        W96471  44.719  20.516   2.822
29689W        W96472   3.225   4.937   3.258
29690W        W96473  24.875   7.862   5.023
29691W        W96474   6.889  41.288  10.882
29692W        W96475   3.823  11.128  11.526
29693W        W96476  21.499  19.744  13.161
29694W        W96477  44.089   7.104  10.894
29695W        W96478  17.787   8.570   2.380
29696W        W96479  14.177  38.100  13.839
29697W        W96480  43.477  40.815   0.834
29698W        W96481  20.027   1.746   0.036
29699W        W96482   6.961   8.393   3.777
29700W        W96483  42.848  24.902  14.461
29701W        W96484  26.881  31.542   2.795
29702W        W96485  33.957  12.218   3.610
29703W        W96486  41.684  39.622  12.500
29704W        W96487  39.882  33.585  14.300
29705W        W96488  43.115  19.307   1.007
29706W        W96489   8.092  15.768   1.735
29707W        W96490  42.795  15.797   2.645
29708W        W96491  21.778  41.042  11.124
29709W        W96492  28.477  32.980  11.847
29710W        W96493  29.850  39.193  13.077
29711W        W96494  10.677   8.368  13.588
29712W        W96495  29.522  33.870  12.461
29713W        W96496  34.679  43.742  14.791
29714W        W96497   5.692  29.042   3.132
29715W        W96498   2.896  18.592   1.945
29716W        W96499  34.504   0.955  10.833
29717W        W96500  16.351  43.316  14.758
29718W        W96501  15.542  28.945   3.733
29719W        W96502  22.592  25.713  11.890
29720W        W96503   1.842  20.698   1.194
29721W        W96504   7.125  27.120   0.885
29722W        W96505  39.700  12.773  13.887
29723W        W96506   4.945   9.387  11.548
29724W        W96507  35.833   6.188  12.468
29725W        W96508  13.873   0.949   3.210
29726W        W96509  22.289  12.194  13.045
29727W        W96510  21.833  24.233  14.258
29728W        W96511  44.890  12.854   4.126
29729W        W96512  12.892  20.921  11.931
29730W        W96513  13.331  40.290   1.763
29731W        W96514  18.562  41.397  12.187
29732W        W96515  39.550   6.727   0.772
29733W        W96516  11.261  26.208  12.799
29734W        W96517  20.292  44.329  12.255
29735W        W96518   5.010   9.396   0.009
29736W        W96519  27.229  35.061  12.553
29737W        W96520  17.567  10.272  10.661
29738W        W96521  38.225  30.884   2.385
29739W        W96522  37.976  12.928  14.520
29740W        W96523  17.418  14.796  11.848
29741W        W96524  39.229  33.177  14.920
29742W        W96525  38.845  36.433   1.429
29743W        W96526  21.816  12.329   1.215
29744W        W96527   1.457  30.181  13.447
29745W        W96528  43.311  42.382   0.677
29746W        W96529   3.553  20.073   3.278
29747W        W96530  40.467   1.589   3.308
29748W        W96531  15.569  13.872  11.556
29749W        W96532  35.204  28.461   0.901
29750W        W96533   5.328  22.578   1.580
29751W        W96534  33.545  16.742  13.150
29752W        W96535  37.857  28.262   4.071
29753W        W96536  23.138  20.252  12.460
29754W        W96537   3.811  39.993  14.352
29755W        W96538   3.944  30.169   0.404
29756W        W96539  44.979  27.464  14.634
29757W        W96540  39.595  34.482   0.366
29758W        W96541  40.120  17.412   0.147
29759W        W96542  15.734  26.280   3.373
29760W        W96543   8.773   2.496   0.893
29761W        W96544  12.178  28.652  14.438
29762W        W96545   7.303  26.230   2.241
29763W        W96546  27.778   3.813   0.464
29764W        W96547  21.859  14.210  14.007
29765W        W96548  10.447  40.320   0.723
29766W        W96549  23.943  42.921  13.290
29767W        W96550  17.264   1.879   1.337
29768W        W96551  30.160   7.403  13.904
29769W        W96552  28.102   4.906  10.269
29770W        W96553  28.884  15.845   3.376
29771W        W96554  32.117  35.809   2.668
29772W        W96555  18.938  32.484  11.598
29773W        W96556  32.636  28.712   4.501
29774W        W96557  34.069  10.458  13.164
29775W        W96558   0.603  13.541  14.149
29776W        W96559   2.448  15.688  12.467
29777W        W96560   4.393  31.039  11.148
29778W        W96561  15.609  38.895   3.917
29779W        W96562  38.867  21.561   2.195
29780W        W96563   6.310   3.421  13.318
29781W        W96564  27.198  10.546   3.148
29782W        W96565   4.570  15.158  12.080
29783W        W96566  31.829  44.759  14.751
29784W        W96567  30.559  32.779   5.022
29785W        W96568  18.485  41.812   1.412
29786W        W96569  30.380   3.638  13.435
29787W        W96570   7.001  23.552  10.575
29788W        W96571   0.367  26.051   4.539
29789W        W96572  44.752  39.534  11.949
29790W        W96573  31.861  23.201  11.685
29791W        W96574  36.545  30.700   1.477
29792W        W96575  31.681   6.819  12.936
29793W        W96576  16.040   0.537   4.475
29794W        W96577  28.588   0.601   4.835
29795W        W96578  21.565  25.343  10.587
29796W        W96579  37.144  25.281  14.564
29797W        W96580  28.397  24.254  12.924
29798W        W96581  21.730  23.561  12.283
29799W        W96582  31.038  26.900   3.212
29800W        W96583  11.790   5.632   0.879
29801W        W96584  36.405  44.336   9.969
29802W        W96585   5.019  29.907   0.818
29803W        W96586  18.021  32.949  12.920
29804W        W96587  17.048  42.378   0.936
29805W        W96588  32.650   5.468  12.817
29806W        W96589  20.497   6.878   4.566
29807W        W96590  19.128   6.642   0.037
29808W        W96591  37.099  33.449  13.867
29809W        W96592  11.367  23.732   4.747
29810W        W96593  27.556  26.099  13.492
29811W        W96594  24.381   1.901   1.784
29812W        W96595  14.720  17.997  14.448
29813W        W96596   3.755   1.770  11.142
29814W        W96597  14.755  20.591  12.911
29815W        W96598  36.883  36.289  13.091
29816W        W96599  10.088  37.295  10.587
29817W        W96600   3.858  39.987   4.974
29818W        W96601   6.289  30.194   3.865
29819W        W96602  10.434   7.029  13.038
29820W        W96603  19.226   2.383   0.527
29821W        W96604  39.132  38.717  13.731
29822W        W96605  15.715   8.153   3.130
29823W        W96606  12.422   1.604   2.838
29824W        W96607  38.729  36.484  14.090
29825W        W96608  34.531  26.425  12.600
29826W        W96609   2.831  10.187  10.235
29827W        W96610  11.360  33.155  14.989
29828W        W96611  10.554   1.442  13.817
29829W        W96612  12.150  42.407   3.536
29830W        W96613  43.144  37.285  11.964
29831W        W96614  40.020  40.660  11.814
29832W        W96615   3.338  31.801   2.334
29833W        W96616  20.355  32.337  13.430
29834W        W96617  18.019  21.822   3.669
29835W        W96618  12.703  25.100   0.376
29836W        W96619  42.306  27.380  11.078
29837W        W96620  19.599   1.581  11.148
29838W        W96621  15.585  27.281   2.347
29839W        W96622  11.064  40.550   3.471
29840W        W96623  11.930   8.290  11.691
29841W        W96624  27.304  24.397   4.503
29842W        W96625  14.582   6.197   0.294
29843W        W96626  35.111  11.006  10.310
29844W        W96627  40.548  16.775   2.822
29845W        W96628  23.108  42.948   1.354
29846W        W96629  16.378  18.710   0.956
29847W        W96630  26.090  34.848   0.029
29848W        W96631  34.805  12.133   2.148
29849W        W96632  40.011  26.690  12.065
29850W        W96633  33.141  10.896   0.331
29851W        W96634  11.304   4.701   2.625
29852W        W96635  27.779   8.278  15.000
29853W        W96636  10.257   9.181  13.851
29854W        W96637   4.243  10.434   0.245
29855W        W96638  12.830  39.993   4.046
29856W        W96639   4.506  31.956   1.708
29857W        W96640   7.194  10.330   2.781
29858W        W96641  22.490  41.116   2.811
29859W        W96642  29.027   2.823  11.025
29860W        W96643   0.202  34.358  11.114
29861W        W96644   0.385  36.706  11.960
29862W        W96645  33.372   3.727  11.916
29863W        W96646  31.170  24.984   4.607
29864W        W96647  22.129  28.496  12.400
29865W        W96648  21.488  21.621   1.436
29866W        W96649  33.972  19.839  12.191
29867W        W96650  35.628  27.133  11.101
29868W        W96651  20.994  33.056   1.680
29869W        W96652  21.536  25.166   1.873
29870W        W96653   1.312   4.934   4.322
29871W        W96654  40.489   1.461   0.238
29872W        W96655  33.372  14.237  12.158
29873W        W96656  28.083  17.326  13.468
29874W        W96657   4.105   7.787   2.896
29875W        W96658  38.483   2.395   4.834
29876W        W96659  13.170  44.040  12.093
29877W        W96660  25.234   9.974   3.732
29878W        W96661  36.900  16.245   2.674
29879W        W96662  13.806  39.738   0.327
29880W        W96663  33.647  15.362  12.671
29881W        W96664   7.861  11.365   0.337
29882W        W96665  38.570  44.341   3.766
29883W        W96666  39.070  33.628  11.810
29884W        W96667   9.133  40.374  10.765
29885W        W96668  38.765   2.254   3.284
29886W        W96669  43.312  26.999   1.990
29887W        W96670   0.840  30.754  14.533
29888W        W96671  18.214  26.246   0.503
29889W        W96672  30.581  40.317  11.144
29890W        W96673  34.512  13.301   2.948
29891W        W96674  36.603   9.102  11.630
29892W        W96675  25.531  26.522  12.040
29893W        W96676  40.877  18.518  13.343
29894W        W96677  17.200  33.997  13.428
29895W        W96678  35.600   3.755  14.156
29896W        W96679   6.495   9.760   5.001
29897W        W96680  25.645  34.649   3.202
29898W        W96681  24.172  14.136   4.613
29899W        W96682  32.283   0.042  13.040
29900W        W96683   4.026   7.822  12.854
29901W        W96684  37.085  13.313   2.754
29902W        W96685  32.451  29.510  14.710
29903W        W96686  36.328  17.338  10.696
29904W        W96687  30.648  28.505  12.758
29905W        W96688   8.914   9.097  11.821
29906W        W96689  40.312  25.897  14.336
29907W        W96690  24.326  23.754  13.450
29908W        W96691  11.938   5.040   3.349
29909W        W96692  24.450  35.519  11.199
29910W        W96693  22.184   6.689  14.485
29911W        W96694   8.539  29.025   1.221
29912W        W96695  22.725  19.484  12.573
29913W        W96696  40.377  20.073  13.968
29914W        W96697  41.423   4.183   2.323
29915W        W96698  26.968   6.828  12.499
29916W        W96699  31.063   4.878  13.018
29917W        W96700  13.945  37.924  12.061
29918W        W96701  27.617  25.126   2.841
29919W        W96702  30.648  20.249   0.504
29920W        W96703  43.051  23.089   3.178
29921W        W96704  13.702  15.550   3.959
29922W        W96705   6.315  11.613  12.065
29923W        W96706  33.631  28.489   4.473
29924W        W96707  10.385  21.537  12.996
29925W        W96708  35.814  14.739  13.762
29926W        W96709  18.455   0.413   3.630
29927W        W96710  27.487   6.880  12.497
29928W        W96711  34.575  32.086   5.185
29929W        W96712  29.972   6.441  12.139
29930W        W96713  15.685   4.649   0.381
29931W        W96714  32.629  35.908  12.956
29932W        W96715  13.496   5.376   0.252
29933W        W96716  25.371  44.227  11.016
29934W        W96717  25.604  30.447   3.624
29935W        W96718  19.260  39.900   0.711
29936W        W96719   8.347  43.854  13.890
29937W        W96720   0.955  24.505  10.968
29938W        W96721  37.498  30.409  14.952
29939W        W96722   2.962  41.477  14.610
29940W        W96723   5.825  15.804   3.826
29941W        W96724  35.481  28.217  10.699
29942W        W96725  25.233  19.075   1.237
29943W        W96726  40.921  34.228   1.191
29944W        W96727  20.692  19.455  14.773
29945W        W96728  44.477  13.660  13.453
29946W        W96729   5.728  37.437   4.179
29947W        W96730  22.095  29.856  12.959
29948W        W96731  19.836   2.722  10.672
29949W        W96732   1.444   9.722  14.876
29950W        W96733  16.349   2.935  11.476
29951W        W96734   4.743  11.687   0.496
29952W        W96735  43.319  13.122  12.499
29953W        W96736  34.018  21.792   0.886
29954W        W96737  33.474  38.489   0.485
29955W        W96738  18.321  20.125   4.332
29956W        W96739  21.144  22.963  14.370
29957W        W96740  28.691  15.763  11.884
29958W        W96741  26.780   0.788  14.885
29959W        W96742  37.585  26.906   4.139
29960W        W96743  35.360  21.812   1.793
29961W        W96744  39.117  18.434   1.496
29962W        W96745   0.253  34.305  12.333
29963W        W96746  36.150  16.217  13.888
29964W        W96747  17.503  16.090  13.032
29965W        W96748  42.639  28.056   5.116
29966W        W96749  43.781  14.177  12.179
29967W        W96750  29.198   4.700   2.273
29968W        W96751  28.240  19.306  12.633
29969W        W96752   9.134  18.007   3.475
29970W        W96753  30.368  42.408   2.223
29971W        W96754  27.386  29.461   1.373
29972W        W96755  11.624  42.282  12.967
29973W        W96756   5.703  26.672  14.923
29974W        W96757  16.930  26.381  11.471
29975W        W96758  26.504   5.759   1.802
29976W        W96759   0.305  21.840   1.752
29977W        W96760  29.582  22.300  11.576
29978W        W96761   6.863  24.312   4.603
29979W        W96762  37.907  13.547  13.846
29980W        W96763  18.607   4.842   1.752
29981W        W96764  42.761   7.874  14.391
29982W        W96765  22.549  38.128   4.628
29983W        W96766  11.631  16.224  10.478
29984W        W96767  37.325  32.733   3.247
29985W        W96768  13.852  19.094  13.375
29986W        W96769  17.105  23.489   0.793
29987W        W96770  18.230   3.463   2.328
29988W        W96771  31.554  11.651   2.297
29989W        W96772   3.296  16.568  12.094
29990W        W96773  21.512  38.785  12.031
29991W        W96774   6.865  26.402   2.814
29992W        W96775   1.762  26.215  13.446
29993W        W96776   5.460   3.065   1.676
29994W        W96777   1.992  29.508  10.873
29995W        W96778  20.080  16.668   1.946
29996W        W96779   4.849  44.073  14.992
29997W        W96780   7.188  19.143  14.354
29998W        W96781   5.211  12.265   2.730
29999W        W96782  29.885  27.201  12.205
30000W        W96783  24.214   5.185  14.349
30001W        W96784   1.522  34.918   3.714
30002W        W96785   9.431  13.589  13.936
30003W        W96786  43.403  41.599   4.234
30004W        W96787  34.362  18.590   0.699
30005W        W96788  26.153   1.639   4.477
30006W        W96789  31.974  12.666   1.733
30007W        W96790  14.624  13.006   2.474
30008W        W96791   9.093  16.725  12.510
30009W        W96792  41.937  28.407  10.072
30010W        W96793  42.043   2.872   0.212
30011W        W96794  27.615  42.993   0.254
30012W        W96795  11.501  32.937  11.488
30013W        W96796  16.275   5.300   1.746
30014W        W96797  44.398  20.223   3.860
30015W        W96798   5.649  13.365   3.525
30016W        W96799  15.034  11.149  13.029
30017W        W96800  15.473  32.872   2.491
30018W        W96801   2.632  39.604   3.730
30019W        W96802  42.345   9.746  11.471
30020W        W96803  28.940  12.657  13.727
30021W        W96804  35.040  36.331  13.166
30022W        W96805  11.694  29.750   1.914
30023W        W96806  21.298   7.131  10.437
30024W        W96807  44.266  31.039   0.580
30025W        W96808  14.577  20.287   4.164
30026W        W96809   4.549   7.839  12.917
30027W        W96810   0.474  30.328   0.383
30028W        W96811  14.093  17.220   1.938
30029W        W96812   6.089  11.908  13.253
30030W        W96813  17.079   1.181  14.888
30031W        W96814  11.048   3.812   3.187
30032W        W96815  30.735  44.013  13.820
30033W        W96816   8.643   3.870   2.775
30034W        W96817  11.664  12.721  11.445
30035W        W96818  21.830  12.520  14.523
30036W        W96819  21.437  36.544   3.157
30037W        W96820  21.695  37.414  10.065
30038W        W96821   0.991  15.767  11.546
30039W        W96822  17.114  38.124   0.623
30040W        W96823  22.058  19.253   3.365
30041W        W96824   6.299  25.658  14.829
30042W        W96825  21.938  30.938   4.038
30043W        W96826  24.450  18.855  13.201
30044W        W96827  27.521  29.174   4.566
30045W        W96828  20.112  38.242  13.009
30046W        W96829  39.392  33.132   4.544
30047W        W96830  27.338   4.932   4.145
30048W        W96831  28.133  22.235  11.550
30049W        W96832  24.713  28.740   4.304
30050W        W96833  20.129  12.373   1.068
30051W        W96834   9.635   9.265   4.212
30052W        W96835  40.380   9.160   0.854
30053W        W96836  33.072  20.290   0.289
30054W        W96837  40.034  19.698  14.107
30055W        W96838  22.961  23.094  11.080
30056W        W96839  14.246   5.157  13.481
30057W        W96840  42.440  32.018  14.814
30058W        W96841  22.523  26.972  12.600
30059W        W96842  13.332  25.663   2.031
30060W        W96843  14.655  40.383  12.417
30061W        W96844  26.318   3.633   1.912
30062W        W96845  14.573  10.303   4.040
30063W        W96846  31.468  18.986  13.959
30064W        W96847  11.363  31.014   0.315
30065W        W96848   1.840  23.774  13.350
30066W        W96849   5.482   4.303  11.990
30067W        W96850  29.045   3.378  11.202
30068W        W96851  23.983   2.697   1.378
30069W        W96852  34.036  12.356  12.120
30070W        W96853  36.928   0.267  12.395
30071W        W96854  28.442  40.927  12.314
30072W        W96855  19.361  42.804   2.207
30073W        W96856  39.860  35.437  13.776
30074W        W96857  28.956   0.789  12.229
30075W        W96858   0.414  33.148  14.505
30076W        W96859  25.452   1.868   1.787
30077W        W96860  32.134  30.089  14.127
30078W        W96861  25.485  28.042  14.456
30079W        W96862  43.021  11.804  11.226
30080W        W96863  39.541  24.695  12.086
30081W        W96864  44.896  15.751  14.842
30082W        W96865  16.081  22.600  14.360
30083W        W96866  12.076  24.532  12.024
30084W        W96867  11.104  42.245  12.984
30085W        W96868  30.510  21.207   4.947
30086W        W96869  18.434  28.061  10.621
30087W        W96870   4.175  35.819   0.300
30088W        W96871   2.228  33.371  12.917
30089W        W96872   9.787  44.356   3.634
30090W        W96873   0.949  37.129   1.358
30091W        W96874  41.342  43.966   3.317
30092W        W96875  25.237  22.761  13.757
30093W        W96876  26.149  30.144  12.012
30094W        W96877   0.350   2.548  13.503
30095W        W96878  20.207  34.862   0.909
30096W        W96879  12.825  17.323  14.556
30097W        W96880  23.828   8.771   4.025
30098W        W96881   9.740  11.091  13.843
30099W        W96882  41.315  33.876  13.648
30100W        W96883   3.422  29.239  12.818
30101W        W96884  27.103   1.490   3.995
30102W        W96885   1.589  14.750  13.899
30103W        W96886  43.665  12.215  12.140
30104W        W96887   8.300  40.961   4.455
30105W        W96888  40.970  19.568  14.884
30106W        W96889   4.686   9.415   4.030
30107W        W96890   6.675  41.732  10.667
30108W        W96891   4.535  19.394   1.195
30109W        W96892  42.150  20.932  13.791
30110W        W96893  10.536  31.545  11.957
30111W        W96894  12.117  33.430  11.946
30112W        W96895  38.113  30.918   0.660
30113W        W96896  12.099  44.886   2.116
30114W        W96897  34.270  36.042   3.295
30115W        W96898   1.071  24.487  13.474
30116W        W96899  21.810  42.151  13.007
30117W        W96900  19.883  39.499   3.715
30118W        W96901  27.830  33.868   2.894
30119W        W96902  32.920  28.472   1.795
30120W        W96903   3.793  29.096  12.032
30121W        W96904  15.111  36.640   1.197
30122W        W96905   5.036  13.076  10.771
30123W        W96906  25.527  35.734   2.509
30124W        W96907  23.480  24.726   5.388
30125W        W96908  12.349  13.563  11.444
30126W        W96909  10.644  24.770   0.331
30127W        W96910   7.013  18.545   2.620
30128W        W96911  22.507  44.788  14.567
30129W        W96912  18.699  32.449   0.511
30130W        W96913  43.696  11.758  13.398
30131W        W96914  19.076   1.060   2.341
30132W        W96915  21.597   6.171  11.144
30133W        W96916  40.053  24.746  10.773
30134W        W96917  27.038  26.347  12.609
30135W        W96918  25.724  41.910  12.951
30136W        W96919   0.678   3.952  14.972
30137W        W96920  22.232  17.750   2.282
30138W        W96921  32.077  21.986   2.360
30139W        W96922  16.146  28.887   4.738
30140W        W96923  25.786  18.265  12.288
30141W        W96924   3.415  14.062   0.662
30142W        W96925  17.134  13.605  12.487
30143W        W96926  30.547  41.768   4.335
30144W        W96927   8.800  32.889  12.670
30145W        W96928  36.633   6.360   1.919
30146W        W96929  23.025  18.636  11.063
30147W        W96930  12.855   9.615  13.009
30148W        W96931  14.352  16.606   2.752
30149W        W96932  30.181  42.501  12.151
30150W        W96933  31.065  12.375   4.746
30151W        W96934   4.890  24.697  12.869
30152W        W96935  28.636   5.701   3.729
30153W        W96936  15.896  39.823  10.931
30154W        W96937  38.520  23.047  11.675
30155W        W96938   5.167  38.391   1.504
30156W        W96939   3.774  24.776  13.621
30157W        W96940  42.767  37.472   4.562
30158W        W96941  42.319   2.217   0.802
30159W        W96942   1.988   1.352  11.299
30160W        W96943  20.349  21.808  11.841
30161W        W96944  42.602  21.188  13.871
30162W        W96945  40.108  28.512   4.565
30163W        W96946  13.538  19.603   4.409
30164W        W96947  21.313   0.310  13.772
30165W        W96948   8.938  15.177  11.526
30166W        W96949  10.638   8.148   2.810
30167W        W96950  18.318   7.611   4.112
30168W        W96951  10.893   9.746   2.605
30169W        W96952   1.833   4.369   1.991
30170W        W96953   2.325   7.741   4.834
30171W        W96954  16.541   1.812   3.296
30172W        W96955  28.078  37.944   1.342
30173W        W96956  32.224   6.901  11.267
30174W        W96957  20.853  33.370   0.443
30175W        W96958  21.588  26.246   2.676
30176W        W96959   2.396  36.680   4.615
30177W        W96960  14.351  24.591   2.371
30178W        W96961  36.003  37.223   4.711
30179W        W96962  40.576  11.733  12.545
30180W        W96963  16.140   3.440  14.314
30181W        W96964   0.517  43.838  14.741
30182W        W96965  38.868  17.174   1.717
30183W        W96966  14.862  44.107   3.595
30184W        W96967  11.417  44.261   0.324
30185W        W96968  29.654  29.508   1.935
30186W        W96969   3.494  43.836  12.427
30187W        W96970   2.342  27.268   2.397
30188W        W96971   5.580   8.433  13.706
30189W        W96972   4.080  15.305   2.753
30190W        W96973  41.431  29.585   0.820
30191W        W96974   9.280  38.506   0.994
30192W        W96975   1.261  18.293  11.674
30193W        W96976  32.575  18.842  13.564
30194W        W96977  27.123   0.348  12.898
30195W        W96978   9.982   0.472  12.721
30196W        W96979   1.166  32.722   4.163
30197W        W96980  27.992  23.000   3.591
30198W        W96981  32.760   0.410  14.440
30199W        W96982  26.738  19.252   3.810
30200W        W96983  17.741  43.900  12.005
30201W        W96984   5.409  39.826  10.762
30202W        W96985  40.127  17.658  13.816
30203W        W96986   0.928  19.275   1.716
30204W        W96987  27.765  30.915  14.042
30205W        W96988  23.131  37.762  13.341
30206W        W96989  26.159  30.405  12.458
30207W        W96990  34.034  23.908  11.495
30208W        W96991  42.017  10.550  12.913
30209W        W96992  31.590   5.829  12.475
30210W        W96993  26.464  15.773  13.882
30211W        W96994  44.742   3.528   0.471
30212W        W96995  23.695  41.904   3.157
30213W        W96996  41.795  10.827   1.795
30214W        W96997   0.773  17.950  12.445
30215W        W96998  16.532  32.503  14.242
30216W        W96999  29.371   7.278  11.138
30217W        W97000  11.631  11.339  11.114
30218W        W97001  23.338  13.391   2.438
30219W        W97002   0.238  25.446  10.685
30220W        W97003  22.883  18.296   2.635
30221W        W97004   1.264  33.481   3.467
30222W        W97005  15.748  39.972   3.452
30223W        W97006  29.011   2.144   1.935
30224W        W97007  14.121  20.092   2.429
30225W        W97008  39.783  11.704  12.148
30226W        W97009  18.657  34.385  11.626
30227W        W97010  36.549  10.200   2.168
30228W        W97011  27.719  27.164   1.488
30229W        W97012   6.194  22.637  13.643
30230W        W97013  14.196  35.840  10.729
30231W        W97014  34.976   3.162  10.725
30232W        W97015  25.997  11.731  11.097
30233W        W97016   3.920  35.984  10.882
30234W        W97017  35.485  43.869   3.447
30235W        W97018  31.851  23.996   3.203
30236W        W97019  43.932  18.564   0.130
30237W        W97020   0.831  43.937  12.129
30238W        W97021  43.829   4.671   3.030
30239W        W97022  13.510  14.777  11.846
30240W        W97023  23.490  44.485   0.493
30241W        W97024  34.170  37.901  14.011
30242W        W97025   3.795   7.440  13.145
30243W        W97026  16.472   1.460  14.753
30244W        W97027  42.414  38.817  10.812
30245W        W97028  27.181  41.334   2.178
30246W        W97029  35.921   2.365   1.308
30247W        W97030   3.606  17.901  13.151
30248W        W97031  20.110  12.272  11.183
30249W        W97032  14.540  43.296  14.466
30250W        W97033   5.815  26.704   2.868
30251W        W97034   3.688   2.202  14.264
30252W        W97035  29.085  14.046   2.075
30253W        W97036  32.540  15.834  13.251
30254W        W97037  14.205  22.976   0.148
30255W        W97038   9.778  42.717   1.796
30256W        W97039  28.993  10.188  13.759
30257W        W97040  14.207  29.160  11.200
30258W        W97041  27.995  16.590   2.116
30259W        W97042   5.737   0.050  13.904
30260W        W97043   9.885  34.929   2.476
30261W        W97044   6.474  13.060   1.182
30262W        W97045   6.838  36.493   4.108
30263W        W97046  39.686  33.881  10.786
30264W        W97047  14.807  22.952   1.236
30265W        W97048   1.999  20.434   0.745
30266W        W97049  18.750  10.863  13.778
30267W        W97050  24.177  39.088  11.432
30268W        W97051  40.558  31.833  14.435
30269W        W97052   2.688   2.981   3.087
30270W        W97053  28.058  33.551   1.639
30271W        W97054   9.233  34.126  11.126
30272W        W97055  30.907  18.642  11.182
30273W        W97056  11.820   5.425   0.381
30274W        W97057  12.707   5.209   4.084
30275W        W97058  38.423  18.759   3.813
30276W        W97059  11.667   8.720   0.299
30277W        W97060   3.382  40.779   4.048
30278W        W97061  42.202  43.695  12.496
30279W        W97062  35.294   0.915   0.238
30280W        W97063  42.140  25.712   2.418
30281W        W97064  13.330  44.307   0.062
30282W        W97065   1.252   8.833  13.820
30283W        W97066  34.084   6.314   0.460
30284W        W97067  28.918  38.116   0.777
30285W        W97068  10.874  34.033   1.789
30286W        W97069   1.273  39.554  12.090
30287W        W97070  20.771   2.214   2.357
30288W        W97071  17.611  30.974  11.264
30289W        W97072  25.438  22.147   2.656
30290W        W97073   4.260  30.218   1.799
30291W        W97074  19.545   8.851   1.723
30292W        W97075   8.387  15.162  13.133
30293W        W97076  23.943  40.735   1.880
30294W        W97077   9.187  19.144   0.708
30295W        W97078   6.396  43.315   0.353
30296W        W97079   8.286   6.344  14.494
30297W        W97080  35.916   3.413   3.995
30298W        W97081   5.172  24.739  13.398
30299W        W97082  26.755  25.505  13.606
30300W        W97083   8.233  36.240   2.291
30301W        W97084  28.140  21.131   3.042
30302W        W97085  14.305  25.910  14.327
30303W        W97086  24.123   4.160   1.421
30304W        W97087  28.114  35.032  14.197
30305W        W97088  42.537  25.295   2.567
30306W        W97089  14.082  36.413   2.096
30307W        W97090  18.449  28.486  13.177
30308W        W97091  44.435  41.039  10.476
30309W        W97092  28.214  41.430  13.355
30310W        W97093   0.977  20.743  13.090
30311W        W97094   2.109  35.772   2.137
30312W        W97095  29.465  35.805   1.373
30313W        W97096   6.249  32.778  11.680
30314W        W97097   1.201   4.621  12.833
30315W        W97098  10.905  11.858   4.621
30316W        W97099  22.519  24.124   3.060
30317W        W97100  23.501  24.000  11.024
30318W        W97101  40.692  14.411   3.970
30319W        W97102  42.810  27.564  11.155
30320W        W97103  29.561   3.308   1.406
30321W        W97104  27.878   9.455  11.211
30322W        W97105  20.715  38.989   3.393
30323W        W97106  44.547   4.863  11.089
30324W        W97107  17.994   4.292  11.520
30325W        W97108  32.938   0.770  14.873
30326W        W97109  12.177  26.983   1.114
30327W        W97110   5.307  17.872  10.495
30328W        W97111  30.940  39.042  14.525
30329W        W97112   0.035  25.846   1.252
30330W        W97113  42.937  16.806   1.861
30331W        W97114  26.591   6.370   5.021
30332W        W97115  34.017  26.613   2.768
30333W        W97116   2.466  27.264  12.795
30334W        W97117   0.314   7.752   1.668
30335W        W97118  33.865  38.391  10.541
30336W        W97119   9.851  16.679  11.412
30337W        W97120   2.994  18.311   0.354
30338W        W97121   1.897  13.081   1.873
30339W        W97122  41.778  16.946  13.163
30340W        W97123  19.941  17.117   2.199
30341W        W97124  10.752   7.424   1.552
30342W        W97125  16.155  24.187  12.514
30343W        W97126  40.917  35.408  11.170
30344W        W97127  23.534   0.562   0.974
30345W        W97128  40.769  22.661   3.167
30346W        W97129  35.688  22.722   2.578
30347W        W97130  27.995  38.465   0.479
30348W        W97131   0.820  15.606  10.123
30349W        W97132  44.424  23.193   4.037
30350W        W97133   5.833   0.288  13.463
30351W        W97134  38.018  28.073   3.630
30352W        W97135  23.072  28.455  11.032
30353W        W97136  20.591  27.546   3.378
30354W        W97137  44.711  10.339  14.429
30355W        W97138  21.489   8.077   2.871
30356W        W97139  37.175  43.951  12.068
30357W        W97140   8.884  22.807   5.057
30358W        W97141  23.974  36.823  13.418
30359W        W97142  20.128  11.219   3.886
30360W        W97143  17.849   7.163  14.486
30361W        W97144  19.514   4.443   4.601
30362W        W97145  11.513  31.991   5.188
30363W        W97146  35.466  20.804   2.656
30364W        W97147  42.574  38.395  11.080
30365W        W97148   1.242   7.361  11.674
30366W        W97149  34.907  29.324   4.560
30367W        W97150  15.483  22.022   0.416
30368W        W97151  17.653  25.087   0.912
30369W        W97152  32.474  29.743   1.359
30370W        W97153  24.674  43.156   2.941
30371W        W97154   5.740  42.612   2.318
30372W        W97155  40.303  25.491   0.340
30373W        W97156   8.169  31.523  13.827
30374W        W97157   5.335  43.023  11.126
30375W        W97158   5.618  29.507  11.187
30376W        W97159  19.815  13.127   2.182
30377W        W97160   6.644  34.983  10.906
30378W        W97161  34.107  35.627  14.901
30379W        W97162  25.707   8.220  13.071
30380W        W97163  12.522  32.698   4.104
30381W        W97164  38.396  10.302  10.665
30382W        W97165  36.750   3.914   3.302
30383W        W97166   7.766   9.312  10.305
30384W        W97167   0.848  43.746   3.628
30385W        W97168   3.658   6.289   4.982
30386W        W97169  42.699  21.314  11.945
30387W        W97170  12.653  10.251   3.658
30388W        W97171  13.202  23.137   0.183
30389W        W97172  44.197  32.705  11.186
30390W        W97173  14.058  37.447   0.867
30391W        W97174   5.296  18.360   0.479
30392W        W97175  37.903  21.514   4.163
30393W        W97176  38.853  11.247   3.588
30394W        W97177  39.552  40.944   1.768
30395W        W97178  19.326  29.594  13.409
30396W        W97179  42.542  18.624   1.171
30397W        W97180  18.215  42.929  14.901
30398W        W97181  31.774  19.040   3.851
30399W        W97182  26.117  35.611  14.994
30400W        W97183  23.599  31.753  11.954
30401W        W97184  43.332  39.065   2.270
30402W        W97185  20.760   4.634   2.412
30403W        W97186  16.150   2.812   4.265
30404W        W97187  42.918  24.192   5.142
30405W        W97188   9.865  41.323   4.262
30406W        W97189   0.344   4.791  14.968
30407W        W97190  13.341  13.030   2.053
30408W        W97191  22.225  13.458   4.611
30409W        W97192   5.741  37.607   2.189
30410W        W97193  44.096   1.972   2.949
30411W        W97194  14.725  18.197  10.833
30412W        W97195  15.753  12.259   2.170
30413W        W97196  36.032  29.941  14.821
30414W        W97197  13.513   8.143   4.117
30415W        W97198  42.057  42.420   0.618
30416W        W97199  20.184  26.235  14.076
30417W        W97200  19.387  36.090  12.082
30418W        W97201  10.957  23.466  12.846
30419W        W97202  29.450  35.698   2.742
30420W        W97203   4.361  20.150   3.624
30421W        W97204  19.609   5.149  10.699
30422W        W97205   0.406  44.168  12.011
30423W        W97206  10.582  31.524  10.683
30424W        W97207  40.166  20.070  13.499
30425W        W97208   6.960  15.778   0.210
30426W        W97209   1.489  37.071   1.229
30427W        W97210  44.201  10.898   1.319
30428W        W97211  24.642   1.068   4.110
30429W        W97212  32.951  11.259  14.792
30430W        W97213   1.366  19.516  10.508
30431W        W97214  27.835  15.360  11.494
30432W        W97215  44.022  11.714   2.869
30433W        W97216  42.789   2.657   1.470
30434W        W97217  19.989   9.745   3.834
30435W        W97218  26.237  28.117   0.600
30436W        W97219  13.864   6.382  11.694
30437W        W97220  41.531  39.617   1.376
30438W        W97221  24.545  37.622  14.346
30439W        W97222   8.040  44.168  14.206
30440W        W97223   0.918   0.869  14.808
30441W        W97224  21.344  35.976   9.994
30442W        W97225  16.102  11.260   3.537
30443W        W97226  26.007  20.020   2.415
30444W        W97227  27.970  12.709  11.552
30445W        W97228  25.607   0.890   0.926
30446W        W97229  16.837  24.288   1.266
30447W        W97230  24.472  31.456  14.995
30448W        W97231   2.215  21.622  13.377
30449W        W97232  36.182  11.667  11.772
30450W        W97233  39.303  17.090  14.909
30451W        W97234  17.654   8.778   0.014
30452W        W97235  37.591  23.659  14.849
30453W        W97236  40.413  34.920   0.324
30454W        W97237  12.465  26.517   0.272
30455W        W97238  41.820  36.328   0.379
30456W        W97239  25.227  13.731   0.008
30457W        W97240  19.609   6.354   3.313
30458W        W97241  36.055   8.208   4.055
30459W        W97242  22.270  36.635   3.755
30460W        W97243   7.634   8.934  14.500
30461W        W97244  20.917  11.259   2.285
30462W        W97245   9.746   0.396   2.904
30463W        W97246  18.106   9.277   3.309
30464W        W97247  32.423  30.374  10.624
30465W        W97248  32.103  20.006   3.757
30466W        W97249  37.865  18.020  14.875
30467W        W97250   3.289  42.981  10.691
30468W        W97251  37.391  34.756   3.553
30469W        W97252  29.916   5.897  13.986
30470W        W97253  31.554   5.625  14.284
30471W        W97254   4.627  28.778  13.003
30472W        W97255  23.512   4.132  13.924
30473W        W97256  36.036  18.212  10.762
30474W        W97257  22.498  25.576   0.360
30475W        W97258  26.995  39.127  14.380
30476W        W97259  19.635  26.632   3.338
30477W        W97260  39.330  26.156   2.135
30478W        W97261  40.054  42.031  13.067
30479W        W97262  42.843  32.160   9.939
30480W        W97263  35.147  34.512   4.353
30481W        W97264  22.117  41.839  11.974
30482W        W97265  16.644  15.097   2.053
30483W        W97266  28.257  30.148  13.912
30484W        W97267  31.943   6.952  10.814
30485W        W97268   8.199  21.690   2.876
30486W        W97269  10.893  41.596   3.767
30487W        W97270   2.938  17.696   3.875
30488W        W97271  22.117  41.720  11.467
30489W        W97272  21.817   2.021   1.372
30490W        W97273  41.916  19.514   0.154
30491W        W97274  24.676  12.590   1.158
30492W        W97275  33.837   4.914  14.515
30493W        W97276  42.488  24.613  14.134
30494W        W97277   0.931  27.748  13.936
30495W        W97278  44.751   4.338  13.916
30496W        W97279  18.705  27.896  11.632
30497W        W97280  16.256  43.232   3.758
30498W        W97281  24.759  34.580   2.107
30499W        W97282  14.571  33.602   3.662
30500W        W97283  11.165  18.221   1.517
30501W        W97284  34.822  30.062  14.420
30502W        W97285  28.093   0.405   1.800
30503W        W97286  33.529   4.645   1.195
30504W        W97287  19.504  26.573   1.954
30505W        W97288  18.742   7.198  14.338
30506W        W97289  37.890  18.113   2.526
30507W        W97290  14.348  36.815  11.016
30508W        W97291   5.672  34.196   1.322
30509W        W97292  31.162  44.949   0.350
30510W        W97293  31.119   5.150   2.880
30511W        W97294   9.030   9.661   3.199
30512W        W97295  19.991  16.060   0.357
30513W        W97296  29.574  35.841  14.119
30514W        W97297  37.132  15.062  12.466
30515W        W97298  37.883  36.063  12.518
30516W        W97299  33.571  25.102   1.464
30517W        W97300  36.577  32.210   0.643
30518W        W97301  24.153   4.921  14.792
30519W        W97302  32.009  37.759   4.697
30520W        W97303  32.595  29.650  12.439
30521W        W97304  23.556   7.382   2.830
30522W        W97305  13.696  33.904  12.131
30523W        W97306  43.219  23.005  14.257
30524W        W97307   8.930  40.005  10.441
30525W        W97308   7.711  40.282  10.660
30526W        W97309  17.044  25.492   3.291
30527W        W97310  38.956   0.520  11.621
30528W        W97311   7.337  37.139   1.240
30529W        W97312  37.116  21.155  12.223
30530W        W97313  20.181  18.109  10.720
30531W        W97314  24.576  26.622   4.153
30532W        W97315  30.149  30.029   1.736
30533W        W97316  18.716  41.346   0.763
30534W        W97317   3.425  18.566   3.685
30535W        W97318  34.130   8.652  11.525
30536W        W97319   7.456   4.796   2.181
30537W        W97320  24.963  25.199   2.808
30538W        W97321   9.392  38.028  12.258
30539W        W97322  10.917  19.754   3.105
30540W        W97323  14.944  19.756   0.970
30541W        W97324  42.774   2.932   1.929
30542W        W97325  13.218   6.693  10.704
30543W        W97326  28.455   2.222  12.680
30544W        W97327  36.651   2.366   4.615
30545W        W97328   4.295  12.311  11.410
30546W        W97329  38.728  11.818  13.925
30547W        W97330   8.860   1.043  12.906
30548W        W97331  27.636  23.593  11.918
30549W        W97332  16.650  12.851  14.423
30550W        W97333  13.272  44.632   2.307
30551W        W97334  20.016  40.370  11.334
30552W        W97335  17.693  32.849  10.602
30553W        W97336  20.202  10.707   2.408
30554W        W97337  20.902  26.681  13.525
30555W        W97338  19.078  40.778   3.697
30556W        W97339  12.572  14.132   3.751
30557W        W97340  20.825  31.387  12.984
30558W        W97341  40.345   2.251   2.305
30559W        W97342  19.826  32.840  11.963
30560W        W97343  20.225  25.017  11.450
30561W        W97344  36.511  21.085   4.542
30562W        W97345  44.737  41.810  13.116
30563W        W97346  31.468  41.890   3.789
30564W        W97347  22.201  14.361   3.337
30565W        W97348  10.952  31.191  13.947
30566W        W97349   5.420  19.524  13.974
30567W        W97350  17.651  32.184  13.351
30568W        W97351  36.539  17.761   2.805
30569W        W97352  33.019  17.568  11.803
30570W        W97353  15.766  28.763  13.571
30571W        W97354  18.048  14.752  13.516
30572W        W97355   2.547  23.994   2.791
30573W        W97356  23.240  25.461  12.443
30574W        W97357  16.220  39.904   3.707
30575W        W97358  23.986   0.908  12.176
30576W        W97359  18.355  28.709   1.520
30577W        W97360  29.131  40.502   2.790
30578W        W97361  34.911  31.702   5.046
30579W        W97362  14.769  30.582  12.449
30580W        W97363  39.588  39.655   1.474
30581W        W97364   9.267  22.560   3.837
30582W        W97365   3.881  37.798  14.377
30583W        W97366  36.689   8.106  12.487
30584W        W97367  27.053  37.242   2.789
30585W        W97368  14.691  29.233   3.911
30586W        W97369  17.244  24.490  10.706
30587W        W97370  42.519  27.358  11.547
30588W        W97371  19.581  39.926   4.472
30589W        W97372  34.743   0.886  14.698
30590W        W97373  43.923  34.541  11.848
30591W        W97374  36.322  41.895  14.331
30592W        W97375  37.523  32.555   0.333
30593W        W97376  28.004  25.746  14.399
30594W        W97377  31.757   8.221   5.402
30595W        W97378  20.670   8.349  13.096
30596W        W97379  21.163   7.996   0.503
30597W        W97380  34.761   4.623  12.267
30598W        W97381  20.477  44.405   1.442
30599W        W97382  32.285   3.027   4.123
30600W        W97383   0.567   8.700   3.198
30601W        W97384  43.810  35.509  12.882
30602W        W97385  38.471  15.125   0.386
30603W        W97386  42.261  17.136   1.155
30604W        W97387   2.458  30.955  12.086
30605W        W97388  44.781  39.873   2.292
30606W        W97389   9.188  11.766   3.188
30607W        W97390   7.318  30.839  11.976
30608W        W97391  18.266  18.134   1.816
30609W        W97392  22.500  43.022   2.330
30610W        W97393  25.737   3.565   2.746
30611W        W97394   6.693  19.561   2.862
30612W        W97395  35.910  16.472  12.088
30613W        W97396   5.780  19.787   2.864
30614W        W97397  18.595  11.648   0.652
30615W        W97398  29.896  43.771   3.265
30616W        W97399  25.585  40.396   3.105
30617W        W97400   1.974  27.874  14.354
30618W        W97401  12.860  13.447   3.356
30619W        W97402  13.096  36.074  11.639
30620W        W97403  34.663  42.893  12.888
30621W        W97404  28.891   3.769  14.453
30622W        W97405  29.968   4.329   2.171
30623W        W97406  44.882  15.585   2.453
30624W        W97407  39.364  43.304  11.688
30625W        W97408  39.930   2.275  12.301
30626W        W97409  29.732  31.160   4.548
30627W        W97410  16.112  10.444   3.883
30628W        W97411  37.672  26.950   2.411
30629W        W97412  24.696  38.972  10.717
30630W        W97413  23.485  43.850  13.847
30631W        W97414  37.549  40.225   2.464
30632W        W97415  36.579   8.819  14.245
30633W        W97416   6.743  26.701   4.529
30634W        W97417  36.640  28.499   3.693
30635W        W97418  23.943   7.604   0.863
30636W        W97419  34.362  14.069   2.338
30637W        W97420  28.008   7.212  10.511
30638W        W97421  20.710  16.470  14.807
30639W        W97422   5.022  17.114   4.894
30640W        W97423  16.814  10.209  12.922
30641W        W97424  15.113   6.144   0.247
30642W        W97425  33.073  38.528   1.451
30643W        W97426  30.305  32.988   3.298
30644W        W97427   8.656  30.895   0.794
30645W        W97428  40.494  14.093   2.151
30646W        W97429  43.841  11.143  12.996
30647W        W97430  17.653  26.633   1.825
30648W        W97431  26.551  15.112   1.888
30649W        W97432  11.157  17.298  10.809
30650W        W97433  19.389  11.914  12.143
30651W        W97434  44.417  14.612   0.963
30652W        W97435  16.829  32.971   4.332
30653W        W97436  10.059   5.943   4.167
30654W        W97437  41.023  35.264   2.624
30655W        W97438  10.773  18.193  12.865
30656W        W97439  42.819  30.604   3.509
30657W        W97440  15.880  35.414   1.760
30658W        W97441  30.408  39.755   3.212
30659W        W97442  25.857  14.002  12.416
30660W        W97443  36.207  33.570   2.819
30661W        W97444  29.988   3.768  11.172
30662W        W97445  11.892  13.182  11.637
30663W        W97446  27.989  31.568   0.805
30664W        W97447  28.899  26.734  10.434
30665W        W97448  22.973  44.114  13.515
30666W        W97449  12.187  23.720   0.698
30667W        W97450  21.159  37.367  11.573
30668W        W97451   2.153   1.658  11.666
30669W        W97452   0.322  19.678   0.831
30670W        W97453  29.204  40.071  13.432
30671W        W97454  14.843  42.675   0.259
30672W        W97455  44.981  10.903   2.809
30673W        W97456  20.668  34.826  11.625
30674W        W97457  42.674  15.881   0.734
30675W        W97458  20.039  40.812  11.588
30676W        W97459  41.818  43.234   0.831
30677W        W97460   7.414  31.061  14.170
30678W        W97461   1.790   4.260   0.915
30679W        W97462  28.301  31.121   5.071
30680W        W97463  17.174  22.482  12.048
30681W        W97464  34.804   8.303  11.524
30682W        W97465  41.959  12.085  12.996
30683W        W97466  13.715  12.330   0.732
30684W        W97467  20.509  10.349  11.531
30685W        W97468  14.571  30.903   0.515
30686W        W97469  35.943  28.454   1.299
30687W        W97470  41.607  41.003   2.272
30688W        W97471  12.397  18.243  12.668
30689W        W97472  43.562  39.881  11.659
30690W        W97473  42.313   8.784  13.406
30691W        W97474  25.195  11.907   3.683
30692W        W97475  32.962  24.490  12.524
30693W        W97476   8.601  42.836  10.504
30694W        W97477  24.959  24.567  14.895
30695W        W97478  25.339   4.081  13.992
30696W        W97479  18.944  42.493  14.699
30697W        W97480  12.704  24.649   1.783
30698W        W97481  15.279  26.659  10.109
30699W        W97482   1.842   4.684   4.710
30700W        W97483  35.986  24.588   4.560
30701W        W97484  23.970  21.277   1.801
30702W        W97485   2.509   9.292   0.373
30703W        W97486  20.375   4.169   4.004
30704W        W97487  21.511   6.622   1.867
30705W        W97488   3.824  39.571  12.119
30706W        W97489  38.374   7.248   3.225
30707W        W97490  43.070  18.086   3.691
30708W        W97491   5.714   2.534   4.501
30709W        W97492  37.848  41.073  12.521
30710W        W97493  13.348  35.493   1.966
30711W        W97494  10.050   7.990   3.571
30712W        W97495  16.641  31.653   1.932
30713W        W97496  14.814  42.061   4.056
30714W        W97497  42.918  11.829   2.300
30715W        W97498  23.697  27.617   0.390
30716W        W97499  38.032  35.148  14.978
30717W        W97500  12.854  44.391  12.842
30718W        W97501  10.708  41.522  10.683
30719W        W97502  11.921  22.311   1.473
30720W        W97503  35.890  23.000  12.727
30721W        W97504   0.335   7.435   2.765
30722W        W97505   2.286  11.307  14.753
30723W        W97506   0.327  44.056  10.196
30724W        W97507  18.239  44.745   0.813
30725W        W97508  29.995   1.539  13.566
30726W        W97509  11.652   0.978   1.256
30727W        W97510  10.726  31.460  14.996
30728W        W97511  26.649   5.306   1.508
30729W        W97512  36.937  24.289   4.533
30730W        W97513  33.727  38.351   3.352
30731W        W97514  41.550  44.930  14.149
30732W        W97515  15.765  20.814   3.913
30733W        W97516  30.997  19.576  11.902
30734W        W97517  31.544  22.091  13.363
30735W        W97518  25.517  14.929  10.766
30736W        W97519  33.652  33.533   1.955
30737W        W97520  39.392   1.708  11.825
30738W        W97521  15.487  40.615  12.938
30739W        W97522  19.037  29.416  12.153
30740W        W97523  11.076  27.142  11.817
30741W        W97524  28.581  16.798   1.201
30742W        W97525  25.971  24.732  12.749
30743W        W97526   3.749  29.382   0.012
30744W        W97527  12.824  40.861   3.124
30745W        W97528   9.170   7.831  11.920
30746W        W97529  30.191   5.846   2.823
30747W        W97530  12.302  27.569   1.228
30748W        W97531   2.881   1.517   3.194
30749W        W97532  34.998  13.205  11.868
30750W        W97533  21.338  22.770  14.848
30751W        W97534   0.170   2.605   0.297
30752W        W97535  20.140  41.858  12.142
30753W        W97536   9.452  38.256   1.420
30754W        W97537   0.460  13.725   0.056
30755W        W97538  19.289  34.859   2.184
30756W        W97539  34.939  35.786   0.916
30757W        W97540  18.004   2.314  13.701
30758W        W97541  38.497  36.431  13.434
30759W        W97542  40.123  17.208   2.301
30760W        W97543  44.769  11.172   3.649
30761W        W97544  39.931   4.291  14.288
30762W        W97545  19.145  29.993   0.526
30763W        W97546  24.562   8.904  13.966
30764W        W97547  42.502  12.204   4.178
30765W        W97548  24.870   1.260  12.737
30766W        W97549  40.537  13.905  14.876
30767W        W97550  22.277   4.837   1.798
30768W        W97551   6.764  25.813  11.921
30769W        W97552  28.707   2.230  13.626
30770W        W97553  31.113  37.535   1.242
30771W        W97554  13.550  17.174  10.707
30772W        W97555  41.509   9.394  10.644
30773W        W97556  11.384  44.355  14.794
30774W        W97557   1.510  10.164   0.209
30775W        W97558  26.050  15.708  11.505
30776W        W97559  35.303  13.453  13.321
30777W        W97560  21.010  44.951  14.044
30778W        W97561  17.270  41.001  14.744
30779W        W97562  33.465  29.903   1.338
30780W        W97563   1.097  17.944   1.879
30781W        W97564  28.925   4.712  13.332
30782W        W97565  19.690   6.192  14.877
30783W        W97566  13.529  14.269   3.661
30784W        W97567  32.700   4.785   3.570
30785W        W97568   3.268  10.097  12.333
30786W        W97569   6.030   1.266  10.509
30787W        W97570  41.120  32.416   4.109
30788W        W97571  19.084   9.019   2.997
30789W        W97572  40.349  23.032   3.912
30790W        W97573  14.305  17.706  11.605
30791W        W97574   1.729  33.201  12.947
30792W        W97575  29.113  25.991  11.522
30793W        W97576  27.406  37.921  14.798
30794W        W97577  33.473  35.924   1.995
30795W        W97578  26.079  37.329   2.638
30796W        W97579  16.743  40.642   0.735
30797W        W97580   7.883  26.261   3.818
30798W        W97581  17.132   7.777  14.994
30799W        W97582  26.856  23.398   4.926
30800W        W97583  43.824  28.762  11.907
30801W        W97584  22.322   1.637  13.796
30802W        W97585  31.477   0.601  12.986
30803W        W97586  36.165   0.859   1.168
30804W        W97587   9.329  23.923   2.664
30805W        W97588   2.518  19.270   0.389
30806W        W97589  31.591  16.788   2.086
30807W        W97590  15.472  43.767  11.170
30808W        W97591  19.198  41.779   4.655
30809W        W97592   2.248  36.101  13.035
30810W        W97593   6.231  27.649   3.094
30811W        W97594  16.597   5.155  13.977
30812W        W97595   7.604  17.570  13.336
30813W        W97596  31.127  30.517   1.775
30814W        W97597  19.790  22.018   3.821
30815W        W97598   8.103   1.310   0.726
30816W        W97599  30.153  18.913   3.862
30817W        W97600   7.640  10.686   3.918
30818W        W97601  21.078   7.734   0.933
30819W        W97602   9.731  21.193   1.452
30820W        W97603  28.720   2.830   1.317
30821W        W97604   3.584   4.431  11.687
30822W        W97605   2.384  15.707   1.452
30823W        W97606  11.172   9.787  13.351
30824W        W97607   1.367  32.953  11.179
30825W        W97608   4.990   3.353  14.036
30826W        W97609   2.799  42.031   3.126
30827W        W97610   6.402  35.484  13.104
30828W        W97611  24.652  24.764   2.631
30829W        W97612  24.645  16.449  13.310
30830W        W97613  10.533  22.572   0.277
30831W        W97614  26.952  31.297  14.657
30832W        W97615  19.721  34.129  13.014
30833W        W97616  33.009  38.315   0.538
30834W        W97617  44.645  26.617   4.551
30835W        W97618  42.361  10.884  13.755
30836W        W97619  21.167  43.725  10.303
30837W        W97620   4.230   3.519  13.375
30838W        W97621  21.196  31.186  14.733
30839W        W97622  20.826  40.262   1.970
30840W        W97623   4.855   8.023   2.154
30841W        W97624   2.476  19.856   2.390
30842W        W97625  41.310  34.352  12.073
30843W        W97626  20.898  30.279   2.880
30844W        W97627  21.569  42.024  13.497
30845W        W97628   3.920  30.356  11.254
30846W        W97629  27.258  15.609   4.773
30847W        W97630   3.004  23.251  13.432
30848W        W97631   5.962  42.750  14.429
30849W        W97632  33.060   2.419  13.778
30850W        W97633  10.326  41.769  10.962
30851W        W97634  21.524  26.171   0.948
30852W        W97635  12.213  30.999  13.960
30853W        W97636  41.535  14.649   0.874
30854W        W97637  23.250  28.647   5.003
30855W        W97638   1.342  13.976   2.513
30856W        W97639   1.890   6.899  12.703
30857W        W97640  22.505   2.200  14.284
30858W        W97641   2.436  18.683   3.280
30859W        W97642  31.516   5.382   3.283
30860W        W97643  35.314  28.754   1.329
30861W        W97644  17.764   5.076  13.232
30862W        W97645  43.686  14.749  12.991
30863W        W97646  43.279  27.791  11.303
30864W        W97647  32.889   1.337  12.955
30865W        W97648   9.394   0.431   1.673
30866W        W97649  20.588  14.117  10.285
30867W        W97650  18.691   7.716   0.060
30868W        W97651  37.552  12.689   1.722
30869W        W97652  25.172  12.314  11.160
30870W        W97653  12.190   6.793  13.085
30871W        W97654  22.417  44.038   4.311
30872W        W97655   9.190  34.287  14.901
30873W        W97656  28.171  13.029  14.707
30874W        W97657   7.876  13.000   5.015
30875W        W97658  40.145  35.532   2.798
30876W        W97659  30.407  11.640   2.706
30877W        W97660   5.493  15.787   2.831
30878W        W97661  29.683   9.736  11.123
30879W        W97662  15.210   8.254  12.092
30880W        W97663  31.518  18.500   3.137
30881W        W97664  28.965  14.587   2.713
30882W        W97665  28.475  16.628  13.849
30883W        W97666  18.274  37.963   2.251
30884W        W97667  18.563  13.684   2.392
30885W        W97668  31.230  30.916  11.620
30886W        W97669  29.541  21.740   2.476
30887W        W97670  36.831  32.754  12.040
30888W        W97671  19.200   1.412  14.565
30889W        W97672  34.472   0.448   1.944
30890W        W97673  27.193  44.171   2.759
30891W        W97674  37.582  30.989   0.795
30892W        W97675   4.852   6.425  14.420
30893W        W97676  32.497  35.362  12.341
30894W        W97677  41.840  38.971   1.356
30895W        W97678  26.949  40.889  10.238
30896W        W97679  42.222  21.213   3.704
30897W        W97680  13.948  33.442  14.030
30898W        W97681  33.969  41.731   4.101
30899W        W97682  25.758  13.305  12.015
30900W        W97683  27.253  10.231   4.895
30901W        W97684  36.000  15.692  11.664
30902W        W97685  10.772   6.406  11.558
30903W        W97686  27.817  42.130  14.949
30904W        W97687   1.002  11.778  10.590
30905W        W97688   0.047  38.981  11.602
30906W        W97689  26.441  44.412   0.612
30907W        W97690  14.762  25.269  13.146
30908W        W97691   1.806   3.971  13.399
30909W        W97692   5.264   5.004   2.777
30910W        W97693  22.645  19.532  10.423
30911W        W97694  23.630   8.660  14.456
30912W        W97695  37.458   3.844  11.861
30913W        W97696  37.317  17.649   4.555
30914W        W97697  31.573   5.620   0.988
30915W        W97698  41.238  35.981   0.853
30916W        W97699  30.522  23.598  14.430
30917W        W97700  40.438  40.321  14.971
30918W        W97701  15.020  44.981  12.518
30919W        W97702   5.828  40.790   3.848
30920W        W97703  43.495   6.243   0.766
30921W        W97704  40.387  41.361   5.011
30922W        W97705  31.730  16.327  11.629
30923W        W97706  13.640   5.441   9.869
30924W        W97707  16.122   2.190   2.451
30925W        W97708  32.136  21.916   1.807
30926W        W97709  31.094  18.513  13.831
30927W        W97710   5.741  17.604  13.457
30928W        W97711  15.245   8.420   1.261
30929W        W97712  41.381  42.082   4.275
30930W        W97713  25.708   0.497   3.280
30931W        W97714   3.730  35.607   4.720
30932W        W97715  44.715  32.424  14.314
30933W        W97716  40.692  17.677   2.762
30934W        W97717  41.031   2.573   3.609
30935W        W97718  12.364   8.702  14.574
30936W        W97719   5.357   8.720   1.836
30937W        W97720   2.527  23.378   4.113
30938W        W97721  43.743   5.257   1.672
30939W        W97722   2.837  32.072   3.597
30940W        W97723   4.604  25.867   1.142
30941W        W97724  25.690  14.645   0.835
30942W        W97725   0.577  35.848  13.838
30943W        W97726  15.532  36.329  13.517
30944W        W97727   6.943  32.510   4.642
30945W        W97728  10.076  44.980  12.857
30946W        W97729   5.244  33.131  13.896
30947W        W97730  19.648  20.309  10.704
30948W        W97731  38.502  36.040  14.240
30949W        W97732  38.976  24.966  11.267
30950W        W97733  11.242   2.014  12.445
30951W        W97734  37.600  21.104  12.055
30952W        W97735  13.929  29.070  14.173
30953W        W97736   0.237  16.702  10.944
30954W        W97737  13.898   4.218   4.151
30955W        W97738  13.119  39.443  13.482
30956W        W97739  16.831   8.752   3.227
30957W        W97740  25.812   9.444   4.503
30958W        W97741   2.672   9.488   4.242
30959W        W97742  27.879   0.851  12.984
30960W        W97743  24.216  41.969   1.932
30961W        W97744  12.814  43.608  14.016
30962W        W97745  41.771  15.627   3.676
30963W        W97746   1.889   8.161   3.603
30964W        W97747   8.098  31.773   9.919
30965W        W97748  35.675  22.802   1.673
30966W        W97749  13.411  11.842   0.659
30967W        W97750  13.373   7.498  11.084
30968W        W97751  26.366   2.580   2.873
30969W        W97752  34.835  31.455   3.687
30970W        W97753  15.737  24.146  13.650
30971W        W97754  25.633  42.671  10.998
30972W        W97755  25.986  39.025   9.826
30973W        W97756  25.635  18.481  11.572
30974W        W97757  40.857  44.904  14.333
30975W        W97758   0.420  44.944  14.411
30976W        W97759  40.323  17.853  11.977
30977W        W97760  33.644   7.059  12.970
30978W        W97761   9.086   5.513   1.866
30979W        W97762  23.038  30.782  13.386
30980W        W97763   2.396  31.123  13.508
30981W        W97764  19.384  12.218  13.305
30982W        W97765  35.087   2.821  13.067
30983W        W97766  18.064  32.101  12.430
30984W        W97767  14.307  30.403   1.455
30985W        W97768  38.245  12.241   2.182
30986W        W97769  32.519   9.082  12.496
30987W        W97770  21.650  29.000   4.449
30988W        W97771  11.623  33.018  12.797
30989W        W97772  24.134  11.280   1.440
30990W        W97773  12.693   3.816  10.525
30991W        W97774  20.126  19.749  14.308
30992W        W97775  43.768  22.067  14.105
30993W        W97776  31.838  38.953  11.980
30994W        W97777  32.827  39.997   1.762
30995W        W97778  42.956   9.398   1.188
30996W        W97779  20.506   0.393   3.718
30997W        W97780  11.857  28.516  12.033
30998W        W97781  13.209  14.548   2.120
30999W        W97782   8.454  10.147   1.127
31000W        W97783  20.019  15.083  13.539
31001W        W97784   2.708  15.322  13.576
31002W        W97785  33.909  10.342  10.769
31003W        W97786  17.325  31.505   2.471
31004W        W97787  24.499  30.782   1.914
31005W        W97788  39.097  23.079  13.394
31006W        W97789  44.369  25.635   0.780
31007W        W97790   9.878   2.314   4.140
31008W        W97791  40.006  24.006   0.755
31009W        W97792  29.234  35.688   3.212
31010W        W97793  22.024   2.249   0.926
31011W        W97794  22.443  16.186  13.347
31012W        W97795  22.346  12.568  10.797
31013W        W97796   2.165  35.460  12.095
31014W        W97797  35.881  14.650   0.754
31015W        W97798  37.805  29.995  14.082
31016W        W97799  35.997  25.089   0.817
31017W        W97800  11.239  17.081   4.147
31018W        W97801  27.930  29.873   2.585
31019W        W97802  35.448  12.908   1.299
31020W        W97803   2.597  19.824   0.407
31021W        W97804  28.019  31.838   0.361
31022W        W97805  24.274  28.173   1.341
31023W        W97806  19.098  19.192   0.994
31024W        W97807  42.538   6.291   0.671
31025W        W97808  10.744  25.653  10.669
31026W        W97809  37.834   0.836   2.835
31027W        W97810   9.395  24.197   4.157
31028W        W97811  11.787   4.263  11.732
31029W        W97812  28.964  39.717   4.528
31030W        W97813  28.896  21.794   4.248
31031W        W97814  42.640  41.074   3.179
31032W        W97815  29.485  32.493  10.015
31033W        W97816  38.307  43.020  10.626
31034W        W97817   1.830   2.514   3.878
31035W        W97818  19.767  23.103   0.501
31036W        W97819   2.125  27.554   4.731
31037W        W97820  40.943   2.306  13.332
31038W        W97821  23.650  43.561  13.055
31039W        W97822  42.892  21.765  14.608
31040W        W97823   0.585  35.470  11.638
31041W        W97824   3.898  40.404  14.750
31042W        W97825  22.002  22.787   3.666
31043W        W97826  11.097  16.686  14.268
31044W        W97827  22.193  24.619  12.870
31045W        W97828  17.823  10.405  12.626
31046W        W97829  44.262  39.552  12.067
31047W        W97830  31.041  14.703   4.418
31048W        W97831  20.038  18.529  12.447
31049W        W97832  35.003  17.102   1.133
31050W        W97833  38.488   1.872   4.654
31051W        W97834  17.101  33.165   1.284
31052W        W97835  16.003  11.419   3.075
31053W        W97836  26.779  15.783   1.388
31054W        W97837  36.955   1.658   3.753
31055W        W97838   2.250  44.961  13.916
31056W        W97839  38.312  11.118   1.203
31057W        W97840  28.543  34.074   0.304
31058W        W97841  38.376  37.339  12.506
31059W        W97842  29.729  34.764   0.502
31060W        W97843  28.540  34.677   2.785
31061W        W97844   7.011   9.007   4.579
31062W        W97845  21.364  34.511  12.562
31063W        W97846   3.082  11.413  11.387
31064W        W97847  17.596   7.733   4.490
31065W        W97848  20.098  32.160   3.201
31066W        W97849  41.017  44.027   0.424
31067W        W97850  43.429   6.728   0.480
31068W        W97851  33.836  18.602  10.191
31069W        W97852  37.692   6.671   1.443
31070W        W97853   5.626  32.062   2.554
31071W        W97854  20.211   8.812   3.918
31072W        W97855  16.101  10.796  14.491
31073W        W97856  17.487  43.454   0.058
31074W        W97857  16.379   5.327  13.279
31075W        W97858   8.597  16.286  13.900
31076W        W97859  30.929  31.973  14.903
31077W        W97860  15.896  31.011   1.982
31078W        W97861   9.627  13.522  12.497
31079W        W97862   2.960  42.978  13.668
31080W        W97863  44.863  26.193   3.689
31081W        W97864   2.765  10.951  14.078
31082W        W97865  36.578  25.857  12.642
31083W        W97866  17.243  34.080  12.499
31084W        W97867  42.363   5.025   0.327
31085W        W97868  13.803   3.776  14.714
31086W        W97869  30.103  15.783   0.285
31087W        W97870   1.699  44.268   4.430
31088W        W97871  20.814  21.587   4.122
31089W        W97872   1.842   4.501  13.350
31090W        W97873   0.794  12.802   3.944
31091W        W97874  26.996  30.020   3.467
31092W        W97875   9.756   8.750   1.780
31093W        W97876  14.268  36.548  11.883
31094W        W97877  28.189  22.973   4.618
31095W        W97878  44.631  17.366  11.234
31096W        W97879  34.547  10.380  12.882
31097W        W97880  37.518  14.861   1.929
31098W        W97881  44.573   5.954   2.499
31099W        W97882  18.056  26.607  14.294
31100W        W97883   2.156   6.965  14.039
31101W        W97884  23.389  19.673  10.988
31102W        W97885  33.386   0.038   3.753
31103W        W97886  17.125   3.211  10.745
31104W        W97887  41.654   7.456   3.541
31105W        W97888  31.972  38.697   4.522
31106W        W97889   8.754  27.560   3.200
31107W        W97890  33.579  21.688  12.458
31108W        W97891  30.428  25.173   2.270
31109W        W97892  24.754  18.509  10.802
31110W        W97893  11.754  29.631   3.746
31111W        W97894  26.116  31.804   1.835
31112W        W97895   8.102   5.641  13.548
31113W        W97896  22.997  41.919   3.107
31114W        W97897  10.330  43.776   1.405
31115W        W97898  27.600   6.369  12.441
31116W        W97899  11.862  14.162  12.379
31117W        W97900  14.606  18.674   2.579
31118W        W97901  26.200  29.023  11.090
31119W        W97902  17.338  39.081  11.834
31120W        W97903   2.625  19.747   4.673
31121W        W97904  37.178   5.400   3.303
31122W        W97905  15.777   9.959   4.033
31123W        W97906  18.248  35.086  12.869
31124W        W97907   8.061  17.854  13.452
31125W        W97908  31.148  22.980  14.471
31126W        W97909   8.634   2.553   1.922
31127W        W97910   6.819  21.510   0.878
31128W        W97911  18.380  43.694   1.265
31129W        W97912  42.341   4.368  11.222
31130W        W97913   3.752  40.884   4.399
31131W        W97914   4.836  42.987   3.215
31132W        W97915   5.345  19.919   4.843
31133W        W97916  44.343  44.139   3.762
31134W        W97917  18.002  40.893  10.808
31135W        W97918  15.734  19.054   3.795
31136W        W97919   7.194  15.019   0.935
31137W        W97920   5.845   2.307   2.819
31138W        W97921  14.876  40.328   4.361
31139W        W97922  33.957  11.254   4.298
31140W        W97923  33.423   3.473   1.740
31141W        W97924  22.035  33.492   2.213
31142W        W97925   6.965  39.428  12.139
31143W        W97926  41.147  17.578  13.649
31144W        W97927  41.461   3.016   3.888
31145W        W97928   8.024  22.098   3.206
31146W        W97929  35.112   0.930  12.086
31147W        W97930  41.253  16.296   2.332
31148W        W97931  23.353  32.584  12.036
31149W        W97932  23.527   6.091  11.864
31150W        W97933   9.300  12.645  11.507
31151W        W97934  33.551  38.056   1.282
31152W        W97935  39.095  20.285   2.874
31153W        W97936   8.695  22.089   0.694
31154W        W97937  40.857   1.513   4.542
31155W        W97938  18.702  11.120   0.482
31156W        W97939  34.899   5.376   0.167
31157W        W97940  39.420  38.383   1.835
31158W        W97941  36.568  11.267   4.753
31159W        W97942  36.697  10.847  13.002
31160W        W97943  34.535  15.296  14.250
31161W        W97944  27.414  37.644   2.086
31162W        W97945  13.056  33.020  14.901
31163W        W97946  40.920  33.291  12.000
31164W        W97947   3.431  28.976   2.920
31165W        W97948  29.421  38.063   0.038
31166W        W97949  29.182  31.143  14.445
31167W        W97950  41.925   8.656   0.854
31168W        W97951  22.271  22.177   4.495
31169W        W97952  23.312   4.404   4.471
31170W        W97953  23.744  10.668  11.198
31171W        W97954  16.131  40.478   2.907
31172W        W97955  21.506  41.919   2.377
31173W        W97956  44.783  16.373   3.349
31174W        W97957  35.881  44.843   4.205
31175W        W97958  36.975   9.707   3.256
31176W        W97959  38.846  42.618   3.683
31177W        W97960  29.661  16.661  10.651
31178W        W97961   9.272  34.156  10.614
31179W        W97962  20.896  22.924  11.022
31180W        W97963  40.819  21.591  12.544
31181W        W97964  13.322  12.062   9.952
31182W        W97965  27.488  35.767  13.539
31183W        W97966  27.477  42.136   3.144
31184W        W97967  14.625  19.186  10.769
31185W        W97968  21.181  29.244   3.143
31186W        W97969   1.748  44.519  11.471
31187W        W97970  24.678   5.081  13.537
31188W        W97971  34.139  17.346  11.151
31189W        W97972  13.300  17.241  14.766
31190W        W97973  17.724  17.179   1.000
31191W        W97974   8.569  35.037   3.920
31192W        W97975  23.199  26.579   0.676
31193W        W97976  44.208  37.460  14.806
31194W        W97977  31.129  32.702  14.306
31195W        W97978  35.806   9.427   3.292
31196W        W97979   1.878   8.226   2.285
31197W        W97980  11.372  29.431   2.178
31198W        W97981  25.639  22.756  11.567
31199W        W97982  22.523  14.354  11.045
31200W        W97983  43.805  16.291  14.963
31201W        W97984   2.102   4.129  11.542
31202W        W97985  14.854  24.833  11.615
31203W        W97986  37.846   6.086   5.000
31204W        W97987   1.298  13.347  12.893
31205W        W97988  12.386   7.932   2.216
31206W        W97989  18.274  12.918   1.196
31207W        W97990  33.568  37.099  14.889
31208W        W97991  10.581  44.809  12.064
31209W        W97992  29.168  37.349  11.137
31210W        W97993  20.295   0.965  11.088
31211W        W97994   0.407   9.165  13.139
31212W        W97995  33.517   2.473   4.155
31213W        W97996   1.039  40.455   4.041
31214W        W97997  20.819  17.161   0.315
31215W        W97998  37.647   9.199  12.982
31216W        W97999   0.468  25.451  12.449
31217W        W98000  21.029   0.548  13.422
31218W        W98001   5.392  33.623   0.180
31219W        W98002  39.460   2.752   3.916
31220W        W98003  12.283  28.790   4.469
31221W        W98004  42.980  23.985  11.189
31222W        W98005  42.292  12.897   2.654
31223W        W98006  42.506  12.909   4.670
31224W        W98007   4.317  15.612   1.053
31225W        W98008   8.127  14.329   1.860
31226W        W98009   1.167  25.470   2.599
31227W        W98010  40.853   9.319   5.021
31228W        W98011   8.334   5.830  14.427
31229W        W98012  14.380  28.938  12.552
31230W        W98013  32.953  40.562  13.508
31231W        W98014  23.314   1.483  14.753
31232W        W98015  10.620   9.878   4.816
31233W        W98016  11.665  12.377   4.690
31234W        W98017   8.284  36.847   3.598
31235W        W98018  37.002  39.772   4.172
31236W        W98019  42.294  28.980  14.097
31237W        W98020  24.545  36.772   3.346
31238W        W98021  22.566  39.721  11.529
31239W        W98022  28.281  25.272  12.948
31240W        W98023  32.925  28.123  11.896
31241W        W98024  28.983  36.569  12.313
31242W        W98025  11.808  15.302  11.124
31243W        W98026  11.818   4.965  11.164
31244W        W98027  42.483  43.195   1.415
31245W        W98028   1.722  11.673  11.133
31246W        W98029  35.497  31.430  11.198
31247W        W98030   4.847  37.815  11.595
31248W        W98031  14.345  40.583  12.022
31249W        W98032  37.504  30.515  12.012
31250W        W98033  24.337  25.521  14.867
31251W        W98034   0.500  18.894  10.837
31252W        W98035  33.049  19.956   4.129
31253W        W98036  35.095  16.235  10.503
31254W        W98037   6.101   9.525  13.115
31255W        W98038   6.329  21.968  14.451
31256W        W98039   0.783   1.003   0.338
31257W        W98040  44.426  17.032  13.808
31258W        W98041   2.163  26.090   2.231
31259W        W98042  42.840  23.150  13.886
31260W        W98043   5.063  19.808   1.782
31261W        W98044  37.406  38.975  14.769
31262W        W98045  40.095  42.187   1.801
31263W        W98046  24.596  44.225  14.441
31264W        W98047  38.048  43.240  14.340
31265W        W98048  44.576  41.242  12.417
31266W        W98049  24.164  16.919  11.566
31267W        W98050  40.402  28.043  14.309
31268W        W98051   3.793  30.596   5.080
31269W        W98052  27.525  16.045   1.722
31270W        W98053  36.768   9.724  14.336
31271W        W98054  20.522  29.197  12.953
31272W        W98055  25.642  42.012   1.806
31273W        W98056  30.092   2.972  10.496
31274W        W98057  20.304  37.022  12.477
31275W        W98058  28.026   5.033   1.483
31276W        W98059   3.491  29.990  11.536
31277W        W98060  20.076  44.141  10.812
31278W        W98061  16.186  12.268   1.902
31279W        W98062  41.944  11.075  14.411
31280W        W98063  15.154  20.571  11.260
31281W        W98064  32.555  21.617  13.955
31282W        W98065  10.807  14.603   2.337
31283W        W98066   8.299  34.138   2.635
31284W        W98067   5.563  34.463  13.351
31285W        W98068  29.950  42.379   1.915
31286W        W98069  29.438   1.466  11.153
31287W        W98070  44.325  27.935   0.490
31288W        W98071  20.845  33.397  13.144
31289W        W98072  21.593  40.752  13.314
31290W        W98073  22.253  41.452   3.113
31291W        W98074  10.658  41.186  13.382
31292W        W98075  27.995  26.244  14.663
31293W        W98076  37.412  26.052  11.490
31294W        W98077  23.487  40.560   1.119
31295W        W98078  19.339  22.739  14.266
31296W        W98079   7.220   5.033   3.577
31297W        W98080  11.752  38.289   0.864
31298W        W98081  25.039  14.395  13.819
31299W        W98082  39.320  35.492   3.085
31300W        W98083   2.228  39.573  12.945
31301W        W98084  37.502  20.708   1.377
31302W        W98085   8.960   4.374  12.546
31303W        W98086   3.811  41.420  12.946
31304W        W98087  32.055  32.492  13.960
31305W        W98088  23.063   5.247  14.906
31306W        W98089  37.384  37.603  10.325
31307W        W98090  32.091  27.043  11.713
31308W        W98091  19.745  23.343   3.281
31309W        W98092  12.740  23.567  12.994
31310W        W98093  10.500   4.254  11.442
31311W        W98094  20.104  24.488  13.491
31312W        W98095  11.395  42.094   1.255
31313W        W98096   6.611  42.828   3.331
31314W        W98097  11.648   6.773  13.813
31315W        W98098  34.597  44.207   3.599
31316W        W98099   3.571  15.195  12.039
31317W        W98100  25.899  26.933  12.975
31318W        W98101  22.851  38.826   5.122
31319W        W98102   6.152  27.920   1.008
31320W        W98103  21.966  44.564   4.987
31321W        W98104  12.699   0.508  14.442
31322W        W98105  17.624   2.261   4.829
31323W        W98106  13.501  25.454  12.895
31324W        W98107   1.989  26.681  13.903
31325W        W98108   4.264  23.697  12.390
31326W        W98109  37.980  20.369   0.450
31327W        W98110   4.724  33.799   1.250
31328W        W98111   3.741  28.722  11.652
31329W        W98112  29.185  35.932  12.169
31330W        W98113  22.551  14.232  12.324
31331W        W98114   5.615  42.721   3.355
31332W        W98115   7.213  15.559   0.925
31333W        W98116   5.222  23.466   1.880
31334W        W98117   9.589  29.357  14.878
31335W        W98118   1.736  15.129   1.363
31336W        W98119  18.096   3.958   2.366
31337W        W98120  35.925  16.183   3.023
31338W        W98121  10.115  32.845  12.501
31339W        W98122  29.358  15.147  10.681
31340W        W98123  31.359  30.095   4.634
31341W        W98124  29.386  44.368  13.059
31342W        W98125  35.783  11.085  13.966
31343W        W98126  43.487  28.480  12.454
31344W        W98127   2.269  27.579  14.702
31345W        W98128   0.650  28.440   1.631
31346W        W98129  11.275   5.360  11.838
31347W        W98130  44.541  41.985   3.695
31348W        W98131   7.333  43.878   1.607
31349W        W98132  40.364  25.983   4.647
31350W        W98133  19.041   2.811  13.113
31351W        W98134  35.353  29.571   1.491
31352W        W98135  19.509   0.068   1.328
31353W        W98136  18.084  41.273  10.444
31354W        W98137   0.809  37.039  10.910
31355W        W98138  32.014  22.478  12.461
31356W        W98139   4.982  28.490  10.802
31357W        W98140   5.848  12.806   4.608
31358W        W98141  15.694   9.715   2.393
31359W        W98142   3.262  23.473   1.295
31360W        W98143  34.775  28.473   3.095
31361W        W98144  26.256  11.254   3.665
31362W        W98145  41.624  41.890  14.857
31363W        W98146  17.291  34.626   4.081
31364W        W98147  44.547  11.800   2.827
31365W        W98148  29.028  33.908   2.736
31366W        W98149  20.941  10.964  12.907
31367W        W98150  42.326   4.011  10.791
31368W        W98151  36.766   0.879  12.803
31369W        W98152  43.468  43.326   4.559
31370W        W98153  11.102  24.990   2.362
31371W        W98154  28.850  24.008  10.610
31372W        W98155  41.214  32.059   4.488
31373W        W98156  15.798   7.131  12.527
31374W        W98157  25.446  31.910   0.096
31375W        W98158   5.925  32.938   2.595
31376W        W98159  17.398   0.486  11.772
31377W        W98160  36.948  12.299   2.789
31378W        W98161  11.656   0.997  11.968
31379W        W98162  16.653  40.020  11.907
31380W        W98163   5.119  29.350  11.211
31381W        W98164  31.231  21.490   5.314
31382W        W98165  29.111  25.981  14.849
31383W        W98166   5.296  18.576   2.105
31384W        W98167  30.583  19.132  14.242
31385W        W98168   4.879  14.749  14.912
31386W        W98169  22.004  11.274  11.331
31387W        W98170  22.813  34.525   4.043
31388W        W98171  12.578  17.863  12.974
31389W        W98172  28.734  12.065  14.082
31390W        W98173  40.492  27.013   4.574
31391W        W98174  34.028   7.540  14.242
31392W        W98175  33.393   9.351   1.379
31393W        W98176  21.462   7.338   0.068
31394W        W98177  23.494  42.116  11.160
31395W        W98178  27.049  17.061   0.737
31396W        W98179  16.094   7.186   2.744
31397W        W98180  32.944  15.418  11.066
31398W        W98181  17.911   4.858  11.892
31399W        W98182  34.372  18.620  12.541
31400W        W98183  18.341   5.773  10.732
31401W        W98184  18.122   7.945  11.302
31402W        W98185  20.735  37.204   4.064
31403W        W98186   7.014  15.545  11.587
31404W        W98187   7.734  22.672  12.002
31405W        W98188   8.830  22.511   4.172
31406W        W98189  20.328   9.322   1.791
31407W        W98190  29.082  10.329   3.238
31408W        W98191   3.468  40.632  11.567
31409W        W98192  17.094  12.931   4.293
31410W        W98193  30.167   5.129   0.841
31411W        W98194  16.031  18.204  10.324
31412W        W98195   2.131  33.645  10.310
31413W        W98196  10.632  10.638   0.941
31414W        W98197   7.222  35.177  12.936
31415W        W98198  29.989  28.124  10.639
31416W        W98199  27.342   8.150  13.088
31417W        W98200  14.474   9.889   9.988
31418W        W98201  25.567  17.698   2.863
31419W        W98202   6.422  13.261  10.846
31420W        W98203  39.785  42.559  13.866
31421W        W98204  34.603  30.871  13.841
31422W        W98205  43.267  10.364  10.173
31423W        W98206   9.939  33.513   3.788
31424W        W98207   4.494  18.316   9.637
31425W        W98208  20.144  37.848   1.713
31426W        W98209  13.436   3.730   2.759
31427W        W98210  23.210   4.938   5.142
31428W        W98211  19.816  24.788   1.689
31429W        W98212  10.603   9.680  12.032
31430W        W98213  23.773   7.814  12.052
31431W        W98214  11.262  24.098  14.787
31432W        W98215  33.998  30.536   0.227
31433W        W98216  21.023  35.046  10.725
31434W        W98217  24.938  39.463  13.526
31435W        W98218  42.242  25.474  13.977
31436W        W98219   4.125   5.277   0.489
31437W        W98220  40.031   4.452  11.902
31438W        W98221  14.197  42.986  11.231
31439W        W98222  39.553   1.077  13.838
31440W        W98223  31.805  40.441  11.585
31441W        W98224  22.425  32.532  12.542
31442W        W98225  42.792  15.822  14.335
31443W        W98226  10.164  16.761   3.263
31444W        W98227   0.279   2.989  11.656
31445W        W98228  35.035  30.930   3.603
31446W        W98229   9.217  16.826   1.136
31447W        W98230   4.701  28.740  11.700
31448W        W98231  39.323  28.493  13.260
31449W        W98232  35.617  26.198  12.409
31450W        W98233  41.874  15.632   1.312
31451W        W98234  32.878  28.210   2.368
31452W        W98235  28.026  16.213  14.559
31453W        W98236  33.649   1.293  10.850
31454W        W98237  40.299  32.490   2.999
31455W        W98238  11.476  39.658   4.729
31456W        W98239  40.885   2.459   1.173
31457W        W98240   1.902   2.570  14.825
31458W        W98241  26.938  31.388   1.814
31459W        W98242  32.043  35.412  14.482
31460W        W98243   4.515  27.582  14.546
31461W        W98244  17.369   5.870   0.693
31462W        W98245   1.896  23.294  14.351
31463W        W98246  20.532   4.446   1.029
31464W        W98247  22.691   8.108   2.167
31465W        W98248  39.471  37.715  14.428
31466W        W98249  17.392  12.261   5.042
31467W        W98250  31.919  27.287   1.873
31468W        W98251  23.655  23.556   3.391
31469W        W98252  12.273  38.966  12.349
31470W        W98253   9.161   8.582  12.872
31471W        W98254  41.970   1.379   1.778
31472W        W98255  35.542  37.005  14.758
31473W        W98256  41.204  24.940  14.008
31474W        W98257  28.655  28.478  13.972
31475W        W98258  39.000  12.260  13.696
31476W        W98259   7.888   6.139  11.969
31477W        W98260  15.876  23.994   1.346
31478W        W98261   6.833  33.111  10.588
31479W        W98262  21.082   8.649  12.951
31480W        W98263  28.136  16.527   1.163
31481W        W98264  22.986  41.825  10.678
31482W        W98265  15.103   9.363  11.092
31483W        W98266  31.124   2.943   4.800
31484W        W98267  16.681   8.206  13.810
31485W        W98268  16.047   7.789  10.772
31486W        W98269   4.672  41.817  12.293
31487W        W98270  25.543  40.033  11.381
31488W        W98271   5.211  19.896  11.900
31489W        W98272  19.078   5.075   3.979
31490W        W98273   4.312  33.594   0.999
31491W        W98274  42.269  32.059  10.626
31492W        W98275  34.412  43.365   0.478
31493W        W98276   8.667  33.158   3.278
31494W        W98277  24.656  33.892  14.430
31495W        W98278  34.638   4.146  12.076
31496W        W98279  19.710  34.979  11.094
31497W        W98280   3.800  12.916   2.792
31498W        W98281  18.796  44.224   0.468
31499W        W98282  29.456  29.492   1.463
31500W        W98283  40.138  15.657  12.051
31501W        W98284  41.124  31.161   2.560
31502W        W98285  36.644  28.396   2.322
31503W        W98286   3.676  27.892  13.127
31504W        W98287   0.726  26.129  10.616
31505W        W98288   8.525  31.325  14.949
31506W        W98289  17.612  22.174   1.442
31507W        W98290   4.606  43.432   2.189
31508W        W98291  33.997  41.207  14.829
31509W        W98292  16.245  36.430   0.316
31510W        W98293  18.989  42.815  12.456
31511W        W98294  36.381  20.304   3.303
31512W        W98295  37.001  36.323   3.757
31513W        W98296  44.467  19.942  14.453
31514W        W98297  28.953  29.125  11.567
31515W        W98298  23.406  41.966   0.413
31516W        W98299  26.214   7.434   2.846
31517W        W98300  24.902   0.407  14.864
31518W        W98301  24.070  34.628   4.644
31519W        W98302  33.077   2.177  10.924
31520W        W98303  38.315  29.461  10.841
31521W        W98304  15.367  33.961   3.667
31522W        W98305   0.673  41.806   3.106
31523W        W98306   4.349  40.038  11.676
31524W        W98307  31.368   6.689  12.536
31525W        W98308  29.681  12.772   0.774
31526W        W98309  22.686  32.311   3.779
31527W        W98310  31.011   5.746  12.014
31528W        W98311  28.981  10.603   2.765
31529W        W98312  43.507  26.684  11.445
31530W        W98313  23.014  38.373   4.727
31531W        W98314  29.575  19.280  12.235
31532W        W98315   9.819  13.246   4.122
31533W        W98316  41.952  28.422  12.934
31534W        W98317  20.900  27.313  10.177
31535W        W98318  17.944  37.595   2.461
31536W        W98319  31.417  44.392  10.729
31537W        W98320  16.620   8.183  13.297
31538W        W98321  17.747   1.277  14.322
31539W        W98322  17.651  39.538  10.608
31540W        W98323  10.742  11.642  10.387
31541W        W98324  31.838  38.846   0.859
31542W        W98325  34.981  41.106  12.502
31543W        W98326   5.553  33.501   3.861
31544W        W98327  42.356  34.001   1.379
31545W        W98328  13.402  28.167  13.965
31546W        W98329  27.161   7.851  14.528
31547W        W98330   1.840  16.361   4.525
31548W        W98331   2.010  21.698   0.921
31549W        W98332  22.721  15.525   3.681
31550W        W98333  26.254   2.478   3.650
31551W        W98334   2.878   8.291   2.439
31552W        W98335  40.017   5.755   4.481
31553W        W98336  21.579  34.070  12.422
31554W        W98337  16.753  12.454  12.438
31555W        W98338  23.340   1.349   4.169
31556W        W98339  31.940  44.532   2.168
31557W        W98340   0.304  33.373   2.933
31558W        W98341  23.248  14.838  10.757
31559W        W98342  28.196  38.565  10.593
31560W        W98343  34.918  38.262   1.815
31561W        W98344  34.443   9.374   2.073
31562W        W98345  11.541   8.336  10.847
31563W        W98346   2.373  19.714  13.791
31564W        W98347  32.985  18.466   2.312
31565W        W98348  40.888  12.164   2.671
31566W        W98349  21.905  40.915   4.933
31567W        W98350  42.296  27.754   3.354
31568W        W98351  10.171  32.373   4.110
31569W        W98352   0.228  31.307  11.141
31570W        W98353   6.416  12.319  13.875
31571W        W98354  25.092   2.401   3.246
31572W        W98355   9.832   5.693   1.365
31573W        W98356  19.350  25.321  10.880
31574W        W98357  40.269   7.475   2.013
31575W        W98358   1.563  26.437   4.179
31576W        W98359  26.646  15.042   4.259
31577W        W98360  25.213  39.162  11.133
31578W        W98361  36.276  39.104  10.659
31579W        W98362  42.205  38.594  12.922
31580W        W98363  32.381  17.577   4.180
31581W        W98364  29.693  13.947   1.504
31582W        W98365  15.601  12.040  12.520
31583W        W98366   1.775   4.279  13.834
31584W        W98367  23.397   0.887   1.815
31585W        W98368  13.368  11.769   1.586
31586W        W98369  11.934  13.124  14.079
31587W        W98370  41.244  28.992   1.807
31588W        W98371   7.380   6.299  14.857
31589W        W98372  13.304   8.396  13.384
31590W        W98373  18.278  22.640   3.921
31591W        W98374  22.530  12.215   4.472
31592W        W98375  13.929  22.734  13.832
31593W        W98376  27.381  24.428   0.239
31594W        W98377  10.010  17.959  13.468
31595W        W98378  42.458  32.040   2.800
31596W        W98379   9.903  13.338  12.898
31597W        W98380  25.463  42.937   0.872
31598W        W98381  11.272  32.713  13.980
31599W        W98382   1.104  40.836   3.687
31600W        W98383  35.022  43.906   3.756
31601W        W98384   3.008   4.370   0.428
31602W        W98385  29.004  21.519  10.762
31603W        W98386   8.417  14.347   3.205
31604W        W98387  17.798  42.332   0.487
31605W        W98388   5.273  37.643  10.544
31606W        W98389  24.059  34.147  11.116
31607W        W98390  21.333  39.885   1.172
31608W        W98391  29.597  41.225  13.060
31609W        W98392  10.429   1.843  12.217
31610W        W98393  16.063  30.232  12.519
31611W        W98394   1.392  24.732   4.179
31612W        W98395   4.629  11.260  14.748
31613W        W98396  32.551   1.328  13.421
31614W        W98397  26.500  14.720  13.021
31615W        W98398  42.848  30.653   0.488
31616W        W98399  37.513  27.925   3.726
31617W        W98400  37.932  13.599   3.157
31618W        W98401   6.065  13.212  11.565
31619W        W98402  26.623  15.862   0.415
31620W        W98403  28.473  19.503  14.800
31621W        W98404  24.779  19.695  13.355
31622W        W98405  41.569  16.332   1.495
31623W        W98406  41.829  19.903   1.686
31624W        W98407  14.327  19.230  13.047
31625W        W98408  29.679  26.956  12.603
31626W        W98409  37.501  13.166   0.853
31627W        W98410  30.449  11.446   3.166
31628W        W98411  20.511  10.229   4.207
31629W        W98412  23.911  16.637   0.921
31630W        W98413  14.312   0.990  11.604
31631W        W98414  18.156  36.852  14.495
31632W        W98415  10.022  27.998   0.311
31633W        W98416  34.347   0.382  12.609
31634W        W98417  11.224  31.872   1.142
31635W        W98418  10.162  37.043   1.371
31636W        W98419  39.120  15.384  12.123
31637W        W98420  12.760  39.946  10.942
31638W        W98421  10.903   5.299  12.779
31639W        W98422  24.771   6.896   0.464
31640W        W98423  24.155   3.280  13.368
31641W        W98424  26.910  41.290   0.945
31642W        W98425  28.001   1.450  14.469
31643W        W98426   6.953   4.276  13.970
31644W        W98427  29.649  35.023  13.073
31645W        W98428  29.275  26.670  10.065
31646W        W98429  21.889  36.104  14.807
31647W        W98430  34.931  35.890  10.664
31648W        W98431  17.784  37.921   2.843
31649W        W98432  38.275  35.441  13.374
31650W        W98433  14.079   4.351   1.717
31651W        W98434  13.223  32.695   2.494
31652W        W98435  40.186  29.593   1.314
31653W        W98436  35.201  23.640   2.740
31654W        W98437  15.971   1.818   3.972
31655W        W98438  43.755  40.837   1.338
31656W        W98439  11.168  43.051  14.313
31657W        W98440  17.705   3.119   2.675
31658W        W98441  31.637  11.211   1.564
31659W        W98442   2.734  17.076  12.507
31660W        W98443  21.111  32.489  11.896
31661W        W98444  29.167  24.814  13.538
31662W        W98445  37.509  40.017   3.059
31663W        W98446   4.626   8.482   4.043
31664W        W98447  41.368  24.681   2.651
31665W        W98448  28.964   2.335  12.164
31666W        W98449   3.642  25.856  14.438
31667W        W98450  38.501  14.728   3.788
31668W        W98451  28.053   7.408  14.872
31669W        W98452  34.300  26.673  11.107
31670W        W98453  23.575   2.153   2.248
31671W        W98454   8.712   2.373  13.522
31672W        W98455  31.374   1.959  12.314
31673W        W98456   3.032  23.973   2.206
31674W        W98457   7.144  44.970   3.200
31675W        W98458  24.593  41.430  12.174
31676W        W98459  39.091  25.414   4.161
31677W        W98460  37.517  10.714  13.622
31678W        W98461  13.627   8.307  11.105
31679W        W98462   4.774   6.201  14.883
31680W        W98463  18.250   7.505  11.063
31681W        W98464  35.017  32.939   2.333
31682W        W98465  37.871  34.058   0.595
31683W        W98466  28.120  17.832  13.440
31684W        W98467  43.472  29.476  11.327
31685W        W98468  23.192  37.437  12.102
31686W        W98469   8.279  37.937  11.049
31687W        W98470   8.111  12.962   4.213
31688W        W98471  30.528  26.969   4.393
31689W        W98472  32.959  41.726   0.430
31690W        W98473   8.647  41.699   4.050
31691W        W98474  13.023  12.396  11.949
31692W        W98475   1.050  11.032   0.805
31693W        W98476   2.612   3.073   3.980
31694W        W98477  14.304  21.467  12.442
31695W        W98478  17.810  36.473   4.525
31696W        W98479  23.051  42.953  11.118
31697W        W98480  36.904  39.576   2.911
31698W        W98481  27.657   7.265  14.072
31699W        W98482   4.119   9.988   2.321
31700W        W98483   6.318  11.928   2.360
31701W        W98484  37.840  40.590   0.730
31702W        W98485  44.356  16.566   2.841
31703W        W98486  23.736  37.564   0.419
31704W        W98487  34.530  11.672  12.364
31705W        W98488  25.093  29.428   2.277
31706W        W98489  35.387   9.891   1.221
31707W        W98490   0.592  22.144   3.682
31708W        W98491  36.404  16.230   2.842
31709W        W98492  34.361   9.455  14.306
31710W        W98493  12.373   3.266   4.644
31711W        W98494  11.611  15.962   5.099
31712W        W98495  23.531  13.843   2.628
31713W        W98496  44.373   5.348  13.762
31714W        W98497   0.307  26.778  11.104
31715W        W98498  40.771   6.865  10.438
31716W        W98499  17.774  23.934   0.271
31717W        W98500  41.482  29.094   2.248
31718W        W98501  33.350  30.143   0.893
31719W        W98502  29.201  38.578  14.965
31720W        W98503   2.374  27.457   3.726
31721W        W98504  13.637  18.715  14.786
31722W        W98505   1.046  44.124  13.176
31723W        W98506  28.049   5.898  13.451
31724W        W98507  34.152  24.695   3.445
31725W        W98508  41.922   7.141  13.494
31726W        W98509  34.504  38.027   3.557
31727W        W98510  21.268  20.636  13.352
31728W        W98511  38.032   7.772  14.376
31729W        W98512  27.355   3.333   4.969
31730W        W98513   4.703  16.571  13.972
31731W        W98514  15.356  43.884   1.843
31732W        W98515  26.519  27.721  11.154
31733W        W98516  38.652  28.732  13.850
31734W        W98517  16.519   4.185   3.220
31735W        W98518  21.179   6.988  14.312
31736W        W98519  36.924   9.745  13.823
31737W        W98520  22.696  36.571   1.707
31738W        W98521  13.071  30.714  13.012
31739W        W98522  37.045   9.365  11.548
31740W        W98523  12.796  35.894  13.998
31741W        W98524  39.143  22.328  11.316
31742W        W98525  11.659  30.925   1.711
31743W        W98526  26.600  11.780  12.950
31744W        W98527   4.741  12.610  14.455
31745W        W98528   9.299  32.818  14.701
31746W        W98529  20.949   1.353   4.961
31747W        W98530  24.693  11.866   3.677
31748W        W98531  10.918  42.353   4.115
31749W        W98532   5.204  23.010   2.840
31750W        W98533  37.476  36.863   4.750
31751W        W98534  10.885   4.451  12.643
31752W        W98535   4.967  17.037   1.500
31753W        W98536  43.613  33.684   4.347
31754W        W98537   9.843   1.169  10.685
31755W        W98538  37.126  15.216  11.321
31756W        W98539   4.219  16.667  14.843
31757W        W98540  30.431  31.172   0.729
31758W        W98541  20.512  22.696  12.384
31759W        W98542  38.964  32.001   2.556
31760W        W98543  16.796  16.536   0.956
31761W        W98544  27.517  42.855  14.740
31762W        W98545   4.976  31.556  14.084
31763W        W98546   4.879  19.330   1.788
31764W        W98547  37.882   4.100  14.519
31765W        W98548  43.062   9.816   1.444
31766W        W98549  30.067  32.726  13.515
31767W        W98550  42.879   7.377  13.267
31768W        W98551  24.409   1.235  12.511
31769W        W98552   5.458  41.090   3.588
31770W        W98553  42.330  32.894  11.340
31771W        W98554  24.014  21.607  14.023
31772W        W98555  37.533  42.330  13.430
31773W        W98556  26.495  34.072  12.197
31774W        W98557  40.490   6.282   2.828
31775W        W98558   4.516  13.113  10.653
31776W        W98559  22.393   9.329   4.569
31777W        W98560  44.031  22.875  10.801
31778W        W98561  10.734  30.515  10.687
31779W        W98562  44.286  27.168  12.358
31780W        W98563  40.293  33.922  13.579
31781W        W98564  14.818   9.773  14.777
31782W        W98565  18.840  26.424  14.043
31783W        W98566   0.198  11.627  12.722
31784W        W98567   9.414  20.958  14.279
31785W        W98568  42.540  39.532   3.684
31786W        W98569  35.383   7.239   3.616
31787W        W98570  24.553  19.969   0.883
31788W        W98571  14.091  21.223  12.820
31789W        W98572  44.806  34.164  11.520
31790W        W98573  11.907  19.788   2.398
31791W        W98574  16.263  31.345   1.765
31792W        W98575  43.205  10.687  11.298
31793W        W98576  28.852  32.562  11.197
31794W        W98577  44.873  29.176   2.624
31795W        W98578  34.042   7.403   2.796
31796W        W98579  12.774  10.351  11.117
31797W        W98580   4.468   4.922   0.669
31798W        W98581  10.318  40.054   2.388
31799W        W98582  42.077  42.709  10.983
31800W        W98583  35.505  26.316  10.803
31801W        W98584  36.819  12.888  11.256
31802W        W98585  41.403  44.401   3.597
31803W        W98586  21.283  34.834   1.487
31804W        W98587  43.021   7.225  12.779
31805W        W98588  30.742  14.843   1.186
31806W        W98589  29.928  14.083   1.062
31807W        W98590  15.572  24.958   2.608
31808W        W98591   5.465  29.525   4.642
31809W        W98592   6.094   1.905  13.630
31810W        W98593  12.224  11.304   0.733
31811W        W98594  42.343  22.255  12.028
31812W        W98595  19.431  20.549   2.592
31813W        W98596   2.766  32.180  14.796
31814W        W98597   9.892  38.238   3.206
31815W        W98598  42.518  28.957   4.514
31816W        W98599  32.855   2.926   0.364
31817W        W98600  21.983  15.710  14.886
31818W        W98601  29.376  33.707  13.935
31819W        W98602  17.183  31.696  14.480
31820W        W98603  25.170  19.957  13.583
31821W        W98604   5.742  12.407  14.477
31822W        W98605  29.101  11.598   4.608
31823W        W98606   8.257  34.328   0.790
31824W        W98607   2.933  36.088  10.477
31825W        W98608  31.120  26.280  11.277
31826W        W98609   6.641  25.595   2.328
31827W        W98610  20.663  37.439  11.644
31828W        W98611  34.253   4.861   9.867
31829W        W98612   5.951  38.047   0.793
31830W        W98613  25.268  42.527   1.748
31831W        W98614  42.870  32.498   3.423
31832W        W98615  26.009  12.679   0.269
31833W        W98616  22.580  11.216  13.962
31834W        W98617   5.181  13.381  11.177
31835W        W98618  30.639   3.197  13.450
31836W        W98619  33.504  29.108  11.723
31837W        W98620   6.766  11.655  14.569
31838W        W98621  22.403  42.929   0.002
31839W        W98622  39.444  15.631   2.329
31840W        W98623  34.616   5.412   1.635
31841W        W98624  37.488   2.011  12.140
31842W        W98625   8.250  31.591  14.324
31843W        W98626  42.646  21.551   3.662
31844W        W98627   2.225  38.098   4.983
31845W        W98628  23.845  40.644   0.275
31846W        W98629   3.003  40.741  12.915
31847W        W98630  17.619   2.864   4.119
31848W        W98631  10.330  39.886   0.008
31849W        W98632   6.706   0.583  12.556
31850W        W98633  10.090   5.713  11.582
31851W        W98634  36.115  29.955  12.101
31852W        W98635  21.995  29.324  12.053
31853W        W98636  29.083  24.645  12.422
31854W        W98637  16.316  15.586   3.746
31855W        W98638   7.695  12.124   9.849
31856W        W98639  11.584  44.590   4.980
31857W        W98640  39.167  26.150   4.559
31858W        W98641  10.584  19.019   3.474
31859W        W98642  22.658  16.310   3.192
31860W        W98643  39.129  12.863   0.293
31861W        W98644   4.948  38.796   0.507
31862W        W98645  26.440   4.099   2.118
31863W        W98646  35.098  43.920   4.766
31864W        W98647  36.704  21.451  11.026
31865W        W98648  26.692   7.631   1.414
31866W        W98649   7.690  23.757  11.118
31867W        W98650  17.584  12.764  10.858
31868W        W98651   6.401   3.801  12.093
31869W        W98652  29.882   0.770   4.151
31870W        W98653  24.104  41.009   4.208
31871W        W98654  22.776  35.942   3.884
31872W        W98655  25.306  26.307  14.533
31873W        W98656  16.815  18.056   2.821
31874W        W98657  44.960  19.050  13.942
31875W        W98658  35.544  10.904  12.859
31876W        W98659  39.782   0.307  14.924
31877W        W98660  25.835  25.735   0.987
31878W        W98661  17.494  23.009  10.739
31879W        W98662   8.602  26.839   4.714
31880W        W98663  38.124   2.694  12.122
31881W        W98664  10.193  33.810   0.831
31882W        W98665  19.339  39.332   0.434
31883W        W98666  36.867  23.525  12.986
31884W        W98667  27.165  28.390   0.503
31885W        W98668  41.890  40.512  14.472
31886W        W98669  17.367   0.359  13.204
31887W        W98670  35.811  13.124  11.541
31888W        W98671   9.861  10.214  14.596
31889W        W98672  27.059  38.597  14.421
31890W        W98673  20.003  36.506   4.661
31891W        W98674  39.514  15.353  13.967
31892W        W98675  20.696  36.073   2.005
31893W        W98676  12.329   7.423   2.182
31894W        W98677  40.605  39.350  11.016
31895W        W98678   1.203  14.480   0.871
31896W        W98679  32.879  23.045   1.771
31897W        W98680  12.289  24.053   1.832
31898W        W98681  23.032  21.982   2.628
31899W        W98682  17.681  20.754  13.325
31900W        W98683  29.116  15.343   3.349
31901W        W98684  28.454  33.377  11.043
31902W        W98685  42.135  21.629   2.182
31903W        W98686   6.334  26.929   2.658
31904W        W98687  14.389   4.753  11.188
31905W        W98688  35.412  31.915   1.797
31906W        W98689  29.512  11.071   0.308
31907W        W98690  19.830   3.374   5.106
31908W        W98691   9.082   5.420   4.017
31909W        W98692   0.342  35.178   0.744
31910W        W98693  14.769   1.150   1.319
31911W        W98694   7.946  17.595   2.288
31912W        W98695   6.245  15.022  11.359
31913W        W98696  24.917  36.491  12.974
31914W        W98697  14.091  24.658  12.069
31915W        W98698  18.526  13.838  11.108
31916W        W98699  35.230  28.944   2.801
31917W        W98700  42.034  17.714  13.305
31918W        W98701  40.890   9.434  14.323
31919W        W98702  24.577  16.639  12.437
31920W        W98703  24.400  39.961  11.789
31921W        W98704  34.554  13.982  11.546
31922W        W98705   8.142  14.574   0.962
31923W        W98706  13.818  18.990   0.764
31924W        W98707  43.480   9.999   0.325
31925W        W98708  21.496   2.249   2.215
31926W        W98709  27.423  18.898  12.998
31927W        W98710  40.929  10.282  12.522
31928W        W98711  39.576  17.699  13.897
31929W        W98712  33.364  13.333   1.855
31930W        W98713  37.187   7.716   5.156
31931W        W98714  23.906  18.836  14.337
31932W        W98715  17.262  15.007   3.137
31933W        W98716   6.620   8.119   3.461
31934W        W98717  34.180  40.376   1.846
31935W        W98718  16.571  35.914   3.194
31936W        W98719  38.854  25.383   2.106
31937W        W98720  10.430  39.444   0.859
31938W        W98721  12.747  26.107   0.934
31939W        W98722  22.278   4.360   1.592
31940W        W98723  24.240  15.265  13.448
31941W        W98724   0.668   2.463   0.352
31942W        W98725  42.383  27.819  11.327
31943W        W98726   5.655  23.696   4.385
31944W        W98727  28.887  43.665  11.192
31945W        W98728   2.217  21.100  12.504
31946W        W98729  30.223  44.419   4.229
31947W        W98730  31.072  13.795   4.406
31948W        W98731  17.321  18.947   4.555
31949W        W98732  16.624  38.535  13.049
31950W        W98733   9.525  44.147   4.051
31951W        W98734  21.617  27.665   0.797
31952W        W98735  41.292  12.415  11.460
31953W        W98736   1.717  40.296  12.749
31954W        W98737  39.549  31.485  14.052
31955W        W98738   1.983  39.822   3.882
31956W        W98739  16.333   2.957  10.529
31957W        W98740  15.131  12.385  13.443
31958W        W98741  25.742  27.114   1.345
31959W        W98742  23.411   4.465   1.938
31960W        W98743  39.210  30.311  10.146
31961W        W98744   2.488  23.327  10.838
31962W        W98745   5.210  35.522   0.433
31963W        W98746  43.500  13.588   3.605
31964W        W98747  11.297  16.172   1.837
31965W        W98748   2.098   4.538  12.641
31966W        W98749  22.699  44.399  12.813
31967W        W98750  37.597  30.723  11.201
31968W        W98751  30.098   3.603   5.057
31969W        W98752  38.444  42.396   1.697
31970W        W98753  37.937  10.092  11.546
31971W        W98754  18.717   5.815  11.514
31972W        W98755  35.477  29.181  10.783
31973W        W98756  34.298   2.470   0.425
31974W        W98757  24.263   0.501  11.999
31975W        W98758  34.138  15.936  10.707
31976W        W98759  10.677  28.718  13.736
31977W        W98760  21.850   8.389  10.571
31978W        W98761   5.491  27.720   3.666
31979W        W98762  21.551  30.785   4.778
31980W        W98763  25.730   3.640  11.606
31981W        W98764   5.682  31.907  12.846
31982W        W98765   1.881  28.979   2.294
31983W        W98766  44.274  31.150   0.092
31984W        W98767   9.349  32.497   1.040
31985W        W98768   1.765   2.292  14.425
31986W        W98769  10.265  26.943  14.951
31987W        W98770  40.447  24.516  14.274
31988W        W98771  25.734  26.319  14.233
31989W        W98772  43.453  29.783  14.960
31990W        W98773  29.246   0.913   2.347
31991W        W98774  22.125   9.897   2.060
31992W        W98775  27.914   0.717  12.122
31993W        W98776  14.464  40.480  11.519
31994W        W98777   2.414   3.271  12.575
31995W        W98778   7.899  27.892  10.488
31996W        W98779  33.898  36.762   0.155
31997W        W98780  24.709  16.637   2.187
31998W        W98781  24.652  17.847   4.282
31999W        W98782  21.124   1.279   3.709
32000W        W98783  30.379   7.171   2.210
32001W        W98784  40.032  14.119  11.246
32002W        W98785  29.022  23.679   0.820
32003W        W98786  20.132  18.762   4.899
32004W        W98787  18.401  14.646  11.589
32005W        W98788   1.844  27.493   0.025
32006W        W98789  22.602  12.472  11.225
32007W        W98790  36.905  22.740   3.013
32008W        W98791  44.001  28.935  14.201
32009W        W98792   2.406  17.454  14.391
32010W        W98793  19.573  22.485  12.033
32011W        W98794   1.644  34.148  13.298
32012W        W98795  20.962  24.484   4.566
32013W        W98796  10.050  12.710  12.864
32014W        W98797  17.137  28.472  12.464
32015W        W98798   0.415   1.866   2.376
32016W        W98799  35.619  26.827  13.923
32017W        W98800  13.566  33.556   2.255
32018W        W98801   3.464  11.361   2.380
32019W        W98802  19.976  18.252  13.366
32020W        W98803   5.388   5.270   3.364
32021W        W98804  27.262  29.976  11.983
32022W        W98805   2.563  27.387  13.309
32023W        W98806  41.420   7.266  12.968
32024W        W98807  18.224   4.871  13.422
32025W        W98808  42.730  12.141   0.867
32026W        W98809  40.085  44.438  13.404
32027W        W98810  29.683  26.758   3.320
32028W        W98811  13.153  33.344   0.853
32029W        W98812  13.855  29.188   3.860
32030W        W98813   8.821  39.287   3.164
32031W        W98814  19.069  31.547  13.678
32032W        W98815  34.943  32.527   4.384
32033W        W98816  30.919  18.969   4.549
32034W        W98817  16.883  13.774  14.665
32035W        W98818  20.784  13.216   3.236
32036W        W98819  13.015   6.774   2.223
32037W        W98820  10.792  23.725   0.485
32038W        W98821  30.402  10.738   3.696
32039W        W98822  22.445  33.427  12.401
32040W        W98823  18.358  22.221   3.573
32041W        W98824   9.758   9.685   4.471
32042W        W98825  13.718  43.296  12.515
32043W        W98826  12.964  21.322   4.829
32044W        W98827  43.257  16.368  11.861
32045W        W98828   0.280  13.617  14.552
32046W        W98829  10.822  29.421   3.825
32047W        W98830   2.250  42.384   2.263
32048W        W98831  22.830  37.103  11.832
32049W        W98832  31.493   5.125  11.466
32050W        W98833   8.419  19.216   3.743
32051W        W98834  35.124  39.821   2.327
32052W        W98835  29.402  21.200  12.297
32053W        W98836  17.328  29.102   1.149
32054W        W98837  10.838  43.270  13.857
32055W        W98838  44.966  21.350   2.445
32056W        W98839  24.092   9.963   3.231
32057W        W98840   4.641  26.697   0.784
32058W        W98841   4.162  42.546   4.818
32059W        W98842  10.432  25.139   0.934
32060W        W98843  10.867  37.622   1.844
32061W        W98844   6.740  16.344   3.673
32062W        W98845  37.866  20.066  11.813
32063W        W98846  11.250  41.113  12.207
32064W        W98847   8.412  20.562  14.110
32065W        W98848  22.665  37.565   3.748
32066W        W98849  33.617  36.959   2.903
32067W        W98850   1.474  36.334  13.596
32068W        W98851  26.150  12.738   1.260
32069W        W98852  11.794  10.957   3.241
32070W        W98853  21.098  17.730  14.806
32071W        W98854  17.896  44.367  11.946
32072W        W98855  21.108  27.326   4.746
32073W        W98856  35.363  38.986   4.726
32074W        W98857  33.037  12.641   2.929
32075W        W98858  17.760  12.046  14.735
32076W        W98859  13.916  21.750  12.909
32077W        W98860  29.702  34.987   1.843
32078W        W98861   8.902  29.220  11.541
32079W        W98862  11.427  16.346  12.176
32080W        W98863  34.192  15.114   2.883
32081W        W98864  26.240  21.803   0.159
32082W        W98865   8.346   4.923  11.644
32083W        W98866   7.751   6.642  12.996
32084W        W98867   7.042  11.736   2.631
32085W        W98868  25.627  42.980  12.874
32086W        W98869  29.060  26.042   0.760
32087W        W98870  30.926  31.127  13.194
32088W        W98871  13.656  31.212  14.162
32089W        W98872  25.503  22.746   0.331
32090W        W98873   2.973  40.854   0.307
32091W        W98874  12.151  19.529  12.900
32092W        W98875  27.911  17.633   2.016
32093W        W98876   4.699  38.472   3.897
32094W        W98877  18.640  27.057   3.863
32095W        W98878  39.609  14.892  11.599
32096W        W98879  17.094   3.100   3.755
32097W        W98880  29.846  22.557   3.722
32098W        W98881  12.577  13.108   0.963
32099W        W98882  36.589   5.791  14.791
32100W        W98883  36.936  28.416   0.310
32101W        W98884   3.767  25.615  13.934
32102W        W98885  37.589  33.301  14.007
32103W        W98886   7.461  10.291   3.223
32104W        W98887  31.092  41.426  10.609
32105W        W98888  17.997  27.116   3.117
32106W        W98889  29.051  15.462  11.606
32107W        W98890  35.853  36.545   1.783
32108W        W98891  26.479   3.471  10.445
32109W        W98892  44.315  44.760  12.456
32110W        W98893   2.677  28.039  13.000
32111W        W98894   1.458   9.279  11.582
32112W        W98895  42.801  22.601  14.949
32113W        W98896  22.546  42.635   4.136
32114W        W98897  27.027  44.165  11.678
32115W        W98898  40.046  12.640   0.234
32116W        W98899  40.009   0.751  14.016
32117W        W98900   6.180  29.652  11.185
32118W        W98901  10.653  28.641  14.966
32119W        W98902  30.902  43.310  12.052
32120W        W98903  29.590   2.594   3.130
32121W        W98904  26.649  18.994  14.794
32122W        W98905  27.481  37.421  14.876
32123W        W98906  38.608   0.130  11.607
32124W        W98907   0.236  20.233   3.224
32125W        W98908   4.748  23.529   1.688
32126W        W98909  26.899  24.161  13.330
32127W        W98910  12.751  28.069   2.375
32128W        W98911  38.211   6.247   3.206
32129W        W98912  28.574   4.974  11.492
32130W        W98913  37.837  34.913   4.540
32131W        W98914  37.004  39.327  11.079
32132W        W98915  36.835   5.251  11.145
32133W        W98916  31.505  30.673  14.764
32134W        W98917  20.653  22.014  13.458
32135W        W98918  31.619   7.797   3.373
32136W        W98919  18.003  17.769  10.231
32137W        W98920   0.304   0.031  11.148
32138W        W98921   9.717  37.161  11.105
32139W        W98922  20.570  29.255   3.806
32140W        W98923  37.433   3.440   1.862
32141W        W98924   2.308   5.740   0.528
32142W        W98925  33.552  23.715  12.172
32143W        W98926  44.071  33.284  14.921
32144W        W98927  15.836  44.547  14.246
32145W        W98928  11.952   1.585   3.138
32146W        W98929  25.095  23.315   5.005
32147W        W98930  19.387   3.103   5.105
32148W        W98931   7.185  11.853   4.698
32149W        W98932  19.245  27.960   2.154
32150W        W98933  11.080  33.927   0.412
32151W        W98934  20.651   7.727   2.608
32152W        W98935  22.030  44.267   0.332
32153W        W98936  30.434  23.987   2.265
32154W        W98937   8.435  16.322   3.235
32155W        W98938  20.778   6.428  11.341
32156W        W98939  38.028   7.955   3.713
32157W        W98940  16.014  32.769  11.069
32158W        W98941  12.764   9.036   3.962
32159W        W98942  10.984  38.479   1.696
32160W        W98943  33.921  16.197  11.627
32161W        W98944  12.216   6.185   4.731
32162W        W98945  14.150  34.092   4.949
32163W        W98946   4.490  43.566  11.992
32164W        W98947   2.872   2.437   0.857
32165W        W98948  43.858  28.677   4.465
32166W        W98949   6.728  38.913   4.603
32167W        W98950  11.879  27.973  13.892
32168W        W98951   0.165  44.215   4.604
32169W        W98952  15.715  18.919   0.341
32170W        W98953  41.979  15.851   3.275
32171W        W98954  20.515   6.903  14.076
32172W        W98955  25.592  26.574  12.555
32173W        W98956  23.685  12.367  14.077
32174W        W98957  24.845  24.322  11.447
32175W        W98958   6.139   8.848  12.911
32176W        W98959  11.593  20.514   1.364
32177W        W98960  23.471  12.057   4.104
32178W        W98961  41.924  17.746   4.438
32179W        W98962   7.297   2.236  11.375
32180W        W98963  14.642  42.939  14.831
32181W        W98964  40.403  31.929   3.867
32182W        W98965  18.263  30.590  12.145
32183W        W98966  21.785  16.664  10.617
32184W        W98967   4.181  35.303   2.283
32185W        W98968  13.370  32.455  12.570
32186W        W98969   4.699  37.829   0.401
32187W        W98970   8.283   9.729   3.583
32188W        W98971   4.849  17.153  14.423
32189W        W98972  15.818  31.229   3.256
32190W        W98973  22.659  16.553  14.896
32191W        W98974  42.970  17.864   0.932
32192W        W98975  23.093   2.384   0.074
32193W        W98976  39.862   3.794  14.769
32194W        W98977  31.856  27.952  11.952
32195W        W98978  38.042   7.587  12.913
32196W        W98979  21.994  22.629   2.227
32197W        W98980  18.773  16.301  11.026
32198W        W98981   8.004  35.760   2.864
32199W        W98982  20.669  19.197  12.915
32200W        W98983  22.592   1.457   4.242
32201W        W98984  10.296  32.377  11.552
32202W        W98985  36.898   9.637  11.122
32203W        W98986  44.410  39.893   0.875
32204W        W98987  43.676  42.220   1.636
32205W        W98988  11.849  27.394   1.054
32206W        W98989  22.127  35.092   0.516
32207W        W98990  39.979   7.415   9.899
32208W        W98991   4.466   9.763  10.495
32209W        W98992  13.422   3.523  12.039
32210W        W98993  26.488  26.584  11.739
32211W        W98994  36.812  42.506   1.027
32212W        W98995  24.245  23.703   5.446
32213W        W98996  20.275   7.179  11.583
32214W        W98997  13.371   5.683   1.502
32215W        W98998   1.641  30.192   1.289
32216W        W98999  26.067  19.497  13.712
32217W        W99000  24.384  33.684  13.494
32218W        W99001  37.276   0.558   0.423
32219W        W99002  10.739  30.106  14.999
32220W        W99003   2.397   8.153   2.136
32221W        W99004  26.165  42.845   5.150
32222W        W99005   3.837  25.497   2.883
32223W        W99006  28.533  40.364  10.254
32224W        W99007  43.956  12.773   1.043
32225W        W99008  17.661  31.986  11.177
32226W        W99009  11.343  23.128   3.222
32227W        W99010   9.536  30.419   5.081
32228W        W99011  28.441  41.007  13.560
32229W        W99012  35.669   5.397   0.617
32230W        W99013  18.283   0.860   3.810
32231W        W99014  16.803   7.813  11.284
32232W        W99015  23.099  22.187  11.713
32233W        W99016  37.529  40.274   0.450
32234W        W99017  21.164  28.886   0.897
32235W        W99018   0.988  17.279  13.587
32236W        W99019   0.608  17.977  12.961
32237W        W99020  11.482  17.671   4.095
32238W        W99021  12.732  10.553   1.907
32239W        W99022  15.752  25.145   0.754
32240W        W99023  32.563  44.870  11.758
32241W        W99024   6.147  12.244  10.434
32242W        W99025  14.263  42.244   4.536
32243W        W99026  23.964  31.400   0.004
32244W        W99027  28.174  40.834   0.609
32245W        W99028  27.923  25.484   4.745
32246W        W99029  40.067  40.120  12.035
32247W        W99030   3.841  22.747   0.901
32248W        W99031   3.880  43.795  14.539
32249W        W99032  27.752  34.393  13.495
32250W        W99033  35.891  30.283   0.320
32251W        W99034  31.259  20.008  12.088
32252W        W99035  39.372  35.541   1.664
32253W        W99036  36.021   6.663   0.325
32254W        W99037  11.802  16.344   4.236
32255W        W99038  40.754  21.972   2.696
32256W        W99039  38.480  10.075   3.605
32257W        W99040  32.507  34.523  11.478
32258W        W99041  32.675   0.017   2.722
32259W        W99042  39.868  42.020   0.244
32260W        W99043  20.203  11.017   3.385
32261W        W99044  10.131  23.668  12.570
32262W        W99045  19.219   6.528  11.663
32263W        W99046  13.143   3.823  13.918
32264W        W99047  11.486  11.295   5.036
32265W        W99048  43.927  29.169   4.643
32266W        W99049   8.225  35.587  11.167
32267W        W99050  10.006   6.291  13.990
32268W        W99051  26.940  43.302  12.032
32269W        W99052   3.395  23.478  11.618
32270W        W99053   5.823  31.166  11.121
32271W        W99054  24.217  15.945   4.135
32272W        W99055   7.534   7.505  14.430
32273W        W99056   6.120   1.789   3.818
32274W        W99057  11.672  44.551   3.163
32275W        W99058  35.375  31.600  12.677
32276W        W99059   2.997   4.657  14.000
32277W        W99060  17.710  26.155  11.062
32278W        W99061   6.008  35.707  12.821
32279W        W99062  36.825  36.085   4.213
32280W        W99063  32.182   6.943  12.088
32281W        W99064   8.392  19.489   2.242
32282W        W99065   8.696  32.463   4.544
32283W        W99066  36.875  10.577   0.289
32284W        W99067   1.725   5.858   2.764
32285W        W99068  12.947   4.322   2.436
32286W        W99069   8.794  43.031  14.887
32287W        W99070  34.411  20.090  14.257
32288W        W99071  19.639  19.966  12.671
32289W        W99072  30.946  43.295   0.317
32290W        W99073  41.673  35.002   0.741
32291W        W99074  28.086  27.476  13.874
32292W        W99075  37.135  20.126  13.465
32293W        W99076  11.149  25.983  13.270
32294W        W99077  17.767  35.348   3.117
32295W        W99078   7.052  39.922  12.717
32296W        W99079  32.685  35.578  11.408
32297W        W99080  37.478   0.676   4.690
32298W        W99081  16.214  14.442   3.264
32299W        W99082  35.810  21.742  11.932
32300W        W99083  25.797  36.314  13.961
32301W        W99084   1.213   8.177  11.126
32302W        W99085  13.552  11.789  10.636
32303W        W99086  11.234   5.298  14.237
32304W        W99087  40.024  10.591  13.164
32305W        W99088  17.599  41.949   0.811
32306W        W99089  31.221  14.246   4.614
32307W        W99090  30.586  22.822   3.357
32308W        W99091  35.723  10.447   0.857
32309W        W99092  13.531  32.009  13.492
32310W        W99093  15.717  13.106  12.565
32311W        W99094  26.895  43.497  11.092
32312W        W99095  33.677  39.477  14.468
32313W        W99096   3.916  19.206   2.268
32314W        W99097  33.660  23.516  13.958
32315W        W99098  29.674  17.074  14.270
32316W        W99099  26.800  28.144  11.106
32317W        W99100  26.658  21.284   3.608
32318W        W99101  41.433  18.350   3.208
32319W        W99102  20.349  12.152  10.716
32320W        W99103  24.646  38.550  13.425
32321W        W99104  34.673  35.315   1.737
32322W        W99105  12.199  15.080  14.319
32323W        W99106  37.434  42.301  10.541
32324W        W99107  37.916  29.606  13.434
32325W        W99108  19.228   0.325   0.129
32326W        W99109  39.718  12.596  12.088
32327W        W99110  26.178  44.890  11.092
32328W        W99111  12.779   0.038   4.281
32329W        W99112   2.373  38.277   3.690
32330W        W99113  38.001  41.553  12.464
32331W        W99114  10.358  18.567  14.428
32332W        W99115  38.975  40.809   3.116
32333W        W99116  30.172  16.631  10.550
32334W        W99117  17.687   1.448  12.618
32335W        W99118  21.240  40.541  12.334
32336W        W99119  41.026  22.223   3.063
32337W        W99120  44.400  43.102   1.167
32338W        W99121   8.769   9.194  12.801
32339W        W99122  24.203   4.931  11.487
32340W        W99123  40.745  21.083  12.509
32341W        W99124  43.353  36.084   0.385
32342W        W99125  24.295  38.092  11.704
32343W        W99126  27.528  34.935   2.693
32344W        W99127  27.196  22.289  11.485
32345W        W99128  43.328   6.302   0.203
32346W        W99129  39.074   5.188  11.954
32347W        W99130  37.480  14.311   4.152
32348W        W99131  44.995   7.205   3.193
32349W        W99132   7.495  33.887   1.692
32350W        W99133  29.518  39.415  14.784
32351W        W99134  43.964  13.654  13.591
32352W        W99135  37.372   8.454  10.991
32353W        W99136   0.965  24.048   3.716
32354W        W99137  27.664  35.961  11.129
32355W        W99138  39.661  38.323   4.078
32356W        W99139  42.365  40.881  13.658
32357W        W99140   9.654   5.814   4.486
32358W        W99141  19.991  34.995  14.930
32359W        W99142  31.992  36.751   4.155
32360W        W99143  39.160  11.243  12.425
32361W        W99144  37.327  31.609  14.455
32362W        W99145   5.136   2.950   1.264
32363W        W99146  36.375  41.930   3.822
32364W        W99147  39.674   4.231   1.868
32365W        W99148  43.935  34.857   1.411
32366W        W99149  18.710  28.021   0.506
32367W        W99150   5.283   8.240  13.323
32368W        W99151   5.554  12.821  14.726
32369W        W99152  15.155   5.654  14.937
32370W        W99153   0.276  27.539   0.151
32371W        W99154  17.849  26.981  12.817
32372W        W99155   9.603  31.142  13.168
32373W        W99156  20.754  40.524   2.895
32374W        W99157   2.476   9.836   1.695
32375W        W99158  44.784  28.989  12.592
32376W        W99159  18.028  29.326   4.192
32377W        W99160  24.618  34.981   0.454
32378W        W99161   5.678  31.217  13.293
32379W        W99162   3.951   9.367  13.021
32380W        W99163  40.014  23.055  14.136
32381W        W99164   9.198   9.241  10.790
32382W        W99165  39.125  37.931  10.910
32383W        W99166  18.737  42.759  13.295
32384W        W99167  17.618   1.840  10.912
32385W        W99168   2.154  42.166   0.148
32386W        W99169  40.604  36.799  11.516
32387W        W99170  37.001  43.843   2.181
32388W        W99171  17.642  16.408  11.545
32389W        W99172   8.249  42.518   1.064
32390W        W99173   8.071  37.410   3.078
32391W        W99174  34.859  25.994   0.764
32392W        W99175  36.980  24.008  12.850
32393W        W99176   3.484   0.485  12.851
32394W        W99177  35.078   8.624  13.520
32395W        W99178  30.228  17.579  11.458
32396W        W99179   1.067  17.635   2.294
32397W        W99180   6.699  39.704  14.594
32398W        W99181  34.665  28.156   1.748
32399W        W99182  22.532  43.758   0.386
32400W        W99183  28.971  13.186  14.829
32401W        W99184  18.593  42.540   3.473
32402W        W99185   6.453  22.071   4.839
32403W        W99186  43.059  11.145  11.521
32404W        W99187  41.068  23.423  12.594
32405W        W99188  13.438  42.548   3.046
32406W        W99189   9.383  28.330   4.109
32407W        W99190  21.080  13.083   0.874
32408W        W99191   6.303  17.084   1.703
32409W        W99192  12.257   6.794  12.552
32410W        W99193  40.264   5.189  13.295
32411W        W99194  26.482  33.139   1.522
32412W        W99195  43.508  31.368  12.502
32413W        W99196  36.958   5.765   4.631
32414W        W99197  18.760  15.286  13.597
32415W        W99198   1.802  33.839  14.231
32416W        W99199  17.220  43.519  10.721
32417W        W99200  32.940   7.884  14.821
32418W        W99201  42.990  43.327   2.321
32419W        W99202   7.670  21.328  12.083
32420W        W99203  40.856  25.213   3.755
32421W        W99204   4.620  29.956   1.557
32422W        W99205  18.191  18.482   2.708
32423W        W99206  26.966   7.223  12.826
32424W        W99207  36.198   2.442   0.785
32425W        W99208  12.195  35.007  11.568
32426W        W99209   4.824   5.140  12.994
32427W        W99210  21.699  15.305  14.712
32428W        W99211  36.425  22.707   2.697
32429W        W99212  13.328  35.969   0.665
32430W        W99213  12.683  36.790   5.462
32431W        W99214  10.674   6.240  12.054
32432W        W99215  18.802   2.740  12.337
32433W        W99216  24.921  12.169   4.048
32434W        W99217  43.710  42.867   0.307
32435W        W99218   6.869  30.487   2.110
32436W        W99219  14.817  35.988  12.172
32437W        W99220  38.854  30.507   0.803
32438W        W99221  22.471  20.045  13.150
32439W        W99222   5.478  22.739   0.852
32440W        W99223  13.598  44.845  12.627
32441W        W99224  23.425  27.174  12.573
32442W        W99225  39.815   4.013   3.178
32443W        W99226   5.670  23.761   3.889
32444W        W99227  19.566  30.561  10.411
32445W        W99228  28.030  14.690   1.193
32446W        W99229  35.088  16.264  13.841
32447W        W99230  33.516   9.000  11.123
32448W        W99231   6.841  24.069   2.243
32449W        W99232  11.675  10.442  14.383
32450W        W99233   8.647  19.072  10.540
32451W        W99234  27.461  14.357  14.840
32452W        W99235  15.871  21.563   2.806
32453W        W99236  14.840  32.388   2.835
32454W        W99237  30.383  35.404   1.003
32455W        W99238  33.545  34.077  11.292
32456W        W99239   6.134   9.343   4.079
32457W        W99240  12.788  30.630   3.768
32458W        W99241   9.393  15.114   0.510
32459W        W99242  23.111  32.333  13.420
32460W        W99243  11.811  40.082   0.859
32461W        W99244   5.290  16.703   3.819
32462W        W99245  12.009   5.721   4.944
32463W        W99246   5.513   0.875   0.454
32464W        W99247   5.400   1.306   1.847
32465W        W99248   4.195  18.162   3.700
32466W        W99249  26.699  20.285  14.562
32467W        W99250  43.856   6.668  12.353
32468W        W99251  28.626   0.579   1.727
32469W        W99252  41.038  36.361   2.668
32470W        W99253  23.811  25.508  14.825
32471W        W99254  27.068   0.781   1.115
32472W        W99255  19.770  43.854   4.554
32473W        W99256   5.022  32.534   1.848
32474W        W99257  21.105   4.744   0.620
32475W        W99258  20.414  27.486   1.321
32476W        W99259   2.286  32.399  10.589
32477W        W99260  22.114  10.714   0.392
32478W        W99261  36.231  13.802  11.095
32479W        W99262  18.598  38.839   0.291
32480W        W99263  14.355   1.731   0.073
32481W        W99264   2.351  26.973   1.976
32482W        W99265  11.685  39.456  11.661
32483W        W99266  11.316  25.974   0.422
32484W        W99267  25.929  32.664  13.414
32485W        W99268  33.857  43.296  12.822
32486W        W99269  28.865  27.938  14.046
32487W        W99270  15.105  15.122  13.336
32488W        W99271   2.889  28.205  13.504
32489W        W99272  28.994  42.612   1.804
32490W        W99273  28.476  11.276  13.108
32491W        W99274  23.987  25.659  11.656
32492W        W99275  27.905  11.787   3.152
32493W        W99276  30.918  43.582  13.452
32494W        W99277  19.113  39.539  14.092
32495W        W99278  43.006  29.035  14.720
32496W        W99279  41.419  17.180  13.910
32497W        W99280  27.930   7.716  12.475
32498W        W99281  32.645   2.576  11.147
32499W        W99282   2.489  30.803   3.919
32500W        W99283  12.088   5.384  11.240
32501W        W99284   6.834   8.816  10.650
32502W        W99285  42.717  17.583   2.803
32503W        W99286   9.499   0.944   1.528
32504W        W99287  36.556  43.058   1.952
32505W        W99288  20.451  36.473   0.048
32506W        W99289  36.147  39.502  12.877
32507W        W99290  44.697  32.000   4.507
32508W        W99291  42.879   1.538   3.619
32509W        W99292  38.054   8.296   0.845
32510W        W99293  21.996  12.555  11.720
32511W        W99294  35.574   7.278  13.349
32512W        W99295  21.509   2.458  12.508
32513W        W99296  12.282  26.046  12.513
32514W        W99297  20.165   6.728  10.721
32515W        W99298  41.394  38.859   4.623
32516W        W99299  43.556  11.901   0.235
32517W        W99300  20.639  44.591  14.103
32518W        W99301  13.456  27.707   4.829
32519W        W99302  34.766  33.075   0.843
32520W        W99303  33.460  19.641  13.041
32521W        W99304   2.692   4.258  13.896
32522W        W99305   2.283   0.362  12.516
32523W        W99306  17.111  21.685  13.067
32524W        W99307  37.569  13.591   1.876
32525W        W99308  20.440  35.845   1.060
32526W        W99309   0.722   1.934   5.016
32527W        W99310  24.789  39.340   0.482
32528W        W99311  38.549   8.335   0.847
32529W        W99312  15.759  36.600   3.299
32530W        W99313  11.908  31.557   2.266
32531W        W99314  27.106   5.773  11.267
32532W        W99315  29.482  15.610  12.617
32533W        W99316  35.032   5.377  14.250
32534W        W99317   5.628  40.995  14.179
32535W        W99318  16.649  13.854   1.276
32536W        W99319  38.409   7.808  10.668
32537W        W99320  39.356   5.802   4.104
32538W        W99321  35.967   3.415  14.327
32539W        W99322  36.633  33.739  14.972
32540W        W99323   9.534   9.826  11.426
32541W        W99324  34.212  18.119  11.614
32542W        W99325   1.096  24.010  12.044
32543W        W99326  37.880  35.872   3.712
32544W        W99327  27.922  43.583  14.349
32545W        W99328  20.657  27.481   3.874
32546W        W99329  18.360  28.274   1.197
32547W        W99330  12.629  17.349  13.052
32548W        W99331  41.831   3.683  12.108
32549W        W99332  41.792  41.373   1.353
32550W        W99333  19.132  20.197  13.359
32551W        W99334  25.606  15.665   4.251
32552W        W99335  15.122  32.667   2.162
32553W        W99336  33.548  36.647   3.870
32554W        W99337  35.158  35.450   4.346
32555W        W99338  34.402  27.258   3.254
32556W        W99339   1.254   2.070   2.703
32557W        W99340  43.920  29.098   0.734
32558W        W99341  23.339  22.214  13.995
32559W        W99342  12.646  17.264  10.567
32560W        W99343  22.093  27.386   2.258
32561W        W99344  40.054  15.687  14.934
32562W        W99345  22.656  10.371   4.088
32563W        W99346   5.729  15.692   2.158
32564W        W99347  25.073  32.677  12.930
32565W        W99348  24.973   9.696   4.067
32566W        W99349  13.230   6.313   2.269
32567W        W99350  21.708  27.952   3.522
32568W        W99351  21.575  17.559   2.905
32569W        W99352  32.153  28.239  14.267
32570W        W99353  26.575  37.775   1.233
32571W        W99354  16.812  15.344   0.371
32572W        W99355   3.451  32.031   1.720
32573W        W99356  37.357  24.143   1.932
32574W        W99357  31.454  15.609   3.006
32575W        W99358   1.960  35.843   4.318
32576W        W99359  17.271  15.863   1.341
32577W        W99360   1.305  11.125  12.639
32578W        W99361  11.937  10.712   2.773
32579W        W99362  16.875  42.483  13.106
32580W        W99363  13.433  43.939   1.024
32581W        W99364  18.057   6.786   3.264
32582W        W99365  16.745  41.004  14.520
32583W        W99366  42.488  16.772  14.670
32584W        W99367  20.240  12.491   0.568
32585W        W99368  21.515  36.544   1.337
32586W        W99369  35.076   1.573  10.485
32587W        W99370  22.788   7.071  13.400
32588W        W99371  43.720  21.434   2.755
32589W        W99372  11.434  40.088   4.159
32590W        W99373  25.897  30.222   3.224
32591W        W99374  15.496  22.657  11.724
32592W        W99375  12.275   9.132   0.927
32593W        W99376  41.127  39.345  11.184
32594W        W99377  40.176  15.092   1.374
32595W        W99378   7.403   5.890   0.901
32596W        W99379  39.433  43.357   3.970
32597W        W99380  32.007  17.222   2.665
32598W        W99381   1.163  16.346  13.183
32599W        W99382  13.276   7.569   4.636
32600W        W99383  17.090  12.222  13.359
32601W        W99384  24.685  36.557  10.634
32602W        W99385  40.530  12.443  13.827
32603W        W99386   2.266   0.995  11.073
32604W        W99387  27.692  33.429  14.970
32605W        W99388   6.516  11.763  12.988
32606W        W99389  44.026  22.268   3.614
32607W        W99390  30.341  37.854   0.787
32608W        W99391  34.641  29.559   0.049
32609W        W99392  14.228   7.361   2.691
32610W        W99393  23.452  39.647  12.857
32611W        W99394  20.175   8.178  13.742
32612W        W99395   3.969  32.506   3.801
32613W        W99396   4.858  29.975  13.896
32614W        W99397  15.124  26.791  14.369
32615W        W99398   1.369   4.374  13.391
32616W        W99399  25.582  24.755  14.380
32617W        W99400   9.922  26.250   0.961
32618W        W99401  42.362  22.792  13.848
32619W        W99402  13.859  31.609  12.497
32620W        W99403  25.801  34.103  14.886
32621W        W99404  25.044  32.442  11.372
32622W        W99405   7.804  29.517  12.751
32623W        W99406  40.323   3.239   9.591
32624W        W99407   7.957  37.375  13.163
32625W        W99408  14.203  36.687   3.998
32626W        W99409  42.567  23.668   0.320
32627W        W99410  37.954  30.899   3.694
32628W        W99411  42.878  31.810   4.126
32629W        W99412  11.769  35.321  11.590
32630W        W99413  11.682   9.472  12.762
32631W        W99414  40.461  44.794   3.669
32632W        W99415  18.399   5.386  14.294
32633W        W99416  17.814  26.398   5.125
32634W        W99417   6.670  26.195  13.954
32635W        W99418  42.463  14.447  12.075
32636W        W99419  26.557  19.096   0.284
32637W        W99420  20.647  19.162  12.412
32638W        W99421  40.055  41.015   2.295
32639W        W99422   0.863   4.085   2.335
32640W        W99423  12.080  25.096   4.145
32641W        W99424  41.919  33.173   2.282
32642W        W99425  35.078  37.214  12.915
32643W        W99426  38.720  24.447   2.033
32644W        W99427  44.038   8.954  14.545
32645W        W99428  20.273  28.053  14.357
32646W        W99429   3.419  38.648   0.834
32647W        W99430  23.056   0.957   2.207
32648W        W99431  34.595  11.785  11.025
32649W        W99432  32.423   6.850  14.331
32650W        W99433   9.588  33.714   3.041
32651W        W99434  29.545  21.115  14.483
32652W        W99435  32.381   2.388  14.437
32653W        W99436  31.396  44.498  12.904
32654W        W99437   3.323  18.725  10.520
32655W        W99438  11.253  17.921   0.773
32656W        W99439  32.921  37.541   1.749
32657W        W99440  10.854  35.732  11.499
32658W        W99441   5.268  18.947   4.641
32659W        W99442   8.191   9.497   3.099
32660W        W99443  20.217  27.320   3.054
32661W        W99444   6.268  19.415  11.523
32662W        W99445  38.826  15.853  12.419
32663W        W99446  16.761   4.408  14.321
32664W        W99447  41.352  19.839  14.013
32665W        W99448  40.032  38.781  11.621
32666W        W99449   5.858  26.688  13.898
32667W        W99450  14.869  14.101  10.724
32668W        W99451  27.430   1.389   2.279
32669W        W99452  40.249  16.028  14.197
32670W        W99453   4.666  21.951   3.790
32671W        W99454  23.254  26.421  12.224
32672W        W99455  16.288  17.226  12.426
32673W        W99456  32.484  41.100   2.430
32674W        W99457  21.892  38.531   3.987
32675W        W99458  39.985  24.096  14.832
32676W        W99459  19.783   5.391   4.439
32677W        W99460  15.672   1.022  14.982
32678W        W99461  42.597  31.860   0.286
32679W        W99462  24.604  37.522  12.586
32680W        W99463  14.742   1.949   3.065
32681W        W99464   4.990  23.632  10.586
32682W        W99465   1.020  12.922  11.899
32683W        W99466  21.562  23.750  14.293
32684W        W99467   1.559  12.752   4.717
32685W        W99468  27.931  30.752  10.331
32686W        W99469  41.320   4.846  11.491
32687W        W99470  15.673   4.757  10.701
32688W        W99471  43.769  13.199  11.181
32689W        W99472  43.878  25.420   0.777
32690W        W99473  39.121  32.142  10.659
32691W        W99474  11.208   5.381  10.194
32692W        W99475  22.007  24.129  12.344
32693W        W99476  10.080  40.000  13.980
32694W        W99477  22.697  14.202   2.546
32695W        W99478  25.107   4.216   3.231
32696W        W99479  44.612  30.215   0.151
32697W        W99480   0.372  19.661   4.880
32698W        W99481  29.368  25.566   3.599
32699W        W99482  35.596   3.911  14.984
32700W        W99483  14.756   6.692   1.163
32701W        W99484  11.744  33.586  13.159
32702W        W99485  11.522   6.261   4.878
32703W        W99486  20.769  41.021   4.101
32704W        W99487  42.989  18.197  13.900
32705W        W99488  43.181  20.313   2.275
32706W        W99489  28.459  31.958   3.739
32707W        W99490  19.022  23.963  14.966
32708W        W99491   9.976  23.065   1.420
32709W        W99492  41.915  33.464  11.893
32710W        W99493  28.708  15.116   4.739
32711W        W99494   1.227  16.068   2.852
32712W        W99495  16.072  15.186  14.933
32713W        W99496  31.173  11.653  11.554
32714W        W99497  40.678   2.473  11.548
32715W        W99498  38.122   8.866   4.168
32716W        W99499  31.840  13.635  12.542
32717W        W99500  37.101  41.070   4.510
32718W        W99501  16.023  28.521   2.015
32719W        W99502  13.302   8.212  14.769
32720W        W99503  33.216  11.703   4.718
32721W        W99504  41.967  41.421  13.002
32722W        W99505  22.716  12.048  14.365
32723W        W99506  26.348  20.561  11.708
32724W        W99507   2.100   6.459  12.911
32725W        W99508  29.077  11.591  14.946
32726W        W99509  27.756  35.578  10.749
32727W        W99510   7.221   4.731  11.112
32728W        W99511   3.340  43.723  14.409
32729W        W99512  22.739  25.174  14.458
32730W        W99513  39.865  19.668   0.121
32731W        W99514  30.930  10.202  11.162
32732W        W99515  20.983  23.211   2.994
32733W        W99516  28.081  40.737   3.201
32734W        W99517   5.410  35.774  13.957
32735W        W99518  11.755  26.670  13.321
32736W        W99519  23.940  44.905   3.677
32737W        W99520  39.962  23.190  13.111
32738W        W99521  26.587  38.255   0.484
32739W        W99522  36.156  10.181   0.853
32740W        W99523   4.273  37.662   0.648
32741W        W99524  28.436  20.966   4.809
32742W        W99525  22.265  11.719   2.390
32743W        W99526  29.397  27.013  13.948
32744W        W99527  26.515  29.661  12.945
32745W        W99528  24.517  16.871  14.410
32746W        W99529   8.184   3.531  10.636
32747W        W99530  39.840  33.932  13.929
32748W        W99531  24.087   1.370   3.861
32749W        W99532  14.335  13.596   3.207
32750W        W99533  22.361  34.896   0.952
32751W        W99534  12.152  36.127  12.525
32752W        W99535   1.305  37.090  10.838
32753W        W99536  35.650  27.082   1.269
32754W        W99537  37.693  13.780   1.394
32755W        W99538  17.047  31.053   2.253
32756W        W99539  29.639  16.079  14.554
32757W        W99540  43.140   5.753  10.130
32758W        W99541  10.947  11.752   2.804
32759W        W99542  36.559  16.754   4.209
32760W        W99543  13.022  29.332   0.284
32761W        W99544  31.326  10.519  11.339
32762W        W99545  20.447  17.051   2.292
32763W        W99546  29.427  40.365  10.085
32764W        W99547  18.211  33.259   0.747
32765W        W99548   6.250  18.036   2.106
32766W        W99549   2.016   6.251   2.605
32767W        W99550  37.979  28.154   2.685
32768W        W99551  39.913  13.192  12.794
32769W        W99552   7.221  16.345   3.053
32770W        W99553  24.081  19.708   0.883
32771W        W99554  43.549  11.735  13.909
32772W        W99555   8.299  12.035  14.779
32773W        W99556  13.983  16.956   2.796
32774W        W99557  13.579  30.175   1.221
32775W        W99558  32.077  18.192   1.936
32776W        W99559  41.429  31.221   1.440
32777W        W99560  10.900  29.495  12.467
32778W        W99561  42.275  13.273   1.301
32779W        W99562   0.389  27.252  12.046
32780W        W99563  29.023  14.798   3.197
32781W        W99564  34.145  39.327   3.768
32782W        W99565   4.519  22.593   3.273
32783W        W99566  31.484   8.265   4.552
32784W        W99567  41.365  42.487   4.613
32785W        W99568  37.609  21.405  12.617
32786W        W99569  36.619  40.232   1.352
32787W        W99570  15.991  17.738   3.734
32788W        W99571  11.857  31.723  11.035
32789W        W99572   4.649  21.084   4.990
32790W        W99573  39.789   7.054   4.764
32791W        W99574  27.488   1.202  14.383
32792W        W99575  20.195   6.310  11.024
32793W        W99576   8.939  38.189   2.387
32794W        W99577  35.222  16.647   3.036
32795W        W99578  35.776  43.198  13.568
32796W        W99579  41.624   4.360   3.344
32797W        W99580  44.182  29.998  10.769
32798W        W99581  26.008   2.376   4.149
32799W        W99582  26.689  39.854  14.484
32800W        W99583  37.798  25.132  10.791
32801W        W99584  14.302  11.837  12.043
32802W        W99585  33.662   8.327   1.707
32803W        W99586   2.916  44.347   2.236
32804W        W99587  19.625  40.543  14.916
32805W        W99588  25.821  25.833   1.629
32806W        W99589   4.949  40.879  12.527
32807W        W99590  25.564   8.118  12.000
32808W        W99591  22.101  38.383  13.496
32809W        W99592   4.329   0.454  13.052
32810W        W99593  28.028  39.444   0.984
32811W        W99594   5.163  16.140   2.636
32812W        W99595  31.525  37.216  13.312
32813W        W99596  11.091  11.290   1.924
32814W        W99597   4.727   2.013  14.810
32815W        W99598  35.200   7.147  14.297
32816W        W99599   7.659  23.680   1.823
32817W        W99600  18.130   3.820   4.303
32818W        W99601   0.469   7.037  10.153
32819W        W99602  27.046  13.361   0.292
32820W        W99603   8.855  28.549   1.052
32821W        W99604  27.562  32.894  12.054
32822W        W99605  44.591  38.316  12.427
32823W        W99606  12.374  32.858  12.762
32824W        W99607  16.856  30.616   0.423
32825W        W99608   8.565   6.676  11.394
32826W        W99609   5.373   0.356   1.891
32827W        W99610  17.237  26.980  14.345
32828W        W99611  36.444  39.869  11.676
32829W        W99612  12.543   2.137  12.414
32830W        W99613  32.048   9.899   4.410
32831W        W99614  29.062  30.875  14.016
32832W        W99615  32.521   5.339   0.725
32833W        W99616  29.611  31.878   2.461
32834W        W99617  37.864   5.780   1.738
32835W        W99618  12.563   0.197   3.768
32836W        W99619   3.972  33.055   2.369
32837W        W99620   8.938  10.694   4.297
32838W        W99621  19.821  24.064   3.762
32839W        W99622  42.390  21.986  14.424
32840W        W99623   8.675  31.379  11.156
32841W        W99624  22.994  35.529   4.118
32842W        W99625  34.488  40.585  11.566
32843W        W99626  15.657  10.084   0.101
32844W        W99627  44.430  15.972  13.978
32845W        W99628  37.430  27.032  10.637
32846W        W99629  17.549   2.442  12.712
32847W        W99630  20.508  17.559  12.993
32848W        W99631  39.241   6.883   0.383
32849W        W99632  30.386  10.502   4.163
32850W        W99633   4.174  12.082  12.407
32851W        W99634  15.381  43.293   3.003
32852W        W99635  12.525   6.880   0.921
32853W        W99636  12.772  42.349   2.348
32854W        W99637  19.037   9.715  12.463
32855W        W99638  22.498  42.131   4.091
32856W        W99639   9.158  13.698  11.597
32857W        W99640  18.581   8.687   3.677
32858W        W99641  29.620   1.826   0.897
32859W        W99642   7.445  44.522   3.182
32860W        W99643  43.982  18.999   4.576
32861W        W99644   0.329  44.663   4.787
32862W        W99645  43.794  23.050  13.919
32863W        W99646  30.575  28.167   0.927
32864W        W99647  21.731   1.771   0.941
32865W        W99648  41.751  12.346   3.796
32866W        W99649  25.161  31.644  12.973
32867W        W99650  10.767  22.798  12.073
32868W        W99651  39.967  25.915   3.262
32869W        W99652   7.647   3.760  14.036
32870W        W99653  36.387  23.303   1.140
32871W        W99654  32.501   6.869   1.161
32872W        W99655  35.717   8.949   1.855
32873W        W99656  25.212  43.314  10.587
32874W        W99657   9.338  15.377  10.693
32875W        W99658   3.747   4.897   1.876
32876W        W99659   1.305  36.031   3.092
32877W        W99660  40.130   5.061   3.305
32878W        W99661  39.539  28.025   4.135
32879W        W99662  44.169  20.388   4.774
32880W        W99663  39.937  31.349   3.285
32881W        W99664  28.338   6.525  12.166
32882W        W99665  16.204   9.659  10.680
32883W        W99666  21.793  33.591  11.053
32884W        W99667  35.586  25.398   3.670
32885W        W99668  41.712  13.799   3.539
32886W        W99669  31.833  32.026  13.840
32887W        W99670  34.739  11.856   0.914
32888W        W99671  33.221  26.536   2.204
32889W        W99672  37.751  26.770  12.328
32890W        W99673  24.247  17.303   1.774
32891W        W99674  41.916  17.410  13.978
32892W        W99675  14.751  25.809  11.610
32893W        W99676  11.368  11.233  11.564
32894W        W99677  38.402  39.967   1.847
32895W        W99678  20.346  32.012   4.200
32896W        W99679  30.013  36.892  14.956
32897W        W99680  39.988  11.306   4.509
32898W        W99681   9.176  31.512  14.330
32899W        W99682  12.942   1.867   2.829
32900W        W99683  31.112  22.881  13.417
32901W        W99684  22.315  27.286  10.685
32902W        W99685   1.269  20.563  11.976
32903W        W99686  13.803  28.846   0.018
32904W        W99687  14.343  30.217   2.359
32905W        W99688  35.535  32.832  14.239
32906W        W99689  44.745  19.067  12.918
32907W        W99690   2.818  24.715   2.901
32908W        W99691  15.164   1.464   2.039
32909W        W99692  27.043  25.171   2.154
32910W        W99693  10.838  40.148   2.205
32911W        W99694  40.551  38.543   4.153
32912W        W99695   5.951  25.654  13.573
32913W        W99696  33.360  42.531  12.830
32914W        W99697  37.105  22.125  12.772
32915W        W99698  23.789   6.884   5.151
32916W        W99699  32.679  22.569  14.080
32917W        W99700  28.909  31.189   4.221
32918W        W99701  40.295  10.375  14.975
32919W        W99702  27.473   1.331  11.103
32920W        W99703  26.425  20.113  11.983
32921W        W99704  16.753  16.357  12.649
32922W        W99705  17.474  36.872   4.715
32923W        W99706   8.568  34.168   0.340
32924W        W99707   3.785   0.344   4.541
32925W        W99708  35.888  40.050   0.267
32926W        W99709  15.460  15.688   1.244
32927W        W99710  44.429  26.487  10.226
32928W        W99711   4.751   1.049   0.837
32929W        W99712  36.088  10.296  11.240
32930W        W99713   4.602  37.912   4.631
32931W        W99714  34.600  44.540  11.694
32932W        W99715   7.670  40.561  12.943
32933W        W99716   2.312  14.316   2.405
32934W        W99717  20.466   7.820  13.979
32935W        W99718  43.712  44.654  11.111
32936W        W99719  36.084   2.419   2.817
32937W        W99720  35.511  19.461  14.832
32938W        W99721   5.843  21.006   4.164
32939W        W99722  10.646  38.061   0.772
32940W        W99723   1.819  43.106  11.278
32941W        W99724   0.747  20.104   4.217
32942W        W99725  44.574  34.031   3.417
32943W        W99726  36.644  13.802   3.049
32944W        W99727  25.736   5.561  14.026
32945W        W99728  44.417  23.981   1.875
32946W        W99729  33.982  44.783   4.806
32947W        W99730  15.741  26.683  11.066
32948W        W99731  26.732  41.882   2.854
32949W        W99732   2.253  20.382  10.503
32950W        W99733  15.011  12.095  11.123
32951W        W99734   0.530   9.759   2.436
32952W        W99735  44.374  24.666   1.125
32953W        W99736  42.031  28.090   4.555
32954W        W99737  37.350  15.124   3.699
32955W        W99738  16.917   9.177  12.501
32956W        W99739  17.259  18.660   4.108
32957W        W99740  12.051  22.790  13.595
32958W        W99741  12.349  27.661   0.326
32959W        W99742  25.498  12.409   0.172
32960W        W99743  44.824   8.127  12.370
32961W        W99744   0.784  35.389  10.724
32962W        W99745  13.719   3.317  14.348
32963W        W99746  14.569  42.064  14.559
32964W        W99747   0.320   8.558   0.093
32965W        W99748   5.961   9.897  12.370
32966W        W99749  27.543   5.812  12.137
32967W        W99750  11.833  24.541   4.728
32968W        W99751  37.171  27.987   3.127
32969W        W99752  32.927  39.112  11.143
32970W        W99753  41.396  11.327  12.820
32971W        W99754  27.415  11.194  12.513
32972W        W99755  14.249   5.577  10.452
32973W        W99756  36.844   8.405  10.683
32974W        W99757  14.679   5.285  10.555
32975W        W99758   8.515  12.732  13.653
32976W        W99759   8.328  33.727   0.492
32977W        W99760  29.494   4.460   1.920
32978W        W99761  24.880  15.163  11.181
32979W        W99762  14.684  35.821  14.995
32980W        W99763  17.226   1.470   0.312
32981W        W99764  43.306  39.542   1.966
32982W        W99765  39.040  44.333   5.157
32983W        W99766  39.084  24.292  14.043
32984W        W99767   7.338  30.713   2.325
32985W        W99768   6.152  27.989  10.865
32986W        W99769   4.107   6.243  13.988
32987W        W99770  40.673  33.068  12.533
32988W        W99771  23.507   4.646   3.347
32989W        W99772  36.118   0.242  13.472
32990W        W99773  43.796  32.438  10.947
32991W        W99774   5.928   1.260   1.856
32992W        W99775   2.344   1.445  14.922
32993W        W99776   1.014  17.767  14.780
32994W        W99777   8.281  30.069   2.696
32995W        W99778   5.911  16.210   3.501
32996W        W99779  34.073  43.616  11.465
32997W        W99780   5.208   7.868  14.304
32998W        W99781  41.459  43.137   4.974
32999W        W99782  10.710  11.694   5.060
33000W        W99783  20.693  18.275  11.775
33001W        W99784  20.493  40.043   3.902
33002W        W99785  25.989  14.630  14.373
33003W        W99786  31.336  17.170   2.323
33004W        W99787  25.426  38.590   1.538
33005W        W99788  23.823  22.274   2.333
33006W        W99789  36.602  27.612  11.571
33007W        W99790  40.780   7.172  14.925
33008W        W99791  38.878  29.486   2.893
33009W        W99792  29.659  36.008  14.589
33010W        W99793   9.255  16.293  13.429
33011W        W99794  11.896  39.552  12.135
33012W        W99795  23.967   7.683  12.630
33013W        W99796  33.616  32.470  10.499
33014W        W99797  20.583   3.175   3.169
33015W        W99798  19.443  21.631  10.784
33016W        W99799  23.166  30.589   4.238
33017W        W99800   3.872  28.668   3.160
33018W        W99801  18.743  21.290   4.301
33019W        W99802  12.163  38.426  14.452
33020W        W99803  17.730  35.096  13.978
33021W        W99804  28.715  32.193   4.121
33022W        W99805  40.298  40.563   2.266
33023W        W99806  40.801  28.918   2.699
33024W        W99807  16.686   6.524  11.019
33025W        W99808  23.288  32.587  13.005
33026W        W99809  11.262  17.331   1.748
33027W        W99810  12.365  33.140  14.672
33028W        W99811   1.156   4.224   0.752
33029W        W99812  40.981  20.658   0.151
33030W        W99813  29.545  28.692  12.448
33031W        W99814  41.735  13.886   1.795
33032W        W99815   0.858  31.519   4.837
33033W        W99816   3.946   0.773  12.858
33034W        W99817   0.467  32.929  11.188
33035W        W99818   8.138  26.210  11.869
33036W        W99819  10.216  43.731  13.913
33037W        W99820   0.456  31.028   4.583
33038W        W99821  38.971   7.006   2.397
33039W        W99822  30.821  30.174   0.760
33040W        W99823   2.804   9.693   1.335
33041W        W99824  42.991  25.056  12.954
33042W        W99825   1.920  33.777   3.636
33043W        W99826  24.983  14.310   3.740
33044W        W99827  44.990   3.266  12.812
33045W        W99828   4.611   0.965   1.713
33046W        W99829  44.861   6.638   4.271
33047W        W99830  16.888   0.526   0.344
33048W        W99831  43.776  25.709   3.136
33049W        W99832  27.166  26.077  10.320
33050W        W99833  30.547  33.067   4.081
33051W        W99834  15.040   3.279   3.356
33052W        W99835  31.119  11.712  12.611
33053W        W99836  44.486   9.471   3.195
33054W        W99837  23.728  23.177  12.402
33055W        W99838   6.253  15.211  12.026
33056W        W99839  19.630  36.885   2.623
33057W        W99840  30.822  21.038   1.705
33058W        W99841  12.786   0.146   0.830
33059W        W99842  16.268  40.790   3.788
33060W        W99843  12.646  27.850  11.931
33061W        W99844  41.440  20.026  14.536
33062W        W99845  31.324   9.881   0.444
33063W        W99846   8.486   5.865  12.508
33064W        W99847  38.288  41.289   2.908
33065W        W99848  36.716   5.093  13.358
33066W        W99849  44.240  18.348   1.394
33067W        W99850   9.250  35.314  14.761
33068W        W99851  19.851  27.023  13.472
33069W        W99852  36.411  17.855  10.623
33070W        W99853  42.857  40.563   5.068
33071W        W99854  35.041  34.823  13.986
33072W        W99855  19.823   8.453   0.869
33073W        W99856   1.024  14.672   4.058
33074W        W99857  10.869  38.431   4.232
33075W        W99858   6.194  23.176  13.777
33076W        W99859  35.850  16.227  12.552
33077W        W99860   1.519  20.474  14.509
33078W        W99861   7.817  19.166  14.640
33079W        W99862  35.917  17.815   1.998
33080W        W99863   8.850  13.188   1.074
33081W        W99864  26.741  40.788  12.084
33082W        W99865  15.273  17.249   3.847
33083W        W99866  11.666   0.176  14.280
33084W        W99867  26.643  22.958   4.181
33085W        W99868   9.329  16.523   2.637
33086W        W99869  13.535  38.358  13.551
33087W        W99870  14.390  20.789  14.660
33088W        W99871  26.556  20.105   0.386
33089W        W99872  14.601  17.825   5.090
33090W        W99873  32.460   3.823  13.501
33091W        W99874   0.881  12.682  10.564
33092W        W99875  42.729  44.345   0.751
33093W        W99876  17.627   8.289   3.346
33094W        W99877  38.312  22.469   1.937
33095W        W99878  37.147  17.151   4.111
33096W        W99879  27.518  30.418   0.385
33097W        W99880  31.958  44.128  13.372
33098W        W99881  41.912  41.433   5.013
33099W        W99882  42.584  34.766  11.431
33100W        W99883  38.168  28.108   1.617
33101W        W99884  27.617  38.425  10.773
33102W        W99885  31.073  33.324  11.612
33103W        W99886   7.432  31.037   4.483
33104W        W99887  11.321   4.459   2.170
33105W        W99888   5.555  44.348  10.012
33106W        W99889  17.770   0.912  12.593
33107W        W99890  35.176  36.340  13.958
33108W        W99891  43.940   0.430  12.879
33109W        W99892  29.360   6.389  11.108
33110W        W99893  32.082   7.749   2.295
33111W        W99894  12.561  23.435  12.111
33112W        W99895  28.170  43.194   1.736
33113W        W99896  10.969  31.391   2.274
33114W        W99897  14.072  31.420  13.885
33115W        W99898   9.261   2.851  10.686
33116W        W99899  34.614  23.031  10.971
33117W        W99900  37.205   3.735   0.692
33118W        W99901   3.358  10.987  11.341
33119W        W99902  34.989  17.944   0.824
33120W        W99903  25.846  13.803   4.293
33121W        W99904  37.102  30.136   3.586
33122W        W99905   7.461  18.730  11.243
33123W        W99906   8.625  24.019   4.615
33124W        W99907   6.428  26.663  13.897
33125W        W99908  32.413   1.110  13.860
33126W        W99909  16.792  29.046  10.456
33127W        W99910  14.048  31.498  14.992
33128W        W99911  39.406  33.678  14.059
33129W        W99912   4.652   5.014   2.111
33130W        W99913  26.518  26.112  11.992
33131W        W99914   3.395  35.444  14.827
33132W        W99915  34.167  32.505  10.489
33133W        W99916  34.907  32.352  13.793
33134W        W99917  27.388  42.414   0.015
33135W        W99918  20.111  28.046   4.410
33136W        W99919  27.070  40.184  14.295
33137W        W99920  31.616  26.960   3.771
33138W        W99921  24.039   7.702   5.250
33139W        W99922  10.281   5.521   0.119
33140W        W99923   2.807  28.065  10.582
33141W        W99924  44.905   1.296  13.138
33142W        W99925   7.103  40.611   1.156
33143W        W99926  36.627   6.502  10.857
33144W        W99927  12.390   4.210  14.274
33145W        W99928  32.614   4.981   0.295
33146W        W99929  43.069  19.735  11.694
33147W        W99930  12.809   1.469   3.184
33148W        W99931  33.020  13.997   0.743
33149W        W99932  30.568  34.279  10.636
33150W        W99933  42.523   1.549  11.679
33151W        W99934  31.477   3.929  13.418
33152W        W99935  18.160   1.119  11.794
33153W        W99936  35.945  42.901  13.972
33154W        W99937  37.940  20.242   1.826
33155W        W99938  39.583  36.427   4.138
33156W        W99939  17.074  12.302  12.022
33157W        W99940   5.913   6.607   4.562
33158W        W99941  15.294  16.050  12.392
33159W        W99942  17.326  22.046   0.756
33160W        W99943  26.685  39.791  11.284
33161W        W99944  44.937  38.626   0.127
33162W        W99945  17.123  31.490   1.968
33163W        W99946   1.040  41.800  13.153
33164W        W99947  18.136  32.857  10.879
33165W        W99948   5.352  25.364  14.982
33166W        W99949  39.853   1.505  14.452
33167W        W99950  22.554  36.889  11.335
33168W        W99951  30.893  18.102  11.123
33169W        W99952   1.508  30.889   4.671
33170W        W99953  29.899  42.265   4.629
33171W        W99954  41.252   6.413   4.040
33172W        W99955  33.609  34.453  12.848
33173W        W99956  14.423  37.068  14.801
33174W        W99957  10.150  15.888   3.174
33175W        W99958   4.304  43.093   2.493
33176W        W99959   1.244  17.030  13.978
33177W        W99960  33.185  14.793  10.498
33178W        W99961   2.277  24.891  13.878
33179W        W99962  20.489  33.666   0.683
33180W        W99963  23.961  10.519  12.540
33181W        W99964   1.535  32.928   4.674
33182W        W99965   0.230   2.346  14.335
33183W        W99966   2.775  20.618   2.388
33184W        W99967   8.139   7.727   4.997
33185W        W99968  34.604  16.328   2.194
33186W        W99969  38.527  32.887   0.514
33187W        W99970  24.956  35.943   4.648
33188W        W99971  35.173  41.751  11.678
33189W        W99972   3.217   6.157   0.236
33190W        W99973   8.696  39.120  12.467
33191W        W99974  11.207   3.570  14.587
33192W        W99975  10.628  31.992  14.507
33193W        W99976  32.696  17.554   3.214
33194W        W99977   4.229  17.801   3.065
33195W        W99978  20.391   5.753  12.584
33196W        W99979  18.793  19.048  13.796
33197W        W99980  18.731  16.031   4.579
33198W        W99981  13.820  14.385  11.692
33199W        W99982  12.275   9.900   0.218
33200W        W99983  38.417  36.182   2.674
33201W        W99984  41.949  24.003  12.674
33202W        W99985  27.893  10.919   4.623
33203W        W99986  17.553  44.010   3.659
33204W        W99987  37.179   3.241   0.863
33205W        W99988   5.374  43.833  12.055
33206W        W99989   0.040  29.401  12.345
33207W        W99990   7.660  42.284  13.078
33208W        W99991  33.360  23.363  11.148
33209W        W99992  25.990  20.865  12.543
33210W        W99993  10.232   1.430   4.651
33211W        W99994  24.682  43.294  10.687
33212W        W99995   5.141  27.085  11.597
33213W        W99996  36.301  28.454   3.305
33214W        W99997   7.044  37.339  12.955
33215W        W99998   9.319   0.738   0.381
33216W        W99999  39.414  31.634  14.949
33217W        W    0  19.575  23.873   1.354
33218W        W    1  38.794   6.058  11.932
33219W        W    2  42.354  18.170   1.368
33220W        W    3  33.309  11.833   0.822
33221W        W    4  43.377  14.762  10.063
33222W        W    5  35.724  21.788   4.126
33223W        W    6  30.326  41.971  12.078
33224W        W    7  31.913  21.077   0.842
33225W        W    8  37.566   3.332   0.529
33226W        W    9   0.490   5.765  13.900
33227W        W   10  20.680  22.732  14.246
33228W        W   11   7.325  28.248   4.691
33229W        W   12  32.601  15.248   1.964
33230W        W   13  35.186  22.329  12.397
33231W        W   14  13.780  13.136   0.366
33232W        W   15  11.091  11.299   3.639
33233W        W   16  33.511  39.995  11.164
33234W        W   17   2.645  33.852  11.156
33235W        W   18  30.109  29.101   2.706
33236W        W   19  30.636   2.852   3.561
33237W        W   20  19.876   2.248   4.789
33238W        W   21  15.023  36.032   4.142
33239W        W   22   7.347  39.092  10.256
33240W        W   23  39.933  35.725  11.947
33241W        W   24  21.679  33.424  13.174
33242W        W   25   8.298  35.281  14.171
33243W        W   26  11.958   8.404  14.398
33244W        W   27  14.600   7.654   1.634
33245W        W   28  39.449   2.251   4.146
33246W        W   29  14.103   4.570   4.843
33247W        W   30  43.501   9.900   1.733
33248W        W   31   0.909  33.480   0.725
33249W        W   32   3.502   1.779   2.879
33250W        W   33   5.197  23.788   4.659
33251W        W   34  23.300  11.327  10.644
33252W        W   35  24.120   6.798   1.258
33253W        W   36  39.722  24.229  13.519
33254W        W   37   5.627  10.741  14.566
33255W        W   38  35.453   2.430  13.002
33256W        W   39  31.551  12.476  13.267
33257W        W   40   7.304  26.067  12.836
33258W        W   41  43.107   0.954   4.218
33259W        W   42  24.849   3.134  12.524
33260W        W   43   3.271  36.559  14.365
33261W        W   44  29.822   8.483  13.328
33262W        W   45  28.875   8.640  12.546
33263W        W   46  37.408   5.723  13.033
33264W        W   47  37.456  34.365   3.863
33265W        W   48   7.202   5.278   2.271
33266W        W   49  11.303   6.122   2.808
33267W        W   50  32.888   9.732   4.683
33268W        W   51  19.579  33.973   3.310
33269W        W   52  13.245  13.257   3.090
33270W        W   53  11.641  23.249   1.536
33271W        W   54  38.717  17.169   3.137
33272W        W   55   2.295  15.495  13.890
33273W        W   56   7.392  19.505   2.308
33274W        W   57  24.809  37.597   2.822
33275W        W   58  31.856  31.654   1.772
33276W        W   59   4.470  24.715   0.266
33277W        W   60  29.128  22.453   0.761
33278W        W   61  20.217  44.797  12.456
33279W        W   62  12.249  36.978   3.617
33280W        W   63  43.795  44.384  14.662
33281W        W   64  39.106  33.611   3.212
33282W        W   65  44.794  25.634  12.732
33283W        W   66  17.125  15.164  14.780
33284W        W   67   3.788  12.406   0.444
33285W        W   68  36.816  15.322  12.125
33286W        W   69  17.340   5.238   2.749
33287W        W   70  13.572  40.078  12.943
33288W        W   71  19.679  25.097  12.346
33289W        W   72   0.433  43.157   4.948
33290W        W   73  19.307   9.746   1.238
33291W        W   74   5.884  41.433  13.965
33292W        W   75  33.065  16.587   1.119
33293W        W   76  11.926   3.437   0.915
33294W        W   77   2.385  35.950  14.379
33295W        W   78  42.628  15.323  14.440
33296W        W   79  16.898  15.930   9.853
33297W        W   80  39.545   5.725   0.008
33298W        W   81  16.715  19.083  11.609
33299W        W   82  10.406  24.870  11.107
33300W        W   83  14.055  29.880  12.159
33301W        W   84  17.365  10.652   4.624
33302W        W   85  27.963  32.080  12.171
33303W        W   86  27.153  10.365   3.833
33304W        W   87  35.495  17.067  10.915
33305W        W   88  37.485  43.850   2.823
33306W        W   89  21.118  41.836  11.990
33307W        W   90  18.179  42.347   4.149
33308W        W   91   9.126  22.922   0.441
33309W        W   92  43.915  31.548   1.388
33310W        W   93  24.296   0.870   2.695
33311W        W   94  44.853  18.548  12.990
33312W        W   95  36.947  12.682   4.727
33313W        W   96  31.923  38.266  14.007
33314W        W   97  22.458  20.129   3.621
33315W        W   98  27.115  33.623  12.631
33316W        W   99  30.843  13.198  14.199
33317W        W  100  10.729   3.550   3.971
33318W        W  101  41.047   5.647  12.504
33319W        W  102  29.920  19.287   1.448
33320W        W  103   5.880  34.556   1.611
33321W        W  104  21.342  16.802   4.689
33322W        W  105  10.272  42.851   0.678
33323W        W  106   6.399  40.018  11.159
33324W        W  107  29.343  34.628  12.932
33325W        W  108   6.187  37.078  12.174
33326W        W  109   3.965  31.981   0.814
33327W        W  110  14.365   9.292   4.523
33328W        W  111  30.499  30.047   3.163
33329W        W  112  13.628  25.080  10.696
33330W        W  113  28.158  18.065  13.927
33331W        W  114  36.174   2.486  13.792
33332W        W  115  30.384  43.760  13.522
33333W        W  116  15.843   0.810  14.545
33334W        W  117  36.525  37.085  10.764
33335W        W  118  30.735   2.893  12.441
33336W        W  119  15.095   8.789  10.899
33337W        W  120  27.803   4.846   5.151
33338W        W  121  41.480  24.856  14.435
33339W        W  122  31.598  14.253  13.496
33340W        W  123  32.182  12.620   0.235
33341W        W  124  11.129  31.158  12.983
33342W        W  125  12.586   4.326   4.596
33343W        W  126   9.278  24.967  12.863
33344W        W  127  21.223   4.326   3.129
33345W        W  128  22.131  42.429   0.649
33346W        W  129  11.327  10.247   2.208
33347W        W  130  18.514  12.355  10.232
33348W        W  131   5.507  32.461   0.311
33349W        W  132   6.810  31.230   1.342
33350W        W  133  27.598  20.301   2.384
33351W        W  134  29.536  29.440   4.117
33352W        W  135   3.432  23.632   0.827
33353W        W  136   4.432  28.458  14.693
33354W        W  137  15.135   2.344   2.163
33355W        W  138   0.217  17.560  13.490
33356W        W  139  21.707  20.677   1.434
33357W        W  140  25.242  37.278   2.866
33358W        W  141  21.193  43.556   0.805
33359W        W  142  36.990  11.129  10.895
33360W        W  143  23.804  10.093  12.818
33361W        W  144   7.389  15.247  12.813
33362W        W  145  23.576   7.720   2.429
33363W        W  146  28.516  39.922  13.504
33364W        W  147  33.065  21.674   4.469
33365W        W  148  39.890  39.195  10.434
33366W        W  149  15.284   1.733  13.866
33367W        W  150  41.931  29.208  12.487
33368W        W  151  44.398  34.471   3.602
33369W        W  152   9.889  35.427  14.431
33370W        W  153  42.449   1.361  13.405
33371W        W  154  37.427   3.126   2.309
33372W        W  155   1.708   3.389  11.594
33373W        W  156  22.168  26.786  10.719
33374W        W  157  21.566  19.283  14.539
33375W        W  158  43.531  17.503  12.438
33376W        W  159  13.724  33.737   0.956
33377W        W  160  38.211  17.823   1.562
33378W        W  161  17.018  34.762   3.232
33379W        W  162  30.424  18.346  11.161
33380W        W  163  11.841  19.589   3.718
33381W        W  164  28.088  44.306  10.171
33382W        W  165  15.276  41.809  14.804
33383W        W  166   9.933  31.209  13.963
33384W        W  167  35.380  13.408   0.378
33385W        W  168  33.672  29.836  11.164
33386W        W  169   5.297  39.825  12.119
33387W        W  170   4.909  36.437  11.839
33388W        W  171   2.325  15.728   3.400
33389W        W  172  38.934  39.952   2.274
33390W        W  173  11.789   8.371   2.200
33391W        W  174  36.966  17.047  12.410
33392W        W  175  24.493  37.077   1.759
33393W        W  176   9.227   8.924   1.882
33394W        W  177  33.963  39.830  11.655
33395W        W  178  44.879  31.434   3.646
33396W        W  179  18.762  27.054  10.606
33397W        W  180  41.353  35.025   1.326
33398W        W  181   0.966  10.061  11.730
33399W        W  182  16.992  18.735  14.325
33400W        W  183  40.047  37.530  14.523
33401W        W  184  39.441  39.400  10.560
33402W        W  185  28.360  32.312  11.207
33403W        W  186  31.992  42.477   0.110
33404W        W  187  19.685   6.364  13.359
33405W        W  188  39.441  38.287  11.118
33406W        W  189   2.664   9.357  12.289
33407W        W  190  15.396  10.633  14.991
33408W        W  191  29.134   2.476  13.692
33409W        W  192   0.623   4.046  10.408
33410W        W  193  25.607   2.187   3.216
33411W        W  194   7.342  15.888  13.655
33412W        W  195  28.938  25.292  14.468
33413W        W  196  37.989  33.623   3.394
33414W        W  197  24.255  16.127  13.411
33415W        W  198  36.399   8.720   0.778
33416W        W  199   8.283  38.486  13.554
33417W        W  200  12.161  28.602   2.753
33418W        W  201   7.602  24.608  11.482
33419W        W  202  44.054  42.374  11.101
33420W        W  203  18.228  12.520  13.400
33421W        W  204  14.581  28.761  13.791
33422W        W  205  39.303  35.295   3.571
33423W        W  206   7.297  15.242  14.379
33424W        W  207  32.897  23.198   1.018
33425W        W  208  36.154   1.009   1.644
33426W        W  209  18.731   3.726   3.171
33427W        W  210  40.574  26.960   1.124
33428W        W  211  29.106  30.897  13.099
33429W        W  212   0.719  37.411   4.963
33430W        W  213   7.801  41.158   1.688
33431W        W  214  36.350  24.092  11.196
33432W        W  215  28.036  17.853  10.505
33433W        W  216  26.596   8.929   3.145
33434W        W  217  42.752  39.527  13.009
33435W        W  218  29.372   0.237  14.325
33436W        W  219  38.339  13.273   4.688
33437W        W  220  23.677  15.960   2.787
33438W        W  221  12.160  18.593  13.566
33439W        W  222  43.173  15.576   4.185
33440W        W  223  15.855   6.467  14.859
33441W        W  224  36.901   9.872   1.265
33442W        W  225   8.823  39.038  13.395
33443W        W  226  20.474  31.645   2.078
33444W        W  227  38.484  22.621   2.916
33445W        W  228  22.537  22.887   1.509
33446W        W  229  36.041  28.738  14.334
33447W        W  230  28.766  13.037  10.990
33448W        W  231  14.215  34.469   3.231
33449W        W  232  11.269  14.924  11.516
33450W        W  233  29.755  18.211   2.803
33451W        W  234   9.709  31.399   2.142
33452W        W  235  19.594  29.732   0.543
33453W        W  236  12.559  19.240   3.184
33454W        W  237  17.737  29.488  11.386
33455W        W  238   7.628  42.509   2.909
33456W        W  239   8.993  13.194   0.590
33457W        W  240  40.575   4.515  14.945
33458W        W  241   7.718  26.517   2.861
33459W        W  242   8.404  15.514  13.798
33460W        W  243  29.361  38.369   3.770
33461W        W  244  37.002  43.314   1.389
33462W        W  245  32.989  27.416  14.311
33463W        W  246  44.796  27.915   2.352
33464W        W  247  15.708   2.463  12.958
33465W        W  248  17.660  19.823   3.463
33466W        W  249  20.693  31.855   1.653
33467W        W  250  24.114   8.779  14.240
33468W        W  251   6.921  37.719   4.959
33469W        W  252  30.482  37.002   0.205
33470W        W  253   8.947   1.020   0.138
33471W        W  254  29.544  32.543   4.128
33472W        W  255   2.754  21.227  10.568
33473W        W  256  43.978  31.595  11.493
33474W        W  257   4.304  31.639  10.713
33475W        W  258  42.495  20.270  13.541
33476W        W  259  32.081   1.873   4.578
33477W        W  260  40.298  37.307  10.705
33478W        W  261  24.705  25.273  14.458
33479W        W  262   1.981  20.437  12.970
33480W        W  263  39.520  33.200   2.751
33481W        W  264  42.123  30.049   3.734
33482W        W  265  11.576  13.484   4.921
33483W        W  266  39.790   9.397  10.290
33484W        W  267   1.431  17.499  14.940
33485W        W  268  17.770   1.042  13.500
33486W        W  269   8.845  34.850  13.002
33487W        W  270  18.004  36.036  12.429
33488W        W  271  24.141  16.489  13.030
33489W        W  272   0.363  42.619  11.670
33490W        W  273  30.462  40.900  14.950
33491W        W  274  15.797  31.463   4.439
33492W        W  275  26.579  23.299  10.671
33493W        W  276  39.947  21.531   3.584
33494W        W  277  34.843  35.879   3.546
33495W        W  278   3.735  35.048  12.400
33496W        W  279  25.132  23.042  11.398
33497W        W  280  35.610  17.097  11.435
33498W        W  281  11.872  37.031   4.008
33499W        W  282  22.683  38.814  11.345
33500W        W  283  17.374  31.847  13.016
33501W        W  284  38.115   7.933  12.545
33502W        W  285  25.630  28.953  14.500
33503W        W  286   7.515  28.151  10.249
33504W        W  287  31.467  17.077   3.272
33505W        W  288  19.941  23.656  10.810
33506W        W  289  42.005  42.740  10.233
33507W        W  290  26.203  36.354  12.266
33508W        W  291  30.199  19.403   3.670
33509W        W  292  37.951  26.447  10.149
33510W        W  293   6.187  25.045   2.657
33511W        W  294  40.520   1.699  10.388
33512W        W  295  42.980  16.811   0.785
33513W        W  296  26.451  29.440   1.820
33514W        W  297  12.509  25.512  13.152
33515W        W  298  15.814   5.555  11.104
33516W        W  299  20.735  41.445   1.423
33517W        W  300  29.516  19.733   2.971
33518W        W  301   8.470  41.432  13.496
33519W        W  302  18.040  18.136   3.103
33520W        W  303  13.971   5.252   2.661
33521W        W  304  17.199  12.658   3.053
33522W        W  305   7.705  44.970  11.244
33523W        W  306   7.818  42.386   0.765
33524W        W  307  36.714  15.366   0.318
33525W        W  308  26.503  21.712   3.376
33526W        W  309   5.498   6.313   4.477
33527W        W  310  10.354   2.355   3.183
33528W        W  311  43.074   6.171  14.760
33529W        W  312  19.598   5.018   0.805
33530W        W  313  18.620  38.255   4.529
33531W        W  314  29.481  44.657   1.307
33532W        W  315  30.657  42.362  12.000
33533W        W  316  14.645  42.629  10.391
33534W        W  317  22.357  15.130   2.760
33535W        W  318  10.970  33.110   1.702
33536W        W  319  32.035  21.630  12.503
33537W        W  320   4.243  31.579   1.923
33538W        W  321  18.294  27.449  14.027
33539W        W  322   6.762  12.678   2.162
33540W        W  323  41.776   2.322   2.637
33541W        W  324  19.332  33.868  11.967
33542W        W  325  27.562  10.917   3.386
33543W        W  326  14.224  25.911  11.623
33544W        W  327  12.461  10.269   2.287
33545W        W  328  39.551  36.048  13.324
33546W        W  329  31.989  20.246  11.439
33547W        W  330   7.706  22.492   3.421
33548W        W  331   7.944  44.510  12.480
33549W        W  332  31.677  22.106   1.703
33550W        W  333  33.020  17.044  14.822
33551W        W  334  33.341   1.719  10.833
33552W        W  335  13.886  18.070  14.829
33553W        W  336  16.539  43.482   1.060
33554W        W  337  30.602  17.842  12.002
33555W        W  338  40.565  26.664  13.133
33556W        W  339   0.942   0.370  12.903
33557W        W  340  24.370  42.905  10.559
33558W        W  341  19.295  10.287   4.737
33559W        W  342  10.049  38.961   2.744
33560W        W  343   6.097  33.405  12.844
33561W        W  344  22.451  12.903  12.860
33562W        W  345  14.901   3.792  13.830
33563W        W  346  30.985  37.406  10.897
33564W        W  347  13.444  13.175  13.891
33565W        W  348  36.370  20.043   2.102
33566W        W  349  44.721  14.402  12.326
33567W        W  350   2.666   9.394  11.095
33568W        W  351   4.735  37.571  10.636
33569W        W  352  39.919  24.368   4.191
33570W        W  353   2.781  16.243  11.386
33571W        W  354   8.707   1.243   3.547
33572W        W  355  14.600  43.342   4.685
33573W        W  356  23.543  38.245   1.715
33574W        W  357   1.443  44.677  11.926
33575W        W  358  34.952  39.461   4.153
33576W        W  359  41.566  29.966  13.369
33577W        W  360  43.301  44.954  10.976
33578W        W  361  42.186  29.063   1.697
33579W        W  362  16.963   0.934   2.236
33580W        W  363  38.821  29.197  12.905
33581W        W  364  23.151   2.795  13.085
33582W        W  365  20.240   1.395   4.564
33583W        W  366  43.599  38.777  10.628
33584W        W  367  10.051   1.721   4.241
33585W        W  368  29.067  32.112   2.379
33586W        W  369  39.490  42.866  14.671
33587W        W  370  34.155  44.376  11.271
33588W        W  371  22.179  33.956   3.960
33589W        W  372   7.097  36.582  12.993
33590W        W  373   0.480  44.172   2.320
33591W        W  374  26.668  20.114   2.595
33592W        W  375  30.598  41.329  12.836
33593W        W  376  18.736  42.220  13.286
33594W        W  377  10.869  32.004  10.758
33595W        W  378   2.165  16.990  14.410
33596W        W  379   2.099  23.985  12.221
33597W        W  380  28.599  24.532   1.767
33598W        W  381   5.269  25.520  10.800
33599W        W  382   9.876  14.369  13.962
33600W        W  383  28.959  20.274  13.450
33601W        W  384   5.330  25.287  12.666
33602W        W  385   3.495  33.508  13.952
33603W        W  386  14.031  37.387   2.356
33604W        W  387  36.585  15.817   4.633
33605W        W  388  16.412  22.218   2.431
33606W        W  389  36.356  42.592  13.880
33607W        W  390  39.550  26.459  14.028
33608W        W  391   3.668  42.497  13.822
33609W        W  392  38.011   7.426  12.413
33610W        W  393  27.748  40.503   3.529
33611W        W  394  29.392   1.738  11.595
33612W        W  395  38.803  33.399  12.795
33613W        W  396  27.575  44.927   0.436
33614W        W  397  39.026  44.973  10.753
33615W        W  398   6.241   2.165  12.404
33616W        W  399   2.418  14.258   1.414
33617W        W  400  44.417  35.405   0.653
33618W        W  401  35.042  27.570   2.877
33619W        W  402  33.604  25.313   3.107
33620W        W  403  24.236  19.154   4.370
33621W        W  404  36.066  18.689  14.821
33622W        W  405   9.252   0.273   2.692
33623W        W  406  38.911  16.776   1.215
33624W        W  407  13.837  16.688  10.753
33625W        W  408   0.175   9.056   0.211
33626W        W  409  43.586   2.513  14.525
33627W        W  410  15.127  29.422  11.690
33628W        W  411   7.129   2.667  13.142
33629W        W  412  44.922  12.993  12.476
33630W        W  413  18.289  14.163  10.751
33631W        W  414  37.578  28.182   0.426
33632W        W  415  14.285  13.848   3.643
33633W        W  416  13.582  41.984  12.845
33634W        W  417   2.319  35.170   1.242
33635W        W  418  37.811  43.253   1.783
33636W        W  419   9.674   7.148  12.939
33637W        W  420  33.084  16.056  11.983
33638W        W  421  25.541  38.588  10.276
33639W        W  422  44.953  28.147   0.873
33640W        W  423  20.306  22.028   4.601
33641W        W  424  33.424  40.982  12.198
33642W        W  425  22.943  30.102   0.733
33643W        W  426  38.274  18.863   1.536
33644W        W  427  33.727  11.209  10.187
33645W        W  428  20.506   8.727   1.900
33646W        W  429  43.383  33.946   2.710
33647W        W  430  30.635  39.124  13.525
33648W        W  431  44.838   9.589  12.414
33649W        W  432  29.224  18.008  13.955
33650W        W  433   5.319  38.405   0.500
33651W        W  434  13.583   6.673   0.914
33652W        W  435  40.814   9.537   0.895
33653W        W  436   0.306  35.122  12.882
33654W        W  437  31.614   8.133   0.454
33655W        W  438  39.410  38.046  11.777
33656W        W  439  41.283  23.564   0.819
33657W        W  440  34.581  33.853  12.045
33658W        W  441  21.161  20.670  14.288
33659W        W  442  43.310  16.524  12.363
33660W        W  443  43.321  15.643   2.343
33661W        W  444   9.596  26.471  13.059
33662W        W  445  39.031   3.680   3.629
33663W        W  446   9.828  42.751  11.630
33664W        W  447  23.113   9.342  11.631
33665W        W  448  34.945  34.436  10.734
33666W        W  449  44.854   8.195  11.858
33667W        W  450  28.706  20.204  14.343
33668W        W  451   8.239  39.054  10.713
33669W        W  452   5.685  38.621  11.536
33670W        W  453  19.317  10.768   2.645
33671W        W  454   9.598  27.043   0.615
33672W        W  455  15.134   2.585  10.929
33673W        W  456   7.064  32.291  14.009
33674W        W  457  34.075  37.465  12.789
33675W        W  458   8.772   5.175  13.582
33676W        W  459  11.676   1.902  14.237
33677W        W  460  20.932  40.650   1.658
33678W        W  461  15.496   0.578   4.549
33679W        W  462   5.864   4.329  14.337
33680W        W  463  26.019  17.186  14.230
33681W        W  464  11.429  40.410   1.006
33682W        W  465  28.604  24.672  14.807
33683W        W  466  41.770   5.330  14.096
33684W        W  467   1.849  25.088   2.331
33685W        W  468   4.827  43.817  14.520
33686W        W  469  16.725  32.113   4.642
33687W        W  470   6.742   0.423  14.311
33688W        W  471  21.205   5.818  13.649
33689W        W  472  36.817   4.306   1.371
33690W        W  473  18.607  22.656  14.481
33691W        W  474  16.344   0.979  14.529
33692W        W  475  25.975  23.684  14.533
33693W        W  476  37.618  39.985  12.388
33694W        W  477  37.551   7.481   5.546
33695W        W  478   8.164  38.462   4.504
33696W        W  479  36.638  26.050   4.688
33697W        W  480   6.118   7.958   3.431
33698W        W  481  30.664  30.003   2.137
33699W        W  482  40.368  37.567  11.181
33700W        W  483  24.766  15.927  11.048
33701W        W  484   0.264  11.152  14.031
33702W        W  485  24.904  12.192   2.806
33703W        W  486  41.047  34.097  11.228
33704W        W  487  17.348  40.111   2.382
33705W        W  488  41.693  31.663   5.053
33706W        W  489  33.557  16.262   0.740
33707W        W  490  29.009  18.285  14.345
33708W        W  491  23.128  34.398  11.876
33709W        W  492  41.624  16.039   2.595
33710W        W  493  42.826   3.797  14.451
33711W        W  494  24.511  16.803   2.631
33712W        W  495   4.908  21.947   0.760
33713W        W  496  29.641  32.439  13.398
33714W        W  497  40.208  15.567  12.563
33715W        W  498   1.031  12.039   1.930
33716W        W  499  13.294  17.792   0.942
33717W        W  500  37.443  26.031  12.561
33718W        W  501  14.857  25.214   0.520
33719W        W  502   7.355   2.888  13.552
33720W        W  503  44.549  25.553   4.347
33721W        W  504   2.360  12.948  12.219
33722W        W  505   8.910  43.286  13.855
33723W        W  506  32.506  14.866  12.913
33724W        W  507  19.310  44.424  14.681
33725W        W  508  13.186  43.224   1.785
33726W        W  509  27.249  42.044   4.175
33727W        W  510  42.309   8.114   1.442
33728W        W  511  42.392  39.552  13.673
33729W        W  512  28.122   9.617   1.513
33730W        W  513  24.944  39.449  10.658
33731W        W  514   3.557  14.295   4.970
33732W        W  515  34.385   3.194   0.795
33733W        W  516  13.976  42.875   3.803
33734W        W  517  19.695  26.600   9.788
33735W        W  518   2.748  39.988   4.908
33736W        W  519  39.900  29.391   1.683
33737W        W  520   8.122  42.547   1.547
33738W        W  521  36.008  30.483  12.123
33739W        W  522  23.306   5.358   2.856
33740W        W  523  14.776  19.361  13.503
33741W        W  524  14.297   5.000   4.509
33742W        W  525  12.648  14.315  11.025
33743W        W  526  42.847   4.924   3.745
33744W        W  527  27.509  19.066   3.060
33745W        W  528  36.493  29.149   0.238
33746W        W  529  21.763  17.288  12.980
33747W        W  530   2.158   2.219   2.472
33748W        W  531  28.621  28.585   2.727
33749W        W  532  33.442  42.857   1.735
33750W        W  533  33.092  21.522  12.521
33751W        W  534  32.485  26.039  10.777
33752W        W  535  38.353  42.487   0.790
33753W        W  536   2.485  26.653   4.193
33754W        W  537   9.678   2.289  13.321
33755W        W  538  16.783  32.441  12.850
33756W        W  539  30.585  18.465  13.996
33757W        W  540  13.225  42.516   1.211
33758W        W  541   6.657  31.628  11.154
33759W        W  542  30.719  26.752   1.836
33760W        W  543  36.445  29.186  10.493
33761W        W  544  29.150  36.623   4.476
33762W        W  545  36.259  13.373  12.569
33763W        W  546  11.403  37.884   1.674
33764W        W  547  39.427  27.196  12.949
33765W        W  548  13.243  43.039   1.294
33766W        W  549  32.048  30.530   1.928
33767W        W  550  27.269  24.400  11.480
33768W        W  551  29.572   1.903  13.791
33769W        W  552   4.901  40.995  13.439
33770W        W  553  21.759  37.004   0.459
33771W        W  554  15.950  18.421  11.623
33772W        W  555  41.175  29.420   1.517
33773W        W  556   6.874  20.302  14.764
33774W        W  557  13.812   1.262   2.229
33775W        W  558   5.251  40.577   4.976
33776W        W  559  18.669  20.649   2.917
33777W        W  560   0.643  25.818  11.865
33778W        W  561   5.325  11.309  11.467
33779W        W  562  44.785  36.327  13.244
33780W        W  563  24.054  25.428  14.340
33781W        W  564  39.450   9.693   2.449
33782W        W  565  43.293  12.435  10.352
33783W        W  566  29.765  28.685  14.750
33784W        W  567  32.470  25.477  11.552
33785W        W  568   2.300  35.941   3.512
33786W        W  569  29.585  19.728  12.547
33787W        W  570  33.628  27.979   0.875
33788W        W  571   2.410  24.471   2.618
33789W        W  572  32.992  12.178   4.641
33790W        W  573   2.958  44.723   0.788
33791W        W  574  32.062   2.782  13.104
33792W        W  575   5.974   6.493   0.773
33793W        W  576   6.800   9.690   4.176
33794W        W  577  40.426   5.626   2.248
33795W        W  578  27.574  27.768   3.821
33796W        W  579  28.911  15.743   4.393
33797W        W  580  35.083   2.809  11.896
33798W        W  581  15.336  16.456   2.730
33799W        W  582  29.850  42.322  12.498
33800W        W  583  13.964   9.493  13.126
33801W        W  584  30.046  20.494  14.088
33802W        W  585  19.173   1.899   1.389
33803W        W  586  38.240   4.951  13.489
33804W        W  587  43.203  19.632  12.612
33805W        W  588   7.818  29.153   4.826
33806W        W  589   3.167  40.528  13.783
33807W        W  590  32.008  12.628  13.837
33808W        W  591  34.041  26.127  12.117
33809W        W  592  31.420   7.803   0.075
33810W        W  593  43.722  40.158   4.358
33811W        W  594  37.979  41.548   3.656
33812W        W  595  17.662   9.661  14.726
33813W        W  596  26.271  16.583   1.268
33814W        W  597  33.512  37.521   0.522
33815W        W  598   2.016  16.929  10.758
33816W        W  599  12.402  19.619  11.275
33817W        W  600  39.698  11.078   0.858
33818W        W  601  26.450  39.265   5.041
33819W        W  602  30.377  13.788  14.702
33820W        W  603  26.496  18.309  12.046
33821W        W  604  24.484   4.901  13.991
33822W        W  605  11.389  22.690  13.916
33823W        W  606  36.247  34.534  12.968
33824W        W  607  38.448  13.838   3.600
33825W        W  608  30.315  10.966   2.226
33826W        W  609   9.128   0.059  11.865
33827W        W  610  14.178  25.079   2.396
33828W        W  611   0.500   8.332  14.098
33829W        W  612  19.548  10.167  13.147
33830W        W  613  10.366  11.737   2.382
33831W        W  614  26.688   0.662   3.830
33832W        W  615  41.803   1.209   2.251
33833W        W  616  27.245  25.975  10.816
33834W        W  617  44.909  44.444  13.044
33835W        W  618  40.849  15.022  11.162
33836W        W  619  18.768   8.660  14.459
33837W        W  620   0.291  35.880  14.264
33838W        W  621  35.950  10.924   0.889
33839W        W  622  41.285  32.515  14.891
33840W        W  623  12.093  41.776  15.000
33841W        W  624  43.389  41.789  12.906
33842W        W  625  20.043  39.021  13.451
33843W        W  626  40.018  19.554   3.875
33844W        W  627  33.347   2.210   1.264
33845W        W  628   1.806  19.654   1.905
33846W        W  629   1.377  33.016  11.684
33847W        W  630  16.662  37.758   3.741
33848W        W  631  38.352  36.486   4.733
33849W        W  632  31.294   0.373  13.407
33850W        W  633  13.225  29.509   0.726
33851W        W  634  16.073  26.189  13.804
33852W        W  635  11.285  10.394   3.729
33853W        W  636  42.869  41.599   4.231
33854W        W  637  15.461  39.050   5.587
33855W        W  638   3.453  33.140  14.318
33856W        W  639  23.189  39.131   2.732
33857W        W  640  43.351  40.830   4.259
33858W        W  641  33.611  24.077   2.332
33859W        W  642   8.703  26.617   3.709
33860W        W  643  29.677  10.286   1.430
33861W        W  644   5.314  40.230   4.560
33862W        W  645  39.387  18.106  10.725
33863W        W  646  11.550  24.594  13.595
33864W        W  647  36.067  13.102   4.059
33865W        W  648  27.880  40.482   0.861
33866W        W  649  18.722   5.471  11.913
33867W        W  650  36.998  16.312   1.721
33868W        W  651  39.677   4.199  11.635
33869W        W  652  28.952   0.000   4.549
33870W        W  653  32.226  38.872  10.617
33871W        W  654  18.421  23.644  14.521
33872W        W  655  33.064  21.867   0.975
33873W        W  656  18.329   3.281  12.937
33874W        W  657  29.159  13.207  10.717
33875W        W  658  25.152  23.142  11.914
33876W        W  659   6.213  39.560   2.653
33877W        W  660  17.338  36.026  14.568
33878W        W  661  34.638   5.776   3.577
33879W        W  662  17.585  33.194   4.555
33880W        W  663  44.380   7.235   0.822
33881W        W  664   2.347  41.491   1.266
33882W        W  665  13.601  22.137  13.106
33883W        W  666  25.691  12.709   1.859
33884W        W  667  15.650  43.224   4.312
33885W        W  668  28.673  28.497   0.753
33886W        W  669  23.249  33.959  11.103
33887W        W  670  37.577  37.661   3.541
33888W        W  671  44.342  20.026  13.066
33889W        W  672  40.249   3.710   0.454
33890W        W  673  32.142  27.184  14.373
33891W        W  674  34.401   3.654   3.553
33892W        W  675   7.491  29.255   2.750
33893W        W  676  32.680  37.031  13.816
33894W        W  677  31.777  28.080  14.606
33895W        W  678  39.846  42.014  12.190
33896W        W  679   8.740  40.454   1.482
33897W        W  680  15.904   2.908   3.258
33898W        W  681  13.866  26.064  14.608
33899W        W  682  27.507  43.148  13.321
33900W        W  683  43.740  41.288   0.454
33901W        W  684   6.960  38.956  11.935
33902W        W  685   5.776  28.476   4.257
33903W        W  686  32.348  23.796   1.389
33904W        W  687  13.058   0.164   1.901
33905W        W  688  20.463  35.777   1.613
33906W        W  689  11.630  34.643  10.820
33907W        W  690   2.204   3.915   1.339
33908W        W  691  15.518  13.140  13.082
33909W        W  692  27.255   4.210  11.492
33910W        W  693  24.981  19.791   1.499
33911W        W  694  18.955  36.982   3.753
33912W        W  695  43.383   8.883   4.557
33913W        W  696  40.282  38.856  10.299
33914W        W  697  36.881  12.728  13.667
33915W        W  698  26.466  32.045   1.289
33916W        W  699  12.880   3.792   2.178
33917W        W  700  19.398  28.143  12.866
33918W        W  701  32.586  41.745   0.828
33919W        W  702  22.165  25.748   1.224
33920W        W  703  17.296  43.348   3.679
33921W        W  704  38.218  14.728   1.366
33922W        W  705  39.582   0.821  14.830
33923W        W  706  17.081   7.687   0.921
33924W        W  707  28.177  12.780   1.258
33925W        W  708  32.195  27.336   1.413
33926W        W  709  21.646  38.298  11.056
33927W        W  710  20.658   0.856  12.602
33928W        W  711   1.886   1.148  12.570
33929W        W  712   9.805  22.024  13.409
33930W        W  713  44.625  13.527  11.211
33931W        W  714  27.498  22.954   3.389
33932W        W  715  22.596  28.570  11.272
33933W        W  716  39.448  41.600  12.598
33934W        W  717   7.795  12.758   4.578
33935W        W  718  11.480  15.347   2.398
33936W        W  719  21.602  33.639   1.313
33937W        W  720  37.558   7.777   3.595
33938W        W  721   3.475  13.629   3.794
33939W        W  722  12.375  11.191   2.640
33940W        W  723   9.166  27.484   4.639
33941W        W  724   0.896  21.278   2.226
33942W        W  725  29.613  30.645  12.965
33943W        W  726  24.268  30.627   5.008
33944W        W  727  37.438  11.292   4.617
33945W        W  728  27.461   3.774  14.050
33946W        W  729  34.949  38.520   2.281
33947W        W  730  41.123   1.815  13.325
33948W        W  731   6.961   8.899  14.922
33949W        W  732  38.658  43.840  11.701
33950W        W  733   4.293  12.237  10.905
33951W        W  734   5.455  21.038   4.832
33952W        W  735  29.433  24.562  14.450
33953W        W  736  38.532  16.068   1.503
33954W        W  737  10.683  10.302  10.714
33955W        W  738   9.096  19.454  14.561
33956W        W  739  37.819  23.818  10.259
33957W        W  740   1.955  15.117  13.902
33958W        W  741   3.629  22.179  11.086
33959W        W  742  27.675  29.645  11.138
33960W        W  743  33.109  15.756   2.852
33961W        W  744  37.395  11.648   0.932
33962W        W  745  19.730   6.463   1.410
33963W        W  746   4.884  39.008   0.039
33964W        W  747  39.558  18.503   3.307
33965W        W  748  25.728  29.346  12.152
33966W        W  749  26.925  17.573   3.904
33967W        W  750  29.340   9.190  11.130
33968W        W  751   7.836  39.309   0.459
33969W        W  752   1.027  36.467   0.695
33970W        W  753  24.599  24.872  13.015
33971W        W  754   4.351  38.661   1.522
33972W        W  755  19.709  43.322  12.317
33973W        W  756  33.656  39.484   9.891
33974W        W  757  39.404  32.667  12.682
33975W        W  758  26.494  34.067  11.565
33976W        W  759  15.341   8.587   0.774
33977W        W  760   2.239   1.270  14.053
33978W        W  761   1.312  35.883  11.146
33979W        W  762   3.422  39.412  12.963
33980W        W  763  22.546  35.444   3.857
33981W        W  764  42.819   8.673  14.389
33982W        W  765   7.667  27.420   4.688
33983W        W  766  15.212   3.347   0.823
33984W        W  767  11.248  25.542  10.649
33985W        W  768  14.555  21.054   4.598
33986W        W  769  23.492  32.652  11.146
33987W        W  770  13.512  26.194  11.918
33988W        W  771  33.735  29.405  13.911
33989W        W  772  32.847  23.639  14.808
33990W        W  773  28.002  42.634  14.728
33991W        W  774  12.760  39.091  12.549
33992W        W  775  28.037  24.626  10.891
33993W        W  776  24.501  24.984   1.412
33994W        W  777  23.162  36.064   4.869
33995W        W  778  21.522  11.160  12.566
33996W        W  779   1.850  24.084  10.772
33997W        W  780   4.446  44.082  11.990
33998W        W  781  13.860  30.135  12.636
33999W        W  782   2.298  16.097  14.075
34000W        W  783  22.406  14.323  14.662
34001W        W  784  20.291  21.555   3.260
34002W        W  785   0.530  23.390  11.561
34003W        W  786   7.274  14.413   2.025
34004W        W  787  30.139  38.856  11.344
34005W        W  788  21.429  31.565   0.841
34006W        W  789   3.895  43.818  10.776
34007W        W  790  11.378  24.088   4.069
34008W        W  791  42.037  16.933  11.896
34009W        W  792  40.367  43.342  12.638
34010W        W  793  13.429   2.505  11.090
34011W        W  794   1.791  22.973  13.938
34012W        W  795  39.654   6.086  13.453
34013W        W  796  35.881  29.751   3.693
34014W        W  797  43.822  36.944   2.926
34015W        W  798  32.632  28.514  11.691
34016W        W  799  40.826   5.247  14.304
34017W        W  800  21.196  11.269   5.025
34018W        W  801  15.403  18.842  13.821
34019W        W  802  24.514  30.428  13.731
34020W        W  803  11.070  44.685  13.949
34021W        W  804  44.768  26.580   2.673
34022W        W  805  17.087   8.849   1.313
34023W        W  806  21.155  21.343  11.565
34024W        W  807  40.341  32.168  10.772
34025W        W  808  29.991  39.640  14.893
34026W        W  809  13.627   4.014  12.564
34027W        W  810  32.061   3.367  10.544
34028W        W  811   7.922  26.992  14.987
34029W        W  812  27.640  38.532  12.826
34030W        W  813  34.296  13.823  12.005
34031W        W  814  40.597   4.280  10.682
34032W        W  815  22.827  38.188   3.718
34033W        W  816   1.304   0.231   4.792
34034W        W  817  43.091   0.007  14.416
34035W        W  818  11.745   6.736   4.889
34036W        W  819   4.194  26.626  13.424
34037W        W  820  15.084   4.212   0.889
34038W        W  821  11.711  13.262   4.492
34039W        W  822   6.116  14.629  13.625
34040W        W  823  13.083  37.766  12.923
34041W        W  824  29.136  29.312   2.675
34042W        W  825   8.851   7.768  13.803
34043W        W  826   4.504   9.645   3.600
34044W        W  827  25.966  16.167  10.717
34045W        W  828   3.764   5.341   4.564
34046W        W  829  26.180  14.816  14.836
34047W        W  830  30.147  40.385  11.476
34048W        W  831  37.800  11.700   0.608
34049W        W  832  43.418  28.342   1.953
34050W        W  833  42.640   8.239   2.686
34051W        W  834  29.092  10.574  14.820
34052W        W  835  14.514  21.204  13.596
34053W        W  836  12.034  39.549  13.618
34054W        W  837   9.111   3.618  10.592
34055W        W  838   5.836  19.193   1.161
34056W        W  839  20.654  11.450   1.283
34057W        W  840  14.746  17.789  13.446
34058W        W  841  14.603   4.454  11.571
34059W        W  842  27.645  19.581  13.589
34060W        W  843   7.325  22.902  11.200
34061W        W  844  14.062  42.327   5.004
34062W        W  845  16.641  21.781   2.310
34063W        W  846   2.289  25.702  12.895
34064W        W  847  38.317   7.841   0.797
34065W        W  848  27.517  13.600  13.973
34066W        W  849  16.552  36.518  10.093
34067W        W  850  34.500  44.984   4.174
34068W        W  851  39.456   2.222   2.389
34069W        W  852  23.932  35.549   3.596
34070W        W  853   1.532   2.623  11.815
34071W        W  854  24.048  13.278   1.273
34072W        W  855  16.922  37.570   4.194
34073W        W  856  35.351  32.034   2.290
34074W        W  857  20.210  35.251   4.127
34075W        W  858  15.503  25.917   4.579
34076W        W  859   4.874  35.008  10.689
34077W        W  860  21.998  37.538  13.829
34078W        W  861   1.188  13.616   1.039
34079W        W  862  43.030  10.859  10.842
34080W        W  863  44.424  12.818  12.406
34081W        W  864  31.869  44.850   3.799
34082W        W  865  38.416  28.441  12.992
34083W        W  866  39.057  18.364   3.132
34084W        W  867   4.539   7.288  14.721
34085W        W  868  10.269  28.916  12.041
34086W        W  869  15.503  42.362  14.129
34087W        W  870  38.424  41.524   3.349
34088W        W  871   9.602  13.320  14.874
34089W        W  872  38.304  23.164   3.578
34090W        W  873  41.272  38.473  12.914
34091W        W  874   3.216   2.485   3.668
34092W        W  875   8.660  36.064   3.231
34093W        W  876   7.241   3.190  13.148
34094W        W  877  30.068  24.880  13.828
34095W        W  878  36.230  17.008   1.693
34096W        W  879   5.254  44.622  12.387
34097W        W  880  13.028  14.862  14.860
34098W        W  881  13.067  39.525  11.527
34099W        W  882  23.449  27.060   3.200
34100W        W  883   7.025   5.891  11.380
34101W        W  884  18.727   9.782  11.198
34102W        W  885   4.452  16.199  14.809
34103W        W  886  19.050  33.938  10.661
34104W        W  887   9.721   0.496   4.415
34105W        W  888  39.839  17.323  13.115
34106W        W  889  33.754  21.567  12.929
34107W        W  890  26.625  22.059   4.193
34108W        W  891  31.926  18.596   0.999
34109W        W  892   8.623  41.361  11.191
34110W        W  893  31.841  10.552  14.727
34111W        W  894  23.229   1.104  10.770
34112W        W  895  14.602  21.462   0.448
34113W        W  896   5.759   0.041   4.921
34114W        W  897  12.766  31.706   0.598
34115W        W  898  36.985  38.383   0.984
34116W        W  899  17.990   6.231  14.306
34117W        W  900  29.178  19.509  14.012
34118W        W  901   1.764  17.779   2.666
34119W        W  902  18.328  19.128   3.905
34120W        W  903  30.861  25.124   4.169
34121W        W  904  32.813  32.551   1.068
34122W        W  905  11.303  16.203   4.469
34123W        W  906  44.487  19.141   2.638
34124W        W  907   5.966  33.642  14.481
34125W        W  908   9.198  30.789  12.129
34126W        W  909  22.165  36.426  13.895
34127W        W  910  36.569   5.860  11.725
34128W        W  911  39.231  13.698  11.547
34129W        W  912  13.640  29.855  14.873
34130W        W  913  31.733  21.837   3.086
34131W        W  914  32.992   4.432  12.044
34132W        W  915   8.059  37.650   3.538
34133W        W  916   8.418   8.505   5.387
34134W        W  917   1.443  43.233   1.466
34135W        W  918  31.817  40.699   0.774
34136W        W  919   0.395   9.495   0.437
34137W        W  920  12.359  34.321  10.349
34138W        W  921  14.552  10.387  12.955
34139W        W  922  39.802   6.345  12.189
34140W        W  923  11.725  23.716   0.417
34141W        W  924  25.843  38.785   1.807
34142W        W  925  27.948  42.972   2.465
34143W        W  926  32.492  30.161  12.406
34144W        W  927  20.130  19.080  12.437
34145W        W  928  33.732   5.951   0.607
34146W        W  929  35.315  32.859  11.162
34147W        W  930  39.137  39.307   0.992
34148W        W  931  19.954  32.586   3.429
34149W        W  932   5.437   0.932  12.717
34150W        W  933   2.556   1.154  14.505
34151W        W  934  43.454  31.910  13.887
34152W        W  935  30.660  35.916  12.019
34153W        W  936  44.396   8.242  13.115
34154W        W  937   6.358  14.417  12.493
34155W        W  938   3.284   3.860   3.341
34156W        W  939  29.169  30.707  11.320
34157W        W  940  32.063  38.478   1.371
34158W        W  941   1.054  15.678  12.435
34159W        W  942  10.178  36.626  11.929
34160W        W  943  12.882   1.659  12.030
34161W        W  944  37.299  42.488  13.862
34162W        W  945  22.006  37.034   0.915
34163W        W  946  41.449  20.185  11.751
34164W        W  947  44.604  35.787   1.983
34165W        W  948  35.021  23.726   3.715
34166W        W  949   0.460   9.319   2.178
34167W        W  950  37.824  19.180  11.612
34168W        W  951  34.362  39.928  14.445
34169W        W  952  14.149  21.768   2.384
34170W        W  953  10.921  22.210   0.062
34171W        W  954  44.459  28.884  10.397
34172W        W  955  15.179  10.069  13.882
34173W        W  956   3.491  32.563  13.883
34174W        W  957  10.110  38.737   3.251
34175W        W  958   8.866  13.453  10.450
34176W        W  959  14.294  10.716  12.508
34177W        W  960   9.707  42.358  10.832
34178W        W  961  36.188  18.033   0.035
34179W        W  962  26.725  31.522  10.661
34180W        W  963  24.074  11.194   2.457
34181W        W  964  31.456   5.938  10.359
34182W        W  965  26.428  26.607   0.160
34183W        W  966  13.090  41.865  13.724
34184W        W  967  10.269  11.640  11.859
34185W        W  968  16.731  42.941  14.292
34186W        W  969  22.981  22.005  12.923
34187W        W  970  17.392  16.273  14.430
34188W        W  971  29.238  22.119  13.344
34189W        W  972  32.996  30.806  11.230
34190W        W  973  14.181  17.270   2.432
34191W        W  974  22.630  44.950  12.134
34192W        W  975  20.034  30.651   1.476
34193W        W  976   6.849   4.225   0.021
34194W        W  977   5.391  42.046  12.942
34195W        W  978  17.254   7.954   3.511
34196W        W  979   4.566   2.461  11.174
34197W        W  980  40.939  24.798  10.890
34198W        W  981  27.500  21.487   1.680
34199W        W  982  28.237  37.834   3.674
34200W        W  983  36.299   5.145  14.825
34201W        W  984  25.764  43.749   2.524
34202W        W  985  15.383   5.078   3.101
34203W        W  986  43.746   2.740  12.489
34204W        W  987  13.894  23.624  12.022
34205W        W  988   2.675  29.451   4.689
34206W        W  989  19.615  27.770  12.417
34207W        W  990   3.247   5.864   1.247
34208W        W  991  40.711   0.505   2.519
34209W        W  992  24.575  32.655   3.965
34210W        W  993  23.784  33.940   1.495
34211W        W  994  42.573  33.044  12.158
34212W        W  995  41.900  26.533   3.069
34213W        W  996  19.986  31.842  14.302
34214W        W  997   3.428  25.734  13.535
34215W        W  998   4.886  39.328   2.855
34216W        W  999  21.198  32.409  11.402
34217W        W 1000  42.446  10.421   3.784
34218W        W 1001   7.894  31.011  11.150
34219W        W 1002  18.731  22.232  12.540
34220W        W 1003  39.548  40.877   2.311
34221W        W 1004  18.565  36.348   2.224
34222W        W 1005  40.506  29.464  12.058
34223W        W 1006   0.358  33.556  13.101
34224W        W 1007  29.818  25.821  11.142
34225W        W 1008  44.762  36.106  12.146
34226W        W 1009   8.444  40.877  14.700
34227W        W 1010  23.124   7.341  12.571
34228W        W 1011  15.156  38.040   1.055
34229W        W 1012  27.517  21.645   2.849
34230W        W 1013  18.968  14.010  14.283
34231W        W 1014  39.694   0.997   3.617
34232W        W 1015  43.284  24.138  12.893
34233W        W 1016   4.407  12.863  12.040
34234W        W 1017  27.386   0.961  13.072
34235W        W 1018   6.248  18.592   4.162
34236W        W 1019  30.184  41.716   3.662
34237W        W 1020  18.836   7.665  12.570
34238W        W 1021  21.636   5.309  14.557
34239W        W 1022  17.989  11.140  13.444
34240W        W 1023   6.235  24.039  10.662
34241W        W 1024  22.501  37.300  14.794
34242W        W 1025  32.509   6.509   4.136
34243W        W 1026  11.527   4.750   5.124
34244W        W 1027  36.924  37.124  11.195
34245W        W 1028  44.887   5.220  14.979
34246W        W 1029  20.520  17.001  12.466
34247W        W 1030  30.907  44.664  11.225
34248W        W 1031   6.841  34.448   4.585
34249W        W 1032  40.405  25.481   4.875
34250W        W 1033   5.532  34.802   2.783
34251W        W 1034  25.714  44.029   4.075
34252W        W 1035  16.935  23.335  12.108
34253W        W 1036  16.648   1.378   1.553
34254W        W 1037   6.245   8.822  11.882
34255W        W 1038  40.409   9.075   9.917
34256W        W 1039  42.114  18.946  11.168
34257W        W 1040   8.643  26.067  12.544
34258W        W 1041  19.766  13.628  13.451
34259W        W 1042   3.195  15.389   2.415
34260W        W 1043   2.311  13.061  10.734
34261W        W 1044  30.465   3.800   3.129
34262W        W 1045  15.147   8.075   0.808
34263W        W 1046  34.738  41.594   3.472
34264W        W 1047   4.276   1.811  10.979
34265W        W 1048  19.643  21.222   0.812
34266W        W 1049  35.495   3.481   2.144
34267W        W 1050  36.063   3.086  13.041
34268W        W 1051  24.594  13.017   0.458
34269W        W 1052   2.361  36.032  12.548
34270W        W 1053  37.086  27.577   2.199
34271W        W 1054   0.220  17.183   2.229
34272W        W 1055  20.785   5.711   1.771
34273W        W 1056  26.471  31.354   0.908
34274W        W 1057  42.586  42.726  11.036
34275W        W 1058  34.186   9.640   4.094
34276W        W 1059   1.866  15.337  11.577
34277W        W 1060  42.474   7.726  14.807
34278W        W 1061  39.897  18.535   1.405
34279W        W 1062  29.694  32.495   3.217
34280W        W 1063   0.769  27.683   0.936
34281W        W 1064  16.556   9.557  13.507
34282W        W 1065  16.245  11.995   2.356
34283W        W 1066   2.780  27.506  14.823
34284W        W 1067  32.541  36.516   0.060
34285W        W 1068  25.140  25.488   3.456
34286W        W 1069   0.681  30.571   4.366
34287W        W 1070  44.588   6.855  12.648
34288W        W 1071  16.567  28.461  12.547
34289W        W 1072  14.632   2.799  14.334
34290W        W 1073  35.474   4.108  14.534
34291W        W 1074  13.583  39.013   0.740
34292W        W 1075  38.445  35.935  13.295
34293W        W 1076  26.559  19.172   4.774
34294W        W 1077  32.425  23.627   4.485
34295W        W 1078   4.092  30.196   4.620
34296W        W 1079   8.374   2.689  14.950
34297W        W 1080   2.780  16.721  11.200
34298W        W 1081  39.300  20.216  14.757
34299W        W 1082  36.320   6.037   0.160
34300W        W 1083  41.897   2.476  10.325
34301W        W 1084  16.705  43.970   4.174
34302W        W 1085  19.930  29.495  14.566
34303W        W 1086   7.153  27.157   1.867
34304W        W 1087   9.767  19.370   1.871
34305W        W 1088  44.188  30.045  14.269
34306W        W 1089  12.468   6.862  10.275
34307W        W 1090  34.160  15.638   2.820
34308W        W 1091   5.580   5.513   2.959
34309W        W 1092  39.204   1.197  11.157
34310W        W 1093   4.831   3.494  11.210
34311W        W 1094   3.848   7.100  10.733
34312W        W 1095  25.439  15.853  14.806
34313W        W 1096   4.248  35.560  13.503
34314W        W 1097  19.166   2.961   1.419
34315W        W 1098  18.166   7.918   1.820
34316W        W 1099  24.257  12.563   2.413
34317W        W 1100  16.723  40.917  13.553
34318W        W 1101  27.108   9.791  12.504
34319W        W 1102  13.971  27.771   4.799
34320W        W 1103  29.474  19.235   2.743
34321W        W 1104  37.021  30.790  12.096
34322W        W 1105  27.366  32.553  12.429
34323W        W 1106  19.991  33.447  14.771
34324W        W 1107   1.163  37.950  14.896
34325W        W 1108  27.573  29.452  12.817
34326W        W 1109   7.786  33.911   3.293
34327W        W 1110  41.215   9.898   0.939
34328W        W 1111   5.179  28.416   2.829
34329W        W 1112   6.770  39.792   4.813
34330W        W 1113  42.321  21.912   2.662
34331W        W 1114  20.672  31.024  11.765
34332W        W 1115   4.681   5.085   5.061
34333W        W 1116   3.683  14.198   2.975
34334W        W 1117   2.813  21.116  12.980
34335W        W 1118  34.640   8.778  11.640
34336W        W 1119  27.467  37.621  11.675
34337W        W 1120  11.894  23.207   4.089
34338W        W 1121  41.873  21.230  14.103
34339W        W 1122   0.827  28.947   1.408
34340W        W 1123   4.663  23.739   0.197
34341W        W 1124  36.974  30.496  13.277
34342W        W 1125  10.908  16.103  10.945
34343W        W 1126  26.237  14.140   3.276
34344W        W 1127  20.987   5.858   4.187
34345W        W 1128   1.491  42.990   0.730
34346W        W 1129  12.000  27.257   1.531
34347W        W 1130  38.032  32.370   0.883
34348W        W 1131  38.629  10.373  11.124
34349W        W 1132  38.814  38.296  14.383
34350W        W 1133   6.674  19.515  10.460
34351W        W 1134  14.583  36.576  14.550
34352W        W 1135  41.763  19.070   1.256
34353W        W 1136   0.899  35.443   1.451
34354W        W 1137  27.852  17.676  14.923
34355W        W 1138  35.688  32.673  10.855
34356W        W 1139   8.730  11.699  13.488
34357W        W 1140  31.154  41.911  11.687
34358W        W 1141  28.175  35.966  11.208
34359W        W 1142  28.715   1.273  14.838
34360W        W 1143  44.611  37.372  14.026
34361W        W 1144  18.783  13.233   2.243
34362W        W 1145   9.823  17.880  11.969
34363W        W 1146  18.791  40.826   0.790
34364W        W 1147  23.729  28.978  11.452
34365W        W 1148  30.614  29.023  12.377
34366W        W 1149   2.837   6.213  13.853
34367W        W 1150  29.087  35.861   4.066
34368W        W 1151  39.270  28.470   1.025
34369W        W 1152  34.045  19.338   3.770
34370W        W 1153  34.996  11.771   4.875
34371W        W 1154  22.649  29.925  13.919
34372W        W 1155  35.128  18.825  13.471
34373W        W 1156  10.307   8.345   0.728
34374W        W 1157  29.241  13.519  14.008
34375W        W 1158  24.587  34.667  13.320
34376W        W 1159  40.061  42.465  14.313
34377W        W 1160  30.924  41.280   0.783
34378W        W 1161   0.982  28.167  13.614
34379W        W 1162  36.056   1.944   1.576
34380W        W 1163   2.410  42.290  13.325
34381W        W 1164  37.883  42.565  12.553
34382W        W 1165  35.498  28.554  11.419
34383W        W 1166   0.461  27.740  14.169
34384W        W 1167   7.773  25.178   0.833
34385W        W 1168  24.687  20.693  12.135
34386W        W 1169  13.776  20.706  10.606
34387W        W 1170  43.725  24.348   3.644
34388W        W 1171   5.660  33.293   0.459
34389W        W 1172  34.591  39.233   2.765
34390W        W 1173   9.339  40.358  10.288
34391W        W 1174  25.727  17.955   0.266
34392W        W 1175  30.460   8.652   0.071
34393W        W 1176  20.452  22.214   1.826
34394W        W 1177  36.161  33.550  14.890
34395W        W 1178  41.755   4.634   4.525
34396W        W 1179   6.274  26.721   4.755
34397W        W 1180  14.948  21.617   4.269
34398W        W 1181  12.150  31.112   1.771
34399W        W 1182  11.091  17.998   0.241
34400W        W 1183  17.315  37.073   1.955
34401W        W 1184  28.043   8.686  11.590
34402W        W 1185  19.558   3.036  13.887
34403W        W 1186   7.597  12.280   1.297
34404W        W 1187  13.146  29.426   4.279
34405W        W 1188  11.140   1.194  10.795
34406W        W 1189  37.148  23.161  12.082
34407W        W 1190  23.056  25.130   1.293
34408W        W 1191  24.029  24.229  13.978
34409W        W 1192  18.687  17.221  11.857
34410W        W 1193  43.098   1.822   0.922
34411W        W 1194  44.850  42.066  12.244
34412W        W 1195  11.656  21.055  10.946
34413W        W 1196  24.196  40.443  11.777
34414W        W 1197  26.658  38.023   2.712
34415W        W 1198  16.071  12.773  13.737
34416W        W 1199  21.701  37.213   3.459
34417W        W 1200  26.086  36.199   0.885
34418W        W 1201  43.874  38.585  14.869
34419W        W 1202  34.867  43.430   2.308
34420W        W 1203  32.631   7.238  13.441
34421W        W 1204   1.685  40.878  12.792
34422W        W 1205  36.515  39.490   2.575
34423W        W 1206  21.499  22.037  13.635
34424W        W 1207  33.894  21.748  11.672
34425W        W 1208  12.827  43.531   0.778
34426W        W 1209  31.057  28.418   3.182
34427W        W 1210  16.619   7.851  10.803
34428W        W 1211  38.398  14.843  11.986
34429W        W 1212  30.319   1.523  11.844
34430W        W 1213   0.973   2.433  14.861
34431W        W 1214   2.469  40.795  14.376
34432W        W 1215  40.037  30.162   2.313
34433W        W 1216  38.107   5.482   3.115
34434W        W 1217   8.551  39.033  12.954
34435W        W 1218  27.621   9.340   4.743
34436W        W 1219  43.303  20.081  12.411
34437W        W 1220   0.893   5.613   0.868
34438W        W 1221   5.989   2.944  11.989
34439W        W 1222  31.233  27.149  11.521
34440W        W 1223  37.660  19.849   3.716
34441W        W 1224   1.445  11.391   0.801
34442W        W 1225  40.496  31.061   4.674
34443W        W 1226  38.443  14.286   1.245
34444W        W 1227  29.971  23.913  14.417
34445W        W 1228  44.460   5.161  12.390
34446W        W 1229   8.304  44.250   4.511
34447W        W 1230  36.418  32.525  11.583
34448W        W 1231  16.126  23.037  11.961
34449W        W 1232  11.307  33.374  10.691
34450W        W 1233  25.748  32.878   3.667
34451W        W 1234  36.969  41.177   3.209
34452W        W 1235  12.906  44.145   2.735
34453W        W 1236  18.275  27.753   1.243
34454W        W 1237  36.805  27.125  13.826
34455W        W 1238   5.828  44.479  12.540
34456W        W 1239  18.607  23.486  14.052
34457W        W 1240  43.475  11.719  12.933
34458W        W 1241  28.787   6.730   0.374
34459W        W 1242  30.463   3.377   2.808
34460W        W 1243  37.953  14.296  12.105
34461W        W 1244  23.165  11.733   0.969
34462W        W 1245  35.040  15.378   1.704
34463W        W 1246  43.404   3.175  11.651
34464W        W 1247   1.893  25.117  14.744
34465W        W 1248  42.369  30.899   0.565
34466W        W 1249  31.120  42.230   2.608
34467W        W 1250  30.536  35.872  14.373
34468W        W 1251  10.791  33.208  10.596
34469W        W 1252  14.043  42.464  12.872
34470W        W 1253   3.673  14.211   1.972
34471W        W 1254  11.309   5.900  10.268
34472W        W 1255   1.516   4.735  13.773
34473W        W 1256  37.011  33.652  13.389
34474W        W 1257  19.117  19.035  12.404
34475W        W 1258   0.308  29.678   3.422
34476W        W 1259  16.656  28.716  12.129
34477W        W 1260  44.722   6.210   4.566
34478W        W 1261  36.936   7.649   1.920
34479W        W 1262  14.210  44.487   2.314
34480W        W 1263  15.183  30.704   2.298
34481W        W 1264  26.573  16.072   4.882
34482W        W 1265  36.881  11.695  13.495
34483W        W 1266   9.083  23.098  12.767
34484W        W 1267   1.836   8.945   4.122
34485W        W 1268  25.514  32.484   0.881
34486W        W 1269  26.751   4.812  11.067
34487W        W 1270  42.425  32.515  12.530
34488W        W 1271  28.568   5.713   2.811
34489W        W 1272  40.878   8.127  12.439
34490W        W 1273  40.555  18.075  13.489
34491W        W 1274  18.936  31.660   3.176
34492W        W 1275  34.777   1.199   2.362
34493W        W 1276   1.422  12.820   1.785
34494W        W 1277  10.805  41.295   4.779
34495W        W 1278  34.033   5.364   4.664
34496W        W 1279  15.026   3.185   1.280
34497W        W 1280  40.428   9.098   2.260
34498W        W 1281  16.270  25.175  14.861
34499W        W 1282  28.176   0.849  12.573
34500W        W 1283  33.184  18.854  13.237
34501W        W 1284  43.388   8.121   3.598
34502W        W 1285  43.626   5.707  11.092
34503W        W 1286   5.952  43.410  11.676
34504W        W 1287  16.379  16.839   0.266
34505W        W 1288  26.065   9.781   1.118
34506W        W 1289  31.073  17.041   0.870
34507W        W 1290  27.143  17.288  13.931
34508W        W 1291  28.856  40.072  14.842
34509W        W 1292  41.408   5.302  11.178
34510W        W 1293   3.199  26.200  10.736
34511W        W 1294  14.909  42.438   2.237
34512W        W 1295  18.226  24.408   3.870
34513W        W 1296  32.151  14.070  12.508
34514W        W 1297  34.718  19.011   3.144
34515W        W 1298  29.533  34.911  12.549
34516W        W 1299   9.972  22.137   1.461
34517W        W 1300  42.780   4.336   1.977
34518W        W 1301   9.465  44.365  13.388
34519W        W 1302  12.855  40.816  12.480
34520W        W 1303   3.964  12.751  11.545
34521W        W 1304  33.137   7.030  11.488
34522W        W 1305  12.118  15.261  12.935
34523W        W 1306  27.085  36.670   2.665
34524W        W 1307  13.596  34.850  10.298
34525W        W 1308  14.665  39.909   4.718
34526W        W 1309  32.404   2.238  12.423
34527W        W 1310  26.022   4.882  13.528
34528W        W 1311   8.942  28.305  11.150
34529W        W 1312  38.060  35.111  12.168
34530W        W 1313  28.476  44.916   3.385
34531W        W 1314   4.871  29.659  10.857
34532W        W 1315  37.655  39.539   0.911
34533W        W 1316  26.958   1.606  14.256
34534W        W 1317   7.741  15.423   5.035
34535W        W 1318  34.828   1.862  14.830
34536W        W 1319   8.046  13.673   3.818
34537W        W 1320  20.518  23.639  13.380
34538W        W 1321  22.467  44.713   5.110
34539W        W 1322  35.924  13.823  12.569
34540W        W 1323  13.474  19.667   1.419
34541W        W 1324  43.838  20.158  11.104
34542W        W 1325   7.168   6.367   4.079
34543W        W 1326   9.465  40.396   4.022
34544W        W 1327  13.227  23.243   2.707
34545W        W 1328   0.860   9.571   3.284
34546W        W 1329  19.524  13.762  13.916
34547W        W 1330  31.961  18.609   4.767
34548W        W 1331  18.610  44.545  12.530
34549W        W 1332  20.114  28.907   2.263
34550W        W 1333  11.349  35.181   4.459
34551W        W 1334  40.097  28.023  13.383
34552W        W 1335  43.313   4.572   4.657
34553W        W 1336  19.801  17.140   3.352
34554W        W 1337  21.206  26.030  12.944
34555W        W 1338   6.471  38.069   4.930
34556W        W 1339   0.435  20.121  14.992
34557W        W 1340  26.099  14.619   1.378
34558W        W 1341  15.586  11.347   2.790
34559W        W 1342  24.565  15.082   4.100
34560W        W 1343  39.442   2.904  13.460
34561W        W 1344  35.539   6.446   0.356
34562W        W 1345  38.836  27.291   4.398
34563W        W 1346   3.881  44.364  13.440
34564W        W 1347  42.674   2.022   4.795
34565W        W 1348  21.334  10.781   4.173
34566W        W 1349  22.572  28.760  12.752
34567W        W 1350   7.137   5.518   3.594
34568W        W 1351   5.808  21.046   0.906
34569W        W 1352   8.092  12.766   1.843
34570W        W 1353  37.002  39.761  13.907
34571W        W 1354  43.794   6.475  14.226
34572W        W 1355   6.815  34.112   3.164
34573W        W 1356  37.920  19.337   0.254
34574W        W 1357  28.584  13.695  10.679
34575W        W 1358   7.847  30.314  14.512
34576W        W 1359  40.065  19.241   0.739
34577W        W 1360  28.460   1.376  12.815
34578W        W 1361  30.223  32.752  14.355
34579W        W 1362  13.887  10.264  13.522
34580W        W 1363  12.890  33.731   0.612
34581W        W 1364   4.330  35.155  14.843
34582W        W 1365   6.858  32.529  11.085
34583W        W 1366  44.340  38.230   2.339
34584W        W 1367  18.329  21.015  12.557
34585W        W 1368  22.993  42.927  14.746
34586W        W 1369  14.240  14.149  14.729
34587W        W 1370  36.058  40.305   4.535
34588W        W 1371  44.392   9.819  11.276
34589W        W 1372  44.205  20.013   4.350
34590W        W 1373   2.007  41.149   0.221
34591W        W 1374   5.866   7.348  10.755
34592W        W 1375  28.126  27.973  10.431
34593W        W 1376  37.817  35.446   0.652
34594W        W 1377  14.763   7.462   5.135
34595W        W 1378  36.621  39.635  14.478
34596W        W 1379  28.178  40.485  14.298
34597W        W 1380   8.195  21.273   0.920
34598W        W 1381  32.871  15.379  14.385
34599W        W 1382  18.670  28.955  10.641
34600W        W 1383   0.953  29.567   5.055
34601W        W 1384  31.858  42.646  12.587
34602W        W 1385  31.239   3.283  12.939
34603W        W 1386   8.069   5.719   4.816
34604W        W 1387  21.659  29.264  14.407
34605W        W 1388  32.067  13.962  11.624
34606W        W 1389  41.731   4.693  14.474
34607W        W 1390  16.795  11.795  10.828
34608W        W 1391   4.203  33.652  14.581
34609W        W 1392  30.524  10.369  12.298
34610W        W 1393  22.969   0.051  14.394
34611W        W 1394  38.244  16.294  12.007
34612W        W 1395  27.477  22.830   2.137
34613W        W 1396  19.663  23.301   2.405
34614W        W 1397   6.138  21.470  10.235
34615W        W 1398   7.760  36.428  10.639
34616W        W 1399  11.560  11.602  13.027
34617W        W 1400  18.596  16.718  14.398
34618W        W 1401   2.712  16.167  12.435
34619W        W 1402  26.550  43.600   3.572
34620W        W 1403   7.775  17.813  12.911
34621W        W 1404  43.910   0.047   0.879
34622W        W 1405  32.221  42.867  13.906
34623W        W 1406   6.809  40.981  11.596
34624W        W 1407  32.860  32.131  11.719
34625W        W 1408  41.871  35.044  13.176
34626W        W 1409  38.515  44.548  12.099
34627W        W 1410  31.372  39.075   0.875
34628W        W 1411  28.332  40.013  14.403
34629W        W 1412  25.712   2.762  14.801
34630W        W 1413  13.259  11.028   3.356
34631W        W 1414  30.466  13.910  13.423
34632W        W 1415   1.995   1.786   3.162
34633W        W 1416  25.490  25.960  13.132
34634W        W 1417  32.616  39.746  13.288
34635W        W 1418   1.549  34.682   1.780
34636W        W 1419  14.563  15.875   0.229
34637W        W 1420  20.377  32.388  10.811
34638W        W 1421  28.597  43.519  10.672
34639W        W 1422   5.785  29.444  14.747
34640W        W 1423  19.156  19.264  14.525
34641W        W 1424  16.563  40.321   3.684
34642W        W 1425   4.366  11.174   4.450
34643W        W 1426   7.195  19.082   3.430
34644W        W 1427  36.144  40.395   1.428
34645W        W 1428  28.604  31.448   3.861
34646W        W 1429  24.591  20.847   3.616
34647W        W 1430  17.656  44.980  14.412
34648W        W 1431  28.451   8.888  12.849
34649W        W 1432   5.914  26.718   0.393
34650W        W 1433  26.320  29.318   1.311
34651W        W 1434  42.861   8.949  14.821
34652W        W 1435  40.758   8.000  14.306
34653W        W 1436  27.195  29.842  11.096
34654W        W 1437  25.453  19.861   3.558
34655W        W 1438   2.395  14.257  13.613
34656W        W 1439  30.449  41.364  11.194
34657W        W 1440  33.901  16.679  11.131
34658W        W 1441  25.595  19.781  14.383
34659W        W 1442  19.610  22.725  12.491
34660W        W 1443  10.994  38.951  14.464
34661W        W 1444  21.493  39.447  14.007
34662W        W 1445  17.203   2.925   1.297
34663W        W 1446  29.894  33.269  11.922
34664W        W 1447   5.849   1.945  12.664
34665W        W 1448  19.422  34.618  13.616
34666W        W 1449   5.338  35.001  14.425
34667W        W 1450  12.978   2.837  14.973
34668W        W 1451   8.223  14.611   0.434
34669W        W 1452  11.630  19.226  10.737
34670W        W 1453   1.993  14.607   4.129
34671W        W 1454  39.371  29.498   2.596
34672W        W 1455  32.506   3.424  12.153
34673W        W 1456  12.802  34.804  13.399
34674W        W 1457  29.987  25.964   1.884
34675W        W 1458  40.335  20.263   3.792
34676W        W 1459  18.162  35.854   1.003
34677W        W 1460  42.660  25.852   1.239
34678W        W 1461  29.885   4.461  12.407
34679W        W 1462  26.630  23.118  11.599
34680W        W 1463  32.513  17.828  10.306
34681W        W 1464  39.850   4.890   4.601
34682W        W 1465  42.444  29.168  11.777
34683W        W 1466  15.843  11.724   3.673
34684W        W 1467  43.800  31.690  12.118
34685W        W 1468  15.710  10.657  10.969
34686W        W 1469  15.820  41.282  13.315
34687W        W 1470  28.015  27.254   1.916
34688W        W 1471  39.453   6.276   1.256
34689W        W 1472   5.856   2.240   0.382
34690W        W 1473  29.962   2.465   0.445
34691W        W 1474  44.991  27.413   2.295
34692W        W 1475   3.039   1.977   4.529
34693W        W 1476  37.444   7.785   3.092
34694W        W 1477  19.812   6.409   2.791
34695W        W 1478   9.769  37.534   1.888
34696W        W 1479   1.919  26.039  12.993
34697W        W 1480   9.480  15.792  12.152
34698W        W 1481  26.003  22.694  12.486
34699W        W 1482  33.498  28.401  12.963
34700W        W 1483  10.124  17.719  13.939
34701W        W 1484  36.309   3.877   1.256
34702W        W 1485  24.986  43.994   1.778
34703W        W 1486   4.892  13.698  13.458
34704W        W 1487  29.665  37.953  13.614
34705W        W 1488  34.596  41.359  12.229
34706W        W 1489  40.406  26.141   2.375
34707W        W 1490  10.249  30.631  12.997
34708W        W 1491  31.826  24.347   4.110
34709W        W 1492  26.169  28.438   2.424
34710W        W 1493  15.870  15.844  14.426
34711W        W 1494  34.091   9.300   4.630
34712W        W 1495  30.016  37.604   2.834
34713W        W 1496  33.944  17.098  14.468
34714W        W 1497   0.010  37.550   3.314
34715W        W 1498  12.368  44.843  10.453
34716W        W 1499  40.867  32.668  14.622
34717W        W 1500  35.904  27.937  13.022
34718W        W 1501  27.862  10.946  13.610
34719W        W 1502  11.851   8.553  12.481
34720W        W 1503  33.235  13.693  14.235
34721W        W 1504   2.884  44.756  11.676
34722W        W 1505  13.579  35.723   1.498
34723W        W 1506  21.268  23.475   3.777
34724W        W 1507   3.282   5.900   3.305
34725W        W 1508  35.696  17.540   2.447
34726W        W 1509  22.649  43.590   4.422
34727W        W 1510  19.266   5.577  10.686
34728W        W 1511  29.994  39.724   9.519
34729W        W 1512  30.170   8.139   1.789
34730W        W 1513  22.957  28.763   4.577
34731W        W 1514  16.009  12.205   0.283
34732W        W 1515  41.470  39.967   3.143
34733W        W 1516  21.767   4.430  12.020
34734W        W 1517  40.259  16.217   1.517
34735W        W 1518   0.992   6.231   4.080
34736W        W 1519  39.551  42.442  14.350
34737W        W 1520   0.871  30.737   1.750
34738W        W 1521  14.905  30.376  11.972
34739W        W 1522  30.665  22.911  10.309
34740W        W 1523  36.092   1.446  12.189
34741W        W 1524  43.294   3.364   5.089
34742W        W 1525  26.418  16.859   0.119
34743W        W 1526  43.854  31.053  11.572
34744W        W 1527   2.512  24.987  11.219
34745W        W 1528  36.127  31.210   3.690
34746W        W 1529  11.848  44.748  12.911
34747W        W 1530  15.637  21.759   0.837
34748W        W 1531  10.525   1.915  13.595
34749W        W 1532   4.666  37.095   3.716
34750W        W 1533  17.261  13.708   3.680
34751W        W 1534  35.809  38.463  11.654
34752W        W 1535  31.590  32.526  12.447
34753W        W 1536   7.926   0.128   4.743
34754W        W 1537  30.429   5.707  10.676
34755W        W 1538   1.418  34.364   4.682
34756W        W 1539  23.260   5.869   2.736
34757W        W 1540  34.347  14.289   3.219
34758W        W 1541  18.321  15.373  12.116
34759W        W 1542  25.570  35.270   0.236
34760W        W 1543  39.850  40.453   0.343
34761W        W 1544  23.020  37.982  11.960
34762W        W 1545  13.865  44.348   0.096
34763W        W 1546  21.796  30.938  13.847
34764W        W 1547  22.904  41.033  13.953
34765W        W 1548   4.642  23.731   3.139
34766W        W 1549  33.329  24.217  10.956
34767W        W 1550  14.267  26.591  11.132
34768W        W 1551  10.673  21.366  10.357
34769W        W 1552  10.909   3.650  10.656
34770W        W 1553  43.370   9.096   1.108
34771W        W 1554  42.032  29.544   1.512
34772W        W 1555  25.172  44.128  11.506
34773W        W 1556  43.405  16.998   1.997
34774W        W 1557   6.774  21.167   0.465
34775W        W 1558  11.850  32.229  10.839
34776W        W 1559   7.210  14.730  14.475
34777W        W 1560  16.034  21.149   0.239
34778W        W 1561  32.494   1.955   4.220
34779W        W 1562  41.315   0.611   0.799
34780W        W 1563   8.939   1.823  12.043
34781W        W 1564   5.175  30.654  14.279
34782W        W 1565  15.261  24.243   0.481
34783W        W 1566  23.424   8.691   5.042
34784W        W 1567  13.313  18.433  13.932
34785W        W 1568   8.933  17.626   4.112
34786W        W 1569  17.458  37.435   0.024
34787W        W 1570  14.270  37.362  14.402
34788W        W 1571   9.975  44.274  12.383
34789W        W 1572  21.972  17.148  13.466
34790W        W 1573  30.905  19.004  12.566
34791W        W 1574   3.854  38.862   1.018
34792W        W 1575  33.636  11.244  11.571
34793W        W 1576   0.186  33.339   4.389
34794W        W 1577  35.689  16.734  12.618
34795W        W 1578  15.174  15.065  11.611
34796W        W 1579  16.873   6.971  11.155
34797W        W 1580  42.843  36.897   2.889
34798W        W 1581  41.893  21.670   0.213
34799W        W 1582   0.253  16.885   4.575
34800W        W 1583  11.654  42.727   4.086
34801W        W 1584  42.010   3.249   4.651
34802W        W 1585  38.035  22.997   2.245
34803W        W 1586  33.860   3.001   2.352
34804W        W 1587   3.894  18.590   1.199
34805W        W 1588  35.965  34.517   1.210
34806W        W 1589   4.385  23.953  12.864
34807W        W 1590  38.898   7.194  10.558
34808W        W 1591  21.360  14.270  13.823
34809W        W 1592  31.878   7.695   0.376
34810W        W 1593  39.998   0.038   3.774
34811W        W 1594  17.721   8.736  13.165
34812W        W 1595  38.101   3.365   0.302
34813W        W 1596  30.628  10.417   1.493
34814W        W 1597  16.072   7.367  11.124
34815W        W 1598  10.455  23.542  12.952
34816W        W 1599  19.270   6.901  12.282
34817W        W 1600  40.858  43.378   1.670
34818W        W 1601   7.217  20.481   2.664
34819W        W 1602  26.303  41.483   5.431
34820W        W 1603  12.159  39.110   3.226
34821W        W 1604  23.064  39.245  13.654
34822W        W 1605  22.093  10.672  10.669
34823W        W 1606  29.984  42.510   1.407
34824W        W 1607   6.400  42.280   0.705
34825W        W 1608  36.437  24.330   3.773
34826W        W 1609  10.471   8.356  12.205
34827W        W 1610  15.144  35.395  11.594
34828W        W 1611  27.661  17.552  11.359
34829W        W 1612  18.513  10.138   9.950
34830W        W 1613  25.458  13.183   3.628
34831W        W 1614  19.508  40.111  11.471
34832W        W 1615   8.608  39.711  10.739
34833W        W 1616  10.132  26.512   0.209
34834W        W 1617  39.589   6.371   3.249
34835W        W 1618  31.080  32.547   1.706
34836W        W 1619  15.092   4.184  13.519
34837W        W 1620   1.363  36.581   0.313
34838W        W 1621  23.492   9.034   0.380
34839W        W 1622   4.312  44.083   4.182
34840W        W 1623  13.632  30.589  10.618
34841W        W 1624  16.710  38.283  10.651
34842W        W 1625  26.123  41.972  14.861
34843W        W 1626   7.456  14.673   3.762
34844W        W 1627  20.524  34.123   3.114
34845W        W 1628  37.396   2.805  11.632
34846W        W 1629  18.015  38.916  12.539
34847W        W 1630  30.025  32.053   1.464
34848W        W 1631   4.767   4.250   2.638
34849W        W 1632   6.310  14.550  10.896
34850W        W 1633  28.713  23.657   1.276
34851W        W 1634  29.974  26.121   0.943
34852W        W 1635  20.573  43.875  11.425
34853W        W 1636  30.769  36.048  12.903
34854W        W 1637   9.247  42.757  14.820
34855W        W 1638  30.369  10.804  14.172
34856W        W 1639   5.193  26.749   4.613
34857W        W 1640  26.052  15.609   2.863
34858W        W 1641  31.918  41.831  12.117
34859W        W 1642   8.211  22.029   4.644
34860W        W 1643   8.813  37.560  13.530
34861W        W 1644   1.769   8.106   1.432
34862W        W 1645   1.579  33.005   1.788
34863W        W 1646  25.110  28.563  12.060
34864W        W 1647   9.045  25.434  13.014
34865W        W 1648   1.021   6.281   3.560
34866W        W 1649   6.649  25.008   1.264
34867W        W 1650  23.307  12.799  14.051
34868W        W 1651  43.508  33.355   3.917
34869W        W 1652   9.722   4.761   3.045
34870W        W 1653  13.689  28.581   3.050
34871W        W 1654  12.400   5.428   2.216
34872W        W 1655  31.033  14.297   1.670
34873W        W 1656   7.144   0.689   2.806
34874W        W 1657  11.765  24.995  14.052
34875W        W 1658  21.679   8.342   2.453
34876W        W 1659  24.615  41.542  14.153
34877W        W 1660   5.407  41.381  14.441
34878W        W 1661   7.221  12.550  14.319
34879W        W 1662  41.435  12.449  12.647
34880W        W 1663  28.117  15.663  10.566
34881W        W 1664   9.790   0.752   0.134
34882W        W 1665  18.761  35.031  13.048
34883W        W 1666  32.314   8.975   0.294
34884W        W 1667  33.112  23.107  10.788
34885W        W 1668  18.318  32.262   3.639
34886W        W 1669  35.939  28.502  10.651
34887W        W 1670   8.376  13.800  12.844
34888W        W 1671  39.389  35.431   4.062
34889W        W 1672  11.192  35.962  13.938
34890W        W 1673  18.567   4.697   2.606
34891W        W 1674  19.613  26.810  14.408
34892W        W 1675  22.621  31.567  12.336
34893W        W 1676  17.164   1.716   3.758
34894W        W 1677   6.895  22.671   1.296
34895W        W 1678  40.861  20.778   2.200
34896W        W 1679  39.518  22.420  14.778
34897W        W 1680   9.086  37.136   3.078
34898W        W 1681  20.135   6.531   3.157
34899W        W 1682  16.988  29.128   0.243
34900W        W 1683  30.448  24.941  11.894
34901W        W 1684  24.455  25.933   3.168
34902W        W 1685  26.714   4.300  12.391
34903W        W 1686  30.176   2.413  12.848
34904W        W 1687   6.345   1.602   1.324
34905W        W 1688   7.821  13.035  11.554
34906W        W 1689  37.932  28.631  13.018
34907W        W 1690  31.949  38.279   2.469
34908W        W 1691  41.085   5.461  13.070
34909W        W 1692   2.789  11.943   4.134
34910W        W 1693  42.370  42.805   3.223
34911W        W 1694  24.789   1.776   0.423
34912W        W 1695   7.524  35.315  13.350
34913W        W 1696  14.307   9.210   1.792
34914W        W 1697  43.127  21.952  10.104
34915W        W 1698  38.631  33.917   1.467
34916W        W 1699  16.698  20.710  13.696
34917W        W 1700   4.870  32.946  10.690
34918W        W 1701  42.760  28.174   4.167
34919W        W 1702  17.834  20.669   1.008
34920W        W 1703  21.646  43.211   2.360
34921W        W 1704   2.408  32.998   4.094
34922W        W 1705  20.530  18.690   1.471
34923W        W 1706   4.769  43.305  14.481
34924W        W 1707   8.626  34.638  13.996
34925W        W 1708  29.280  19.223   3.661
34926W        W 1709  16.767   6.005   3.649
34927W        W 1710  13.454  29.020  10.607
34928W        W 1711  29.572  17.103   3.862
34929W        W 1712  38.761  21.147  13.979
34930W        W 1713  43.997   1.934   4.854
34931W        W 1714  40.821  36.466  14.463
34932W        W 1715   8.197  17.798  13.983
34933W        W 1716  27.503  43.597  13.584
34934W        W 1717  18.684  35.963  10.711
34935W        W 1718  43.117  15.392  13.063
34936W        W 1719  11.676  41.980  10.275
34937W        W 1720  35.997  22.667  10.547
34938W        W 1721  19.686   2.785  14.352
34939W        W 1722  28.800  36.516   0.819
34940W        W 1723  22.718  15.111  10.583
34941W        W 1724  41.196  22.702  10.526
34942W        W 1725  23.584  20.497   3.157
34943W        W 1726   9.206  35.038  10.855
34944W        W 1727  10.672  26.271  14.288
34945W        W 1728  40.250  34.471  11.963
34946W        W 1729  36.887  38.388   0.452
34947W        W 1730  22.030  37.140   2.656
34948W        W 1731  38.932  20.253   3.882
34949W        W 1732  22.098   0.752   4.506
34950W        W 1733  32.960  12.636   3.673
34951W        W 1734  31.433  28.200  10.643
34952W        W 1735  39.881  36.197   1.301
34953W        W 1736  29.806  44.341  13.985
34954W        W 1737  28.469  11.215   3.295
34955W        W 1738   1.529  43.819   4.693
34956W        W 1739  13.501   9.678   0.033
34957W        W 1740  15.428  43.105  10.328
34958W        W 1741  19.575  12.042  14.900
34959W        W 1742  31.366   6.213  11.169
34960W        W 1743  14.628   7.114  13.931
34961W        W 1744   5.254  37.059  13.900
34962W        W 1745  23.113  34.138   0.489
34963W        W 1746  35.883  27.751   2.860
34964W        W 1747   5.815   5.609   4.765
34965W        W 1748  27.194  39.016  13.054
34966W        W 1749  23.676  26.390   0.697
34967W        W 1750  18.190  39.167  10.119
34968W        W 1751  16.842  15.272   1.222
34969W        W 1752   4.226   1.034   4.104
34970W        W 1753  44.442   1.576  13.306
34971W        W 1754  34.439   4.715   3.534
34972W        W 1755  41.875  35.518  13.424
34973W        W 1756  41.715  42.332   1.002
34974W        W 1757  38.804  20.082  10.918
34975W        W 1758  13.879  31.421  11.681
34976W        W 1759  38.377  41.462   1.914
34977W        W 1760   6.723  23.317  14.483
34978W        W 1761  10.526  27.184   0.389
34979W        W 1762  10.375  22.056  13.899
34980W        W 1763  19.619  36.387   1.333
34981W        W 1764  30.131  23.977   0.462
34982W        W 1765  27.697  30.141   4.762
34983W        W 1766  13.829   8.168  14.940
34984W        W 1767  26.773  37.755   0.602
34985W        W 1768  14.206   6.567  10.833
34986W        W 1769   4.754  24.645  10.756
34987W        W 1770  42.970  23.013  12.080
34988W        W 1771  38.217  18.977  10.797
34989W        W 1772   4.274  38.259   3.703
34990W        W 1773  11.358  26.157   0.918
34991W        W 1774  35.457  10.654   9.604
34992W        W 1775  20.079   6.026   4.076
34993W        W 1776   6.061  28.968   3.608
34994W        W 1777  44.269  40.562  13.593
34995W        W 1778   0.081  29.554   0.722
34996W        W 1779  16.497  11.129   2.467
34997W        W 1780  27.105  22.758   1.619
34998W        W 1781  16.023  21.643   0.479
34999W        W 1782  31.404  41.007  10.714
35000W        W 1783   0.129  44.693  13.991
35001W        W 1784  42.846  44.292  11.525
35002W        W 1785  27.684  27.672  11.150
35003W        W 1786  32.100  44.969  10.637
35004W        W 1787   0.243  23.674  12.448
35005W        W 1788   8.689  40.296   5.115
35006W        W 1789  40.430  19.543  14.436
35007W        W 1790   7.813  22.358  12.649
35008W        W 1791  11.146  29.661   3.059
35009W        W 1792  25.798  16.495   4.473
35010W        W 1793  11.865  36.500  10.667
35011W        W 1794  17.283  27.669  11.671
35012W        W 1795  28.676   2.324  13.124
35013W        W 1796  43.376  39.749   0.857
35014W        W 1797   9.164   5.368  11.378
35015W        W 1798  19.058  14.164   1.043
35016W        W 1799  14.799   2.802   4.255
35017W        W 1800   1.848  27.103   1.904
35018W        W 1801  30.629  13.981   3.673
35019W        W 1802  16.344  31.437  14.940
35020W        W 1803  43.578  38.804   1.616
35021W        W 1804  36.677  10.214  14.969
35022W        W 1805  18.232  17.482  10.611
35023W        W 1806   4.284   4.239   4.426
35024W        W 1807  20.991  24.024  12.098
35025W        W 1808  31.400  10.205  12.577
35026W        W 1809  39.973  22.954   0.681
35027W        W 1810  15.249   5.543  11.101
35028W        W 1811   5.989  13.293   4.448
35029W        W 1812  27.580  19.600  10.603
35030W        W 1813  20.638  34.961  12.313
35031W        W 1814   3.911  24.557  14.068
35032W        W 1815   4.107  41.202   4.581
35033W        W 1816  22.280   9.874   0.991
35034W        W 1817  34.073  11.276  10.583
35035W        W 1818  30.512  17.098   4.322
35036W        W 1819  22.977  15.192  12.369
35037W        W 1820   8.525  18.683  11.069
35038W        W 1821  32.002  22.119  10.759
35039W        W 1822  26.690   0.437   4.335
35040W        W 1823  17.104   4.330  11.601
35041W        W 1824  24.672  25.441   3.155
35042W        W 1825  21.337  19.876   4.924
35043W        W 1826  27.040  42.446   3.871
35044W        W 1827  35.942  15.627   2.480
35045W        W 1828  41.814  33.303   5.107
35046W        W 1829  42.970  21.656  12.638
35047W        W 1830  34.016   5.748   9.938
35048W        W 1831  26.930   1.396  12.092
35049W        W 1832  13.776  19.968   4.102
35050W        W 1833  25.192  42.886  12.637
35051W        W 1834  17.668   7.426  12.812
35052W        W 1835  25.169   4.755   3.214
35053W        W 1836   0.485  19.864  11.962
35054W        W 1837  10.677  13.517  10.790
35055W        W 1838  37.406  32.815  11.121
35056W        W 1839  17.006  31.451   2.859
35057W        W 1840  43.908  43.815  14.428
35058W        W 1841   1.882  28.101  10.635
35059W        W 1842  21.774  19.637   2.646
35060W        W 1843  35.416  18.910  13.947
35061W        W 1844  40.423  11.322  10.888
35062W        W 1845  31.638  41.189   3.732
35063W        W 1846   3.403  33.995   2.188
35064W        W 1847  33.460  34.508  11.009
35065W        W 1848  29.993  23.274   1.553
35066W        W 1849  14.205  42.380   3.533
35067W        W 1850   8.474  11.635   0.953
35068W        W 1851  27.040  42.227  14.614
35069W        W 1852  16.350  13.024  10.715
35070W        W 1853  42.504  35.293  11.578
35071W        W 1854   2.922  31.393  12.711
35072W        W 1855  33.741  32.708   0.458
35073W        W 1856  40.926   5.989   5.366
35074W        W 1857   9.896   4.413   4.745
35075W        W 1858  37.770  40.309  10.879
35076W        W 1859  11.689  33.082   0.393
35077W        W 1860   7.012  29.099   0.743
35078W        W 1861  19.950  38.511  11.743
35079W        W 1862   5.016  36.950   4.664
35080W        W 1863  40.990   5.323   0.517
35081W        W 1864  11.139  36.651   1.389
35082W        W 1865  24.065  10.172   9.867
35083W        W 1866  12.053  21.249   4.212
35084W        W 1867  18.263  29.362   3.720
35085W        W 1868  38.954   1.728  13.883
35086W        W 1869  40.612  41.847  13.892
35087W        W 1870  19.091   1.779   4.703
35088W        W 1871  34.482  32.310   4.513
35089W        W 1872  20.217  22.670   1.753
35090W        W 1873  37.966  27.922   0.658
35091W        W 1874  32.266  13.103  13.644
35092W        W 1875  15.257   1.880   2.349
35093W        W 1876   3.389  14.620   0.785
35094W        W 1877  36.397  19.631   2.876
35095W        W 1878  24.667  29.486  12.372
35096W        W 1879  16.094  38.707  11.737
35097W        W 1880  12.339   9.294   4.448
35098W        W 1881   6.775  44.003  11.561
35099W        W 1882  16.747  18.801   0.393
35100W        W 1883   8.096   2.003  11.599
35101W        W 1884  40.308   5.597   4.885
35102W        W 1885  12.427  26.051   2.300
35103W        W 1886  41.149  26.241  11.929
35104W        W 1887  37.030  38.334   3.670
35105W        W 1888  13.494  40.197  10.219
35106W        W 1889  38.984  40.462  10.671
35107W        W 1890  39.539  23.465   3.715
35108W        W 1891  34.778  37.902  13.892
35109W        W 1892  14.613  36.962   0.795
35110W        W 1893  29.127  35.001   1.378
35111W        W 1894  30.148  20.601   4.615
35112W        W 1895  30.356  13.399   2.331
35113W        W 1896  11.725  21.200   9.758
35114W        W 1897  32.175  42.916  11.223
35115W        W 1898  38.983  42.563   1.599
35116W        W 1899  37.077  43.243   4.919
35117W        W 1900  24.686  29.562  13.591
35118W        W 1901  10.292  13.545  13.838
35119W        W 1902  20.711  17.270  10.713
35120W        W 1903  21.751   7.869  10.649
35121W        W 1904  20.320  18.784  11.157
35122W        W 1905  21.288  11.657   0.702
35123W        W 1906  35.991   8.691   4.650
35124W        W 1907  20.665  14.829  14.403
35125W        W 1908  16.878   9.720  13.142
35126W        W 1909  30.171   9.599  11.164
35127W        W 1910  27.775  35.419   3.246
35128W        W 1911   8.933  27.682   0.808
35129W        W 1912   1.843   5.956  11.929
35130W        W 1913  11.771   9.987   3.102
35131W        W 1914  38.503  44.282  12.560
35132W        W 1915  35.029  40.775  12.130
35133W        W 1916   8.940  17.624   3.194
35134W        W 1917  32.022  36.318   2.762
35135W        W 1918  41.422  42.780  12.442
35136W        W 1919  17.228  38.193  10.184
35137W        W 1920  12.820   0.167  12.065
35138W        W 1921  29.107  15.108  11.124
35139W        W 1922  10.193  22.174  10.748
35140W        W 1923   9.821  26.670  10.646
35141W        W 1924  32.232  28.411  13.453
35142W        W 1925   1.060  41.357  13.424
35143W        W 1926   4.904  40.749   0.151
35144W        W 1927  11.580   6.244  11.564
35145W        W 1928  14.656  37.561  11.547
35146W        W 1929  16.778  28.086  14.775
35147W        W 1930  44.924   5.117  12.917
35148W        W 1931   0.432   0.720  14.944
35149W        W 1932  11.331   5.888  11.139
35150W        W 1933  30.550  33.735   4.923
35151W        W 1934  41.898  40.431   5.124
35152W        W 1935  12.516  13.868   1.259
35153W        W 1936   8.770  40.745  10.708
35154W        W 1937  28.419  26.212  12.879
35155W        W 1938   3.465  14.820   3.957
35156W        W 1939  37.431  28.211  11.610
35157W        W 1940  22.520   5.785  14.463
35158W        W 1941  32.727  13.656  14.357
35159W        W 1942  35.452   1.240   3.628
35160W        W 1943  24.723   4.444  11.540
35161W        W 1944  10.802  18.366   4.509
35162W        W 1945  25.918  20.585   3.290
35163W        W 1946  36.809   4.276  13.936
35164W        W 1947  41.844  32.031  10.927
35165W        W 1948  37.565  30.577   0.475
35166W        W 1949   5.222   7.603   2.042
35167W        W 1950  13.868  22.592  13.088
35168W        W 1951  36.110   7.032  14.360
35169W        W 1952  39.629  36.387   0.917
35170W        W 1953  40.351   9.887   1.392
35171W        W 1954   3.721  31.635   3.391
35172W        W 1955  26.962  40.412  12.995
35173W        W 1956   5.592  18.790   3.352
35174W        W 1957  20.328  44.937   1.903
35175W        W 1958   4.325  40.531   1.312
35176W        W 1959  26.501  22.491   4.934
35177W        W 1960  43.039  43.141   0.595
35178W        W 1961  17.825  22.201  12.543
35179W        W 1962   3.355   3.820  14.875
35180W        W 1963   0.223  16.784   1.888
35181W        W 1964  29.673  39.350  10.585
35182W        W 1965  25.924  32.644  14.877
35183W        W 1966  39.409  13.755  11.071
35184W        W 1967   4.349   7.945   3.385
35185W        W 1968  31.952   5.496  12.189
35186W        W 1969  10.609  22.040   2.847
35187W        W 1970   6.685  20.810  12.436
35188W        W 1971   8.637  28.604   1.519
35189W        W 1972  21.539   5.274   2.234
35190W        W 1973  17.660   9.568  12.919
35191W        W 1974   2.259   9.994   1.256
35192W        W 1975   9.716  33.171   1.875
35193W        W 1976  21.205  36.044   2.777
35194W        W 1977  13.065  14.571  13.023
35195W        W 1978   7.024  25.449  11.678
35196W        W 1979  34.949  19.623   4.896
35197W        W 1980  20.022   0.501   0.523
35198W        W 1981  43.090   4.721   4.195
35199W        W 1982  41.992  29.830  14.742
35200W        W 1983  28.554   0.865  13.547
35201W        W 1984  19.699  26.936   2.935
35202W        W 1985   6.208  17.935  14.793
35203W        W 1986   5.293  28.674  12.557
35204W        W 1987   9.051   0.830  13.520
35205W        W 1988  36.068  42.966   0.736
35206W        W 1989  44.825  24.942   1.209
35207W        W 1990   9.667  30.573   1.728
35208W        W 1991  43.650  35.375   1.712
35209W        W 1992  31.549  42.669  11.727
35210W        W 1993   8.866  42.928   4.701
35211W        W 1994  36.310   1.248   4.637
35212W        W 1995  24.984  30.997  13.433
35213W        W 1996   1.928   6.177   3.106
35214W        W 1997  25.151   4.265   4.206
35215W        W 1998   1.335  17.804   0.351
35216W        W 1999  24.982   6.759   1.126
35217W        W 2000   5.699   5.367   3.805
35218W        W 2001  11.469   5.194  13.773
35219W        W 2002  39.823  16.187   0.828
35220W        W 2003   1.778  34.046   0.709
35221W        W 2004  32.199  39.145   4.341
35222W        W 2005   9.245  44.011  14.195
35223W        W 2006   9.116  10.931  10.257
35224W        W 2007   8.306  28.415  11.276
35225W        W 2008  33.373  32.132  14.867
35226W        W 2009  40.884  12.753   1.837
35227W        W 2010  37.061  37.937   0.745
35228W        W 2011  26.729  31.156   3.656
35229W        W 2012  43.074  36.199   5.053
35230W        W 2013  34.039  32.078   9.725
35231W        W 2014  12.304  32.898  10.622
35232W        W 2015  21.214  14.293   9.978
35233W        W 2016  19.591   4.154  11.553
35234W        W 2017  18.126   7.930  10.787
35235W        W 2018  20.621   7.694  14.795
35236W        W 2019  25.735  34.867  11.111
35237W        W 2020  35.412  36.502   4.543
35238W        W 2021  40.366  44.069   4.196
35239W        W 2022  27.729  17.744   0.989
35240W        W 2023  28.187  44.500   2.667
35241W        W 2024  28.422  32.457   2.256
35242W        W 2025   6.914   6.003   2.705
35243W        W 2026  20.688  29.067  12.143
35244W        W 2027  34.393  42.356  14.326
35245W        W 2028  33.575   9.922   0.765
35246W        W 2029  10.072  37.004   0.856
35247W        W 2030  15.060  37.037   2.305
35248W        W 2031  27.355  22.480   4.251
35249W        W 2032   9.271  26.074  13.665
35250W        W 2033  42.523  15.671  11.607
35251W        W 2034  16.686  23.488  13.865
35252W        W 2035  38.027  28.608  11.079
35253W        W 2036  30.903  19.670  10.658
35254W        W 2037  44.623  23.168   4.511
35255W        W 2038  36.924  38.848   0.734
35256W        W 2039  18.210  37.308  12.900
35257W        W 2040  13.135   8.848  12.498
35258W        W 2041  10.877  44.693  13.272
35259W        W 2042  22.296  31.223  12.138
35260W        W 2043  13.211  30.332  10.761
35261W        W 2044   3.954   5.764  14.079
35262W        W 2045  19.672  42.979  14.973
35263W        W 2046   2.388  28.819   0.332
35264W        W 2047  39.715  31.058   1.843
35265W        W 2048  25.971  15.079   3.185
35266W        W 2049  30.392  12.161   1.239
35267W        W 2050  16.529  18.761   1.460
35268W        W 2051  40.829  17.159  12.969
35269W        W 2052  13.836  11.387   4.130
35270W        W 2053  36.389  20.454   2.427
35271W        W 2054  42.036   7.308   0.478
35272W        W 2055  43.604  37.412  13.949
35273W        W 2056   2.785  30.121   1.944
35274W        W 2057  18.560  18.763   1.340
35275W        W 2058   7.136  30.961  11.531
35276W        W 2059  20.075   9.809  10.720
35277W        W 2060  23.338  13.356   0.962
35278W        W 2061  29.083   7.714  11.103
35279W        W 2062  33.965  29.139  12.618
35280W        W 2063   5.398  32.902   1.741
35281W        W 2064   7.352   9.854  13.686
35282W        W 2065  40.412   1.894  12.982
35283W        W 2066   6.451  14.453   0.044
35284W        W 2067  19.381  14.581   1.009
35285W        W 2068   8.206   8.417  11.742
35286W        W 2069  26.154   9.976  12.920
35287W        W 2070  34.558  23.499  12.108
35288W        W 2071  13.296  28.648  13.098
35289W        W 2072  27.153   4.726   3.703
35290W        W 2073   1.449  31.390   1.016
35291W        W 2074  23.119  21.348  11.176
35292W        W 2075  14.211  27.060  10.881
35293W        W 2076   3.305  43.312   5.158
35294W        W 2077  21.850   7.655  11.542
35295W        W 2078  11.824  21.485   5.074
35296W        W 2079  26.337  18.807  12.967
35297W        W 2080  27.479  21.441   4.096
35298W        W 2081   7.021  23.255   3.394
35299W        W 2082  43.512   6.398   2.291
35300W        W 2083  20.451  37.956  12.733
35301W        W 2084  34.523   8.907  14.507
35302W        W 2085   6.542  22.708  12.181
35303W        W 2086   3.156   6.077   1.994
35304W        W 2087   4.809  25.980  13.002
35305W        W 2088  27.460  28.041   4.627
35306W        W 2089  14.319  14.005  13.381
35307W        W 2090  28.522  32.061   1.559
35308W        W 2091  34.574  12.873  13.031
35309W        W 2092  44.351  29.669  11.106
35310W        W 2093  21.492   8.677   3.565
35311W        W 2094   9.402  26.988   2.860
35312W        W 2095  26.980   9.164   2.898
35313W        W 2096  43.851   3.924  14.431
35314W        W 2097  37.503  32.938  12.471
35315W        W 2098  23.725  23.910   3.761
35316W        W 2099   8.899  27.126   4.382
35317W        W 2100  13.600  24.576   3.422
35318W        W 2101  20.998  14.093  13.437
35319W        W 2102  28.442   0.823  12.129
35320W        W 2103  12.559  44.813   2.317
35321W        W 2104  38.739   7.171  13.512
35322W        W 2105  24.218  41.016   1.301
35323W        W 2106  28.560  35.187   2.786
35324W        W 2107  36.571   2.219   2.809
35325W        W 2108  18.817  33.391  12.457
35326W        W 2109  37.090  35.420  14.784
35327W        W 2110  14.075  10.871  12.046
35328W        W 2111  13.803   9.723  14.089
35329W        W 2112   3.503  22.711   1.686
35330W        W 2113  32.206  32.934  14.213
35331W        W 2114  29.427  28.340  10.127
35332W        W 2115  39.047  23.628   3.720
35333W        W 2116  30.028  11.123   0.906
35334W        W 2117  13.490  12.353   4.168
35335W        W 2118  42.223  15.520  13.173
35336W        W 2119  15.220  12.297   3.452
35337W        W 2120  22.647  13.166   4.462
35338W        W 2121  36.903  36.178   1.332
35339W        W 2122  31.501  44.758   1.879
35340W        W 2123  39.542  35.152  13.391
35341W        W 2124  17.274  34.736   5.026
35342W        W 2125  10.319  15.968  12.468
35343W        W 2126  23.185  12.042  12.931
35344W        W 2127   7.000  19.514   1.897
35345W        W 2128  14.558  20.120  11.411
35346W        W 2129   3.896   8.199   2.407
35347W        W 2130  37.309  17.260   2.744
35348W        W 2131  28.346  41.588  11.536
35349W        W 2132  15.103   0.276   3.301
35350W        W 2133  28.919  20.308  14.814
35351W        W 2134  26.362  30.886   4.286
35352W        W 2135  23.067  36.253  13.668
35353W        W 2136  42.481  10.639  10.432
35354W        W 2137  17.248   2.732  10.898
35355W        W 2138  19.647  36.000   2.286
35356W        W 2139  10.613   6.801  13.865
35357W        W 2140  31.143   0.678   2.718
35358W        W 2141   7.963  33.371   2.164
35359W        W 2142  43.837  30.378  12.375
35360W        W 2143   0.511  22.171  14.851
35361W        W 2144  16.605   8.184  14.351
35362W        W 2145   0.370  28.671   3.256
35363W        W 2146  29.091  10.060  14.778
35364W        W 2147  41.541   7.452  14.405
35365W        W 2148  30.862  42.555   3.666
35366W        W 2149   9.677  21.399   1.949
35367W        W 2150  19.381   1.091  13.401
35368W        W 2151  21.393  33.272  11.074
35369W        W 2152  21.060  41.977  11.059
35370W        W 2153  20.269  39.451   2.163
35371W        W 2154  36.383  35.030  14.256
35372W        W 2155  13.111   6.767  14.564
35373W        W 2156  15.318  40.981   2.802
35374W        W 2157  38.511  40.989   3.266
35375W        W 2158  15.680  10.671   2.824
35376W        W 2159  14.606   4.429   3.384
35377W        W 2160  37.450   3.036   4.861
35378W        W 2161   2.240  15.300   2.633
35379W        W 2162  41.952  32.632   3.085
35380W        W 2163  34.596  11.257  10.469
35381W        W 2164   8.061   0.144  13.864
35382W        W 2165  19.540  44.616   3.905
35383W        W 2166  43.731  33.424  13.737
35384W        W 2167   7.323  43.148  11.967
35385W        W 2168  11.352  25.054  14.806
35386W        W 2169   4.430  32.452  11.059
35387W        W 2170   7.263  20.493  11.655
35388W        W 2171  22.879  27.087   4.403
35389W        W 2172  42.369  24.281  12.912
35390W        W 2173  33.204  39.519   0.266
35391W        W 2174  27.685  21.709  13.498
35392W        W 2175  41.777   8.700  14.033
35393W        W 2176   5.237   4.018   3.291
35394W        W 2177   3.269  12.806  13.514
35395W        W 2178  16.368  40.016  12.604
35396W        W 2179   8.422   4.340  12.881
35397W        W 2180  13.715  30.935   0.836
35398W        W 2181  21.588   3.694  13.090
35399W        W 2182  41.058  11.089   1.700
35400W        W 2183  16.065   8.723  10.621
35401W        W 2184   5.794  42.353  11.693
35402W        W 2185  41.316   2.937  11.997
35403W        W 2186  26.711  39.349   5.574
35404W        W 2187   7.489  10.241   4.122
35405W        W 2188  22.184  12.868  13.871
35406W        W 2189  43.587  34.711  13.407
35407W        W 2190  35.050  10.717   1.016
35408W        W 2191  26.034  18.192  14.834
35409W        W 2192  43.509  26.188  11.641
35410W        W 2193  39.869   0.736  13.117
35411W        W 2194  42.879   7.522   3.121
35412W        W 2195  36.991  11.083  11.425
35413W        W 2196  44.738  16.789   4.836
35414W        W 2197  23.999  26.987   2.774
35415W        W 2198  32.645  13.668  10.694
35416W        W 2199  33.120  11.866   4.234
35417W        W 2200  31.775  33.606   3.100
35418W        W 2201  35.979   3.206  12.081
35419W        W 2202   9.590  10.188   1.796
35420W        W 2203  41.597  34.385   0.179
35421W        W 2204  44.476   1.356  14.303
35422W        W 2205  22.968  20.328  10.698
35423W        W 2206   3.970  10.297   4.850
35424W        W 2207  22.795  11.896  11.684
35425W        W 2208  11.355  14.372  14.044
35426W        W 2209   2.754  43.296   2.311
35427W        W 2210  31.079  10.659   0.723
35428W        W 2211   7.852  20.611   3.692
35429W        W 2212  40.814  37.869  14.774
35430W        W 2213  11.260  41.500  11.404
35431W        W 2214  34.091  36.107  14.671
35432W        W 2215   8.884  27.697  11.434
35433W        W 2216   2.313   0.904  12.393
35434W        W 2217   0.451  35.313  11.139
35435W        W 2218  37.500  32.404   0.833
35436W        W 2219   4.262  41.964   1.876
35437W        W 2220  34.399  44.197  10.839
35438W        W 2221  28.870  36.393   2.671
35439W        W 2222  41.953  16.639  14.468
35440W        W 2223  27.746  39.421   0.420
35441W        W 2224  10.755  22.228  11.470
35442W        W 2225  21.671  28.756  13.467
35443W        W 2226  16.205  29.179  14.913
35444W        W 2227   8.847  35.855   0.718
35445W        W 2228   6.305  24.417  12.903
35446W        W 2229  40.425   3.624   0.938
35447W        W 2230  43.203  14.881  13.007
35448W        W 2231   3.790  12.931   0.432
35449W        W 2232  24.462  42.393  11.131
35450W        W 2233  27.522   4.227   0.260
35451W        W 2234  25.707  42.806  12.377
35452W        W 2235  37.961  17.367  13.154
35453W        W 2236  42.749  20.796   4.580
35454W        W 2237   0.689   7.241  14.772
35455W        W 2238   1.845  29.948   4.698
35456W        W 2239  44.863   4.217   2.929
35457W        W 2240  44.735  44.344  13.549
35458W        W 2241  42.646  12.903  12.830
35459W        W 2242  27.673   3.922  11.554
35460W        W 2243  19.833  11.291  11.081
35461W        W 2244  24.240  32.813   3.577
35462W        W 2245   8.979  19.950  10.694
35463W        W 2246  13.735  31.066   2.474
35464W        W 2247  31.630  26.174  11.641
35465W        W 2248  44.324   3.986  14.813
35466W        W 2249  25.810  41.972  12.050
35467W        W 2250  29.090  31.987  12.805
35468W        W 2251  17.297   1.724   0.771
35469W        W 2252  14.743   6.259   4.404
35470W        W 2253   9.794  10.503   0.001
35471W        W 2254  11.409   8.250  11.715
35472W        W 2255   5.617   6.200  13.941
35473W        W 2256  11.198   1.229   3.897
35474W        W 2257  17.577  30.463  14.763
35475W        W 2258  23.268  13.251   3.838
35476W        W 2259   8.952  42.390   0.503
35477W        W 2260   7.295   9.746   0.063
35478W        W 2261  19.768  34.587   0.810
35479W        W 2262  10.763  26.139   3.189
35480W        W 2263  15.953  41.995   2.762
35481W        W 2264  10.943  15.076  13.658
35482W        W 2265  19.039   0.840   3.234
35483W        W 2266   3.284  26.146  12.172
35484W        W 2267  42.838   3.430  12.687
35485W        W 2268  14.182  26.098  12.682
35486W        W 2269  15.836  36.764   2.734
35487W        W 2270  22.508  20.865  12.198
35488W        W 2271  36.447  40.198   2.259
35489W        W 2272  31.594  16.878  12.579
35490W        W 2273  18.257  18.880  11.039
35491W        W 2274   5.286  23.330   0.967
35492W        W 2275   6.370  33.114   0.801
35493W        W 2276  10.082  27.549  12.059
35494W        W 2277  22.070   7.381   2.341
35495W        W 2278  30.614   0.448  13.793
35496W        W 2279  37.720   1.919   1.427
35497W        W 2280  41.144  35.820   1.739
35498W        W 2281   9.512  35.015   4.354
35499W        W 2282  44.178  12.300  14.953
35500W        W 2283  24.702   1.286   0.552
35501W        W 2284  43.401  19.960  13.496
35502W        W 2285  18.383  41.825  12.448
35503W        W 2286   9.762   4.296  13.995
35504W        W 2287   0.372  19.445   0.322
35505W        W 2288  17.289  35.874   4.988
35506W        W 2289  13.830  19.262  12.044
35507W        W 2290   0.032  24.728   1.678
35508W        W 2291   2.523  11.303   1.151
35509W        W 2292  31.573   3.979   4.314
35510W        W 2293   4.718   6.089   2.335
35511W        W 2294  44.738  27.054  14.917
35512W        W 2295  15.019   3.376  11.490
35513W        W 2296  20.012   1.509   1.370
35514W        W 2297  39.808  37.833  13.579
35515W        W 2298  21.701  34.744   1.182
35516W        W 2299  21.362  40.319  13.090
35517W        W 2300  12.967  19.564   1.564
35518W        W 2301  31.328  33.186   1.880
35519W        W 2302   8.667  21.667   2.617
35520W        W 2303  30.143  19.599   0.731
35521W        W 2304  19.000  15.590  11.536
35522W        W 2305   5.414  11.201  13.472
35523W        W 2306  13.581  41.601  14.836
35524W        W 2307  21.764  13.879   3.717
35525W        W 2308  17.418   7.379  10.757
35526W        W 2309  35.517  42.267  14.526
35527W        W 2310  13.832  33.971   3.961
35528W        W 2311   0.446  24.893   2.170
35529W        W 2312   8.744  33.414  10.519
35530W        W 2313   6.738  24.780  14.091
35531W        W 2314  14.288  34.890  14.337
35532W        W 2315  19.048  44.687  12.800
35533W        W 2316  31.466  19.717  11.693
35534W        W 2317  25.946  29.620   2.680
35535W        W 2318   1.027  12.477   4.859
35536W        W 2319  13.074  32.902  13.513
35537W        W 2320   3.806  35.945  14.286
35538W        W 2321   5.187   8.750  12.928
35539W        W 2322  42.895  44.071   0.290
35540W        W 2323   8.559  40.826  12.144
35541W        W 2324   2.986  35.403  12.479
35542W        W 2325  35.808  37.049   2.234
35543W        W 2326  13.639  44.532  13.589
35544W        W 2327   9.745  19.104   2.880
35545W        W 2328  38.406  35.921  14.755
35546W        W 2329  14.931  30.179   4.384
35547W        W 2330   2.047  25.442  12.072
35548W        W 2331  34.949  41.450  14.288
35549W        W 2332  27.884  29.342   1.823
35550W        W 2333  11.569   8.201  13.926
35551W        W 2334  18.010   1.997  14.430
35552W        W 2335  38.298  22.008  13.933
35553W        W 2336  37.067   2.148   2.871
35554W        W 2337  44.070  34.717  10.051
35555W        W 2338  25.219  34.598   2.426
35556W        W 2339  33.144  44.490  11.148
35557W        W 2340  29.641  18.734  12.143
35558W        W 2341  11.436  40.951   2.322
35559W        W 2342  16.706  21.285  10.750
35560W        W 2343  15.599   9.779  13.963
35561W        W 2344  12.125  11.710  10.594
35562W        W 2345  40.973  15.345   3.752
35563W        W 2346  24.199   9.355   2.221
35564W        W 2347   5.986  27.521  11.785
35565W        W 2348   3.313  22.661   0.719
35566W        W 2349  20.264  33.399   3.906
35567W        W 2350   1.940  18.701  13.425
35568W        W 2351  15.065   8.792  13.434
35569W        W 2352  16.279  22.470   3.819
35570W        W 2353   1.170  43.301  14.463
35571W        W 2354  29.595  33.379  10.567
35572W        W 2355  35.291  20.145  13.457
35573W        W 2356  20.838   6.322  11.860
35574W        W 2357   3.086   6.138   3.807
35575W        W 2358   4.244  30.003   2.274
35576W        W 2359  26.408  11.393  14.390
35577W        W 2360  15.738  10.662   1.337
35578W        W 2361  41.029  25.981   1.287
35579W        W 2362   1.921  34.739  11.606
35580W        W 2363  23.945  35.069  14.161
35581W        W 2364  10.110  33.886  12.451
35582W        W 2365  23.049  10.893  14.319
35583W        W 2366  13.360  42.459  14.585
35584W        W 2367  40.610  38.036   4.117
35585W        W 2368   7.689  32.331   3.209
35586W        W 2369  14.310  34.589  13.889
35587W        W 2370  24.730   7.187   0.882
35588W        W 2371  11.185  36.107   2.180
35589W        W 2372  40.794  20.038   2.443
35590W        W 2373  44.737  10.297   3.449
35591W        W 2374   0.432  28.839   0.482
35592W        W 2375   9.734  11.052   3.168
35593W        W 2376   9.798  23.161  14.540
35594W        W 2377  41.981  35.510   4.350
35595W        W 2378  42.001  23.064  10.077
35596W        W 2379  32.713   4.909  12.477
35597W        W 2380   4.344  32.518  12.026
35598W        W 2381  31.622  42.375  11.093
35599W        W 2382  39.439  13.881   1.292
35600W        W 2383  13.900  14.147   0.427
35601W        W 2384  25.636  12.032  13.900
35602W        W 2385   5.292  30.731   4.090
35603W        W 2386  33.845  29.101   2.867
35604W        W 2387  11.527   1.030  11.232
35605W        W 2388  43.636  15.078   0.498
35606W        W 2389  42.135  14.731  11.554
35607W        W 2390  24.177  24.778   1.791
35608W        W 2391   9.845  25.475   0.321
35609W        W 2392  41.512  17.746  13.985
35610W        W 2393  28.633  43.092  10.320
35611W        W 2394  32.886  10.661  13.622
35612W        W 2395  22.092  43.590  14.186
35613W        W 2396  39.007  12.036  11.927
35614W        W 2397  16.991  24.738   1.469
35615W        W 2398  27.076  27.896   0.415
35616W        W 2399   6.340  40.792  12.825
35617W        W 2400  20.668   1.350  13.360
35618W        W 2401  38.749  34.016   3.721
35619W        W 2402  10.792  38.449   2.170
35620W        W 2403  17.755   4.771   4.460
35621W        W 2404  31.884   5.984   2.336
35622W        W 2405  14.345  14.068  12.463
35623W        W 2406  26.249  21.434  14.185
35624W        W 2407   4.350  13.033   3.728
35625W        W 2408   7.427  19.957   0.490
35626W        W 2409  15.048  20.459  12.497
35627W        W 2410   9.223   2.696   2.666
35628W        W 2411   0.511  19.151   2.784
35629W        W 2412  24.597  17.748  11.442
35630W        W 2413  15.178  31.924   2.846
35631W        W 2414   3.889  15.283  13.010
35632W        W 2415  17.743  44.385   2.756
35633W        W 2416  12.478   1.065   1.429
35634W        W 2417  21.748   6.208   0.827
35635W        W 2418   3.837   7.795  14.865
35636W        W 2419  27.124  21.406  13.861
35637W        W 2420  10.605  38.812  14.143
35638W        W 2421   9.862  20.676  14.259
35639W        W 2422  36.536  20.695  11.523
35640W        W 2423  36.528  17.696  12.957
35641W        W 2424  44.691  15.157   0.257
35642W        W 2425  23.053  24.043   0.003
35643W        W 2426  15.647  26.565  11.981
35644W        W 2427  15.272   9.167  10.592
35645W        W 2428   4.275  14.588   0.070
35646W        W 2429  11.708  20.690  10.154
35647W        W 2430  14.014  12.296  12.860
35648W        W 2431  12.323  20.529  10.874
35649W        W 2432   1.919  44.459   3.236
35650W        W 2433   7.402   6.272   2.599
35651W        W 2434  31.401  42.369   4.542
35652W        W 2435   0.774  10.893  10.325
35653W        W 2436  31.905  18.440  13.508
35654W        W 2437  19.877  27.976  13.259
35655W        W 2438   5.010   7.672  12.041
35656W        W 2439  35.342  44.893   4.011
35657W        W 2440   3.945  24.243  13.049
35658W        W 2441  30.017  23.109   9.490
35659W        W 2442  31.652   1.340  13.655
35660W        W 2443  32.500   4.662   2.753
35661W        W 2444  10.213  26.673  12.866
35662W        W 2445  21.962   5.301   3.159
35663W        W 2446  23.257  34.198  13.067
35664W        W 2447   6.054  33.056  10.981
35665W        W 2448  37.322   4.387  11.227
35666W        W 2449  26.432  40.279  11.291
35667W        W 2450  10.218  26.528   2.756
35668W        W 2451  35.528  31.270   4.480
35669W        W 2452  42.541  17.802  10.289
35670W        W 2453  18.287  39.093   4.773
35671W        W 2454  36.993  10.700  13.408
35672W        W 2455  29.669   0.306   3.995
35673W        W 2456  42.087  27.350  14.767
35674W        W 2457  12.122  38.066  12.878
35675W        W 2458  41.947  34.024   2.643
35676W        W 2459  27.970  37.983   0.306
35677W        W 2460  40.981  17.226  12.455
35678W        W 2461  24.608  34.279  12.947
35679W        W 2462  43.923  13.682  12.085
35680W        W 2463  43.268   5.929   4.528
35681W        W 2464  38.933  40.344   1.887
35682W        W 2465  43.302  43.151  14.410
35683W        W 2466  31.671  28.993   3.809
35684W        W 2467  15.723  15.210   9.980
35685W        W 2468   8.370  37.962  12.472
35686W        W 2469  33.152  26.503   4.595
35687W        W 2470  30.047  14.880  14.058
35688W        W 2471  10.678  17.561   2.940
35689W        W 2472   0.410  34.550   3.262
35690W        W 2473   3.200  26.090   2.066
35691W        W 2474   3.955  26.922  13.047
35692W        W 2475  34.531  26.685   2.881
35693W        W 2476  34.222  26.717  10.580
35694W        W 2477  11.817   2.771  13.407
35695W        W 2478  17.218   4.496   0.411
35696W        W 2479  18.509  39.290   3.652
35697W        W 2480  28.494  42.042   4.437
35698W        W 2481  24.733  13.660   1.725
35699W        W 2482  18.525  21.723   3.644
35700W        W 2483  14.997  13.706  12.423
35701W        W 2484  26.659  24.962  11.179
35702W        W 2485   2.780   1.812   1.185
35703W        W 2486  17.606  22.952  13.793
35704W        W 2487   9.303   0.110   4.130
35705W        W 2488   4.493  27.662   3.609
35706W        W 2489   6.840  23.620  12.057
35707W        W 2490   4.853  25.973   2.470
35708W        W 2491  43.704  28.561  14.406
35709W        W 2492   3.867  32.872   3.425
35710W        W 2493  24.404  22.182   3.217
35711W        W 2494  43.574  13.672   0.193
35712W        W 2495  30.370  31.641  11.730
35713W        W 2496   3.763  31.885  14.058
35714W        W 2497  39.511  39.030   3.282
35715W        W 2498  41.025  21.999   0.012
35716W        W 2499  38.892  38.460   0.659
35717W        W 2500   6.361  33.267   9.998
35718W        W 2501  14.050  26.385  11.947
35719W        W 2502  37.492   6.676  11.917
35720W        W 2503  43.030  27.660  12.536
35721W        W 2504  37.896  26.536   2.202
35722W        W 2505  25.288  33.651   3.990
35723W        W 2506   8.884  26.964   1.388
35724W        W 2507   4.981  11.335   9.936
35725W        W 2508  17.767  17.912   4.901
35726W        W 2509  31.600  40.816   4.613
35727W        W 2510  15.569  11.675   3.235
35728W        W 2511   5.495  38.816   1.403
35729W        W 2512  35.706  36.663   3.197
35730W        W 2513  35.492  23.525  13.140
35731W        W 2514  12.226  36.060   3.967
35732W        W 2515   7.438  38.757   1.257
35733W        W 2516  15.128  24.673  14.580
35734W        W 2517  17.645   5.592   1.678
35735W        W 2518  43.633   0.040  13.014
35736W        W 2519  34.917  25.692   4.933
35737W        W 2520  33.972  32.111   3.732
35738W        W 2521  33.788  39.986  12.109
35739W        W 2522   9.134  22.389   1.286
35740W        W 2523  24.161  43.879   1.535
35741W        W 2524   6.105  35.437   2.111
35742W        W 2525  31.843  23.678   0.272
35743W        W 2526  31.735   9.088   2.797
35744W        W 2527  33.843  38.544  12.981
35745W        W 2528  30.857   3.873  11.524
35746W        W 2529  35.141  27.446   4.020
35747W        W 2530  28.044  23.907  13.093
35748W        W 2531  29.677  16.646  12.468
35749W        W 2532   6.446  27.175  14.880
35750W        W 2533  28.923  40.289   9.877
35751W        W 2534  12.370  43.876  13.798
35752W        W 2535  28.670  39.819   4.984
35753W        W 2536  34.490  43.912  12.990
35754W        W 2537   7.280  27.924  13.518
35755W        W 2538  43.277  23.638  10.477
35756W        W 2539  25.984  41.699   2.611
35757W        W 2540  44.541  19.613   4.541
35758W        W 2541  37.666  42.769   5.260
35759W        W 2542  44.873   8.319  12.882
35760W        W 2543  31.454   8.827   3.677
35761W        W 2544  43.385   1.295   0.882
35762W        W 2545   6.674  17.578  13.517
35763W        W 2546  44.381  18.966  11.505
35764W        W 2547   4.428  38.541   2.857
35765W        W 2548  34.521  19.622   3.690
35766W        W 2549  44.480   3.324  11.144
35767W        W 2550  23.211   1.281  13.976
35768W        W 2551  14.694  14.851   3.126
35769W        W 2552  18.833  13.266  14.018
35770W        W 2553  25.621  13.990   4.734
35771W        W 2554  34.830  13.118   4.141
35772W        W 2555   0.715   4.426  14.778
35773W        W 2556  12.261  36.601   4.460
35774W        W 2557  11.668  20.037   1.201
35775W        W 2558  34.988  41.181   2.153
35776W        W 2559  43.254  23.004   0.451
35777W        W 2560  43.017  42.416   2.259
35778W        W 2561  39.863  21.014   0.315
35779W        W 2562  18.468  32.635   3.287
35780W        W 2563  34.432   7.775   1.508
35781W        W 2564  40.321  41.399  13.964
35782W        W 2565  26.542  35.330  13.544
35783W        W 2566  39.734   1.607   2.820
35784W        W 2567  23.256  40.565  14.351
35785W        W 2568   2.915   2.441  14.915
35786W        W 2569   6.124  18.853   3.207
35787W        W 2570  20.228  11.715   2.838
35788W        W 2571  20.609  20.698   2.147
35789W        W 2572  30.817  28.556   2.308
35790W        W 2573   3.376  25.483   3.113
35791W        W 2574  39.925  27.494   1.396
35792W        W 2575  27.231  11.127  13.007
35793W        W 2576   5.855   8.909   1.708
35794W        W 2577  28.402  25.721  13.774
35795W        W 2578   1.722   8.896   4.850
35796W        W 2579  31.497  16.922   3.760
35797W        W 2580  26.654  32.083   0.319
35798W        W 2581  16.575  43.469   4.308
35799W        W 2582  16.810  24.752  14.803
35800W        W 2583  33.557  26.339   0.679
35801W        W 2584  21.703  38.134  13.233
35802W        W 2585  19.735   0.481   3.152
35803W        W 2586  26.681  10.020   4.511
35804W        W 2587  43.231  28.186  10.975
35805W        W 2588  10.247   1.469  13.406
35806W        W 2589  18.473  38.512  13.446
35807W        W 2590  29.441  13.161   0.505
35808W        W 2591  39.986  39.028   3.486
35809W        W 2592  36.975   2.017  14.324
35810W        W 2593  16.704  26.130   0.397
35811W        W 2594  40.555  16.579  14.724
35812W        W 2595  37.327  31.042   4.914
35813W        W 2596  37.914   1.162   0.955
35814W        W 2597  19.061  30.437  11.296
35815W        W 2598  16.557   3.658   2.163
35816W        W 2599  18.078  11.887   1.367
35817W        W 2600  22.371  31.946  14.681
35818W        W 2601  44.510   7.379  12.601
35819W        W 2602   2.476   1.894  10.767
35820W        W 2603  25.802  43.459  12.830
35821W        W 2604  25.117  10.456   2.452
35822W        W 2605   3.884  36.887  14.536
35823W        W 2606   7.866   7.974   1.619
35824W        W 2607  10.437   5.160  14.709
35825W        W 2608  15.433  30.041   3.196
35826W        W 2609  16.704  38.578   4.741
35827W        W 2610   0.893  11.593  11.544
35828W        W 2611   2.494  16.696  11.626
35829W        W 2612  21.256   9.856  14.487
35830W        W 2613  31.610  15.428  13.137
35831W        W 2614   8.411  27.676  11.614
35832W        W 2615  40.463  15.420  10.801
35833W        W 2616  38.328  39.783   0.436
35834W        W 2617  28.501  16.202   2.869
35835W        W 2618  18.512   9.628  13.140
35836W        W 2619   3.936  34.605   2.645
35837W        W 2620  41.964  15.945  13.021
35838W        W 2621  25.931  11.899   4.286
35839W        W 2622  39.809   0.241  10.910
35840W        W 2623  38.558   6.356   4.871
35841W        W 2624  31.270  28.717  13.423
35842W        W 2625   1.876  21.806  14.589
35843W        W 2626  28.473  20.312   2.157
35844W        W 2627  41.323  16.565   3.841
35845W        W 2628  22.977  18.232  14.803
35846W        W 2629  34.870  26.345   4.110
35847W        W 2630   2.776  43.167   5.048
35848W        W 2631  21.330  10.754  11.037
35849W        W 2632  35.269   1.528  11.563
35850W        W 2633  41.866  19.407   4.651
35851W        W 2634  15.210  19.026   3.877
35852W        W 2635  25.701  30.986   2.686
35853W        W 2636  14.695  13.845   3.938
35854W        W 2637  24.208  30.994  11.129
35855W        W 2638  22.984  21.207   0.412
35856W        W 2639  35.196  42.827   0.622
35857W        W 2640  41.379  36.792   1.369
35858W        W 2641  19.690  25.071   5.071
35859W        W 2642  38.364   9.117  10.396
35860W        W 2643  14.154   6.881  10.394
35861W        W 2644  28.490  41.185  10.720
35862W        W 2645  40.214  21.580   1.000
35863W        W 2646  26.597  19.601  11.369
35864W        W 2647  16.720  33.841  13.339
35865W        W 2648  23.300  44.308   4.234
35866W        W 2649  17.579  28.532   4.464
35867W        W 2650  26.095  18.886   1.656
35868W        W 2651  23.792  43.486  14.050
35869W        W 2652  44.026  39.329  13.236
35870W        W 2653   5.399  35.147  10.080
35871W        W 2654  27.343   5.688  10.824
35872W        W 2655   0.907  15.431  14.789
35873W        W 2656   9.662  15.717  14.937
35874W        W 2657  22.589  28.663  12.254
35875W        W 2658   6.590  43.744  13.650
35876W        W 2659   1.389  10.826   3.167
35877W        W 2660  35.780  34.014  10.952
35878W        W 2661  32.067  19.985   2.250
35879W        W 2662  13.489  18.161   3.163
35880W        W 2663  24.046  30.869  11.591
35881W        W 2664  24.660  20.980   2.802
35882W        W 2665  44.751   9.111   2.749
35883W        W 2666  26.157  44.352  14.022
35884W        W 2667  31.900  17.710  12.762
35885W        W 2668  38.825  23.989  14.355
35886W        W 2669  16.331  14.150  12.406
35887W        W 2670  38.950  25.490   1.114
35888W        W 2671  35.824  33.433  12.488
35889W        W 2672  31.626  24.683   2.295
35890W        W 2673  42.925  21.461  10.103
35891W        W 2674  32.406  23.790  14.493
35892W        W 2675  41.321  39.363   0.984
35893W        W 2676  32.152  11.272  14.371
35894W        W 2677  20.679  18.543   2.305
35895W        W 2678  31.386   8.304   5.051
35896W        W 2679  17.171   8.718  10.699
35897W        W 2680  13.924  33.515  11.856
35898W        W 2681  35.533  38.539   3.939
35899W        W 2682  33.461  28.904   4.741
35900W        W 2683  39.384  14.411  10.886
35901W        W 2684  23.545  37.818   2.022
35902W        W 2685   0.979  22.497   3.741
35903W        W 2686  32.431  10.596   4.927
35904W        W 2687  39.951  13.240  14.264
35905W        W 2688   9.647  17.300   3.710
35906W        W 2689  18.634  11.243   0.977
35907W        W 2690  14.766  43.880   1.037
35908W        W 2691  15.241  43.052  11.779
35909W        W 2692   2.539  33.049  11.640
35910W        W 2693  44.103   3.231  12.920
35911W        W 2694   4.172  31.152   4.364
35912W        W 2695  24.388   1.897  11.506
35913W        W 2696  18.969  33.870   0.960
35914W        W 2697  22.994   3.378   0.346
35915W        W 2698  35.727  36.460  12.876
35916W        W 2699  37.011  40.040  12.505
35917W        W 2700  13.457   8.975   0.276
35918W        W 2701   4.183  26.318  11.820
35919W        W 2702  44.298   2.336   0.977
35920W        W 2703  29.192  12.307  11.651
35921W        W 2704   4.784   9.072   2.695
35922W        W 2705  25.516  29.565  13.896
35923W        W 2706  40.502   9.629   3.923
35924W        W 2707  17.815  28.340   2.286
35925W        W 2708  41.823  40.444  10.376
35926W        W 2709  37.457   9.134   2.713
35927W        W 2710  39.990  18.790   3.222
35928W        W 2711   6.556   7.662  11.115
35929W        W 2712  26.915  23.854  12.893
35930W        W 2713  37.333  14.781   2.401
35931W        W 2714   3.192   7.385   1.194
35932W        W 2715  33.697  29.730   0.898
35933W        W 2716   1.424   2.025   0.908
35934W        W 2717  13.668  11.891   4.162
35935W        W 2718   4.021  10.397   1.964
35936W        W 2719  26.622   5.426  14.998
35937W        W 2720  33.489  35.955  10.909
35938W        W 2721  33.524  36.530   4.379
35939W        W 2722   7.706  32.345  10.739
35940W        W 2723  10.408   6.680   1.173
35941W        W 2724  24.544   6.758  11.537
35942W        W 2725   5.021  27.684  14.670
35943W        W 2726  29.372  24.571  11.015
35944W        W 2727  20.520  43.790   0.852
35945W        W 2728  11.652   8.391  12.906
35946W        W 2729  17.025  27.055  12.480
35947W        W 2730   0.904  37.309  13.476
35948W        W 2731  21.659  31.966  10.189
35949W        W 2732   1.664  11.058  11.759
35950W        W 2733  17.768  20.983  12.856
35951W        W 2734  31.965  40.039   4.137
35952W        W 2735   6.382   4.012  10.677
35953W        W 2736  27.282  23.550   4.598
35954W        W 2737  39.511  14.354  12.196
35955W        W 2738   8.343  44.821  12.503
35956W        W 2739  33.415  31.370  13.941
35957W        W 2740  22.249  17.079  10.709
35958W        W 2741   3.182  38.586   3.257
35959W        W 2742  16.052  41.536   5.091
35960W        W 2743  21.664  27.525   0.305
35961W        W 2744  16.001  18.394   4.607
35962W        W 2745  41.916  40.876   1.444
35963W        W 2746  22.139  37.887  10.702
35964W        W 2747  24.759  44.483  12.880
35965W        W 2748  26.966  16.167   0.201
35966W        W 2749  29.928  18.974  13.463
35967W        W 2750   0.958  20.703   3.241
35968W        W 2751  35.558   1.483  13.282
35969W        W 2752  44.809  32.982   4.516
35970W        W 2753  14.759  27.416   1.659
35971W        W 2754  39.311   2.907  11.490
35972W        W 2755  30.271   2.385  14.310
35973W        W 2756  37.979  24.615  14.935
35974W        W 2757   3.875  27.045   4.417
35975W        W 2758  38.142  20.552   0.907
35976W        W 2759  36.604  18.043  12.515
35977W        W 2760  44.442  17.559   4.543
35978W        W 2761  30.709  24.944  11.109
35979W        W 2762  14.544  39.224   1.279
35980W        W 2763  44.267  23.567  10.314
35981W        W 2764   3.864  30.000   4.182
35982W        W 2765  20.518   1.671   1.782
35983W        W 2766  41.092  40.457  13.585
35984W        W 2767  24.560  27.498  11.414
35985W        W 2768  17.310  23.004  12.816
35986W        W 2769  29.485  36.308   1.415
35987W        W 2770  31.470  20.155  11.381
35988W        W 2771  42.991  18.051   2.820
35989W        W 2772  37.332  28.581   3.236
35990W        W 2773  12.142  37.439   3.846
35991W        W 2774  15.390  41.459  13.085
35992W        W 2775  14.824  19.149   2.465
35993W        W 2776  38.609  18.814   4.945
35994W        W 2777  36.407   4.555  12.084
35995W        W 2778  27.038  10.406  13.889
35996W        W 2779  27.616  44.258   1.358
35997W        W 2780   4.560   9.872  11.534
35998W        W 2781  15.924  24.691   0.968
35999W        W 2782  38.128   8.091   9.785
36000W        W 2783  12.337  44.278   2.115
36001W        W 2784  30.729  26.303  10.936
36002W        W 2785  26.517  36.455   4.110
36003W        W 2786  27.676  26.325   3.743
36004W        W 2787  37.913  13.857   3.639
36005W        W 2788  36.705  14.194  13.457
36006W        W 2789  35.474  42.462   2.265
36007W        W 2790   2.335  11.845   1.825
36008W        W 2791   1.027  32.868   3.378
36009W        W 2792  40.346  25.724  11.520
36010W        W 2793  14.829   9.144   1.854
36011W        W 2794  35.167   5.343   0.636
36012W        W 2795  44.319  17.175   1.813
36013W        W 2796  18.417  12.289   4.921
36014W        W 2797  37.558  25.179  14.895
36015W        W 2798  12.843   1.476   0.353
36016W        W 2799  38.059  40.051  14.686
36017W        W 2800  39.179   7.170  11.002
36018W        W 2801   5.186  26.577  11.864
36019W        W 2802  16.294  37.432  12.127
36020W        W 2803  35.423  24.519   0.276
36021W        W 2804  20.594  25.010   3.189
36022W        W 2805   0.758   1.536   1.389
36023W        W 2806  24.842  11.780   0.201
36024W        W 2807   8.877  37.513   3.648
36025W        W 2808  36.789  10.353  12.667
36026W        W 2809   2.616  38.952   4.013
36027W        W 2810  32.319  15.901  11.534
36028W        W 2811  34.376  21.266   0.379
36029W        W 2812  44.014   1.066  10.889
36030W        W 2813  20.685  31.878  13.043
36031W        W 2814   2.506  41.000   1.248
36032W        W 2815  38.466   9.608   0.252
36033W        W 2816  28.816   5.741  14.662
36034W        W 2817  39.813   7.994   2.836
36035W        W 2818  38.013  43.842   2.942
36036W        W 2819  37.422   0.843   0.018
36037W        W 2820  26.693   3.047   4.114
36038W        W 2821  40.813  33.189  10.719
36039W        W 2822  38.013  16.676   4.755
36040W        W 2823  21.835   5.398  14.089
36041W        W 2824  30.282  30.158   0.830
36042W        W 2825  16.673   8.566   0.166
36043W        W 2826  37.487  35.776  14.796
36044W        W 2827   2.234  32.741  13.530
36045W        W 2828  14.713  27.516  11.525
36046W        W 2829   5.225   1.356   4.581
36047W        W 2830  41.333  30.553  14.967
36048W        W 2831  22.597   9.226  12.857
36049W        W 2832   9.262  27.401   4.122
36050W        W 2833  39.440  15.146   0.517
36051W        W 2834  22.169   1.051  13.982
36052W        W 2835   1.317  37.909  13.021
36053W        W 2836   4.644  34.590  11.615
36054W        W 2837  29.094  32.919  13.956
36055W        W 2838  38.947   4.080  14.402
36056W        W 2839   4.318  40.264   0.011
36057W        W 2840  34.529  30.130   3.703
36058W        W 2841  21.233  44.304  12.031
36059W        W 2842  28.626  12.240   1.468
36060W        W 2843  37.230  32.331  11.215
36061W        W 2844  27.597   3.255  11.913
36062W        W 2845   9.921  43.271  13.022
36063W        W 2846  24.772  37.049   2.786
36064W        W 2847  18.180  21.802   1.770
36065W        W 2848  12.249  14.021   4.630
36066W        W 2849   5.360   9.692  10.372
36067W        W 2850   5.304  42.436   2.507
36068W        W 2851   6.783  42.868  13.305
36069W        W 2852  43.514  22.141   4.537
36070W        W 2853  28.984  20.541  12.689
36071W        W 2854   8.684   7.688   0.748
36072W        W 2855   6.735  20.350  11.632
36073W        W 2856  22.652  41.055  11.107
36074W        W 2857  13.424  10.709   3.730
36075W        W 2858  20.725  39.632   4.622
36076W        W 2859  43.945  28.452   2.197
36077W        W 2860   0.881  36.921  12.205
36078W        W 2861  38.096  19.384   4.182
36079W        W 2862  41.563  12.201   1.413
36080W        W 2863  32.929  23.972  13.470
36081W        W 2864  39.225  18.776   1.918
36082W        W 2865  38.756  18.516   3.521
36083W        W 2866  13.473   6.257  12.934
36084W        W 2867  18.252  27.068   4.185
36085W        W 2868  25.792  23.145   1.825
36086W        W 2869   7.598   9.793  11.998
36087W        W 2870   4.539  27.065  14.943
36088W        W 2871  39.895  33.539  12.452
36089W        W 2872  36.234  30.293   1.404
36090W        W 2873  38.963   0.229  13.360
36091W        W 2874  21.702  29.266  13.485
36092W        W 2875  11.408   0.373   0.732
36093W        W 2876  39.487  25.739   4.097
36094W        W 2877  30.162  16.795  12.584
36095W        W 2878  18.372  44.580  11.136
36096W        W 2879   7.796  22.006   0.743
36097W        W 2880  16.289  34.967  10.684
36098W        W 2881  37.097  32.901  13.911
36099W        W 2882  16.094   1.007   0.372
36100W        W 2883   0.847  24.409  11.453
36101W        W 2884  38.971   7.318   0.469
36102W        W 2885  30.482  29.918   0.395
36103W        W 2886   2.556  35.132  12.941
36104W        W 2887  23.126  16.003  10.379
36105W        W 2888  17.732  12.602   4.396
36106W        W 2889   4.293  31.060   3.876
36107W        W 2890  22.109  16.753   1.463
36108W        W 2891  26.602  24.999   4.242
36109W        W 2892  11.200  30.453  13.336
36110W        W 2893   9.623  35.683  14.797
36111W        W 2894  30.185  35.664  12.131
36112W        W 2895  38.633  26.583  10.527
36113W        W 2896  18.703  10.218   3.642
36114W        W 2897  29.493  20.594  11.852
36115W        W 2898  41.792  35.910   0.763
36116W        W 2899  22.091  23.717   1.415
36117W        W 2900   5.148  40.424  14.809
36118W        W 2901   6.381  19.986   2.944
36119W        W 2902  17.642  41.837   4.575
36120W        W 2903  41.502  14.204   2.162
36121W        W 2904  25.234  33.445  11.501
36122W        W 2905  32.495  30.287   2.061
36123W        W 2906   3.195  37.199   0.417
36124W        W 2907  42.418  25.202  14.384
36125W        W 2908  39.405  13.689   2.305
36126W        W 2909   2.277  23.017  13.131
36127W        W 2910  25.956  17.124  13.080
36128W        W 2911  12.644  36.021   0.483
36129W        W 2912  12.020  35.338  14.528
36130W        W 2913   1.438  14.145  14.244
36131W        W 2914  18.971  36.937   0.888
36132W        W 2915  14.194   2.036   0.473
36133W        W 2916  26.414  29.340   5.031
36134W        W 2917   8.245  23.043   3.699
36135W        W 2918  14.805  34.426   0.764
36136W        W 2919  14.121  29.695  11.640
36137W        W 2920  29.721  42.368  11.135
36138W        W 2921  10.723  32.132   1.929
36139W        W 2922   3.325   2.689   0.342
36140W        W 2923   8.693  43.239  10.827
36141W        W 2924  22.780  20.011  12.000
36142W        W 2925  36.425  35.969   4.559
36143W        W 2926  33.063  44.672   2.826
36144W        W 2927  19.651   5.727  13.918
36145W        W 2928   8.146  20.210  11.596
36146W        W 2929  42.582  34.356  13.400
36147W        W 2930  29.619  10.767   1.698
36148W        W 2931  33.948   9.959   3.787
36149W        W 2932  31.976  11.964   2.261
36150W        W 2933  44.880  13.724   9.864
36151W        W 2934   4.680  22.984   3.586
36152W        W 2935   9.314  37.299  13.905
36153W        W 2936  14.716  43.782  14.394
36154W        W 2937  41.250  38.604   2.817
36155W        W 2938  22.018  42.048  10.924
36156W        W 2939  28.998  19.060   0.399
36157W        W 2940   0.685  13.608   3.221
36158W        W 2941  34.025   3.383   1.571
36159W        W 2942  15.636  26.694  14.381
36160W        W 2943  40.344  22.016  11.913
36161W        W 2944  18.603  24.650   2.251
36162W        W 2945  26.490  17.814  12.497
36163W        W 2946  13.377  31.525   1.385
36164W        W 2947  11.373  28.644   4.589
36165W        W 2948  19.699  17.780  11.902
36166W        W 2949   3.754  41.078  11.780
36167W        W 2950  15.758   4.451   4.965
36168W        W 2951  33.563   9.591  14.812
36169W        W 2952  18.877  17.153   2.265
36170W        W 2953  35.967  24.979  12.659
36171W        W 2954  17.166  37.838  14.636
36172W        W 2955   7.677   5.193   3.722
36173W        W 2956   8.464  31.639  11.577
36174W        W 2957  21.761  13.158  14.055
36175W        W 2958  41.504  41.330   3.590
36176W        W 2959  11.790  15.265   1.219
36177W        W 2960  28.506  32.160  12.958
36178W        W 2961  25.127  34.135  14.533
36179W        W 2962  25.203   5.847  10.525
36180W        W 2963  42.441   9.314   3.353
36181W        W 2964   5.844  40.427   3.173
36182W        W 2965  23.210  33.115   4.857
36183W        W 2966  22.957  15.633   0.020
36184W        W 2967   6.152  30.948   4.267
36185W        W 2968  10.425  12.517  14.396
36186W        W 2969  22.538  18.847  14.410
36187W        W 2970  38.315  21.827  12.133
36188W        W 2971  17.893  25.923  11.498
36189W        W 2972  44.350   8.189   3.602
36190W        W 2973  38.430  31.012   1.363
36191W        W 2974  16.018  12.320  12.053
36192W        W 2975  34.790  23.078  12.857
36193W        W 2976  31.509  30.472  13.277
36194W        W 2977   0.422  35.722   0.773
36195W        W 2978  34.999  34.998   0.535
36196W        W 2979  17.442   6.803   0.667
36197W        W 2980  20.002  27.343   4.239
36198W        W 2981  32.382  39.104  12.762
36199W        W 2982  24.760  35.118   3.768
36200W        W 2983  27.591  14.655  10.626
36201W        W 2984   4.298   6.630   1.910
36202W        W 2985   1.200   0.194  14.989
36203W        W 2986  21.583   1.910  12.568
36204W        W 2987  41.410  43.349   1.379
36205W        W 2988  11.399  40.977  14.357
36206W        W 2989  14.118  20.017   1.909
36207W        W 2990  42.409  39.423  10.687
36208W        W 2991  44.698   8.844  11.430
36209W        W 2992  25.411  35.038   1.874
36210W        W 2993  25.413   1.683  11.534
36211W        W 2994  15.535  15.755   3.785
36212W        W 2995  28.071  14.473   3.295
36213W        W 2996  32.700  15.795   1.910
36214W        W 2997  16.027   8.009  13.138
36215W        W 2998   9.247  12.134  13.747
36216W        W 2999  39.578  17.437  11.103
36217W        W 3000  21.278   3.783   0.940
36218W        W 3001  37.985  29.626   2.791
36219W        W 3002   5.786  16.678   3.702
36220W        W 3003  10.786  31.950   2.831
36221W        W 3004  26.956  37.838   1.862
36222W        W 3005   1.617   0.677   3.748
36223W        W 3006   8.995   3.493   2.852
36224W        W 3007  15.686  41.326  12.393
36225W        W 3008  43.766   9.106   2.789
36226W        W 3009   9.244  19.970  14.477
36227W        W 3010  35.514   4.120  13.145
36228W        W 3011  14.731  20.070  12.616
36229W        W 3012   9.849  25.710   2.451
36230W        W 3013  17.306  25.127   1.305
36231W        W 3014  26.238  38.410  11.014
36232W        W 3015  32.206   6.410  12.229
36233W        W 3016   5.224  29.626   1.919
36234W        W 3017   6.312  27.929  11.594
36235W        W 3018   0.865  15.654   4.547
36236W        W 3019   7.340  34.252   4.573
36237W        W 3020  20.838  32.204  14.009
36238W        W 3021  24.093  11.707  10.702
36239W        W 3022  34.907  19.261   3.649
36240W        W 3023  22.395  28.995   3.106
36241W        W 3024  41.899  25.177   4.740
36242W        W 3025  14.634  27.865  14.790
36243W        W 3026   6.059   5.716   2.937
36244W        W 3027  37.392  44.541   0.416
36245W        W 3028  32.548   8.349   1.427
36246W        W 3029  19.088  29.922  12.166
36247W        W 3030  25.238  42.973   0.401
36248W        W 3031   8.257  23.574   3.768
36249W        W 3032  11.325  43.407   4.528
36250W        W 3033  41.948   1.908   1.764
36251W        W 3034   1.893  14.631   2.139
36252W        W 3035   6.235   5.860   0.721
36253W        W 3036  15.128  44.918   4.582
36254W        W 3037  32.294  34.055   3.795
36255W        W 3038   4.701  34.435   0.482
36256W        W 3039  20.231  36.080  10.469
36257W        W 3040  18.476  40.872   4.858
36258W        W 3041  43.735  21.137  11.057
36259W        W 3042  41.752  22.581   2.331
36260W        W 3043  11.572  20.206  12.001
36261W        W 3044  14.658   7.864   0.784
36262W        W 3045  27.757   9.204  12.417
36263W        W 3046  32.143  37.392  11.721
36264W        W 3047   1.337  21.482  11.628
36265W        W 3048  34.856  15.964   0.248
36266W        W 3049  19.487  37.405  10.710
36267W        W 3050  44.981  12.687  12.007
36268W        W 3051  40.950  16.903  14.778
36269W        W 3052  42.282   9.370  12.136
36270W        W 3053   8.810   3.578  12.816
36271W        W 3054  34.094  21.251   0.834
36272W        W 3055  40.761  21.454   4.168
36273W        W 3056  17.692  39.012   3.091
36274W        W 3057   7.740  39.572   1.824
36275W        W 3058  17.063  20.440   1.235
36276W        W 3059  41.066  34.497  10.675
36277W        W 3060  38.670  11.371  12.437
36278W        W 3061  39.243  39.932  13.411
36279W        W 3062   0.256  18.679   2.790
36280W        W 3063  22.694  12.971  14.741
36281W        W 3064  11.687  31.675   3.821
36282W        W 3065   5.377  37.295   4.529
36283W        W 3066  44.518  30.475   1.882
36284W        W 3067  23.532  11.970   2.240
36285W        W 3068  19.610  12.828  13.845
36286W        W 3069  31.117  28.637   0.199
36287W        W 3070  25.201  26.582   4.958
36288W        W 3071   9.858  23.478   2.666
36289W        W 3072  28.601   9.738   1.292
36290W        W 3073  39.251  41.343   2.321
36291W        W 3074  27.626   5.703  13.081
36292W        W 3075  16.001   3.494   1.269
36293W        W 3076  36.048   0.373   2.349
36294W        W 3077  41.526  30.132   2.212
36295W        W 3078   7.845  42.830  14.364
36296W        W 3079  21.759  35.883   1.852
36297W        W 3080  36.591   9.154  12.691
36298W        W 3081   3.837  17.280  10.772
36299W        W 3082  36.832  40.473  14.659
36300W        W 3083  31.353   6.757  13.954
36301W        W 3084  36.741  14.197  14.014
36302W        W 3085   9.756  41.553  14.097
36303W        W 3086  24.568   6.429   2.833
36304W        W 3087  14.586  38.520   2.467
36305W        W 3088  11.706  44.760  13.436
36306W        W 3089  42.057  21.041   0.891
36307W        W 3090   6.219  32.829  13.978
36308W        W 3091  19.767  37.753   3.341
36309W        W 3092  38.877  26.378   1.873
36310W        W 3093  33.398  11.622   2.450
36311W        W 3094  14.810  26.253  13.522
36312W        W 3095  12.558  44.767  11.845
36313W        W 3096  27.279  28.429  12.826
36314W        W 3097   9.795  19.048  12.902
36315W        W 3098  40.320  25.568  12.381
36316W        W 3099  19.470  15.328  14.176
36317W        W 3100  29.654  11.905   1.167
36318W        W 3101  34.885  41.755  12.112
36319W        W 3102   1.887  36.941  12.533
36320W        W 3103  19.480  18.165   4.226
36321W        W 3104   6.264  16.070  11.105
36322W        W 3105  31.171  19.058  11.570
36323W        W 3106  40.341  24.050  12.088
36324W        W 3107  15.168  24.579   4.447
36325W        W 3108  29.571  15.068  13.405
36326W        W 3109  24.708  34.195  14.848
36327W        W 3110  18.116  24.598  13.874
36328W        W 3111  18.278  21.968  12.483
36329W        W 3112  42.921  31.172   4.659
36330W        W 3113  41.035  18.177   3.810
36331W        W 3114  18.674  11.213  11.955
36332W        W 3115  17.551  16.468   2.319
36333W        W 3116   8.802  44.289  11.942
36334W        W 3117  14.742  16.694  11.220
36335W        W 3118  43.932  33.973   4.684
36336W        W 3119  20.279  22.636  13.032
36337W        W 3120  33.458  41.216   3.854
36338W        W 3121   0.856  19.025   4.899
36339W        W 3122  27.504  34.039   3.292
36340W        W 3123  43.271  37.484  13.539
36341W        W 3124  13.812  28.861   0.828
36342W        W 3125  26.089  18.084  10.377
36343W        W 3126  41.915  22.245   1.332
36344W        W 3127   7.833   1.638   4.612
36345W        W 3128  28.147   2.152   2.320
36346W        W 3129   3.096  20.210   2.474
36347W        W 3130  23.322   5.377  14.457
36348W        W 3131  26.595  20.101   3.101
36349W        W 3132   3.999  23.714  13.920
36350W        W 3133   5.252  13.243   2.825
36351W        W 3134   1.923   5.627   3.886
36352W        W 3135  15.236  29.923  12.775
36353W        W 3136  15.421  40.960  13.330
36354W        W 3137  31.937  43.779  11.187
36355W        W 3138  37.137  27.171  12.922
36356W        W 3139  18.638  23.973  13.323
36357W        W 3140  10.818  37.280  12.613
36358W        W 3141  30.998  33.486   4.688
36359W        W 3142  41.851  43.086  13.377
36360W        W 3143  31.644  10.683   3.929
36361W        W 3144  33.416   9.172  11.640
36362W        W 3145  24.453  17.807  14.282
36363W        W 3146  37.315  22.288   2.298
36364W        W 3147  26.687  30.159  11.964
36365W        W 3148  40.906   1.502   2.208
36366W        W 3149  37.952  36.497  14.829
36367W        W 3150  31.729   5.672   3.689
36368W        W 3151  34.965  11.891   3.773
36369W        W 3152  18.479  30.925   2.249
36370W        W 3153  12.633  35.834  11.651
36371W        W 3154  18.301  39.835   0.279
36372W        W 3155   2.709  32.020   4.563
36373W        W 3156   1.206  37.562   4.099
36374W        W 3157   0.019   9.367   3.117
36375W        W 3158  39.575  39.896  12.024
36376W        W 3159  43.900  11.124  10.720
36377W        W 3160   7.338  20.132  12.022
36378W        W 3161  15.282  42.914   4.524
36379W        W 3162   0.400  31.194   2.232
36380W        W 3163  24.690  22.961   2.767
36381W        W 3164  12.644   0.968   1.905
36382W        W 3165  41.148  35.436  10.719
36383W        W 3166   4.219  21.172  10.708
36384W        W 3167   9.734  39.376  13.055
36385W        W 3168   1.867  26.243   4.917
36386W        W 3169  42.980   1.315   1.673
36387W        W 3170  37.723  43.430  13.008
36388W        W 3171  40.984  30.124  11.633
36389W        W 3172  29.123  42.384   1.342
36390W        W 3173  33.565  13.142  10.793
36391W        W 3174   9.440   6.346  13.400
36392W        W 3175  22.813  20.845  14.812
36393W        W 3176  19.264  27.323   0.863
36394W        W 3177  37.106   4.981  12.112
36395W        W 3178  37.745  30.930   4.594
36396W        W 3179  38.006   3.203   1.722
36397W        W 3180   3.053   5.305  12.991
36398W        W 3181   6.938  16.853  11.972
36399W        W 3182  42.930  38.737   1.434
36400W        W 3183  20.501  23.452  12.911
36401W        W 3184   5.790  39.523   2.957
36402W        W 3185  17.638  23.648   0.748
36403W        W 3186  28.102   3.758   2.160
36404W        W 3187  27.408  30.700  13.049
36405W        W 3188  30.926  37.247  11.382
36406W        W 3189   0.513  38.879  10.786
36407W        W 3190  20.286  35.525   4.551
36408W        W 3191  38.663  19.250   1.370
36409W        W 3192  30.090   0.508  12.710
36410W        W 3193  31.793  28.544  10.680
36411W        W 3194  14.734  15.148   4.831
36412W        W 3195  38.936  25.682   3.700
36413W        W 3196  28.157  13.681   2.623
36414W        W 3197  30.520  18.338  10.234
36415W        W 3198   9.392   5.995   3.107
36416W        W 3199   2.359  34.991  11.695
36417W        W 3200  31.087  13.343   4.658
36418W        W 3201  39.616  28.919  13.548
36419W        W 3202  14.717   0.138   3.644
36420W        W 3203   8.712  22.226  11.726
36421W        W 3204   6.151  11.181  14.834
36422W        W 3205   9.793  25.946  13.008
36423W        W 3206  33.980  10.340  11.765
36424W        W 3207  18.119  13.491  10.206
36425W        W 3208  37.958  38.824   1.451
36426W        W 3209   4.490   7.621  12.002
36427W        W 3210   8.149  37.891  13.925
36428W        W 3211   3.390   6.722   2.581
36429W        W 3212  34.105  43.301   4.032
36430W        W 3213  19.220  43.250   4.952
36431W        W 3214  20.565  37.015  14.785
36432W        W 3215  39.968  36.026   2.629
36433W        W 3216  44.752  22.161   0.342
36434W        W 3217  37.254  33.967   3.581
36435W        W 3218  39.024   5.931   1.361
36436W        W 3219  30.608  39.828  12.604
36437W        W 3220  13.695  29.262  12.117
36438W        W 3221   7.283  26.615   2.583
36439W        W 3222  26.522  31.901  12.519
36440W        W 3223  29.741   0.843   2.092
36441W        W 3224  13.041  24.316   1.469
36442W        W 3225  10.425  39.191   2.297
36443W        W 3226  22.735  25.983  13.878
36444W        W 3227   4.569  33.894  14.233
36445W        W 3228  22.545  25.268  13.438
36446W        W 3229   7.210  28.006  11.482
36447W        W 3230  10.759  30.870  11.188
36448W        W 3231  20.289  33.269  14.397
36449W        W 3232  29.408  13.447  14.910
36450W        W 3233  41.070  10.908   3.216
36451W        W 3234  23.559  34.476   4.743
36452W        W 3235  18.597   3.685  13.124
36453W        W 3236  39.474  11.754   3.304
36454W        W 3237  15.901  36.991   1.407
36455W        W 3238  15.259  35.122   4.107
36456W        W 3239  10.140  10.540  13.561
36457W        W 3240  44.268  40.569   1.307
36458W        W 3241  29.201   0.456   0.912
36459W        W 3242  14.039  16.141  10.539
36460W        W 3243   2.466  12.277  14.284
36461W        W 3244  40.033  27.567  13.107
36462W        W 3245  37.450  38.276  11.751
36463W        W 3246  42.336  15.703  14.682
36464W        W 3247  31.097   1.779  12.915
36465W        W 3248  35.400   4.905   0.852
36466W        W 3249  38.123   2.457  14.923
36467W        W 3250   0.482  17.687   0.554
36468W        W 3251  37.793  18.648  12.149
36469W        W 3252   4.846  22.036  14.879
36470W        W 3253  23.315   4.798  11.297
36471W        W 3254  15.541  36.613  14.221
36472W        W 3255   1.854  43.343   2.302
36473W        W 3256   5.244  15.618   2.415
36474W        W 3257  22.653   4.085   1.384
36475W        W 3258   5.137  33.436   2.795
36476W        W 3259  42.640  35.962   3.324
36477W        W 3260  16.891  18.266   0.403
36478W        W 3261  34.853  12.443   2.586
36479W        W 3262  24.617  33.885   0.265
36480W        W 3263  19.432   2.699   1.760
36481W        W 3264  12.957  16.693   2.251
36482W        W 3265  30.611  14.657   2.702
36483W        W 3266  26.681  24.799   1.994
36484W        W 3267  43.314  10.946  14.439
36485W        W 3268  19.746  34.603  13.205
36486W        W 3269  11.616  13.599   2.768
36487W        W 3270   0.306  18.599   3.664
36488W        W 3271  34.018  39.428  13.066
36489W        W 3272  36.546  30.058  10.743
36490W        W 3273  13.515  43.352  13.378
36491W        W 3274  34.880  37.132  13.574
36492W        W 3275  32.543  27.025   4.181
36493W        W 3276  14.993  10.932   3.376
36494W        W 3277  24.808   0.840   2.681
36495W        W 3278  18.641  10.687  14.251
36496W        W 3279  31.668   3.596   3.202
36497W        W 3280  28.628  31.478  11.616
36498W        W 3281  32.402   5.193   1.269
36499W        W 3282   0.305  13.581  12.688
36500W        W 3283   8.845  19.315  14.078
36501W        W 3284  42.554  31.374   3.234
36502W        W 3285  19.635   0.427  11.498
36503W        W 3286  33.080  40.847  12.587
36504W        W 3287  21.661  25.557  13.415
36505W        W 3288  17.644  20.606   2.709
36506W        W 3289  25.449  27.492   2.475
36507W        W 3290  10.560  24.104   3.634
36508W        W 3291  34.792  19.225  11.574
36509W        W 3292   4.673  11.281  12.792
36510W        W 3293  25.063  16.406  11.600
36511W        W 3294  40.742  38.697  14.390
36512W        W 3295   7.412  21.533   4.759
36513W        W 3296  21.727   9.614  12.573
36514W        W 3297  32.531   7.639  11.647
36515W        W 3298   1.669  43.850   3.676
36516W        W 3299  30.047  22.791  11.816
36517W        W 3300  36.892  30.082  13.715
36518W        W 3301  44.887  16.179  13.916
36519W        W 3302  43.465  17.380  11.601
36520W        W 3303  30.372  16.626  13.041
36521W        W 3304  20.472  30.164  14.181
36522W        W 3305  43.376   9.422   1.546
36523W        W 3306  19.207  17.197   4.014
36524W        W 3307  18.035  43.498   1.854
36525W        W 3308  18.620  34.128  12.988
36526W        W 3309  17.185  31.363   0.898
36527W        W 3310  27.093  26.464   1.449
36528W        W 3311  41.260   6.890  14.886
36529W        W 3312  22.871   9.217  11.138
36530W        W 3313  35.091  22.271  10.919
36531W        W 3314   9.793  31.319   4.397
36532W        W 3315  14.148   2.996  14.300
36533W        W 3316   1.215  12.011  12.800
36534W        W 3317  27.414   0.310   2.350
36535W        W 3318   1.084  35.345  11.587
36536W        W 3319  15.294  20.874  14.844
36537W        W 3320   3.550  36.074   2.183
36538W        W 3321  29.569  27.091  11.452
36539W        W 3322  28.089  39.619  13.494
36540W        W 3323  28.838  42.126   3.106
36541W        W 3324  13.367   5.245   1.216
36542W        W 3325  20.979  42.832  11.103
36543W        W 3326   1.759  10.263  13.365
36544W        W 3327  41.202   2.256   2.564
36545W        W 3328   7.416  33.131  12.185
36546W        W 3329   1.652  40.546   0.748
36547W        W 3330  41.971  36.535  11.469
36548W        W 3331  28.850  36.913   0.263
36549W        W 3332   7.937  13.142  12.529
36550W        W 3333  38.894  17.295  11.687
36551W        W 3334  24.195  11.634  14.409
36552W        W 3335  27.563  38.143   1.207
36553W        W 3336  43.551  15.009  12.538
36554W        W 3337  25.561  25.394   1.735
36555W        W 3338  18.203  27.249   1.398
36556W        W 3339  22.701   2.371   1.747
36557W        W 3340   9.342  19.811  11.964
36558W        W 3341  31.990   7.179   3.000
36559W        W 3342  25.934  41.572   0.794
36560W        W 3343   2.871  31.598   2.185
36561W        W 3344  38.868  38.848  14.776
36562W        W 3345   0.001  39.859   4.422
36563W        W 3346  21.043  11.746   3.310
36564W        W 3347   2.735  16.759  13.841
36565W        W 3348   5.144   2.524   4.394
36566W        W 3349  12.784  34.915   1.184
36567W        W 3350  20.281  18.009  11.620
36568W        W 3351  43.391  17.969   0.643
36569W        W 3352  15.033  37.324  13.404
36570W        W 3353  13.348  10.924   5.030
36571W        W 3354  44.778  40.496   0.410
36572W        W 3355   8.439   8.134   4.091
36573W        W 3356   6.146  36.221  12.943
36574W        W 3357   5.441  14.570   0.768
36575W        W 3358  12.825  40.422  14.725
36576W        W 3359  26.006   3.999   1.686
36577W        W 3360  26.131  25.469   1.350
36578W        W 3361  19.723   1.181  12.023
36579W        W 3362   2.828  19.900  12.490
36580W        W 3363   1.358  23.683  14.442
36581W        W 3364  23.162  27.590  11.493
36582W        W 3365  16.095  16.105  14.806
36583W        W 3366  39.009  28.864   1.507
36584W        W 3367  28.714   2.834  14.326
36585W        W 3368  12.911  27.250  13.801
36586W        W 3369  27.193  10.333  11.427
36587W        W 3370   7.517  40.069   2.643
36588W        W 3371  32.033  23.079  14.573
36589W        W 3372  18.108   1.640  11.669
36590W        W 3373  13.728  21.715  13.423
36591W        W 3374  39.934  34.665   4.547
36592W        W 3375  37.142  43.252   2.304
36593W        W 3376  12.211  33.742  12.919
36594W        W 3377   7.894   6.425  14.827
36595W        W 3378  25.040  36.794  11.613
36596W        W 3379   0.339  26.321  14.943
36597W        W 3380   2.306  12.699  10.355
36598W        W 3381  38.778  15.190  11.789
36599W        W 3382   3.660  27.551  14.756
36600W        W 3383  27.732   0.898  14.755
36601W        W 3384   9.595  34.129   3.358
36602W        W 3385  35.918  15.443   3.286
36603W        W 3386  22.685  35.586   2.202
36604W        W 3387  43.254  44.326   1.925
36605W        W 3388  27.192  39.527   3.403
36606W        W 3389  35.019   1.991  11.544
36607W        W 3390  34.883  27.648  14.818
36608W        W 3391  26.062  40.840   0.008
36609W        W 3392  37.342  30.875   1.806
36610W        W 3393  20.318   4.122  14.319
36611W        W 3394   6.086  20.545   4.144
36612W        W 3395  43.503  27.471   2.144
36613W        W 3396  13.998   3.718  13.820
36614W        W 3397   9.178  22.137  11.501
36615W        W 3398  36.800   3.709  10.659
36616W        W 3399  43.473  18.734   3.237
36617W        W 3400  11.109   3.239  14.977
36618W        W 3401   4.151  22.559   2.357
36619W        W 3402  43.932  23.487   2.387
36620W        W 3403  40.756  22.249  14.070
36621W        W 3404  21.216   1.329  11.913
36622W        W 3405   9.141   8.976  12.504
36623W        W 3406  12.653   3.310  11.697
36624W        W 3407  36.357  26.135   4.245
36625W        W 3408   6.883   7.000   2.574
36626W        W 3409  40.875   2.310  12.363
36627W        W 3410  23.687  27.445   1.338
36628W        W 3411  14.675  15.917  14.701
36629W        W 3412  23.827  13.952  12.112
36630W        W 3413  13.854  36.540   3.181
36631W        W 3414  13.002  30.060  13.998
36632W        W 3415  39.976  20.797  10.800
36633W        W 3416  31.418  25.580   0.203
36634W        W 3417  22.544  15.197  12.638
36635W        W 3418  30.588  19.331   3.344
36636W        W 3419  33.029  11.814  14.533
36637W        W 3420  17.222   6.866  14.691
36638W        W 3421  26.944   9.272  11.457
36639W        W 3422  10.865  14.213  13.967
36640W        W 3423  28.112  40.784  11.298
36641W        W 3424   4.860  39.757   0.438
36642W        W 3425  34.646   6.737   3.589
36643W        W 3426   8.254  40.596  10.797
36644W        W 3427  29.505  42.826   4.148
36645W        W 3428  19.490  36.494   2.292
36646W        W 3429  24.047  29.344   3.644
36647W        W 3430   4.869  14.591   4.323
36648W        W 3431  43.391   8.179   2.617
36649W        W 3432  27.119   7.028   4.229
36650W        W 3433   7.825  30.059   4.828
36651W        W 3434  19.589  39.486   0.849
36652W        W 3435   7.965   7.351   0.424
36653W        W 3436   9.910  21.418  12.397
36654W        W 3437  22.919  19.018  10.668
36655W        W 3438  12.355   6.466   2.268
36656W        W 3439  25.809  34.103  10.622
36657W        W 3440  41.575  40.247  14.863
36658W        W 3441  20.478  21.624   1.224
36659W        W 3442  11.477  10.220   0.403
36660W        W 3443  27.348  32.618   1.302
36661W        W 3444  35.961  40.572   4.048
36662W        W 3445  20.184  19.041  11.576
36663W        W 3446  25.479  24.915   1.949
36664W        W 3447  32.576  13.773   4.159
36665W        W 3448  25.201  14.241   2.335
36666W        W 3449  17.846   4.218   1.119
36667W        W 3450  42.861   7.420  14.632
36668W        W 3451   9.302  17.723   0.353
36669W        W 3452  19.746  17.714   4.152
36670W        W 3453  14.703  37.053  14.383
36671W        W 3454  24.767  19.480  11.579
36672W        W 3455  18.628  35.127  11.136
36673W        W 3456  27.094  16.567   2.196
36674W        W 3457   2.872   4.380   4.321
36675W        W 3458  38.715   5.828  10.576
36676W        W 3459  28.363   7.448  11.258
36677W        W 3460  12.702  12.246  11.159
36678W        W 3461  25.104  18.088  13.026
36679W        W 3462  35.965   9.882   4.244
36680W        W 3463  14.796  25.467   4.399
36681W        W 3464   5.582  35.751   1.931
36682W        W 3465   3.223  43.934  13.948
36683W        W 3466  11.927  34.796   5.271
36684W        W 3467   8.883  14.218   0.010
36685W        W 3468   4.961  22.098   4.228
36686W        W 3469  17.691  27.007   2.706
36687W        W 3470  18.494  21.562  10.805
36688W        W 3471  13.828   4.714   4.270
36689W        W 3472  39.405  43.778  12.386
36690W        W 3473   9.801  12.404  11.607
36691W        W 3474   4.285  18.348   3.226
36692W        W 3475   9.288  19.279   2.646
36693W        W 3476   1.389  41.935   1.874
36694W        W 3477  13.269  20.660   2.330
36695W        W 3478  24.272  22.419  10.086
36696W        W 3479  17.968  17.358  14.965
36697W        W 3480  40.806  32.831   4.226
36698W        W 3481  29.810  43.866  13.419
36699W        W 3482  35.807  44.332   0.919
36700W        W 3483  42.278  19.081   1.236
36701W        W 3484  38.396  10.427  13.359
36702W        W 3485  12.684   2.012  10.468
36703W        W 3486  12.369  32.011   0.687
36704W        W 3487  20.761  24.049   1.192
36705W        W 3488  16.227  37.129   0.691
36706W        W 3489  23.782  24.975   1.498
36707W        W 3490  30.074  41.014   1.313
36708W        W 3491  43.333  34.614  14.367
36709W        W 3492  32.990  29.233   3.821
36710W        W 3493  43.352  15.104  11.615
36711W        W 3494  41.442   6.304   0.017
36712W        W 3495   5.744  17.511  11.671
36713W        W 3496  44.982  26.588  11.905
36714W        W 3497   1.777   5.194   4.129
36715W        W 3498  36.277  38.004  14.885
36716W        W 3499  16.685  20.164   0.975
36717W        W 3500  33.823   2.862   3.243
36718W        W 3501  13.690   5.353   2.234
36719W        W 3502  36.487  15.852   0.215
36720W        W 3503  30.007  42.033  11.401
36721W        W 3504  26.685  14.539  12.589
36722W        W 3505  38.730  36.996  10.665
36723W        W 3506  17.690  19.474  11.339
36724W        W 3507  37.787  11.646  13.799
36725W        W 3508  38.061  31.991   3.096
36726W        W 3509  18.245  35.840   1.508
36727W        W 3510   1.915  34.341  14.334
36728W        W 3511  24.124  40.329   3.748
36729W        W 3512  39.799   6.968  14.784
36730W        W 3513  36.756  44.358  12.964
36731W        W 3514   4.910  34.691  12.849
36732W        W 3515  21.923  23.539   3.268
36733W        W 3516  13.752  18.152  12.532
36734W        W 3517  17.311  11.767   0.267
36735W        W 3518  35.419  25.935  14.877
36736W        W 3519  37.836  26.066   0.946
36737W        W 3520  24.440  33.560   2.761
36738W        W 3521  24.254  23.267  12.458
36739W        W 3522   5.422   0.503  10.431
36740W        W 3523  43.846  20.866   0.800
36741W        W 3524  29.036  27.686  10.959
36742W        W 3525   6.962  29.933  12.418
36743W        W 3526  16.479   2.242  13.420
36744W        W 3527  25.170  10.174  14.060
36745W        W 3528  31.575   8.409  11.461
36746W        W 3529  11.191  11.638  10.641
36747W        W 3530  38.069  11.766   4.559
36748W        W 3531  44.847   8.359  14.935
36749W        W 3532   5.698  12.285  13.410
36750W        W 3533  15.147  18.308   2.179
36751W        W 3534  40.308  18.200   4.494
36752W        W 3535  21.222  43.454   3.245
36753W        W 3536   8.669  36.485   3.891
36754W        W 3537  17.850   6.824   1.413
36755W        W 3538  31.948   7.119  10.025
36756W        W 3539  33.011  43.939  11.178
36757W        W 3540   4.824  30.137  11.125
36758W        W 3541  34.568  29.135  10.720
36759W        W 3542  33.491  14.754  11.974
36760W        W 3543   8.818  33.881   3.757
36761W        W 3544  30.214  21.086  11.839
36762W        W 3545  22.174  12.194  11.179
36763W        W 3546  12.131  14.689  14.972
36764W        W 3547   6.319  17.659  12.072
36765W        W 3548   1.598  13.032   2.290
36766W        W 3549  41.273  41.693   3.914
36767W        W 3550  22.486  25.615  14.492
36768W        W 3551  24.028   3.756  11.943
36769W        W 3552   4.114  32.968  12.952
36770W        W 3553  21.600  12.894   1.774
36771W        W 3554  40.162  31.056   4.233
36772W        W 3555  34.978  24.732  12.102
36773W        W 3556  11.907  16.964  12.440
36774W        W 3557  16.726  26.419  13.331
36775W        W 3558  42.892   2.234   1.722
36776W        W 3559  44.982  41.301  14.832
36777W        W 3560   7.561  17.646   0.033
36778W        W 3561  25.177  27.656   9.984
36779W        W 3562  27.023  35.921   4.849
36780W        W 3563   7.845  38.764  11.571
36781W        W 3564  15.244   2.343   3.107
36782W        W 3565   3.060  15.282   0.786
36783W        W 3566  28.741  27.041  11.224
36784W        W 3567  17.470  26.088   4.878
36785W        W 3568   8.053   7.016   3.587
36786W        W 3569   9.754  25.939  13.519
36787W        W 3570   2.173  12.577  10.891
36788W        W 3571  37.121   2.312  14.781
36789W        W 3572  42.218  17.693   2.648
36790W        W 3573   3.661   5.913   0.874
36791W        W 3574  31.122   3.253   2.731
36792W        W 3575  14.909  23.228  12.452
36793W        W 3576  41.508  17.984   2.846
36794W        W 3577   9.404  14.107   0.874
36795W        W 3578  18.723  13.793   1.324
36796W        W 3579   3.693  41.887  12.606
36797W        W 3580  12.887   9.774  13.813
36798W        W 3581  30.716   5.257  10.669
36799W        W 3582  43.401  10.691  10.524
36800W        W 3583  39.073  35.838  12.036
36801W        W 3584  17.204  20.256  11.204
36802W        W 3585   4.827  19.106   4.970
36803W        W 3586  32.490  43.435   2.942
36804W        W 3587  38.033  11.184  11.061
36805W        W 3588  43.710  29.249  11.948
36806W        W 3589  41.496   0.907  14.538
36807W        W 3590   7.104  24.605   4.109
36808W        W 3591  41.734  29.168   4.166
36809W        W 3592  43.635  44.006   3.986
36810W        W 3593  10.695  28.451   4.018
36811W        W 3594  32.349  20.265  13.515
36812W        W 3595   1.757  12.733  14.359
36813W        W 3596  40.262  21.392  10.021
36814W        W 3597  34.819  31.333   2.191
36815W        W 3598  16.303  26.912   2.003
36816W        W 3599  32.588  15.660   2.821
36817W        W 3600   0.529  27.653  12.494
36818W        W 3601  22.564  10.467   3.577
36819W        W 3602   2.334  18.180   4.751
36820W        W 3603  20.612  12.472   2.748
36821W        W 3604  22.455  20.530  12.980
36822W        W 3605  25.326  31.931   3.193
36823W        W 3606  31.456  32.060  14.962
36824W        W 3607  16.746   0.983  11.737
36825W        W 3608  16.746  14.861  12.525
36826W        W 3609  16.802  33.551   3.575
36827W        W 3610  35.503  24.183  13.897
36828W        W 3611  43.870   9.273  14.965
36829W        W 3612  24.399  35.415  12.137
36830W        W 3613  18.283  10.824   4.493
36831W        W 3614  27.891  20.649  14.447
36832W        W 3615  19.683  43.253   1.177
36833W        W 3616  39.467  14.126   0.792
36834W        W 3617  25.260  21.696  11.088
36835W        W 3618  29.442  38.982   4.515
36836W        W 3619  25.349  42.401  14.304
36837W        W 3620  15.122  36.101   3.228
36838W        W 3621  37.043  32.967  14.504
36839W        W 3622   2.166  14.594  13.277
36840W        W 3623  28.425  29.926  13.411
36841W        W 3624   7.825  41.555  12.505
36842W        W 3625   4.467  21.688  12.043
36843W        W 3626  36.850  26.631  14.835
36844W        W 3627  28.464   9.847  10.614
36845W        W 3628  22.344  35.552   0.433
36846W        W 3629  18.698  39.285   4.528
36847W        W 3630  28.091  31.574  13.563
36848W        W 3631  16.143  39.276   0.326
36849W        W 3632  11.396   3.880  10.675
36850W        W 3633  34.340  12.338   1.915
36851W        W 3634  31.679  33.228   1.381
36852W        W 3635   2.791  41.955   4.545
36853W        W 3636   5.902   5.787  10.492
36854W        W 3637  21.625  20.340   1.830
36855W        W 3638  21.690  37.990   1.890
36856W        W 3639  15.260  25.105  14.851
36857W        W 3640   4.132   4.378  10.815
36858W        W 3641  16.266  17.044   4.018
36859W        W 3642   7.319  21.028   1.251
36860W        W 3643  36.765  11.756  12.680
36861W        W 3644  15.121  12.772   3.223
36862W        W 3645  18.732  19.987  13.620
36863W        W 3646  19.023  42.392   3.144
36864W        W 3647  21.386  13.890  12.124
36865W        W 3648  23.382  10.246   1.755
36866W        W 3649  16.174  20.724   1.884
36867W        W 3650   8.181  22.704   2.743
36868W        W 3651  21.502   5.474   3.255
36869W        W 3652  24.105  28.198  12.518
36870W        W 3653  13.194  20.192   3.667
36871W        W 3654  19.197  16.383   1.927
36872W        W 3655  36.519  14.479   4.633
36873W        W 3656   6.608  22.165   0.427
36874W        W 3657  33.148  21.300  12.051
36875W        W 3658   9.008  42.549  11.446
36876W        W 3659  11.669  20.707   3.628
36877W        W 3660   9.334  44.287   1.239
36878W        W 3661  32.088  17.048  13.318
36879W        W 3662  22.265   9.643  11.172
36880W        W 3663  44.453  19.520   2.243
36881W        W 3664   1.768  23.252  13.418
36882W        W 3665  16.133  23.288  14.943
36883W        W 3666  40.894  21.244   1.373
36884W        W 3667  29.216  29.163  11.113
36885W        W 3668  43.226   2.745  11.881
36886W        W 3669  21.835   7.776   4.675
36887W        W 3670  37.820  36.518  14.298
36888W        W 3671  29.146  26.569   0.705
36889W        W 3672  30.410  13.276   0.949
36890W        W 3673  36.530  38.785   0.413
36891W        W 3674   1.975  19.323  14.666
36892W        W 3675  43.252  28.598  10.684
36893W        W 3676  42.033  28.786   4.381
36894W        W 3677  18.178  21.322   3.669
36895W        W 3678  32.497  36.276   0.512
36896W        W 3679   2.373  34.828   2.872
36897W        W 3680   1.538  22.989  10.673
36898W        W 3681  30.939  37.534   3.078
36899W        W 3682  13.145  23.232   3.710
36900W        W 3683  28.213   2.935   3.610
36901W        W 3684  31.930   5.048  13.033
36902W        W 3685  40.344  36.926   4.072
36903W        W 3686  35.906  14.636   3.984
36904W        W 3687   7.058   7.571   5.352
36905W        W 3688  11.279  13.160   4.202
36906W        W 3689  27.305  40.798   3.519
36907W        W 3690  23.417  33.627  12.514
36908W        W 3691  38.178   4.249  14.904
36909W        W 3692   8.872  12.860  11.719
36910W        W 3693  42.466   9.700  13.060
36911W        W 3694   4.146  24.709   4.223
36912W        W 3695  33.612  25.975  10.808
36913W        W 3696   8.211  27.781   2.624
36914W        W 3697  25.500   3.908  11.239
36915W        W 3698   8.735  11.528  11.949
36916W        W 3699  27.461  10.003   3.271
36917W        W 3700  23.454  17.541  12.522
36918W        W 3701   9.797   9.151  14.533
36919W        W 3702  42.526  29.600  13.499
36920W        W 3703  25.132  24.693   2.774
36921W        W 3704  10.235  39.093   4.148
36922W        W 3705  41.009   7.050  14.443
36923W        W 3706  21.526  16.566   0.783
36924W        W 3707  19.584  26.508   4.309
36925W        W 3708  35.915  32.047  12.228
36926W        W 3709   1.344  10.390  14.246
36927W        W 3710  44.930  36.529   3.291
36928W        W 3711  28.033  18.284  14.397
36929W        W 3712  37.357   4.946  10.605
36930W        W 3713  19.699  33.982   0.896
36931W        W 3714  42.479  22.250   2.279
36932W        W 3715  20.050  10.039   0.324
36933W        W 3716  43.393  35.500   2.132
36934W        W 3717   7.211  44.903  11.462
36935W        W 3718  42.908  36.442  14.528
36936W        W 3719  37.921  28.459  12.464
36937W        W 3720   5.512  32.964   4.804
36938W        W 3721  42.273  33.546  12.922
36939W        W 3722  14.859   6.376  11.440
36940W        W 3723  28.901  27.041  13.908
36941W        W 3724  17.658  37.061  10.630
36942W        W 3725  38.917  28.499  14.287
36943W        W 3726  37.059  14.896   1.677
36944W        W 3727  14.116  36.644  14.760
36945W        W 3728  23.264  35.832   3.785
36946W        W 3729  21.338  15.117  10.608
36947W        W 3730   1.473   5.321  11.571
36948W        W 3731   0.034  44.455   2.384
36949W        W 3732  22.705  33.732  12.047
36950W        W 3733  38.668  38.958   0.509
36951W        W 3734  42.355  39.874  12.911
36952W        W 3735  16.156  44.587   1.920
36953W        W 3736  38.839  17.306  14.979
36954W        W 3737  40.364  20.746  14.381
36955W        W 3738  34.908  25.204   4.794
36956W        W 3739   0.765  15.796   2.720
36957W        W 3740  11.400   2.459  11.104
36958W        W 3741   6.437  15.743  10.707
36959W        W 3742  28.140  34.901   1.367
36960W        W 3743  19.153  19.663  13.537
36961W        W 3744   5.809  28.814  14.202
36962W        W 3745  12.749  38.355  12.882
36963W        W 3746   3.009  19.350   4.588
36964W        W 3747  31.520  12.302  13.771
36965W        W 3748   2.861   4.363  14.403
36966W        W 3749   2.429  34.543  10.781
36967W        W 3750  43.515  22.792   1.426
36968W        W 3751  30.959  23.744   0.189
36969W        W 3752   3.098  18.985   2.782
36970W        W 3753  42.844  14.906  14.219
36971W        W 3754  43.067   4.095   3.921
36972W        W 3755  38.114  17.673   4.797
36973W        W 3756  11.183   8.888  14.970
36974W        W 3757  12.777  42.078   1.871
36975W        W 3758  12.605  20.045  13.851
36976W        W 3759  16.542  29.504   0.935
36977W        W 3760  36.417   0.743   4.209
36978W        W 3761  42.515   3.876   0.829
36979W        W 3762  17.052   8.349  12.384
36980W        W 3763   2.308  42.933  11.992
36981W        W 3764  44.332  14.388  10.204
36982W        W 3765  16.423  29.893  11.423
36983W        W 3766   8.213   1.084  13.963
36984W        W 3767  34.172   8.378   1.795
36985W        W 3768  22.573  34.348  14.455
36986W        W 3769  10.220   2.045   0.930
36987W        W 3770  12.893   3.369  14.918
36988W        W 3771  24.169  12.523  13.980
36989W        W 3772   0.575  24.597   0.474
36990W        W 3773  23.290  19.584  13.749
36991W        W 3774   6.805  16.883  14.191
36992W        W 3775  42.552  33.598   4.147
36993W        W 3776  36.342  17.757   0.449
36994W        W 3777  24.710  28.987  13.743
36995W        W 3778  41.936  28.703  11.580
36996W        W 3779   1.986  16.733  11.572
36997W        W 3780  32.369   0.397   4.889
36998W        W 3781   2.457  19.037  14.883
36999W        W 3782  11.825  11.106  13.122
37000W        W 3783  22.940  16.617  11.155
37001W        W 3784  27.099   3.253   4.385
37002W        W 3785  30.082  37.631  12.940
37003W        W 3786  13.611  32.350   1.089
37004W        W 3787  11.587   3.832  12.460
37005W        W 3788  15.565  35.419   2.357
37006W        W 3789  16.914  14.697  12.022
37007W        W 3790  36.546  33.917   1.498
37008W        W 3791  20.713  18.790  11.659
37009W        W 3792   3.279  10.666  10.951
37010W        W 3793  13.951  23.873  12.476
37011W        W 3794   2.431  11.447   2.162
37012W        W 3795  32.123  23.654  10.600
37013W        W 3796  19.171  11.597   3.890
37014W        W 3797  37.011  17.221  14.158
37015W        W 3798  34.715  24.133  13.444
37016W        W 3799  40.605   5.132   5.249
37017W        W 3800  39.928   0.814   1.288
37018W        W 3801  39.967  33.477  10.723
37019W        W 3802  31.645  10.394  11.728
37020W        W 3803   6.732  27.841  13.324
37021W        W 3804  30.958  24.751   3.803
37022W        W 3805  40.137  34.216  14.910
37023W        W 3806   6.857  42.628  14.338
37024W        W 3807   0.854  38.895   2.622
37025W        W 3808  29.567   8.055  13.498
37026W        W 3809  44.068  10.221  11.573
37027W        W 3810   0.576  32.041   0.838
37028W        W 3811   3.406  17.138  14.803
37029W        W 3812   7.642  33.506   0.859
37030W        W 3813  34.981  25.247  11.161
37031W        W 3814  21.928  43.864   4.369
37032W        W 3815   3.713  14.684  11.515
37033W        W 3816  42.692  30.418  13.854
37034W        W 3817  43.769  31.157   1.746
37035W        W 3818   5.400  13.644   1.450
37036W        W 3819  13.341   4.002   2.324
37037W        W 3820   1.830   0.669   0.065
37038W        W 3821  42.000  36.776   2.863
37039W        W 3822  22.048   0.070  11.281
37040W        W 3823  39.378   0.838   2.613
37041W        W 3824  36.579   8.830   3.103
37042W        W 3825  25.100  19.603  11.195
37043W        W 3826  36.835  28.231  13.176
37044W        W 3827  28.571  22.110  14.544
37045W        W 3828  21.531   6.774  11.731
37046W        W 3829  26.613  14.798   1.421
37047W        W 3830  19.601  13.413  12.971
37048W        W 3831  31.839  19.503  10.736
37049W        W 3832   1.779  34.404  14.837
37050W        W 3833  38.305  11.721  12.481
37051W        W 3834  38.243  43.790   0.181
37052W        W 3835   0.404   7.545   4.999
37053W        W 3836   6.896  25.083   4.079
37054W        W 3837  26.719   6.363   0.720
37055W        W 3838  39.747  30.747  11.486
37056W        W 3839  21.418  18.880  11.136
37057W        W 3840  19.661  23.820   2.362
37058W        W 3841  31.670  13.019  14.522
37059W        W 3842  39.767  26.564   1.433
37060W        W 3843  12.770   8.900   1.296
37061W        W 3844  29.646  21.852  13.464
37062W        W 3845  44.367  37.141   4.876
37063W        W 3846   7.155  39.628   1.403
37064W        W 3847  30.429  38.506  13.030
37065W        W 3848  26.560   5.288  10.748
37066W        W 3849   6.086   3.246   2.651
37067W        W 3850  38.709   4.100  11.006
37068W        W 3851  22.640  17.942  13.945
37069W        W 3852  37.634  41.344  12.938
37070W        W 3853  29.539  26.050  14.011
37071W        W 3854   1.300   8.724  10.720
37072W        W 3855  12.123  33.925  10.586
37073W        W 3856  19.835  13.440  10.497
37074W        W 3857  44.768  33.321  14.273
37075W        W 3858  26.366  30.379   4.216
37076W        W 3859   9.731  38.060  11.184
37077W        W 3860  28.676  42.361   4.092
37078W        W 3861  36.983  40.603   1.330
37079W        W 3862  38.480  35.728  11.602
37080W        W 3863  24.584  26.231  13.421
37081W        W 3864   4.726  20.659  13.160
37082W        W 3865  12.407  36.816   9.988
37083W        W 3866  32.402  38.054  13.939
37084W        W 3867   7.901  17.116  13.332
37085W        W 3868  23.621  41.608   5.353
37086W        W 3869  21.929  31.573  12.136
37087W        W 3870  21.282   4.023   5.290
37088W        W 3871  28.382  27.288   0.970
37089W        W 3872  41.643  15.142   1.295
37090W        W 3873  13.817   0.634  13.146
37091W        W 3874  41.972  31.245  12.318
37092W        W 3875   4.911  34.070   1.746
37093W        W 3876  33.919  15.714  11.125
37094W        W 3877  39.821   8.322   0.458
37095W        W 3878   1.796   7.336   0.262
37096W        W 3879  18.201  14.043   3.268
37097W        W 3880  37.289   6.722  13.429
37098W        W 3881   6.874  37.328  12.068
37099W        W 3882  34.002   9.683   0.092
37100W        W 3883  30.885   8.776  13.348
37101W        W 3884  37.124  10.265   2.074
37102W        W 3885  27.474  15.671  13.248
37103W        W 3886  25.984  37.060   4.743
37104W        W 3887  18.702   5.789  14.485
37105W        W 3888  33.452  42.813   0.734
37106W        W 3889  34.578  30.614   3.949
37107W        W 3890  10.613  34.992   1.893
37108W        W 3891  29.660   6.304  10.611
37109W        W 3892  39.691  13.884  12.306
37110W        W 3893   6.639   1.890  10.615
37111W        W 3894  23.886   7.189  11.216
37112W        W 3895  32.505   3.215   1.203
37113W        W 3896  29.867  44.381  10.817
37114W        W 3897  13.265   7.795   5.091
37115W        W 3898  29.565  13.631   0.964
37116W        W 3899  15.656  16.327   1.210
37117W        W 3900  15.387  16.157   5.236
37118W        W 3901  17.755  13.341  12.659
37119W        W 3902  38.409   3.549   1.806
37120W        W 3903  27.274  23.136   5.076
37121W        W 3904  31.931  10.583  10.695
37122W        W 3905   3.322  31.736  13.259
37123W        W 3906   1.940  32.199  12.695
37124W        W 3907  43.080  41.927   4.584
37125W        W 3908   7.648  21.564   1.738
37126W        W 3909  31.650  28.679  10.176
37127W        W 3910  36.097  21.322  14.004
37128W        W 3911  42.982   7.382  11.874
37129W        W 3912  31.383   0.087  11.638
37130W        W 3913  28.184  13.798   1.129
37131W        W 3914  26.884  12.754   3.093
37132W        W 3915  23.972   8.768  12.462
37133W        W 3916  40.855  12.516  11.151
37134W        W 3917  34.898  32.668  14.844
37135W        W 3918  18.135  43.225   1.270
37136W        W 3919  41.614  13.343  13.014
37137W        W 3920  31.205  26.054  13.493
37138W        W 3921   5.841  30.654   2.889
37139W        W 3922   3.400  41.076   2.259
37140W        W 3923  20.190  26.235   0.830
37141W        W 3924   5.742  25.614  12.050
37142W        W 3925  15.326  31.402  12.438
37143W        W 3926   9.740  16.163   2.763
37144W        W 3927   7.795  15.637   0.022
37145W        W 3928  42.513  23.123  13.488
37146W        W 3929  30.406   6.715   4.224
37147W        W 3930  40.999  36.094  13.180
37148W        W 3931  16.148  34.163   3.071
37149W        W 3932  19.538  20.317  14.010
37150W        W 3933  17.254  40.983  12.215
37151W        W 3934  34.072  14.421   3.635
37152W        W 3935   3.189  10.064  14.495
37153W        W 3936  24.572  27.150  14.772
37154W        W 3937  44.463  19.647   3.161
37155W        W 3938  33.121  17.748   0.475
37156W        W 3939  11.534  38.023  11.447
37157W        W 3940   8.260  18.561   4.524
37158W        W 3941  33.002  41.803  11.666
37159W        W 3942  17.182  22.107   4.301
37160W        W 3943  28.637   1.981   2.420
37161W        W 3944  40.899   8.485  14.320
37162W        W 3945  41.173  20.633  13.809
37163W        W 3946  13.623   2.010   4.189
37164W        W 3947   7.889  34.655  10.762
37165W        W 3948  37.627  30.988   3.075
37166W        W 3949  22.026  13.426   0.706
37167W        W 3950  42.058  37.034  14.482
37168W        W 3951  21.966  32.083  12.376
37169W        W 3952  28.191  30.842   4.624
37170W        W 3953   6.960   3.984  13.521
37171W        W 3954  13.404  14.364  14.500
37172W        W 3955  34.885  32.572  11.164
37173W        W 3956  35.698  19.624  12.644
37174W        W 3957  39.841  10.883  14.006
37175W        W 3958  15.793   7.787  11.235
37176W        W 3959  20.302  26.781   3.330
37177W        W 3960  26.449  22.936   4.660
37178W        W 3961  19.370   9.790  13.511
37179W        W 3962  23.678  37.594  14.349
37180W        W 3963  39.881  16.780   2.140
37181W        W 3964  13.864  38.448  12.641
37182W        W 3965  23.055  27.960   1.964
37183W        W 3966   7.316  10.810  14.029
37184W        W 3967   8.831  26.195   3.423
37185W        W 3968   2.689  20.228  10.730
37186W        W 3969  38.539  41.045  10.650
37187W        W 3970   7.259   5.189   1.515
37188W        W 3971  39.394  27.421  13.895
37189W        W 3972   2.250   7.777  14.556
37190W        W 3973  22.391   4.437   4.974
37191W        W 3974  31.589   1.983  11.506
37192W        W 3975   7.879  35.446   0.046
37193W        W 3976  32.631  34.127   0.462
37194W        W 3977  19.174  16.574  13.580
37195W        W 3978  24.321  23.312  10.295
37196W        W 3979   5.417  40.756   3.158
37197W        W 3980  43.258  29.730  11.712
37198W        W 3981  16.028  42.505   4.430
37199W        W 3982  33.864   4.853   0.808
37200W        W 3983  43.666  36.888  13.090
37201W        W 3984  35.764  36.389   4.151
37202W        W 3985  27.448   6.819   2.450
37203W        W 3986  24.317  41.496   4.113
37204W        W 3987  18.842  18.569   4.572
37205W        W 3988   2.290  40.503  10.764
37206W        W 3989  21.168  43.989  12.649
37207W        W 3990  29.526  40.728   1.908
37208W        W 3991  34.640  10.890  12.815
37209W        W 3992   1.185   3.897   1.371
37210W        W 3993  43.028   3.531  11.700
37211W        W 3994   7.865  31.441  10.512
37212W        W 3995   6.494  40.907   2.767
37213W        W 3996  39.282  43.803   0.250
37214W        W 3997  34.125  38.084   3.175
37215W        W 3998  30.483  22.986  13.021
37216W        W 3999   6.460  24.545  14.462
37217W        W 4000  18.705  19.490  10.409
37218W        W 4001  26.900  40.383   1.847
37219W        W 4002  25.703  25.234   0.874
37220W        W 4003  32.886   2.053   1.659
37221W        W 4004  42.906  12.065  14.669
37222W        W 4005  29.676  18.786   3.712
37223W        W 4006  29.079  12.815  11.535
37224W        W 4007  39.829   8.405  14.515
37225W        W 4008  18.867  12.058  11.489
37226W        W 4009   5.011  13.891  11.157
37227W        W 4010   8.782   6.998   4.656
37228W        W 4011  20.580  38.781  12.292
37229W        W 4012  13.234   2.015  11.107
37230W        W 4013  41.584   0.171   0.824
37231W        W 4014  40.810  32.836   0.891
37232W        W 4015   6.003  13.050  11.086
37233W        W 4016  39.265   8.122  12.034
37234W        W 4017   1.650  25.254  13.397
37235W        W 4018   8.321  30.105   4.568
37236W        W 4019  27.871  26.558  13.574
37237W        W 4020  36.366  39.871  10.810
37238W        W 4021  12.191  37.059   2.179
37239W        W 4022  29.278  18.165   4.584
37240W        W 4023  24.131  41.331  11.901
37241W        W 4024  29.315  28.827   3.558
37242W        W 4025  38.494  39.034  11.527
37243W        W 4026  15.708  17.297   4.570
37244W        W 4027  29.271  21.643   1.827
37245W        W 4028   8.859  37.734  11.592
37246W        W 4029  19.606  23.538  12.986
37247W        W 4030  14.529  26.966  12.427
37248W        W 4031  13.877   5.697   1.387
37249W        W 4032  12.246  15.384  14.798
37250W        W 4033   4.666  28.138   3.127
37251W        W 4034  21.145  24.625  10.992
37252W        W 4035   1.923   5.779  13.868
37253W        W 4036   9.275   6.240   4.534
37254W        W 4037  21.274  22.755   3.056
37255W        W 4038   1.024  16.586   3.267
37256W        W 4039  35.528  28.182   1.191
37257W        W 4040  38.276  40.236   1.393
37258W        W 4041  21.410  34.073   3.251
37259W        W 4042  24.497   0.699   0.270
37260W        W 4043  18.641  40.278  11.347
37261W        W 4044   5.280   6.256   3.167
37262W        W 4045  30.979  40.845   2.941
37263W        W 4046  36.283   0.276   4.714
37264W        W 4047  28.700   0.927   2.388
37265W        W 4048   0.188   0.487  13.493
37266W        W 4049  40.378  11.480   2.817
37267W        W 4050  38.041   9.832   2.732
37268W        W 4051  24.032  17.023   4.590
37269W        W 4052  38.925  12.347  12.382
37270W        W 4053  41.829  15.603   4.650
37271W        W 4054  35.937  18.029   0.557
37272W        W 4055  44.868  36.385  11.574
37273W        W 4056  38.339  32.502  13.032
37274W        W 4057  13.185  32.615   1.430
37275W        W 4058  29.889  34.133   2.455
37276W        W 4059  23.390  13.259  11.925
37277W        W 4060   0.479  17.261   1.803
37278W        W 4061  31.008  32.518   0.768
37279W        W 4062  12.461  26.616  11.398
37280W        W 4063  31.609  20.224   2.277
37281W        W 4064  37.508  28.628  12.719
37282W        W 4065   9.252   3.859  14.378
37283W        W 4066  17.470   8.093   0.971
37284W        W 4067  18.280  18.789  13.790
37285W        W 4068  28.305  37.044   0.227
37286W        W 4069   4.436  44.040  13.537
37287W        W 4070  43.691  11.716  14.441
37288W        W 4071  12.838  33.262  14.494
37289W        W 4072   2.929   0.816  11.709
37290W        W 4073   0.685  44.593   5.171
37291W        W 4074   9.523  41.979  11.160
37292W        W 4075  16.588   9.574  12.202
37293W        W 4076  32.044  19.974  14.335
37294W        W 4077   5.137  44.386  11.625
37295W        W 4078  33.254  28.957   0.308
37296W        W 4079  21.091  33.494  11.410
37297W        W 4080   5.208   3.746  12.581
37298W        W 4081  40.319  37.239   4.987
37299W        W 4082   3.505  10.267   0.302
37300W        W 4083  24.872  34.402   0.737
37301W        W 4084  35.350   5.814   0.893
37302W        W 4085  41.732  26.404   5.090
37303W        W 4086  11.195  26.027   2.283
37304W        W 4087   7.580  24.702  10.982
37305W        W 4088  29.580  35.263   0.484
37306W        W 4089  41.490  34.823   1.803
37307W        W 4090  36.461  19.481  14.880
37308W        W 4091  27.402  34.292   3.755
37309W        W 4092  29.092  42.950   3.869
37310W        W 4093   7.576  40.921  14.419
37311W        W 4094  26.743  14.423  14.433
37312W        W 4095  39.726   8.714   4.639
37313W        W 4096  41.760  10.708   0.865
37314W        W 4097  30.600   8.506  13.013
37315W        W 4098   1.057  31.468   4.362
37316W        W 4099   4.594   3.810  13.128
37317W        W 4100  25.114  35.480   3.583
37318W        W 4101  26.774  22.220  14.948
37319W        W 4102  28.055  25.683   3.153
37320W        W 4103   8.147   2.572   3.916
37321W        W 4104  43.477  28.172   1.065
37322W        W 4105  35.398  34.220  10.678
37323W        W 4106  31.876  28.103   4.203
37324W        W 4107  12.397   4.683  11.169
37325W        W 4108  29.002  35.025  13.329
37326W        W 4109  29.977  35.639   1.698
37327W        W 4110   6.833  42.778  13.823
37328W        W 4111  42.185  42.335   1.174
37329W        W 4112  39.606  10.889  13.132
37330W        W 4113  12.598  31.398  13.934
37331W        W 4114  21.140  43.837  13.527
37332W        W 4115  37.961  34.398   1.932
37333W        W 4116  25.950   3.960   2.196
37334W        W 4117  23.313  17.851   3.631
37335W        W 4118  17.258  16.710   0.286
37336W        W 4119   6.342   7.201   3.236
37337W        W 4120   1.298  19.125  11.301
37338W        W 4121  31.740   9.701  14.893
37339W        W 4122   2.229  10.727   1.872
37340W        W 4123  15.027  23.040   2.244
37341W        W 4124   6.852  23.150  12.256
37342W        W 4125  31.165  17.120  13.514
37343W        W 4126  23.655  12.213   1.391
37344W        W 4127  36.131  11.411   0.906
37345W        W 4128  43.774  39.424  13.853
37346W        W 4129  16.505  22.242   0.397
37347W        W 4130  20.315  31.414   0.325
37348W        W 4131  30.835  14.566   0.747
37349W        W 4132  28.140  30.939   1.643
37350W        W 4133  18.015  13.857  13.316
37351W        W 4134  13.404  27.416  12.486
37352W        W 4135  24.236  43.855  14.358
37353W        W 4136   8.299   1.477   0.284
37354W        W 4137  39.868   0.303   2.405
37355W        W 4138  43.946   3.909  11.697
37356W        W 4139   8.944  23.093   1.701
37357W        W 4140  43.820  20.342   0.812
37358W        W 4141  23.563  20.400  14.541
37359W        W 4142   3.217  10.710   0.336
37360W        W 4143  10.597  14.723  14.986
37361W        W 4144  43.582  30.164   0.290
37362W        W 4145  19.218  11.128   0.271
37363W        W 4146   8.184  12.693  12.885
37364W        W 4147  14.125  13.182   2.565
37365W        W 4148   7.705  26.540  14.846
37366W        W 4149  41.633  19.691  13.022
37367W        W 4150  12.869   2.043   4.117
37368W        W 4151  19.714  22.232  14.958
37369W        W 4152  30.794  24.486   0.780
37370W        W 4153  20.693  27.142   3.040
37371W        W 4154  20.224   3.301   1.503
37372W        W 4155  16.213   6.877  12.393
37373W        W 4156   4.292  38.792   3.778
37374W        W 4157  23.046  36.038  12.814
37375W        W 4158  44.622  13.710  10.399
37376W        W 4159  20.074  33.339   0.765
37377W        W 4160  32.433  14.770   4.221
37378W        W 4161   8.958  12.869  13.912
37379W        W 4162  12.844   5.502  14.351
37380W        W 4163  32.381  20.080   1.708
37381W        W 4164  14.387   9.842   3.848
37382W        W 4165  17.175   7.261   0.021
37383W        W 4166  40.659  39.996  13.855
37384W        W 4167   0.886  17.951  13.428
37385W        W 4168  44.014  40.833   3.300
37386W        W 4169  12.704   1.430   2.155
37387W        W 4170  25.968  29.574   4.895
37388W        W 4171  16.140   1.190   1.207
37389W        W 4172  28.240  33.917   1.013
37390W        W 4173  25.216  22.858   4.853
37391W        W 4174   2.255  20.104  13.468
37392W        W 4175  28.927  18.153  12.270
37393W        W 4176  10.267   2.778  10.644
37394W        W 4177  39.840  10.716   1.727
37395W        W 4178  24.964  11.110  14.797
37396W        W 4179   3.577  35.897  13.787
37397W        W 4180   9.523  33.056   0.294
37398W        W 4181  10.328   4.679  10.528
37399W        W 4182   0.323   8.971   1.458
37400W        W 4183  16.343  19.762  11.525
37401W        W 4184  15.975  39.059   1.631
37402W        W 4185  37.474  20.228   0.483
37403W        W 4186   2.493  32.585   0.516
37404W        W 4187   4.691  30.413  11.531
37405W        W 4188   3.940   8.896  10.207
37406W        W 4189  29.494  28.049   0.479
37407W        W 4190  12.938  25.999   3.224
37408W        W 4191   8.152  41.604   3.974
37409W        W 4192   1.785  36.259   0.386
37410W        W 4193  25.000  23.601   9.817
37411W        W 4194   3.874  14.286  12.816
37412W        W 4195  29.796   2.533  14.458
37413W        W 4196  18.788  11.642   3.246
37414W        W 4197  15.142  39.472  11.009
37415W        W 4198   8.652  22.495   1.477
37416W        W 4199   6.421  27.217  14.370
37417W        W 4200  33.522   5.178   2.503
37418W        W 4201  34.366  35.811   1.806
37419W        W 4202  24.978  10.177   0.075
37420W        W 4203  36.575  34.140  13.021
37421W        W 4204  14.318  26.973   2.216
37422W        W 4205  42.137  15.211  14.368
37423W        W 4206  33.058  13.242   4.620
37424W        W 4207   5.867   3.910  10.663
37425W        W 4208  31.592  26.482  11.175
37426W        W 4209  22.663  34.431   0.365
37427W        W 4210  43.180  10.319   5.377
37428W        W 4211  31.563   6.402   3.130
37429W        W 4212  23.557  41.939   1.349
37430W        W 4213  22.630   0.505   1.680
37431W        W 4214  42.972  38.771  11.163
37432W        W 4215  25.156  23.189   4.096
37433W        W 4216  13.390  38.459  14.036
37434W        W 4217  31.640  17.319  13.398
37435W        W 4218   4.151   5.261  12.376
37436W        W 4219  44.454   2.431  14.820
37437W        W 4220   4.634  32.129  13.777
37438W        W 4221  38.040   1.150   3.202
37439W        W 4222  27.870   8.117  12.962
37440W        W 4223  40.813   6.770  11.800
37441W        W 4224   5.188  28.950  12.142
37442W        W 4225  18.797  16.892   4.752
37443W        W 4226  13.621  29.077   2.910
37444W        W 4227  44.373   3.205   0.300
37445W        W 4228  19.349  29.153  14.564
37446W        W 4229  32.086  35.885   2.155
37447W        W 4230  38.013  30.697   2.819
37448W        W 4231  14.091  19.416   0.888
37449W        W 4232  33.367  36.371  12.941
37450W        W 4233  30.706   6.911  11.938
37451W        W 4234  42.698  25.368  10.625
37452W        W 4235   6.360   3.093  14.565
37453W        W 4236  33.952  39.394   2.826
37454W        W 4237   1.285  16.143  11.731
37455W        W 4238  29.668   1.885   3.648
37456W        W 4239  28.240  13.285   4.781
37457W        W 4240   2.518  25.570  13.355
37458W        W 4241  32.006   6.547   4.828
37459W        W 4242  17.322  31.373   4.565
37460W        W 4243  14.624  24.093   0.001
37461W        W 4244  15.769   6.604  11.529
37462W        W 4245  24.301   5.644   1.889
37463W        W 4246   3.879  13.849   0.645
37464W        W 4247  22.463  16.630  10.109
37465W        W 4248  34.484   1.943  12.547
37466W        W 4249  19.570  23.613   3.674
37467W        W 4250   5.570   1.668  11.282
37468W        W 4251  16.120  11.647  14.002
37469W        W 4252  37.142  40.857   2.774
37470W        W 4253   4.715  43.052  14.038
37471W        W 4254  20.248  12.315   1.609
37472W        W 4255  21.263  12.051   2.723
37473W        W 4256  41.626  38.862   1.835
37474W        W 4257  33.150   5.292   1.974
37475W        W 4258  15.319   6.200  14.235
37476W        W 4259  36.395   0.800   2.958
37477W        W 4260   2.466   3.698   0.484
37478W        W 4261  34.632   4.620  14.278
37479W        W 4262  13.347  33.268   1.850
37480W        W 4263  22.246  31.897   5.122
37481W        W 4264   3.016  32.961  12.522
37482W        W 4265  37.699  17.633   2.357
37483W        W 4266  13.790   3.047  10.739
37484W        W 4267  32.193   3.023  12.113
37485W        W 4268  18.753  24.509   3.894
37486W        W 4269   6.881  13.357  12.139
37487W        W 4270   5.381  20.607   1.416
37488W        W 4271  23.678  19.559  11.903
37489W        W 4272  19.045  33.699   3.343
37490W        W 4273  44.985  10.382   2.997
37491W        W 4274   7.091  16.735   1.687
37492W        W 4275  13.744   0.755   4.424
37493W        W 4276  25.678  21.238   1.198
37494W        W 4277  23.548  36.484   2.366
37495W        W 4278  26.410   4.322   2.888
37496W        W 4279   1.572  41.359  13.537
37497W        W 4280  36.179  12.757  14.921
37498W        W 4281   9.719  19.720   2.267
37499W        W 4282  44.542  43.821  10.982
37500W        W 4283  38.475  22.091   4.747
37501W        W 4284  32.058  40.073   3.637
37502W        W 4285  28.554  26.580  12.487
37503W        W 4286  39.112  26.164  13.590
37504W        W 4287  27.480  31.215  12.377
37505W        W 4288  16.228   2.247  12.866
37506W        W 4289  15.256  34.069   1.947
37507W        W 4290  14.678   8.074  10.014
37508W        W 4291   0.911   7.684  14.926
37509W        W 4292   4.665  14.255  14.971
37510W        W 4293  42.948  20.177  13.297
37511W        W 4294   1.405  25.483  10.727
37512W        W 4295  20.662  27.653  13.715
37513W        W 4296  26.987   3.691  14.201
37514W        W 4297   3.032  11.397  14.277
37515W        W 4298   4.313  12.175   4.146
37516W        W 4299  12.950  33.559   1.663
37517W        W 4300  42.013  19.606   4.186
37518W        W 4301  42.060  40.466   3.692
37519W        W 4302  44.887  19.066  12.167
37520W        W 4303  17.072  29.507   0.938
37521W        W 4304  26.072  21.403  11.483
37522W        W 4305  35.525   3.422   9.637
37523W        W 4306  10.805  22.000  14.195
37524W        W 4307  20.030   9.872  12.115
37525W        W 4308  32.071  10.104  11.643
37526W        W 4309  26.025  14.363  13.925
37527W        W 4310  11.396  33.640  11.108
37528W        W 4311  30.525  16.278   3.206
37529W        W 4312   4.290  35.090   0.867
37530W        W 4313  34.028  21.811  12.179
37531W        W 4314  38.300  21.261   3.622
37532W        W 4315   9.347  42.460   3.349
37533W        W 4316  43.863  44.509  12.105
37534W        W 4317  23.485  12.816   4.551
37535W        W 4318  23.206   0.632   4.238
37536W        W 4319  16.506  26.720   3.165
37537W        W 4320   2.520  37.924  12.599
37538W        W 4321  43.424   3.216   0.505
37539W        W 4322   1.851  41.957  11.966
37540W        W 4323  26.402   0.260   3.928
37541W        W 4324  30.398   0.265  10.624
37542W        W 4325  16.206  40.386   2.402
37543W        W 4326  42.984  31.939   2.776
37544W        W 4327  25.531  31.488   3.960
37545W        W 4328  19.597  38.992   3.112
37546W        W 4329  10.983  34.514  12.883
37547W        W 4330  43.503  34.510   4.919
37548W        W 4331  16.234  10.895  11.139
37549W        W 4332  30.048   3.109   1.368
37550W        W 4333   9.121  42.763  12.118
37551W        W 4334  39.060  32.113   3.324
37552W        W 4335  21.446  38.966   2.694
37553W        W 4336  36.929  12.413   1.401
37554W        W 4337  26.717  39.611   3.229
37555W        W 4338  21.621  39.508   0.463
37556W        W 4339  42.323  35.929   4.373
37557W        W 4340  26.592  18.101  14.698
37558W        W 4341   1.692  16.664  11.973
37559W        W 4342  29.865  34.038  14.715
37560W        W 4343  19.698  26.851   3.798
37561W        W 4344  30.983  29.157  11.253
37562W        W 4345   7.101   3.690   0.896
37563W        W 4346  40.945  20.497  12.451
37564W        W 4347  17.089  28.522  14.822
37565W        W 4348  33.372  16.200   2.734
37566W        W 4349  14.136  30.103   0.524
37567W        W 4350  44.019  38.386   0.401
37568W        W 4351  42.826   8.626  13.338
37569W        W 4352  23.860  42.923  10.640
37570W        W 4353  43.222  26.296   3.132
37571W        W 4354  36.613  12.765  10.414
37572W        W 4355  16.317   9.127  13.679
37573W        W 4356   9.219  33.613   4.005
37574W        W 4357  10.251  28.888  14.716
37575W        W 4358  27.555  26.949   4.522
37576W        W 4359  36.818   6.270  12.646
37577W        W 4360   0.493  31.824   4.991
37578W        W 4361  10.113  24.961  10.669
37579W        W 4362  35.742  21.793  10.233
37580W        W 4363  37.766   8.461  12.166
37581W        W 4364  18.185  38.308  13.053
37582W        W 4365  41.071  22.604   3.841
37583W        W 4366   8.993  14.242   2.181
37584W        W 4367  36.823  43.836  12.434
37585W        W 4368  26.708  11.083  13.795
37586W        W 4369  23.983  27.371   0.873
37587W        W 4370  34.204  10.891   1.369
37588W        W 4371  10.103   7.464  13.101
37589W        W 4372  26.736  36.146  13.908
37590W        W 4373  44.952  20.737   1.214
37591W        W 4374  36.935  20.049   1.890
37592W        W 4375  13.372   7.220  12.868
37593W        W 4376  27.665   3.916  12.605
37594W        W 4377  23.681  10.936   0.374
37595W        W 4378  22.116  35.901  12.044
37596W        W 4379  17.073  29.388  13.996
37597W        W 4380  26.750  30.143  12.842
37598W        W 4381   0.832   6.415  13.260
37599W        W 4382  21.776  14.503  12.382
37600W        W 4383  42.013  30.051   0.219
37601W        W 4384  39.739  30.142   1.873
37602W        W 4385  30.184  31.953   4.520
37603W        W 4386  32.768  34.379   5.006
37604W        W 4387  16.045  35.003   4.824
37605W        W 4388  23.942  38.408   4.837
37606W        W 4389  12.145  41.482  13.146
37607W        W 4390  42.443  19.056  14.432
37608W        W 4391  14.697  26.110  12.600
37609W        W 4392  42.241  22.739  13.294
37610W        W 4393   8.791  32.998   4.513
37611W        W 4394  10.425  19.625  13.875
37612W        W 4395  22.683  37.899   3.320
37613W        W 4396  35.525  34.071   0.760
37614W        W 4397   4.294  15.724  14.012
37615W        W 4398  18.178  23.586   4.793
37616W        W 4399   6.863  13.178   0.864
37617W        W 4400  26.077  37.961  13.450
37618W        W 4401  24.895  36.464   1.146
37619W        W 4402   8.722  25.251  13.768
37620W        W 4403  17.373  25.609  12.057
37621W        W 4404  16.829  15.757   5.376
37622W        W 4405   0.460  24.139   2.882
37623W        W 4406  42.861  36.959   3.412
37624W        W 4407  14.786  18.428   4.160
37625W        W 4408  10.743   4.888   1.915
37626W        W 4409  16.761  26.515   3.904
37627W        W 4410  15.961  28.906  10.422
37628W        W 4411  11.073   8.279   4.055
37629W        W 4412  31.506   1.146   1.537
37630W        W 4413  28.193  30.601  14.182
37631W        W 4414  39.201   4.123  11.140
37632W        W 4415  31.238  18.129   4.610
37633W        W 4416  34.901   2.794   3.203
37634W        W 4417   2.405   0.363  13.514
37635W        W 4418   6.718  29.528  12.602
37636W        W 4419  34.380   2.991  13.461
37637W        W 4420  41.932  29.407   2.002
37638W        W 4421  41.580  37.080  11.054
37639W        W 4422  16.151  17.759   3.233
37640W        W 4423  39.976  43.284   2.625
37641W        W 4424  36.955  16.780  11.114
37642W        W 4425  35.573  35.576   1.885
37643W        W 4426  37.435  28.685   0.405
37644W        W 4427  44.489  16.488  10.307
37645W        W 4428   4.619  24.657   2.332
37646W        W 4429  35.642  10.208  14.063
37647W        W 4430  44.168  30.144  10.284
37648W        W 4431   1.715  14.570  11.166
37649W        W 4432  41.203  25.246   1.099
37650W        W 4433   5.488  42.700  12.454
37651W        W 4434   0.623  29.380  13.029
37652W        W 4435   6.407  25.492   2.779
37653W        W 4436  36.448   7.912   3.137
37654W        W 4437  18.510  35.860   2.490
37655W        W 4438  18.170   5.193  12.471
37656W        W 4439  11.444  20.310   0.775
37657W        W 4440  20.153  30.624   1.998
37658W        W 4441  20.492   7.388  12.966
37659W        W 4442  25.263  23.199   1.896
37660W        W 4443   7.607  44.039  12.011
37661W        W 4444  30.506  14.150  11.538
37662W        W 4445  15.712   1.712  12.430
37663W        W 4446  41.115   1.003  12.694
37664W        W 4447  17.588   3.772  11.089
37665W        W 4448  41.732  41.786   3.687
37666W        W 4449   5.454  40.422  13.437
37667W        W 4450  23.636  29.899   0.306
37668W        W 4451  26.189  19.581   2.233
37669W        W 4452  43.017   1.325  11.075
37670W        W 4453   4.900  43.550   1.776
37671W        W 4454  35.116  40.032  13.409
37672W        W 4455  34.969   9.397   1.906
37673W        W 4456  44.886  30.143  13.400
37674W        W 4457  10.186  24.470  11.376
37675W        W 4458  14.068  22.535  10.561
37676W        W 4459  14.393  26.209   1.328
37677W        W 4460   2.284   9.040  11.084
37678W        W 4461  13.811  15.583  12.492
37679W        W 4462  31.891  38.380  11.286
37680W        W 4463   9.436   6.723   3.570
37681W        W 4464  23.864  33.484  13.437
37682W        W 4465  17.584  27.891   2.294
37683W        W 4466   0.947  28.685   3.539
37684W        W 4467  24.076   7.918   2.225
37685W        W 4468  44.097   3.815   3.278
37686W        W 4469   7.454   8.937   4.268
37687W        W 4470  11.215  14.141  12.039
37688W        W 4471  23.472  35.102   3.195
37689W        W 4472  19.669   1.305   1.714
37690W        W 4473   3.690  32.974   1.934
37691W        W 4474  11.843   7.052  12.846
37692W        W 4475   8.917  32.932  10.679
37693W        W 4476  30.570  39.564   2.705
37694W        W 4477  22.447   5.822   2.236
37695W        W 4478  23.608   3.477   0.961
37696W        W 4479  27.711  31.058  12.837
37697W        W 4480  28.726  32.454   1.830
37698W        W 4481  20.093  30.877   0.979
37699W        W 4482  22.471  42.866  13.960
37700W        W 4483  12.981  11.403  13.872
37701W        W 4484  13.839  24.783   1.046
37702W        W 4485  38.315  36.509  12.076
37703W        W 4486  40.871   4.344   4.414
37704W        W 4487  18.590  40.762  14.373
37705W        W 4488  22.820  12.751  13.890
37706W        W 4489  22.301  12.853  11.441
37707W        W 4490  32.617  37.988   0.264
37708W        W 4491   6.828  25.698  13.921
37709W        W 4492  26.647  26.654  12.758
37710W        W 4493  15.577  28.071  10.649
37711W        W 4494  37.998  16.542   1.669
37712W        W 4495  34.217  31.031  12.297
37713W        W 4496  41.922  35.846  12.957
37714W        W 4497  12.815  18.076  11.153
37715W        W 4498   1.740  31.122  13.491
37716W        W 4499  32.074   0.852   4.810
37717W        W 4500  13.729  21.297  12.451
37718W        W 4501   9.129  10.111  12.944
37719W        W 4502  32.604   7.529   3.120
37720W        W 4503  43.948  16.080   4.129
37721W        W 4504  12.818   7.099   1.267
37722W        W 4505  43.273  38.835   0.391
37723W        W 4506  30.611  21.684  13.818
37724W        W 4507   1.941  22.981  12.159
37725W        W 4508  44.384  35.608  10.493
37726W        W 4509  35.573  20.097   4.657
37727W        W 4510  43.505  44.636  13.364
37728W        W 4511  34.472  38.425  14.393
37729W        W 4512  44.757  39.130   0.821
37730W        W 4513  27.711  40.379  12.535
37731W        W 4514  44.327  21.552   9.784
37732W        W 4515  42.263  11.244  11.156
37733W        W 4516  20.589  13.332   1.500
37734W        W 4517   0.281  37.116  13.432
37735W        W 4518   1.829  24.039   4.270
37736W        W 4519  38.081  27.497  12.779
37737W        W 4520  19.608  27.030   4.260
37738W        W 4521  22.776  15.024  11.912
37739W        W 4522  43.683  12.535  12.818
37740W        W 4523   3.158   7.798  14.837
37741W        W 4524   5.438  10.858   1.638
37742W        W 4525  28.184  18.562   2.387
37743W        W 4526  24.397  26.263  12.442
37744W        W 4527  26.439  19.502  14.952
37745W        W 4528  29.742  20.554   0.486
37746W        W 4529   9.908  29.472   1.705
37747W        W 4530  36.392  34.955   0.538
37748W        W 4531   0.301  39.408   1.450
37749W        W 4532  18.839  21.198  11.888
37750W        W 4533  24.075  29.838   3.864
37751W        W 4534  10.840  37.737   3.784
37752W        W 4535  43.722  12.789  14.668
37753W        W 4536  19.535   0.020   3.587
37754W        W 4537  20.913  43.264   1.866
37755W        W 4538  13.795  11.847  12.940
37756W        W 4539  31.680   6.036  11.554
37757W        W 4540   6.941  38.642   1.266
37758W        W 4541  14.713  40.653   2.452
37759W        W 4542  11.595  24.808   2.395
37760W        W 4543   1.026  29.223   1.805
37761W        W 4544   8.851  13.527  14.491
37762W        W 4545  20.723   4.572   3.177
37763W        W 4546   6.758   9.446   4.650
37764W        W 4547  14.323  26.318  14.631
37765W        W 4548  30.132  15.606   3.150
37766W        W 4549  10.420  17.864  12.624
37767W        W 4550  22.381  10.347   2.063
37768W        W 4551   4.260   1.860   1.182
37769W        W 4552   7.580  34.406   4.147
37770W        W 4553  33.638  35.832  14.771
37771W        W 4554  40.518   1.056  11.942
37772W        W 4555  16.729  13.327   0.471
37773W        W 4556  18.201  28.083  12.900
37774W        W 4557  25.591   7.567   1.294
37775W        W 4558  23.268  15.139  14.974
37776W        W 4559  37.143  10.619  12.916
37777W        W 4560  14.721  43.451   0.739
37778W        W 4561   9.815  29.675   0.272
37779W        W 4562  29.911  44.018   1.711
37780W        W 4563  37.997  15.280   0.569
37781W        W 4564   6.275  28.685  14.459
37782W        W 4565  23.231  14.064  13.413
37783W        W 4566  15.637  43.039  11.072
37784W        W 4567  24.621  14.086  13.885
37785W        W 4568   0.432   9.824   0.846
37786W        W 4569  36.120  35.843  12.056
37787W        W 4570  40.984  25.926  14.116
37788W        W 4571  12.866   9.549   4.442
37789W        W 4572  16.035   9.742   2.773
37790W        W 4573  19.770   5.680   1.769
37791W        W 4574  27.666  30.387  10.597
37792W        W 4575  24.125  31.486   2.367
37793W        W 4576  11.220   0.775  10.512
37794W        W 4577   0.032  24.210  10.749
37795W        W 4578  15.920  23.759   0.122
37796W        W 4579  25.158  24.100   4.272
37797W        W 4580   4.708  16.242  12.364
37798W        W 4581  40.878  34.667   4.388
37799W        W 4582  42.889  32.524  14.350
37800W        W 4583  10.390  27.763  11.206
37801W        W 4584  25.424   4.002  11.789
37802W        W 4585  41.743  11.315  11.131
37803W        W 4586  23.373  39.503   3.363
37804W        W 4587  39.391  41.581   3.296
37805W        W 4588  37.545  41.332  10.649
37806W        W 4589  31.634  21.699  13.700
37807W        W 4590   5.355  32.697  10.705
37808W        W 4591  39.036   2.863  10.148
37809W        W 4592  31.479  11.246   0.061
37810W        W 4593  25.022  40.457  12.888
37811W        W 4594  22.109  23.216   1.338
37812W        W 4595  22.781   0.386  10.961
37813W        W 4596  16.276  13.280   4.269
37814W        W 4597   6.723  12.659  12.689
37815W        W 4598   4.237   3.326  11.626
37816W        W 4599  29.544   4.474   4.425
37817W        W 4600  31.424  38.953  10.654
37818W        W 4601  16.116   2.907  11.016
37819W        W 4602   3.972  31.604   5.060
37820W        W 4603  21.274  19.548   2.731
37821W        W 4604  38.845  43.366  11.693
37822W        W 4605  33.537  32.440   2.554
37823W        W 4606   0.347   8.276  13.087
37824W        W 4607  37.423  40.403   3.391
37825W        W 4608  36.424  34.019   4.718
37826W        W 4609  36.060  29.457   3.278
37827W        W 4610  32.571  39.516   2.387
37828W        W 4611  43.872  38.937   4.812
37829W        W 4612  10.577  33.184   1.312
37830W        W 4613  21.281  40.373   0.493
37831W        W 4614  16.027   2.403  14.847
37832W        W 4615  26.735  38.899  10.764
37833W        W 4616  38.554  13.292  13.444
37834W        W 4617   4.489  12.773   2.374
37835W        W 4618   3.007  29.480  13.047
37836W        W 4619  41.216   1.835   1.956
37837W        W 4620  10.829   5.737  10.283
37838W        W 4621  24.236  20.111   2.143
37839W        W 4622  27.236  25.683   0.776
37840W        W 4623  29.938  18.597   2.466
37841W        W 4624   9.646   5.201   1.305
37842W        W 4625  30.826  27.989  14.962
37843W        W 4626   4.271  39.087   1.226
37844W        W 4627  11.170  17.456  12.907
37845W        W 4628  31.064  21.452  14.359
37846W        W 4629  33.009  30.224   1.388
37847W        W 4630  27.415  36.428   0.829
37848W        W 4631  20.874  21.602   0.293
37849W        W 4632  19.732  11.351  13.101
37850W        W 4633  40.255  35.496  14.497
37851W        W 4634  40.206  12.844  13.900
37852W        W 4635  29.457  18.263  12.432
37853W        W 4636  27.214  39.344  14.805
37854W        W 4637  17.255  10.553   0.040
37855W        W 4638  33.882   0.862   3.746
37856W        W 4639  37.781  42.466   2.177
37857W        W 4640  26.174  41.556   4.601
37858W        W 4641  18.098   7.014   1.815
37859W        W 4642   6.695  37.897  14.053
37860W        W 4643  14.042  10.069   1.956
37861W        W 4644  25.264   5.190  11.085
37862W        W 4645  42.292  23.271  13.963
37863W        W 4646  18.527  27.855   2.661
37864W        W 4647  27.560  34.608   0.479
37865W        W 4648  38.091  26.138   2.531
37866W        W 4649  38.788  15.974   0.691
37867W        W 4650  21.815   9.044  13.344
37868W        W 4651  18.598  35.097  11.993
37869W        W 4652  41.287  12.908  10.300
37870W        W 4653  19.269   8.906   3.863
37871W        W 4654   6.723  36.091   3.220
37872W        W 4655  38.228  10.542   1.241
37873W        W 4656  30.204  13.398  12.487
37874W        W 4657  10.529  11.180  11.850
37875W        W 4658   6.802   6.512   4.910
37876W        W 4659  34.100  31.327  14.532
37877W        W 4660   2.791   5.901   3.460
37878W        W 4661  13.230  29.854  13.385
37879W        W 4662  31.690  42.748   4.335
37880W        W 4663  28.535  17.645  14.325
37881W        W 4664  35.059  34.691  11.155
37882W        W 4665  13.937  29.683  12.911
37883W        W 4666   0.396  36.027  14.742
37884W        W 4667  22.207  39.911  14.968
37885W        W 4668  39.922  41.384   3.256
37886W        W 4669  21.677  27.388  14.802
37887W        W 4670  26.602  30.765   2.578
37888W        W 4671  31.482   9.766  13.422
37889W        W 4672  28.401   4.228   3.714
37890W        W 4673  43.301  40.582   1.257
37891W        W 4674  17.239  17.657  14.304
37892W        W 4675   4.866  42.239  11.482
37893W        W 4676   0.401  40.435  14.455
37894W        W 4677  18.862  44.898   4.349
37895W        W 4678  43.338  22.913  11.643
37896W        W 4679  10.325  33.159  12.888
37897W        W 4680  30.425  11.342  14.706
37898W        W 4681   9.963  29.151  11.641
37899W        W 4682  19.031  39.571   2.002
37900W        W 4683   3.073  12.469   1.327
37901W        W 4684  21.805  11.608  13.414
37902W        W 4685  28.395   4.459   3.241
37903W        W 4686  10.194  21.471  10.048
37904W        W 4687   9.822  33.519  14.727
37905W        W 4688   1.846   1.703  14.903
37906W        W 4689  30.094  30.502   2.501
37907W        W 4690   1.537  32.508  11.001
37908W        W 4691   0.985  11.155   1.714
37909W        W 4692  27.954  27.668   0.073
37910W        W 4693  22.245  33.171  11.581
37911W        W 4694   3.518  28.437   1.312
37912W        W 4695  29.155  16.761   2.695
37913W        W 4696  22.767   5.167   2.858
37914W        W 4697   7.938  37.459  12.563
37915W        W 4698   8.957  28.425  14.621
37916W        W 4699  19.736  38.977  13.025
37917W        W 4700  34.042  11.896  11.899
37918W        W 4701  13.693   1.950   0.335
37919W        W 4702  40.630  38.309   3.667
37920W        W 4703  27.651  29.159  14.282
37921W        W 4704  36.526  23.305   3.585
37922W        W 4705   3.521  29.641  13.136
37923W        W 4706  44.357  19.549   0.918
37924W        W 4707   7.904  39.080   1.914
37925W        W 4708  17.744  22.718  14.234
37926W        W 4709  32.664  18.720   4.100
37927W        W 4710  21.003   0.230   2.742
37928W        W 4711  30.169  32.973   1.011
37929W        W 4712  29.145  25.860   1.695
37930W        W 4713   6.836   3.941   2.923
37931W        W 4714  32.344  12.573  11.558
37932W        W 4715  27.483  33.538   2.367
37933W        W 4716  29.950  39.058   2.910
37934W        W 4717  13.396  25.566  10.746
37935W        W 4718  36.962  13.093   3.212
37936W        W 4719  12.701  30.158  14.932
37937W        W 4720  16.329  35.915  13.637
37938W        W 4721  28.972   1.455  12.770
37939W        W 4722   6.334   8.117  11.172
37940W        W 4723  25.937   5.345   3.365
37941W        W 4724  20.610   3.864   0.505
37942W        W 4725  22.633   8.805  13.510
37943W        W 4726  25.908  12.794   3.309
37944W        W 4727  20.987  32.055   3.135
37945W        W 4728  16.370   2.205  11.980
37946W        W 4729   0.361   4.225   2.225
37947W        W 4730  33.559   8.470  11.155
37948W        W 4731  38.646  23.501   0.809
37949W        W 4732  15.113   4.330  12.631
37950W        W 4733  22.511  19.538   3.282
37951W        W 4734   7.469  20.208   0.957
37952W        W 4735  39.827  12.050   1.590
37953W        W 4736  44.055   1.252  13.435
37954W        W 4737  34.177  29.705   1.193
37955W        W 4738  13.541   6.652  14.893
37956W        W 4739  18.051   6.175  13.778
37957W        W 4740  28.715  43.531  12.464
37958W        W 4741  20.955  16.353   3.609
37959W        W 4742  22.686   2.658  11.309
37960W        W 4743   9.305  37.835  10.484
37961W        W 4744  33.916  24.414  13.323
37962W        W 4745   0.913  34.288   3.138
37963W        W 4746  25.229  37.880  13.013
37964W        W 4747  18.322   4.963  14.918
37965W        W 4748  22.553   8.541  11.548
37966W        W 4749  22.642   8.478   4.198
37967W        W 4750  24.072  30.364  11.770
37968W        W 4751   3.216  22.337  10.108
37969W        W 4752  20.263  41.338   2.327
37970W        W 4753   3.361  20.427  13.039
37971W        W 4754  34.395   5.728   5.171
37972W        W 4755   5.248  42.123  13.882
37973W        W 4756  16.092   2.359   1.938
37974W        W 4757  39.871  44.938  14.540
37975W        W 4758  41.249  42.934   3.728
37976W        W 4759  28.021  11.078  12.934
37977W        W 4760   3.870  23.292  13.083
37978W        W 4761  35.974  28.145  14.421
37979W        W 4762  31.363  36.488   2.222
37980W        W 4763  29.956  18.082   2.331
37981W        W 4764  38.614  31.907   0.882
37982W        W 4765  30.666   6.751   2.236
37983W        W 4766  22.807  29.203   2.799
37984W        W 4767  37.376   4.397   2.921
37985W        W 4768  21.300   7.130   2.838
37986W        W 4769  42.306  10.743   1.048
37987W        W 4770  33.980  12.349   1.347
37988W        W 4771   4.194  23.189   3.645
37989W        W 4772  10.471   9.463   4.557
37990W        W 4773   7.972  43.626  14.801
37991W        W 4774  29.777  12.951   4.056
37992W        W 4775  38.485   9.589   3.439
37993W        W 4776   5.770  32.030   3.080
37994W        W 4777  29.658  30.114   0.718
37995W        W 4778  27.692  24.554  13.836
37996W        W 4779  30.420   9.896  12.098
37997W        W 4780   5.495  42.993   2.594
37998W        W 4781  20.515  15.768   2.689
37999W        W 4782  11.349  10.309   5.161
38000W        W 4783  20.606  36.549  12.717
38001W        W 4784  12.134   0.332  11.754
38002W        W 4785  30.492  40.300  14.371
38003W        W 4786  20.616  10.349   4.709
38004W        W 4787  14.609   0.323   3.157
38005W        W 4788  39.547  24.407  14.850
38006W        W 4789  42.731  21.573  10.632
38007W        W 4790   9.677   4.903   4.569
38008W        W 4791  11.557  20.588  11.164
38009W        W 4792  39.858  23.928   2.260
38010W        W 4793  29.122  41.968  13.661
38011W        W 4794  28.029   8.677   0.872
38012W        W 4795  12.821   4.349  14.506
38013W        W 4796  25.742  37.964   2.690
38014W        W 4797  28.710  44.388  14.010
38015W        W 4798   1.554  15.556   0.696
38016W        W 4799  31.080  24.625   3.096
38017W        W 4800   3.900   1.285  12.613
38018W        W 4801  28.981  44.540   3.661
38019W        W 4802   6.898  40.691  14.964
38020W        W 4803  42.806  17.090   1.248
38021W        W 4804  24.615  15.943   0.846
38022W        W 4805  42.320  24.160   1.948
38023W        W 4806  18.620  21.081  14.881
38024W        W 4807  21.316  31.402  11.116
38025W        W 4808  39.776  42.013   4.604
38026W        W 4809  24.426  39.602  12.818
38027W        W 4810  39.402  41.062   3.279
38028W        W 4811   0.826  34.097   4.764
38029W        W 4812  13.220  37.058   0.021
38030W        W 4813  41.888  37.411   1.455
38031W        W 4814  39.878  16.488   1.268
38032W        W 4815  34.433  16.837  12.891
38033W        W 4816  28.713  44.394  14.853
38034W        W 4817  10.347  23.377  14.349
38035W        W 4818  25.120  12.677  10.702
38036W        W 4819  32.223   0.460  10.405
38037W        W 4820  14.364  11.914   3.779
38038W        W 4821  22.815   6.349   2.243
38039W        W 4822  34.929  14.750  10.694
38040W        W 4823  41.575  16.154   3.109
38041W        W 4824  34.147  38.340   1.235
38042W        W 4825  37.734  33.930   3.737
38043W        W 4826  43.535  27.483  12.447
38044W        W 4827  39.844   7.651  12.807
38045W        W 4828  21.317  12.222  14.020
38046W        W 4829   9.856  33.614   1.639
38047W        W 4830   2.933  36.191  14.578
38048W        W 4831  36.857  31.514  14.299
38049W        W 4832  22.917  23.601  14.329
38050W        W 4833   8.739  41.645   5.366
38051W        W 4834  33.630  20.202  14.716
38052W        W 4835  15.734  39.492  12.056
38053W        W 4836   1.045  13.109   0.907
38054W        W 4837   2.033  32.941  14.846
38055W        W 4838   1.722  20.030  14.323
38056W        W 4839  23.450  18.213  11.909
38057W        W 4840  39.105   1.227  14.089
38058W        W 4841  30.609  14.382   1.400
38059W        W 4842  22.497   1.026   0.197
38060W        W 4843   4.951   3.666   5.092
38061W        W 4844  27.283  26.474   4.061
38062W        W 4845  14.822  28.207   2.858
38063W        W 4846  35.392  11.274   3.273
38064W        W 4847  12.863  42.407   4.177
38065W        W 4848  23.100   9.056   0.004
38066W        W 4849  40.777  36.950  13.320
38067W        W 4850  10.787   8.370  13.105
38068W        W 4851   4.129  34.493   1.560
38069W        W 4852   3.238  20.281   4.226
38070W        W 4853  13.184   4.369  11.049
38071W        W 4854   8.626  31.574  10.697
38072W        W 4855  30.483  31.700  14.787
38073W        W 4856  38.421  26.857  10.940
38074W        W 4857   1.882   4.304   1.463
38075W        W 4858  27.557  13.513  13.441
38076W        W 4859   8.005  40.979   3.395
38077W        W 4860  15.342   8.175  14.893
38078W        W 4861  43.279   5.132   1.883
38079W        W 4862   8.236   8.281   1.406
38080W        W 4863  35.617  44.447  14.084
38081W        W 4864  27.431  18.386  12.946
38082W        W 4865  39.096  12.574   3.693
38083W        W 4866  14.452  42.447   0.485
38084W        W 4867  20.261  43.326   4.092
38085W        W 4868  16.261   5.262  11.071
38086W        W 4869  18.643   4.324  14.365
38087W        W 4870  26.757  33.422   2.836
38088W        W 4871   3.457  30.606   1.545
38089W        W 4872   6.225  38.425  12.040
38090W        W 4873  33.170  27.014   4.698
38091W        W 4874  18.842  11.203   1.960
38092W        W 4875  30.792  21.869  12.055
38093W        W 4876  42.748  12.170   3.737
38094W        W 4877  28.082  33.079   1.896
38095W        W 4878   3.511  41.565   1.492
38096W        W 4879   3.992  25.229  11.648
38097W        W 4880  42.083  15.359  11.139
38098W        W 4881  35.310   7.200  13.788
38099W        W 4882  29.233  18.480   3.161
38100W        W 4883  41.330   2.813   0.640
38101W        W 4884  33.749  32.404   0.880
38102W        W 4885  26.524  12.326  10.745
38103W        W 4886   7.128  17.291   4.336
38104W        W 4887  16.634  10.136   2.225
38105W        W 4888  27.445  16.848  10.591
38106W        W 4889  10.566  17.283   1.232
38107W        W 4890  35.062   4.988  10.196
38108W        W 4891  37.070  11.190  10.362
38109W        W 4892   8.884  34.403   3.768
38110W        W 4893   6.344  13.623   3.788
38111W        W 4894  38.820  33.210  13.577
38112W        W 4895  12.406  12.607   4.601
38113W        W 4896   3.292  13.680  11.190
38114W        W 4897  26.063  28.625  13.272
38115W        W 4898  15.846  39.018   1.127
38116W        W 4899  18.967  30.569   3.645
38117W        W 4900  43.326  19.700  13.964
38118W        W 4901  30.043  36.276   3.304
38119W        W 4902  38.396  29.412   4.116
38120W        W 4903  18.476   1.416  14.883
38121W        W 4904  28.488   2.947   4.078
38122W        W 4905   3.419  35.443  10.806
38123W        W 4906  12.168  37.945  13.780
38124W        W 4907  42.019  16.353   3.382
38125W        W 4908   3.302  36.410  14.870
38126W        W 4909  21.790  17.674  10.412
38127W        W 4910  11.665  26.005  10.598
38128W        W 4911  39.814  38.019   1.004
38129W        W 4912  31.774  18.167   0.720
38130W        W 4913   9.126  43.257   4.327
38131W        W 4914   1.122   2.485  11.588
38132W        W 4915  20.873  38.858   0.893
38133W        W 4916  27.227  40.948   9.721
38134W        W 4917  43.561  39.466   4.797
38135W        W 4918  38.334  42.476  14.871
38136W        W 4919  16.058  35.534  13.910
38137W        W 4920  32.008  25.787  14.071
38138W        W 4921  38.917   6.041  13.710
38139W        W 4922  30.884   7.762  12.465
38140W        W 4923   5.284  35.512  14.384
38141W        W 4924  35.736   3.647   0.406
38142W        W 4925  22.154  23.263  12.218
38143W        W 4926  12.713  43.487   2.798
38144W        W 4927  22.050  20.926  14.393
38145W        W 4928  26.152  41.853  10.756
38146W        W 4929  35.645  25.950  11.108
38147W        W 4930  38.705  25.621  12.628
38148W        W 4931  22.518   5.900   0.366
38149W        W 4932  25.153   1.428   1.935
38150W        W 4933  16.862  12.336   0.695
38151W        W 4934  41.968  15.159  13.448
38152W        W 4935  33.105  37.797   3.276
38153W        W 4936  24.731  22.651  14.584
38154W        W 4937  16.164  33.090   1.750
38155W        W 4938  31.547  24.138   0.299
38156W        W 4939  38.042  36.927  14.057
38157W        W 4940  44.226  39.609  12.815
38158W        W 4941  19.625  15.344  11.285
38159W        W 4942  31.129  16.682   2.421
38160W        W 4943  41.563  37.774  14.350
38161W        W 4944  39.914  34.780   2.127
38162W        W 4945  10.164  42.826  12.900
38163W        W 4946  41.508   5.731   2.174
38164W        W 4947  38.091  30.415   2.212
38165W        W 4948  40.357  34.473   4.820
38166W        W 4949  38.404   6.288  14.567
38167W        W 4950  43.492  13.078   3.690
38168W        W 4951  24.759  32.094   4.860
38169W        W 4952  27.842  18.618   2.785
38170W        W 4953  29.679  11.095  13.302
38171W        W 4954  32.181  10.417   4.524
38172W        W 4955  15.103  13.747   1.385
38173W        W 4956  28.613  35.342   0.860
38174W        W 4957  30.707  31.501  12.100
38175W        W 4958   9.896  16.153  10.947
38176W        W 4959   3.848  12.172  10.668
38177W        W 4960  32.546  40.275  13.291
38178W        W 4961  38.965  24.399   4.274
38179W        W 4962  21.516  13.359   4.591
38180W        W 4963  36.419  30.436   3.606
38181W        W 4964  13.521  44.085   1.884
38182W        W 4965  12.087  19.579   1.927
38183W        W 4966   0.297   1.765  13.885
38184W        W 4967   2.220   8.232  12.771
38185W        W 4968  16.733  17.507  14.301
38186W        W 4969  16.285   0.986   1.682
38187W        W 4970   8.463  42.927   3.911
38188W        W 4971  17.780  31.475  11.121
38189W        W 4972  12.156  28.700   1.173
38190W        W 4973   7.689  11.764   4.602
38191W        W 4974  38.973  20.664   3.536
38192W        W 4975  32.958  16.619   3.613
38193W        W 4976  14.057  28.172   4.502
38194W        W 4977  24.205  36.435  10.755
38195W        W 4978   9.702  39.116   4.475
38196W        W 4979   7.675  16.825  13.860
38197W        W 4980  27.965   8.720   1.457
38198W        W 4981  19.523   0.144  14.414
38199W        W 4982  11.360   8.687  12.544
38200W        W 4983  38.400   3.847  11.634
38201W        W 4984   4.621  42.050   0.850
38202W        W 4985  38.049  33.908  14.103
38203W        W 4986  32.374  27.997   0.762
38204W        W 4987  13.645  20.557  14.884
38205W        W 4988  40.303  30.033   4.645
38206W        W 4989  28.015  44.187  14.067
38207W        W 4990  22.212  19.530  11.973
38208W        W 4991   3.132  14.165  11.093
38209W        W 4992  15.230  32.846   1.336
38210W        W 4993   2.214  25.224  13.080
38211W        W 4994  17.239  44.933  13.448
38212W        W 4995  14.831   5.751   0.394
38213W        W 4996   1.549  41.697   2.871
38214W        W 4997  36.594   3.423  12.632
38215W        W 4998  40.606   2.317   1.872
38216W        W 4999   2.013  29.458   2.519
38217W        W 5000  28.957   4.692  11.676
38218W        W 5001  33.115  34.894  14.090
38219W        W 5002  19.384   4.215  12.041
38220W        W 5003  40.412  31.479  14.934
38221W        W 5004  42.735  11.590  14.843
38222W        W 5005  31.488   1.949  14.270
38223W        W 5006  20.179  29.964  13.795
38224W        W 5007  41.484  28.727   1.430
38225W        W 5008  15.622  39.386  14.495
38226W        W 5009  20.541   5.203  10.701
38227W        W 5010  14.578  11.660  13.434
38228W        W 5011   0.198   7.370  14.373
38229W        W 5012   6.905  11.169   0.315
38230W        W 5013  16.760  35.463  12.041
38231W        W 5014  13.205  35.579  13.863
38232W        W 5015  29.657   4.164  12.792
38233W        W 5016  24.735  27.112   1.847
38234W        W 5017   5.704   7.685   0.392
38235W        W 5018   6.411   9.647  14.942
38236W        W 5019  32.607  21.215  13.602
38237W        W 5020  38.290   1.407  14.542
38238W        W 5021  43.498   1.880  10.591
38239W        W 5022  38.429  30.383   4.309
38240W        W 5023  22.626   1.622   3.704
38241W        W 5024  23.708   1.812  10.203
38242W        W 5025  43.533   4.125  11.452
38243W        W 5026  41.380   3.215   4.806
38244W        W 5027  44.529  14.608   4.058
38245W        W 5028   2.399   3.901   4.593
38246W        W 5029  34.442  16.321   0.996
38247W        W 5030   2.237   9.909  14.471
38248W        W 5031  20.874  22.477   4.024
38249W        W 5032  13.373  44.336   3.627
38250W        W 5033  38.465  19.624  11.232
38251W        W 5034  34.974  38.875  10.800
38252W        W 5035  13.078  14.535  10.272
38253W        W 5036  11.852  14.800  12.515
38254W        W 5037  19.522  21.772  13.688
38255W        W 5038  19.723  43.362   4.798
38256W        W 5039  33.822  34.815  14.773
38257W        W 5040   0.297  28.079   2.410
38258W        W 5041  20.397   2.902   1.902
38259W        W 5042  26.313  15.198   4.616
38260W        W 5043  19.116   2.203   0.988
38261W        W 5044  35.046  13.812   4.822
38262W        W 5045   3.962  42.443  11.906
38263W        W 5046  23.976  21.791   5.066
38264W        W 5047  33.613  15.576   1.790
38265W        W 5048  40.091   9.577   1.037
38266W        W 5049  34.613  27.520  13.335
38267W        W 5050  21.252  41.978  12.580
38268W        W 5051  42.943  17.306  13.795
38269W        W 5052  44.531   1.787   3.163
38270W        W 5053   4.629   9.881   2.318
38271W        W 5054  30.408  44.618   4.685
38272W        W 5055  31.119   4.446  10.593
38273W        W 5056   0.976  37.797  14.440
38274W        W 5057  11.598   9.927  14.310
38275W        W 5058  26.149  42.483   2.320
38276W        W 5059  30.033  11.613  13.972
38277W        W 5060   6.702  41.117  12.126
38278W        W 5061  36.552   5.130   4.307
38279W        W 5062  13.372   1.819   1.158
38280W        W 5063  11.350  14.778  14.387
38281W        W 5064  15.226  31.871  14.476
38282W        W 5065  19.015  36.366  10.674
38283W        W 5066  11.142  27.703  12.679
38284W        W 5067  35.474  44.360   2.584
38285W        W 5068  39.868  14.424   3.652
38286W        W 5069   6.932  30.492  11.865
38287W        W 5070  33.036  43.112   0.842
38288W        W 5071  23.989  24.099  11.226
38289W        W 5072  16.753  14.536   2.227
38290W        W 5073  26.198  12.811  11.554
38291W        W 5074  38.406  44.702  13.402
38292W        W 5075  13.566  15.835  12.086
38293W        W 5076  13.210  41.998   2.432
38294W        W 5077   4.444  25.668   1.602
38295W        W 5078  42.332  36.001  12.095
38296W        W 5079  23.192  20.025  14.507
38297W        W 5080  33.589  32.844   4.527
38298W        W 5081  17.554  33.317  13.025
38299W        W 5082  41.470  42.125  11.531
38300W        W 5083   5.771  21.615  13.939
38301W        W 5084  32.896  24.055  11.176
38302W        W 5085   7.722  42.307  10.687
38303W        W 5086  22.568   1.275  14.582
38304W        W 5087  41.485  18.653  14.760
38305W        W 5088   2.842  21.635   1.209
38306W        W 5089   8.065  18.470  13.248
38307W        W 5090  12.520  37.279   5.646
38308W        W 5091  23.653  15.194   3.352
38309W        W 5092  12.320  30.520   4.568
38310W        W 5093  16.856  16.272   0.437
38311W        W 5094   9.265  39.102   2.037
38312W        W 5095   4.401  40.007   0.445
38313W        W 5096  26.628  34.500  12.489
38314W        W 5097  34.504  31.459  12.406
38315W        W 5098  11.215   8.956  13.990
38316W        W 5099  14.318  19.157  13.566
38317W        W 5100  44.704  12.382  11.066
38318W        W 5101  39.876  13.369   0.280
38319W        W 5102  28.689  11.696  11.621
38320W        W 5103  28.185  26.591  10.935
38321W        W 5104  41.023  42.812  14.878
38322W        W 5105  40.514  26.026   4.156
38323W        W 5106  25.351  15.121   1.923
38324W        W 5107  28.711  13.111  10.483
38325W        W 5108  19.777  20.929  12.465
38326W        W 5109   7.110  37.700   2.252
38327W        W 5110  17.230  31.161   4.108
38328W        W 5111  15.259  21.765   3.224
38329W        W 5112   5.396  24.148   4.333
38330W        W 5113  26.869  42.804   3.550
38331W        W 5114  40.473  18.165  11.599
38332W        W 5115  13.300  16.505   2.610
38333W        W 5116   5.067  10.678   0.425
38334W        W 5117   3.318  20.274  12.180
38335W        W 5118  40.624  14.944  10.709
38336W        W 5119  12.077   4.865   1.897
38337W        W 5120   9.822  16.834  11.908
38338W        W 5121  18.504  33.875  11.642
38339W        W 5122  23.137   6.304  14.514
38340W        W 5123  39.216  26.048  14.137
38341W        W 5124  43.247  14.513   3.649
38342W        W 5125   9.854  41.961   1.164
38343W        W 5126  40.099   5.524   0.442
38344W        W 5127  20.716  26.237   1.575
38345W        W 5128   3.547  38.784  12.102
38346W        W 5129  42.061  26.219   2.243
38347W        W 5130  12.594  20.024  12.126
38348W        W 5131  44.367  21.527   3.085
38349W        W 5132   6.319  33.974   0.772
38350W        W 5133  33.607  36.289  14.513
38351W        W 5134   7.937  12.225  11.220
38352W        W 5135  38.080  38.019   0.990
38353W        W 5136   1.038   8.408  14.197
38354W        W 5137  15.308  23.460   3.610
38355W        W 5138  37.429  13.257  10.665
38356W        W 5139  21.141   4.454  12.862
38357W        W 5140  24.573  25.336  11.069
38358W        W 5141  35.884  37.727   0.881
38359W        W 5142  17.740  34.631   3.831
38360W        W 5143   8.231   2.960  10.673
38361W        W 5144  25.045   2.387   4.960
38362W        W 5145  35.566  43.768  10.634
38363W        W 5146   8.162  32.909  14.030
38364W        W 5147  19.990  20.549   0.051
38365W        W 5148  14.753  12.205   4.918
38366W        W 5149  27.932  33.542   2.133
38367W        W 5150  32.077  17.726   2.810
38368W        W 5151  17.962  26.975  14.854
38369W        W 5152  39.994  34.945  12.042
38370W        W 5153  21.623  43.727   2.345
38371W        W 5154  31.163  30.089   0.326
38372W        W 5155  39.981  22.750   1.171
38373W        W 5156  37.342  26.163   3.166
38374W        W 5157  26.935   2.755   4.433
38375W        W 5158  14.008  19.171   2.842
38376W        W 5159  44.558  31.929  10.586
38377W        W 5160  29.422  10.959  10.702
38378W        W 5161   3.538  42.573   2.194
38379W        W 5162   2.683  18.408  13.738
38380W        W 5163  27.471   5.255  12.765
38381W        W 5164  10.324  18.569  13.499
38382W        W 5165   8.228  41.556  12.098
38383W        W 5166  33.480  24.483   2.748
38384W        W 5167  35.439  32.914   1.879
38385W        W 5168  42.611  32.462   4.610
38386W        W 5169  24.465  43.148  12.394
38387W        W 5170   7.957  21.531   4.654
38388W        W 5171  31.908  38.783  14.053
38389W        W 5172  39.977  40.502  13.154
38390W        W 5173  13.730  19.571  13.243
38391W        W 5174  22.621  18.720  11.457
38392W        W 5175  33.061  37.817   0.502
38393W        W 5176  43.673  29.994  14.162
38394W        W 5177  25.725  42.510   1.069
38395W        W 5178  31.436  39.822   4.116
38396W        W 5179   8.121  29.203   3.555
38397W        W 5180  41.806  39.823   4.241
38398W        W 5181  16.903   8.660   4.186
38399W        W 5182  26.515   6.311  11.620
38400W        W 5183  39.574  24.107  14.047
38401W        W 5184  25.525  10.188  14.433
38402W        W 5185  12.254   4.431   1.695
38403W        W 5186  15.660   2.823  13.327
38404W        W 5187  36.758  20.245  11.657
38405W        W 5188  36.367  30.023  13.833
38406W        W 5189   7.174   8.763   2.427
38407W        W 5190  25.904  17.731   2.294
38408W        W 5191  40.809  15.259  13.929
38409W        W 5192  41.556  21.113   3.249
38410W        W 5193   6.140  10.648   0.486
38411W        W 5194  22.215  12.152   2.678
38412W        W 5195  15.263  32.177   4.523
38413W        W 5196  39.596  27.516  12.084
38414W        W 5197  42.876  23.991   3.648
38415W        W 5198  17.542  14.109   2.031
38416W        W 5199  38.436   7.101  12.394
38417W        W 5200  13.478   1.243  11.530
38418W        W 5201   8.284  38.530   0.377
38419W        W 5202  22.279   9.671  11.981
38420W        W 5203  11.187   2.393   2.105
38421W        W 5204  13.256  18.352  11.088
38422W        W 5205   4.804  22.127   1.713
38423W        W 5206  39.522  23.608   1.023
38424W        W 5207  15.564   0.238   1.759
38425W        W 5208  25.531  11.644   2.450
38426W        W 5209  36.052  23.986   3.790
38427W        W 5210  38.886  13.039   3.070
38428W        W 5211  15.192  28.290   1.843
38429W        W 5212  28.958  15.824   4.956
38430W        W 5213  25.438  39.288  10.667
38431W        W 5214  30.905  29.220   4.086
38432W        W 5215   4.406  34.845  12.831
38433W        W 5216  41.847   1.108  14.239
38434W        W 5217  30.105  23.438   3.764
38435W        W 5218  41.014  17.721   4.095
38436W        W 5219  18.095  17.246  14.473
38437W        W 5220   2.867  42.766  10.882
38438W        W 5221  32.530  43.444   1.443
38439W        W 5222  14.026  44.226   0.898
38440W        W 5223  29.461   8.595  11.665
38441W        W 5224  35.679  33.265  13.370
38442W        W 5225  14.748  18.174   1.829
38443W        W 5226  32.202  25.482   2.401
38444W        W 5227   3.762  23.285   3.206
38445W        W 5228  22.815  31.174  14.782
38446W        W 5229  43.673   3.578   1.284
38447W        W 5230  44.941  42.908  11.682
38448W        W 5231  42.461  39.808   0.773
38449W        W 5232  30.687  16.713  12.653
38450W        W 5233  24.501  20.031   2.706
38451W        W 5234   2.095  29.894  14.769
38452W        W 5235  33.081  14.185  12.600
38453W        W 5236  44.496  43.194  12.605
38454W        W 5237  38.791  29.386  14.870
38455W        W 5238  38.827  41.922  14.416
38456W        W 5239  14.036  39.739  11.629
38457W        W 5240  42.036   5.410   1.399
38458W        W 5241  16.271  18.113  13.889
38459W        W 5242  16.600  12.385   2.591
38460W        W 5243  15.032  13.185   2.749
38461W        W 5244  31.909  10.298   4.125
38462W        W 5245  43.524  42.459   2.080
38463W        W 5246  15.570  28.555   2.875
38464W        W 5247  23.125  32.505   1.306
38465W        W 5248  22.288  39.777  13.227
38466W        W 5249  42.748  32.584   0.772
38467W        W 5250  15.981   6.016  12.593
38468W        W 5251  38.085  34.054  12.872
38469W        W 5252  22.631  20.550   3.917
38470W        W 5253  16.391   9.177  12.493
38471W        W 5254  40.429   2.373   1.407
38472W        W 5255  31.470  34.857   2.871
38473W        W 5256  16.002  37.039  14.822
38474W        W 5257  41.441   7.409  13.512
38475W        W 5258  43.795  37.829   0.892
38476W        W 5259  31.136  24.560   2.118
38477W        W 5260  23.509  28.988   3.163
38478W        W 5261  14.066  35.015  11.092
38479W        W 5262  39.454   3.396  14.277
38480W        W 5263  21.621  14.116   1.007
38481W        W 5264  18.742  11.614   2.342
38482W        W 5265  21.061  15.831   2.765
38483W        W 5266  37.119  11.229  13.384
38484W        W 5267  15.185  39.000   0.499
38485W        W 5268  37.524  18.967   2.332
38486W        W 5269  44.098  27.527   2.260
38487W        W 5270  38.339  27.583  13.549
38488W        W 5271   8.436   4.442  11.506
38489W        W 5272  18.221  42.609   0.321
38490W        W 5273  24.290  30.782  14.035
38491W        W 5274  23.388  37.351   1.811
38492W        W 5275  36.040   1.128   4.206
38493W        W 5276   9.622   9.773  13.606
38494W        W 5277  32.153  33.863   4.280
38495W        W 5278  10.596  14.560   3.685
38496W        W 5279  18.189   4.856   4.743
38497W        W 5280   2.796  43.616   0.464
38498W        W 5281  11.989  36.919   3.161
38499W        W 5282  17.202  24.752   4.245
38500W        W 5283  16.253  34.582  13.228
38501W        W 5284   7.253  44.831   1.908
38502W        W 5285  24.741  31.398  14.544
38503W        W 5286  33.492  41.831   1.104
38504W        W 5287  42.003  36.990   4.024
38505W        W 5288  32.357  32.713   3.779
38506W        W 5289  28.662  35.564   4.075
38507W        W 5290  17.489  38.425  11.528
38508W        W 5291  26.595   8.998   0.469
38509W        W 5292   3.642  21.457  13.590
38510W        W 5293   5.081  14.130  12.864
38511W        W 5294  24.365  13.853   4.189
38512W        W 5295  23.296  14.682  14.269
38513W        W 5296  28.597   7.286   4.271
38514W        W 5297  33.634  31.682  14.790
38515W        W 5298   7.565  21.191  14.480
38516W        W 5299   9.235  22.780   4.329
38517W        W 5300  42.490  12.951   9.907
38518W        W 5301  13.213  19.639  10.653
38519W        W 5302  11.701  22.033   3.695
38520W        W 5303  39.690  40.438   0.855
38521W        W 5304  19.208  43.345  12.548
38522W        W 5305  19.325   6.115   5.081
38523W        W 5306  15.108  21.628   3.763
38524W        W 5307  40.760  17.593  13.241
38525W        W 5308   7.581  14.364  14.278
38526W        W 5309  20.038  23.623   1.146
38527W        W 5310  41.925  34.175   2.123
38528W        W 5311  44.958  41.280   2.335
38529W        W 5312  43.659  13.058   5.229
38530W        W 5313  13.245  35.816   3.138
38531W        W 5314   2.793  11.132   4.425
38532W        W 5315   6.116  34.579   2.497
38533W        W 5316  36.022  40.594  10.714
38534W        W 5317  28.729  40.766  13.182
38535W        W 5318  26.694  37.356   1.490
38536W        W 5319   1.285  14.269   1.643
38537W        W 5320  31.609  11.252   1.041
38538W        W 5321  32.068  14.335  14.365
38539W        W 5322  43.910  29.656   3.723
38540W        W 5323   1.515  17.674   4.491
38541W        W 5324  12.545   6.140   1.363
38542W        W 5325  23.040  18.695  14.234
38543W        W 5326   2.404  44.465   1.602
38544W        W 5327  34.326   5.928  10.749
38545W        W 5328  12.849  18.976   0.765
38546W        W 5329  32.936  28.748  14.874
38547W        W 5330  22.702  26.716  11.614
38548W        W 5331   9.649   0.472  11.413
38549W        W 5332  17.764  21.628   3.280
38550W        W 5333   7.672  19.737  12.012
38551W        W 5334  39.523  39.276   0.006
38552W        W 5335  36.796  16.882  11.940
38553W        W 5336  42.275  12.764  10.352
38554W        W 5337  24.160  29.498   4.639
38555W        W 5338  36.758   8.023  10.312
38556W        W 5339   6.728  24.413  10.458
38557W        W 5340  21.330  23.634   0.298
38558W        W 5341  26.980  10.855  12.611
38559W        W 5342  37.715  42.632  11.639
38560W        W 5343  33.849  42.315  12.858
38561W        W 5344  40.388  40.088  11.226
38562W        W 5345  26.234  26.482  14.183
38563W        W 5346  36.902  36.602   0.955
38564W        W 5347   1.561  29.012   1.843
38565W        W 5348  25.024   2.044   4.114
38566W        W 5349  42.332   1.005  14.073
38567W        W 5350  15.379  14.170  10.680
38568W        W 5351  38.356  16.235   2.763
38569W        W 5352  20.356  20.243   4.210
38570W        W 5353  41.615  30.985  14.871
38571W        W 5354  28.152   3.267   4.603
38572W        W 5355   8.683  14.554  13.550
38573W        W 5356  22.968  28.888   1.907
38574W        W 5357  19.069  36.021  12.482
38575W        W 5358  20.925  14.930   0.463
38576W        W 5359  42.525   6.915  11.512
38577W        W 5360   2.255  33.424   4.321
38578W        W 5361  15.574  38.087   1.414
38579W        W 5362  39.275  17.695  11.959
38580W        W 5363  43.482  24.616  12.958
38581W        W 5364  44.997  10.194  13.979
38582W        W 5365  10.844  31.065   3.329
38583W        W 5366  24.687  13.528  11.716
38584W        W 5367  15.564  32.461   1.239
38585W        W 5368  17.787   3.232   3.163
38586W        W 5369  26.787  12.213   4.217
38587W        W 5370  43.743  19.225  14.976
38588W        W 5371   1.065   3.242  13.434
38589W        W 5372  39.861  13.425   2.366
38590W        W 5373   5.578  34.024  14.431
38591W        W 5374   9.253   5.936  11.544
38592W        W 5375   8.404   0.160  14.315
38593W        W 5376  10.656  31.309  13.512
38594W        W 5377  18.491  35.044   1.752
38595W        W 5378   9.165   6.233   2.714
38596W        W 5379  21.273  40.895   3.240
38597W        W 5380  13.707   1.533  13.514
38598W        W 5381  16.382  24.713   2.413
38599W        W 5382  31.328  32.184  13.814
38600W        W 5383   0.749   1.910  12.564
38601W        W 5384  37.622  20.482   0.072
38602W        W 5385  11.410  16.310  14.518
38603W        W 5386  15.648   2.649   4.149
38604W        W 5387  21.586  40.849   2.690
38605W        W 5388  44.708  22.787   3.792
38606W        W 5389  11.251  31.092  10.491
38607W        W 5390  44.379   4.460   2.835
38608W        W 5391  40.700  31.987  10.468
38609W        W 5392  39.346  36.020   0.157
38610W        W 5393  31.037   2.689  14.740
38611W        W 5394   3.225  34.387  12.835
38612W        W 5395  15.061  42.441  14.388
38613W        W 5396  10.516  15.053  13.090
38614W        W 5397   8.991  21.490   0.399
38615W        W 5398  31.431  44.595   3.954
38616W        W 5399  27.870  12.277  14.600
38617W        W 5400  25.460   7.857  14.821
38618W        W 5401  33.445  36.372   1.702
38619W        W 5402  10.304   8.841   1.896
38620W        W 5403  32.044  16.531  13.403
38621W        W 5404  38.345  37.509   0.751
38622W        W 5405  17.276  44.907   1.856
38623W        W 5406  36.901  39.264  13.752
38624W        W 5407   1.245  30.391  14.653
38625W        W 5408  23.776  37.383   4.631
38626W        W 5409  31.946  23.844   4.073
38627W        W 5410   1.831  40.531   1.608
38628W        W 5411  11.113   1.161   1.945
38629W        W 5412   0.997  17.576   4.508
38630W        W 5413  27.899  16.079  10.981
38631W        W 5414  34.103  38.489  14.803
38632W        W 5415  44.041  33.502   3.553
38633W        W 5416  20.473  25.072   0.019
38634W        W 5417  18.265  17.506   2.815
38635W        W 5418  27.854   9.657   3.243
38636W        W 5419  29.516  32.367   2.320
38637W        W 5420  36.396  22.755  12.320
38638W        W 5421   5.331  37.371   5.032
38639W        W 5422  28.508  15.208  12.640
38640W        W 5423  23.623   4.523  13.366
38641W        W 5424  28.745   8.774   1.689
38642W        W 5425  35.379   0.280  11.703
38643W        W 5426  24.869  41.378  10.021
38644W        W 5427  43.067   9.817  13.033
38645W        W 5428  29.478  44.075   3.160
38646W        W 5429  15.548  21.688   1.826
38647W        W 5430  35.315  20.434   0.929
38648W        W 5431  31.242  35.696   0.768
38649W        W 5432  27.060  24.718  13.265
38650W        W 5433   4.816   2.222   3.824
38651W        W 5434   8.888   1.436   1.358
38652W        W 5435  39.712  40.389  14.310
38653W        W 5436  26.979  37.737  10.366
38654W        W 5437  12.071  16.199   3.165
38655W        W 5438  34.818   4.307  11.606
38656W        W 5439   7.357  14.064  12.202
38657W        W 5440  38.841   2.166   1.910
38658W        W 5441   3.181  38.634  12.478
38659W        W 5442  12.162  40.256  12.502
38660W        W 5443   0.629  24.563  12.559
38661W        W 5444  41.396  39.792  11.242
38662W        W 5445  19.381   9.343  11.811
38663W        W 5446  40.972  19.962  12.587
38664W        W 5447  42.456  12.799   4.145
38665W        W 5448   5.660  14.263  14.857
38666W        W 5449  42.599  11.614   0.892
38667W        W 5450   6.221  20.335  13.654
38668W        W 5451   9.810  13.265   0.918
38669W        W 5452  39.515  20.587   1.040
38670W        W 5453  22.497  35.851   2.969
38671W        W 5454  16.037  27.881  11.229
38672W        W 5455  14.128  23.542  13.348
38673W        W 5456   9.894  29.459  12.487
38674W        W 5457  35.495  34.178   3.719
38675W        W 5458  28.089  42.320  14.351
38676W        W 5459  38.322  43.489  14.763
38677W        W 5460  21.425  31.417  12.082
38678W        W 5461  33.333  24.138   1.019
38679W        W 5462   0.435  18.020  10.724
38680W        W 5463  28.996  21.456   0.998
38681W        W 5464   8.631   6.356   0.507
38682W        W 5465   4.261   9.327  14.535
38683W        W 5466  13.787  23.092   1.876
38684W        W 5467  27.455  42.284   3.633
38685W        W 5468  41.860   1.250   4.422
38686W        W 5469   3.361   6.540  12.972
38687W        W 5470   4.321   1.701  13.880
38688W        W 5471  34.619   3.671   0.808
38689W        W 5472   3.015  44.814   4.706
38690W        W 5473  23.523  29.175   3.652
38691W        W 5474   6.477  10.877   0.884
38692W        W 5475  33.569  12.639   1.150
38693W        W 5476   9.427  33.370  12.060
38694W        W 5477  35.559  11.292   2.777
38695W        W 5478   0.180  38.139  11.120
38696W        W 5479  44.321  38.894  13.316
38697W        W 5480  17.279  32.882   0.887
38698W        W 5481   7.438  44.539  11.174
38699W        W 5482  32.129  15.920   0.367
38700W        W 5483   8.633  20.286   1.702
38701W        W 5484  35.574  11.382   1.428
38702W        W 5485  25.974  14.815   4.475
38703W        W 5486  32.543   0.479   0.984
38704W        W 5487   3.344   8.491   1.641
38705W        W 5488  11.299  22.057  13.365
38706W        W 5489  17.966   3.325  13.423
38707W        W 5490   4.838  42.416   2.725
38708W        W 5491  26.479  36.856  12.026
38709W        W 5492  38.569  39.799   1.359
38710W        W 5493  37.019  25.418   0.767
38711W        W 5494  27.187  29.489   0.901
38712W        W 5495   4.407  22.871  14.013
38713W        W 5496   1.523   8.882   3.303
38714W        W 5497  24.611  11.690  10.841
38715W        W 5498   9.362  12.555  14.018
38716W        W 5499  27.710  16.670   2.968
38717W        W 5500   8.202  29.926  13.757
38718W        W 5501  12.884  24.483  14.948
38719W        W 5502  30.010  20.332  10.151
38720W        W 5503   6.315  10.233   9.934
38721W        W 5504  20.118  33.389  11.640
38722W        W 5505  13.156  38.376   4.548
38723W        W 5506   5.913  10.735  11.121
38724W        W 5507  39.939  39.126   1.741
38725W        W 5508  42.114  35.689  11.706
38726W        W 5509   5.874  24.096   2.105
38727W        W 5510  44.974  26.496  14.253
38728W        W 5511  27.739  23.869  12.360
38729W        W 5512  25.493  31.387  14.906
38730W        W 5513  16.673  23.277   3.757
38731W        W 5514   2.743  11.074  14.613
38732W        W 5515  29.165   7.439  14.297
38733W        W 5516   2.176  44.211  11.639
38734W        W 5517  15.574  39.776   2.768
38735W        W 5518  23.059   3.780   2.699
38736W        W 5519   5.536  42.299  14.321
38737W        W 5520  27.644  16.302   1.284
38738W        W 5521  29.073  30.477   4.711
38739W        W 5522  27.941   7.144  11.596
38740W        W 5523  22.555  14.871  11.016
38741W        W 5524  42.030  20.146   2.949
38742W        W 5525  15.819  44.470  11.505
38743W        W 5526  21.981  14.068   0.460
38744W        W 5527  27.181  14.656   0.747
38745W        W 5528  36.569  35.689   3.201
38746W        W 5529   1.768  33.952   2.712
38747W        W 5530  23.723  10.684   3.096
38748W        W 5531  26.716  15.637  12.537
38749W        W 5532  21.003  10.723  11.429
38750W        W 5533  16.858  33.800  14.768
38751W        W 5534  26.461  29.774   1.129
38752W        W 5535  17.054   4.927  12.888
38753W        W 5536  10.948  35.389  10.592
38754W        W 5537  20.079  43.810   4.102
38755W        W 5538  27.170  44.381  13.854
38756W        W 5539  24.966  38.948  13.611
38757W        W 5540   6.316  13.655  11.556
38758W        W 5541  39.363  35.613  13.588
38759W        W 5542  42.476   0.705  12.073
38760W        W 5543  18.627  36.793   2.653
38761W        W 5544  40.042  29.218   3.886
38762W        W 5545  37.553  16.111  13.396
38763W        W 5546   3.542  15.243  14.962
38764W        W 5547   9.089   3.275  13.125
38765W        W 5548   8.225   5.881   2.387
38766W        W 5549   8.034  32.634  11.120
38767W        W 5550   0.077  21.575   3.752
38768W        W 5551  16.336  30.587   0.376
38769W        W 5552  16.105  33.861   0.685
38770W        W 5553   6.884  25.690   0.724
38771W        W 5554  29.940  38.419   0.828
38772W        W 5555  22.457  28.579   4.603
38773W        W 5556  41.965  12.255   2.889
38774W        W 5557   2.455  21.548   3.614
38775W        W 5558  42.893  41.558   5.024
38776W        W 5559  21.140   6.308  10.932
38777W        W 5560   9.156  36.341  13.519
38778W        W 5561  19.739  43.680  14.361
38779W        W 5562  33.176  42.008   4.903
38780W        W 5563  42.683  21.220  12.479
38781W        W 5564   3.921  38.864  13.526
38782W        W 5565  26.742  27.345   1.259
38783W        W 5566  27.002   0.387  12.416
38784W        W 5567  24.845  13.277   4.692
38785W        W 5568  31.919  14.759   4.071
38786W        W 5569  32.062  44.859  13.870
38787W        W 5570   6.840   6.374  11.572
38788W        W 5571  11.380   9.812   2.764
38789W        W 5572  11.271  30.428   0.302
38790W        W 5573  35.504  22.111   3.196
38791W        W 5574   2.766  39.362   2.625
38792W        W 5575  23.968  15.690  13.322
38793W        W 5576  39.006  10.413   0.930
38794W        W 5577  24.891  14.715   1.482
38795W        W 5578   0.366  20.725  11.240
38796W        W 5579  36.101  27.995  11.291
38797W        W 5580  41.225  44.831   1.532
38798W        W 5581  35.846  38.288  14.783
38799W        W 5582  31.176  37.510  14.074
38800W        W 5583  36.623   4.315   2.391
38801W        W 5584   5.940  34.411  13.005
38802W        W 5585  42.667  35.417   1.403
38803W        W 5586  15.504  42.701  10.674
38804W        W 5587  29.631  43.322   1.360
38805W        W 5588  35.917  39.285   4.556
38806W        W 5589  40.372   1.404  14.302
38807W        W 5590  16.473   7.882   3.146
38808W        W 5591   9.387  22.874  14.574
38809W        W 5592  36.126  28.618   4.598
38810W        W 5593  42.690  36.066   4.700
38811W        W 5594  27.060  16.368   1.650
38812W        W 5595  19.189   7.992   2.834
38813W        W 5596  24.712  24.618  10.728
38814W        W 5597  25.072   2.803  11.971
38815W        W 5598  16.199  43.143  12.173
38816W        W 5599  31.816  23.478   3.281
38817W        W 5600  36.442  34.431   2.739
38818W        W 5601  10.362   3.947   4.054
38819W        W 5602  22.187  23.219  13.952
38820W        W 5603  11.900  21.627   3.129
38821W        W 5604   8.368  29.672   3.592
38822W        W 5605  24.053  39.697   4.948
38823W        W 5606  38.432   0.935  10.489
38824W        W 5607  26.134  19.061  10.736
38825W        W 5608  35.084  15.529  12.210
38826W        W 5609   0.002   3.453  10.398
38827W        W 5610  32.943  13.519   2.306
38828W        W 5611  13.588  25.638  14.764
38829W        W 5612   1.972  44.422  13.090
38830W        W 5613  36.636  26.712   0.324
38831W        W 5614  36.166  21.299   5.389
38832W        W 5615  37.834  37.577   0.785
38833W        W 5616  27.362  26.623  13.559
38834W        W 5617  15.563  24.335  14.506
38835W        W 5618   7.369  22.877   3.525
38836W        W 5619  21.225  21.361   2.350
38837W        W 5620  33.882  38.806   0.376
38838W        W 5621   3.433  22.147  14.376
38839W        W 5622  17.334  38.376  13.386
38840W        W 5623  38.582  37.107  12.933
38841W        W 5624   4.376  24.199   4.186
38842W        W 5625  14.973  41.160   5.001
38843W        W 5626  16.191  16.275  13.718
38844W        W 5627  34.070  35.677  11.691
38845W        W 5628  30.771  11.843   3.076
38846W        W 5629  29.963  22.529  10.699
38847W        W 5630  38.680  42.382   1.226
38848W        W 5631  16.794  18.919   3.990
38849W        W 5632   3.253  43.931   0.405
38850W        W 5633  28.139  32.663  14.337
38851W        W 5634  25.348  22.551   2.337
38852W        W 5635  14.053  24.372  12.493
38853W        W 5636   0.354  15.098   4.350
38854W        W 5637  38.944   8.426   2.696
38855W        W 5638   5.265  44.919  12.799
38856W        W 5639  18.079  12.418  11.955
38857W        W 5640  23.968  23.667  12.184
38858W        W 5641   6.183  44.780   4.719
38859W        W 5642  20.954  26.482  12.863
38860W        W 5643  32.992   2.224  12.302
38861W        W 5644  14.946  37.540  12.926
38862W        W 5645  30.937  17.784   1.843
38863W        W 5646  20.142  26.665  11.497
38864W        W 5647   3.170  33.554   1.871
38865W        W 5648  39.971  12.549   1.465
38866W        W 5649  30.675  34.481   4.845
38867W        W 5650  27.476   0.762   1.445
38868W        W 5651  36.374  10.210   4.303
38869W        W 5652  16.367  33.639  12.138
38870W        W 5653  26.577  40.475   4.519
38871W        W 5654  18.859  43.602   1.108
38872W        W 5655  21.776   0.773   0.932
38873W        W 5656  41.252  37.596   2.476
38874W        W 5657  18.443  20.514  11.136
38875W        W 5658  20.055  14.069   1.851
38876W        W 5659   6.415  26.585  13.035
38877W        W 5660  34.859  17.248  10.218
38878W        W 5661  36.283  35.307   0.169
38879W        W 5662  23.147  15.875   4.472
38880W        W 5663   7.333   8.671   1.396
38881W        W 5664  12.273   3.358  14.073
38882W        W 5665   3.879   0.756  14.559
38883W        W 5666  30.283  41.631  11.614
38884W        W 5667  25.198  34.157   1.047
38885W        W 5668  20.213  26.438  11.970
38886W        W 5669  12.801   1.539  11.168
38887W        W 5670   3.904  27.033   1.258
38888W        W 5671  32.080  26.505  11.991
38889W        W 5672  18.132  27.585   1.788
38890W        W 5673  42.070  33.889  11.112
38891W        W 5674  13.903  44.517   1.842
38892W        W 5675  23.149  16.686  13.917
38893W        W 5676  16.494   0.416   1.653
38894W        W 5677  33.105  26.671   0.017
38895W        W 5678  14.155   1.169   2.814
38896W        W 5679   4.742  20.751   3.463
38897W        W 5680   2.933  19.593  12.872
38898W        W 5681  13.713   4.592  10.313
38899W        W 5682  20.987  27.492   4.265
38900W        W 5683   5.350  10.697  12.191
38901W        W 5684  23.105  24.194  13.831
38902W        W 5685  30.501  34.078  12.618
38903W        W 5686   4.379  19.780   2.743
38904W        W 5687  26.754  11.215  11.099
38905W        W 5688   1.475   6.367  11.548
38906W        W 5689  17.832  11.685  14.360
38907W        W 5690  11.114   5.709   2.543
38908W        W 5691  24.417  34.136   0.707
38909W        W 5692   0.443  24.979  12.287
38910W        W 5693  15.208  41.781  12.731
38911W        W 5694   3.698  22.958   3.586
38912W        W 5695  35.005  35.923   0.386
38913W        W 5696   2.960  12.342  14.202
38914W        W 5697  40.416  24.394   3.716
38915W        W 5698  22.600  12.259   3.928
38916W        W 5699  21.184  13.600  10.649
38917W        W 5700  38.635   6.810   3.938
38918W        W 5701  40.019  30.478   1.612
38919W        W 5702  11.298  22.174  11.444
38920W        W 5703  13.040   5.209   0.801
38921W        W 5704  39.014  16.715  13.799
38922W        W 5705  14.745  17.656   4.621
38923W        W 5706  40.846   0.535   1.412
38924W        W 5707  19.160  43.953   4.161
38925W        W 5708  35.041  36.872   1.821
38926W        W 5709  21.123  11.431  12.782
38927W        W 5710  25.443  18.597  13.668
38928W        W 5711   3.034   0.751   4.784
38929W        W 5712  33.476  29.257   0.689
38930W        W 5713  26.752  29.220   2.666
38931W        W 5714   5.438  22.426   3.209
38932W        W 5715  38.844   1.940  10.118
38933W        W 5716  16.674  36.435  12.481
38934W        W 5717   5.932  17.543  12.993
38935W        W 5718   9.141  26.538  11.973
38936W        W 5719  40.014  19.256  11.973
38937W        W 5720   2.394  20.229  14.385
38938W        W 5721   8.285  44.806   1.825
38939W        W 5722  12.027  38.595   1.805
38940W        W 5723  31.417  29.367   4.046
38941W        W 5724  41.940  32.093  12.853
38942W        W 5725  44.936  14.658  14.417
38943W        W 5726   2.943  17.181  12.969
38944W        W 5727  11.207  24.995  12.846
38945W        W 5728   5.478  15.170   3.288
38946W        W 5729  32.022   4.918   1.016
38947W        W 5730  13.134  15.357  14.343
38948W        W 5731  23.855  11.295   4.312
38949W        W 5732  40.983  41.564  14.477
38950W        W 5733  11.735   2.480  12.952
38951W        W 5734  34.377   0.438  13.470
38952W        W 5735  44.126  23.308   4.515
38953W        W 5736  37.110  16.205  14.041
38954W        W 5737   3.624  41.896   4.128
38955W        W 5738  42.295  25.026  10.641
38956W        W 5739   7.345  22.973  12.998
38957W        W 5740  31.001   7.801  11.414
38958W        W 5741  24.702  34.453   3.131
38959W        W 5742   0.215   9.125  14.552
38960W        W 5743  31.022   3.430  14.266
38961W        W 5744  12.754  32.382   4.457
38962W        W 5745  36.661  25.971   1.896
38963W        W 5746   2.343  32.018   4.961
38964W        W 5747   4.409  25.501  11.703
38965W        W 5748  25.017  10.703   4.350
38966W        W 5749  24.609  11.947  14.258
38967W        W 5750  34.604  33.068  10.697
38968W        W 5751  43.253  34.274  13.978
38969W        W 5752  40.402  27.997   4.611
38970W        W 5753   8.401  43.833   0.004
38971W        W 5754  36.144  10.973   4.798
38972W        W 5755  23.170  33.878   3.558
38973W        W 5756  28.276  38.877  11.663
38974W        W 5757   6.499  40.680  12.355
38975W        W 5758  20.697  32.131  14.846
38976W        W 5759  30.169  10.323  11.912
38977W        W 5760  22.750  38.991  10.866
38978W        W 5761  31.480  22.149   2.203
38979W        W 5762  13.100   2.568   3.716
38980W        W 5763  40.005   9.876  10.156
38981W        W 5764   0.991  16.211   0.406
38982W        W 5765  28.971  32.414  13.974
38983W        W 5766  10.706   5.456   2.749
38984W        W 5767  35.182  32.490   0.502
38985W        W 5768  34.631  10.957  14.467
38986W        W 5769  20.056  19.539  11.532
38987W        W 5770   0.815   1.274   2.859
38988W        W 5771  38.853  20.215   0.513
38989W        W 5772  16.444   6.416   4.458
38990W        W 5773  26.205  19.612  10.955
38991W        W 5774  34.205   2.598  14.419
38992W        W 5775   9.382  28.421  11.894
38993W        W 5776  43.446  10.266   4.143
38994W        W 5777   6.430  21.230   4.608
38995W        W 5778   3.810   8.092  10.693
38996W        W 5779  28.444  33.657  12.950
38997W        W 5780  38.566   8.955  13.608
38998W        W 5781  14.507  37.910  11.896
38999W        W 5782  19.976   3.442   3.643
39000W        W 5783   1.171  22.608   2.767
39001W        W 5784   6.223   1.966   1.673
39002W        W 5785   9.367  30.564   0.711
39003W        W 5786   0.157  31.064  14.573
39004W        W 5787  42.432  28.402   4.492
39005W        W 5788  35.029  11.796  13.762
39006W        W 5789   4.669  43.406  11.537
39007W        W 5790  33.113  12.821   0.959
39008W        W 5791  30.438  18.209   3.756
39009W        W 5792  43.071   1.624  14.449
39010W        W 5793  40.332  21.202   3.660
39011W        W 5794  26.499  10.154   1.854
39012W        W 5795  35.003  24.304  13.866
39013W        W 5796  32.648   2.847  14.401
39014W        W 5797  15.766  39.334   0.714
39015W        W 5798   9.914  20.380   1.794
39016W        W 5799  23.444  39.883  11.385
39017W        W 5800  42.890  43.542   1.342
39018W        W 5801  11.711   2.877   4.145
39019W        W 5802  43.769  22.829   2.783
39020W        W 5803   0.353   2.225   4.781
39021W        W 5804  35.130  33.907   2.226
39022W        W 5805  44.942  20.709  11.516
39023W        W 5806   6.793  35.348  11.254
39024W        W 5807  23.004  26.197   2.820
39025W        W 5808   9.752  10.604  12.007
39026W        W 5809  26.249  33.341  11.130
39027W        W 5810  10.354  35.431   0.319
39028W        W 5811  35.891  23.050  13.995
39029W        W 5812  12.607   3.720   3.157
39030W        W 5813   9.363  39.733   1.355
39031W        W 5814  10.674  14.022  10.817
39032W        W 5815  15.670  44.923  14.777
39033W        W 5816  19.240  37.409   2.629
39034W        W 5817  12.836  34.036  12.881
39035W        W 5818  33.070  28.101   1.467
39036W        W 5819   3.425  11.602   0.371
39037W        W 5820  17.379  25.828  13.113
39038W        W 5821   4.998  44.811   2.239
39039W        W 5822   7.788  34.642   5.028
39040W        W 5823  12.820  16.345  13.487
39041W        W 5824  31.996  10.091  10.765
39042W        W 5825  32.906  30.069   2.314
39043W        W 5826  35.034   2.388  10.990
39044W        W 5827  21.054  14.441   0.273
39045W        W 5828  42.194  38.718  10.299
39046W        W 5829   5.151  13.147   4.321
39047W        W 5830  30.079  23.471  14.711
39048W        W 5831   0.812   4.858  12.116
39049W        W 5832  23.582  44.958  13.705
39050W        W 5833   7.630   2.467  12.582
39051W        W 5834  12.204  23.789  11.489
39052W        W 5835   4.469  19.234   3.641
39053W        W 5836  23.550  13.591   4.127
39054W        W 5837   0.266  21.716   3.194
39055W        W 5838  38.142   7.361   4.558
39056W        W 5839  23.725  33.721  11.104
39057W        W 5840  18.671  31.498   2.733
39058W        W 5841  38.500  20.861   2.761
39059W        W 5842  25.058  12.190  14.355
39060W        W 5843   3.178  33.480   4.558
39061W        W 5844  19.975  27.769   0.444
39062W        W 5845  40.777  29.173   1.720
39063W        W 5846  22.415  29.578   1.145
39064W        W 5847   3.592  31.784  10.225
39065W        W 5848   9.893  24.474  14.837
39066W        W 5849  24.290  27.681  14.537
39067W        W 5850  15.183   5.698  11.929
39068W        W 5851  24.861  35.906   2.740
39069W        W 5852  16.268   1.877   1.979
39070W        W 5853  29.917   0.547   3.589
39071W        W 5854  28.531  31.838  11.025
39072W        W 5855  27.516  17.572   4.922
39073W        W 5856   6.250  31.832   3.121
39074W        W 5857   0.781   9.843   4.638
39075W        W 5858  30.335  42.457   0.286
39076W        W 5859  33.197  34.011   5.006
39077W        W 5860  20.448   5.396   0.806
39078W        W 5861   4.342   2.527  13.057
39079W        W 5862  40.793   2.874   0.251
39080W        W 5863  15.810  11.390  12.030
39081W        W 5864  31.898   4.215   3.186
39082W        W 5865  42.773  34.125   3.561
39083W        W 5866  21.667   6.782  14.378
39084W        W 5867  14.106  34.160  12.401
39085W        W 5868  42.263  40.463  12.434
39086W        W 5869  43.792  23.577  13.389
39087W        W 5870  34.910   3.166  12.723
39088W        W 5871  35.867  42.384  13.991
39089W        W 5872   3.920  11.569   2.202
39090W        W 5873  17.510  41.871  11.063
39091W        W 5874   5.264  34.053  14.033
39092W        W 5875  28.092  35.549   3.646
39093W        W 5876  13.525   0.374   4.132
39094W        W 5877   2.223   1.706   3.637
39095W        W 5878  13.854  17.123  11.133
39096W        W 5879   1.339  32.291  13.975
39097W        W 5880  35.065  39.788   3.676
39098W        W 5881  11.625  41.888   4.138
39099W        W 5882  31.372  31.574  12.976
39100W        W 5883   0.500   8.916  11.132
39101W        W 5884  26.888  25.637   1.681
39102W        W 5885  10.344  19.055  13.286
39103W        W 5886   9.798  14.846   3.269
39104W        W 5887   7.835  42.412   2.448
39105W        W 5888  38.983  22.053  13.463
39106W        W 5889  21.975  17.264   1.476
39107W        W 5890   7.326   0.890   3.577
39108W        W 5891  14.776   5.682   3.157
39109W        W 5892  31.554   9.569  11.091
39110W        W 5893   2.472  17.388  12.847
39111W        W 5894   6.094  23.104   2.264
39112W        W 5895  14.295  29.106  11.683
39113W        W 5896   5.984  40.809  12.453
39114W        W 5897  10.420   1.276  11.967
39115W        W 5898  19.168  36.400  14.609
39116W        W 5899  32.104  16.764  14.327
39117W        W 5900  39.955  12.247  10.728
39118W        W 5901  23.398   8.853  11.735
39119W        W 5902  19.755  32.626  11.230
39120W        W 5903  23.300  23.002  14.961
39121W        W 5904  10.695  13.183   4.146
39122W        W 5905  33.877   1.364  12.996
39123W        W 5906   9.935  12.625   1.491
39124W        W 5907  33.070  37.262  12.000
39125W        W 5908  25.939  30.212  11.553
39126W        W 5909  13.398  11.059  13.868
39127W        W 5910  33.838   2.408   1.316
39128W        W 5911  27.811  21.138  12.850
39129W        W 5912  31.082   5.441  14.446
39130W        W 5913   0.996   6.864   0.393
39131W        W 5914  18.140   9.424   2.814
39132W        W 5915  35.054  10.737  13.980
39133W        W 5916  22.221  34.144   3.471
39134W        W 5917  13.249  27.768   0.450
39135W        W 5918   1.953  30.059   4.194
39136W        W 5919  30.561  40.107  11.631
39137W        W 5920  16.369   2.232   4.648
39138W        W 5921   9.908  28.960   0.960
39139W        W 5922  21.353  39.478  11.470
39140W        W 5923  36.591  32.587  10.723
39141W        W 5924  24.646  24.760  13.524
39142W        W 5925  37.441  23.710   2.199
39143W        W 5926  14.725  29.256  11.173
39144W        W 5927  24.513  44.208   0.234
39145W        W 5928  38.313  17.231   0.877
39146W        W 5929   6.727  17.855   2.300
39147W        W 5930  19.701   1.178   0.313
39148W        W 5931  23.256  14.216  13.930
39149W        W 5932  36.011  14.824   1.251
39150W        W 5933   5.873  43.675  12.131
39151W        W 5934  19.777  31.055  12.701
39152W        W 5935  21.985  14.650  12.825
39153W        W 5936  25.712  32.163   1.785
39154W        W 5937  23.011  43.441   1.902
39155W        W 5938  19.541   8.397  12.424
39156W        W 5939  35.403  10.940   5.083
39157W        W 5940  28.552   0.315  11.204
39158W        W 5941  15.266   7.781  11.236
39159W        W 5942   3.954  12.715   4.218
39160W        W 5943  39.860  31.192  10.556
39161W        W 5944  22.953  31.568  11.477
39162W        W 5945   0.298  25.124  13.305
39163W        W 5946  38.475   6.720  11.427
39164W        W 5947  29.081  24.495  14.856
39165W        W 5948  17.139  37.971  12.887
39166W        W 5949  13.347  25.113  12.526
39167W        W 5950  15.515  18.100   2.460
39168W        W 5951  29.987  35.146  14.316
39169W        W 5952  11.766   1.260   2.386
39170W        W 5953  39.280   4.341  13.015
39171W        W 5954   7.659  17.573  10.782
39172W        W 5955  24.500  44.374   0.736
39173W        W 5956  14.030  27.945  11.999
39174W        W 5957  24.117  14.734  14.705
39175W        W 5958  43.701   8.885  13.517
39176W        W 5959  15.661  31.551  12.862
39177W        W 5960  31.591   1.434  12.530
39178W        W 5961  25.560  28.605   2.150
39179W        W 5962  22.286  17.482  12.825
39180W        W 5963  26.625   2.190  13.527
39181W        W 5964  32.980  13.638   3.859
39182W        W 5965  35.153  41.538   0.796
39183W        W 5966  38.109   9.961   0.387
39184W        W 5967   4.508  38.439  12.837
39185W        W 5968   4.970  33.638  10.647
39186W        W 5969  33.902  42.702   0.153
39187W        W 5970  30.985  29.945   2.954
39188W        W 5971  19.741  40.993  12.483
39189W        W 5972  15.049  29.319   1.736
39190W        W 5973  42.305  42.346  11.254
39191W        W 5974  40.321  15.144  13.761
39192W        W 5975   5.247  28.427   0.763
39193W        W 5976  25.692  33.982  12.668
39194W        W 5977  13.765  28.237  14.354
39195W        W 5978  38.271   4.454   1.671
39196W        W 5979  14.064   2.549   2.655
39197W        W 5980   6.302  37.860  12.589
39198W        W 5981  30.063  38.429   2.320
39199W        W 5982  41.542   6.916  14.356
39200W        W 5983  36.107  29.387   1.289
39201W        W 5984  19.651  13.705  14.441
39202W        W 5985  10.818  40.828   3.892
39203W        W 5986   2.079   7.829  13.098
39204W        W 5987  31.943  26.137  11.192
39205W        W 5988  35.905  26.607  10.133
39206W        W 5989  31.325  19.806  12.598
39207W        W 5990  36.433  20.810  14.349
39208W        W 5991  27.368  32.407  10.504
39209W        W 5992  42.602  42.292  12.258
39210W        W 5993  44.201  44.906  13.982
39211W        W 5994  29.451   8.671   0.491
39212W        W 5995  18.247  10.962   1.202
39213W        W 5996  24.132  22.628   3.102
39214W        W 5997  42.325   4.013   0.314
39215W        W 5998  27.576  35.260   4.517
39216W        W 5999  17.486  35.000   0.798
39217W        W 6000   8.831   8.211   3.643
39218W        W 6001  23.115  43.970   1.796
39219W        W 6002  31.531   0.272  12.432
39220W        W 6003   1.301  42.774   0.306
39221W        W 6004   7.714  12.727   0.095
39222W        W 6005  30.944  18.187   3.648
39223W        W 6006  12.798   7.553   3.773
39224W        W 6007  18.625  44.495   4.075
39225W        W 6008  39.977   7.670  12.302
39226W        W 6009   0.266  11.647   2.178
39227W        W 6010  36.515  24.762   1.019
39228W        W 6011  29.015  29.097  13.437
39229W        W 6012  36.038  26.034  12.063
39230W        W 6013  30.602  25.007  14.116
39231W        W 6014  23.038  43.475  14.481
39232W        W 6015  13.782  13.390  11.680
39233W        W 6016  32.874  40.401  10.739
39234W        W 6017  12.537  18.109   1.146
39235W        W 6018   6.117  35.287   0.345
39236W        W 6019  33.952  26.257  13.067
39237W        W 6020  34.731  30.569  12.866
39238W        W 6021  36.866   2.204  10.974
39239W        W 6022  10.274  26.528   1.681
39240W        W 6023  27.515   6.788   5.009
39241W        W 6024  23.729  27.598  12.671
39242W        W 6025  33.125   5.224  10.886
39243W        W 6026  21.496  27.586   4.346
39244W        W 6027  10.984  24.270  14.049
39245W        W 6028  18.685  12.776  13.254
39246W        W 6029  43.424   0.438  11.176
39247W        W 6030  34.881   7.236  10.816
39248W        W 6031  32.471  23.769   3.995
39249W        W 6032  30.880  34.871   4.599
39250W        W 6033  20.113  33.908  10.762
39251W        W 6034  39.953   8.104   1.413
39252W        W 6035  38.488   7.769   4.488
39253W        W 6036   7.163  28.630  13.123
39254W        W 6037  16.057  15.284  10.359
39255W        W 6038  38.923  30.006   2.883
39256W        W 6039  22.199  16.156   2.336
39257W        W 6040  40.092  38.454   0.915
39258W        W 6041  28.333   7.439  12.259
39259W        W 6042   8.368  39.489   4.132
39260W        W 6043  20.447  33.624   2.968
39261W        W 6044  22.293  42.513  10.906
39262W        W 6045  15.616  32.464  12.943
39263W        W 6046  41.315  41.181   4.035
39264W        W 6047   2.278  11.177  13.875
39265W        W 6048  29.631  15.362   3.325
39266W        W 6049   7.350  27.603   0.885
39267W        W 6050   6.510   6.601  12.526
39268W        W 6051  12.811  31.599   2.720
39269W        W 6052  17.386  10.584   3.591
39270W        W 6053  29.528  32.259  11.875
39271W        W 6054  12.924   9.825   3.647
39272W        W 6055  16.039   8.209  11.116
39273W        W 6056  33.039  21.795   0.438
39274W        W 6057  18.484  10.743  11.109
39275W        W 6058  33.010  42.749   1.450
39276W        W 6059  20.398   3.205  14.727
39277W        W 6060  25.763  31.805  11.060
39278W        W 6061  23.794  34.822   2.851
39279W        W 6062  14.681  18.187   4.637
39280W        W 6063  43.651  19.145  12.952
39281W        W 6064  37.383  33.352   2.250
39282W        W 6065  30.142   0.284  11.063
39283W        W 6066  22.953  29.853  12.364
39284W        W 6067  34.181  13.612   2.182
39285W        W 6068  42.175  34.947  11.131
39286W        W 6069  39.552  39.408   1.952
39287W        W 6070  40.465  33.789   4.166
39288W        W 6071  29.817  43.573   2.720
39289W        W 6072  12.262   1.223  11.873
39290W        W 6073   6.639  16.294   0.448
39291W        W 6074  40.365  40.654   3.200
39292W        W 6075  24.446  15.272  12.081
39293W        W 6076   7.936  29.664   0.339
39294W        W 6077   2.944  43.100  11.258
39295W        W 6078  17.360  35.503  14.764
39296W        W 6079  17.109  43.008  13.955
39297W        W 6080  23.910  13.878  11.248
39298W        W 6081  26.118  35.019  11.426
39299W        W 6082   8.298  20.701   4.074
39300W        W 6083   3.024  39.903   3.868
39301W        W 6084  35.318  22.446   0.237
39302W        W 6085   6.486   5.953  14.787
39303W        W 6086   2.175  23.207  11.763
39304W        W 6087  24.068  38.541   4.254
39305W        W 6088  16.773   7.313   3.244
39306W        W 6089  30.820   4.652  12.601
39307W        W 6090   8.884   1.853   0.775
39308W        W 6091  16.142  16.223  10.627
39309W        W 6092  22.127  15.732   4.825
39310W        W 6093  35.581  38.833   0.480
39311W        W 6094  43.429  14.084   0.538
39312W        W 6095  43.498  39.283  14.294
39313W        W 6096  35.553  18.774  10.278
39314W        W 6097  15.353  22.796   4.204
39315W        W 6098   3.288   2.870  13.158
39316W        W 6099   2.361   1.744   2.013
39317W        W 6100   2.384  42.986   0.735
39318W        W 6101  25.622   5.137  10.269
39319W        W 6102  40.304   9.847  14.801
39320W        W 6103   8.446  44.970  13.057
39321W        W 6104  19.981  43.772  14.870
39322W        W 6105  18.083  29.102   0.303
39323W        W 6106  23.872  26.461  13.070
39324W        W 6107   3.402  19.665   1.783
39325W        W 6108  32.908  10.772   4.875
39326W        W 6109   8.621   1.426   4.831
39327W        W 6110  26.231  29.004   4.120
39328W        W 6111  23.767  30.537   4.846
39329W        W 6112  29.443   8.374  12.444
39330W        W 6113  27.603  35.644   2.178
39331W        W 6114  23.420  18.221   2.651
39332W        W 6115   7.740  39.951   2.193
39333W        W 6116  10.715  24.589  12.588
39334W        W 6117   1.815  24.879  11.220
39335W        W 6118   9.734   5.294   3.232
39336W        W 6119   4.296  36.334   0.235
39337W        W 6120  16.308  33.343  11.713
39338W        W 6121   9.689   7.378  11.419
39339W        W 6122  27.689   2.516   4.714
39340W        W 6123   2.407  25.571   4.757
39341W        W 6124  14.493  42.500  13.763
39342W        W 6125  34.102  10.090   2.788
39343W        W 6126   1.210  39.966   2.223
39344W        W 6127  25.834   8.719   4.127
39345W        W 6128  10.214   9.935   4.486
39346W        W 6129  24.812  11.289   2.722
39347W        W 6130  16.131   0.722  14.947
39348W        W 6131   2.878  33.989  12.439
39349W        W 6132  44.971   7.720   3.033
39350W        W 6133   1.400  38.492  12.213
39351W        W 6134  21.564   0.516   4.555
39352W        W 6135  29.682   0.468   3.103
39353W        W 6136  40.535  29.115   3.568
39354W        W 6137  11.790  10.733  12.385
39355W        W 6138  15.401  19.496   3.731
39356W        W 6139  37.951  18.467   1.756
39357W        W 6140  35.585  14.598   4.542
39358W        W 6141  32.952  42.600   3.639
39359W        W 6142  10.853  10.292   1.294
39360W        W 6143  30.965  34.917   1.088
39361W        W 6144  25.963   5.518  13.281
39362W        W 6145   5.410  34.567  12.870
39363W        W 6146  25.730  21.803   2.897
39364W        W 6147  29.415  20.627   3.154
39365W        W 6148   5.488   8.712  12.316
39366W        W 6149  27.737   7.349   1.855
39367W        W 6150  14.320   2.687  13.281
39368W        W 6151  17.689  36.579   3.533
39369W        W 6152   8.270  32.274  13.559
39370W        W 6153  40.599  12.727   2.287
39371W        W 6154  27.357  24.920   4.551
39372W        W 6155  38.613  19.743  14.426
39373W        W 6156  32.825   9.821  11.996
39374W        W 6157  31.388   8.284   2.236
39375W        W 6158  43.685  24.807  12.514
39376W        W 6159   1.944  17.268   2.636
39377W        W 6160  17.070  35.847  11.569
39378W        W 6161  41.474  12.594   2.279
39379W        W 6162  32.222  31.460  13.256
39380W        W 6163  17.937  32.350  14.752
39381W        W 6164   8.954  32.628   1.397
39382W        W 6165   6.417  25.695  12.623
39383W        W 6166  15.695  39.377  11.078
39384W        W 6167   7.249  11.393   0.842
39385W        W 6168  29.467   1.858   4.585
39386W        W 6169  30.500  14.219  13.839
39387W        W 6170  40.447   9.908   0.837
39388W        W 6171   4.021  26.682  14.352
39389W        W 6172  26.786   9.746   1.758
39390W        W 6173  40.897  11.870  13.375
39391W        W 6174  13.217  30.323   2.737
39392W        W 6175  16.180   8.873   1.284
39393W        W 6176  40.504  10.482   4.624
39394W        W 6177  33.872  23.104  10.273
39395W        W 6178  16.149   7.956  11.655
39396W        W 6179  34.017  33.357  13.902
39397W        W 6180   2.745   4.354   4.814
39398W        W 6181  32.541   2.286   3.637
39399W        W 6182  12.731  20.182   3.910
39400W        W 6183  29.481   7.553   3.734
39401W        W 6184  17.585  38.343  13.845
39402W        W 6185  34.485  13.409  12.957
39403W        W 6186  34.409  10.932  14.935
39404W        W 6187  20.877  39.331   1.086
39405W        W 6188  10.940  12.569   2.517
39406W        W 6189  20.312  37.064  11.662
39407W        W 6190  29.085  19.132   2.427
39408W        W 6191  41.540   3.877   0.802
39409W        W 6192   3.042  27.347   0.702
39410W        W 6193  32.847  12.667  13.230
39411W        W 6194  23.226  24.763  13.065
39412W        W 6195   1.897  43.017  13.818
39413W        W 6196  25.727   1.272  10.296
39414W        W 6197   8.132  40.703  12.509
39415W        W 6198  29.616   1.845   5.094
39416W        W 6199  32.373  34.871   0.860
39417W        W 6200  44.427  28.734   1.279
39418W        W 6201   9.316  19.055  14.797
39419W        W 6202  27.177   5.408   0.713
39420W        W 6203  16.211   8.300  12.010
39421W        W 6204  10.200  30.011  13.439
39422W        W 6205  28.964  39.208   4.558
39423W        W 6206   0.583   3.956  13.054
39424W        W 6207   0.530  16.769   2.366
39425W        W 6208  43.264  19.671   4.522
39426W        W 6209  11.766  18.686  10.861
39427W        W 6210  23.213  21.196   1.381
39428W        W 6211  44.289  33.146  14.395
39429W        W 6212  23.167  39.696  14.598
39430W        W 6213  20.603   8.943   4.556
39431W        W 6214  36.360  11.202  11.052
39432W        W 6215  38.060   1.263   4.278
39433W        W 6216  24.379   4.392  13.912
39434W        W 6217  28.060   4.687   3.852
39435W        W 6218  36.756   6.367   3.224
39436W        W 6219  35.754  12.490  14.816
39437W        W 6220  33.410  23.849  11.289
39438W        W 6221  37.768   2.773   1.905
39439W        W 6222  13.589  32.010   4.612
39440W        W 6223  13.758  32.504  13.032
39441W        W 6224  36.759  42.808   0.339
39442W        W 6225  33.934  24.141  14.665
39443W        W 6226   4.085  43.549   3.667
39444W        W 6227  21.227   8.604  12.014
39445W        W 6228   0.428  14.193   4.097
39446W        W 6229  18.255  12.280  10.685
39447W        W 6230  12.865   3.258   0.517
39448W        W 6231  38.352   0.313   0.325
39449W        W 6232  29.514  19.630   5.228
39450W        W 6233   6.463  33.781  13.767
39451W        W 6234   4.017  30.044  11.644
39452W        W 6235  44.164  29.946   5.047
39453W        W 6236  27.571   0.449  13.837
39454W        W 6237  29.386  43.481  13.003
39455W        W 6238  20.771   3.406  12.100
39456W        W 6239  12.001  19.691  11.567
39457W        W 6240  25.253  21.436  13.396
39458W        W 6241  26.130  22.768   1.749
39459W        W 6242   9.694  22.521  13.429
39460W        W 6243  41.284  31.986   5.032
39461W        W 6244   5.370  11.771  13.781
39462W        W 6245   9.306  18.149  14.548
39463W        W 6246  31.599   8.168  12.618
39464W        W 6247  14.258  20.725  12.819
39465W        W 6248  35.651   4.529   1.677
39466W        W 6249  26.260   2.872   2.422
39467W        W 6250  19.141  12.855   3.065
39468W        W 6251  41.729  21.536   4.544
39469W        W 6252   8.375  32.998  11.788
39470W        W 6253  38.731  38.553   0.192
39471W        W 6254  10.663   5.917  14.555
39472W        W 6255   7.770  12.449   5.050
39473W        W 6256   4.694   7.495   2.090
39474W        W 6257  11.120  14.676  14.871
39475W        W 6258  42.538   2.029   3.406
39476W        W 6259  29.684   7.958  14.506
39477W        W 6260  32.603  19.695   1.983
39478W        W 6261  43.499   8.846   4.049
39479W        W 6262   2.249  39.039   0.396
39480W        W 6263  25.604  23.060  11.122
39481W        W 6264   1.439  35.055  13.710
39482W        W 6265  12.212  19.578  12.019
39483W        W 6266  44.989  25.803  13.160
39484W        W 6267  17.841  10.881  11.828
39485W        W 6268   3.315  34.397  13.781
39486W        W 6269  35.820   3.696  10.791
39487W        W 6270   4.536  18.203  13.983
39488W        W 6271   8.518   4.810  14.369
39489W        W 6272  15.401   4.838   3.619
39490W        W 6273  40.742  40.006   0.390
39491W        W 6274  38.450  38.078   4.542
39492W        W 6275  26.065  25.230   0.053
39493W        W 6276  26.753  35.659  10.771
39494W        W 6277  21.723  43.889   1.861
39495W        W 6278  37.233  31.024   0.404
39496W        W 6279  35.886   1.314  10.680
39497W        W 6280  42.020  29.376  13.478
39498W        W 6281  18.544  12.569   0.409
39499W        W 6282  23.194  38.309   2.334
39500W        W 6283  24.304  33.053   2.689
39501W        W 6284  13.775  25.404   4.627
39502W        W 6285   8.347  30.313   2.200
39503W        W 6286  23.991  30.353   4.051
39504W        W 6287  12.315   3.464  10.722
39505W        W 6288  30.990  28.035  11.429
39506W        W 6289  14.375  30.610  11.042
39507W        W 6290  23.169  15.484  14.567
39508W        W 6291  17.577   5.965  13.648
39509W        W 6292  41.316   6.669   4.510
39510W        W 6293  38.387  44.932  14.326
39511W        W 6294   8.832  19.506   2.507
39512W        W 6295   7.061  28.637  12.205
39513W        W 6296  33.469  25.207   4.461
39514W        W 6297  20.407   6.312  10.035
39515W        W 6298  39.122   9.616  10.613
39516W        W 6299  40.790  17.556  10.563
39517W        W 6300  44.022  20.653   2.145
39518W        W 6301   8.653   7.185  11.870
39519W        W 6302  15.310  30.354  14.261
39520W        W 6303  32.929  30.355  12.603
39521W        W 6304  32.436   1.857   2.867
39522W        W 6305  36.567  35.602   0.990
39523W        W 6306   0.458   4.085  14.444
39524W        W 6307  24.144  15.856  11.520
39525W        W 6308  11.583  38.040   3.045
39526W        W 6309   7.433  19.170  12.119
39527W        W 6310   6.275  44.538  11.879
39528W        W 6311  26.590  20.341   4.078
39529W        W 6312  35.031   4.001  11.202
39530W        W 6313  38.860   1.596   2.684
39531W        W 6314  11.876  18.114  14.747
39532W        W 6315   2.791   9.742   0.426
39533W        W 6316  18.243  32.108  11.910
39534W        W 6317  37.571   7.696   1.377
39535W        W 6318   3.326  35.628   2.308
39536W        W 6319  25.464  39.539  13.124
39537W        W 6320  25.586  37.321   4.492
39538W        W 6321  38.953  34.997  14.086
39539W        W 6322  41.562  34.188  13.993
39540W        W 6323  20.691  14.540   1.698
39541W        W 6324  30.093  33.586   1.739
39542W        W 6325  33.132  10.091   3.602
39543W        W 6326  28.395  39.493  10.267
39544W        W 6327   8.606  32.520  11.892
39545W        W 6328  29.013  26.136   2.150
39546W        W 6329  11.893  43.399   2.337
39547W        W 6330  22.724  29.936   0.274
39548W        W 6331  33.001  13.570  12.018
39549W        W 6332  21.641   7.666  13.285
39550W        W 6333  37.003  12.566   2.327
39551W        W 6334  24.958   3.998  11.611
39552W        W 6335  12.907   9.762   0.817
39553W        W 6336  11.509  18.543  11.333
39554W        W 6337  27.018  42.850  12.965
39555W        W 6338  16.853   9.460   2.751
39556W        W 6339  25.724  40.687   1.514
39557W        W 6340  40.546  12.162   4.011
39558W        W 6341  30.599  11.502   4.084
39559W        W 6342  36.014  18.184   2.321
39560W        W 6343   5.282  15.138  10.520
39561W        W 6344  40.850  34.455  14.223
39562W        W 6345  38.534   1.748  14.844
39563W        W 6346  38.373  29.901   4.527
39564W        W 6347  33.409   7.888   3.352
39565W        W 6348  33.318  13.746  12.433
39566W        W 6349  22.590  31.603  12.860
39567W        W 6350  16.668   3.464   4.640
39568W        W 6351  21.076  36.862   2.231
39569W        W 6352  16.315   7.646   1.479
39570W        W 6353   1.498  39.919  14.065
39571W        W 6354  23.479  38.439  12.616
39572W        W 6355  17.157  29.067  10.812
39573W        W 6356  19.523  37.876  13.914
39574W        W 6357  11.839  24.623   3.804
39575W        W 6358  29.560  37.415   3.194
39576W        W 6359  12.540  20.108   4.391
39577W        W 6360   5.350  34.650   4.185
39578W        W 6361   1.417  26.718   0.276
39579W        W 6362   2.404  40.119   4.067
39580W        W 6363  39.836  10.937   3.612
39581W        W 6364  10.217  12.978  14.244
39582W        W 6365  25.999   6.892  10.717
39583W        W 6366  30.825  29.584  12.075
39584W        W 6367   9.620   8.237  14.449
39585W        W 6368  12.143  29.092   1.554
39586W        W 6369  13.428  14.159   2.718
39587W        W 6370   9.814   9.313   3.253
39588W        W 6371   5.247  40.551   1.416
39589W        W 6372  37.988  26.571  11.104
39590W        W 6373  20.130  38.585   0.530
39591W        W 6374  26.607  16.092   4.349
39592W        W 6375  22.491  17.244   4.953
39593W        W 6376  29.039  35.551   1.114
39594W        W 6377   6.657   5.710   3.695
39595W        W 6378  25.401  29.196   3.790
39596W        W 6379  29.940   0.790  12.299
39597W        W 6380   6.812  31.369  12.392
39598W        W 6381   6.807  20.756  14.994
39599W        W 6382  42.880   8.304   0.384
39600W        W 6383   2.952  30.603   1.386
39601W        W 6384  20.091  37.458   1.335
39602W        W 6385   1.152  30.340   1.200
39603W        W 6386  23.313  19.116   4.813
39604W        W 6387  33.407  20.266  12.650
39605W        W 6388  14.317  24.511  10.693
39606W        W 6389   6.135   2.416  11.967
39607W        W 6390   6.020   8.709  14.901
39608W        W 6391  26.178  30.060   2.827
39609W        W 6392  42.655  44.041  12.424
39610W        W 6393  44.329  44.039   1.178
39611W        W 6394  29.819  30.651   2.082
39612W        W 6395   8.090  22.106  13.003
39613W        W 6396  27.150  32.401  12.906
39614W        W 6397  25.496   8.757   0.290
39615W        W 6398  17.689  40.306   3.682
39616W        W 6399  38.184  39.347  10.500
39617W        W 6400   2.776  28.403   4.561
39618W        W 6401   7.452   3.352  10.984
39619W        W 6402  38.620   8.772  11.552
39620W        W 6403  27.638  39.590   3.635
39621W        W 6404   5.526  31.837  11.982
39622W        W 6405  35.550  27.350   0.291
39623W        W 6406   5.258  20.210  14.788
39624W        W 6407  30.949   3.226  14.967
39625W        W 6408  43.851  22.548  13.938
39626W        W 6409   0.644   8.722   1.821
39627W        W 6410  32.117  38.111   0.423
39628W        W 6411   3.796  14.913   1.229
39629W        W 6412   5.014   6.195   3.604
39630W        W 6413  32.204  37.876   3.322
39631W        W 6414  20.298  44.067   4.492
39632W        W 6415  14.212  20.176  11.793
39633W        W 6416  26.441  36.553   3.229
39634W        W 6417   5.685  41.836  14.535
39635W        W 6418   1.338  33.776   0.799
39636W        W 6419  23.587  31.243  14.093
39637W        W 6420  10.199  23.443  11.051
39638W        W 6421  21.604  37.957  10.673
39639W        W 6422  23.705  21.756  14.469
39640W        W 6423  24.113  25.949  13.381
39641W        W 6424  30.862  24.228   1.461
39642W        W 6425  13.096  17.416  13.322
39643W        W 6426  43.055  33.051   2.999
39644W        W 6427  27.977   8.740  12.581
39645W        W 6428  37.477  38.583  10.785
39646W        W 6429  28.181  27.485   2.387
39647W        W 6430  42.787  10.621  13.369
39648W        W 6431   8.676  26.818  12.800
39649W        W 6432  42.003  29.132   0.483
39650W        W 6433  29.485  31.748  12.003
39651W        W 6434  44.354  35.115  10.637
39652W        W 6435  33.362  13.448   2.799
39653W        W 6436  40.758  39.990   3.606
39654W        W 6437  19.060   2.077  12.258
39655W        W 6438  29.598  35.625   3.585
39656W        W 6439  14.286  20.981   1.046
39657W        W 6440  30.298  15.588  12.885
39658W        W 6441  23.722   0.360   0.547
39659W        W 6442  21.657  24.946   2.342
39660W        W 6443  29.816   9.951   0.311
39661W        W 6444  35.008   1.491   3.691
39662W        W 6445  29.974  15.754  12.501
39663W        W 6446  19.349  16.424   4.957
39664W        W 6447  11.903  39.581   0.802
39665W        W 6448  10.090  30.923  14.407
39666W        W 6449   6.873  43.104   1.271
39667W        W 6450  20.988  16.121   1.836
39668W        W 6451  10.221  13.314  13.369
39669W        W 6452  43.989  37.848  10.668
39670W        W 6453  34.301  30.957   1.028
39671W        W 6454  38.043   0.465   3.787
39672W        W 6455   0.937  10.296   2.834
39673W        W 6456  12.586  22.717  13.562
39674W        W 6457   6.216  33.999  14.841
39675W        W 6458  20.023  29.020   4.510
39676W        W 6459  13.080  23.947   1.108
39677W        W 6460   7.212  39.624  11.396
39678W        W 6461  26.503  14.054   0.255
39679W        W 6462   7.744  44.875   2.932
39680W        W 6463  35.796   6.369  11.979
39681W        W 6464  27.424  43.299  14.394
39682W        W 6465  14.108  11.736   5.007
39683W        W 6466  37.294   2.274  11.712
39684W        W 6467  11.160  12.203   3.818
39685W        W 6468  39.910  26.502   1.942
39686W        W 6469  36.788  41.133  13.297
39687W        W 6470  20.806   9.261   0.475
39688W        W 6471  27.463   7.179  12.090
39689W        W 6472   7.980  25.025   2.349
39690W        W 6473  31.535  32.021   1.509
39691W        W 6474  37.576  23.454  11.152
39692W        W 6475   3.492  28.566  12.090
39693W        W 6476  40.048   8.295   1.874
39694W        W 6477  15.191  43.737   0.781
39695W        W 6478  31.762   7.523  14.275
39696W        W 6479   8.147  21.500  13.696
39697W        W 6480   7.314  20.195  14.518
39698W        W 6481  14.562  19.476   0.694
39699W        W 6482  28.029  39.712   1.436
39700W        W 6483   3.493  31.706   0.388
39701W        W 6484  40.925   7.367  13.692
39702W        W 6485   7.382  41.422   0.896
39703W        W 6486  22.617  31.458   1.769
39704W        W 6487  34.922  18.597  12.553
39705W        W 6488  21.549  23.627   0.948
39706W        W 6489   7.318  25.595  12.627
39707W        W 6490  22.549  34.221  13.510
39708W        W 6491   4.835  20.169  13.872
39709W        W 6492  35.816   3.705   1.285
39710W        W 6493  42.597   0.991  12.467
39711W        W 6494  38.414  41.625  12.108
39712W        W 6495  43.133  36.510  14.064
39713W        W 6496  37.862  43.714   4.630
39714W        W 6497  35.497  25.193  12.358
39715W        W 6498  33.518  38.489  12.064
39716W        W 6499   9.979   7.675  12.234
39717W        W 6500  13.064  25.690  14.846
39718W        W 6501   6.352  27.706  14.501
39719W        W 6502  33.606  34.510   3.692
39720W        W 6503  26.180   7.122   4.819
39721W        W 6504  27.674  11.999   2.385
39722W        W 6505   0.896  44.465   2.489
39723W        W 6506  27.336   6.208  10.727
39724W        W 6507  22.189   4.192  14.791
39725W        W 6508  24.675   4.953   2.299
39726W        W 6509   9.104  35.546   4.344
39727W        W 6510  32.484  26.008  14.095
39728W        W 6511  29.056  28.371   3.834
39729W        W 6512   2.914  31.054   5.195
39730W        W 6513  42.941  10.687   4.637
39731W        W 6514  44.060   6.788  13.288
39732W        W 6515   5.429  40.919   4.598
39733W        W 6516  10.741  39.888   2.665
39734W        W 6517   4.739   8.856  11.568
39735W        W 6518  20.721   4.467  12.416
39736W        W 6519   9.306  23.720   3.980
39737W        W 6520  18.542  12.044  11.097
39738W        W 6521  43.000   4.656  14.852
39739W        W 6522   4.622  20.115   4.544
39740W        W 6523   2.922   2.472   3.216
39741W        W 6524  17.250   7.682  11.133
39742W        W 6525  32.530   2.305   0.709
39743W        W 6526  30.075  35.327  11.753
39744W        W 6527  29.793   7.716   0.011
39745W        W 6528  33.106  16.629  14.490
39746W        W 6529  34.946  34.320  13.928
39747W        W 6530  39.812  36.818  10.520
39748W        W 6531  15.253   0.239  11.733
39749W        W 6532   0.031  42.186  12.920
39750W        W 6533  23.468  37.725  11.755
39751W        W 6534  42.787  11.191  14.505
39752W        W 6535  35.618  44.791   3.202
39753W        W 6536  15.056  41.450   2.854
39754W        W 6537  40.877  18.350   1.947
39755W        W 6538  19.818  20.097   0.283
39756W        W 6539  10.189  29.902   1.640
39757W        W 6540  20.778  17.698   2.273
39758W        W 6541  13.777  36.115   1.763
39759W        W 6542  36.372  10.930   0.364
39760W        W 6543  44.397  29.730   4.268
39761W        W 6544  36.433  11.534   2.636
39762W        W 6545  21.690  14.425   2.611
39763W        W 6546   5.334  31.388   2.713
39764W        W 6547  25.328  38.094  14.586
39765W        W 6548  36.507  24.600   0.483
39766W        W 6549  23.268  44.350  11.671
39767W        W 6550   4.406  21.688   3.392
39768W        W 6551  24.771  37.816  10.473
39769W        W 6552   2.251  29.074   1.289
39770W        W 6553   9.634  40.625   1.720
39771W        W 6554  37.291  37.870   3.150
39772W        W 6555  31.725  35.184  11.531
39773W        W 6556  38.851  40.525   0.330
39774W        W 6557  12.801  36.060  14.539
39775W        W 6558  38.942  43.838   2.439
39776W        W 6559  17.986  24.416   0.459
39777W        W 6560  17.232  14.098  12.598
39778W        W 6561  42.558  23.238   3.286
39779W        W 6562  44.780  29.523   4.620
39780W        W 6563   2.674   4.237   2.720
39781W        W 6564  29.199  24.468  11.493
39782W        W 6565   8.772  35.906  14.715
39783W        W 6566   0.907  33.992   0.949
39784W        W 6567  33.856  29.454  11.879
39785W        W 6568  25.049  17.997   3.742
39786W        W 6569  40.276  25.089  12.010
39787W        W 6570  32.509  23.925  10.842
39788W        W 6571  41.054  21.236   3.247
39789W        W 6572   5.471  37.091  11.151
39790W        W 6573   3.342  30.537   1.029
39791W        W 6574   2.443   9.668  10.731
39792W        W 6575   7.939  37.138   1.807
39793W        W 6576  33.264  40.768  14.888
39794W        W 6577   6.142  14.803  14.113
39795W        W 6578  24.830  29.439  10.069
39796W        W 6579  25.674  43.887   0.437
39797W        W 6580  34.821   0.016  14.046
39798W        W 6581   1.766   5.286  14.989
39799W        W 6582  20.930  36.597  14.837
39800W        W 6583  40.585   9.819   2.722
39801W        W 6584  26.240  25.036   2.119
39802W        W 6585  39.509  23.892  14.965
39803W        W 6586  10.343  36.298   4.790
39804W        W 6587   9.425  26.255  11.659
39805W        W 6588  29.738  10.591  13.420
39806W        W 6589  30.707  12.606   2.723
39807W        W 6590  38.071  25.551  13.835
39808W        W 6591  11.174  29.121  12.016
39809W        W 6592  10.109  21.167   2.284
39810W        W 6593  35.605  44.568   1.360
39811W        W 6594  28.034  31.014  14.489
39812W        W 6595  18.603  33.450  13.352
39813W        W 6596  43.910  19.023   0.438
39814W        W 6597  23.720  37.933   4.825
39815W        W 6598  23.231  32.205   1.951
39816W        W 6599  15.190  24.951  10.775
39817W        W 6600  23.861  22.127  12.000
39818W        W 6601  42.751  35.017  12.500
39819W        W 6602  28.043  37.633  10.560
39820W        W 6603  30.446  14.568  14.217
39821W        W 6604  32.151   5.062   2.554
39822W        W 6605   6.202  32.267  11.613
39823W        W 6606  21.293   8.919   3.134
39824W        W 6607  39.553  21.689   2.375
39825W        W 6608  27.766  25.377  12.160
39826W        W 6609   1.488   6.841  13.445
39827W        W 6610  16.290  41.405  10.512
39828W        W 6611   1.527   2.031   3.140
39829W        W 6612   0.307   7.281  11.561
39830W        W 6613  18.498  36.418  10.491
39831W        W 6614  32.046  42.305   1.317
39832W        W 6615  31.572  12.626  14.191
39833W        W 6616  29.978  42.369   0.724
39834W        W 6617  22.163  42.096  12.442
39835W        W 6618  26.751   6.693  14.473
39836W        W 6619  29.432  25.401   4.530
39837W        W 6620  30.977  25.573  10.539
39838W        W 6621  19.087  40.870   2.283
39839W        W 6622  44.512   2.037   2.617
39840W        W 6623   2.445  11.378  13.411
39841W        W 6624  38.088  28.613  12.006
39842W        W 6625  32.583  16.011  12.749
39843W        W 6626   1.109  22.320   2.241
39844W        W 6627  15.609  34.829   4.345
39845W        W 6628  30.795  10.728  12.881
39846W        W 6629   1.880   8.492   0.078
39847W        W 6630  29.844  44.384  12.108
39848W        W 6631  38.039  44.552  13.754
39849W        W 6632   7.949   0.420  11.335
39850W        W 6633   9.723  15.291  14.033
39851W        W 6634  19.749   3.970   3.447
39852W        W 6635  32.608  14.812   2.267
39853W        W 6636  26.407  35.406  12.025
39854W        W 6637  40.100  34.514   0.336
39855W        W 6638  37.617  22.635   3.251
39856W        W 6639  39.514  28.074   0.248
39857W        W 6640  40.905  23.560   3.152
39858W        W 6641  11.199  36.536  14.817
39859W        W 6642  14.199   7.169  13.506
39860W        W 6643  31.419  40.919  11.209
39861W        W 6644  14.552   7.878  11.733
39862W        W 6645  43.375  18.438  10.699
39863W        W 6646   1.026   7.016   3.772
39864W        W 6647  28.529  16.232  14.511
39865W        W 6648  16.688  10.792  11.899
39866W        W 6649  41.425  40.144   4.087
39867W        W 6650  33.152  39.840   4.852
39868W        W 6651  28.044  36.514  13.439
39869W        W 6652   5.624  43.444  11.240
39870W        W 6653  35.511   4.061   3.271
39871W        W 6654  38.483  33.270  10.563
39872W        W 6655   6.781  17.115   1.844
39873W        W 6656  12.288  19.372   2.380
39874W        W 6657  18.760  13.472   5.388
39875W        W 6658   8.144  27.132   0.833
39876W        W 6659   7.474  40.564  11.093
39877W        W 6660  34.434  10.360  12.023
39878W        W 6661   1.559  30.374  14.206
39879W        W 6662  14.188  20.526  11.430
39880W        W 6663  21.760  33.843  12.876
39881W        W 6664  23.631  24.705  12.324
39882W        W 6665  36.876  38.487   4.611
39883W        W 6666  33.341  25.747   3.194
39884W        W 6667  35.285  17.555   1.016
39885W        W 6668  19.728  22.801   3.262
39886W        W 6669  38.504   8.558  14.471
39887W        W 6670  21.674  16.871   1.185
39888W        W 6671   4.273  22.667   3.735
39889W        W 6672   3.663   4.843   2.397
39890W        W 6673  25.934  19.236  11.179
39891W        W 6674  27.997   9.700  14.972
39892W        W 6675  31.664  12.257  12.500
39893W        W 6676  12.689  18.342   2.336
39894W        W 6677   2.937  34.361   4.576
39895W        W 6678  26.303  37.370   4.346
39896W        W 6679  23.540  11.627   0.421
39897W        W 6680   6.609  33.466   2.026
39898W        W 6681  23.980   7.718   4.142
39899W        W 6682  32.532  23.022  12.792
39900W        W 6683  35.075  17.221   1.967
39901W        W 6684  19.009  32.544   1.402
39902W        W 6685  41.434   4.302  14.687
39903W        W 6686  35.297  13.306  11.423
39904W        W 6687  33.980  36.033   0.192
39905W        W 6688   9.494   8.796   4.056
39906W        W 6689   1.276  43.997   1.299
39907W        W 6690   0.067  25.844  14.945
39908W        W 6691   0.213   4.279  14.848
39909W        W 6692   8.215  24.558   2.270
39910W        W 6693  26.928   5.053   3.333
39911W        W 6694  17.562  22.732   3.760
39912W        W 6695   3.364   4.876   5.061
39913W        W 6696  23.932   9.222  11.131
39914W        W 6697  22.182  36.385  12.822
39915W        W 6698  38.399  32.386   2.105
39916W        W 6699  14.121  13.015  13.126
39917W        W 6700  42.465  21.219   2.256
39918W        W 6701   6.025  34.733   0.412
39919W        W 6702  27.723  32.976   0.942
39920W        W 6703  13.047  34.308  13.322
39921W        W 6704  15.666   5.891  13.058
39922W        W 6705  12.108  14.177  13.158
39923W        W 6706   8.270  33.965   3.112
39924W        W 6707  17.589  27.838  14.609
39925W        W 6708  14.241  28.550  14.921
39926W        W 6709  32.594  13.250  12.171
39927W        W 6710  25.158  35.337  13.440
39928W        W 6711  38.167  24.667  14.436
39929W        W 6712  29.382   4.401  13.959
39930W        W 6713  22.313  12.113  11.696
39931W        W 6714  20.294  41.500   3.679
39932W        W 6715  24.486   9.069  10.616
39933W        W 6716   2.703  18.035   4.411
39934W        W 6717  36.032  37.191  11.736
39935W        W 6718   3.932   0.324   3.551
39936W        W 6719  13.058  31.523  12.064
39937W        W 6720  29.313  42.395   0.120
39938W        W 6721  35.605  21.259   3.042
39939W        W 6722  21.048  35.418  12.711
39940W        W 6723   6.238  24.448   0.908
39941W        W 6724  23.899  27.266   4.158
39942W        W 6725  23.082  34.863  11.514
39943W        W 6726  12.906  14.134  10.622
39944W        W 6727  41.102   3.648   2.799
39945W        W 6728  42.399  17.910   0.295
39946W        W 6729  28.507   1.560   4.538
39947W        W 6730  17.481  37.693   5.001
39948W        W 6731   5.145  17.196  12.977
39949W        W 6732  33.828  19.390   5.067
39950W        W 6733  31.588  35.596  13.519
39951W        W 6734   6.843  10.810  13.000
39952W        W 6735  26.269  12.323   4.296
39953W        W 6736  44.837   2.245  12.459
39954W        W 6737  16.765   7.343  12.856
39955W        W 6738  39.421  11.319   1.278
39956W        W 6739   2.091  40.482  14.623
39957W        W 6740   9.288   4.995   3.217
39958W        W 6741   4.988   7.078   3.340
39959W        W 6742  33.106  21.698   3.274
39960W        W 6743  41.982  15.382   5.095
39961W        W 6744  10.640  24.119   4.583
39962W        W 6745   0.662  23.673  12.078
39963W        W 6746  32.654   0.762  11.760
39964W        W 6747  17.841  28.826   2.472
39965W        W 6748  33.540  44.378   0.915
39966W        W 6749   8.276  44.482   2.270
39967W        W 6750  14.230  11.269   0.291
39968W        W 6751   3.641  33.153  12.886
39969W        W 6752  17.053  17.595   0.298
39970W        W 6753   7.841  32.520   2.201
39971W        W 6754  35.048  44.481   2.889
39972W        W 6755  37.275  13.904   2.271
39973W        W 6756  29.596   1.723   2.289
39974W        W 6757  36.993   0.939  13.266
39975W        W 6758  30.191   2.237  14.861
39976W        W 6759  32.079   8.800   0.748
39977W        W 6760  14.531   7.330   3.414
39978W        W 6761   1.797  23.616  14.735
39979W        W 6762  23.276  21.675  10.771
39980W        W 6763  33.470  28.149  13.741
39981W        W 6764   0.839   4.782   2.695
39982W        W 6765  10.398  10.673  11.305
39983W        W 6766   8.737  19.339   4.333
39984W        W 6767  17.739  23.171   1.301
39985W        W 6768  12.553  30.908  10.770
39986W        W 6769  11.094   1.687   0.750
39987W        W 6770  16.076  27.380  11.958
39988W        W 6771  25.981  32.545   4.604
39989W        W 6772  32.526  34.520   3.702
39990W        W 6773  36.486  40.372  10.776
39991W        W 6774  42.234  30.654  13.618
39992W        W 6775   3.868  43.067   3.648
39993W        W 6776  38.870  23.758  13.889
39994W        W 6777  27.694  44.798  14.938
39995W        W 6778  24.035  42.892   3.301
39996W        W 6779   7.831   6.520  14.308
39997W        W 6780  21.476   5.880  11.560
39998W        W 6781  16.718   6.405  13.808
39999W        W 6782  22.274   4.288  10.755
40000W        W 6783  18.248  18.608  12.359
40001W        W 6784  40.979  33.088   0.297
40002W        W 6785  19.121  33.503   2.467
40003W        W 6786  31.472  29.758   1.853
40004W        W 6787  36.848  29.484   1.808
40005W        W 6788  24.184   4.982   4.427
40006W        W 6789  35.938  26.397   1.256
40007W        W 6790  40.802  34.896  14.981
40008W        W 6791  28.080  37.574  11.098
40009W        W 6792  41.697   6.208  11.821
40010W        W 6793   6.427   5.359  13.964
40011W        W 6794  27.044   0.823  12.701
40012W        W 6795  16.791  31.221  12.335
40013W        W 6796  15.306  20.127   1.677
40014W        W 6797  44.262  10.605   0.360
40015W        W 6798  14.692  10.273  13.971
40016W        W 6799  16.444  13.963  13.313
40017W        W 6800  19.251   5.269  13.071
40018W        W 6801  35.956  10.866  14.844
40019W        W 6802   5.992  27.018  14.570
40020W        W 6803  37.498  19.566  12.373
40021W        W 6804  39.413  14.275   2.747
40022W        W 6805  28.942  38.840  13.194
40023W        W 6806  16.726  33.515   0.322
40024W        W 6807   7.831  41.284  10.757
40025W        W 6808  28.473  25.530  14.398
40026W        W 6809   9.919  22.533   4.853
40027W        W 6810  43.136  22.464   5.254
40028W        W 6811  15.129   8.054   3.286
40029W        W 6812  35.176   3.590   0.063
40030W        W 6813  15.099  43.447  13.570
40031W        W 6814  35.051  28.636   1.810
40032W        W 6815  28.546  32.510  11.634
40033W        W 6816   4.765  13.372  13.880
40034W        W 6817  11.207  26.258   2.880
40035W        W 6818   9.350  34.037   1.650
40036W        W 6819  22.165  20.747   0.603
40037W        W 6820  14.055  44.868  14.896
40038W        W 6821  12.275  40.428   2.429
40039W        W 6822  27.210  32.976   0.829
40040W        W 6823  44.291  42.055  11.450
40041W        W 6824  17.746  31.668  12.473
40042W        W 6825  34.860   3.442  14.000
40043W        W 6826   5.398  36.862   3.181
40044W        W 6827  21.490  16.511  14.326
40045W        W 6828  15.747   2.003   2.145
40046W        W 6829  35.649  44.225  13.179
40047W        W 6830   4.176  44.998  13.255
40048W        W 6831  28.876  21.076   1.806
40049W        W 6832  20.037   0.241  14.421
40050W        W 6833   8.050  34.137   0.328
40051W        W 6834  29.156  20.559  10.567
40052W        W 6835  35.948  29.093   4.492
40053W        W 6836  25.736  20.790  13.807
40054W        W 6837  39.030  11.369  11.136
40055W        W 6838  39.430  24.221  12.621
40056W        W 6839   7.761  21.718   2.563
40057W        W 6840  21.229  19.001   1.772
40058W        W 6841  29.063  38.572  12.132
40059W        W 6842  36.452  34.224   3.760
40060W        W 6843  28.529  19.663  13.560
40061W        W 6844  35.546   3.560   3.321
40062W        W 6845  20.561  33.110  12.428
40063W        W 6846  14.310  30.104   3.280
40064W        W 6847  23.444  31.378  14.980
40065W        W 6848  20.297  36.846   2.018
40066W        W 6849  44.927  44.167  10.965
40067W        W 6850  37.894  20.809  12.777
40068W        W 6851  26.252   4.430  13.364
40069W        W 6852  21.727   9.793   4.678
40070W        W 6853   7.743  23.051  11.640
40071W        W 6854  33.013  27.933  13.888
40072W        W 6855  38.722  39.259   1.309
40073W        W 6856  19.636   8.250   1.288
40074W        W 6857  31.526   2.527  14.792
40075W        W 6858  38.583  19.202   2.458
40076W        W 6859  21.005  17.067   1.707
40077W        W 6860  42.796  44.986  11.071
40078W        W 6861  38.726  32.012   4.527
40079W        W 6862  32.133  14.654   2.134
40080W        W 6863  39.674  35.617   0.421
40081W        W 6864   0.789   7.372  11.434
40082W        W 6865   2.733  13.166   3.918
40083W        W 6866  30.971  15.770   0.485
40084W        W 6867  36.991  44.210   0.304
40085W        W 6868  40.872  26.324  10.787
40086W        W 6869   9.405   5.274   3.648
40087W        W 6870  13.233  16.019  11.254
40088W        W 6871  35.086   1.406   2.741
40089W        W 6872  34.365  39.572   2.438
40090W        W 6873  17.667  34.804  11.079
40091W        W 6874  41.824   5.752  14.388
40092W        W 6875  37.920  25.918  12.719
40093W        W 6876  25.045  21.506   4.520
40094W        W 6877  42.161  21.521   0.715
40095W        W 6878  39.624   2.941  11.947
40096W        W 6879  33.538  39.752   2.912
40097W        W 6880  31.207  33.482  10.318
40098W        W 6881  13.651  29.897   1.658
40099W        W 6882  15.023  27.653  11.144
40100W        W 6883  33.628  41.522  11.949
40101W        W 6884  23.964  20.679   4.390
40102W        W 6885  27.232  36.362   1.658
40103W        W 6886   1.942  10.223   2.067
40104W        W 6887   4.894  37.831   0.890
40105W        W 6888   5.756  14.846  14.458
40106W        W 6889   2.486  33.163  13.349
40107W        W 6890  18.688  29.717  11.064
40108W        W 6891  32.846   6.494  12.246
40109W        W 6892  43.108  27.550   0.842
40110W        W 6893  19.533  32.499  10.746
40111W        W 6894  28.687  35.019   4.132
40112W        W 6895  39.498  32.145   1.429
40113W        W 6896   3.207  20.155  13.482
40114W        W 6897  13.422  34.309  13.858
40115W        W 6898  44.990  25.563   4.062
40116W        W 6899  40.533  13.098   2.625
40117W        W 6900  24.111  31.144   1.950
40118W        W 6901   6.998  22.532  13.993
40119W        W 6902  16.166  36.498   3.662
40120W        W 6903  22.469  29.989   9.899
40121W        W 6904  16.302  23.798   3.105
40122W        W 6905  15.316  36.205   1.015
40123W        W 6906  29.094  43.220   3.289
40124W        W 6907  27.238   7.435   0.841
40125W        W 6908  32.007  23.266   0.541
40126W        W 6909  40.927   6.339   4.446
40127W        W 6910  22.291  13.939   4.455
40128W        W 6911  16.533  38.870  11.501
40129W        W 6912   2.696   6.909  10.647
40130W        W 6913  11.955  37.926   2.704
40131W        W 6914  21.233  42.194   3.841
40132W        W 6915  11.348  17.006  14.605
40133W        W 6916   2.811   0.295   4.591
40134W        W 6917  39.368  20.710   4.360
40135W        W 6918  35.725  11.503  11.530
40136W        W 6919  37.621  11.228  13.518
40137W        W 6920  42.930  23.780   4.826
40138W        W 6921   0.385  30.590   3.461
40139W        W 6922  31.934   8.439   4.409
40140W        W 6923  36.391  42.691  12.599
40141W        W 6924   4.669  17.878  11.988
40142W        W 6925  12.618  43.741   3.625
40143W        W 6926  32.726  40.371   3.155
40144W        W 6927   8.366  38.227  14.968
40145W        W 6928  16.806   8.617  13.071
40146W        W 6929   7.552  34.834  14.331
40147W        W 6930  12.833  28.830  11.665
40148W        W 6931   4.701  44.518   1.803
40149W        W 6932  25.561  19.026   2.735
40150W        W 6933  37.033  23.476  13.502
40151W        W 6934  23.236  37.955  10.475
40152W        W 6935  28.058  44.745  11.431
40153W        W 6936  42.771  30.040  13.054
40154W        W 6937  30.601  12.905  13.843
40155W        W 6938  31.240  30.710   2.255
40156W        W 6939  40.547   0.796  12.398
40157W        W 6940   2.775   1.550   1.635
40158W        W 6941   1.412  23.215  14.203
40159W        W 6942   1.559  38.088  13.450
40160W        W 6943   1.372   8.277   4.094
40161W        W 6944  34.061  25.001  12.488
40162W        W 6945  28.503  19.004   3.267
40163W        W 6946  25.458  27.789   1.965
40164W        W 6947  15.755   2.251  12.487
40165W        W 6948  23.107  41.762   0.040
40166W        W 6949  25.714  42.424   2.624
40167W        W 6950  21.788   6.369   3.204
40168W        W 6951   3.665  28.683   1.791
40169W        W 6952  38.033  27.419  11.602
40170W        W 6953   8.717  23.233   1.225
40171W        W 6954  27.195  19.481  13.808
40172W        W 6955  15.874  34.610   0.811
40173W        W 6956  15.256  11.757   2.813
40174W        W 6957   9.111  32.961  13.461
40175W        W 6958  31.695  38.338  10.661
40176W        W 6959  38.534  41.103   0.798
40177W        W 6960  16.317  17.858   1.916
40178W        W 6961   2.229  10.418   3.643
40179W        W 6962  20.595  26.700  12.547
40180W        W 6963  42.942   3.401   3.430
40181W        W 6964  22.951  10.830   1.777
40182W        W 6965   5.244  33.166   0.776
40183W        W 6966   2.630  14.253  11.106
40184W        W 6967  27.574  33.677   0.417
40185W        W 6968  19.739   5.105  11.199
40186W        W 6969  24.908   7.393  14.498
40187W        W 6970  36.540  42.907  12.045
40188W        W 6971  36.090   5.797   5.221
40189W        W 6972  14.940   2.982   1.758
40190W        W 6973  36.191  30.175   2.310
40191W        W 6974   9.870  25.467   1.216
40192W        W 6975  44.554  23.098  13.430
40193W        W 6976  18.970  16.362  11.846
40194W        W 6977  35.319  16.284  13.308
40195W        W 6978  20.680   7.748   3.126
40196W        W 6979   8.109   4.180  13.251
40197W        W 6980  22.896  30.321  12.552
40198W        W 6981  17.806  18.105   2.659
40199W        W 6982  44.896  19.252   2.227
40200W        W 6983  31.851  38.643   1.862
40201W        W 6984  29.931  33.537  14.868
40202W        W 6985  20.959  14.511  14.730
40203W        W 6986  31.994  11.410   3.640
40204W        W 6987  33.897   4.291  13.809
40205W        W 6988  31.933  25.145  13.241
40206W        W 6989   2.760  36.155  14.102
40207W        W 6990  17.656  18.603   1.842
40208W        W 6991   8.608   9.165   2.538
40209W        W 6992  15.825   9.323   1.774
40210W        W 6993  37.807  17.439   3.177
40211W        W 6994  40.903   2.795   4.071
40212W        W 6995   5.973  11.474   0.231
40213W        W 6996  20.341  25.655   1.530
40214W        W 6997   9.724  15.831  11.665
40215W        W 6998  26.441  19.480   4.267
40216W        W 6999  17.729  17.613   3.510
40217W        W 7000  35.122  34.639  12.939
40218W        W 7001  12.687  26.420  13.269
40219W        W 7002   2.663  19.783   1.252
40220W        W 7003  28.957  15.357   0.818
40221W        W 7004  18.658   1.893  12.594
40222W        W 7005  16.903  36.951   3.615
40223W        W 7006  28.543  26.911  10.773
40224W        W 7007  19.131  38.897   0.272
40225W        W 7008  37.704   6.304  11.578
40226W        W 7009  19.815   2.886  12.009
40227W        W 7010  11.621   9.688   4.872
40228W        W 7011  44.435  13.597  12.080
40229W        W 7012   5.197   9.886   4.713
40230W        W 7013  18.793  10.652  12.684
40231W        W 7014  24.965  30.907  12.454
40232W        W 7015   1.690  41.074   0.819
40233W        W 7016   1.919  34.476  12.917
40234W        W 7017  40.981  31.073  13.095
40235W        W 7018  33.795  13.256  12.504
40236W        W 7019  36.225  11.434  14.314
40237W        W 7020  41.343  15.531  14.569
40238W        W 7021  13.658  17.999  11.593
40239W        W 7022  34.335  28.207   3.184
40240W        W 7023  32.548  13.119  12.676
40241W        W 7024  34.440  23.574  14.130
40242W        W 7025  25.209  34.418   3.029
40243W        W 7026  33.992  15.178   4.193
40244W        W 7027  38.247   3.238  13.827
40245W        W 7028  23.160  26.676   1.181
40246W        W 7029   0.220  31.293   2.707
40247W        W 7030   9.202  27.494  12.354
40248W        W 7031   4.414  39.475  13.982
40249W        W 7032  13.809  10.203   1.036
40250W        W 7033  14.605  16.679  12.670
40251W        W 7034  40.747  41.417   1.435
40252W        W 7035  10.145  22.750  12.537
40253W        W 7036  24.749   2.163   4.587
40254W        W 7037  11.728  42.133   3.584
40255W        W 7038  41.271  21.674   3.574
40256W        W 7039  11.290  11.751   2.120
40257W        W 7040  10.347  39.196   3.245
40258W        W 7041  31.657  23.657  13.483
40259W        W 7042  32.018  36.557   3.623
40260W        W 7043   9.441  19.679  10.686
40261W        W 7044  25.749  43.303   2.240
40262W        W 7045  15.659  35.594  14.745
40263W        W 7046   4.217  26.283   2.890
40264W        W 7047  13.171  24.876   1.660
40265W        W 7048   6.699   3.117   4.157
40266W        W 7049   4.310  40.118  14.528
40267W        W 7050   5.004  42.032   2.389
40268W        W 7051  19.943  14.900  12.873
40269W        W 7052   9.873  22.036  12.502
40270W        W 7053  35.555  19.818   1.747
40271W        W 7054  11.756  20.192   3.365
40272W        W 7055   0.436  37.318   3.662
40273W        W 7056   2.031  32.655   0.764
40274W        W 7057  21.064   1.850  11.774
40275W        W 7058  44.897  11.885  14.983
40276W        W 7059   4.952  20.210  11.598
40277W        W 7060   5.658  17.140  12.047
40278W        W 7061  38.807  29.610  13.459
40279W        W 7062  29.061  29.828   3.635
40280W        W 7063  33.007  31.086   2.078
40281W        W 7064  40.935   6.588   0.746
40282W        W 7065  29.179   0.340   3.183
40283W        W 7066  22.077  21.000  11.686
40284W        W 7067  37.609   6.206  12.985
40285W        W 7068   3.314   2.902   2.326
40286W        W 7069  28.615   6.488   2.463
40287W        W 7070  12.596  12.683  11.907
40288W        W 7071  27.471  43.631  13.063
40289W        W 7072  23.676  12.693  13.669
40290W        W 7073  12.859   5.604  13.388
40291W        W 7074  27.755  22.827  14.465
40292W        W 7075  37.745  33.939   4.680
40293W        W 7076  38.822  24.906   2.331
40294W        W 7077  19.096  27.437   1.408
40295W        W 7078   6.531   9.126  13.092
40296W        W 7079   4.448  44.330   0.811
40297W        W 7080  16.935   6.153  12.521
40298W        W 7081   3.636  17.133   3.853
40299W        W 7082  10.682  39.789  13.111
40300W        W 7083   7.808   4.287   3.697
40301W        W 7084  44.584  14.580   3.116
40302W        W 7085  13.075   4.528   3.695
40303W        W 7086   1.644   3.822   4.124
40304W        W 7087  35.524  36.097  11.629
40305W        W 7088  11.609   3.488  12.838
40306W        W 7089   7.082  22.790  13.520
40307W        W 7090  44.546  35.005   0.290
40308W        W 7091  19.400  22.082   3.493
40309W        W 7092  33.830  20.641   2.876
40310W        W 7093  23.709  41.665   3.595
40311W        W 7094  25.734  25.596  11.640
40312W        W 7095  25.731  13.182   4.085
40313W        W 7096  28.725   6.279  13.942
40314W        W 7097   5.056  18.513  11.534
40315W        W 7098  36.414  22.490  11.105
40316W        W 7099  44.451  43.545   0.214
40317W        W 7100  18.379  39.466   1.433
40318W        W 7101  35.293  35.508  10.773
40319W        W 7102  14.450  25.509   2.518
40320W        W 7103   8.542  42.854   1.339
40321W        W 7104  15.355   2.854   4.980
40322W        W 7105  44.426   3.836  11.037
40323W        W 7106  38.311  11.199   4.094
40324W        W 7107   4.395  20.276  12.456
40325W        W 7108   4.545  10.353   4.810
40326W        W 7109   0.705  17.697   1.635
40327W        W 7110   0.658  18.842   1.836
40328W        W 7111  19.368  28.578  13.140
40329W        W 7112  18.615   7.849  13.961
40330W        W 7113  11.349  11.164   1.271
40331W        W 7114  17.213   8.423   5.014
40332W        W 7115  27.282  22.131  14.946
40333W        W 7116  31.552  43.551  14.923
40334W        W 7117  36.962   3.425   3.241
40335W        W 7118   9.807  13.527   4.669
40336W        W 7119  12.852  15.715   3.413
40337W        W 7120   3.548  16.263   3.284
40338W        W 7121   4.410  39.428   0.852
40339W        W 7122  27.563  31.680  11.115
40340W        W 7123  24.781  24.864  11.216
40341W        W 7124  24.519  10.476   4.404
40342W        W 7125  21.697  17.655   4.761
40343W        W 7126  29.096  13.116   3.548
40344W        W 7127  38.014  44.438  12.472
40345W        W 7128  36.251  30.578  12.587
40346W        W 7129  27.230  26.323   5.273
40347W        W 7130  42.088  41.951   3.352
40348W        W 7131   4.711  19.472   4.062
40349W        W 7132   0.478  42.459  12.947
40350W        W 7133  24.539  22.931  13.207
40351W        W 7134  31.108   9.648   2.501
40352W        W 7135  17.697  22.001   4.158
40353W        W 7136  20.211  40.840   2.304
40354W        W 7137  30.719  20.064   2.662
40355W        W 7138   8.975  31.656  11.555
40356W        W 7139  20.555  25.962  13.821
40357W        W 7140  37.127  36.089   2.795
40358W        W 7141  20.784   2.575   2.820
40359W        W 7142  35.885  21.246   0.810
40360W        W 7143  29.040  30.557  11.783
40361W        W 7144  33.263  34.635  12.493
40362W        W 7145  18.169  38.076  11.213
40363W        W 7146  23.579  23.654   2.904
40364W        W 7147  38.776  36.882  13.357
40365W        W 7148  41.919   0.619  14.432
40366W        W 7149  14.815  27.369  12.616
40367W        W 7150  19.427  30.094  12.534
40368W        W 7151  44.958  13.336   4.249
40369W        W 7152  17.832   8.463  14.076
40370W        W 7153  44.371  40.799   0.299
40371W        W 7154   2.857  43.236   4.197
40372W        W 7155  12.086  15.710   3.330
40373W        W 7156  21.856  11.979  12.255
40374W        W 7157  30.948  34.995  10.462
40375W        W 7158   8.254  37.937   4.707
40376W        W 7159  12.032  18.037  13.569
40377W        W 7160   4.244  19.120  11.345
40378W        W 7161  34.675  22.604   1.866
40379W        W 7162   0.729  12.304   1.287
40380W        W 7163  16.661  30.519  10.487
40381W        W 7164  10.717  28.129   2.133
40382W        W 7165  33.175  29.744   2.740
40383W        W 7166   4.025   7.743   4.748
40384W        W 7167  32.039  11.889  11.056
40385W        W 7168  21.946   1.801  11.431
40386W        W 7169  41.121  15.085   1.297
40387W        W 7170  16.744  44.923   1.715
40388W        W 7171  38.003   3.685   3.586
40389W        W 7172   8.910  32.069  13.048
40390W        W 7173  25.627   3.891  14.907
40391W        W 7174  17.777  25.309   3.137
40392W        W 7175  41.069  35.341  13.920
40393W        W 7176  26.684   5.123  14.607
40394W        W 7177  31.453  10.090   4.181
40395W        W 7178  36.473  11.971   0.219
40396W        W 7179  15.972  31.996   2.335
40397W        W 7180   7.864   0.280   2.624
40398W        W 7181   6.319   8.093  13.769
40399W        W 7182   7.679  19.084  11.568
40400W        W 7183  39.589  18.777  12.784
40401W        W 7184  31.544  36.380  12.217
40402W        W 7185  26.668  35.380  11.581
40403W        W 7186  36.035  43.847   4.723
40404W        W 7187  29.595  30.104  13.843
40405W        W 7188  16.752  37.852   0.050
40406W        W 7189   4.860  27.196  14.541
40407W        W 7190  41.960  23.142   2.339
40408W        W 7191  22.263  44.730  10.340
40409W        W 7192  36.004   7.451   0.869
40410W        W 7193  36.967  34.113  12.435
40411W        W 7194  33.384  26.003  11.263
40412W        W 7195  34.046  31.997   1.929
40413W        W 7196   2.752   1.329   2.694
40414W        W 7197   3.827  20.960   0.677
40415W        W 7198  29.014  12.453  12.908
40416W        W 7199  12.791  21.593   2.267
40417W        W 7200   8.395  44.414  12.214
40418W        W 7201  18.255  26.460  14.747
40419W        W 7202  21.636  16.125  12.070
40420W        W 7203   4.759   2.400  13.846
40421W        W 7204  26.641  44.396   4.345
40422W        W 7205  39.752  35.583  14.501
40423W        W 7206   7.146  35.447   0.679
40424W        W 7207  28.833   0.466  10.762
40425W        W 7208  34.100  44.480  11.796
40426W        W 7209  12.799  16.181   0.043
40427W        W 7210  15.997  31.076   4.141
40428W        W 7211  21.402  43.811  11.279
40429W        W 7212   4.303   2.194  14.027
40430W        W 7213   2.735  41.630   5.077
40431W        W 7214  39.471  30.982  10.813
40432W        W 7215  27.954  24.663  14.362
40433W        W 7216   3.327  20.010  14.922
40434W        W 7217  29.042  29.045   2.223
40435W        W 7218  37.390  41.287   1.457
40436W        W 7219  42.971  30.046  14.101
40437W        W 7220  26.409  42.523  11.719
40438W        W 7221   6.632  31.062  14.896
40439W        W 7222  35.062  38.996  12.690
40440W        W 7223  20.774  20.076  11.596
40441W        W 7224  12.217  42.314  11.032
40442W        W 7225  44.616   5.810  13.198
40443W        W 7226   8.728  22.238  14.383
40444W        W 7227  20.748  39.913  14.385
40445W        W 7228  37.144   5.474  11.503
40446W        W 7229  13.731   1.822   4.656
40447W        W 7230  11.752  41.272  12.902
40448W        W 7231  26.879  16.697  14.916
40449W        W 7232  30.839   8.344   3.599
40450W        W 7233  44.919  11.751   0.494
40451W        W 7234  27.004   1.154   3.055
40452W        W 7235  12.617   1.863   2.433
40453W        W 7236  29.615  37.798  11.858
40454W        W 7237  27.004  41.396  11.348
40455W        W 7238   5.690   9.120  11.125
40456W        W 7239  33.873   0.721  12.478
40457W        W 7240  28.418  39.355  14.296
40458W        W 7241  34.502   9.852  12.894
40459W        W 7242  41.678  40.009  13.609
40460W        W 7243   7.985  22.505  14.355
40461W        W 7244  23.202  29.721   4.533
40462W        W 7245   7.941  16.088  12.544
40463W        W 7246  10.907  28.679  12.847
40464W        W 7247  14.154   4.703   3.186
40465W        W 7248  19.157  42.320  11.505
40466W        W 7249  32.485  19.441   4.577
40467W        W 7250   8.245  40.620  11.650
40468W        W 7251  11.215  26.181  11.481
40469W        W 7252  42.371  42.031   0.471
40470W        W 7253   5.184  29.006   3.266
40471W        W 7254   3.199  28.617  13.341
40472W        W 7255   0.656  19.548  11.570
40473W        W 7256  11.522   9.225  11.940
40474W        W 7257  39.408  29.314  11.933
40475W        W 7258  16.632   3.207  13.312
40476W        W 7259   0.201  30.782   1.316
40477W        W 7260  20.999  13.946   3.887
40478W        W 7261  30.513   1.918  13.751
40479W        W 7262   2.675  13.696  12.997
40480W        W 7263   6.799  12.374   4.719
40481W        W 7264  20.133  39.272  14.928
40482W        W 7265   3.906  13.327   0.760
40483W        W 7266  43.359  17.061   4.951
40484W        W 7267  37.655  22.156  13.023
40485W        W 7268   3.866  29.472   2.396
40486W        W 7269   2.879   8.068   4.016
40487W        W 7270  27.854  34.959  11.925
40488W        W 7271  17.213   0.396   3.602
40489W        W 7272  29.951   7.913   2.329
40490W        W 7273  32.054   9.926   2.329
40491W        W 7274  13.468  10.703   4.546
40492W        W 7275  40.068  18.125   2.461
40493W        W 7276  22.274  37.882   0.468
40494W        W 7277  43.789  11.298   4.600
40495W        W 7278  15.163  42.264   4.394
40496W        W 7279   4.310   7.132  11.950
40497W        W 7280  41.785  44.898  13.691
40498W        W 7281   2.329  33.562  14.712
40499W        W 7282   3.820   8.351   0.869
40500W        W 7283  23.557  25.802   2.225
40501W        W 7284  38.570  37.160   0.432
40502W        W 7285  42.797   8.153   0.879
40503W        W 7286  17.888   0.321  13.062
40504W        W 7287  29.192  34.484   1.348
40505W        W 7288  22.059  13.641   2.312
40506W        W 7289   9.260  38.565  12.114
40507W        W 7290  21.776  31.765  12.990
40508W        W 7291   5.666  32.094   4.671
40509W        W 7292   9.251   7.324  11.695
40510W        W 7293  41.291  29.836   0.385
40511W        W 7294  42.293  28.574   1.873
40512W        W 7295  32.158  39.284   2.087
40513W        W 7296   4.291  34.944   2.834
40514W        W 7297  42.450   4.628   3.623
40515W        W 7298  28.661  41.943  13.916
40516W        W 7299   0.586  17.100  10.961
40517W        W 7300  28.229  20.534  13.011
40518W        W 7301  44.343   0.484   2.944
40519W        W 7302  44.157  27.610   0.868
40520W        W 7303  11.807   3.968   2.834
40521W        W 7304   6.332  36.360  13.421
40522W        W 7305   2.413  16.892   4.124
40523W        W 7306   4.386  40.508   3.307
40524W        W 7307  44.523  38.316   0.274
40525W        W 7308  14.134   6.894   2.876
40526W        W 7309  13.330  14.185  11.589
40527W        W 7310  34.070   0.022  14.406
40528W        W 7311  33.457  41.626  11.484
40529W        W 7312  28.939  41.823   4.676
40530W        W 7313  14.581  43.762  13.881
40531W        W 7314  14.593  22.335  11.232
40532W        W 7315  16.644  29.530  12.594
40533W        W 7316  19.671  30.560   0.944
40534W        W 7317  21.576  38.667   3.573
40535W        W 7318  43.610   4.758   1.797
40536W        W 7319  35.271   4.452  12.829
40537W        W 7320   0.122  16.368  11.688
40538W        W 7321   0.830   4.210   3.353
40539W        W 7322   0.171  31.120   0.087
40540W        W 7323   2.348  18.620  10.759
40541W        W 7324  36.776   7.351  13.949
40542W        W 7325   4.617   0.675   4.126
40543W        W 7326  15.425  20.507   3.605
40544W        W 7327  24.528  22.449   1.448
40545W        W 7328  24.945  12.628  13.452
40546W        W 7329   6.853   5.208   3.110
40547W        W 7330  11.232   8.133  14.342
40548W        W 7331  21.022  15.712  13.870
40549W        W 7332   9.535  41.827   0.739
40550W        W 7333  30.157  35.253   1.983
40551W        W 7334   7.568  31.986   2.812
40552W        W 7335  21.679  37.042   1.301
40553W        W 7336  38.270  22.340  12.036
40554W        W 7337  30.785  27.380   2.892
40555W        W 7338  19.255  41.394  12.462
40556W        W 7339  33.058  29.783   3.766
40557W        W 7340  33.478  25.676   2.218
40558W        W 7341  17.219   4.291   2.402
40559W        W 7342  11.833  20.200  10.298
40560W        W 7343  25.938  37.465  10.667
40561W        W 7344   8.492  41.959  12.998
40562W        W 7345  20.489  42.708  11.225
40563W        W 7346  21.989  10.188  10.497
40564W        W 7347   9.784  25.256   2.162
40565W        W 7348  38.988  32.678   0.678
40566W        W 7349  15.370  13.215   3.156
40567W        W 7350  43.366  17.949  12.620
40568W        W 7351   2.456   4.702   0.765
40569W        W 7352  22.124  43.596  12.445
40570W        W 7353  40.900  29.468   3.647
40571W        W 7354  42.912   3.705  12.219
40572W        W 7355  40.001  35.891   3.163
40573W        W 7356  11.425  15.109   3.618
40574W        W 7357  12.105  21.685   3.629
40575W        W 7358  22.217   3.961   0.753
40576W        W 7359  37.334  32.312  14.901
40577W        W 7360  16.121  21.053  12.520
40578W        W 7361  24.159  30.628  12.209
40579W        W 7362   6.826  36.760   4.979
40580W        W 7363  22.563  12.818   2.696
40581W        W 7364  25.847  38.544   2.285
40582W        W 7365  39.570  39.998   4.121
40583W        W 7366  10.361  36.641   3.982
40584W        W 7367  42.236  33.210   4.221
40585W        W 7368  21.087   6.449   2.146
40586W        W 7369  37.871   5.908  12.051
40587W        W 7370  27.078  35.763  11.939
40588W        W 7371  18.991  22.362  14.312
40589W        W 7372   6.133  20.327  10.829
40590W        W 7373   2.482   3.319  11.125
40591W        W 7374  24.740  40.981   1.276
40592W        W 7375   9.835  30.534  10.676
40593W        W 7376  18.769  29.219   2.356
40594W        W 7377   8.603  35.447   0.913
40595W        W 7378  11.379  19.318   4.576
40596W        W 7379  33.091   0.394   1.808
40597W        W 7380   8.950  25.944   0.407
40598W        W 7381   1.369  11.875  11.433
40599W        W 7382  15.064  15.322  12.024
40600W        W 7383  18.384  33.423  12.109
40601W        W 7384  39.711  22.102   0.182
40602W        W 7385   7.661   5.072   0.686
40603W        W 7386  41.786   9.233  13.405
40604W        W 7387  16.796  21.796   1.453
40605W        W 7388   9.848  17.619  10.965
40606W        W 7389   6.269  16.525   3.826
40607W        W 7390  10.383  17.234  11.079
40608W        W 7391  23.995  23.014  14.318
40609W        W 7392   1.732  27.758   0.913
40610W        W 7393  43.813  26.229  13.490
40611W        W 7394  11.581  40.096  14.335
40612W        W 7395  13.569  23.779   0.984
40613W        W 7396  26.944  36.855   0.077
40614W        W 7397  37.205  36.684   2.380
40615W        W 7398  19.620  30.241   0.534
40616W        W 7399  35.998  22.486   2.910
40617W        W 7400  25.124  40.314  14.877
40618W        W 7401  30.876   1.324  12.937
40619W        W 7402  41.299  23.486  14.946
40620W        W 7403  25.949  17.074   3.999
40621W        W 7404  24.707  20.206  12.352
40622W        W 7405  17.271  43.278  11.575
40623W        W 7406  35.465  42.183  13.719
40624W        W 7407  41.476  16.032  12.794
40625W        W 7408   2.782  36.642  12.030
40626W        W 7409  41.603  41.508   0.445
40627W        W 7410  31.584   7.923  14.583
40628W        W 7411  32.637  15.792  11.957
40629W        W 7412   9.699  42.384   0.926
40630W        W 7413   6.184   1.423   2.306
40631W        W 7414  14.320  36.399  11.381
40632W        W 7415  23.080  44.423   0.171
40633W        W 7416  29.130  32.910   0.954
40634W        W 7417   3.533  41.110   3.668
40635W        W 7418  28.973  43.975  13.784
40636W        W 7419   5.796   2.940  13.431
40637W        W 7420  39.005  37.372   2.614
40638W        W 7421   0.590  30.951   2.675
40639W        W 7422  30.623   0.494  11.145
40640W        W 7423  40.197  33.036   0.019
40641W        W 7424   9.206  37.062  10.659
40642W        W 7425  13.697  39.235   4.178
40643W        W 7426  39.853   5.612   3.961
40644W        W 7427  11.819  25.614   2.816
40645W        W 7428   3.820  36.335   0.460
40646W        W 7429   5.205  41.067   1.437
40647W        W 7430   1.247   0.629   3.316
40648W        W 7431   3.412  26.644  12.161
40649W        W 7432  20.530  32.289   2.217
40650W        W 7433  20.898  35.671   0.843
40651W        W 7434  42.425  33.511  11.943
40652W        W 7435   8.905   7.324   0.413
40653W        W 7436  41.259  20.806  11.202
40654W        W 7437   4.664  34.472  13.559
40655W        W 7438   5.726  33.912  10.461
40656W        W 7439  38.053  33.547   4.442
40657W        W 7440   2.132  11.381   0.766
40658W        W 7441  14.052  30.163   4.654
40659W        W 7442  34.004  10.611  14.960
40660W        W 7443   4.913  14.880  10.825
40661W        W 7444  15.294  44.762  13.906
40662W        W 7445  40.572  23.160   3.121
40663W        W 7446  36.482  23.017   3.144
40664W        W 7447   1.316  29.535   0.021
40665W        W 7448   0.891  36.382   0.215
40666W        W 7449  20.794  13.892   4.566
40667W        W 7450  40.827  25.459   4.232
40668W        W 7451  37.535  17.101   2.300
40669W        W 7452  34.952   1.227   0.839
40670W        W 7453  13.366   1.503   0.328
40671W        W 7454  21.044  44.396  10.699
40672W        W 7455  21.779  10.207  13.443
40673W        W 7456  28.496  19.803   2.198
40674W        W 7457   7.209  17.056  14.698
40675W        W 7458  28.753  11.725   1.403
40676W        W 7459  42.359  38.098  14.934
40677W        W 7460  30.736  35.774   0.756
40678W        W 7461  17.292  41.856  10.602
40679W        W 7462  36.584  12.295   2.438
40680W        W 7463  22.608  15.833   2.319
40681W        W 7464  13.208   0.271  13.617
40682W        W 7465   6.789  30.902   4.486
40683W        W 7466  25.967  12.352   2.121
40684W        W 7467  41.436  42.783  13.403
40685W        W 7468  23.579   6.942  11.584
40686W        W 7469  21.667  26.685  10.751
40687W        W 7470   0.870  39.871   3.701
40688W        W 7471   3.894   0.356   1.418
40689W        W 7472   4.619  30.544  12.430
40690W        W 7473  37.809  31.649   0.419
40691W        W 7474   2.486  26.231   3.419
40692W        W 7475  25.043  24.158  13.919
40693W        W 7476   6.932   2.417  14.883
40694W        W 7477  29.953  28.575  13.534
40695W        W 7478  38.064  13.033   0.038
40696W        W 7479  42.410  42.808   0.608
40697W        W 7480   1.691   9.258   5.768
40698W        W 7481  37.434   3.739   0.222
40699W        W 7482   2.012  16.374  10.724
40700W        W 7483  22.974  24.889  10.775
40701W        W 7484  18.249  34.790   3.569
40702W        W 7485  20.088  32.933  12.599
40703W        W 7486  25.088   2.640  14.458
40704W        W 7487   2.510   5.329   0.235
40705W        W 7488   6.266   5.510  13.441
40706W        W 7489   5.885  21.922  12.295
40707W        W 7490  11.676   0.179  11.575
40708W        W 7491  35.149   1.161   4.064
40709W        W 7492  29.735  34.499  13.280
40710W        W 7493  34.041   7.914  12.433
40711W        W 7494   0.534   2.340  13.027
40712W        W 7495  19.135  26.660   2.325
40713W        W 7496  17.806  35.798  14.700
40714W        W 7497  26.716  19.066  11.598
40715W        W 7498  33.843  14.459  12.222
40716W        W 7499  30.988  39.370  12.673
40717W        W 7500  25.132   7.389  13.980
40718W        W 7501  25.215  37.948  11.684
40719W        W 7502  29.555  40.580  14.047
40720W        W 7503  28.475  28.779  12.473
40721W        W 7504  24.191  28.645  10.277
40722W        W 7505  15.034  44.213   4.053
40723W        W 7506  29.244   0.533   2.708
40724W        W 7507   8.632  42.973   0.391
40725W        W 7508   3.696  26.549   4.666
40726W        W 7509  22.723  14.191  11.533
40727W        W 7510  25.224   1.853   3.251
40728W        W 7511  27.681   1.707  10.735
40729W        W 7512  27.106  30.893  11.088
40730W        W 7513  31.132  35.639  12.875
40731W        W 7514  39.268  11.680  12.178
40732W        W 7515  22.120  40.053   4.491
40733W        W 7516  38.623  14.043   2.150
40734W        W 7517  19.771  39.935   1.052
40735W        W 7518  38.412  32.509   3.095
40736W        W 7519   9.903  12.834   2.311
40737W        W 7520   3.921  29.688   3.255
40738W        W 7521   7.320  23.727   0.672
40739W        W 7522  12.431  19.748  14.318
40740W        W 7523   6.818  24.260  14.231
40741W        W 7524  23.677  30.002  13.953
40742W        W 7525   3.976  15.757  13.155
40743W        W 7526   7.335  44.913   0.503
40744W        W 7527   4.702  18.735  12.883
40745W        W 7528   2.255  17.843   4.256
40746W        W 7529   6.911  42.765  14.876
40747W        W 7530  21.653  24.459   4.107
40748W        W 7531  33.081  11.854   1.289
40749W        W 7532   6.596  12.720   0.763
40750W        W 7533  25.446  30.012  12.530
40751W        W 7534  24.708   5.654   4.619
40752W        W 7535  39.126  13.988   1.998
40753W        W 7536  16.168  13.269   1.762
40754W        W 7537  22.780   3.173   1.422
40755W        W 7538  17.736  21.975  14.970
40756W        W 7539  36.742  41.929   0.228
40757W        W 7540  15.835  30.453   0.368
40758W        W 7541  41.574  35.353   2.639
40759W        W 7542  28.003  20.004   2.167
40760W        W 7543   3.946   2.231   1.456
40761W        W 7544  20.178  24.982  12.471
40762W        W 7545  20.723   2.325   5.321
40763W        W 7546  18.828  19.211   3.733
40764W        W 7547  35.242  38.093  13.616
40765W        W 7548   1.298  40.210  11.539
40766W        W 7549  44.226  41.104   1.350
40767W        W 7550  37.872  37.129   1.073
40768W        W 7551  23.630  20.741   3.620
40769W        W 7552  42.861  39.503   1.681
40770W        W 7553  24.411   4.004  12.206
40771W        W 7554  13.443  32.284   2.192
40772W        W 7555  30.586   8.456   1.866
40773W        W 7556  29.721  26.668  14.808
40774W        W 7557  27.610  44.387   0.229
40775W        W 7558  19.429  27.211   3.349
40776W        W 7559  17.257   0.772   4.232
40777W        W 7560   0.153  34.010   1.203
40778W        W 7561  38.940  41.847   3.254
40779W        W 7562  41.854  32.094  14.979
40780W        W 7563  22.219  29.780  10.924
40781W        W 7564   4.820   1.692   4.604
40782W        W 7565  15.622  37.528   1.199
40783W        W 7566  35.917   7.897  11.415
40784W        W 7567  27.408  13.545  12.539
40785W        W 7568  13.500  40.855   1.438
40786W        W 7569  13.622  27.750  14.300
40787W        W 7570  37.344  37.526   0.931
40788W        W 7571  13.385  14.227   0.369
40789W        W 7572  24.647  39.986   1.123
40790W        W 7573  32.873  20.433   3.948
40791W        W 7574  20.366  30.573   3.674
40792W        W 7575  42.449  15.056   0.416
40793W        W 7576  42.915  37.300   0.522
40794W        W 7577   9.365  41.753   1.233
40795W        W 7578  39.673  14.123  14.941
40796W        W 7579  34.888  42.893  10.921
40797W        W 7580  15.611  11.174   3.319
40798W        W 7581  19.290  30.493  10.842
40799W        W 7582  34.402  17.056   4.989
40800W        W 7583  20.203   8.693  13.816
40801W        W 7584  44.495  40.384   1.757
40802W        W 7585  33.291  25.810  11.726
40803W        W 7586   5.461  20.464   4.902
40804W        W 7587  13.756  17.729   3.070
40805W        W 7588  24.013   8.201  13.398
40806W        W 7589  36.750  30.897   0.256
40807W        W 7590  27.927  17.249  11.700
40808W        W 7591  37.525   0.534   2.533
40809W        W 7592  14.558  44.236  13.589
40810W        W 7593  24.509  27.526   0.927
40811W        W 7594  44.974  26.967  14.466
40812W        W 7595  33.669  20.398  13.803
40813W        W 7596  27.140   6.034   3.079
40814W        W 7597  20.970  29.381  11.211
40815W        W 7598  39.655  33.143   1.422
40816W        W 7599  42.629  15.327  12.892
40817W        W 7600  14.071   6.181   0.328
40818W        W 7601  25.195  12.566  14.773
40819W        W 7602   3.399  35.960   4.536
40820W        W 7603   1.460  12.833  12.941
40821W        W 7604  16.785   4.675  13.880
40822W        W 7605  15.820   0.725   0.927
40823W        W 7606  44.742   3.181   1.828
40824W        W 7607  28.998  17.341  13.526
40825W        W 7608  27.415  42.106  13.779
40826W        W 7609  43.833  23.154  13.014
40827W        W 7610   3.829  19.654   0.006
40828W        W 7611  44.876  38.294   2.416
40829W        W 7612  39.321  10.290  12.676
40830W        W 7613  21.649   6.705  13.385
40831W        W 7614  42.451  36.831   4.220
40832W        W 7615   4.805  41.743  11.368
40833W        W 7616  41.797   3.784   3.292
40834W        W 7617  15.208   7.381  10.899
40835W        W 7618  21.754  31.501  14.383
40836W        W 7619   4.389  17.069  10.502
40837W        W 7620  13.745  21.778   2.054
40838W        W 7621   1.867  35.487  12.523
40839W        W 7622  15.617   6.427   2.853
40840W        W 7623   8.733  44.595  13.958
40841W        W 7624  22.620   4.740   3.121
40842W        W 7625  39.324  13.814   4.971
40843W        W 7626   8.328  29.749  11.916
40844W        W 7627  23.577   7.983   4.311
40845W        W 7628  30.171   5.521  11.536
40846W        W 7629  10.094  22.907  11.147
40847W        W 7630  35.158  32.209   3.188
40848W        W 7631   0.680  19.592  12.365
40849W        W 7632  12.093  33.208  12.990
40850W        W 7633  28.493  18.633  13.320
40851W        W 7634  14.798   8.286  10.489
40852W        W 7635  36.124  25.670   4.312
40853W        W 7636  19.104  26.374   4.081
40854W        W 7637  20.140  32.091   0.276
40855W        W 7638  24.790   1.861   3.569
40856W        W 7639  15.839  20.169   5.123
40857W        W 7640  40.430  29.383  10.733
40858W        W 7641  13.614  44.303   4.078
40859W        W 7642   4.176  19.820   1.286
40860W        W 7643   4.498  12.098   3.650
40861W        W 7644  38.822  41.296  12.090
40862W        W 7645  23.982  26.971  13.083
40863W        W 7646  29.189  33.368  12.450
40864W        W 7647  32.009  38.915   3.344
40865W        W 7648  16.614  10.090  12.416
40866W        W 7649   4.992  32.493   0.397
40867W        W 7650  21.174  39.887   4.590
40868W        W 7651  25.406  33.915   0.598
40869W        W 7652  41.403  41.320   4.885
40870W        W 7653  11.317  27.929   1.936
40871W        W 7654  22.700  30.305   3.635
40872W        W 7655   6.376  11.786   0.026
40873W        W 7656  18.743  40.133  12.872
40874W        W 7657  41.436  10.177   2.639
40875W        W 7658  30.650  29.637  13.879
40876W        W 7659   5.358  31.670  14.952
40877W        W 7660  26.278  28.216   0.072
40878W        W 7661  11.645  34.125  10.687
40879W        W 7662   6.450  36.383   3.584
40880W        W 7663   6.547  28.334  10.977
40881W        W 7664  17.521  30.895   4.506
40882W        W 7665   9.460  37.212  13.422
40883W        W 7666   2.042  17.090  13.532
40884W        W 7667  31.950  32.839  13.313
40885W        W 7668  38.201  38.327   1.441
40886W        W 7669   8.692   9.520  11.139
40887W        W 7670  28.515   7.294  10.378
40888W        W 7671  38.766  41.327   2.701
40889W        W 7672  28.540   0.077   1.791
40890W        W 7673  28.804   8.213   3.258
40891W        W 7674  34.828  11.244   0.197
40892W        W 7675  26.031  16.697  14.400
40893W        W 7676  30.068  39.078  10.868
40894W        W 7677  10.058   3.977   1.835
40895W        W 7678  11.586  14.744   3.275
40896W        W 7679  24.929  16.918  11.210
40897W        W 7680  43.385  35.483  11.572
40898W        W 7681  36.382  25.776  10.837
40899W        W 7682  38.848  20.213   0.004
40900W        W 7683  20.483  44.403   4.126
40901W        W 7684   0.453  26.966   1.638
40902W        W 7685   9.858  19.978   3.081
40903W        W 7686  32.826  28.265   4.238
40904W        W 7687  43.026   4.796  11.102
40905W        W 7688  15.396  31.169   2.196
40906W        W 7689  34.508  38.065   4.074
40907W        W 7690  26.520  18.732   1.395
40908W        W 7691   3.433  31.879   4.284
40909W        W 7692  39.337   5.070   2.711
40910W        W 7693   3.189  39.069  11.180
40911W        W 7694  23.384  35.425  13.165
40912W        W 7695  38.524   3.680  13.643
40913W        W 7696  43.784   2.801  13.018
40914W        W 7697  16.589   1.747  10.731
40915W        W 7698  31.964  25.546   0.073
40916W        W 7699  44.922   4.850  12.384
40917W        W 7700  17.589  29.087   0.165
40918W        W 7701  24.149  26.657  12.675
40919W        W 7702  34.700  22.060   4.614
40920W        W 7703  12.676  38.059  11.645
40921W        W 7704   2.246  24.562  11.267
40922W        W 7705  43.194  39.086   3.704
40923W        W 7706  39.957  42.536   3.635
40924W        W 7707  27.566  26.381  10.209
40925W        W 7708   3.429  10.167  12.806
40926W        W 7709  23.056  16.840   1.411
40927W        W 7710  28.063  11.467   3.511
40928W        W 7711  42.953  27.843  10.735
40929W        W 7712  17.201  31.195   3.244
40930W        W 7713  35.870   1.866   4.872
40931W        W 7714  12.616  20.628   4.158
40932W        W 7715   8.028   2.852   3.350
40933W        W 7716  24.264  37.439   0.529
40934W        W 7717   2.396   4.266   2.268
40935W        W 7718  35.884   9.327  12.475
40936W        W 7719   3.462  22.558   1.199
40937W        W 7720   0.817  25.217   2.321
40938W        W 7721  44.753  41.916  11.257
40939W        W 7722  10.442  24.512  13.011
40940W        W 7723  21.087  41.716   0.334
40941W        W 7724  12.814  30.630   2.385
40942W        W 7725   9.433   0.454  13.914
40943W        W 7726  26.838  18.343   1.244
40944W        W 7727  37.378   3.660   2.331
40945W        W 7728  36.086   4.295   3.885
40946W        W 7729  41.399  41.521   4.406
40947W        W 7730   4.268  33.451  12.854
40948W        W 7731  20.090   4.424  13.921
40949W        W 7732  10.966  11.257   5.045
40950W        W 7733  34.026  37.866   1.395
40951W        W 7734  27.415  33.951  11.837
40952W        W 7735  41.157  17.836   4.580
40953W        W 7736  22.077  24.101  12.875
40954W        W 7737  28.036  12.181  11.629
40955W        W 7738  14.069  34.830  12.918
40956W        W 7739   4.930   4.738  13.640
40957W        W 7740  18.136  24.952   1.160
40958W        W 7741  11.077   1.279  11.286
40959W        W 7742   4.962   0.345   0.494
40960W        W 7743  20.364   3.713  13.456
40961W        W 7744  39.878  20.847   3.227
40962W        W 7745   7.851   3.499   2.168
40963W        W 7746  40.367   1.741   4.555
40964W        W 7747   7.159  31.086   2.652
40965W        W 7748  16.576  43.292   4.821
40966W        W 7749  17.674  43.221   4.039
40967W        W 7750  27.523  25.987  11.242
40968W        W 7751  28.032  23.514   3.617
40969W        W 7752  15.241  22.744  12.860
40970W        W 7753  30.467  17.122   3.791
40971W        W 7754  10.268  35.646  13.980
40972W        W 7755  23.103  42.947  11.961
40973W        W 7756   9.612  27.204   4.692
40974W        W 7757  41.194  29.077  12.974
40975W        W 7758   1.312  14.012   0.672
40976W        W 7759  11.314   7.801   3.124
40977W        W 7760  15.362  31.561   4.732
40978W        W 7761  32.800   5.909  10.388
40979W        W 7762  36.980  23.787   4.513
40980W        W 7763  39.781   4.383  12.860
40981W        W 7764  18.370  26.157  13.076
40982W        W 7765  37.389  15.858  10.553
40983W        W 7766  14.705  38.297   4.600
40984W        W 7767   4.231  33.253  11.173
40985W        W 7768  37.051  18.609   2.822
40986W        W 7769  23.474  11.211  12.052
40987W        W 7770  18.636  44.038   4.298
40988W        W 7771  22.642   6.705  11.586
40989W        W 7772  44.325  40.109  13.846
40990W        W 7773  28.838  43.260   4.202
40991W        W 7774  22.586   0.670   4.120
40992W        W 7775  34.255   3.910   4.987
40993W        W 7776   2.225  11.129   0.280
40994W        W 7777   6.386  42.054   3.573
40995W        W 7778  44.305  15.179   1.847
40996W        W 7779  27.422   7.753   4.013
40997W        W 7780  17.745  40.244   1.621
40998W        W 7781  19.100   3.285  14.015
40999W        W 7782  30.817   1.128   2.675
41000W        W 7783  31.537  29.837   2.353
41001W        W 7784  17.270  32.348  13.023
41002W        W 7785  34.299  31.889   4.254
41003W        W 7786  12.673  41.431   1.887
41004W        W 7787  33.125  11.682   0.017
41005W        W 7788  39.921   7.091   3.138
41006W        W 7789  21.219   5.392  14.899
41007W        W 7790  40.328  19.483  14.957
41008W        W 7791  25.234  12.860  13.800
41009W        W 7792   0.054  42.678   0.991
41010W        W 7793  13.546  16.044   1.295
41011W        W 7794  15.677   6.316  13.370
41012W        W 7795  26.936  20.183  11.973
41013W        W 7796   1.041  39.969   4.258
41014W        W 7797  20.786  39.572   3.776
41015W        W 7798  31.337  31.665   1.820
41016W        W 7799   3.777  14.246   0.975
41017W        W 7800  33.787  40.730  14.844
41018W        W 7801  16.709  35.636  12.847
41019W        W 7802  21.534  13.653   2.293
41020W        W 7803  22.612  20.641   1.919
41021W        W 7804  21.026   6.211  12.346
41022W        W 7805  17.167  41.947   3.371
41023W        W 7806  30.598  10.055  13.068
41024W        W 7807  30.859  39.598  13.583
41025W        W 7808  42.284  19.483   2.632
41026W        W 7809  30.141  12.840   2.766
41027W        W 7810   3.109  35.665   4.009
41028W        W 7811   9.270  39.642  12.929
41029W        W 7812  44.321   3.370   4.546
41030W        W 7813  33.739  13.792   2.811
41031W        W 7814  32.500  16.765  13.438
41032W        W 7815  19.946  39.294   1.771
41033W        W 7816  35.624  40.399   1.358
41034W        W 7817  17.191   7.647  12.189
41035W        W 7818  19.619  10.691  11.819
41036W        W 7819  30.582  24.101  11.150
41037W        W 7820  16.371  42.278   4.754
41038W        W 7821  31.505  39.853   0.448
41039W        W 7822  32.113  22.796   1.499
41040W        W 7823  34.861   1.428  12.959
41041W        W 7824  21.352   7.491   0.556
41042W        W 7825  40.355  18.123  14.425
41043W        W 7826  11.157  43.907  14.865
41044W        W 7827  25.543   5.412  10.686
41045W        W 7828  26.463  12.951   2.698
41046W        W 7829   5.630  24.085  14.277
41047W        W 7830   4.741   0.293  12.282
41048W        W 7831  32.787  13.205  13.527
41049W        W 7832  44.746  44.938   1.119
41050W        W 7833  20.177  32.946  10.720
41051W        W 7834   6.396  41.384   0.913
41052W        W 7835  39.124  36.531   2.377
41053W        W 7836  32.970  37.217   4.591
41054W        W 7837  27.373  26.158   2.259
41055W        W 7838  36.424  37.102  14.768
41056W        W 7839  13.156  32.515   0.060
41057W        W 7840   4.013  19.047   2.815
41058W        W 7841  28.205  19.035   2.178
41059W        W 7842  44.491   2.556  13.601
41060W        W 7843   6.525  44.085   3.731
41061W        W 7844  32.386  31.049   4.180
41062W        W 7845   5.096  33.125   5.127
41063W        W 7846  28.553  35.778   1.294
41064W        W 7847  29.335  15.184   1.328
41065W        W 7848  10.821  12.377  13.065
41066W        W 7849   1.784  24.978  12.960
41067W        W 7850   3.824   7.836   3.336
41068W        W 7851  34.790  15.520  13.290
41069W        W 7852  37.057   9.711   4.135
41070W        W 7853   7.927   9.621  12.355
41071W        W 7854  21.278  15.026  13.331
41072W        W 7855  17.972  36.026   2.371
41073W        W 7856  34.562  27.928   1.266
41074W        W 7857  25.212  34.835  11.151
41075W        W 7858  37.896  36.353  10.592
41076W        W 7859   8.650   0.745   2.101
41077W        W 7860  17.748  19.037  12.842
41078W        W 7861   0.889  38.781   3.809
41079W        W 7862   9.513  15.676  11.227
41080W        W 7863  42.008  42.479  11.663
41081W        W 7864  34.601  10.000   5.204
41082W        W 7865  14.780  22.740  13.404
41083W        W 7866  34.705  16.197   4.581
41084W        W 7867  31.877  44.938   4.747
41085W        W 7868  44.593  25.428   3.693
41086W        W 7869  29.531   5.436  10.802
41087W        W 7870  14.079   3.566   0.112
41088W        W 7871  29.758  42.692   3.727
41089W        W 7872  12.645   6.859  14.782
41090W        W 7873  23.311  17.762  12.988
41091W        W 7874  17.068  37.273  13.435
41092W        W 7875  42.599  40.655   1.800
41093W        W 7876  14.720  40.839  13.917
41094W        W 7877   9.743  39.060  10.549
41095W        W 7878  12.662  40.979  13.898
41096W        W 7879   2.942  13.340   0.609
41097W        W 7880  30.500  24.754   4.164
41098W        W 7881   9.201  23.928  14.378
41099W        W 7882  40.648  32.598  10.743
41100W        W 7883   3.772   8.391  12.008
41101W        W 7884   1.886   5.715   0.845
41102W        W 7885  37.019   8.991   1.379
41103W        W 7886  32.320  28.460   0.952
41104W        W 7887  41.077  35.604  11.603
41105W        W 7888  18.810  27.463  14.076
41106W        W 7889  40.566  15.847  11.795
41107W        W 7890  18.597  36.148   1.265
41108W        W 7891   8.027  30.539   0.039
41109W        W 7892  32.888  44.462   4.083
41110W        W 7893  20.787  26.889   5.126
41111W        W 7894  11.673  18.258   0.759
41112W        W 7895  18.733  24.436  13.527
41113W        W 7896   9.102   3.881  12.506
41114W        W 7897  10.417  27.659   0.183
41115W        W 7898  33.597  24.938  13.905
41116W        W 7899  39.590  34.158  13.100
41117W        W 7900   0.972  43.387  11.453
41118W        W 7901  24.975   3.858   0.759
41119W        W 7902  39.880  14.842   2.261
41120W        W 7903  28.200   3.032  12.572
41121W        W 7904  28.280   6.740   0.362
41122W        W 7905  33.531  39.255  13.423
41123W        W 7906  17.637  14.741   0.385
41124W        W 7907  32.879   4.030   1.293
41125W        W 7908  24.946  21.315   3.202
41126W        W 7909  17.050  33.136  14.513
41127W        W 7910   6.476  22.570  11.688
41128W        W 7911  32.429  35.287   0.279
41129W        W 7912  30.010  22.286  11.861
41130W        W 7913  15.176  31.392   3.065
41131W        W 7914  24.487  21.100  11.897
41132W        W 7915  15.794  20.024   1.487
41133W        W 7916  10.351  35.095  14.872
41134W        W 7917   0.462  32.979  11.723
41135W        W 7918  41.974  23.126  13.544
41136W        W 7919   7.942  33.127  13.589
41137W        W 7920  38.014  15.162  10.784
41138W        W 7921   2.994  37.474   4.877
41139W        W 7922  10.124  39.366  13.450
41140W        W 7923   3.268   9.390  11.478
41141W        W 7924  23.617  15.835  11.132
41142W        W 7925  19.488  19.122  11.201
41143W        W 7926  37.037  15.866   4.890
41144W        W 7927  38.814  42.645   4.977
41145W        W 7928  13.041  35.008   4.679
41146W        W 7929   0.189  32.390  13.445
41147W        W 7930  39.619  26.562  14.931
41148W        W 7931  33.172   8.012  13.100
41149W        W 7932   1.212  16.185  12.234
41150W        W 7933  31.033  44.544  12.473
41151W        W 7934   5.973  15.713  13.105
41152W        W 7935  33.722  42.612   2.431
41153W        W 7936  38.040  21.775   2.836
41154W        W 7937   5.817   3.319   3.311
41155W        W 7938  28.738   1.718  13.653
41156W        W 7939   1.966  20.491  14.282
41157W        W 7940  29.501  24.457   1.456
41158W        W 7941  13.394   8.233   1.400
41159W        W 7942  37.101   6.245  13.565
41160W        W 7943  21.537  12.118   0.828
41161W        W 7944  12.791  18.584  13.944
41162W        W 7945  36.517   6.996   2.725
41163W        W 7946  16.129  39.408  14.500
41164W        W 7947   7.908  35.341  12.035
41165W        W 7948   3.387  43.285  12.022
41166W        W 7949   0.203   8.279   3.177
41167W        W 7950  37.398  30.530   3.813
41168W        W 7951   8.647   8.205  14.330
41169W        W 7952  28.535  20.646  11.675
41170W        W 7953   1.067  28.564  10.603
41171W        W 7954   1.365  42.008   3.966
41172W        W 7955  39.500  15.690  14.826
41173W        W 7956  40.036  44.965   4.301
41174W        W 7957  36.927   3.743  11.955
41175W        W 7958  22.124  24.303  14.940
41176W        W 7959  22.246  10.624  12.923
41177W        W 7960   1.790   5.945   1.749
41178W        W 7961   6.063   4.975  11.008
41179W        W 7962   3.291   4.034  14.384
41180W        W 7963  43.789  40.936  14.024
41181W        W 7964  25.666  13.410  14.887
41182W        W 7965   3.747  23.466   3.713
41183W        W 7966  13.064  37.988  12.470
41184W        W 7967  17.226  28.579  10.454
41185W        W 7968  33.907  40.714   4.137
41186W        W 7969  23.590  19.934   2.275
41187W        W 7970   5.744  16.753   4.244
41188W        W 7971   0.516   8.897  10.208
41189W        W 7972  42.014   7.862   3.495
41190W        W 7973   1.162  18.267   3.722
41191W        W 7974  17.752  31.364  12.036
41192W        W 7975   4.810  22.606  10.619
41193W        W 7976  30.774   7.589   0.823
41194W        W 7977   8.667  26.534  13.227
41195W        W 7978  30.913  39.067  10.674
41196W        W 7979  43.461  32.737  11.737
41197W        W 7980  18.753  12.430   3.723
41198W        W 7981  12.179  19.782   4.130
41199W        W 7982  18.312  42.753   2.195
41200W        W 7983  37.914   8.402  13.344
41201W        W 7984  13.482  43.802   4.189
41202W        W 7985  11.062   7.316   4.185
41203W        W 7986   1.837   3.039   2.216
41204W        W 7987   0.823  21.461  14.723
41205W        W 7988   8.307  16.284  13.455
41206W        W 7989  14.381  34.888   0.674
41207W        W 7990  44.816   0.232  11.042
41208W        W 7991  26.615   0.360   3.418
41209W        W 7992  21.217  12.167   1.835
41210W        W 7993  11.714  43.392  12.206
41211W        W 7994  22.679  42.510  14.855
41212W        W 7995  37.419  18.051   1.142
41213W        W 7996  21.300  25.492  13.034
41214W        W 7997   1.965  22.758   3.231
41215W        W 7998   0.542  15.632  14.481
41216W        W 7999  40.026  39.818   1.254
41217W        W 8000   9.111  44.003   2.244
41218W        W 8001  23.041  43.739   0.902
41219W        W 8002  33.696  17.694   1.354
41220W        W 8003  42.015   8.654  13.009
41221W        W 8004   7.195  37.172   2.153
41222W        W 8005  33.849  11.835   0.841
41223W        W 8006  19.029   3.195   4.721
41224W        W 8007  32.207  14.700   5.159
41225W        W 8008  12.105   4.420   0.180
41226W        W 8009   9.946  22.070  14.737
41227W        W 8010  18.001  16.202   2.423
41228W        W 8011  30.584  33.570   3.846
41229W        W 8012  13.939  12.817  11.116
41230W        W 8013  33.522  33.973   2.782
41231W        W 8014   2.805  41.920  13.959
41232W        W 8015  16.680  44.998  11.746
41233W        W 8016  28.013  13.779  14.320
41234W        W 8017  17.394   5.276  14.490
41235W        W 8018  38.288  23.049   2.679
41236W        W 8019  32.884   6.761   9.787
41237W        W 8020   5.587  23.207   4.553
41238W        W 8021  34.402   0.427  11.723
41239W        W 8022  25.989  10.963  12.562
41240W        W 8023   6.505  17.356   3.709
41241W        W 8024  16.939   0.440  13.473
41242W        W 8025  38.089   7.825  11.548
41243W        W 8026   9.011  11.686   2.707
41244W        W 8027  29.826  32.900   3.566
41245W        W 8028  26.092  42.175   2.877
41246W        W 8029   0.536  19.837  14.481
41247W        W 8030  39.887  21.912  12.435
41248W        W 8031  16.790  11.693   4.535
41249W        W 8032   4.753  10.616   1.511
41250W        W 8033  44.227  27.866  13.996
41251W        W 8034  41.070  19.283   1.739
41252W        W 8035  24.415  42.944   1.923
41253W        W 8036   8.846  44.248   3.140
41254W        W 8037  36.646  16.248  13.295
41255W        W 8038  14.694   3.978   2.203
41256W        W 8039  39.888   8.546  11.878
41257W        W 8040  36.765  20.446  10.576
41258W        W 8041  43.332  43.233  13.053
41259W        W 8042  14.751  35.160   9.882
41260W        W 8043  42.854   5.631   2.396
41261W        W 8044  38.465  14.328  12.028
41262W        W 8045  25.727   6.718  12.991
41263W        W 8046   6.381  42.450   2.206
41264W        W 8047  22.206  28.087   0.126
41265W        W 8048  22.116  22.464   0.248
41266W        W 8049  16.718  33.075   3.416
41267W        W 8050  13.203  33.090   2.852
41268W        W 8051  23.748   1.697   3.630
41269W        W 8052  28.487  10.686   2.593
41270W        W 8053  20.479  37.331  12.113
41271W        W 8054   9.886   8.796   3.692
41272W        W 8055  19.720   0.143  13.123
41273W        W 8056  15.320  18.629   0.204
41274W        W 8057  26.371  32.134   2.180
41275W        W 8058  22.587  27.057   1.748
41276W        W 8059   6.711  31.795  14.138
41277W        W 8060  41.917  14.340  12.579
41278W        W 8061   7.396  13.673   4.491
41279W        W 8062  22.107  10.456  12.444
41280W        W 8063  43.182  22.666   3.648
41281W        W 8064  13.422  14.224  10.596
41282W        W 8065  38.277  42.873   0.346
41283W        W 8066   8.761  40.725   4.338
41284W        W 8067  21.096  31.198  11.547
41285W        W 8068  20.542  44.989  13.784
41286W        W 8069   8.685   3.855   0.636
41287W        W 8070  21.802  34.090  11.171
41288W        W 8071  23.752  44.446  13.823
41289W        W 8072  21.447  39.521   3.235
41290W        W 8073  44.372  31.126   4.701
41291W        W 8074  28.010  10.199   4.073
41292W        W 8075  41.080  37.828   3.183
41293W        W 8076  42.043  23.093  12.614
41294W        W 8077  32.978   7.629  13.414
41295W        W 8078  17.551  37.547  10.605
41296W        W 8079  21.475   9.415   1.261
41297W        W 8080   5.692  26.327  10.489
41298W        W 8081  35.934  22.612   1.188
41299W        W 8082   6.996  20.381   3.109
41300W        W 8083  27.423   7.398  12.600
41301W        W 8084  40.511  12.708   0.481
41302W        W 8085  26.507  39.457   2.792
41303W        W 8086   0.035  27.497   3.348
41304W        W 8087  32.157   6.397   2.457
41305W        W 8088  42.928   9.585  13.489
41306W        W 8089   3.245  19.585  12.446
41307W        W 8090  19.139   4.775   0.869
41308W        W 8091  21.451  13.730  12.952
41309W        W 8092  31.633  37.832   0.389
41310W        W 8093  11.752   0.837   2.765
41311W        W 8094   6.287   6.357  13.637
41312W        W 8095  28.734  27.052  12.604
41313W        W 8096  26.611  14.085  10.699
41314W        W 8097   2.362  16.593   0.267
41315W        W 8098   4.358  30.432  11.934
41316W        W 8099  29.494  20.135   3.299
41317W        W 8100  18.265  43.808  14.764
41318W        W 8101  39.474  35.532   2.167
41319W        W 8102   2.872  34.886   4.586
41320W        W 8103   1.974  37.334  11.400
41321W        W 8104   7.282  22.487  10.880
41322W        W 8105  44.761  10.256   2.096
41323W        W 8106  39.447  34.248   2.782
41324W        W 8107   7.638  44.277  10.571
41325W        W 8108  10.768  34.922  12.081
41326W        W 8109   2.631  42.768  14.994
41327W        W 8110  42.717  15.564   3.966
41328W        W 8111  15.604   9.272  12.896
41329W        W 8112  40.026   8.626   1.440
41330W        W 8113  37.101  42.065   1.168
41331W        W 8114  35.332  21.094   1.441
41332W        W 8115  29.610  32.012   0.223
41333W        W 8116  43.724  17.716   5.024
41334W        W 8117   0.432  21.265  13.508
41335W        W 8118  13.826  36.321  12.071
41336W        W 8119   2.366  42.388  14.718
41337W        W 8120  36.756  16.073   3.207
41338W        W 8121  27.200   9.426   1.785
41339W        W 8122  19.561  38.862  14.045
41340W        W 8123  11.099  16.496  12.842
41341W        W 8124  24.915  24.564   4.296
41342W        W 8125  37.531  42.376   3.453
41343W        W 8126  40.153  23.848   0.274
41344W        W 8127  36.902   6.630   2.790
41345W        W 8128  31.866   6.213  10.191
41346W        W 8129  10.872   6.200   9.609
41347W        W 8130  13.721   1.239  13.066
41348W        W 8131  43.648   3.790   3.024
41349W        W 8132  23.157  20.043   1.052
41350W        W 8133  15.149   0.691  13.878
41351W        W 8134   2.929  10.635   2.482
41352W        W 8135  12.904   8.014  14.337
41353W        W 8136   2.675  29.918  12.938
41354W        W 8137  25.976  43.935   0.007
41355W        W 8138   1.137   5.365   1.242
41356W        W 8139   4.401  32.017  14.848
41357W        W 8140  34.474  20.540   2.088
41358W        W 8141  12.059  25.489   0.018
41359W        W 8142  37.890  27.551   3.650
41360W        W 8143   5.401  24.799  14.995
41361W        W 8144  19.495  27.887  13.650
41362W        W 8145  29.362  10.625   3.570
41363W        W 8146  19.489  30.757   1.421
41364W        W 8147  19.962  21.745  10.987
41365W        W 8148  41.495   8.883   3.175
41366W        W 8149   7.401  22.477  12.330
41367W        W 8150  43.222  43.780   3.632
41368W        W 8151  34.668  39.070   0.038
41369W        W 8152  13.480  44.449  12.035
41370W        W 8153   8.855   1.238  10.763
41371W        W 8154   9.543  38.345   3.644
41372W        W 8155  14.897   2.336  12.411
41373W        W 8156  27.118  40.871   1.801
41374W        W 8157  37.906  16.642   1.174
41375W        W 8158  14.675  30.395  13.610
41376W        W 8159  18.658  22.265   4.017
41377W        W 8160  24.413  25.330   3.949
41378W        W 8161  35.872   8.031   5.402
41379W        W 8162  42.340  13.230   0.352
41380W        W 8163  11.695  19.691  11.996
41381W        W 8164  43.463   0.265   1.046
41382W        W 8165  35.743  22.620  13.063
41383W        W 8166  35.957  14.801  14.258
41384W        W 8167  28.078  44.524   1.337
41385W        W 8168  36.362  11.199  14.748
41386W        W 8169  11.362  18.657   3.333
41387W        W 8170  31.553  37.343   1.496
41388W        W 8171  33.835  13.397   1.301
41389W        W 8172  34.974  28.052  11.366
41390W        W 8173  28.459  43.778   2.647
41391W        W 8174  44.919  21.984  11.098
41392W        W 8175  27.029  30.643   0.291
41393W        W 8176  37.977  27.204  13.531
41394W        W 8177  14.907   0.358  11.076
41395W        W 8178  26.965  43.190   2.657
41396W        W 8179  29.014  33.665   2.153
41397W        W 8180  26.482  17.787   3.715
41398W        W 8181  29.432  32.046  10.969
41399W        W 8182  29.640  39.241  11.079
41400W        W 8183   2.378  32.470   0.027
41401W        W 8184   6.768  32.460  12.346
41402W        W 8185  43.636  20.809   3.638
41403W        W 8186   9.018  15.540  11.176
41404W        W 8187  41.316   9.411  13.525
41405W        W 8188  31.036  29.259  13.161
41406W        W 8189  33.598  15.377   4.588
41407W        W 8190   1.149  27.969   2.214
41408W        W 8191   3.414  19.195   0.325
41409W        W 8192   4.733   4.332   1.708
41410W        W 8193   5.918   4.551   4.674
41411W        W 8194   0.322   6.473   0.688
41412W        W 8195  40.746  32.002   4.241
41413W        W 8196  28.917  43.195  12.129
41414W        W 8197  26.148  26.305   5.003
41415W        W 8198  12.344  11.465  14.641
41416W        W 8199  22.368  33.887   2.179
41417W        W 8200   3.772  38.994   4.344
41418W        W 8201   2.176  25.625  14.410
41419W        W 8202  34.059   2.239  12.650
41420W        W 8203  41.550  39.098  14.021
41421W        W 8204  25.072   3.891  12.831
41422W        W 8205   5.438  17.037   2.806
41423W        W 8206   6.290   0.071  11.831
41424W        W 8207  20.774  43.044   2.324
41425W        W 8208  12.085  10.821   0.872
41426W        W 8209   2.436   7.693  10.976
41427W        W 8210   7.199   2.764  14.025
41428W        W 8211  22.497  17.257   3.183
41429W        W 8212  23.883  13.152  11.986
41430W        W 8213   3.571  11.355  12.230
41431W        W 8214  32.165  42.786   4.530
41432W        W 8215  16.305   7.796  12.163
41433W        W 8216  40.950  11.055  12.960
41434W        W 8217  37.613  24.934   0.362
41435W        W 8218  29.388  20.147   3.805
41436W        W 8219  37.634  26.940  11.107
41437W        W 8220  13.618  38.942  14.001
41438W        W 8221   2.266  19.578  13.312
41439W        W 8222  12.569   4.667   2.279
41440W        W 8223   3.898  18.285  14.881
41441W        W 8224  10.616  21.985   3.705
41442W        W 8225  11.393  11.716   3.709
41443W        W 8226  12.194   4.965  11.540
41444W        W 8227   7.731  20.343   2.606
41445W        W 8228  35.727  15.629  14.910
41446W        W 8229  30.700  25.003   1.421
41447W        W 8230  19.503  28.280  12.378
41448W        W 8231  44.605  15.179  14.463
41449W        W 8232  13.239  13.116   3.622
41450W        W 8233  30.467   6.421   0.859
41451W        W 8234  34.998  31.390  14.709
41452W        W 8235   3.966   2.669   2.783
41453W        W 8236  32.146  34.761   4.520
41454W        W 8237  28.708   6.646  13.003
41455W        W 8238   6.767  30.102  13.952
41456W        W 8239  32.701  26.965   9.761
41457W        W 8240   9.630  20.742  13.240
41458W        W 8241  32.660  10.594   4.424
41459W        W 8242  19.355   0.883   0.658
41460W        W 8243   5.326  36.143  11.934
41461W        W 8244  44.390   0.309  13.739
41462W        W 8245  10.749  43.956  10.903
41463W        W 8246  31.478  10.060  12.082
41464W        W 8247  36.037  15.867   4.621
41465W        W 8248  23.530  13.341  14.312
41466W        W 8249  21.565  35.507  12.827
41467W        W 8250  37.395  37.561   1.832
41468W        W 8251  37.135  20.281   4.671
41469W        W 8252  24.753   9.219  14.843
41470W        W 8253  27.698   2.837   0.065
41471W        W 8254  40.995  43.305  11.597
41472W        W 8255  21.525  34.214   4.542
41473W        W 8256  43.717  22.119   1.075
41474W        W 8257  24.447  44.879   1.335
41475W        W 8258   6.550  35.623   5.027
41476W        W 8259   5.251  17.619  13.930
41477W        W 8260  39.533  17.738   4.433
41478W        W 8261  32.506   1.466   4.089
41479W        W 8262   2.760  44.777   4.264
41480W        W 8263   4.673  15.633   3.158
41481W        W 8264  29.256   2.777   4.820
41482W        W 8265  10.790   0.049   4.244
41483W        W 8266  36.348  21.602  11.967
41484W        W 8267  14.208  15.698   3.085
41485W        W 8268  23.831   4.053   5.079
41486W        W 8269  29.411  31.014   3.116
41487W        W 8270  43.821   6.316   1.199
41488W        W 8271  32.096   4.560   2.361
41489W        W 8272  10.049  14.566   3.814
41490W        W 8273  19.140  32.770   1.858
41491W        W 8274   5.708  43.669  14.340
41492W        W 8275   0.476   6.962  11.971
41493W        W 8276  20.686  13.001  13.775
41494W        W 8277  13.530  42.503  12.945
41495W        W 8278  39.481   9.892  10.869
41496W        W 8279  44.485  20.578   2.371
41497W        W 8280  44.441  42.421  10.731
41498W        W 8281  26.511  41.359  11.182
41499W        W 8282   7.161  24.558  10.709
41500W        W 8283  39.522  40.718  13.038
41501W        W 8284  14.758  36.640  13.067
41502W        W 8285   7.662   7.924  10.469
41503W        W 8286   8.170  18.623   4.026
41504W        W 8287  39.984  25.636   2.055
41505W        W 8288  28.065  18.000   3.408
41506W        W 8289   4.936  13.578   4.080
41507W        W 8290  44.471  38.439   2.811
41508W        W 8291   2.495  31.032   3.030
41509W        W 8292   2.057  11.906   0.811
41510W        W 8293  29.425  27.505  12.234
41511W        W 8294  19.914  36.003  13.616
41512W        W 8295   1.920   3.858   3.676
41513W        W 8296  21.231  40.663  14.226
41514W        W 8297  10.928   9.169   1.324
41515W        W 8298  16.045  16.187   2.515
41516W        W 8299  39.512  16.296   2.182
41517W        W 8300   4.880   2.915  12.061
41518W        W 8301  14.757  35.817   3.773
41519W        W 8302   2.375  22.440   3.297
41520W        W 8303  35.437  10.365   3.669
41521W        W 8304  34.418  17.324  14.551
41522W        W 8305  39.041   3.580   2.672
41523W        W 8306  30.425  33.451  10.984
41524W        W 8307   8.684  31.512  12.021
41525W        W 8308  16.355  23.285   4.171
41526W        W 8309  43.730  42.188  12.993
41527W        W 8310  33.360  26.502  11.143
41528W        W 8311  16.481  30.318   1.678
41529W        W 8312  44.091   2.995  12.173
41530W        W 8313  12.603   2.684   3.645
41531W        W 8314  20.481  20.071  12.054
41532W        W 8315  16.560  33.574  14.394
41533W        W 8316  35.617  43.885  14.746
41534W        W 8317  14.018  33.759  13.615
41535W        W 8318   4.194   2.450   0.509
41536W        W 8319  26.052   1.534   2.266
41537W        W 8320  21.389  16.725   2.433
41538W        W 8321  16.915  26.618   2.699
41539W        W 8322  43.788  28.077  14.194
41540W        W 8323  35.306  37.287   2.060
41541W        W 8324  30.207  16.136  13.770
41542W        W 8325  13.693  16.744  12.602
41543W        W 8326   8.043  43.424   1.773
41544W        W 8327  30.278  40.875  13.433
41545W        W 8328  21.979   6.022   4.079
41546W        W 8329  17.351  44.369  10.546
41547W        W 8330  10.291  40.372  14.794
41548W        W 8331  15.863  31.491  12.396
41549W        W 8332   5.462  24.376   1.917
41550W        W 8333   1.717  18.772  13.873
41551W        W 8334  24.409   7.916  12.655
41552W        W 8335  12.808  24.649  11.542
41553W        W 8336  16.366  29.465   2.145
41554W        W 8337   7.368  11.847  13.998
41555W        W 8338   8.231  41.982  11.760
41556W        W 8339  32.179  11.246  12.945
41557W        W 8340  32.082  43.886  12.916
41558W        W 8341  24.671  14.537   0.728
41559W        W 8342  34.838  30.337   2.279
41560W        W 8343   7.808  27.602  12.369
41561W        W 8344   8.333  30.266  11.812
41562W        W 8345  28.142  14.994  11.223
41563W        W 8346   5.085  16.638   2.897
41564W        W 8347   1.326  31.702   1.399
41565W        W 8348  41.636   1.749   4.532
41566W        W 8349  13.249  37.433  11.821
41567W        W 8350  21.774  27.293  11.517
41568W        W 8351  37.087  31.039   3.940
41569W        W 8352  25.349  15.231  12.776
41570W        W 8353  19.118  15.495   2.817
41571W        W 8354  33.848  12.788  13.320
41572W        W 8355  44.758  41.862   3.222
41573W        W 8356   1.513   8.743   0.877
41574W        W 8357  29.476  19.237  14.369
41575W        W 8358  12.368  35.811   2.723
41576W        W 8359  12.988   5.299   0.276
41577W        W 8360  43.692  24.775   0.508
41578W        W 8361  35.782  39.222  10.628
41579W        W 8362   0.034  39.940  12.642
41580W        W 8363  19.546  43.508   1.614
41581W        W 8364  11.467  26.430   2.434
41582W        W 8365  24.577  42.496   1.002
41583W        W 8366  22.672  38.798   0.283
41584W        W 8367  40.298  25.220   2.083
41585W        W 8368  11.282  32.416  14.420
41586W        W 8369   8.611  23.908  12.084
41587W        W 8370  19.132  23.778  12.098
41588W        W 8371  20.668  24.961   4.161
41589W        W 8372   8.661   0.239   3.300
41590W        W 8373  14.846  10.161   1.637
41591W        W 8374  27.945  16.704   3.422
41592W        W 8375  29.986   9.774  10.706
41593W        W 8376  30.598  32.073   4.841
41594W        W 8377  23.750  26.875   3.840
41595W        W 8378   6.418  29.606   0.336
41596W        W 8379   4.855   7.258   1.670
41597W        W 8380  35.111  41.369  10.596
41598W        W 8381  38.329  13.295   0.470
41599W        W 8382  22.683  43.798   3.932
41600W        W 8383  35.809  19.958  11.627
41601W        W 8384  13.727  15.641   3.334
41602W        W 8385  42.830  22.081  10.559
41603W        W 8386  36.432  25.566   4.720
41604W        W 8387   0.773  24.263  13.853
41605W        W 8388   6.224  34.327  12.590
41606W        W 8389  24.598  12.536   4.251
41607W        W 8390   9.134   6.984  10.224
41608W        W 8391  35.897  13.151   0.494
41609W        W 8392  14.637  24.958   4.529
41610W        W 8393  24.062  15.964   3.219
41611W        W 8394   5.913  14.991   1.478
41612W        W 8395  10.716   5.015   4.811
41613W        W 8396  11.419  40.283   4.972
41614W        W 8397  15.671   6.091  11.670
41615W        W 8398  10.899  33.902  11.197
41616W        W 8399  42.410  11.213   4.171
41617W        W 8400  43.394  20.757  14.953
41618W        W 8401  36.457  23.851  10.740
41619W        W 8402  34.234  11.353   3.799
41620W        W 8403  28.679  28.877   0.385
41621W        W 8404   2.306   2.157  14.351
41622W        W 8405  42.894  21.577   0.073
41623W        W 8406   9.120  21.650  11.220
41624W        W 8407  13.608   2.807  11.714
41625W        W 8408  28.696  25.661  14.875
41626W        W 8409  20.756  10.846   4.805
41627W        W 8410  22.891   0.947   1.711
41628W        W 8411  26.418  42.901  14.961
41629W        W 8412  38.100  28.197   0.206
41630W        W 8413  32.707   9.710   1.499
41631W        W 8414  33.313  28.522  10.735
41632W        W 8415   7.174  34.809  14.715
41633W        W 8416  29.335  29.376  12.515
41634W        W 8417   0.213  15.409   3.376
41635W        W 8418   1.793  17.124   4.047
41636W        W 8419  12.753  23.540  10.757
41637W        W 8420  34.599  24.545   2.740
41638W        W 8421   6.728  35.578   3.071
41639W        W 8422  13.457  25.468  11.576
41640W        W 8423  20.619  17.016  13.907
41641W        W 8424   7.577   5.819   3.642
41642W        W 8425   1.325  21.250   0.942
41643W        W 8426  23.485  13.045  12.926
41644W        W 8427  15.106  37.571  13.856
41645W        W 8428  11.810  40.388  10.537
41646W        W 8429  14.272  28.107  13.000
41647W        W 8430  27.493  35.129   2.131
41648W        W 8431  15.122  40.826   5.758
41649W        W 8432   5.368  33.118  14.871
41650W        W 8433  18.556  22.094  14.446
41651W        W 8434   6.710   4.963   1.891
41652W        W 8435  44.896   4.556   1.585
41653W        W 8436   4.643  42.252  12.581
41654W        W 8437  35.920   5.750   3.251
41655W        W 8438  23.658  27.172   4.596
41656W        W 8439   9.472  38.386  11.699
41657W        W 8440  37.781  15.190  13.311
41658W        W 8441  13.310  10.712  12.497
41659W        W 8442  35.400  14.098  10.589
41660W        W 8443   7.888   1.467  10.409
41661W        W 8444  22.174  24.565   1.773
41662W        W 8445  27.878   9.909  13.590
41663W        W 8446  35.447  36.583  11.473
41664W        W 8447  44.550  33.060  13.324
41665W        W 8448   1.012   7.842  11.625
41666W        W 8449   6.348   6.512  11.671
41667W        W 8450  32.116  28.095  12.382
41668W        W 8451   3.078  18.288  10.727
41669W        W 8452  19.170  27.594  13.381
41670W        W 8453  38.808  40.915  12.422
41671W        W 8454  27.012  33.481  12.149
41672W        W 8455   4.473  34.485   1.966
41673W        W 8456  13.685  16.200  13.866
41674W        W 8457  35.859   2.086  12.960
41675W        W 8458  12.426  30.080   4.300
41676W        W 8459  27.719  41.724  13.991
41677W        W 8460  26.631  35.568  14.795
41678W        W 8461   9.735  17.003   4.119
41679W        W 8462  16.569  12.836   4.163
41680W        W 8463  30.889  15.610   0.979
41681W        W 8464  26.698  13.871  14.459
41682W        W 8465  19.191  11.712  12.582
41683W        W 8466  29.615   3.740  14.959
41684W        W 8467  18.189  11.248  11.723
41685W        W 8468  42.434   7.230  12.751
41686W        W 8469   6.763  37.618  11.150
41687W        W 8470   3.902  15.199  13.967
41688W        W 8471   6.395  18.783   3.681
41689W        W 8472  15.714  38.621   1.454
41690W        W 8473   1.388   1.929  12.978
41691W        W 8474  24.950  28.405   3.244
41692W        W 8475  23.164  29.721  11.699
41693W        W 8476   9.352  13.831   2.148
41694W        W 8477  18.568  30.472  11.580
41695W        W 8478  29.998  26.554   4.996
41696W        W 8479  21.450  31.956   2.219
41697W        W 8480  44.364   5.755   4.271
41698W        W 8481   2.008  20.541   3.246
41699W        W 8482  19.767   8.642  13.084
41700W        W 8483  24.796   2.355   1.073
41701W        W 8484  18.150   1.429   1.162
41702W        W 8485  27.781  18.202   5.374
41703W        W 8486  36.895  23.563  10.704
41704W        W 8487  43.962   6.174  11.111
41705W        W 8488  31.816   8.792   4.769
41706W        W 8489  43.968  20.413   3.588
41707W        W 8490  22.882  42.889   4.555
41708W        W 8491  24.640  39.413  10.182
41709W        W 8492  15.368  19.996   1.177
41710W        W 8493  41.945  30.334   2.459
41711W        W 8494  18.567  10.589  10.621
41712W        W 8495   5.307  12.123   3.238
41713W        W 8496  14.598  23.019   3.693
41714W        W 8497  42.503  23.220   2.285
41715W        W 8498   1.728   2.692  14.103
41716W        W 8499  37.379  12.224   1.576
41717W        W 8500  40.263  24.187   4.541
41718W        W 8501  27.941  24.573   1.145
41719W        W 8502  40.874   2.431  11.068
41720W        W 8503  40.281  40.325  10.732
41721W        W 8504  16.736   4.669   2.369
41722W        W 8505  18.158  38.350  10.777
41723W        W 8506  24.818  30.797  13.995
41724W        W 8507  27.960  43.342  13.519
41725W        W 8508  37.819  34.491   0.912
41726W        W 8509  28.339  34.372   0.710
41727W        W 8510   8.281  36.500  13.430
41728W        W 8511  31.384  40.473  10.761
41729W        W 8512  12.247  22.527  14.848
41730W        W 8513   3.189  39.996  11.099
41731W        W 8514  21.213  32.020  13.133
41732W        W 8515  24.854  20.323  11.838
41733W        W 8516  41.573  34.068  11.188
41734W        W 8517  30.848  32.996   2.620
41735W        W 8518  30.940  40.048  14.551
41736W        W 8519   3.460  31.574   3.837
41737W        W 8520  31.171  20.079   0.477
41738W        W 8521  19.711   4.880  14.895
41739W        W 8522   4.261  10.381   1.494
41740W        W 8523   8.762  31.264   2.575
41741W        W 8524  14.889  15.620  12.464
41742W        W 8525   1.960  42.894   2.544
41743W        W 8526   2.027  42.236  14.330
41744W        W 8527  32.634  44.010   4.152
41745W        W 8528   6.934  16.323   1.448
41746W        W 8529  38.983   8.800  14.543
41747W        W 8530   7.919  37.437  11.684
41748W        W 8531  24.149  27.280  10.664
41749W        W 8532   9.809   3.381  11.172
41750W        W 8533  23.960  38.844   3.733
41751W        W 8534  44.781   5.734  14.603
41752W        W 8535  15.412   0.323  12.245
41753W        W 8536  27.228  28.945  11.098
41754W        W 8537  30.593  14.131   0.482
41755W        W 8538  38.104  15.245  12.097
41756W        W 8539  13.186  10.211  12.415
41757W        W 8540  29.076  40.390  13.951
41758W        W 8541  30.449  36.499  14.135
41759W        W 8542  37.383   8.360   3.194
41760W        W 8543   7.208  25.077   2.722
41761W        W 8544  40.534  26.161  11.224
41762W        W 8545  13.234   7.671   0.623
41763W        W 8546  10.092  27.591   4.164
41764W        W 8547   3.411   0.749   1.257
41765W        W 8548  43.484   6.276  12.423
41766W        W 8549   1.770  40.450  10.677
41767W        W 8550  11.072  34.192  12.496
41768W        W 8551   2.042   8.811   0.815
41769W        W 8552  39.849   0.813   2.322
41770W        W 8553  37.229  35.370  12.684
41771W        W 8554  25.034  39.121  12.030
41772W        W 8555   0.711  42.191  11.017
41773W        W 8556  31.865  43.919   4.387
41774W        W 8557  16.735  39.810   3.677
41775W        W 8558  43.013  20.709  13.133
41776W        W 8559  19.320  24.610   1.642
41777W        W 8560  14.579  39.072  12.809
41778W        W 8561  42.723  33.647   0.216
41779W        W 8562  26.157  19.810   2.975
41780W        W 8563  17.678   0.214   3.134
41781W        W 8564  24.665  18.400  13.112
41782W        W 8565  10.282   9.214  14.866
41783W        W 8566  15.747  34.314   1.859
41784W        W 8567   7.600  35.575   3.187
41785W        W 8568  40.515  40.054   4.081
41786W        W 8569  36.945  36.888   4.668
41787W        W 8570  38.977  16.340  14.451
41788W        W 8571   4.856  38.097   2.249
41789W        W 8572  29.226  44.155   2.172
41790W        W 8573   7.125   4.678   1.799
41791W        W 8574  11.716  18.317  10.485
41792W        W 8575  42.365  44.434  11.598
41793W        W 8576  16.751   8.844   1.725
41794W        W 8577  25.420  30.381   4.132
41795W        W 8578  10.644  12.781   3.804
41796W        W 8579  34.547  24.734   4.263
41797W        W 8580   9.302  21.743   4.184
41798W        W 8581  13.990  13.120  12.597
41799W        W 8582  13.139   9.821  13.376
41800W        W 8583  10.346  44.158   4.479
41801W        W 8584  23.694  39.193  12.981
41802W        W 8585  16.379  31.544  12.459
41803W        W 8586   7.696  22.134  13.385
41804W        W 8587  35.967   7.701   3.133
41805W        W 8588  38.892  11.719   0.896
41806W        W 8589   2.468  28.490  11.887
41807W        W 8590  24.487  30.609   0.258
41808W        W 8591  32.663  39.971   2.751
41809W        W 8592  13.026   5.025  14.500
41810W        W 8593   7.323  22.676   4.009
41811W        W 8594  29.522  12.013   4.114
41812W        W 8595   5.694   9.631   1.229
41813W        W 8596  38.429  40.838  14.260
41814W        W 8597  32.552  27.553   4.415
41815W        W 8598  36.565  35.298  13.826
41816W        W 8599  15.530   4.655   4.084
41817W        W 8600  37.923  30.220   1.765
41818W        W 8601   1.336  33.937  14.054
41819W        W 8602   0.361  14.623   2.286
41820W        W 8603  37.743  37.847  11.759
41821W        W 8604  36.140   6.001  11.476
41822W        W 8605  41.896  35.019   1.229
41823W        W 8606  33.454   3.675  14.922
41824W        W 8607  15.836  13.814  11.979
41825W        W 8608  38.931   2.995  12.446
41826W        W 8609   4.490   7.722   4.443
41827W        W 8610  28.977  20.073   4.610
41828W        W 8611   7.787  14.036  12.523
41829W        W 8612  31.453  20.512   0.413
41830W        W 8613   7.557  41.950   4.543
41831W        W 8614  40.747  16.724   0.213
41832W        W 8615  32.344  28.146  11.915
41833W        W 8616   9.725  40.108  12.345
41834W        W 8617  29.216  29.105   4.439
41835W        W 8618  36.552  16.597   1.745
41836W        W 8619  17.710   0.849  10.956
41837W        W 8620   0.446  18.194  13.980
41838W        W 8621  44.304  26.331  13.321
41839W        W 8622  33.546  11.247  10.679
41840W        W 8623  30.698  28.235   1.818
41841W        W 8624  24.998  19.044   4.493
41842W        W 8625  32.060  21.767   3.694
41843W        W 8626  10.716  42.449  10.524
41844W        W 8627  11.339  36.463   4.029
41845W        W 8628  15.753  26.084  13.382
41846W        W 8629  29.364  27.935   2.947
41847W        W 8630  35.338   2.072  12.610
41848W        W 8631  33.436  11.086   2.418
41849W        W 8632   9.920  17.780   1.667
41850W        W 8633  35.192   7.422  11.205
41851W        W 8634  42.824  17.160   4.917
41852W        W 8635  11.301  18.622  13.562
41853W        W 8636   8.879  41.149  14.522
41854W        W 8637   4.028   8.242  12.568
41855W        W 8638  27.933  15.857  14.952
41856W        W 8639  23.652  10.222   3.315
41857W        W 8640  29.701   3.098   3.189
41858W        W 8641  17.569  44.711   1.365
41859W        W 8642  20.457  10.178   3.357
41860W        W 8643   7.864  29.445  11.839
41861W        W 8644   5.335  14.173  12.430
41862W        W 8645  35.721   8.995   4.985
41863W        W 8646   6.284  14.676   2.847
41864W        W 8647   6.905  21.777   4.820
41865W        W 8648   6.537  18.924  11.264
41866W        W 8649  39.788   1.465  13.533
41867W        W 8650  10.852  21.719  13.214
41868W        W 8651  23.061   5.932  14.178
41869W        W 8652  33.662   0.312  14.478
41870W        W 8653  19.672  18.248   1.932
41871W        W 8654  11.872  42.817   3.640
41872W        W 8655   0.556   8.732  14.413
41873W        W 8656  35.253   3.773  11.604
41874W        W 8657  35.083   0.839   2.576
41875W        W 8658  30.217   4.876  11.897
41876W        W 8659   2.383  19.228  13.954
41877W        W 8660   5.694  28.306  14.100
41878W        W 8661  23.259   9.888  10.798
41879W        W 8662  29.859  20.150   4.654
41880W        W 8663  19.692  16.623  13.467
41881W        W 8664  44.795  39.442   1.673
41882W        W 8665  34.348   8.524  14.167
41883W        W 8666  28.018  37.470   2.838
41884W        W 8667  24.911  27.308   5.395
41885W        W 8668  11.681  35.828  13.824
41886W        W 8669   3.361  33.863  10.717
41887W        W 8670  17.099  39.512   1.840
41888W        W 8671  27.640  24.525  14.775
41889W        W 8672  20.535   4.880   2.788
41890W        W 8673   5.513   2.515   4.028
41891W        W 8674  34.796  36.633   1.107
41892W        W 8675  22.204  35.931   0.824
41893W        W 8676  33.133  19.065   3.965
41894W        W 8677  44.715  11.413  14.891
41895W        W 8678  13.396  21.715  12.892
41896W        W 8679  26.411  28.511   0.919
41897W        W 8680  13.655  15.981  14.647
41898W        W 8681  19.127   5.753  13.969
41899W        W 8682   5.917  24.193   1.602
41900W        W 8683  39.409  41.047  10.722
41901W        W 8684  44.114  27.271   0.353
41902W        W 8685  42.899  22.246  12.773
41903W        W 8686  28.975  34.931   0.870
41904W        W 8687   1.886   8.398   4.124
41905W        W 8688   2.459  10.233   4.705
41906W        W 8689  41.100  28.606  12.035
41907W        W 8690  40.813  43.941   2.661
41908W        W 8691  28.637   2.118  11.179
41909W        W 8692  16.960  33.118  13.999
41910W        W 8693  32.384  16.971   1.430
41911W        W 8694  35.277  18.019  14.837
41912W        W 8695  22.777   0.441  13.450
41913W        W 8696  38.513  11.085   0.330
41914W        W 8697  14.131  37.500  14.897
41915W        W 8698   6.809  36.368  14.586
41916W        W 8699  17.622   2.378  10.673
41917W        W 8700  39.356  44.735   4.324
41918W        W 8701  35.105  25.573   4.474
41919W        W 8702  34.425  39.561  11.625
41920W        W 8703  18.214   5.113  12.981
41921W        W 8704  17.740   0.543  13.519
41922W        W 8705  23.668  13.088   4.147
41923W        W 8706  13.695   2.303  14.963
41924W        W 8707  10.730  43.662   3.740
41925W        W 8708   6.399   0.258   1.912
41926W        W 8709  31.900  27.116  13.088
41927W        W 8710  26.084   7.813  10.713
41928W        W 8711  12.048  39.869  14.440
41929W        W 8712  37.766  36.589  13.779
41930W        W 8713  36.514   3.334  11.209
41931W        W 8714  32.200  41.483   4.037
41932W        W 8715   3.752  19.029  11.130
41933W        W 8716   7.783  42.698  13.463
41934W        W 8717  43.119  19.109   1.715
41935W        W 8718  19.220   5.647   0.333
41936W        W 8719  12.165  33.998  13.371
41937W        W 8720  38.461  20.488   1.760
41938W        W 8721  29.950  21.226  14.836
41939W        W 8722  19.553  22.688  14.725
41940W        W 8723  22.591  39.122   3.811
41941W        W 8724  26.259  32.312  13.096
41942W        W 8725   6.898  13.873   4.574
41943W        W 8726  30.274  35.941   0.955
41944W        W 8727  31.505   5.493  11.859
41945W        W 8728  28.043  37.058  13.386
41946W        W 8729  38.460  22.108  12.557
41947W        W 8730  18.622  23.554  10.905
41948W        W 8731  17.361  30.707   0.418
41949W        W 8732   7.855  20.249   4.487
41950W        W 8733  33.091  38.782   2.139
41951W        W 8734  15.981   9.352  11.055
41952W        W 8735   9.448  14.270   3.045
41953W        W 8736  15.591   6.481  11.995
41954W        W 8737  13.637  40.985  12.926
41955W        W 8738   0.912   3.915  12.649
41956W        W 8739  14.346   6.298   0.761
41957W        W 8740  22.499  13.747   3.285
41958W        W 8741  21.306  26.088   4.635
41959W        W 8742   3.282  16.650  11.246
41960W        W 8743  43.946  19.647   0.282
41961W        W 8744  37.632  15.186   2.396
41962W        W 8745  42.824   1.713   1.374
41963W        W 8746  27.101  33.117  13.875
41964W        W 8747  32.774   7.427   3.802
41965W        W 8748  33.603  18.683   0.191
41966W        W 8749  29.058   2.517  14.567
41967W        W 8750   4.199  34.295   4.722
41968W        W 8751  43.670  25.761  10.974
41969W        W 8752  28.980   5.337   4.047
41970W        W 8753   1.830  18.289   1.465
41971W        W 8754  28.153   0.282   4.867
41972W        W 8755  10.266  30.508   4.441
41973W        W 8756   1.916  36.485   2.638
41974W        W 8757  27.204  28.186  14.962
41975W        W 8758  16.212  14.694   0.740
41976W        W 8759   2.277   7.522   1.382
41977W        W 8760  25.717   7.404  14.837
41978W        W 8761  22.381  34.301  14.938
41979W        W 8762  22.195  25.413  11.778
41980W        W 8763  30.726  10.191  13.559
41981W        W 8764  35.737  16.140  11.674
41982W        W 8765  13.678  27.596   3.953
41983W        W 8766  38.944  23.640  11.682
41984W        W 8767   8.402   4.821  13.033
41985W        W 8768   6.923  21.365  11.637
41986W        W 8769  19.169  31.013  12.910
41987W        W 8770  24.480  10.676  13.904
41988W        W 8771  43.744  17.916   0.258
41989W        W 8772  29.657  23.896   0.274
41990W        W 8773   3.334  31.309   2.217
41991W        W 8774  30.742  33.435  10.576
41992W        W 8775  33.678  10.886   2.816
41993W        W 8776  26.741  13.013   2.283
41994W        W 8777   7.714  26.461  13.562
41995W        W 8778   4.535  20.630  14.403
41996W        W 8779  30.254  24.650   2.260
41997W        W 8780  15.813  16.396   3.292
41998W        W 8781  17.251   6.751   2.228
41999W        W 8782   0.396  11.255   2.849
42000W        W 8783   0.046  20.592   0.318
42001W        W 8784  28.504  20.592  14.054
42002W        W 8785  10.299  42.803   1.707
42003W        W 8786  31.461   8.905  11.507
42004W        W 8787  32.218  24.220  14.747
42005W        W 8788   4.307   3.222   2.321
42006W        W 8789  43.286  34.482  13.033
42007W        W 8790  26.603  42.274   3.670
42008W        W 8791  17.245  27.414   4.621
42009W        W 8792  10.737   3.697  12.940
42010W        W 8793  28.133   6.305   0.754
42011W        W 8794  21.595  18.703  12.948
42012W        W 8795  12.033  37.116  12.783
42013W        W 8796  20.686  27.047   3.567
42014W        W 8797  37.070  10.881   4.192
42015W        W 8798  13.283   9.391   0.945
42016W        W 8799  27.980   7.762   0.755
42017W        W 8800  41.292  17.110  11.160
42018W        W 8801  28.987   2.404  12.700
42019W        W 8802  40.915   7.324  10.664
42020W        W 8803  25.512  13.831  14.584
42021W        W 8804  25.931  25.259  13.602
42022W        W 8805   7.305  16.309   4.084
42023W        W 8806  24.114  34.944   0.167
42024W        W 8807  15.772  23.636  13.752
42025W        W 8808   3.845   8.127   0.287
42026W        W 8809   1.449  37.551  12.085
42027W        W 8810  30.168  10.260   3.755
42028W        W 8811  38.555  33.583   0.741
42029W        W 8812  44.241  15.261   3.590
42030W        W 8813  34.261  12.349  11.659
42031W        W 8814   6.165  28.998  10.745
42032W        W 8815  38.463   9.599  13.102
42033W        W 8816  37.576  23.630   2.709
42034W        W 8817   2.721  43.585  11.219
42035W        W 8818  25.451  22.654  13.308
42036W        W 8819  15.844  14.698  12.864
42037W        W 8820  41.006  11.314   4.454
42038W        W 8821  15.881   5.796   2.527
42039W        W 8822  21.182  21.612  13.495
42040W        W 8823  38.935   6.444  12.262
42041W        W 8824  29.768  25.071   1.719
42042W        W 8825  11.615  13.093   2.680
42043W        W 8826  28.812  35.419  13.620
42044W        W 8827  33.854  10.630  12.675
42045W        W 8828  40.866  23.700  13.010
42046W        W 8829  29.925  42.708  11.467
42047W        W 8830  43.257  29.109   3.442
42048W        W 8831   4.566  22.998   4.540
42049W        W 8832  30.685  25.969   2.760
42050W        W 8833  33.878   3.674   2.922
42051W        W 8834  43.503   3.366  14.903
42052W        W 8835  14.686  13.825  11.543
42053W        W 8836   2.768  22.359  13.589
42054W        W 8837  37.078  12.329   0.904
42055W        W 8838  41.260   6.700  13.891
42056W        W 8839  22.710  34.995   3.637
42057W        W 8840  15.070   6.216   1.635
42058W        W 8841   2.612  22.265  11.152
42059W        W 8842  18.202   2.971   0.416
42060W        W 8843  17.403  33.807  12.912
42061W        W 8844  15.113  33.935   2.427
42062W        W 8845  37.623  21.735   3.203
42063W        W 8846  40.410  23.533   4.045
42064W        W 8847   9.402  27.953  13.997
42065W        W 8848  18.667  14.592   0.310
42066W        W 8849  24.637   0.359   1.272
42067W        W 8850   1.762  13.189   3.936
42068W        W 8851  25.809  21.057  11.209
42069W        W 8852  36.055  30.207   4.011
42070W        W 8853  36.557  29.869   2.125
42071W        W 8854  10.284  33.879   1.778
42072W        W 8855  37.355  25.402   0.351
42073W        W 8856   4.067   3.394   3.426
42074W        W 8857   7.164  24.576   0.559
42075W        W 8858  21.753  28.076  12.159
42076W        W 8859   4.916   9.433  10.471
42077W        W 8860   6.385  40.159  11.650
42078W        W 8861  15.057  24.274   2.766
42079W        W 8862  23.771   8.088  14.702
42080W        W 8863  33.776  43.976  10.532
42081W        W 8864  35.863   2.511   4.143
42082W        W 8865  11.762  16.820   3.959
42083W        W 8866  18.027  35.681  12.027
42084W        W 8867  40.451  19.637   4.635
42085W        W 8868  44.239  15.895   1.294
42086W        W 8869   5.904  12.529  12.995
42087W        W 8870   5.256  22.313  11.904
42088W        W 8871  44.493  39.843   1.790
42089W        W 8872  34.466  31.055   3.110
42090W        W 8873  33.283  31.930   4.178
42091W        W 8874   5.936  34.435  14.867
42092W        W 8875  10.216  26.683   1.155
42093W        W 8876   7.394  12.599   3.304
42094W        W 8877  29.700  21.723   0.747
42095W        W 8878  18.660  15.761  11.172
42096W        W 8879  13.874  28.074   3.159
42097W        W 8880  28.685  27.476   3.329
42098W        W 8881  21.881  15.887   9.790
42099W        W 8882  30.440  21.140  10.461
42100W        W 8883  17.742  14.252  13.886
42101W        W 8884  39.122   3.507   2.178
42102W        W 8885   6.614   8.763   0.324
42103W        W 8886  21.475   0.425   2.782
42104W        W 8887  18.976  36.981  13.937
42105W        W 8888  28.808  33.147  14.338
42106W        W 8889  16.564  42.679  12.702
42107W        W 8890  37.473  31.044  10.749
42108W        W 8891  36.083   9.917   1.929
42109W        W 8892  22.270  18.580   3.722
42110W        W 8893   9.861  39.447   4.114
42111W        W 8894  26.995  10.559   1.201
42112W        W 8895  10.566  40.539   0.254
42113W        W 8896  31.914   0.400   4.546
42114W        W 8897   9.844  33.001  11.668
42115W        W 8898  16.639   0.169   3.588
42116W        W 8899  37.849  26.125   3.027
42117W        W 8900  34.958  35.582   2.899
42118W        W 8901  16.988   1.732  13.086
42119W        W 8902  15.556  20.467   1.356
42120W        W 8903  41.975  23.652  10.796
42121W        W 8904   8.220  42.398  13.233
42122W        W 8905  43.018  29.491  10.945
42123W        W 8906   7.811  34.159   3.744
42124W        W 8907   6.619  43.874  13.097
42125W        W 8908  43.913   8.677  14.953
42126W        W 8909  18.437   7.230  14.761
42127W        W 8910  36.020   5.187   0.266
42128W        W 8911  44.917  39.439  14.783
42129W        W 8912  19.519   5.838   3.246
42130W        W 8913   1.670  15.061  13.464
42131W        W 8914  30.493  16.769  14.877
42132W        W 8915  44.024   1.281  12.551
42133W        W 8916  27.825   1.745   2.361
42134W        W 8917   9.183  36.246   3.220
42135W        W 8918  35.027  19.510  12.111
42136W        W 8919   3.777  41.962  14.148
42137W        W 8920  22.505  20.524  13.902
42138W        W 8921   6.786  37.383  14.304
42139W        W 8922   6.944  17.509  11.192
42140W        W 8923  38.968  10.381   1.800
42141W        W 8924  40.303  29.999  11.234
42142W        W 8925  18.188  34.853  13.922
42143W        W 8926  20.521   9.476  11.258
42144W        W 8927  27.753  26.627   4.190
42145W        W 8928   9.459   7.670  14.413
42146W        W 8929  11.953  44.281   1.358
42147W        W 8930  40.420  26.960   2.567
42148W        W 8931   8.791   8.291   5.098
42149W        W 8932  18.492  44.241   3.306
42150W        W 8933  27.300   9.451   4.324
42151W        W 8934  16.714  16.670   3.985
42152W        W 8935  14.634  15.882   3.350
42153W        W 8936  39.160  24.990   1.860
42154W        W 8937  34.681  24.093  10.708
42155W        W 8938  20.814  37.893  13.573
42156W        W 8939  19.685  34.175   4.675
42157W        W 8940  20.939  15.370   0.207
42158W        W 8941   0.269  18.072   1.381
42159W        W 8942  44.338  18.576  13.076
42160W        W 8943  35.693   0.686   1.739
42161W        W 8944  20.073   4.306   0.878
42162W        W 8945  29.056  23.678  13.097
42163W        W 8946  19.233  13.197  12.325
42164W        W 8947  40.441  40.093   1.365
42165W        W 8948  32.475  39.549   0.923
42166W        W 8949  26.881  32.484   4.266
42167W        W 8950  41.097  34.479   0.205
42168W        W 8951  10.207   6.246   4.589
42169W        W 8952   5.842  10.326   2.226
42170W        W 8953  27.994  26.109   0.456
42171W        W 8954  33.812  36.408   0.931
42172W        W 8955   6.678  40.431   2.760
42173W        W 8956  23.647  30.417   0.278
42174W        W 8957   7.893  42.778   9.854
42175W        W 8958  41.056  31.163   3.062
42176W        W 8959  38.103  24.523   2.657
42177W        W 8960  39.794  43.955  14.332
42178W        W 8961  18.314  17.009   4.167
42179W        W 8962  19.724   5.824  14.446
42180W        W 8963  19.383   6.115   4.113
42181W        W 8964  22.815  41.398   3.155
42182W        W 8965  26.192  24.085   2.724
42183W        W 8966  39.113  23.612  11.150
42184W        W 8967  27.723   2.897   3.813
42185W        W 8968   3.407  15.172   1.702
42186W        W 8969  38.303  43.017  10.074
42187W        W 8970  34.711  36.785   4.208
42188W        W 8971  25.391  39.312   5.062
42189W        W 8972   0.395  29.033  10.722
42190W        W 8973  21.138  41.945   4.966
42191W        W 8974  29.665  13.789  13.085
42192W        W 8975  15.020  20.028  14.700
42193W        W 8976  26.612  40.526   2.254
42194W        W 8977  19.792  27.389   0.739
42195W        W 8978  38.280   6.672   1.368
42196W        W 8979  35.196  39.645   0.773
42197W        W 8980  13.296  30.887  13.463
42198W        W 8981   3.710   1.839   1.186
42199W        W 8982  32.091   5.006  12.049
42200W        W 8983   2.766  39.993  13.991
42201W        W 8984  23.245  11.242   1.619
42202W        W 8985  11.737   0.278   4.785
42203W        W 8986  20.546  39.020  13.314
42204W        W 8987   7.893   4.000   1.313
42205W        W 8988  10.834  16.888  10.045
42206W        W 8989  19.711  40.892   2.338
42207W        W 8990  38.584   0.516   4.288
42208W        W 8991  37.182  40.525  11.493
42209W        W 8992   7.591  21.995   3.477
42210W        W 8993  22.031  37.045  14.042
42211W        W 8994  14.010  19.080  11.589
42212W        W 8995  22.313  27.733   1.349
42213W        W 8996  10.935   6.460   0.979
42214W        W 8997  11.638  30.492  12.129
42215W        W 8998   6.303   7.003   2.757
42216W        W 8999  21.208   1.408  10.475
42217W        W 9000   9.603  22.203  12.951
42218W        W 9001  10.808   4.194  13.068
42219W        W 9002  39.987  31.086   2.286
42220W        W 9003  11.463  40.844  13.072
42221W        W 9004  12.382  12.970   1.467
42222W        W 9005  27.971  44.435  12.202
42223W        W 9006   1.292  14.353  12.498
42224W        W 9007  12.423  26.156  11.153
42225W        W 9008   0.015  44.237  12.331
42226W        W 9009  28.027   6.860   0.784
42227W        W 9010  14.793  13.651  14.016
42228W        W 9011  39.108  23.901   4.387
42229W        W 9012   3.210   2.335  12.020
42230W        W 9013  30.859  14.777  12.408
42231W        W 9014   4.318  42.879   3.375
42232W        W 9015  27.313  27.820  13.959
42233W        W 9016  39.494  23.989  13.125
42234W        W 9017  12.506  38.121   4.080
42235W        W 9018  24.818  32.858  13.577
42236W        W 9019  22.226  41.092  10.793
42237W        W 9020   7.175   3.859  14.624
42238W        W 9021  14.078  26.595  10.640
42239W        W 9022  42.029  40.089   0.734
42240W        W 9023  33.825  30.124  13.090
42241W        W 9024   8.271  12.077   3.946
42242W        W 9025  43.809  29.070   4.123
42243W        W 9026  20.179  16.633  12.461
42244W        W 9027   5.475  37.834  12.265
42245W        W 9028  23.645  40.294  12.506
42246W        W 9029  10.531  28.472   3.542
42247W        W 9030  13.049  10.889  12.068
42248W        W 9031  12.663   0.983   0.969
42249W        W 9032  30.607  20.986  14.468
42250W        W 9033  24.100  28.935  14.983
42251W        W 9034   7.669  31.826   4.150
42252W        W 9035  43.529   1.922   2.291
42253W        W 9036   2.176  32.110   2.179
42254W        W 9037   5.637  22.448   0.444
42255W        W 9038  40.818   6.935  13.953
42256W        W 9039   7.008  35.294  14.793
42257W        W 9040  33.008  37.615   4.939
42258W        W 9041   0.927   4.863   5.076
42259W        W 9042  42.915  32.297   3.939
42260W        W 9043  40.891  19.011  11.053
42261W        W 9044  16.778  13.308   4.115
42262W        W 9045  18.233  41.592   2.761
42263W        W 9046   9.164  22.690  13.492
42264W        W 9047   0.629  16.343   3.503
42265W        W 9048  31.357  31.685   2.794
42266W        W 9049  21.205  22.245   4.472
42267W        W 9050  17.723  18.083   1.804
42268W        W 9051  43.021  41.567   0.894
42269W        W 9052  16.783  21.277   3.894
42270W        W 9053  10.336  22.627   0.782
42271W        W 9054  12.478  33.186   3.250
42272W        W 9055  33.006   5.882   2.673
42273W        W 9056  12.601   5.085   0.561
42274W        W 9057  29.256  12.857   4.112
42275W        W 9058   2.521   8.497  12.455
42276W        W 9059  10.934  23.089  12.493
42277W        W 9060  10.882  30.784   3.745
42278W        W 9061  37.153  16.205   1.234
42279W        W 9062   9.843   9.424  11.524
42280W        W 9063  39.693  26.724   4.133
42281W        W 9064  13.760  29.354  14.967
42282W        W 9065  18.734  34.496   3.911
42283W        W 9066  25.851  15.432   1.910
42284W        W 9067  30.854  19.292   1.972
42285W        W 9068   4.509  15.249  10.789
42286W        W 9069  41.145  37.522   0.090
42287W        W 9070  31.146  17.145  11.252
42288W        W 9071   0.145  34.223   4.086
42289W        W 9072   2.754   7.523  12.547
42290W        W 9073  29.092   5.973  11.215
42291W        W 9074  12.053  19.157  11.020
42292W        W 9075  22.146  22.007  14.986
42293W        W 9076   8.265   5.326  14.415
42294W        W 9077  20.998   2.605   0.043
42295W        W 9078  15.118  15.714   3.294
42296W        W 9079   3.422  22.180   0.453
42297W        W 9080   8.930  13.191   1.571
42298W        W 9081  42.837  38.018  10.769
42299W        W 9082   3.342  12.649   2.795
42300W        W 9083  25.209  40.002   0.419
42301W        W 9084   7.351   4.564   3.708
42302W        W 9085   4.896  22.610   1.888
42303W        W 9086  44.906  14.201   2.316
42304W        W 9087   3.762  43.965  13.104
42305W        W 9088  14.706  36.501  12.153
42306W        W 9089  12.317  22.011  14.980
42307W        W 9090  28.164  28.014  10.937
42308W        W 9091  37.595  30.160  10.672
42309W        W 9092  44.550  23.064   3.019
42310W        W 9093  32.490  38.384  13.520
42311W        W 9094  35.936   1.584   0.820
42312W        W 9095  21.696  28.369  12.674
42313W        W 9096   0.034  42.663  14.107
42314W        W 9097  12.898  10.286  13.275
42315W        W 9098  17.237  20.985  11.988
42316W        W 9099  21.088  21.779   0.802
42317W        W 9100  28.511  44.851  14.790
42318W        W 9101   1.217  36.245   4.277
42319W        W 9102  31.916  25.278  10.668
42320W        W 9103  43.106  32.106   5.104
42321W        W 9104  10.785  43.027  11.214
42322W        W 9105  18.745  44.110  12.854
42323W        W 9106  33.065  42.569   1.964
42324W        W 9107  31.711  31.125   2.200
42325W        W 9108  19.356  40.488  13.927
42326W        W 9109  10.605  39.805   3.781
42327W        W 9110  28.994  40.554  10.290
42328W        W 9111  19.695  28.786  11.184
42329W        W 9112  28.201   8.136  10.692
42330W        W 9113  21.624  34.856  14.459
42331W        W 9114  19.954  34.985  11.540
42332W        W 9115   5.393   0.983   3.161
42333W        W 9116  29.435  41.343  11.580
42334W        W 9117  23.881  23.504  14.341
42335W        W 9118  39.884   9.589  12.869
42336W        W 9119  33.036  39.983  12.434
42337W        W 9120  23.093  20.565  11.515
42338W        W 9121   9.869  25.926   4.073
42339W        W 9122   1.976  33.132   4.892
42340W        W 9123  32.918   3.460   4.885
42341W        W 9124  22.266  19.647   4.265
42342W        W 9125  19.116  20.082   3.382
42343W        W 9126  33.594  13.792  10.579
42344W        W 9127   1.745  37.492   1.000
42345W        W 9128   0.410  21.755   4.538
42346W        W 9129   9.922  40.310   0.792
42347W        W 9130  18.679  16.726  11.546
42348W        W 9131  26.482  41.793  13.774
42349W        W 9132  24.031  38.352  13.290
42350W        W 9133   1.447  20.529  12.451
42351W        W 9134  29.169  22.465  14.816
42352W        W 9135  12.693  17.360   3.963
42353W        W 9136  32.453  10.204  12.005
42354W        W 9137  27.514   9.871  12.811
42355W        W 9138  37.608  33.017   0.532
42356W        W 9139   7.788  25.776   0.265
42357W        W 9140  10.847  33.457   0.421
42358W        W 9141   9.211  11.911  10.972
42359W        W 9142  10.353   0.303   2.253
42360W        W 9143  26.621   8.764  11.182
42361W        W 9144  36.916  21.767   4.230
42362W        W 9145  12.828  32.576  11.399
42363W        W 9146  37.484  35.903   0.381
42364W        W 9147   0.705   0.814  13.028
42365W        W 9148  22.680  15.868  14.033
42366W        W 9149   3.664  22.687  12.588
42367W        W 9150  33.062  13.085  11.985
42368W        W 9151  36.491  30.044   4.769
42369W        W 9152  21.153  30.558   0.341
42370W        W 9153   9.585  20.756  13.790
42371W        W 9154  43.903  33.938  10.637
42372W        W 9155  18.123  19.786  13.890
42373W        W 9156  39.639  28.462   4.788
42374W        W 9157  35.549  35.744  10.364
42375W        W 9158  16.531  27.378  13.386
42376W        W 9159   8.580  27.407   2.686
42377W        W 9160   3.668   9.376   4.060
42378W        W 9161  17.831  18.752  10.583
42379W        W 9162  41.811  37.888  11.249
42380W        W 9163  28.566  29.357  10.689
42381W        W 9164  40.323  35.497   1.862
42382W        W 9165   7.446  13.857   1.203
42383W        W 9166  19.182  32.045   1.315
42384W        W 9167  28.180  26.237   0.913
42385W        W 9168   6.774  10.197  14.446
42386W        W 9169   7.816  30.965  12.661
42387W        W 9170  15.202  29.004  14.989
42388W        W 9171  31.977  22.531  11.940
42389W        W 9172  12.096  33.235   0.703
42390W        W 9173  10.091  40.853  14.014
42391W        W 9174  10.267  26.717  13.777
42392W        W 9175  18.239  39.587   4.604
42393W        W 9176  37.718  35.209  12.556
42394W        W 9177  17.334  15.278   1.150
42395W        W 9178   8.824   8.729   3.777
42396W        W 9179  43.749  12.723  14.145
42397W        W 9180  14.883  25.907   4.122
42398W        W 9181  38.949  11.786  13.439
42399W        W 9182   3.845  19.389  11.528
42400W        W 9183  31.019   1.839  10.684
42401W        W 9184  39.486  33.623   0.022
42402W        W 9185   1.603  24.244   0.532
42403W        W 9186  37.183   9.933   2.875
42404W        W 9187  43.950  41.016   4.688
42405W        W 9188  16.339  22.693   2.212
42406W        W 9189   3.708  34.488   3.528
42407W        W 9190  10.073   5.415  12.020
42408W        W 9191   9.634  35.644  13.445
42409W        W 9192  22.781  23.750  13.440
42410W        W 9193  44.371  40.749  12.394
42411W        W 9194  29.962  40.857  13.845
42412W        W 9195  18.604  38.735   2.186
42413W        W 9196  43.082  35.079  10.657
42414W        W 9197  28.476  36.460  11.592
42415W        W 9198   8.613  15.699  14.245
42416W        W 9199  38.082  41.852   2.798
42417W        W 9200  38.103   3.411  11.641
42418W        W 9201  32.906  39.956   3.464
42419W        W 9202   1.472  39.855   4.639
42420W        W 9203  13.197   5.420   3.805
42421W        W 9204  16.326  42.552  13.507
42422W        W 9205  30.022  17.336   3.620
42423W        W 9206  27.565  31.532   5.044
42424W        W 9207   7.843  38.096  14.897
42425W        W 9208  21.010   6.782  11.661
42426W        W 9209  20.165  11.461   1.937
42427W        W 9210  36.586  34.844  12.030
42428W        W 9211   7.918  13.949  14.234
42429W        W 9212  16.270  20.258  13.182
42430W        W 9213  29.257  16.782  14.389
42431W        W 9214   3.765  28.951  10.639
42432W        W 9215  33.487   5.293  14.575
42433W        W 9216  20.771   9.079   2.707
42434W        W 9217   3.226  13.151   3.141
42435W        W 9218   4.911   2.232   1.724
42436W        W 9219  36.494  37.087   3.700
42437W        W 9220   8.834  27.534  10.680
42438W        W 9221  39.017   4.603  14.454
42439W        W 9222  16.401  14.682  12.035
42440W        W 9223  38.456   2.817  13.615
42441W        W 9224  18.213  38.268   1.299
42442W        W 9225  43.767   9.661  13.888
42443W        W 9226  44.959  44.376  11.425
42444W        W 9227  15.793  20.959  12.142
42445W        W 9228  34.125  34.523  12.804
42446W        W 9229  31.625  43.731  12.537
42447W        W 9230  24.991  14.803  12.793
42448W        W 9231   0.336  41.194  12.850
42449W        W 9232  34.861  32.528   3.466
42450W        W 9233  43.878  29.416  13.317
42451W        W 9234  34.546  22.208   0.116
42452W        W 9235  24.790  36.882  14.693
42453W        W 9236  40.004  27.261   3.764
42454W        W 9237  22.733  11.309   1.710
42455W        W 9238   7.813  34.516  14.995
42456W        W 9239   0.827  13.988  13.924
42457W        W 9240  20.388  18.258   0.393
42458W        W 9241  31.099   1.000  11.611
42459W        W 9242  32.151  14.893   0.373
42460W        W 9243   8.025   6.729  11.289
42461W        W 9244   2.174  40.041   2.572
42462W        W 9245  44.951  16.182   4.190
42463W        W 9246   7.125  33.468   0.887
42464W        W 9247  37.418  30.082   0.344
42465W        W 9248  27.544  12.388  11.631
42466W        W 9249  18.537  39.769  10.668
42467W        W 9250  18.338  18.685   4.696
42468W        W 9251   6.443  13.321  13.875
42469W        W 9252  42.429   5.310   2.260
42470W        W 9253   6.731  29.869  14.433
42471W        W 9254  21.951  20.480  13.015
42472W        W 9255  18.746  40.205  10.859
42473W        W 9256  26.753  16.759  11.124
42474W        W 9257   3.065  24.783  10.739
42475W        W 9258  17.110  23.587  14.125
42476W        W 9259  23.974  20.727  13.435
42477W        W 9260   5.433  16.444  14.408
42478W        W 9261  20.233   3.756   1.773
42479W        W 9262  27.973   4.624  12.085
42480W        W 9263  38.501   0.341   1.833
42481W        W 9264  32.733  44.605  10.237
42482W        W 9265   3.791  34.561   4.544
42483W        W 9266   5.443   3.925  13.484
42484W        W 9267  44.684   5.383   0.866
42485W        W 9268  32.027   7.923  14.832
42486W        W 9269   9.855   1.231   3.175
42487W        W 9270  41.129   2.929   3.181
42488W        W 9271  31.981  35.820   4.233
42489W        W 9272  15.451  25.918   2.597
42490W        W 9273   8.269  22.314  11.431
42491W        W 9274  34.211  37.747  14.559
42492W        W 9275   5.105  26.677  13.355
42493W        W 9276  38.344  34.199   0.314
42494W        W 9277  31.458  10.224  14.072
42495W        W 9278  38.903   8.978   3.821
42496W        W 9279   6.488  39.970   2.722
42497W        W 9280   2.259  27.702  12.976
42498W        W 9281   4.811  40.220   4.755
42499W        W 9282   1.503  39.818  11.236
42500W        W 9283  19.642  42.006   3.772
42501W        W 9284  28.040  32.986   3.859
42502W        W 9285  25.182  23.801   5.126
42503W        W 9286   9.821  37.471  11.509
42504W        W 9287  20.530  13.762   2.349
42505W        W 9288   6.520  41.239  13.023
42506W        W 9289  43.785  38.839   0.312
42507W        W 9290  15.732  22.151   1.685
42508W        W 9291   1.786  19.437  13.230
42509W        W 9292  34.630  15.647   1.554
42510W        W 9293  17.275  42.813  11.369
42511W        W 9294  36.829  16.513  13.707
42512W        W 9295  35.962   8.672   2.776
42513W        W 9296  33.146  34.410   2.037
42514W        W 9297  29.921   1.152  11.955
42515W        W 9298  17.968  32.591  13.430
42516W        W 9299  37.026   3.787  12.955
42517W        W 9300  25.809  19.392  13.277
42518W        W 9301  42.610   5.855  11.551
42519W        W 9302  39.883   1.920   4.468
42520W        W 9303  25.528  18.785   0.894
42521W        W 9304  30.553  36.928  11.078
42522W        W 9305  42.661   9.776   3.458
42523W        W 9306   4.758  22.168  13.700
42524W        W 9307  11.957  38.855   3.610
42525W        W 9308  25.053   7.093   1.938
42526W        W 9309  21.356  44.974   3.050
42527W        W 9310  28.204  16.571  12.991
42528W        W 9311  32.729  38.531   1.858
42529W        W 9312  18.148   3.284  14.819
42530W        W 9313  11.780  40.997   3.838
42531W        W 9314   6.753  14.057  12.579
42532W        W 9315   1.979  26.355   3.292
42533W        W 9316  31.681  39.050   2.168
42534W        W 9317   6.320   9.210   1.709
42535W        W 9318  43.715   8.700   0.914
42536W        W 9319   7.938  24.907   0.424
42537W        W 9320  11.528  10.343  12.219
42538W        W 9321  11.412  26.953  12.162
42539W        W 9322  43.653  12.274  13.588
42540W        W 9323  21.168  14.574  11.610
42541W        W 9324   4.438  32.128  13.293
42542W        W 9325  10.110  18.151   3.296
42543W        W 9326  27.927  17.723   3.835
42544W        W 9327  41.043  28.454   1.430
42545W        W 9328  16.559  36.505  11.986
42546W        W 9329  34.596  39.529   0.372
42547W        W 9330  21.630   7.737  13.822
42548W        W 9331  35.989  16.142   2.493
42549W        W 9332  39.240  38.849   0.726
42550W        W 9333  18.708  17.552   0.907
42551W        W 9334  40.354   0.852   2.178
42552W        W 9335  44.739  33.676   2.656
42553W        W 9336   2.523  41.513   4.630
42554W        W 9337  27.515  11.864  14.555
42555W        W 9338   4.437  23.546   4.868
42556W        W 9339  18.606  22.704   4.895
42557W        W 9340  38.805  15.784   1.150
42558W        W 9341  30.612   1.034  11.125
42559W        W 9342  17.533  13.588   4.450
42560W        W 9343  43.133  19.069  13.587
42561W        W 9344  15.405   4.346   1.252
42562W        W 9345  16.386  13.689   0.865
42563W        W 9346  11.619  32.607  13.122
42564W        W 9347  27.894  20.696   3.261
42565W        W 9348  25.424   0.907   4.588
42566W        W 9349   5.109   5.886  11.669
42567W        W 9350  33.494  39.106   2.135
42568W        W 9351   7.629   5.818  13.450
42569W        W 9352  34.259  44.730   2.376
42570W        W 9353  30.086  35.131   0.496
42571W        W 9354  32.124  30.554   3.270
42572W        W 9355  21.578  11.630  14.871
42573W        W 9356   4.276  24.672   0.747
42574W        W 9357  42.019  31.949   0.464
42575W        W 9358   1.179   0.464  13.353
42576W        W 9359  31.444  44.388   2.386
42577W        W 9360  27.988  19.712   2.838
42578W        W 9361   6.123  22.244  12.949
42579W        W 9362  18.222  25.197   1.637
42580W        W 9363   5.044  32.594  10.320
42581W        W 9364   5.714  31.598  12.418
42582W        W 9365  37.299  14.730  11.110
42583W        W 9366  10.252  10.841   4.913
42584W        W 9367  24.530  15.048   3.146
42585W        W 9368  35.915   5.295  12.590
42586W        W 9369  25.666   0.791   2.353
42587W        W 9370  38.876  36.996   2.216
42588W        W 9371  26.643   1.878   3.343
42589W        W 9372   6.201  17.160  10.790
42590W        W 9373   7.272   6.258   1.232
42591W        W 9374  14.568  44.728   1.308
42592W        W 9375  30.915  41.596   1.229
42593W        W 9376  30.025   9.226   1.987
42594W        W 9377   8.261  13.767   1.607
42595W        W 9378  35.500  39.403   3.369
42596W        W 9379  26.594  43.941   4.539
42597W        W 9380  36.594  23.977   4.840
42598W        W 9381   3.477  39.599   3.081
42599W        W 9382  28.379   1.563   2.197
42600W        W 9383   7.015  40.726  12.190
42601W        W 9384  42.827  30.144  14.828
42602W        W 9385  17.896  10.886  12.828
42603W        W 9386  30.365  21.682   5.063
42604W        W 9387  42.351  39.420  12.680
42605W        W 9388  13.694   3.486   1.401
42606W        W 9389  30.510  29.247  11.449
42607W        W 9390   7.964  10.226  14.489
42608W        W 9391  10.295  21.085   3.736
42609W        W 9392  26.139   4.431  12.210
42610W        W 9393  44.170  39.915   4.410
42611W        W 9394  16.556   7.725   1.034
42612W        W 9395  36.515  25.067   3.134
42613W        W 9396  30.234  29.204   0.890
42614W        W 9397  38.342  42.291   4.644
42615W        W 9398  31.852   7.338   3.477
42616W        W 9399  38.157  13.733  10.736
42617W        W 9400  24.513  23.400   1.471
42618W        W 9401  17.102  34.245  12.977
42619W        W 9402  19.108  27.235   3.742
42620W        W 9403  19.513   7.253   5.013
42621W        W 9404  25.413  44.540  11.899
42622W        W 9405   2.208  21.016   3.130
42623W        W 9406  30.984  29.587   1.990
42624W        W 9407   1.948  17.380  12.779
42625W        W 9408   4.958   4.964   0.477
42626W        W 9409  17.835  16.349   3.428
42627W        W 9410   0.001  38.140  13.614
42628W        W 9411  23.716  27.014   1.644
42629W        W 9412  37.633  41.575   0.616
42630W        W 9413   4.462  29.382  14.708
42631W        W 9414  20.108  32.553   2.476
42632W        W 9415  29.567  37.946  14.551
42633W        W 9416  13.160   7.708  14.682
42634W        W 9417   8.834  44.005   3.610
42635W        W 9418  40.998  34.900   1.718
42636W        W 9419   1.758  18.284   2.452
42637W        W 9420  35.146  24.245   4.416
42638W        W 9421  31.818  42.446   0.601
42639W        W 9422  16.170  18.125  14.406
42640W        W 9423  29.628  23.687   2.161
42641W        W 9424  23.655  18.821  11.696
42642W        W 9425  15.360  27.481   3.648
42643W        W 9426  10.477  26.145   0.329
42644W        W 9427  19.226  20.700  11.592
42645W        W 9428  30.707  39.952   4.555
42646W        W 9429  13.674  26.958  10.649
42647W        W 9430  43.232  43.509  14.826
42648W        W 9431  10.695  41.135  11.068
42649W        W 9432  38.119   5.240  13.099
42650W        W 9433   0.842  21.345  13.807
42651W        W 9434  19.095  23.992  11.139
42652W        W 9435  29.026  26.714  10.932
42653W        W 9436  42.052  35.510   2.281
42654W        W 9437   4.984  22.241   2.279
42655W        W 9438  38.160  26.202  13.093
42656W        W 9439   7.772  43.488   3.100
42657W        W 9440   2.961  43.898   4.873
42658W        W 9441   3.036  17.335  11.168
42659W        W 9442  32.010  22.936  12.242
42660W        W 9443  14.204   0.477  11.578
42661W        W 9444  31.382  40.742  11.675
42662W        W 9445   8.076  21.063  14.454
42663W        W 9446   0.912  14.820  14.583
42664W        W 9447  35.451  19.176  12.530
42665W        W 9448  16.737  20.429  11.026
42666W        W 9449  24.954  42.864  14.056
42667W        W 9450  35.153  15.605   2.838
42668W        W 9451  17.196  26.619  13.122
42669W        W 9452  32.975   4.219   0.363
42670W        W 9453  44.446  29.174   2.965
42671W        W 9454  26.165  21.719  12.455
42672W        W 9455  33.512  17.190  12.862
42673W        W 9456  10.917  32.930  12.169
42674W        W 9457   7.953  37.087   3.951
42675W        W 9458  35.100   7.985   4.939
42676W        W 9459  10.132  26.126   2.334
42677W        W 9460  44.097  15.239   1.384
42678W        W 9461  39.297  12.235   4.599
42679W        W 9462  20.775  33.864   0.277
42680W        W 9463   6.220   8.243   0.026
42681W        W 9464  42.331  22.503   4.521
42682W        W 9465   9.785  17.561   4.137
42683W        W 9466  21.791  14.729   5.741
42684W        W 9467  33.863  36.153  13.328
42685W        W 9468   3.335  30.737   0.498
42686W        W 9469  43.759  26.893   1.152
42687W        W 9470  23.158   7.701   2.789
42688W        W 9471  27.461  10.856   3.887
42689W        W 9472   3.367   8.423  11.616
42690W        W 9473   7.318  38.028  10.715
42691W        W 9474  22.539  28.634  11.765
42692W        W 9475   5.818   6.907   1.831
42693W        W 9476  16.825  33.039  10.971
42694W        W 9477  16.245  12.635   0.926
42695W        W 9478  22.246   1.859  14.630
42696W        W 9479  42.528  40.427   3.868
42697W        W 9480  19.464  16.799   4.612
42698W        W 9481  10.995  21.251   2.126
42699W        W 9482  37.495  22.400   4.910
42700W        W 9483   9.217  40.084   0.441
42701W        W 9484  18.294  35.988   3.736
42702W        W 9485  21.490  11.936   1.371
42703W        W 9486  17.676  38.599  11.970
42704W        W 9487  40.285  16.115  12.554
42705W        W 9488  14.247   1.628  11.159
42706W        W 9489   1.764  11.796  14.467
42707W        W 9490  35.661  39.850   2.163
42708W        W 9491  24.153   6.985   1.747
42709W        W 9492  19.908  30.090   2.730
42710W        W 9493   1.373   7.753  10.851
42711W        W 9494  10.704  25.497   4.038
42712W        W 9495   4.166  31.590   3.152
42713W        W 9496  37.487   9.353   2.253
42714W        W 9497  11.104  15.846   3.246
42715W        W 9498  41.066  31.597   0.342
42716W        W 9499  44.924   4.505  11.623
42717W        W 9500  10.408   4.790  11.611
42718W        W 9501  29.989   5.248  11.145
42719W        W 9502  23.741  21.524  13.566
42720W        W 9503  25.875  44.775  13.005
42721W        W 9504  12.541  14.979  14.919
42722W        W 9505  17.590  40.459   2.722
42723W        W 9506  12.914  35.514  10.714
42724W        W 9507  26.164  21.006   3.922
42725W        W 9508  34.390  30.615  14.313
42726W        W 9509  40.068   9.144   1.402
42727W        W 9510  20.993  41.630  14.390
42728W        W 9511  18.090   6.598   4.055
42729W        W 9512  43.302  22.312  14.009
42730W        W 9513  32.562  37.173   1.830
42731W        W 9514  20.122   3.890  14.750
42732W        W 9515  12.552  35.812  13.402
42733W        W 9516  19.909  10.626  14.390
42734W        W 9517  25.735   8.268   0.897
42735W        W 9518  39.839   8.964   3.778
42736W        W 9519  43.253  36.320  12.015
42737W        W 9520  13.731  24.507   2.928
42738W        W 9521  29.200  44.388  11.549
42739W        W 9522  15.792  24.308  10.718
42740W        W 9523  38.622  41.066  12.942
42741W        W 9524  21.769  29.416   3.802
42742W        W 9525   6.666  42.276   4.756
42743W        W 9526   6.671  12.547  13.183
42744W        W 9527  12.291  35.111   1.282
42745W        W 9528   8.667   2.434   1.391
42746W        W 9529   6.987  10.321  12.313
42747W        W 9530  15.341   9.139   1.776
42748W        W 9531  43.606  29.494   0.800
42749W        W 9532  31.865   0.863  12.050
42750W        W 9533   6.460  37.441  12.371
42751W        W 9534  15.151  13.678   0.468
42752W        W 9535   6.654  20.228   1.343
42753W        W 9536  15.355  26.557  14.864
42754W        W 9537  15.680   5.518  11.979
42755W        W 9538  11.807  11.159  14.935
42756W        W 9539  43.674  27.609   3.085
42757W        W 9540  36.691  14.294   2.168
42758W        W 9541  27.020  33.232   1.642
42759W        W 9542  40.237   2.819  14.374
42760W        W 9543  27.589  28.542  14.698
42761W        W 9544  20.490  21.604  12.291
42762W        W 9545  26.896  41.047  12.546
42763W        W 9546  30.446  18.940   4.786
42764W        W 9547  43.427  26.153   0.223
42765W        W 9548  11.966  29.150   1.069
42766W        W 9549  23.168  41.594   2.740
42767W        W 9550   2.688  34.333   1.001
42768W        W 9551  14.868  14.163   5.128
42769W        W 9552  33.699  34.968  10.302
42770W        W 9553  41.489  41.968   1.911
42771W        W 9554  15.995  44.379  13.326
42772W        W 9555  25.632  23.005  12.039
42773W        W 9556  42.402  10.199   0.460
42774W        W 9557   4.961  32.504  13.655
42775W        W 9558  35.812  38.338   0.347
42776W        W 9559  17.136  38.334   4.556
42777W        W 9560  14.065  37.823   1.492
42778W        W 9561  11.095  40.004   1.249
42779W        W 9562   1.842  36.782   0.298
42780W        W 9563  25.790  35.501   4.761
42781W        W 9564  15.823  22.512   4.995
42782W        W 9565  32.492  10.273   1.699
42783W        W 9566  32.173   7.834  11.991
42784W        W 9567  34.863  31.339  13.936
42785W        W 9568  35.937  24.863   2.210
42786W        W 9569  12.160  32.461  13.689
42787W        W 9570  27.171  11.287   3.999
42788W        W 9571  38.779  44.369   0.003
42789W        W 9572  19.337  15.621  12.977
42790W        W 9573  15.595  37.401  14.879
42791W        W 9574  44.382  37.925   2.763
42792W        W 9575  19.264  31.520   4.778
42793W        W 9576  42.706   7.648   0.887
42794W        W 9577  25.666  39.057   2.837
42795W        W 9578  36.962  10.318  10.644
42796W        W 9579  11.297  26.484  12.344
42797W        W 9580  37.375  37.074   1.243
42798W        W 9581   5.231   8.632   4.206
42799W        W 9582  17.143  12.032   3.798
42800W        W 9583  15.709   3.876  11.918
42801W        W 9584  16.953   8.268  10.838
42802W        W 9585   8.574   1.385   0.942
42803W        W 9586  24.553  41.015  11.858
42804W        W 9587  14.315  16.847   4.172
42805W        W 9588  30.960   0.835  14.736
42806W        W 9589  37.863  26.593   3.756
42807W        W 9590  29.693   2.658   4.096
42808W        W 9591  34.811  10.485  12.410
42809W        W 9592   4.874  15.101   4.604
42810W        W 9593  11.275  23.131  10.658
42811W        W 9594   7.614  29.583  14.907
42812W        W 9595  44.398  11.676   1.727
42813W        W 9596   6.314  12.735  10.811
42814W        W 9597  10.671   8.684   0.616
42815W        W 9598  28.935  27.464   4.211
42816W        W 9599  41.321  22.941  14.929
42817W        W 9600  31.114   8.266  11.555
42818W        W 9601   3.182  36.899   2.694
42819W        W 9602   9.812  41.582   0.037
42820W        W 9603  15.389  29.068  13.414
42821W        W 9604   3.901  25.815   0.830
42822W        W 9605   9.604  20.095   0.366
42823W        W 9606  41.025   4.429   1.508
42824W        W 9607  30.523  39.523   0.238
42825W        W 9608  40.987  44.855  11.124
42826W        W 9609  20.055  34.064  12.442
42827W        W 9610  34.389  26.029  14.919
42828W        W 9611  11.471  35.275  14.499
42829W        W 9612  38.763  30.111   1.503
42830W        W 9613   2.740   5.367  11.146
42831W        W 9614  38.039  40.999   1.000
42832W        W 9615   6.862  36.402  13.515
42833W        W 9616  38.972   2.492   4.650
42834W        W 9617  39.439  28.515   4.328
42835W        W 9618  28.918  29.629  14.388
42836W        W 9619   1.681  17.853  13.898
42837W        W 9620  15.300  18.651  12.452
42838W        W 9621  42.413  20.965  14.292
42839W        W 9622  13.162  36.849   1.742
42840W        W 9623  25.732  22.248  12.628
42841W        W 9624   0.032   6.004  13.998
42842W        W 9625  42.096  14.133  13.078
42843W        W 9626  21.011   3.952   2.306
42844W        W 9627   5.046  25.687   1.325
42845W        W 9628   3.629   8.223  14.773
42846W        W 9629  20.130  44.670   0.087
42847W        W 9630   2.715   0.866   1.158
42848W        W 9631  29.109  29.177   0.316
42849W        W 9632  18.011  43.342   3.212
42850W        W 9633  27.988  20.237  14.800
42851W        W 9634   5.246  29.843  11.168
42852W        W 9635   9.598  13.898   0.434
42853W        W 9636  23.396  34.501   0.775
42854W        W 9637   5.471  24.611  14.331
42855W        W 9638   9.114  29.793   4.089
42856W        W 9639  16.765   4.127  13.851
42857W        W 9640  44.781   0.507   1.188
42858W        W 9641  27.052  41.429  13.283
42859W        W 9642  29.062  19.529  10.687
42860W        W 9643   9.719  12.122   0.849
42861W        W 9644  33.499  17.331   2.738
42862W        W 9645  27.284  44.757   0.892
42863W        W 9646  40.035  22.030  11.491
42864W        W 9647  39.854  35.016   0.227
42865W        W 9648   7.886  19.964   1.192
42866W        W 9649  38.457  11.942  14.969
42867W        W 9650  23.468  18.730   4.501
42868W        W 9651  43.473   4.719   0.918
42869W        W 9652  13.076   9.738  14.743
42870W        W 9653  34.875  33.990  14.329
42871W        W 9654  12.913  12.612   4.745
42872W        W 9655  14.303   1.467   2.430
42873W        W 9656  43.856  35.883  14.148
42874W        W 9657  32.795  39.427   4.226
42875W        W 9658   9.205  19.496   3.118
42876W        W 9659  11.860  42.655   4.553
42877W        W 9660   1.336   9.166  12.073
42878W        W 9661   5.268  18.766   0.165
42879W        W 9662   1.958  12.701  13.005
42880W        W 9663  35.860  13.853  13.810
42881W        W 9664  29.320  34.936  10.426
42882W        W 9665   6.559   8.316  10.500
42883W        W 9666  21.299   0.871  12.542
42884W        W 9667   1.251  39.526   3.831
42885W        W 9668   1.828  34.976   4.137
42886W        W 9669   6.631  12.137   3.338
42887W        W 9670  24.061   0.843   3.144
42888W        W 9671  37.366  18.488  14.856
42889W        W 9672   1.731  44.717   4.133
42890W        W 9673  34.435   7.409  12.028
42891W        W 9674   3.654  29.778   1.447
42892W        W 9675  39.472  31.852  14.458
42893W        W 9676  10.703  37.928  14.407
42894W        W 9677  42.356  25.794   0.268
42895W        W 9678   3.872  13.202  12.922
42896W        W 9679  16.575   6.171  11.384
42897W        W 9680  33.470   6.684   2.849
42898W        W 9681  38.204   0.458   4.688
42899W        W 9682   4.829   9.380   2.280
42900W        W 9683  37.491  42.837   3.726
42901W        W 9684  19.128  17.668   3.522
42902W        W 9685  15.104   5.812   3.640
42903W        W 9686  28.869  38.398   3.617
42904W        W 9687  15.112   5.941   4.205
42905W        W 9688  16.072  24.545  14.396
42906W        W 9689   4.802   2.630   2.563
42907W        W 9690  24.869  18.558  12.314
42908W        W 9691  37.902  22.971  12.583
42909W        W 9692  36.978   2.408   1.240
42910W        W 9693  42.394  24.063   3.857
42911W        W 9694  31.157  14.604   3.348
42912W        W 9695  43.005   4.339  11.499
42913W        W 9696  15.241  28.683   0.778
42914W        W 9697   5.092  20.045   0.255
42915W        W 9698  14.805  44.115   0.512
42916W        W 9699  32.309  32.661   4.451
42917W        W 9700  15.400  35.145  12.482
42918W        W 9701  35.054  15.473   0.290
42919W        W 9702  25.743  13.625   3.791
42920W        W 9703  34.367   1.076   0.408
42921W        W 9704   2.861  36.457   0.530
42922W        W 9705   4.432  44.644   0.261
42923W        W 9706  42.460  29.265  12.270
42924W        W 9707  41.123  36.906   4.606
42925W        W 9708  28.329  38.417   2.739
42926W        W 9709  24.527  32.537  12.109
42927W        W 9710   1.172  35.586   0.457
42928W        W 9711  39.013  43.367   0.440
42929W        W 9712  19.596   0.545  12.823
42930W        W 9713  26.456   1.006  10.458
42931W        W 9714  38.682  37.542   4.442
42932W        W 9715  19.549   8.152   2.521
42933W        W 9716   3.284  32.489  12.709
42934W        W 9717  39.848  32.599   4.209
42935W        W 9718  22.322  10.625  14.925
42936W        W 9719  11.217  37.708   3.147
42937W        W 9720  21.029  25.074  12.830
42938W        W 9721  39.636   4.201   2.715
42939W        W 9722   5.593  40.295  10.667
42940W        W 9723  23.990   7.401   2.217
42941W        W 9724  34.553  25.892  13.562
42942W        W 9725  25.082  39.585   4.733
42943W        W 9726   4.471  30.023   0.340
42944W        W 9727  21.127  39.871   2.158
42945W        W 9728   0.468  14.397   2.727
42946W        W 9729  35.129  26.983  12.498
42947W        W 9730  25.324  28.175  13.388
42948W        W 9731  35.810  24.134  13.489
42949W        W 9732  37.088  42.992   1.836
42950W        W 9733  19.921   7.232   4.663
42951W        W 9734  25.620  11.169   1.158
42952W        W 9735  23.193  19.928   0.026
42953W        W 9736   2.822  28.006   4.885
42954W        W 9737  12.530  29.514   0.335
42955W        W 9738   9.790   3.462  12.517
42956W        W 9739  23.090   4.513  10.943
42957W        W 9740   1.938  43.903   2.285
42958W        W 9741  23.477  41.077   0.801
42959W        W 9742  29.183   4.296  13.496
42960W        W 9743  11.413  15.292  13.544
42961W        W 9744  21.013  30.462  12.917
42962W        W 9745  39.101  29.422  12.507
42963W        W 9746   5.662  44.526   3.618
42964W        W 9747  35.530  38.830   1.384
42965W        W 9748   1.325  23.628  14.979
42966W        W 9749  23.143  10.143  12.162
42967W        W 9750  26.694  28.528  12.633
42968W        W 9751  30.611  13.136   0.328
42969W        W 9752  27.621  40.983   1.754
42970W        W 9753  11.188   4.695   1.736
42971W        W 9754   6.391  15.098   1.299
42972W        W 9755  12.571   9.017  14.946
42973W        W 9756  10.166  36.787  12.886
42974W        W 9757  37.849  15.201   3.284
42975W        W 9758   6.939  24.835   4.558
42976W        W 9759  37.136  16.135   2.195
42977W        W 9760  41.945  30.957   2.195
42978W        W 9761  44.417  25.338   1.779
42979W        W 9762  33.458   9.426   3.055
42980W        W 9763  36.040  11.880  12.223
42981W        W 9764  30.143   8.374  11.552
42982W        W 9765   2.721  36.098  13.606
42983W        W 9766  16.497  35.872   3.711
42984W        W 9767  35.861  33.547  11.621
42985W        W 9768  31.736  33.785  11.208
42986W        W 9769  26.668   8.045   3.354
42987W        W 9770  43.214  44.353   2.867
42988W        W 9771  17.633  40.429   2.118
42989W        W 9772   7.383  10.568  11.160
42990W        W 9773  15.335  38.975   1.040
42991W        W 9774  29.968   6.663   0.850
42992W        W 9775  30.512  32.387   2.360
42993W        W 9776  23.125   2.851   1.232
42994W        W 9777  11.565  40.654  13.558
42995W        W 9778   5.732   5.834  10.981
42996W        W 9779   2.696   8.386  12.938
42997W        W 9780  18.546  33.349  14.268
42998W        W 9781  19.248  28.583  14.247
42999W        W 9782  33.749  39.043  12.858
43000W        W 9783  19.167  29.889   1.034
43001W        W 9784  44.487  33.467  12.980
43002W        W 9785   2.574  39.135  12.049
43003W        W 9786  29.245  39.786  12.980
43004W        W 9787  18.970  14.779  13.087
43005W        W 9788   5.394  22.494  13.043
43006W        W 9789  27.553  36.633   1.321
43007W        W 9790  27.938  19.607   3.686
43008W        W 9791   5.110   1.420   3.252
43009W        W 9792  37.697  27.375  12.443
43010W        W 9793  16.840   3.721   0.274
43011W        W 9794  40.040  43.487  13.536
43012W        W 9795  16.124  22.106  11.822
43013W        W 9796   2.823  40.286  11.599
43014W        W 9797  16.656  17.003  14.787
43015W        W 9798  10.132  36.144  11.018
43016W        W 9799  29.214  41.864   2.809
43017W        W 9800  34.921   5.384   3.398
43018W        W 9801   2.424  43.666  14.297
43019W        W 9802   2.470  42.451  10.789
43020W        W 9803  20.269  22.948   0.388
43021W        W 9804  44.186   8.837  13.842
43022W        W 9805  15.195  42.527   1.783
43023W        W 9806  44.488  11.350  13.508
43024W        W 9807   2.869  31.866   1.702
43025W        W 9808  25.917  32.750   3.198
43026W        W 9809   9.953  41.721  11.501
43027W        W 9810   5.849  13.792   3.740
43028W        W 9811  42.743  26.909   2.700
43029W        W 9812  14.345  41.813   0.938
43030W        W 9813  17.677  42.373   3.660
43031W        W 9814  39.386  18.136  11.605
43032W        W 9815  28.310  36.466  11.107
43033W        W 9816  25.713   7.851   0.300
43034W        W 9817   4.543  27.611  10.578
43035W        W 9818  38.168  33.234  11.557
43036W        W 9819  40.486  43.657  14.764
43037W        W 9820  12.655  35.013   0.285
43038W        W 9821  31.432   4.410   1.267
43039W        W 9822  43.260  12.313  14.974
43040W        W 9823  15.226  36.965   3.325
43041W        W 9824  15.560  36.814   2.283
43042W        W 9825  41.967   5.960  10.467
43043W        W 9826  28.085  42.795  14.021
43044W        W 9827  26.032   9.667  12.471
43045W        W 9828  36.082  29.619   2.154
43046W        W 9829  15.135  42.958   2.060
43047W        W 9830   7.305  43.390  13.261
43048W        W 9831  39.823   6.413   3.738
43049W        W 9832  40.373   0.249   0.644
43050W        W 9833   0.447  36.026   3.643
43051W        W 9834  42.730   0.551   0.255
43052W        W 9835  18.630   3.491  13.918
43053W        W 9836  10.196  34.032   5.057
43054W        W 9837  38.306   7.448  13.355
43055W        W 9838  40.563  33.005  11.557
43056W        W 9839  30.040  30.643  13.528
43057W        W 9840  20.064  20.018  12.955
43058W        W 9841  44.289  35.799   1.542
43059W        W 9842  30.974  16.803  13.910
43060W        W 9843  33.483  34.203   3.277
43061W        W 9844  27.695  23.491  11.038
43062W        W 9845   8.625  23.565   0.817
43063W        W 9846   7.744  24.015   3.193
43064W        W 9847  25.434  10.141   3.246
43065W        W 9848   0.449  24.729  11.142
43066W        W 9849   1.297  40.399  13.522
43067W        W 9850   7.843   0.348   2.117
43068W        W 9851  30.786  11.256   2.757
43069W        W 9852   0.763  18.691   2.745
43070W        W 9853  14.708   5.226  12.067
43071W        W 9854  19.041   1.996  11.723
43072W        W 9855  17.094   6.923   3.386
43073W        W 9856  34.490   7.147  11.577
43074W        W 9857  37.985  11.061  12.947
43075W        W 9858   0.004   6.926  11.807
43076W        W 9859  27.082  39.280  10.754
43077W        W 9860  33.546   2.176  10.712
43078W        W 9861  20.974  23.593  13.077
43079W        W 9862  17.253  37.505  12.456
43080W        W 9863   6.135  20.157   1.334
43081W        W 9864  41.287  23.030  13.991
43082W        W 9865  32.481  15.373  14.048
43083W        W 9866   2.696  32.124   0.309
43084W        W 9867   0.458  40.845   3.780
43085W        W 9868  11.814  13.650  14.890
43086W        W 9869   6.778  31.864   0.531
43087W        W 9870  29.771   6.226   2.111
43088W        W 9871  21.654  44.335  13.032
43089W        W 9872  43.300  39.234   0.733
43090W        W 9873  43.576   3.266  12.924
43091W        W 9874  33.634  39.830   0.348
43092W        W 9875  28.888   1.829   0.028
43093W        W 9876   7.970  41.883  12.991
43094W        W 9877  30.351   4.990   4.082
43095W        W 9878  24.550   1.501  12.056
43096W        W 9879  15.629  33.895   0.940
43097W        W 9880   3.918  26.678   9.858
43098W        W 9881  28.077  33.653  10.698
43099W        W 9882  25.349  35.563   1.201
43100W        W 9883  11.955   3.797  11.626
43101W        W 9884  39.862   3.952   2.318
43102W        W 9885  40.693  43.987  12.353
43103W        W 9886  10.370  14.951  13.583
43104W        W 9887   9.243   5.853  13.379
43105W        W 9888  36.408  41.541  12.092
43106W        W 9889  27.559  15.138  13.424
43107W        W 9890  35.535  42.241   1.793
43108W        W 9891  34.550  26.167   2.857
43109W        W 9892   1.053  39.527  10.545
43110W        W 9893  16.732   6.255  14.789
43111W        W 9894  18.281   6.734   2.227
43112W        W 9895   0.694  26.057   3.094
43113W        W 9896  42.545  13.105   0.855
43114W        W 9897  15.088  44.622  11.139
43115W        W 9898  21.212  26.243  10.880
43116W        W 9899   2.117  20.606   3.765
43117W        W 9900   8.636  15.493  10.784
43118W        W 9901  44.600  40.920   4.147
43119W        W 9902  26.427   3.856   1.413
43120W        W 9903  35.550  33.920  12.530
43121W        W 9904  12.796  34.773  11.499
43122W        W 9905   9.782  16.786   3.603
43123W        W 9906  28.666   0.019   2.335
43124W        W 9907   4.286   7.271  14.276
43125W        W 9908  35.075  15.319  13.869
43126W        W 9909  11.608  29.482   3.179
43127W        W 9910   8.804  36.728  10.699
43128W        W 9911  25.489  30.493  11.487
43129W        W 9912  13.412  24.833   0.791
43130W        W 9913  34.531  26.063  11.863
43131W        W 9914   5.338   9.309  14.612
43132W        W 9915  25.959  15.236  10.783
43133W        W 9916   0.060  18.786   4.086
43134W        W 9917  25.512   2.191   4.164
43135W        W 9918  28.544   4.701   3.717
43136W        W 9919  17.503  17.134   4.458
43137W        W 9920  20.898  12.900   2.668
43138W        W 9921   7.230  12.791  10.744
43139W        W 9922  44.729   5.764   0.510
43140W        W 9923  31.946  39.087   3.866
43141W        W 9924  37.308  16.523  10.158
43142W        W 9925  29.524   9.339   1.184
43143W        W 9926  42.454  28.598   0.404
43144W        W 9927   0.238  42.877  10.830
43145W        W 9928  34.157   2.424  13.539
43146W        W 9929  36.196   7.488   3.588
43147W        W 9930  23.626   1.642  12.005
43148W        W 9931  13.612  24.023   4.550
43149W        W 9932  44.618  38.915  10.289
43150W        W 9933  17.537  33.571   4.213
43151W        W 9934   7.443  21.975  14.871
43152W        W 9935   1.675  29.667   1.201
43153W        W 9936   6.444  26.215   1.289
43154W        W 9937   2.682  29.077   3.350
43155W        W 9938  21.665  16.806  11.411
43156W        W 9939  27.472  29.642   1.841
43157W        W 9940   3.633  20.522   4.564
43158W        W 9941  38.450  23.036  13.914
43159W        W 9942  37.849   3.160  10.826
43160W        W 9943  23.664   0.691   2.244
43161W        W 9944  21.078   3.292   3.157
43162W        W 9945  20.448   0.304   0.767
43163W        W 9946  41.470  24.481  14.060
43164W        W 9947  18.629   0.952  13.142
43165W        W 9948  32.442   3.715   1.309
43166W        W 9949  44.802  36.890  11.563
43167W        W 9950   6.887   6.340  10.590
43168W        W 9951   0.990   9.097   3.092
43169W        W 9952  38.438  16.820   3.422
43170W        W 9953  44.024  11.228   3.121
43171W        W 9954  29.391  39.366  13.878
43172W        W 9955   2.164  33.728  11.072
43173W        W 9956  19.657   6.857  14.476
43174W        W 9957   5.043  22.441  11.058
43175W        W 9958  29.159  15.548  10.391
43176W        W 9959  29.112  18.726   4.423
43177W        W 9960  30.448   5.074  12.725
43178W        W 9961  40.310  28.953   1.731
43179W        W 9962  37.467  19.149   3.311
43180W        W 9963   9.285  19.673   0.686
43181W        W 9964  33.954  29.687  14.275
43182W        W 9965   8.934   4.269  14.322
43183W        W 9966  36.965  40.645  13.293
43184W        W 9967   1.797   2.514   2.220
43185W        W 9968  33.516  31.078   2.199
43186W        W 9969  11.545  28.195  11.078
43187W        W 9970  23.054  37.294   3.411
43188W        W 9971  34.626   0.928  13.441
43189W        W 9972  16.366  38.303  12.557
43190W        W 9973  25.538  27.283  13.359
43191W        W 9974   2.906  27.988  12.467
43192W        W 9975   8.287  33.799   2.252
43193W        W 9976  12.939  32.215  14.356
43194W        W 9977   7.230  27.350   0.433
43195W        W 9978  12.696  24.565  14.471
43196W        W 9979  32.017   0.472  12.378
43197W        W 9980  21.318  32.162  14.807
43198W        W 9981  29.632  23.114   1.864
43199W        W 9982  38.832   5.970   4.629
43200W        W 9983  37.085  34.044   3.075
43201W        W 9984  16.594  14.019   2.177
43202W        W 9985  29.543  34.554  11.887
43203W        W 9986  17.162  33.527  11.504
43204W        W 9987  21.160   6.533   4.933
43205W        W 9988  21.386  28.042  13.532
43206W        W 9989  36.392  27.185  12.217
43207W        W 9990  40.280  29.447  13.097
43208W        W 9991  14.406  42.866  13.362
43209W        W 9992   2.173  39.353   3.706
43210W        W 9993  28.668  19.534  11.010
43211W        W 9994   3.883  23.100   4.049
43212W        W 9995  12.277  19.995  13.371
43213W        W 9996   1.150  23.099  11.523
43214W        W 9997  25.531  42.044   3.369
43215W        W 9998   0.852  13.779  11.890
43216W        W 9999  24.767  21.215   1.455
43217W        W10000  33.487  27.537   4.902
43218W        W10001   8.633  37.821  12.064
43219W        W10002  43.299  15.450   0.421
43220W        W10003  40.720  21.556  14.707
43221W        W10004  24.004  32.847  14.008
43222W        W10005  35.013   1.937   0.444
43223W        W10006   5.710   0.012  12.502
43224W        W10007   5.819  36.455   4.250
43225W        W10008  21.215  15.356   3.592
43226W        W10009  41.922  35.936   4.064
43227W        W10010  20.158  23.667  12.064
43228W        W10011   2.680  30.168   1.433
43229W        W10012  29.620  25.746  14.723
43230W        W10013   0.939   9.336   4.658
43231W        W10014  34.730  37.491  13.182
43232W        W10015  34.950  43.270  12.653
43233W        W10016   2.987   9.692  12.507
43234W        W10017  29.506  28.879  10.488
43235W        W10018  20.122  30.826  10.625
43236W        W10019  42.636  18.431   5.016
43237W        W10020  18.286  11.611   4.422
43238W        W10021  31.892  11.279   0.367
43239W        W10022   3.659  35.884   0.246
43240W        W10023  28.434  22.730   2.677
43241W        W10024  26.727  35.443   3.186
43242W        W10025  42.039  19.616  14.675
43243W        W10026  38.544  44.556   4.674
43244W        W10027   5.249  43.386   2.822
43245W        W10028   5.591   5.869  12.013
43246W        W10029  17.842  32.972  14.358
43247W        W10030  21.151  39.528  12.541
43248W        W10031   9.287   0.607   4.129
43249W        W10032  14.068   5.478   4.683
43250W        W10033  13.579   6.431  10.963
43251W        W10034  29.924   4.137   4.038
43252W        W10035  21.698  28.528  11.190
43253W        W10036  10.999  36.365  10.970
43254W        W10037  32.594  16.212   3.189
43255W        W10038  40.595  36.070  13.555
43256W        W10039  40.287   5.972   0.254
43257W        W10040  41.266  26.175   1.749
43258W        W10041  17.597  24.923   0.099
43259W        W10042  33.870  40.922  11.927
43260W        W10043  11.563   0.404   1.685
43261W        W10044  22.547  17.966  12.609
43262W        W10045   3.627  32.553   2.290
43263W        W10046   5.175   7.214  12.577
43264W        W10047  32.021  24.450  11.082
43265W        W10048   6.209   5.462  10.922
43266W        W10049  22.141   8.128   1.679
43267W        W10050  36.508  21.325  14.349
43268W        W10051  22.925  13.443  14.586
43269W        W10052  23.760   6.552  12.540
43270W        W10053  28.114  22.089   3.161
43271W        W10054  27.419  23.798  10.722
43272W        W10055  37.099  37.963   0.224
43273W        W10056   6.142  38.463   2.999
43274W        W10057   3.755  30.562   0.719
43275W        W10058  33.107  43.892   0.549
43276W        W10059  19.635  17.106   1.777
43277W        W10060  21.707  11.705   2.330
43278W        W10061  10.767  28.048   3.153
43279W        W10062  14.995  31.529  14.794
43280W        W10063   3.970  27.647  13.593
43281W        W10064  32.788  15.273   4.915
43282W        W10065  21.796  30.087   2.547
43283W        W10066  34.000  34.098  11.669
43284W        W10067  22.028  23.487  14.368
43285W        W10068  15.011  34.465  10.605
43286W        W10069  34.889  26.499  14.377
43287W        W10070  10.077  10.346   1.852
43288W        W10071  18.353  21.780   2.262
43289W        W10072  14.722  39.276   0.438
43290W        W10073  40.947   8.972  11.190
43291W        W10074  26.654   2.187   3.772
43292W        W10075  33.493  42.023   1.581
43293W        W10076  43.390  12.428  14.487
43294W        W10077   0.483   6.853  14.519
43295W        W10078   6.468  20.045  14.577
43296W        W10079  17.049  33.604  14.265
43297W        W10080   3.438   2.018  12.930
43298W        W10081  19.598   8.855   0.648
43299W        W10082  17.002  25.890  11.367
43300W        W10083  17.170  23.930   2.234
43301W        W10084  18.547   2.190  11.724
43302W        W10085  42.792  11.709  14.308
43303W        W10086  29.909   0.824  13.130
43304W        W10087  27.926   7.370   1.340
43305W        W10088  14.459  24.069  12.523
43306W        W10089  42.972  43.865  11.980
43307W        W10090  21.007  34.891  12.658
43308W        W10091  27.880  23.283   1.248
43309W        W10092  41.895  21.050  10.762
43310W        W10093  38.540  25.420   1.495
43311W        W10094  28.546  17.903   1.315
43312W        W10095  37.976  32.759  11.639
43313W        W10096  35.199  14.675   3.064
43314W        W10097  34.347  22.635  12.098
43315W        W10098  12.380  37.509  13.627
43316W        W10099  32.009  26.409   0.441
43317W        W10100   8.969  40.270   4.139
43318W        W10101  25.936  19.207  12.021
43319W        W10102  37.405  36.652   3.815
43320W        W10103   4.416  15.177   3.129
43321W        W10104   0.800  12.195   3.175
43322W        W10105  18.774   4.437  13.873
43323W        W10106  14.084  42.850  13.770
43324W        W10107   4.976  38.018  10.779
43325W        W10108   4.317   2.451   3.855
43326W        W10109  11.025  20.273   2.608
43327W        W10110   2.551   1.139  12.864
43328W        W10111   0.955  31.290   0.977
43329W        W10112  24.279  39.447   0.389
43330W        W10113  16.649  32.919   1.949
43331W        W10114   7.750  35.873   0.329
43332W        W10115   7.826  10.334   0.707
43333W        W10116   0.038  16.794   3.245
43334W        W10117  25.019   1.596  11.186
43335W        W10118  35.743  30.386   1.276
43336W        W10119  21.545  25.941   4.174
43337W        W10120  41.966   3.386   2.565
43338W        W10121  13.672  24.932  13.578
43339W        W10122  34.461  43.791   0.882
43340W        W10123  22.707   5.490   3.688
43341W        W10124  44.220  22.103   1.323
43342W        W10125  25.155  40.259   2.264
43343W        W10126  20.823   7.665   4.562
43344W        W10127  38.423  21.182   2.267
43345W        W10128  16.597  37.274   3.900
43346W        W10129  21.713   5.743   3.678
43347W        W10130  21.114  18.585  10.824
43348W        W10131  18.322  32.057  10.465
43349W        W10132  30.473  41.814  10.718
43350W        W10133  17.056  44.765  14.938
43351W        W10134   5.655  24.575   2.355
43352W        W10135  37.081  24.614  11.672
43353W        W10136  42.057  10.848   2.509
43354W        W10137  31.674   7.512   1.729
43355W        W10138  12.844  37.855   3.472
43356W        W10139  23.076  38.548  11.529
43357W        W10140  11.873  13.235   3.108
43358W        W10141  17.622  11.985   5.410
43359W        W10142  15.083   4.730   1.249
43360W        W10143  26.061  43.422   3.594
43361W        W10144  20.078   2.391   3.578
43362W        W10145   1.160  34.574   3.925
43363W        W10146  33.558  32.130   2.141
43364W        W10147  27.157  19.690  11.142
43365W        W10148  16.786   1.838  13.555
43366W        W10149  14.095  44.764  13.459
43367W        W10150  17.234  17.770  11.502
43368W        W10151  32.348  38.314  11.610
43369W        W10152  12.103  30.151  14.321
43370W        W10153  41.794   6.424   3.679
43371W        W10154  24.593  39.039   1.271
43372W        W10155  40.398  15.874   1.878
43373W        W10156  11.156  23.076   0.681
43374W        W10157  11.758   0.273  12.867
43375W        W10158  20.764  11.830  10.697
43376W        W10159  24.978  41.559   5.030
43377W        W10160  36.240  16.217   1.003
43378W        W10161  23.741  34.309   2.862
43379W        W10162  42.921   2.668   0.373
43380W        W10163  14.594  34.961   1.722
43381W        W10164  44.870   5.563   2.316
43382W        W10165  38.491  28.198  14.292
43383W        W10166  40.353  22.431   4.991
43384W        W10167  36.671  36.393   0.516
43385W        W10168  28.734  35.064   0.421
43386W        W10169   1.708   7.332  11.907
43387W        W10170   1.052  27.575  12.471
43388W        W10171  23.467  12.243  13.337
43389W        W10172  32.078  44.735   1.175
43390W        W10173  12.039  20.579   2.898
43391W        W10174  42.706  15.605  13.323
43392W        W10175  15.766   8.526   2.763
43393W        W10176  31.594   4.915   1.811
43394W        W10177   9.584   3.794   1.097
43395W        W10178  15.581   2.923  12.806
43396W        W10179   0.967   3.340  11.113
43397W        W10180  24.760   2.382   3.644
43398W        W10181   1.722   9.241   0.876
43399W        W10182  38.113   6.115  12.783
43400W        W10183  37.205   2.531  13.847
43401W        W10184   1.284  17.470  12.623
43402W        W10185  42.486  13.592  13.766
43403W        W10186  13.182  11.759   2.583
43404W        W10187  10.233  21.998  12.084
43405W        W10188  13.562  10.940  12.072
43406W        W10189  21.159  28.906   0.081
43407W        W10190   3.356  35.003   0.444
43408W        W10191   2.331   4.169   0.817
43409W        W10192  15.136   8.699  10.365
43410W        W10193   0.771  42.762   5.077
43411W        W10194  17.541  15.974   2.160
43412W        W10195  23.718  17.586  14.704
43413W        W10196  10.387  42.582  10.099
43414W        W10197   1.408   6.420  14.358
43415W        W10198  38.903  14.384   2.836
43416W        W10199  19.758  37.047  13.509
43417W        W10200   1.221  44.901  13.975
43418W        W10201  35.974  26.506  11.655
43419W        W10202   3.392   6.154  14.641
43420W        W10203  31.152  11.511   3.029
43421W        W10204   2.221   3.248  11.566
43422W        W10205   3.204  38.345  14.352
43423W        W10206  18.947  25.437   0.513
43424W        W10207  10.961  24.009  12.707
43425W        W10208  26.246   8.295  14.755
43426W        W10209  16.456  13.878   5.022
43427W        W10210   3.517  14.700   2.418
43428W        W10211  30.466   8.960   1.896
43429W        W10212  12.547   1.921   0.416
43430W        W10213  23.172  33.027  13.797
43431W        W10214  41.547  27.903   4.676
43432W        W10215   7.406  29.813  12.180
43433W        W10216  13.617  36.585  13.391
43434W        W10217  43.722  16.608  11.738
43435W        W10218  34.532   1.767  13.824
43436W        W10219  41.335  42.812   0.278
43437W        W10220  12.855   1.022  13.198
43438W        W10221  19.374   3.905  13.413
43439W        W10222   4.431  38.089   4.172
43440W        W10223  40.692   9.930  11.082
43441W        W10224   6.158  32.612  10.710
43442W        W10225  40.516   9.804  11.546
43443W        W10226   4.740   1.965  11.139
43444W        W10227  41.523  40.654  11.671
43445W        W10228   1.629  30.085   2.740
43446W        W10229  41.336  43.845   4.851
43447W        W10230  43.854   1.422  13.926
43448W        W10231  29.674  25.122   3.550
43449W        W10232  12.958  40.602   4.633
43450W        W10233   4.845  36.044  14.450
43451W        W10234  15.674  19.722   4.539
43452W        W10235   6.670  10.254   3.721
43453W        W10236   8.644  39.936  11.181
43454W        W10237  39.036  11.938  14.317
43455W        W10238  28.608  11.089  11.921
43456W        W10239  15.864  30.479   4.288
43457W        W10240   1.866  31.525   1.285
43458W        W10241  20.255   6.948  12.053
43459W        W10242  38.594  37.643   0.217
43460W        W10243  15.682  30.619   3.306
43461W        W10244  37.483  27.353   4.389
43462W        W10245  36.629  29.342   1.284
43463W        W10246  30.537  36.413   3.187
43464W        W10247   8.734  30.172  10.577
43465W        W10248   2.961  37.971   0.959
43466W        W10249  28.100  30.437  12.096
43467W        W10250  23.137  38.807  12.503
43468W        W10251  38.880  43.382   0.965
43469W        W10252  23.007  44.890  11.091
43470W        W10253   0.247   9.630  13.934
43471W        W10254  34.121  23.835   5.181
43472W        W10255  18.249  17.259   4.970
43473W        W10256  38.935  15.125  10.309
43474W        W10257  22.174  35.853  10.722
43475W        W10258  42.805  37.445   3.564
43476W        W10259  42.495  34.517   0.634
43477W        W10260  38.592  18.725   4.421
43478W        W10261  25.322  25.512  13.902
43479W        W10262   5.362  19.122  12.104
43480W        W10263  16.123  34.515  14.718
43481W        W10264  37.297  43.146  12.965
43482W        W10265  41.026   4.594  11.868
43483W        W10266   7.061  44.261   2.629
43484W        W10267  37.121  13.473  13.226
43485W        W10268  14.607  39.042   1.901
43486W        W10269  25.690  32.997   4.533
43487W        W10270  11.077  25.469  11.558
43488W        W10271   1.631  34.600  12.025
43489W        W10272   2.519  34.001   1.393
43490W        W10273  42.493  20.276   2.825
43491W        W10274  36.616  21.647  13.407
43492W        W10275  29.948  17.367   0.123
43493W        W10276  37.375  26.550   2.317
43494W        W10277  27.184  42.952   4.137
43495W        W10278  29.562   4.747   1.448
43496W        W10279  28.526   1.728  14.670
43497W        W10280  10.265  25.162   1.931
43498W        W10281  23.930  39.971   4.181
43499W        W10282   2.067   1.262   4.970
43500W        W10283  32.180  42.769   5.040
43501W        W10284  15.077  12.332  14.338
43502W        W10285  36.448   1.535   3.714
43503W        W10286  30.619  24.263  12.447
43504W        W10287  23.009  17.123   4.854
43505W        W10288  43.810  30.381   3.290
43506W        W10289  28.891  27.087   3.870
43507W        W10290  25.700  18.128  10.745
43508W        W10291  34.798  30.907   1.230
43509W        W10292  38.987   5.128   3.525
43510W        W10293  10.323  25.781   4.252
43511W        W10294   9.676  22.149  14.271
43512W        W10295   9.846  29.588  14.474
43513W        W10296  37.445  44.766   1.222
43514W        W10297   1.477   7.792  11.855
43515W        W10298  15.278  43.304  11.320
43516W        W10299  14.284  25.173  14.843
43517W        W10300  19.809  31.702   1.295
43518W        W10301   7.847   3.396   4.180
43519W        W10302  30.947  35.307  12.441
43520W        W10303  12.135  44.325   3.081
43521W        W10304   3.701  26.340   2.908
43522W        W10305  40.948   1.358   3.245
43523W        W10306  12.352  25.591   0.440
43524W        W10307  29.152   7.222  13.807
43525W        W10308  36.977   5.200  13.804
43526W        W10309   9.077  27.214   0.512
43527W        W10310  15.895  41.087  14.550
43528W        W10311  15.686   0.013  10.792
43529W        W10312   0.865  40.958   4.131
43530W        W10313  34.719  22.016   3.730
43531W        W10314  22.525   0.742  13.780
43532W        W10315  44.461  33.673   4.197
43533W        W10316   3.766   8.392   1.932
43534W        W10317  32.347  38.991  11.924
43535W        W10318   8.848  10.021  11.131
43536W        W10319  42.461  40.571   3.346
43537W        W10320   7.321  31.583   4.514
43538W        W10321  17.846  20.310   3.536
43539W        W10322  20.710   4.887  11.627
43540W        W10323  31.550  26.976   0.757
43541W        W10324  28.530  26.726  12.983
43542W        W10325  31.601  41.649  11.752
43543W        W10326  33.327   0.659  12.500
43544W        W10327  39.976  22.468   4.453
43545W        W10328   3.988  24.149  12.531
43546W        W10329  13.752  43.883  14.263
43547W        W10330  30.993  26.497   0.728
43548W        W10331   6.171  43.428   1.372
43549W        W10332  41.803  12.425   1.007
43550W        W10333   9.331  35.666  11.605
43551W        W10334  40.470  10.754  12.910
43552W        W10335  28.899  39.969   1.245
43553W        W10336  14.827  32.166  14.395
43554W        W10337  34.182  31.040  13.591
43555W        W10338  23.033  43.255  12.378
43556W        W10339   8.332   2.230   0.938
43557W        W10340  44.991  11.922  13.969
43558W        W10341  32.509  19.044  11.727
43559W        W10342   8.114  21.885  11.171
43560W        W10343   7.298  31.662  12.406
43561W        W10344  40.727  40.081  10.666
43562W        W10345  37.421   8.274   1.655
43563W        W10346  42.609  44.821  14.489
43564W        W10347   0.742   5.854   0.405
43565W        W10348  33.596  20.455  11.972
43566W        W10349  26.029  38.816   1.237
43567W        W10350  19.193  14.142  11.840
43568W        W10351  36.101   7.601   2.544
43569W        W10352  40.992   4.966  12.861
43570W        W10353   2.878  26.697  13.863
43571W        W10354   8.499   0.272  12.233
43572W        W10355  19.108  37.360   1.184
43573W        W10356  13.214  40.772  14.834
43574W        W10357   9.098  10.198   0.259
43575W        W10358  35.401  20.114   1.323
43576W        W10359  23.203   4.220  13.523
43577W        W10360  34.332  36.417   0.050
43578W        W10361   4.962  17.060  12.518
43579W        W10362  28.697  24.694   2.263
43580W        W10363  11.086  10.353  12.511
43581W        W10364  26.783  16.032   3.864
43582W        W10365  14.811  14.332   0.428
43583W        W10366  16.178   7.608   2.480
43584W        W10367  26.946  30.387   4.231
43585W        W10368  25.513  16.921  14.203
43586W        W10369   6.254   6.886  14.303
43587W        W10370   8.816  24.865  13.439
43588W        W10371   1.287  14.296  10.689
43589W        W10372  26.457  36.683  11.022
43590W        W10373  19.125   0.028   0.968
43591W        W10374  16.252   6.805   2.439
43592W        W10375  34.893  26.647   1.121
43593W        W10376  16.415  42.913   2.247
43594W        W10377  11.900  26.995  11.995
43595W        W10378  43.611  27.109   0.318
43596W        W10379   9.764  36.402  14.129
43597W        W10380  19.085  14.187  11.349
43598W        W10381  42.436  28.654  11.717
43599W        W10382  33.621  43.158  13.814
43600W        W10383  18.971  20.617  11.137
43601W        W10384  26.230  22.722   3.295
43602W        W10385   5.937  18.460  11.779
43603W        W10386  25.211  13.122  13.348
43604W        W10387  22.110  15.380   0.774
43605W        W10388  27.531   3.370   2.637
43606W        W10389  18.202  22.563  10.715
43607W        W10390  36.973  15.259  14.432
43608W        W10391   8.307   6.365  12.216
43609W        W10392  30.240  22.170  14.987
43610W        W10393   9.289  42.310  13.961
43611W        W10394  28.332   6.027   2.471
43612W        W10395  23.012   7.996  14.312
43613W        W10396   5.113  39.392   3.313
43614W        W10397  34.428  32.416   2.668
43615W        W10398  22.645  41.349   1.334
43616W        W10399   1.613  33.140   2.806
43617W        W10400   4.932  36.090   4.507
43618W        W10401  19.023  19.007   3.300
43619W        W10402   4.682  33.443  14.466
43620W        W10403   5.446  11.389   0.260
43621W        W10404  23.012  19.222  12.952
43622W        W10405  28.972  33.117   3.305
43623W        W10406   0.817  11.828  10.047
43624W        W10407  14.841  23.990  14.075
43625W        W10408  43.919  38.515  11.940
43626W        W10409  41.607  14.678  12.392
43627W        W10410   7.969  11.809  10.903
43628W        W10411  39.404   4.412   2.271
43629W        W10412  10.421  11.602  11.365
43630W        W10413   8.164  30.627   9.870
43631W        W10414   3.469  10.587   3.942
43632W        W10415  19.310  24.288   2.448
43633W        W10416  33.564  26.202   2.895
43634W        W10417  23.748  34.995   3.714
43635W        W10418   6.617  35.971   0.329
43636W        W10419  21.933   6.895   1.730
43637W        W10420  10.192  28.054  14.421
43638W        W10421  17.001  30.909  10.516
43639W        W10422  23.822   6.092   3.246
43640W        W10423  29.109   8.837  12.994
43641W        W10424  12.425  25.152   0.817
43642W        W10425  11.204  34.306   4.063
43643W        W10426   8.595   3.984  12.561
43644W        W10427   5.870  35.961   2.301
43645W        W10428   6.871   4.756   3.340
43646W        W10429  28.450  27.087  14.527
43647W        W10430  27.026  29.004   4.567
43648W        W10431   6.372  12.322  11.925
43649W        W10432  11.729  44.786   3.651
43650W        W10433   0.022   7.150   4.112
43651W        W10434  30.498  16.151  10.670
43652W        W10435  39.828  14.675  12.946
43653W        W10436  41.935  37.385   0.938
43654W        W10437   9.095  31.622  10.467
43655W        W10438  14.760  34.966   4.294
43656W        W10439  34.381  18.704   2.198
43657W        W10440   9.171  30.120   3.688
43658W        W10441  44.443   5.456   2.602
43659W        W10442   8.115  25.433  12.904
43660W        W10443  26.575   5.299   0.497
43661W        W10444  30.206  44.719   2.961
43662W        W10445  32.457  44.494  14.886
43663W        W10446   8.461  18.313  12.583
43664W        W10447  13.209  38.125   3.215
43665W        W10448   6.666  42.508   0.304
43666W        W10449   9.544   7.668   2.593
43667W        W10450  28.075  27.837   5.103
43668W        W10451  15.178  12.772  12.195
43669W        W10452  26.715  19.701  10.879
43670W        W10453   8.240  22.005  14.371
43671W        W10454  15.754   6.094  14.490
43672W        W10455   7.292  42.621  12.073
43673W        W10456  14.918  21.453   1.339
43674W        W10457   2.834   0.228   0.844
43675W        W10458  15.713  40.079  10.508
43676W        W10459  41.252  36.128  11.333
43677W        W10460  43.931   2.255   3.951
43678W        W10461  26.667  18.108   0.203
43679W        W10462  39.371  22.310   1.669
43680W        W10463  34.177  30.003  13.439
43681W        W10464  29.486  31.152   1.221
43682W        W10465  32.608  19.252   2.255
43683W        W10466  25.808  24.140   0.033
43684W        W10467  21.692  12.205  11.311
43685W        W10468   5.850  39.249   3.781
43686W        W10469   5.179   3.255   2.151
43687W        W10470  12.734  31.398   0.203
43688W        W10471  44.006  35.918  11.680
43689W        W10472   9.095   6.279  11.172
43690W        W10473  35.676  27.742  14.299
43691W        W10474  27.673  29.472   3.404
43692W        W10475  15.856  42.483   2.502
43693W        W10476  34.538  24.880   3.143
43694W        W10477   2.667  35.237  10.815
43695W        W10478  40.053  30.254   1.148
43696W        W10479  12.579   5.211  11.230
43697W        W10480  36.431  13.854  12.433
43698W        W10481  31.372  13.103  14.100
43699W        W10482  43.854  14.780   2.668
43700W        W10483  28.885  44.014  12.407
43701W        W10484   9.701  11.590   0.943
43702W        W10485  14.293  31.862   1.383
43703W        W10486  41.574  22.484   1.649
43704W        W10487   1.579  12.711   2.744
43705W        W10488  13.568  13.846   1.303
43706W        W10489  10.106   6.723  14.862
43707W        W10490  44.046  12.013   0.491
43708W        W10491   9.030  34.428   0.395
43709W        W10492  29.095  17.131   4.113
43710W        W10493  13.305  30.657   4.600
43711W        W10494  21.015  43.668  13.026
43712W        W10495  22.098  12.015  13.525
43713W        W10496  43.853  19.481  12.064
43714W        W10497   2.827  27.709   3.704
43715W        W10498  19.406  39.347  10.737
43716W        W10499  26.231  41.688  12.954
43717W        W10500  13.399  10.136   2.368
43718W        W10501  29.715  38.701  11.110
43719W        W10502  29.181  21.527  11.598
43720W        W10503  44.534  23.557   3.208
43721W        W10504  27.626  25.862  10.175
43722W        W10505  39.330  44.842   3.819
43723W        W10506  15.087  38.048   4.824
43724W        W10507  21.997  13.733  14.880
43725W        W10508  33.042  10.860   2.206
43726W        W10509  20.152  21.909  12.531
43727W        W10510  42.909  35.836   0.242
43728W        W10511  11.069  38.895  12.973
43729W        W10512  35.803   8.706  10.792
43730W        W10513  44.574   7.374   4.929
43731W        W10514  37.390  31.194  11.226
43732W        W10515   2.092  37.272   5.174
43733W        W10516  42.483  13.712  12.359
43734W        W10517  30.574  41.767  12.531
43735W        W10518  38.379  14.226  10.778
43736W        W10519  24.759  25.166   3.585
43737W        W10520  41.976  18.057   0.523
43738W        W10521  27.932  40.000   3.626
43739W        W10522   0.069  11.137  12.501
43740W        W10523  37.539  34.990  12.971
43741W        W10524   5.333  39.557   2.703
43742W        W10525  28.586  18.292   4.022
43743W        W10526  34.844  16.515  13.464
43744W        W10527   1.880   9.582  11.629
43745W        W10528   3.973  35.334  11.543
43746W        W10529  25.119  27.013  13.930
43747W        W10530  13.288  21.623  14.351
43748W        W10531   6.341  16.721   0.325
43749W        W10532  17.186  22.569  12.563
43750W        W10533  31.080  29.335  10.280
43751W        W10534  16.117  28.985  11.012
43752W        W10535  14.903  23.997  12.877
43753W        W10536   0.657  24.763   4.179
43754W        W10537  19.232  26.150   4.515
43755W        W10538  23.722  23.386   3.872
43756W        W10539  16.042  37.371   0.252
43757W        W10540  21.292   6.710  12.985
43758W        W10541  27.275   2.880   0.372
43759W        W10542  15.346  43.310  14.008
43760W        W10543  43.880   2.981   0.448
43761W        W10544  16.181  23.079   4.632
43762W        W10545   6.845  11.139  12.546
43763W        W10546  15.803  21.462  12.301
43764W        W10547  44.342  20.043  14.957
43765W        W10548  17.601  22.751   4.702
43766W        W10549  33.689  17.234   4.185
43767W        W10550  29.501  41.879  14.423
43768W        W10551   6.851  33.322  11.073
43769W        W10552  29.413  10.501  11.575
43770W        W10553  27.713  38.008  14.311
43771W        W10554  30.564  31.439  14.339
43772W        W10555  20.393   2.893   9.848
43773W        W10556  38.568  40.858   2.745
43774W        W10557  13.463  28.155  11.103
43775W        W10558   6.952  13.037   1.366
43776W        W10559  34.453   1.612   0.151
43777W        W10560  30.445  11.358   0.727
43778W        W10561  12.281  37.626  11.417
43779W        W10562  36.406  13.876  13.780
43780W        W10563  38.396  37.042   3.656
43781W        W10564  38.945  31.083  13.525
43782W        W10565  14.399  34.072  13.796
43783W        W10566  37.547  17.065  13.286
43784W        W10567  33.380  19.278   1.857
43785W        W10568  32.995  21.952   4.903
43786W        W10569  41.880  39.659  12.967
43787W        W10570   6.465  33.824   3.418
43788W        W10571   1.819  26.422   1.303
43789W        W10572  19.487   3.457   4.715
43790W        W10573   9.299  40.801  14.852
43791W        W10574   5.340  19.812   1.036
43792W        W10575  18.015  25.133   2.705
43793W        W10576  44.355  39.490   3.070
43794W        W10577   7.200  32.550   1.393
43795W        W10578  26.742  13.344   2.892
43796W        W10579  33.410  32.950  11.925
43797W        W10580  12.615   7.607  14.237
43798W        W10581   0.914  25.570  14.002
43799W        W10582  39.807  35.406   3.279
43800W        W10583  42.304   2.423   3.642
43801W        W10584   3.489  37.762   4.147
43802W        W10585  15.798  14.803  10.305
43803W        W10586  24.962  39.290  15.000
43804W        W10587  24.059  19.064  13.480
43805W        W10588   9.467   9.560   0.283
43806W        W10589  38.048   0.389  10.783
43807W        W10590  25.966  17.714  14.436
43808W        W10591  35.063   4.624  14.807
43809W        W10592  34.118  18.792   0.198
43810W        W10593  10.244   5.257   2.836
43811W        W10594  14.450   5.885  13.870
43812W        W10595  12.064   8.151   2.609
43813W        W10596  28.319  11.878  11.954
43814W        W10597  42.618  41.026   2.552
43815W        W10598  32.159  29.946  13.642
43816W        W10599  26.199  43.467  14.804
43817W        W10600   0.746  40.949  14.659
43818W        W10601  39.128  31.982   2.072
43819W        W10602  44.341  37.145  14.412
43820W        W10603   9.568   4.446  13.536
43821W        W10604   9.647  11.906  11.641
43822W        W10605  29.067  39.802   1.769
43823W        W10606  41.885   6.346  11.357
43824W        W10607  25.232  25.286  14.968
43825W        W10608  31.885  16.700   4.514
43826W        W10609  29.671  36.513  10.628
43827W        W10610  41.261  18.711   1.875
43828W        W10611  37.296  42.975  12.488
43829W        W10612  34.249  42.051  12.540
43830W        W10613  44.291  42.152   3.270
43831W        W10614  11.754  33.715  14.052
43832W        W10615  16.940   0.705   9.870
43833W        W10616   7.922  16.545  10.702
43834W        W10617   3.028  14.550  14.978
43835W        W10618   0.055  35.925   1.760
43836W        W10619  31.097  28.254  12.852
43837W        W10620  20.109  32.015   3.731
43838W        W10621  23.154  42.918  12.784
43839W        W10622   6.389   1.749   4.264
43840W        W10623  42.689  37.493  11.162
43841W        W10624  13.787  19.351   3.558
43842W        W10625   4.697  29.536   1.821
43843W        W10626  23.830   6.357  13.831
43844W        W10627  19.305  31.185  11.617
43845W        W10628   0.361   5.134  13.276
43846W        W10629   0.444  37.310   4.493
43847W        W10630  14.327  37.932   0.087
43848W        W10631  23.250  27.602   1.616
43849W        W10632  27.389  39.337  10.345
43850W        W10633  44.921   6.421  12.655
43851W        W10634  16.933  31.535  14.902
43852W        W10635  11.907  14.321   2.695
43853W        W10636  36.495  12.933  13.995
43854W        W10637  28.236  31.133  13.289
43855W        W10638   7.749  38.139   1.923
43856W        W10639  24.062  22.417   4.008
43857W        W10640  25.044  37.068  11.157
43858W        W10641  16.240  10.399   4.504
43859W        W10642   1.965   9.053   1.306
43860W        W10643  19.989  41.824   2.371
43861W        W10644  15.641   8.094   3.625
43862W        W10645   0.030  40.181   3.941
43863W        W10646  31.038  19.201   1.507
43864W        W10647   5.745   4.436   3.627
43865W        W10648   7.750  24.960  14.733
43866W        W10649  24.956  14.713   4.564
43867W        W10650  16.077  36.307   5.295
43868W        W10651  19.977  21.693  14.928
43869W        W10652  14.109  13.117  14.499
43870W        W10653  14.186  33.266  13.609
43871W        W10654   2.971  31.890  14.419
43872W        W10655  35.312   9.264  10.578
43873W        W10656  28.729  44.061   2.214
43874W        W10657  37.818  32.673  12.136
43875W        W10658  33.930  12.623   1.773
43876W        W10659   4.381   6.364  10.816
43877W        W10660  34.216   9.816   4.583
43878W        W10661  25.193   0.396   4.653
43879W        W10662  28.477  38.455   0.750
43880W        W10663  36.672  17.075   5.028
43881W        W10664  13.351  30.572   0.233
43882W        W10665  33.736   3.027   1.806
43883W        W10666  38.804   2.428  11.398
43884W        W10667  16.809   8.873   4.653
43885W        W10668  41.830  34.391  12.084
43886W        W10669  39.383  37.905   3.974
43887W        W10670   8.934  32.789  12.194
43888W        W10671   7.318  22.487  12.840
43889W        W10672  34.191  39.737   4.095
43890W        W10673  12.809  39.266   2.222
43891W        W10674   9.248  31.992   0.900
43892W        W10675  13.103   2.762   0.469
43893W        W10676  24.254  32.104   0.678
43894W        W10677  32.247   7.470  14.468
43895W        W10678  39.802  38.527   3.375
43896W        W10679  39.993  12.547   0.732
43897W        W10680   8.937  14.333   3.201
43898W        W10681   2.186  34.223   1.003
43899W        W10682  28.102  41.226   4.119
43900W        W10683  42.241  21.070  11.138
43901W        W10684  14.249  23.448  10.717
43902W        W10685   8.121  27.275  11.463
43903W        W10686  31.364  36.000  12.498
43904W        W10687  21.174  28.221   0.009
43905W        W10688  19.828   3.431  12.102
43906W        W10689  36.416  38.435  11.060
43907W        W10690  18.158  31.394   0.531
43908W        W10691   8.755  30.221  14.411
43909W        W10692  42.420  33.881   2.846
43910W        W10693  10.430  41.911  11.497
43911W        W10694  14.930  31.008  14.218
43912W        W10695  41.842  43.225  14.936
43913W        W10696  11.985  24.984  14.882
43914W        W10697  40.549  27.961  12.465
43915W        W10698  41.599  38.009   4.321
43916W        W10699   3.923  41.277   1.362
43917W        W10700  32.084  17.187   4.621
43918W        W10701  23.738   3.149   2.265
43919W        W10702  23.522   1.457  12.753
43920W        W10703  30.886   1.275  12.032
43921W        W10704  11.576  12.635   1.759
43922W        W10705   9.470  22.219   1.624
43923W        W10706  36.545  41.032   1.900
43924W        W10707  24.009  44.861   4.198
43925W        W10708  20.174  42.226   0.252
43926W        W10709  22.458  30.220  12.824
43927W        W10710  37.488  13.267   1.359
43928W        W10711   1.681   0.203   1.701
43929W        W10712  37.575  44.241  11.014
43930W        W10713   7.830   3.308   0.247
43931W        W10714   4.801   1.917  12.032
43932W        W10715   2.476  42.775   2.922
43933W        W10716  33.522  32.913   2.712
43934W        W10717  36.625  20.212   4.693
43935W        W10718   2.269  27.679  11.143
43936W        W10719  30.682   7.451   3.142
43937W        W10720  14.998   0.438  14.306
43938W        W10721   6.357   8.657   0.862
43939W        W10722  17.106  35.776   3.278
43940W        W10723  16.260  41.017  13.849
43941W        W10724   9.802  23.285   3.132
43942W        W10725   7.686  27.429   1.345
43943W        W10726  43.565  18.009   1.974
43944W        W10727  10.674  40.581   2.817
43945W        W10728  20.748  35.419  14.508
43946W        W10729   3.230  15.665  13.754
43947W        W10730  12.751  26.963   0.318
43948W        W10731  20.145  23.358  13.588
43949W        W10732   4.882   2.107  12.505
43950W        W10733   3.325  29.447   3.166
43951W        W10734   2.813   3.975  12.914
43952W        W10735  19.445  42.741   1.384
43953W        W10736  33.650   0.976   1.808
43954W        W10737  39.321   4.688   3.616
43955W        W10738  22.709  38.299   2.850
43956W        W10739  21.139  24.670   0.313
43957W        W10740   6.392  21.640  14.853
43958W        W10741  16.646  17.340   1.188
43959W        W10742   3.735  43.359  12.419
43960W        W10743  39.497  22.568  13.105
43961W        W10744   4.838   9.137  11.984
43962W        W10745   5.341  40.375   2.303
43963W        W10746  40.529  43.911   1.237
43964W        W10747  18.627  15.126  10.379
43965W        W10748  40.858  17.267  11.452
43966W        W10749  44.788  13.329   2.967
43967W        W10750   1.894  43.458  11.674
43968W        W10751   3.425  42.113  12.973
43969W        W10752  35.051  42.790  11.956
43970W        W10753   5.970  29.961   0.309
43971W        W10754  11.290  42.218   0.414
43972W        W10755   0.994  35.011   3.659
43973W        W10756   6.395  13.563   1.179
43974W        W10757   8.348  43.310  14.986
43975W        W10758  36.814  32.223  14.926
43976W        W10759  10.744  36.826   0.292
43977W        W10760   5.274  15.669   1.700
43978W        W10761   8.109  39.560  10.717
43979W        W10762   4.403  35.616   4.179
43980W        W10763  43.548  13.363   1.817
43981W        W10764   9.927  14.426  11.675
43982W        W10765   7.621  16.620   3.817
43983W        W10766   4.387  18.144   1.860
43984W        W10767   5.392   3.213   3.646
43985W        W10768  40.877  38.729   3.434
43986W        W10769  32.946  21.966   4.061
43987W        W10770   3.348  34.927  14.893
43988W        W10771  19.663  37.670   0.998
43989W        W10772  27.871  32.422  11.201
43990W        W10773  27.404  35.417   0.425
43991W        W10774  19.186  16.314   3.317
43992W        W10775  20.434  14.129   1.502
43993W        W10776  31.269  36.156  12.959
43994W        W10777  44.266   6.255  14.374
43995W        W10778  43.874  27.618  14.446
43996W        W10779  26.207  30.994   2.880
43997W        W10780  14.556  23.567  14.226
43998W        W10781  41.519  38.289   0.024
43999W        W10782  26.565  42.454  14.737
44000W        W10783  38.338  16.786  13.802
44001W        W10784  37.389  32.156  11.678
44002W        W10785  15.948  10.405   3.371
44003W        W10786   4.010  12.109   2.308
44004W        W10787  39.575  22.939   2.328
44005W        W10788  23.706  41.004   2.351
44006W        W10789   7.701   5.580   4.484
44007W        W10790  25.890  38.017   1.868
44008W        W10791  39.953  30.434  14.445
44009W        W10792  41.990  14.386   0.913
44010W        W10793  17.581  42.463   0.939
44011W        W10794  13.129   2.230  13.758
44012W        W10795  32.451   1.259   2.198
44013W        W10796  27.699  26.969  10.938
44014W        W10797   9.859  40.736  14.469
44015W        W10798  30.867  24.927  11.596
44016W        W10799  22.629  22.526   4.665
44017W        W10800  28.208  34.946   0.022
44018W        W10801  34.971   0.183   4.258
44019W        W10802  18.267  24.645  14.973
44020W        W10803   4.534  29.798   2.655
44021W        W10804  29.013   4.994   0.830
44022W        W10805  11.951  37.908  11.117
44023W        W10806  41.956   2.824   1.326
44024W        W10807  43.138   0.743   2.944
44025W        W10808  30.991   0.300  14.518
44026W        W10809   4.781  37.991   3.751
44027W        W10810   7.061  42.581  11.234
44028W        W10811   2.013  41.074  13.568
44029W        W10812   1.841  18.596  14.343
44030W        W10813   0.004  30.617   0.259
44031W        W10814  12.198  16.769  14.984
44032W        W10815   2.749  26.578   2.710
44033W        W10816  18.004   1.681  12.989
44034W        W10817   9.783  28.682   3.756
44035W        W10818  25.756  25.233   2.292
44036W        W10819  27.690  25.609  12.617
44037W        W10820  29.236   3.912   3.757
44038W        W10821  11.719   7.808  11.767
44039W        W10822   9.764  21.210  14.021
44040W        W10823   5.563   5.131  13.117
44041W        W10824  26.028   0.784  12.950
44042W        W10825  40.734  29.438   2.784
44043W        W10826  38.539  44.319  14.396
44044W        W10827  17.174  26.011  14.320
44045W        W10828  11.687  41.072   0.900
44046W        W10829  16.547  15.125   3.462
44047W        W10830   8.352   5.261   0.285
44048W        W10831  24.466  19.038   1.628
44049W        W10832  42.826  21.518   0.580
44050W        W10833  30.393  31.144  11.852
44051W        W10834  24.763  14.808   3.701
44052W        W10835  29.981  13.144   1.449
44053W        W10836  22.494  17.798  13.456
44054W        W10837  10.763   7.677   0.230
44055W        W10838  10.822   5.831  14.053
44056W        W10839  24.559  43.294  13.569
44057W        W10840  32.992  19.011  13.854
44058W        W10841  14.275  26.704  11.628
44059W        W10842   2.574  39.505  13.308
44060W        W10843  19.827   2.329  11.500
44061W        W10844  19.504  21.892   4.444
44062W        W10845   1.279  39.475   4.345
44063W        W10846   4.692  28.922  10.134
44064W        W10847  31.282  28.359   9.943
44065W        W10848  42.695  28.146   1.380
44066W        W10849  27.608  15.220  10.580
44067W        W10850  14.057  20.030  11.304
44068W        W10851   4.305  36.386   4.865
44069W        W10852   3.828  34.485  10.620
44070W        W10853   3.538   6.052  12.873
44071W        W10854   8.334  33.376  10.204
44072W        W10855  44.877  24.090   3.694
44073W        W10856  42.772  23.195   0.680
44074W        W10857  14.328  33.229  12.061
44075W        W10858  39.104  30.054   0.827
44076W        W10859  31.424  44.709  11.159
44077W        W10860  13.327  40.810   3.796
44078W        W10861  21.128   6.788   1.212
44079W        W10862  11.953   8.807  11.708
44080W        W10863  35.973  27.143   3.676
44081W        W10864  19.335  30.446   2.216
44082W        W10865   1.890   7.839  10.708
44083W        W10866  18.059   5.170  10.696
44084W        W10867  32.562  41.262   0.651
44085W        W10868  12.644  37.239   0.268
44086W        W10869  17.809   7.675  14.419
44087W        W10870  34.044  23.669  12.830
44088W        W10871   9.636   2.392   2.653
44089W        W10872  36.267  10.704  13.471
44090W        W10873   1.160  32.901   2.851
44091W        W10874   1.306  22.960  12.741
44092W        W10875   4.332  41.252   0.756
44093W        W10876  32.888  41.654   2.707
44094W        W10877  25.568   7.682  10.766
44095W        W10878  38.647  23.339  13.512
44096W        W10879  18.901  21.071  11.394
44097W        W10880  41.737   6.484   0.922
44098W        W10881  18.624  15.208   3.708
44099W        W10882   2.875  27.081   3.522
44100W        W10883  22.216  18.319  12.459
44101W        W10884   2.668   9.905  11.144
44102W        W10885   4.706  12.915   0.934
44103W        W10886  10.036  15.351  14.891
44104W        W10887  24.274   8.005  13.923
44105W        W10888  25.709   8.846  13.217
44106W        W10889   2.496  34.159   3.085
44107W        W10890  33.707  15.144   0.335
44108W        W10891  36.566  38.859   1.852
44109W        W10892   6.965   2.164  10.959
44110W        W10893  12.092  17.625   2.857
44111W        W10894  21.393  14.829  12.499
44112W        W10895  31.550  30.192  14.949
44113W        W10896  34.894  21.187  14.974
44114W        W10897   2.359   3.729  12.838
44115W        W10898  32.472  12.647   4.621
44116W        W10899  43.426   5.119  11.672
44117W        W10900  24.162  14.070   2.224
44118W        W10901  38.083  14.672  10.576
44119W        W10902  35.167  21.064  11.966
44120W        W10903  24.648  41.747   0.613
44121W        W10904   1.467  17.755   3.650
44122W        W10905   4.734  44.755   2.683
44123W        W10906  38.421   8.850   2.833
44124W        W10907  29.425  23.686  13.511
44125W        W10908  38.922  42.754  14.764
44126W        W10909   1.850  35.983  12.714
44127W        W10910  44.457   6.753   0.508
44128W        W10911  41.922   5.936   2.423
44129W        W10912  14.651  37.607  14.144
44130W        W10913  38.829  14.731   0.349
44131W        W10914  24.708  32.018   2.886
44132W        W10915   6.421  24.696  13.556
44133W        W10916  38.107  11.703  14.631
44134W        W10917  37.180  30.157   4.110
44135W        W10918   6.778  40.477   3.248
44136W        W10919  18.646  40.412   1.086
44137W        W10920  25.604   9.661   3.290
44138W        W10921   9.586  41.017   1.308
44139W        W10922  41.459  35.868  10.685
44140W        W10923  44.253  22.164   3.136
44141W        W10924  44.993  11.272  14.479
44142W        W10925   4.645  28.840  10.659
44143W        W10926  37.816   2.185   0.247
44144W        W10927   5.864  22.012  13.637
44145W        W10928   5.297  34.210   2.246
44146W        W10929  19.904  40.945  10.707
44147W        W10930  38.071  10.300   3.381
44148W        W10931  20.235   8.838  14.295
44149W        W10932  36.248   7.516  11.230
44150W        W10933   8.882   4.068  12.968
44151W        W10934  42.591  32.675  11.811
44152W        W10935  16.751  14.671   3.276
44153W        W10936   9.211   2.793  14.328
44154W        W10937  25.987   4.446   1.956
44155W        W10938   5.657  25.413   2.201
44156W        W10939  26.848  40.667   1.025
44157W        W10940  11.713  33.046  14.002
44158W        W10941  34.571  37.804   3.108
44159W        W10942  16.774  36.309   4.638
44160W        W10943  23.677  23.558   0.847
44161W        W10944  35.438  24.624  14.174
44162W        W10945   3.270   7.915   1.168
44163W        W10946  13.234  39.326   1.943
44164W        W10947  12.505  21.195   2.430
44165W        W10948  24.600  30.381  10.487
44166W        W10949   2.811  25.644  12.918
44167W        W10950  19.273   8.770  14.458
44168W        W10951   4.866   0.984  14.042
44169W        W10952  34.643  19.616   2.344
44170W        W10953  35.179  21.523  12.592
44171W        W10954  39.044  35.127   4.525
44172W        W10955  40.733  10.716   0.177
44173W        W10956   8.427   3.317  11.022
44174W        W10957  25.747  16.143   2.751
44175W        W10958   2.281  44.383   4.995
44176W        W10959  18.013   3.742  14.012
44177W        W10960  27.931  17.231  14.345
44178W        W10961  10.745  32.902   3.965
44179W        W10962  36.385  32.214   3.603
44180W        W10963  38.536  32.070   3.328
44181W        W10964  42.432  21.303  13.370
44182W        W10965  12.143  31.944  13.536
44183W        W10966  44.902  39.869   2.813
44184W        W10967  19.556  11.638   1.672
44185W        W10968  37.660  10.070  14.806
44186W        W10969  14.671  41.277  11.188
44187W        W10970  35.458  32.503   0.047
44188W        W10971  16.059  15.835   0.363
44189W        W10972  27.993  28.352  13.401
44190W        W10973  41.829  27.028   3.848
44191W        W10974  21.739  41.617   2.856
44192W        W10975   3.560  28.393   4.515
44193W        W10976   8.155  19.532   1.256
44194W        W10977  19.234  17.442  13.697
44195W        W10978  44.099  10.899   4.489
44196W        W10979  12.232  42.534  11.987
44197W        W10980  42.599   0.281   0.773
44198W        W10981  37.990  18.174   4.962
44199W        W10982  34.645  34.384   3.191
44200W        W10983  25.653  37.911  10.607
44201W        W10984  10.470  13.895   4.246
44202W        W10985   9.229  33.477   0.897
44203W        W10986   5.796  11.764   4.565
44204W        W10987  36.476   4.743   4.625
44205W        W10988  44.028  27.935  10.745
44206W        W10989  21.864  14.084  12.075
44207W        W10990  41.288  37.897  13.483
44208W        W10991   9.601  41.083   3.863
44209W        W10992  19.147  10.205  14.447
44210W        W10993  27.119  18.272   4.402
44211W        W10994   0.823  12.601  11.531
44212W        W10995  38.541   5.218  12.825
44213W        W10996   9.857   0.399   2.409
44214W        W10997  25.425   7.300  14.430
44215W        W10998  12.211  27.212   2.322
44216W        W10999  18.204  43.877   4.628
44217W        W11000  33.225  33.543  11.661
44218W        W11001  13.135   1.224   1.969
44219W        W11002  29.935  25.011  11.684
44220W        W11003  37.831  17.561   1.325
44221W        W11004  35.958  12.264   0.709
44222W        W11005   8.759  23.263   0.281
44223W        W11006  43.325  24.488  14.401
44224W        W11007  15.684  37.096   3.121
44225W        W11008  14.631  20.749   3.832
44226W        W11009  19.543  41.380  14.700
44227W        W11010   9.851  25.991  11.709
44228W        W11011  42.474  17.198  11.471
44229W        W11012  14.554   7.078  13.107
44230W        W11013  11.658  36.805   0.517
44231W        W11014  43.066  36.417  12.475
44232W        W11015  10.536  16.741   2.896
44233W        W11016  12.686  20.784  11.138
44234W        W11017  39.343  22.712  13.983
44235W        W11018  14.928  39.615  11.461
44236W        W11019  15.271  35.971  10.805
44237W        W11020   5.198  12.104  13.415
44238W        W11021  16.836  27.222  12.959
44239W        W11022  32.114  36.224  14.754
44240W        W11023  15.066  20.292   2.101
44241W        W11024  30.826  11.126   3.271
44242W        W11025   6.117  36.496  14.037
44243W        W11026   5.926  18.422  14.026
44244W        W11027  42.958  24.544  12.978
44245W        W11028  12.311  11.403  12.439
44246W        W11029   2.383  30.659   0.026
44247W        W11030  22.536  19.370   0.320
44248W        W11031   2.683  40.716  12.510
44249W        W11032  21.676  34.354  14.317
44250W        W11033   2.276   8.189   3.079
44251W        W11034  37.449  36.046  11.537
44252W        W11035  33.869   1.374   2.294
44253W        W11036  21.328  28.614  12.957
44254W        W11037   3.294  35.135   1.341
44255W        W11038  17.042  21.146  14.918
44256W        W11039   7.339   2.524   2.665
44257W        W11040  41.792  42.212   1.512
44258W        W11041  13.161  31.043   1.508
44259W        W11042  12.901  20.584   3.191
44260W        W11043  40.264  11.180   0.406
44261W        W11044   4.825   0.074  14.000
44262W        W11045  15.696  30.972   3.687
44263W        W11046  30.148  19.892   2.142
44264W        W11047  35.897  31.784   1.293
44265W        W11048  11.798  11.314   1.474
44266W        W11049   2.395  42.791  13.347
44267W        W11050  27.866  30.485  13.779
44268W        W11051  25.623  14.810   4.078
44269W        W11052  16.064  34.114   2.553
44270W        W11053   5.700  35.330   4.671
44271W        W11054   6.823  11.650  11.643
44272W        W11055   4.363  44.828  14.769
44273W        W11056   3.923  10.431   3.105
44274W        W11057  37.648  15.957   3.089
44275W        W11058  17.568  21.740  13.274
44276W        W11059  29.688  18.811   1.362
44277W        W11060  20.729  34.119  13.885
44278W        W11061  40.844  20.101  12.103
44279W        W11062  22.086  37.639   2.636
44280W        W11063  27.069  22.091   4.463
44281W        W11064  26.427  19.169  11.148
44282W        W11065  42.736   2.850  14.480
44283W        W11066  11.643  21.963   2.772
44284W        W11067  34.703  40.295  11.190
44285W        W11068  10.824  32.651   4.892
44286W        W11069  39.862   6.495  14.959
44287W        W11070  33.766  39.364   4.094
44288W        W11071   2.690   0.674  12.667
44289W        W11072   8.195  25.944  12.810
44290W        W11073  18.922  38.928  11.604
44291W        W11074  30.828  11.667   0.508
44292W        W11075  33.863   5.659   2.187
44293W        W11076   0.139  12.275   4.910
44294W        W11077  38.917  39.856   1.745
44295W        W11078  29.091  41.499   0.006
44296W        W11079  39.288  42.885   4.100
44297W        W11080   9.286  26.670   0.319
44298W        W11081  36.060  26.981  11.389
44299W        W11082  16.100  31.809  12.059
44300W        W11083  35.509  30.640   3.709
44301W        W11084  44.946  12.177  12.102
44302W        W11085  11.746   4.434   1.890
44303W        W11086  40.068  11.273  11.980
44304W        W11087  28.694  25.445   0.763
44305W        W11088  13.034  23.644  12.162
44306W        W11089  12.643  26.938   4.115
44307W        W11090  10.560  21.994   1.001
44308W        W11091  20.741   0.370   3.240
44309W        W11092  10.218  36.178  14.049
44310W        W11093  21.671  38.305  11.966
44311W        W11094  43.402  23.532   1.699
44312W        W11095  41.524  15.595   0.043
44313W        W11096  36.104  41.297   0.491
44314W        W11097  20.579  44.174  10.993
44315W        W11098  15.165   9.917   1.309
44316W        W11099   4.837  11.116  11.440
44317W        W11100  24.705  10.738  13.435
44318W        W11101  15.987  15.898   3.503
44319W        W11102   6.483  19.515  14.729
44320W        W11103  28.647  38.595  12.651
44321W        W11104   9.332  13.278   1.251
44322W        W11105   9.132  20.892  11.227
44323W        W11106  37.375  34.398  12.579
44324W        W11107  40.654   2.930  12.909
44325W        W11108  39.026  21.471   3.124
44326W        W11109  33.775  26.199  12.576
44327W        W11110   1.052   6.919  13.143
44328W        W11111   5.208  22.681  14.538
44329W        W11112  34.142  23.408  12.387
44330W        W11113  40.084  15.159  12.182
44331W        W11114  28.733  36.996   1.999
44332W        W11115  10.872  41.383   0.423
44333W        W11116   1.951  31.228  11.032
44334W        W11117   2.483  22.611  12.864
44335W        W11118  44.911  40.818  13.010
44336W        W11119  19.728  10.624   4.711
44337W        W11120  11.160   0.995  13.491
44338W        W11121  17.017  28.341   2.690
44339W        W11122  18.190   4.590  12.979
44340W        W11123  41.560  21.731  11.416
44341W        W11124   2.802   9.334   0.829
44342W        W11125  21.871  25.478   1.588
44343W        W11126  36.021  32.161   2.865
44344W        W11127  35.087  29.141   1.618
44345W        W11128  15.471  31.876   3.760
44346W        W11129   3.236  34.923  12.428
44347W        W11130  23.614   5.753   0.461
44348W        W11131   6.295  32.612   0.899
44349W        W11132  44.268  19.316   1.790
44350W        W11133  25.488  26.144   0.859
44351W        W11134  13.402  40.978   0.274
44352W        W11135  14.800  13.181   2.049
44353W        W11136  17.113  16.118  10.296
44354W        W11137  37.409   1.027   1.967
44355W        W11138  12.833  27.225  14.816
44356W        W11139  13.622  12.411  11.307
44357W        W11140  35.972  36.846  12.096
44358W        W11141  35.607  36.466   0.443
44359W        W11142   2.971   8.062  11.643
44360W        W11143  13.734  29.375   0.802
44361W        W11144  10.054  39.625   3.138
44362W        W11145  32.851  36.576  11.028
44363W        W11146  14.945  39.431  13.924
44364W        W11147  43.123   8.501   3.856
44365W        W11148   5.973   4.887   3.759
44366W        W11149   5.398  18.508   3.842
44367W        W11150  21.646   9.601   3.838
44368W        W11151  16.278   7.916  14.006
44369W        W11152   7.914  35.376   2.271
44370W        W11153   8.820  24.366  11.989
44371W        W11154  36.357  42.589   2.203
44372W        W11155  31.011  32.230  13.382
44373W        W11156   7.198  27.979   4.145
44374W        W11157   9.859  11.711   3.677
44375W        W11158  21.639   5.081   0.005
44376W        W11159  39.121  38.622   4.486
44377W        W11160  24.691  34.197   1.178
44378W        W11161  28.735  26.983   3.180
44379W        W11162  10.198  15.486  14.374
44380W        W11163  37.239  27.363   0.937
44381W        W11164   9.929  25.749  12.160
44382W        W11165   4.952  37.892   4.246
44383W        W11166  19.372  41.445  11.952
44384W        W11167   5.319  22.125   1.859
44385W        W11168  28.079   4.706   1.877
44386W        W11169  32.185  26.768  14.083
44387W        W11170  37.896  24.363  12.499
44388W        W11171   1.445   2.401   3.556
44389W        W11172  23.075  21.192  10.698
44390W        W11173  16.360  31.399   4.812
44391W        W11174  32.360  29.650  11.996
44392W        W11175   9.294  24.622   1.452
44393W        W11176  18.023  20.575   1.467
44394W        W11177   1.050   2.986   4.343
44395W        W11178   9.940  27.581   0.673
44396W        W11179  24.280   3.445  11.595
44397W        W11180  11.430   3.576   0.943
44398W        W11181  25.524  15.681  13.024
44399W        W11182  14.764  14.679   3.931
44400W        W11183  37.811  41.417   2.680
44401W        W11184  40.968  19.786   0.759
44402W        W11185  42.124  31.100  11.352
44403W        W11186  10.930   9.832  12.407
44404W        W11187  42.865  39.597  13.871
44405W        W11188  18.285  13.798   2.820
44406W        W11189  43.874   4.228  14.861
44407W        W11190   6.823  12.857   3.654
44408W        W11191  10.679   4.319  10.643
44409W        W11192  20.045  44.799  12.937
44410W        W11193  12.284  43.056  14.745
44411W        W11194  20.029  11.397   4.359
44412W        W11195  41.454  37.587   3.782
44413W        W11196   5.981  15.933   1.255
44414W        W11197   5.186  19.495   2.206
44415W        W11198  13.459  13.726  13.211
44416W        W11199   5.285   9.741  13.802
44417W        W11200  18.233  11.269  12.985
44418W        W11201  40.850   9.764  14.844
44419W        W11202   5.774  23.027  14.545
44420W        W11203  23.155  33.805   1.748
44421W        W11204  16.121  41.268   4.317
44422W        W11205  14.841  12.199   3.812
44423W        W11206  26.235  13.840  12.724
44424W        W11207  27.350  38.545   1.440
44425W        W11208  12.032  33.046  12.403
44426W        W11209  40.413  19.633  11.524
44427W        W11210  22.754   6.742  14.283
44428W        W11211  29.968  19.162   4.719
44429W        W11212   0.552  12.328   0.429
44430W        W11213   8.152  22.597  12.312
44431W        W11214  29.658  12.046   4.621
44432W        W11215   4.240  12.754  11.082
44433W        W11216  22.943  41.840  11.821
44434W        W11217  13.173  33.521  14.963
44435W        W11218   6.321  41.874   4.658
44436W        W11219   2.971  26.649  10.606
44437W        W11220  37.115  28.302  12.016
44438W        W11221  18.899  11.568   0.251
44439W        W11222  24.973  37.977   0.175
44440W        W11223  12.315  13.661   2.247
44441W        W11224  20.593  18.659   5.379
44442W        W11225  25.520  15.375  14.554
44443W        W11226  35.092  18.676  11.548
44444W        W11227  23.590  44.674   3.098
44445W        W11228   7.365  31.351  10.626
44446W        W11229  32.458  40.628   4.409
44447W        W11230   1.688  18.288  12.537
44448W        W11231   7.787  33.625  13.816
44449W        W11232  11.303  44.449  13.552
44450W        W11233  20.683   8.669  13.587
44451W        W11234  25.732  31.137   2.156
44452W        W11235  15.198   1.871   2.851
44453W        W11236   8.468  13.898  14.329
44454W        W11237  34.789   0.835   0.218
44455W        W11238  10.779  41.378  12.913
44456W        W11239  38.500  26.583  13.802
44457W        W11240  11.421  40.281   2.231
44458W        W11241  10.686  40.274   1.410
44459W        W11242  29.707  33.218   4.612
44460W        W11243  28.623  37.658  12.000
44461W        W11244  33.380  23.015  12.837
44462W        W11245   4.680  41.298  13.019
44463W        W11246  17.503  28.527   2.732
44464W        W11247  32.820  15.730  11.493
44465W        W11248  42.381  37.483  13.939
44466W        W11249  22.665  22.714   4.182
44467W        W11250  20.725   6.916  14.564
44468W        W11251   6.947  34.596   0.877
44469W        W11252   1.833  27.657   2.833
44470W        W11253  23.145  25.170   3.695
44471W        W11254  29.152  43.330  11.675
44472W        W11255  36.028  40.679   3.139
44473W        W11256  38.010  33.437  10.647
44474W        W11257  33.780  40.307   2.158
44475W        W11258  32.562   6.169  12.527
44476W        W11259  26.070  43.862   1.405
44477W        W11260  43.184   5.811  12.402
44478W        W11261   4.945  18.855  11.942
44479W        W11262  24.207  29.268  12.644
44480W        W11263  18.770  43.580  12.871
44481W        W11264  17.739  23.227  13.363
44482W        W11265  19.455  25.098   4.360
44483W        W11266  31.107  32.032  12.905
44484W        W11267  44.757  16.941   2.118
44485W        W11268  14.663  12.558   4.541
44486W        W11269  25.508  37.550  11.600
44487W        W11270  13.230  26.446  10.984
44488W        W11271   2.287   7.764  12.540
44489W        W11272   3.012   7.540   1.672
44490W        W11273  20.276   5.787   2.435
44491W        W11274  17.128  22.799   5.099
44492W        W11275  35.474  22.627  10.711
44493W        W11276   2.545  25.925  11.510
44494W        W11277   2.010  11.358  14.321
44495W        W11278   9.798   9.477   2.297
44496W        W11279  33.283  19.193   3.471
44497W        W11280  33.973   2.364  14.021
44498W        W11281  22.140  29.646   3.519
44499W        W11282   2.672  30.566  12.449
44500W        W11283  25.031   2.440  12.926
44501W        W11284  44.434  34.016  12.877
44502W        W11285  13.135   3.757  10.827
44503W        W11286  34.081   9.770   1.557
44504W        W11287  10.145  25.395  12.461
44505W        W11288  35.522  42.986  12.023
44506W        W11289  23.570  42.572  11.351
44507W        W11290  38.147   2.647   4.247
44508W        W11291  23.313  13.877   0.303
44509W        W11292  19.176  29.427   1.285
44510W        W11293  19.316  24.747  12.453
44511W        W11294  31.022   0.336  12.930
44512W        W11295  26.073  12.862  13.774
44513W        W11296  23.243  24.290   2.457
44514W        W11297  43.078  30.003   0.263
44515W        W11298  20.794   5.324   2.754
44516W        W11299  25.502  35.861  12.573
44517W        W11300  32.459  22.180  13.475
44518W        W11301  33.161   0.900   1.678
44519W        W11302  43.041  30.932   3.846
44520W        W11303  43.453  14.138   2.241
44521W        W11304  26.503  23.807   3.629
44522W        W11305  33.884  36.176  11.669
44523W        W11306   4.505  39.935  12.695
44524W        W11307  34.615  21.946  14.631
44525W        W11308  44.638  37.868  13.362
44526W        W11309   4.471  17.170  12.416
44527W        W11310  38.932  22.702  11.612
44528W        W11311   3.701  13.840   4.752
44529W        W11312  21.935   0.463   0.282
44530W        W11313  19.219  29.514   0.218
44531W        W11314  10.522  25.588  14.169
44532W        W11315  17.227  26.805   0.878
44533W        W11316  27.927  31.117   2.825
44534W        W11317  33.827  14.343   4.522
44535W        W11318   9.854  44.136  11.402
44536W        W11319  22.651   2.627   1.287
44537W        W11320  28.027   0.395   4.393
44538W        W11321  31.600  32.463  10.614
44539W        W11322   7.671  17.307   0.747
44540W        W11323  32.975  25.569  12.432
44541W        W11324  18.918   7.377   1.925
44542W        W11325   9.699  41.118   4.708
44543W        W11326  38.983   3.609  14.195
44544W        W11327   8.276  15.717  13.355
44545W        W11328   1.347  30.821   2.405
44546W        W11329   4.972  26.179  12.149
44547W        W11330  17.280  44.031   1.902
44548W        W11331   4.873  31.330   3.580
44549W        W11332  20.153  14.535   1.683
44550W        W11333  40.830  41.381   3.010
44551W        W11334  27.091   4.146   4.568
44552W        W11335   3.181  44.297  11.674
44553W        W11336  33.914   6.555   1.716
44554W        W11337  10.770  17.163  13.092
44555W        W11338  31.589  14.752  11.183
44556W        W11339  39.303  29.553  10.477
44557W        W11340  21.914  15.757  10.608
44558W        W11341  18.745  16.405   3.048
44559W        W11342  24.765  41.442   5.508
44560W        W11343   1.521   7.139   4.203
44561W        W11344  18.104  15.098  14.891
44562W        W11345  16.520  16.219   2.262
44563W        W11346  27.609  20.047  13.343
44564W        W11347  29.480  36.537   1.865
44565W        W11348  41.200  13.664  13.416
44566W        W11349  30.344  14.911   2.221
44567W        W11350  19.537  32.603  14.336
44568W        W11351  43.364  20.785  10.740
44569W        W11352  11.807  42.327  13.985
44570W        W11353  42.791  17.151  11.921
44571W        W11354  30.023  43.887  12.085
44572W        W11355   9.781  21.663   0.158
44573W        W11356  30.166  33.035  11.106
44574W        W11357  12.847  39.889   0.843
44575W        W11358  18.165  43.100   2.626
44576W        W11359   0.387   1.233  10.730
44577W        W11360  14.230  20.551  14.192
44578W        W11361   9.117  11.697  12.872
44579W        W11362  34.016  18.577   1.800
44580W        W11363  15.913  28.038   0.377
44581W        W11364   1.089  18.750  14.997
44582W        W11365  27.624  38.665  13.720
44583W        W11366  44.452  10.336   2.944
44584W        W11367  35.153   8.704  11.613
44585W        W11368  42.773  44.811  13.513
44586W        W11369   4.359  42.341   4.311
44587W        W11370  42.721  38.566   4.647
44588W        W11371   2.792  20.317   1.125
44589W        W11372   8.336  33.797  12.555
44590W        W11373  18.139  24.371   2.293
44591W        W11374   5.162  34.473   2.658
44592W        W11375  40.610   4.897   3.221
44593W        W11376  41.350  19.723   2.961
44594W        W11377  43.986  39.335  12.446
44595W        W11378  25.167  16.667  12.537
44596W        W11379  31.955  33.973  14.469
44597W        W11380  15.073  11.811   3.292
44598W        W11381  28.629  42.646  10.609
44599W        W11382  36.948  32.573  11.570
44600W        W11383  33.179  43.917   2.365
44601W        W11384  12.172  34.745   2.652
44602W        W11385  37.253  29.882  12.591
44603W        W11386  42.209  33.403  11.472
44604W        W11387  35.914  25.559  10.899
44605W        W11388  10.664   1.405   1.885
44606W        W11389  19.875  40.616   1.904
44607W        W11390  31.949  25.557  12.373
44608W        W11391  41.669  17.287   2.290
44609W        W11392   7.716  16.800  12.935
44610W        W11393  29.490   3.671  12.726
44611W        W11394  15.310  15.546  11.608
44612W        W11395  27.240  27.457   4.275
44613W        W11396  26.112  41.002  13.944
44614W        W11397  16.731   7.220  14.766
44615W        W11398  42.367  36.278  11.650
44616W        W11399  19.527  20.431   4.603
44617W        W11400  28.122  26.307   4.031
44618W        W11401  16.122  15.724  12.920
44619W        W11402  43.219  22.229   3.136
44620W        W11403  42.990   5.908  12.870
44621W        W11404   6.598  23.088   2.142
44622W        W11405  25.242  25.934  11.535
44623W        W11406  28.247  32.303   0.348
44624W        W11407   1.909  30.730  14.358
44625W        W11408  42.712   1.832  14.835
44626W        W11409  25.603  31.910   2.744
44627W        W11410  29.939  21.093   1.841
44628W        W11411  14.688  39.574  13.476
44629W        W11412   7.178  43.456   2.290
44630W        W11413  26.997  14.802   5.080
44631W        W11414  25.593  40.605   0.015
44632W        W11415   4.953  17.096  13.885
44633W        W11416  38.334  18.675  10.396
44634W        W11417  44.370  22.555  14.109
44635W        W11418  29.443  40.037   3.208
44636W        W11419  26.945   3.023  12.953
44637W        W11420  39.571  43.940  13.853
44638W        W11421  23.534  13.205  13.803
44639W        W11422  16.282  28.448   0.411
44640W        W11423   9.359  23.388   2.769
44641W        W11424  13.818  17.775   0.279
44642W        W11425  15.276  12.526   0.930
44643W        W11426  38.047  26.818   3.287
44644W        W11427  26.887  19.645  12.424
44645W        W11428  23.988   6.366  14.709
44646W        W11429  13.833   4.776   2.771
44647W        W11430  27.971  23.150  12.673
44648W        W11431  24.591  22.025  12.382
44649W        W11432   4.962  36.074   2.783
44650W        W11433  13.307  37.916   1.308
44651W        W11434  43.128  41.235   4.497
44652W        W11435  39.075  21.164  12.969
44653W        W11436   1.012  40.079   4.777
44654W        W11437  26.436   3.996  12.066
44655W        W11438   2.587  35.818   2.315
44656W        W11439  42.804  23.724  12.575
44657W        W11440   7.914   7.062   1.893
44658W        W11441  24.083  40.428  10.801
44659W        W11442  25.398  24.030  10.665
44660W        W11443   8.703   5.236  13.071
44661W        W11444  40.055  21.036  13.595
44662W        W11445  42.894  40.586  14.032
44663W        W11446   2.969  19.330   3.630
44664W        W11447  14.081  13.292  14.988
44665W        W11448   6.857   2.214   1.853
44666W        W11449   3.248  42.899   4.372
44667W        W11450  20.258   3.603   4.052
44668W        W11451  19.134   4.812  13.856
44669W        W11452  44.989  31.533   3.142
44670W        W11453  41.630   8.323  14.823
44671W        W11454  31.626  22.271  11.664
44672W        W11455  11.632  29.100   4.697
44673W        W11456  32.533  40.834  13.353
44674W        W11457  29.109  15.999   0.404
44675W        W11458  14.826   8.918   4.229
44676W        W11459  29.643   4.580  10.271
44677W        W11460  32.581  10.995  12.440
44678W        W11461  28.013  24.077   0.962
44679W        W11462  25.273   2.058  11.139
44680W        W11463   9.380  35.656  12.964
44681W        W11464  11.609  11.391   1.947
44682W        W11465  21.700  30.549   4.344
44683W        W11466  32.430  21.332  14.397
44684W        W11467   5.511  44.360  11.231
44685W        W11468  38.372  10.600   1.946
44686W        W11469  20.644   0.715   2.423
44687W        W11470   3.470  16.438   4.407
44688W        W11471  28.544  16.569   4.740
44689W        W11472  26.664  28.209   1.255
44690W        W11473  33.710  12.076  14.423
44691W        W11474  27.664  44.841   2.395
44692W        W11475  42.437  12.055  14.122
44693W        W11476   8.889  36.840  11.954
44694W        W11477  10.113  22.127   2.753
44695W        W11478   3.237  37.320  11.987
44696W        W11479  39.244   1.250   3.615
44697W        W11480  19.230   9.986  13.975
44698W        W11481  20.551  12.509  11.855
44699W        W11482  44.953   9.706   0.292
44700W        W11483  16.923   3.289   3.315
44701W        W11484  40.505  10.143   3.185
44702W        W11485  37.507   8.102  13.487
44703W        W11486  42.881  11.284   4.470
44704W        W11487  14.370  14.141   0.228
44705W        W11488   9.636  36.533   0.022
44706W        W11489  23.165  36.386   1.930
44707W        W11490  29.695   9.762   2.830
44708W        W11491  24.179   0.025  14.538
44709W        W11492  40.187  41.076  10.914
44710W        W11493  43.009  13.406   2.940
44711W        W11494   6.369  23.150  12.012
44712W        W11495  12.864  10.319   1.437
44713W        W11496  16.962  11.252   2.232
44714W        W11497  30.731  43.494  13.943
44715W        W11498  27.679  11.191   4.205
44716W        W11499  37.256  15.148  13.289
44717W        W11500  23.897  17.396  11.562
44718W        W11501  31.161   6.533   2.375
44719W        W11502   4.515  31.562   2.345
44720W        W11503  41.068  21.213  14.469
44721W        W11504   0.929  28.425   4.501
44722W        W11505  13.800  32.502  11.986
44723W        W11506  29.080  17.734   1.896
44724W        W11507   1.661  40.621  11.585
44725W        W11508  43.531  34.935  11.872
44726W        W11509  21.129   3.797   3.081
44727W        W11510  15.190  18.515  13.350
44728W        W11511  26.300  14.663   1.834
44729W        W11512  41.731  35.404   0.427
44730W        W11513  32.590   9.395  10.515
44731W        W11514   3.358   4.594   2.032
44732W        W11515  22.761  35.792   1.352
44733W        W11516   8.210  10.951   1.660
44734W        W11517  10.722   0.724  13.362
44735W        W11518  39.329  10.800   1.860
44736W        W11519   4.106  38.564  10.367
44737W        W11520   6.460  22.722   0.526
44738W        W11521  29.576  30.394   0.241
44739W        W11522  12.744  13.809   1.730
44740W        W11523  31.380   9.322  13.636
44741W        W11524  38.801  35.674  14.508
44742W        W11525   7.566  34.870  10.410
44743W        W11526  14.634  11.762  12.505
44744W        W11527  31.878  34.644   3.212
44745W        W11528  17.588   2.440  11.571
44746W        W11529  44.270  23.201  11.123
44747W        W11530  10.581  44.785   2.551
44748W        W11531   0.511  23.276   4.460
44749W        W11532  35.922  36.013   0.452
44750W        W11533  18.110   4.658  10.756
44751W        W11534  11.365  11.256  12.665
44752W        W11535  13.832  26.722  10.180
44753W        W11536  42.325  29.955  12.485
44754W        W11537   7.007  24.942   3.588
44755W        W11538  42.699  13.052   2.205
44756W        W11539  20.134  34.180   2.338
44757W        W11540  43.072  11.168   1.638
44758W        W11541  14.292  13.767   2.645
44759W        W11542  33.211  44.190  11.594
44760W        W11543  20.305  12.774   1.378
44761W        W11544  32.576  11.387  10.498
44762W        W11545  21.133   6.164   2.576
44763W        W11546  40.761  18.100  12.970
44764W        W11547  29.901  26.096  10.677
44765W        W11548  18.265  32.489   0.149
44766W        W11549  27.989  15.857   3.934
44767W        W11550  18.527  26.733   4.718
44768W        W11551  27.633  35.779   3.629
44769W        W11552  15.711  41.841   1.803
44770W        W11553  39.686  38.517   4.588
44771W        W11554  21.300  32.849  13.536
44772W        W11555   7.542  11.309   2.297
44773W        W11556  26.731  16.621  11.958
44774W        W11557  18.456  14.215   3.677
44775W        W11558   3.000  13.803   0.852
44776W        W11559   9.758  11.036  12.816
44777W        W11560  42.418  11.481  10.710
44778W        W11561  30.113   7.699  13.063
44779W        W11562  26.868  41.438   3.571
44780W        W11563  43.545  30.975   3.687
44781W        W11564  23.063  16.657   2.299
44782W        W11565  44.537  21.529   2.119
44783W        W11566   8.182  31.132   2.799
44784W        W11567  14.381  31.955  12.938
44785W        W11568  34.849   4.558   4.124
44786W        W11569   0.384  29.716  14.092
44787W        W11570  25.965  39.084   4.539
44788W        W11571   1.362  42.809  14.468
44789W        W11572  16.020  10.885   3.173
44790W        W11573   1.302  43.276   0.346
44791W        W11574  34.323  28.727   3.043
44792W        W11575  41.944   0.114  10.889
44793W        W11576   2.410  30.916   0.892
44794W        W11577   8.699  20.906  10.613
44795W        W11578  34.264  30.693  12.670
44796W        W11579  27.169  24.329  12.926
44797W        W11580  23.312   2.013   3.167
44798W        W11581  16.203   0.089   3.312
44799W        W11582  25.626   5.192   4.611
44800W        W11583  28.550  35.814   3.577
44801W        W11584   4.733  10.159   1.292
44802W        W11585  20.034  16.010   2.770
44803W        W11586  11.611  36.718  10.252
44804W        W11587  36.024  19.511   0.407
44805W        W11588   0.180   4.275  10.807
44806W        W11589  34.657  20.295  12.121
44807W        W11590  24.529   1.112   2.298
44808W        W11591  17.187  16.515   3.233
44809W        W11592   6.392   5.415   3.209
44810W        W11593  33.231   9.657   2.661
44811W        W11594  43.180  29.705   1.723
44812W        W11595  31.911  12.242  10.685
44813W        W11596   6.204   8.340   4.243
44814W        W11597  17.214   5.399   1.431
44815W        W11598   5.834   7.157   4.534
44816W        W11599  17.700  11.290  13.055
44817W        W11600  25.070   8.811   3.040
44818W        W11601  32.351  26.155   4.581
44819W        W11602  18.217  11.208   2.776
44820W        W11603  12.375  21.420  13.115
44821W        W11604  22.162  39.576   0.363
44822W        W11605  27.011   9.668  12.021
44823W        W11606   5.842  15.264  11.117
44824W        W11607  27.336   2.852  12.043
44825W        W11608  38.769  35.444  10.313
44826W        W11609  32.948  21.182   3.213
44827W        W11610  36.545  33.537  13.929
44828W        W11611  19.741   8.827  12.623
44829W        W11612  23.057  22.499   2.648
44830W        W11613  13.520  38.595   2.339
44831W        W11614  38.099  20.521  11.673
44832W        W11615  18.654  34.618  13.871
44833W        W11616  26.125  34.503  12.536
44834W        W11617   1.824  19.735  14.954
44835W        W11618  34.762  30.217   2.777
44836W        W11619  24.578  37.341  14.776
44837W        W11620   2.893  27.616  12.820
44838W        W11621   9.621  35.514   4.192
44839W        W11622  22.273   3.019   1.266
44840W        W11623  31.657   4.786   4.527
44841W        W11624  22.479  15.556  14.833
44842W        W11625  14.239   9.016  14.030
44843W        W11626  42.971  30.624  14.992
44844W        W11627  19.960   8.952  13.455
44845W        W11628  18.055  31.228  12.437
44846W        W11629  18.174  31.624   2.817
44847W        W11630  29.540  39.256   2.692
44848W        W11631  39.207  37.835  14.872
44849W        W11632  18.525   8.384   4.419
44850W        W11633  26.753  23.179  14.006
44851W        W11634  37.822   1.675   0.959
44852W        W11635  17.745  21.511  14.228
44853W        W11636  23.437  16.319   4.437
44854W        W11637  34.135  32.372   0.347
44855W        W11638  17.535   2.463  14.982
44856W        W11639  34.922  23.074   1.905
44857W        W11640   5.763  32.501   2.840
44858W        W11641  24.786  44.458  14.007
44859W        W11642  37.417  42.022   0.754
44860W        W11643  41.135  16.245  14.141
44861W        W11644  17.785   2.890  12.545
44862W        W11645  14.219  12.531  13.300
44863W        W11646  26.187  24.457   0.239
44864W        W11647   3.254  36.795  12.070
44865W        W11648  12.693  24.278   3.596
44866W        W11649  34.636   1.799  11.201
44867W        W11650   2.741  39.450   1.161
44868W        W11651   0.472  18.507   1.186
44869W        W11652  43.854  43.341   2.924
44870W        W11653  37.849  24.435   2.222
44871W        W11654  40.268   6.718  12.710
44872W        W11655  26.585  16.812   2.358
44873W        W11656  13.681  23.789  11.049
44874W        W11657  32.249  14.640  12.470
44875W        W11658  30.605  38.144  11.673
44876W        W11659  40.664   6.440  10.166
44877W        W11660  24.588  43.518   5.122
44878W        W11661  27.448  22.158  13.622
44879W        W11662   1.208  33.199  12.124
44880W        W11663  13.119  26.986   3.591
44881W        W11664  14.120  35.860  14.342
44882W        W11665  22.949  10.467  12.543
44883W        W11666   2.689  24.068  13.806
44884W        W11667  20.785  10.432   1.013
44885W        W11668  31.907  26.208   3.223
44886W        W11669   5.130  21.326  10.712
44887W        W11670   2.132  40.087  12.970
44888W        W11671  18.820  25.896   0.357
44889W        W11672  25.635  42.876   2.876
44890W        W11673  37.299  21.189  10.766
44891W        W11674  28.239   4.445   0.895
44892W        W11675   7.340   1.256  11.028
44893W        W11676  34.264  19.654   4.130
44894W        W11677  42.017  35.000   4.221
44895W        W11678  10.886   4.499  11.109
44896W        W11679   5.602  28.387  12.870
44897W        W11680  36.192  12.803  14.410
44898W        W11681  33.409  23.189  14.375
44899W        W11682  29.446   0.863  10.370
44900W        W11683  17.633   3.425  10.701
44901W        W11684   2.287  36.446   3.367
44902W        W11685  43.974  44.962   4.792
44903W        W11686  22.027  29.112   3.472
44904W        W11687   8.399  11.657  10.610
44905W        W11688   3.824   8.240   4.876
44906W        W11689  33.891   6.946  12.516
44907W        W11690  39.916   4.487   2.260
44908W        W11691  34.653   4.683   0.590
44909W        W11692  30.353   6.851   2.654
44910W        W11693   6.633  12.337  10.717
44911W        W11694  14.647  30.044   1.906
44912W        W11695  29.405  35.423  12.458
44913W        W11696   4.948   6.142  13.100
44914W        W11697   8.488  14.359   2.264
44915W        W11698  25.028  16.654   3.691
44916W        W11699   5.324  24.446  12.932
44917W        W11700  26.129  17.277  10.938
44918W        W11701   6.831  42.565  12.718
44919W        W11702  11.130   6.809  14.758
44920W        W11703  32.384   5.707  10.648
44921W        W11704  20.905  34.237   2.354
44922W        W11705  40.471  20.091  11.758
44923W        W11706  40.805  31.148  13.571
44924W        W11707   6.841  16.764  11.457
44925W        W11708  15.397   4.689   0.818
44926W        W11709  10.607   5.165   3.172
44927W        W11710  19.719  28.677  12.630
44928W        W11711  35.453   9.376   1.742
44929W        W11712  26.701  26.887   2.208
44930W        W11713  37.825  39.120   1.961
44931W        W11714  26.213   3.331   3.205
44932W        W11715  18.200  35.434   4.766
44933W        W11716  34.963  25.591  13.407
44934W        W11717  37.369  12.291  11.660
44935W        W11718  31.503  15.410   4.350
44936W        W11719   3.157  15.603  14.833
44937W        W11720  26.527  19.287  14.384
44938W        W11721  19.197  42.484  13.370
44939W        W11722  25.016  19.555  12.099
44940W        W11723  14.979  33.686  12.487
44941W        W11724  29.375   4.198   2.355
44942W        W11725  39.105  13.138   0.739
44943W        W11726  19.110  18.845  10.673
44944W        W11727  41.572   8.813   1.980
44945W        W11728  27.368  36.769  11.224
44946W        W11729   0.565  21.145  12.214
44947W        W11730  18.283  40.362   1.448
44948W        W11731  33.241   6.182  12.352
44949W        W11732  23.777  19.412  14.405
44950W        W11733  20.325  15.149   2.807
44951W        W11734  15.103  31.100  12.076
44952W        W11735  41.333  35.849  13.958
44953W        W11736  41.850   1.990   0.839
44954W        W11737  40.440  29.376  13.943
44955W        W11738  12.949  40.384  10.211
44956W        W11739  35.865  41.569  12.013
44957W        W11740  11.781  13.586   0.826
44958W        W11741   5.719  13.731   1.855
44959W        W11742  31.314  13.284   2.197
44960W        W11743  10.365  31.013   4.585
44961W        W11744   7.995  12.860  13.558
44962W        W11745   5.416  19.012   3.787
44963W        W11746   4.294  23.315  13.747
44964W        W11747  34.507  19.969   3.287
44965W        W11748   8.149  36.895   0.683
44966W        W11749  21.717  26.659   0.902
44967W        W11750  37.261   7.308  12.405
44968W        W11751  40.430  38.988   3.237
44969W        W11752  23.857   5.267  12.101
44970W        W11753  39.767  20.712  14.355
44971W        W11754   5.902  11.822  10.655
44972W        W11755  33.644  38.037  11.305
44973W        W11756   3.319  21.656   4.551
44974W        W11757  37.542  12.053  14.786
44975W        W11758  12.119   2.908   0.343
44976W        W11759  39.552   6.819   3.519
44977W        W11760  23.866  41.786  10.349
44978W        W11761  22.682  36.479   2.214
44979W        W11762   5.639  17.132   3.904
44980W        W11763  15.335  26.433  13.450
44981W        W11764   5.700  25.024   1.347
44982W        W11765  11.926   2.176  13.300
44983W        W11766  20.039  29.046  10.433
44984W        W11767  43.971   8.317  14.563
44985W        W11768  15.661  29.461   3.827
44986W        W11769  39.872  15.689   3.111
44987W        W11770  28.579  22.761   1.364
44988W        W11771  31.598  38.260   4.096
44989W        W11772  36.534  42.377  14.314
44990W        W11773  16.757  31.925  10.300
44991W        W11774   0.324  24.069  12.111
44992W        W11775  15.328  23.234  11.527
44993W        W11776  34.594  13.431  10.629
44994W        W11777   8.130   7.522  12.603
44995W        W11778  43.305  20.136  11.914
44996W        W11779   3.465  33.410  14.835
44997W        W11780  29.898  24.475   4.645
44998W        W11781   9.144  13.867   3.087
44999W        W11782  44.848  17.212   4.520
45000W        W11783  20.128  19.282   4.146
45001W        W11784  14.346   5.752   0.213
45002W        W11785  43.885  25.354  13.182
45003W        W11786  26.127   4.223   3.871
45004W        W11787  43.899   0.062  10.535
45005W        W11788  22.774   4.936  11.167
45006W        W11789  35.882   4.607  13.875
45007W        W11790  37.454  34.316   1.251
45008W        W11791  10.278  16.813  10.775
45009W        W11792  32.085  20.492   2.305
45010W        W11793  32.238   0.941  14.308
45011W        W11794   7.746   4.727   4.005
45012W        W11795  13.827   7.322  10.762
45013W        W11796  15.052  24.816  12.812
45014W        W11797  39.452  20.793   2.898
45015W        W11798  43.507  32.218   4.671
45016W        W11799  24.698  41.857   2.756
45017W        W11800  34.208  10.143  14.929
45018W        W11801   6.797  11.599  13.511
45019W        W11802  12.777  24.408   2.304
45020W        W11803  24.419  25.193   2.770
45021W        W11804  32.338  27.606  12.427
45022W        W11805  39.589   3.051   1.235
45023W        W11806  30.708  40.852   4.905
45024W        W11807   4.321  10.262   0.992
45025W        W11808   1.925  12.586   5.096
45026W        W11809  31.483   5.337  12.357
45027W        W11810   2.147  13.970   3.743
45028W        W11811   4.472  35.443  12.638
45029W        W11812  44.016   6.545   4.859
45030W        W11813   1.257  25.449  13.113
45031W        W11814  31.195  11.058  12.970
45032W        W11815  30.476  17.582   1.678
45033W        W11816  36.066   2.736   4.935
45034W        W11817  38.284  26.588  12.380
45035W        W11818  44.776  40.391  13.570
45036W        W11819   4.051   1.420   1.322
45037W        W11820  31.783   2.826  12.652
45038W        W11821  26.545  20.644  13.841
45039W        W11822  14.591  16.056  11.844
45040W        W11823  32.369  30.016  14.584
45041W        W11824   0.086   2.141  12.890
45042W        W11825  33.530  40.274   2.858
45043W        W11826  10.491   6.287   2.593
45044W        W11827   4.155  14.350  13.599
45045W        W11828  40.533  39.793  13.051
45046W        W11829   5.409   5.870   0.373
45047W        W11830  30.411  40.951   0.795
45048W        W11831   2.393  31.634  13.449
45049W        W11832  38.419  40.497   1.828
45050W        W11833  40.947  38.541   2.078
45051W        W11834   0.212  18.073  11.688
45052W        W11835  24.275  17.715  11.067
45053W        W11836   7.695  28.945  10.413
45054W        W11837  32.636  36.500  13.920
45055W        W11838  29.423  32.224  10.479
45056W        W11839   0.471   1.630   1.899
45057W        W11840   8.733  27.904   2.642
45058W        W11841  19.462  43.424   3.324
45059W        W11842   1.382  33.648  14.503
45060W        W11843   8.137  18.316   3.598
45061W        W11844  23.549  19.236  13.457
45062W        W11845  18.737   8.139   0.384
45063W        W11846   3.486   2.220  12.450
45064W        W11847  38.244  37.743  14.826
45065W        W11848  15.254  16.043  11.544
45066W        W11849  32.349  30.563  13.858
45067W        W11850  37.650  34.477   0.369
45068W        W11851   9.097  23.654  12.516
45069W        W11852  18.807  17.916  12.527
45070W        W11853  20.999   7.502  11.211
45071W        W11854   3.692  19.479  12.026
45072W        W11855   9.242  15.627  11.709
45073W        W11856  44.420  12.679  11.362
45074W        W11857  38.794  30.150  13.257
45075W        W11858   7.615  21.745  11.245
45076W        W11859  18.214  22.479  14.199
45077W        W11860  15.594   6.851  10.685
45078W        W11861  39.111  23.810  12.580
45079W        W11862  40.397  15.546   4.165
45080W        W11863   1.956  35.024  13.555
45081W        W11864  34.392  40.444   4.050
45082W        W11865   8.307  19.714  13.028
45083W        W11866  26.193  39.247   5.492
45084W        W11867  12.944  20.918   4.446
45085W        W11868  16.679   8.649  14.620
45086W        W11869  39.064   3.240  10.653
45087W        W11870  18.704   9.672   0.263
45088W        W11871  42.804  29.190   3.153
45089W        W11872  39.973   1.317  13.993
45090W        W11873  13.074  34.035  10.764
45091W        W11874  36.913  15.623  10.688
45092W        W11875   1.029  27.383  11.574
45093W        W11876  22.648  22.932  13.067
45094W        W11877  15.909  26.535  12.446
45095W        W11878  33.984  43.575   0.758
45096W        W11879  41.301  24.822  12.523
45097W        W11880   5.817  13.862  10.760
45098W        W11881  37.416  39.238   4.718
45099W        W11882   9.775  26.965  12.896
45100W        W11883   9.621  42.623   4.018
45101W        W11884  44.117  42.776  14.487
45102W        W11885  21.313  33.798  11.037
45103W        W11886  42.864  36.792   3.902
45104W        W11887  44.717   6.740   3.208
45105W        W11888  39.613  28.411   1.403
45106W        W11889  34.367  14.614   2.810
45107W        W11890  18.193   6.328   3.110
45108W        W11891  27.198  30.994   3.742
45109W        W11892  28.922   5.533   4.575
45110W        W11893   5.485  16.738  11.786
45111W        W11894  19.076  38.569   2.376
45112W        W11895   7.102  18.245  11.912
45113W        W11896  27.048  17.400  12.101
45114W        W11897  10.715  14.117  13.460
45115W        W11898  22.844   2.422  14.619
45116W        W11899   9.712  17.224   1.721
45117W        W11900   5.920  43.925  11.676
45118W        W11901  25.297   6.004   3.394
45119W        W11902  31.806   6.759  14.167
45120W        W11903   5.115  40.584   2.747
45121W        W11904   8.896  29.642   3.628
45122W        W11905   2.377  39.860   0.768
45123W        W11906   1.288  30.776   3.289
45124W        W11907  20.961  39.084  10.252
45125W        W11908   0.910   0.992  12.589
45126W        W11909   7.364  36.611  13.419
45127W        W11910  16.161  23.983  10.580
45128W        W11911  33.700  27.118  12.505
45129W        W11912   6.159  18.533   2.200
45130W        W11913  16.771  27.501   4.792
45131W        W11914  27.907  18.837  11.588
45132W        W11915   3.387  26.987   3.686
45133W        W11916  19.724  10.009  14.047
45134W        W11917  11.472   8.049   1.873
45135W        W11918  12.890  32.866   3.197
45136W        W11919  17.119  35.990   2.805
45137W        W11920  19.603  38.359   4.496
45138W        W11921   1.934  43.626  13.486
45139W        W11922   4.537  15.857  12.070
45140W        W11923  12.858  17.611   4.414
45141W        W11924  11.628  15.461   3.238
45142W        W11925  44.139  32.961  11.626
45143W        W11926   6.684   6.851   3.050
45144W        W11927   6.830  32.183   1.496
45145W        W11928  41.103  42.727   3.195
45146W        W11929  23.411  16.198  13.714
45147W        W11930  11.534  37.393   4.553
45148W        W11931  37.764  40.315   3.803
45149W        W11932  36.790   0.441  11.940
45150W        W11933  20.431  29.505  12.039
45151W        W11934  27.197  25.158   0.833
45152W        W11935  15.661  38.312   0.495
45153W        W11936  38.305  34.663   3.062
45154W        W11937  11.728  44.641   0.066
45155W        W11938   0.449   3.360  11.099
45156W        W11939  33.906  26.126   0.133
45157W        W11940  27.200   6.484   2.802
45158W        W11941  16.029  36.514  14.383
45159W        W11942  20.500  42.709   1.371
45160W        W11943  31.258  41.699   3.313
45161W        W11944   0.940  44.299   3.270
45162W        W11945  37.400  24.122   4.380
45163W        W11946  32.709  19.630   0.909
45164W        W11947  10.905  35.127   0.737
45165W        W11948  37.416  21.681   4.191
45166W        W11949  40.420  33.962   4.661
45167W        W11950   3.236  22.916   2.604
45168W        W11951   4.966  26.077   3.366
45169W        W11952  34.900  31.881   4.422
45170W        W11953  26.579  38.003  11.045
45171W        W11954  25.609  43.833  13.533
45172W        W11955  19.774  37.979  13.330
45173W        W11956  40.716  15.756   2.620
45174W        W11957  40.428  33.488  12.363
45175W        W11958   5.352  27.702  13.119
45176W        W11959  15.827  40.970   4.021
45177W        W11960  33.440  17.589   4.472
45178W        W11961  11.130  42.019  14.966
45179W        W11962   1.412  30.988  12.608
45180W        W11963  32.010  24.185   1.690
45181W        W11964  40.539   8.847  11.873
45182W        W11965  42.342  42.771  14.221
45183W        W11966   8.188  16.241  11.768
45184W        W11967   6.512   1.267  10.296
45185W        W11968  33.638   5.137   2.996
45186W        W11969  14.140  23.772   2.782
45187W        W11970  24.803  18.667   1.762
45188W        W11971   1.830  40.538   2.789
45189W        W11972  21.293  16.057  14.458
45190W        W11973  39.375  12.280  14.506
45191W        W11974  29.673   8.315   1.772
45192W        W11975  32.053  16.107   1.095
45193W        W11976   8.273  10.828  12.353
45194W        W11977  18.859  10.315   1.921
45195W        W11978  14.178  11.722   2.384
45196W        W11979  25.136  31.044  14.466
45197W        W11980  19.638  32.532   0.739
45198W        W11981  12.214   7.704  12.344
45199W        W11982  32.500  18.995   3.196
45200W        W11983  38.430  22.547  11.590
45201W        W11984  24.361  33.192  13.426
45202W        W11985  11.032  26.470   4.177
45203W        W11986  24.397  42.953  14.976
45204W        W11987  17.981  32.371   4.137
45205W        W11988  23.626   0.931   4.189
45206W        W11989  34.458  21.470   2.027
45207W        W11990  37.837  22.228   1.861
45208W        W11991   0.556  36.232   0.803
45209W        W11992  13.737  22.633  11.834
45210W        W11993  30.214  31.596   1.212
45211W        W11994  12.671  12.379   2.201
45212W        W11995  29.237  40.594  13.349
45213W        W11996  11.637  17.299  10.621
45214W        W11997   5.731  24.962   0.402
45215W        W11998  17.882  13.200   1.360
45216W        W11999  44.927  32.249   1.670
45217W        W12000   7.750  42.968   1.794
45218W        W12001  27.866  42.510   3.211
45219W        W12002  32.597  15.680   3.724
45220W        W12003  29.106  42.455  14.575
45221W        W12004  38.222  36.374  13.951
45222W        W12005  31.651   8.184   2.678
45223W        W12006   0.001  28.842   3.604
45224W        W12007   1.163  40.574   4.654
45225W        W12008   8.196  31.936   0.487
45226W        W12009   6.778  30.879  12.483
45227W        W12010  30.470  13.059   4.618
45228W        W12011  38.006  38.535   1.000
45229W        W12012  10.252  18.578   4.191
45230W        W12013  10.183  31.512   3.033
45231W        W12014  43.088   9.887  14.544
45232W        W12015  19.261  24.248  12.608
45233W        W12016  35.543  42.661  14.894
45234W        W12017  42.457  19.899  14.511
45235W        W12018  40.029  39.637   1.749
45236W        W12019  28.443  33.548   2.014
45237W        W12020  17.155  26.134   0.102
45238W        W12021   9.923   9.103  13.468
45239W        W12022  38.728   0.580   2.589
45240W        W12023  37.091  28.681  13.983
45241W        W12024  37.831  27.545   0.310
45242W        W12025   7.224  32.556  12.601
45243W        W12026  19.617  21.598  11.819
45244W        W12027  19.645  40.954  14.333
45245W        W12028  23.229   0.587   9.721
45246W        W12029  26.702  21.099  14.025
45247W        W12030   9.310  33.028   1.593
45248W        W12031   3.680  31.134  14.560
45249W        W12032  28.370  24.774  13.053
45250W        W12033  17.791  20.207  13.329
45251W        W12034  29.908  34.801  11.177
45252W        W12035  33.195  32.844   1.313
45253W        W12036  38.819  21.140  14.527
45254W        W12037  38.579  30.028  10.606
45255W        W12038   6.202  32.346   3.152
45256W        W12039  40.473   1.093   3.194
45257W        W12040  19.790  25.984   4.648
45258W        W12041  27.704  24.704  10.520
45259W        W12042  19.698  18.330  12.068
45260W        W12043  22.994  33.431  11.631
45261W        W12044  15.003  40.960  14.335
45262W        W12045  35.359  18.780  11.041
45263W        W12046  13.607  16.724   4.565
45264W        W12047  40.419  32.612  12.449
45265W        W12048  13.166   3.750   0.224
45266W        W12049  37.675  21.162  13.085
45267W        W12050  40.406  20.698  12.443
45268W        W12051  18.208  20.080   4.855
45269W        W12052  44.291  21.536  11.569
45270W        W12053  32.540   3.036  13.097
45271W        W12054  30.954  10.058  12.155
45272W        W12055   0.748  43.816   2.053
45273W        W12056   0.934  14.605   3.507
45274W        W12057  44.228  39.659   1.367
45275W        W12058  10.374   7.811  12.556
45276W        W12059  41.852   9.635  14.957
45277W        W12060  32.493  27.590  14.327
45278W        W12061  43.841  20.278  13.391
45279W        W12062  17.258   4.353   1.812
45280W        W12063  23.336   3.156  13.916
45281W        W12064  10.579   5.378   1.807
45282W        W12065  27.260  18.053  13.354
45283W        W12066  13.840  14.694   3.950
45284W        W12067  13.511  24.690   4.615
45285W        W12068  30.712  19.746   2.195
45286W        W12069  12.612  22.223  13.382
45287W        W12070  29.088  15.193  13.323
45288W        W12071   3.469  10.270  13.829
45289W        W12072  28.494  41.327   5.125
45290W        W12073   3.517  25.271  11.444
45291W        W12074  37.720  31.986   2.705
45292W        W12075  23.788  22.029   0.912
45293W        W12076  16.036   4.513   4.119
45294W        W12077   5.911  27.606  10.623
45295W        W12078  26.705   2.812  10.729
45296W        W12079  15.354  27.294   4.381
45297W        W12080  37.824  14.437   0.032
45298W        W12081  31.302   6.442  14.956
45299W        W12082  16.731  14.660   0.868
45300W        W12083  10.611  35.573   0.759
45301W        W12084  35.833  43.387  11.953
45302W        W12085  17.273  21.082   4.009
45303W        W12086  42.044  37.942   2.317
45304W        W12087  25.409   9.220  13.614
45305W        W12088   6.838  18.302   3.069
45306W        W12089  27.827  26.058  11.648
45307W        W12090  31.056  19.740  13.821
45308W        W12091  26.520  44.986  10.705
45309W        W12092  24.723   6.887   2.390
45310W        W12093  22.553  19.101  13.965
45311W        W12094  33.418  35.037  14.466
45312W        W12095  35.663   6.785   3.591
45313W        W12096  29.151  28.868   0.742
45314W        W12097  29.923  25.863   4.223
45315W        W12098  15.088  27.784   1.771
45316W        W12099  29.616  20.593  14.581
45317W        W12100  10.441  41.862   3.095
45318W        W12101  28.224  14.977  13.931
45319W        W12102  37.568  38.951  11.180
45320W        W12103  38.920  13.390   1.187
45321W        W12104  43.829  31.869  14.330
45322W        W12105  15.849  32.982   3.433
45323W        W12106  34.038  27.012  14.391
45324W        W12107  37.483  16.063  11.031
45325W        W12108  35.570   6.891   1.809
45326W        W12109  39.498   0.962   3.139
45327W        W12110  44.593  35.516   0.167
45328W        W12111   6.739  32.111   4.951
45329W        W12112  18.136  23.022  12.456
45330W        W12113  13.841  34.813  13.745
45331W        W12114  28.143  29.713   3.555
45332W        W12115  25.147  41.406   3.550
45333W        W12116   5.627  23.113  13.031
45334W        W12117  30.313  17.740   4.954
45335W        W12118  28.637  26.401  10.740
45336W        W12119  28.901  21.774   2.755
45337W        W12120  41.055  13.753   1.493
45338W        W12121  42.515  20.786  13.430
45339W        W12122  44.465  44.025  13.872
45340W        W12123  14.840  24.418  12.581
45341W        W12124   3.280   4.370   2.496
45342W        W12125  28.403   9.816  11.855
45343W        W12126   1.987   3.535  13.146
45344W        W12127   1.718  44.917  13.065
45345W        W12128  33.648  14.762   1.265
45346W        W12129   2.452   8.117  11.699
45347W        W12130  20.759   6.428   4.599
45348W        W12131  29.379  14.105  13.919
45349W        W12132  44.571   9.338  11.445
45350W        W12133  18.535   1.371  13.853
45351W        W12134  10.659  42.235   0.006
45352W        W12135  25.111  29.021  14.431
45353W        W12136  19.325   4.988  11.587
45354W        W12137  27.644  23.341  12.345
45355W        W12138  20.105  13.306  13.082
45356W        W12139  34.062   0.689   1.715
45357W        W12140  44.786  43.865   4.588
45358W        W12141  21.027  41.038  10.631
45359W        W12142   7.716  34.451   3.313
45360W        W12143   7.802   8.349   4.773
45361W        W12144  43.284   3.930   1.207
45362W        W12145   8.809  15.127   1.291
45363W        W12146  11.703  38.212  14.291
45364W        W12147  36.840  22.968  12.478
45365W        W12148  30.407  23.355  10.244
45366W        W12149  14.810  11.825  11.973
45367W        W12150   2.169   9.459  13.387
45368W        W12151  31.852   6.105  11.086
45369W        W12152  18.895  11.894  11.995
45370W        W12153  20.630  18.316   2.818
45371W        W12154  23.794  15.258  14.929
45372W        W12155   2.154  17.610  13.924
45373W        W12156   9.611  18.623  13.174
45374W        W12157  15.731  12.915   0.882
45375W        W12158  42.832  26.447  13.733
45376W        W12159  42.229   7.879  14.337
45377W        W12160  23.079   6.189   1.848
45378W        W12161  25.538  12.840   2.861
45379W        W12162  38.505   0.064   2.841
45380W        W12163   6.311  23.176  10.978
45381W        W12164  32.079  22.576   0.906
45382W        W12165   0.512  11.210  14.484
45383W        W12166  38.793  15.513  13.359
45384W        W12167  27.508  10.131   4.117
45385W        W12168  38.025   9.054   9.576
45386W        W12169   7.837  18.578   4.868
45387W        W12170   1.982  23.558   1.714
45388W        W12171  20.812  17.740  12.461
45389W        W12172  17.336   8.636  14.063
45390W        W12173   8.248   1.106  11.174
45391W        W12174  36.102  43.514  14.856
45392W        W12175  39.697  33.993   2.419
45393W        W12176   4.618   5.327   3.909
45394W        W12177  28.304  24.021  11.504
45395W        W12178  30.806  31.917  10.837
45396W        W12179  37.036  40.810   0.844
45397W        W12180  12.756  11.863   2.269
45398W        W12181  44.856  21.119   3.823
45399W        W12182  44.246  37.790   1.206
45400W        W12183  12.260  24.721   2.884
45401W        W12184   9.405   9.331  14.235
45402W        W12185  43.455   4.336   4.156
45403W        W12186  17.636  15.150   0.769
45404W        W12187  22.125  22.804  11.969
45405W        W12188   7.981  17.973  10.725
45406W        W12189  16.085  27.010  11.289
45407W        W12190   2.087  11.902  11.958
45408W        W12191  20.232  29.530  14.979
45409W        W12192  35.620  38.935   2.155
45410W        W12193  10.257  39.921   1.008
45411W        W12194  28.694  34.103  12.862
45412W        W12195   3.721  29.046   0.884
45413W        W12196  22.981  24.933  11.301
45414W        W12197  16.831  24.534   3.037
45415W        W12198   8.261  27.704  12.093
45416W        W12199  44.898   4.290  13.427
45417W        W12200  24.824   4.913  10.782
45418W        W12201  44.058  10.834   3.781
45419W        W12202  36.046  20.753   3.291
45420W        W12203   6.925  44.526   0.323
45421W        W12204   8.589  37.887  14.187
45422W        W12205   1.671  35.436  13.428
45423W        W12206  25.556  29.622   2.086
45424W        W12207   2.339  15.402  10.918
45425W        W12208   5.512  16.215  14.873
45426W        W12209  14.580  27.511   4.095
45427W        W12210  25.518  20.339   4.716
45428W        W12211   6.598  28.057  13.820
45429W        W12212   2.296  39.626   1.330
45430W        W12213  21.245   2.476   3.009
45431W        W12214  33.088  38.022   4.622
45432W        W12215  39.567  26.452  11.013
45433W        W12216   8.951  10.511  11.050
45434W        W12217  10.753   2.215   2.353
45435W        W12218  40.472  34.586   3.734
45436W        W12219  28.123  23.595  13.561
45437W        W12220   8.386   9.849  12.325
45438W        W12221  17.756  34.001   2.249
45439W        W12222  43.056   7.120  14.279
45440W        W12223  25.044  31.671   4.733
45441W        W12224  42.593  16.281  14.499
45442W        W12225   0.015  30.638  13.179
45443W        W12226  23.008  31.920   4.103
45444W        W12227   5.795  13.964  13.355
45445W        W12228  35.398  40.231   0.096
45446W        W12229  38.745  44.621  11.638
45447W        W12230  31.472  23.828  14.439
45448W        W12231  11.505  19.783  11.537
45449W        W12232  35.358  27.020   4.239
45450W        W12233  19.398  35.115   4.302
45451W        W12234  40.462  44.992  11.985
45452W        W12235   0.909   6.466   4.526
45453W        W12236   9.709  43.262   3.132
45454W        W12237  37.133  29.049   1.164
45455W        W12238  31.570  11.218  11.396
45456W        W12239   8.759  26.970  11.153
45457W        W12240  38.304  32.030   3.800
45458W        W12241  10.409  36.313   1.859
45459W        W12242  17.178  19.061   2.360
45460W        W12243  40.090  25.744  13.797
45461W        W12244  43.398  27.090   4.754
45462W        W12245   1.967  33.010   4.379
45463W        W12246  12.074   8.893   0.001
45464W        W12247  20.599  27.193  13.962
45465W        W12248  21.578  29.569   2.784
45466W        W12249  14.639   3.628  12.138
45467W        W12250  26.934  14.724   4.539
45468W        W12251  10.839  31.599   0.920
45469W        W12252  38.549  42.057  11.646
45470W        W12253  30.326  43.809   2.453
45471W        W12254   3.725  33.170  12.021
45472W        W12255  22.176  38.135  13.024
45473W        W12256  18.736  43.846  10.939
45474W        W12257  25.005  19.600   3.660
45475W        W12258  22.056  13.291   1.195
45476W        W12259  11.182   2.117   3.774
45477W        W12260  43.501   1.343  11.593
45478W        W12261   4.935  27.405   2.718
45479W        W12262  41.966  30.468   1.463
45480W        W12263  16.610  34.457   4.116
45481W        W12264  33.153   9.045   1.922
45482W        W12265   9.125  18.696   1.233
45483W        W12266  30.132  25.913   0.476
45484W        W12267  39.132  22.564  13.503
45485W        W12268  11.639  10.489   3.126
45486W        W12269   8.876  21.754  11.653
45487W        W12270  35.768  22.698   0.353
45488W        W12271  20.989   0.530   4.636
45489W        W12272  29.484  16.697  13.893
45490W        W12273  44.086  29.559   5.364
45491W        W12274  39.077   7.460   3.672
45492W        W12275  33.037  39.500  12.231
45493W        W12276  41.793  18.166  12.067
45494W        W12277  31.606  40.513  13.078
45495W        W12278  27.572  32.943  14.968
45496W        W12279   6.497  23.380   4.152
45497W        W12280  14.636  33.534  13.457
45498W        W12281   1.793  34.317   2.041
45499W        W12282  43.907   5.209   2.670
45500W        W12283  40.872  35.263  12.016
45501W        W12284   8.857   9.676  12.968
45502W        W12285  30.473  42.009  12.986
45503W        W12286  18.404   6.925  12.013
45504W        W12287  22.475  18.833  13.320
45505W        W12288  24.928  23.154  13.874
45506W        W12289   2.001  25.553   0.972
45507W        W12290  41.164  17.036  14.333
45508W        W12291  25.671  33.909  11.076
45509W        W12292  16.341   4.414  13.787
45510W        W12293  18.238  39.912   2.155
45511W        W12294   9.193   5.743   0.890
45512W        W12295  23.885  43.435   0.431
45513W        W12296   2.819   6.743  12.119
45514W        W12297  39.443  11.852   4.288
45515W        W12298  42.731  40.925  12.038
45516W        W12299  21.493  30.908  11.312
45517W        W12300   1.506  24.094   2.886
45518W        W12301   6.955  19.689   3.721
45519W        W12302  16.583  41.889  13.358
45520W        W12303  26.542   3.024   1.011
45521W        W12304  37.023  38.333  13.901
45522W        W12305  14.752  30.152   3.861
45523W        W12306  20.450  10.762  10.703
45524W        W12307  16.797  40.480  12.796
45525W        W12308  20.738  40.634   4.623
45526W        W12309   2.848  21.738   4.376
45527W        W12310  22.025  18.969  12.866
45528W        W12311  16.895   4.336   1.407
45529W        W12312  34.587   0.886   3.304
45530W        W12313   6.586  18.772   2.409
45531W        W12314   4.756  40.917  14.314
45532W        W12315  31.863  44.317  12.646
45533W        W12316  18.995  43.724  14.017
45534W        W12317  19.169  25.625   0.053
45535W        W12318  20.489  14.893  13.486
45536W        W12319  12.860  21.059   1.016
45537W        W12320  22.128   1.256   4.480
45538W        W12321  23.051  13.222  13.511
45539W        W12322  28.602   4.205   1.794
45540W        W12323  35.132   3.933   2.534
45541W        W12324   5.221  33.722   2.382
45542W        W12325   1.859  19.077   4.014
45543W        W12326  35.486   0.770   3.359
45544W        W12327  14.586   8.362  14.519
45545W        W12328   7.980  11.648   3.835
45546W        W12329  43.995  27.118  14.378
45547W        W12330  39.548   3.660   4.420
45548W        W12331  35.539  40.947  13.608
45549W        W12332  23.485  27.181  12.073
45550W        W12333  11.301   6.788   1.151
45551W        W12334  28.064  34.636  12.580
45552W        W12335  38.120  13.042  12.426
45553W        W12336  15.564  25.058  13.424
45554W        W12337  43.896  25.543  12.274
45555W        W12338   1.479  40.444  11.114
45556W        W12339  17.580  10.736  10.887
45557W        W12340   4.768   5.514  12.627
45558W        W12341   5.652   2.871  13.924
45559W        W12342  40.573  19.211   2.896
45560W        W12343  15.389  18.636   1.844
45561W        W12344  17.765  33.870   2.755
45562W        W12345  21.945  25.911   0.776
45563W        W12346  28.649  18.816   2.410
45564W        W12347  25.229   6.946   0.208
45565W        W12348  16.745  38.596  11.070
45566W        W12349  29.502  24.506  13.315
45567W        W12350   3.942  39.850  14.831
45568W        W12351  31.402  29.632   0.731
45569W        W12352  18.230  30.478   0.493
45570W        W12353   0.823  35.910   3.316
45571W        W12354  26.187  18.826   3.276
45572W        W12355  37.996  36.078  14.501
45573W        W12356  29.148  38.798   1.372
45574W        W12357  27.177  20.228  14.752
45575W        W12358  41.906   9.403  10.287
45576W        W12359  41.745   6.916   5.482
45577W        W12360  26.769  39.831   1.785
45578W        W12361  26.603  34.189   2.323
45579W        W12362  32.100   7.511   3.895
45580W        W12363   0.577  31.905  14.428
45581W        W12364  16.291  38.088  14.728
45582W        W12365  27.743  24.884   3.706
45583W        W12366   1.379  18.656  13.315
45584W        W12367  30.038   3.285  13.997
45585W        W12368  23.535  11.043   3.830
45586W        W12369  38.482  36.415  14.966
45587W        W12370   4.673   7.841   0.451
45588W        W12371  21.044  28.422   2.786
45589W        W12372  28.092   1.564  14.985
45590W        W12373  41.209  44.290   0.853
45591W        W12374   2.389  23.495  11.377
45592W        W12375   1.414  19.140  13.500
45593W        W12376  14.420   0.211  11.140
45594W        W12377  20.855  20.090  10.775
45595W        W12378  15.921   4.158   0.399
45596W        W12379  34.161  16.165   3.134
45597W        W12380  30.178  40.053  10.949
45598W        W12381  31.659  35.979   0.950
45599W        W12382   0.388  17.634  11.532
45600W        W12383  39.175  23.688   0.665
45601W        W12384  33.070  44.788  12.572
45602W        W12385  13.684  36.049   1.028
45603W        W12386  34.416  23.145   2.849
45604W        W12387  42.854   6.763  13.964
45605W        W12388  12.612  11.157  12.107
45606W        W12389  43.841  34.896  14.950
45607W        W12390  34.407  24.999  12.913
45608W        W12391  43.864  17.694  11.596
45609W        W12392  21.624  22.406  13.973
45610W        W12393  30.561  37.557   0.313
45611W        W12394  19.469  26.379  12.433
45612W        W12395  24.331  25.116  11.468
45613W        W12396  17.618  17.242  10.890
45614W        W12397  30.572  21.571   3.390
45615W        W12398  14.977  44.211  14.508
45616W        W12399  10.923  12.512   0.733
45617W        W12400  20.516  16.566  12.856
45618W        W12401  13.307  18.208   4.522
45619W        W12402  39.431  15.858  13.928
45620W        W12403   5.271  14.082   0.831
45621W        W12404  16.779   1.758   1.926
45622W        W12405   7.950  11.965   5.009
45623W        W12406   6.149  43.789  14.599
45624W        W12407  17.153  38.469   3.683
45625W        W12408  23.714   8.448  11.601
45626W        W12409  17.594  12.688  10.327
45627W        W12410   8.263  39.930   2.241
45628W        W12411  37.295  15.295  11.895
45629W        W12412  44.537  30.958  13.842
45630W        W12413   5.859  14.672   1.058
45631W        W12414   3.676  38.757   3.272
45632W        W12415  31.585  20.351   2.767
45633W        W12416  30.577   0.795   1.708
45634W        W12417   6.419  22.007  12.596
45635W        W12418  13.921  40.832  13.475
45636W        W12419  22.254  19.631   1.907
45637W        W12420  44.300  16.065  14.867
45638W        W12421  37.345  15.574  11.006
45639W        W12422  35.428  14.554   0.995
45640W        W12423  18.763  26.640   3.264
45641W        W12424  42.573  34.955  11.947
45642W        W12425   9.966   3.886  14.959
45643W        W12426  29.621   8.925  12.080
45644W        W12427  17.165  18.619   2.125
45645W        W12428  13.565  41.303  11.636
45646W        W12429  16.659  39.105  11.071
45647W        W12430  40.640  22.121  13.439
45648W        W12431  34.668  36.416   3.388
45649W        W12432  38.410  15.089  12.514
45650W        W12433  41.890  24.564  14.469
45651W        W12434  21.195  24.016   1.498
45652W        W12435  37.637  41.954   1.938
45653W        W12436  20.385  41.427  11.134
45654W        W12437  18.257  19.610   4.113
45655W        W12438  42.300  14.121   1.264
45656W        W12439  34.867  22.638  11.198
45657W        W12440  31.764  15.741   4.016
45658W        W12441   1.441  29.957   0.840
45659W        W12442  35.196  44.426  11.137
45660W        W12443  31.171  35.412  10.681
45661W        W12444  23.078  33.677   2.639
45662W        W12445  15.748  25.035  12.048
45663W        W12446   9.887   2.707   2.315
45664W        W12447  30.431  34.883   2.777
45665W        W12448  43.943  39.470   3.407
45666W        W12449  42.383  19.284  12.357
45667W        W12450  36.088  32.639   3.076
45668W        W12451  17.757  39.277  14.836
45669W        W12452   9.785  12.422  10.743
45670W        W12453  27.915  13.220  14.259
45671W        W12454  40.773   5.838  12.904
45672W        W12455   4.087  19.124  11.892
45673W        W12456  21.138  33.575  10.609
45674W        W12457  25.535   0.007   3.274
45675W        W12458  35.983  40.165   3.114
45676W        W12459  23.926  44.878   1.344
45677W        W12460  19.243  18.273  10.271
45678W        W12461  11.801  11.640   0.323
45679W        W12462  16.974  40.614  11.081
45680W        W12463  14.467  40.387   4.658
45681W        W12464   0.851  11.390  12.040
45682W        W12465  23.493  43.235  14.477
45683W        W12466   4.292  33.651  13.329
45684W        W12467   6.912  19.558  12.967
45685W        W12468  37.929  41.070   0.501
45686W        W12469  16.399  35.107  11.997
45687W        W12470   6.904  24.728  13.320
45688W        W12471  26.881  16.061  12.973
45689W        W12472   1.383  39.881  12.479
45690W        W12473  22.248  32.619  13.048
45691W        W12474  18.064  43.330  13.891
45692W        W12475  40.000  19.320   3.139
45693W        W12476   9.837  15.596   4.519
45694W        W12477  44.403  36.642   3.372
45695W        W12478  27.013  21.203  12.882
45696W        W12479  14.439  42.951  12.489
45697W        W12480  21.579   2.841   3.166
45698W        W12481  14.881  43.438  11.753
45699W        W12482  40.567  34.067   3.554
45700W        W12483  28.689  20.193  10.645
45701W        W12484  27.360  11.536  12.126
45702W        W12485  40.041  43.723   1.211
45703W        W12486  21.067  14.242   4.291
45704W        W12487  10.152  12.268   1.199
45705W        W12488  12.650  11.608  10.479
45706W        W12489  27.176  24.110  10.413
45707W        W12490  23.997  28.081   3.547
45708W        W12491  24.038  21.295  11.157
45709W        W12492  12.294  19.033   3.564
45710W        W12493  35.469   4.293   2.118
45711W        W12494  25.303   4.745  14.820
45712W        W12495  22.232  41.083  14.937
45713W        W12496  36.636  43.715   1.400
45714W        W12497  26.037  35.060  11.921
45715W        W12498  10.359  36.527   3.181
45716W        W12499   2.359  39.266  14.925
45717W        W12500  21.290  43.939  10.768
45718W        W12501  40.981  40.995   0.354
45719W        W12502  20.586  18.521   3.624
45720W        W12503  37.321   2.915  14.206
45721W        W12504  25.231  22.082   2.159
45722W        W12505   7.728  11.154   1.828
45723W        W12506  29.016  35.433   2.801
45724W        W12507   2.002   1.732  13.868
45725W        W12508  30.009  10.902   0.397
45726W        W12509  11.162  26.515  10.935
45727W        W12510  10.616  40.026  12.620
45728W        W12511  26.485   2.884   4.618
45729W        W12512  13.654  22.696   0.778
45730W        W12513  15.841  15.309   3.801
45731W        W12514  15.275  28.497   1.359
45732W        W12515  23.739  21.972   4.168
45733W        W12516  10.085  30.508  13.476
45734W        W12517  22.190  42.454  12.834
45735W        W12518  15.722   5.021  12.836
45736W        W12519  38.343  31.379   0.998
45737W        W12520  16.327  43.951  13.411
45738W        W12521  20.156   0.991   0.493
45739W        W12522  32.015  24.249  13.846
45740W        W12523  38.596  20.703  10.816
45741W        W12524  19.118  42.267  12.913
45742W        W12525  23.086  38.271  13.370
45743W        W12526   3.326  43.503   4.200
45744W        W12527   4.142  26.100  12.412
45745W        W12528  44.214   1.422   2.911
45746W        W12529  13.106  30.206   3.824
45747W        W12530  35.793   5.811  10.549
45748W        W12531  31.873  12.159  12.950
45749W        W12532   0.412  40.229  12.851
45750W        W12533  32.153   2.930   0.924
45751W        W12534   0.809   6.389   0.518
45752W        W12535  38.364  37.942  12.533
45753W        W12536   3.832  25.399   4.691
45754W        W12537  24.070  27.874   3.053
45755W        W12538  20.040  26.945  11.964
45756W        W12539   2.695  37.588   1.221
45757W        W12540  39.153   6.105   3.279
45758W        W12541   7.543  19.466   0.464
45759W        W12542  26.581   8.595   1.862
45760W        W12543  18.608  30.119   4.137
45761W        W12544  15.121  21.267   3.287
45762W        W12545  33.204  33.690  14.819
45763W        W12546  30.022  42.068   5.096
45764W        W12547  42.022  39.318  12.291
45765W        W12548  40.400  40.929  14.208
45766W        W12549   9.431   1.082  14.957
45767W        W12550  37.066  15.165  14.964
45768W        W12551  26.044  10.088  14.325
45769W        W12552   3.710  40.846   0.003
45770W        W12553  20.758   3.389   4.094
45771W        W12554  19.065   7.846  14.260
45772W        W12555  36.872  25.817   3.795
45773W        W12556  21.647   7.481   5.075
45774W        W12557  12.946  10.615   2.805
45775W        W12558  39.356  16.832   4.692
45776W        W12559   3.041   2.913   0.740
45777W        W12560  43.857  16.914   4.588
45778W        W12561  26.713  32.337  13.752
45779W        W12562  40.487   3.201   2.440
45780W        W12563  33.176  34.905   0.423
45781W        W12564  20.590  21.040   0.505
45782W        W12565  37.324  31.194   4.417
45783W        W12566  16.602  10.072  13.405
45784W        W12567  25.275  34.521   1.897
45785W        W12568  14.030   8.182   4.174
45786W        W12569   5.435   1.384  12.445
45787W        W12570  31.975   9.630  11.439
45788W        W12571   2.951  13.056   4.770
45789W        W12572  36.993   1.685  10.397
45790W        W12573  25.063  32.990   3.170
45791W        W12574  11.734  38.703   4.065
45792W        W12575   4.877   5.087   3.457
45793W        W12576  34.119  40.994  13.539
45794W        W12577  30.378  26.996   2.677
45795W        W12578  10.304  25.921   4.755
45796W        W12579  44.353  30.092  13.331
45797W        W12580   4.680   2.694   4.151
45798W        W12581  30.029  13.713   0.720
45799W        W12582  38.197   6.361   0.967
45800W        W12583  18.628   6.407   1.720
45801W        W12584  36.868   2.950  11.159
45802W        W12585  19.776  10.832  11.326
45803W        W12586   5.645   9.830   2.279
45804W        W12587  28.931  33.405  13.878
45805W        W12588  36.029  19.922   3.072
45806W        W12589  28.172  27.894  13.576
45807W        W12590  33.117  20.605   1.613
45808W        W12591  31.504  23.151   0.440
45809W        W12592  11.505  39.239   0.775
45810W        W12593  43.754  41.906   1.215
45811W        W12594   0.817  18.782  10.434
45812W        W12595  43.093   9.652   0.404
45813W        W12596  41.821   3.256   5.139
45814W        W12597  25.126  37.559  12.074
45815W        W12598  21.955  34.804   4.072
45816W        W12599   8.658  16.689   4.091
45817W        W12600  37.963   0.162  13.440
45818W        W12601  32.665  22.258   3.182
45819W        W12602  30.542  23.598   0.493
45820W        W12603  17.215  15.282  11.868
45821W        W12604  30.477  30.496  10.728
45822W        W12605   1.994   5.904  11.412
45823W        W12606  29.936  38.350   1.673
45824W        W12607  25.204  38.840  14.928
45825W        W12608   8.792   0.379  13.496
45826W        W12609  23.391  34.453  14.795
45827W        W12610  42.797  20.084  11.940
45828W        W12611  29.466   5.086   0.409
45829W        W12612  18.055   9.520   0.896
45830W        W12613  40.788  34.792   4.894
45831W        W12614  18.158  28.561  12.740
45832W        W12615  26.803  36.036   4.017
45833W        W12616  18.660   3.269   2.107
45834W        W12617   3.844   3.169   5.151
45835W        W12618   3.475   4.537  12.653
45836W        W12619   8.752   1.264  13.379
45837W        W12620  27.403  25.127  11.907
45838W        W12621  23.129  16.077   3.151
45839W        W12622  10.298  13.561   0.815
45840W        W12623  43.949  19.832   0.775
45841W        W12624  12.128   4.989  14.346
45842W        W12625   6.317  19.797  11.187
45843W        W12626  35.361  22.480   2.266
45844W        W12627  43.208   0.314   0.047
45845W        W12628  20.846  26.205  13.304
45846W        W12629  23.512   6.523  14.835
45847W        W12630  44.540   7.638   0.061
45848W        W12631  11.249  32.608   2.649
45849W        W12632  44.957  15.346  11.713
45850W        W12633  40.429  20.691   0.917
45851W        W12634   5.649  20.611   0.690
45852W        W12635  20.640  19.632  10.728
45853W        W12636   3.807  27.008  11.393
45854W        W12637  43.711  28.732   1.769
45855W        W12638  17.826  12.620  14.935
45856W        W12639  33.905  29.253  14.565
45857W        W12640   6.957  39.296  14.792
45858W        W12641   8.428  35.137  12.867
45859W        W12642   7.170  44.221  11.812
45860W        W12643  35.275  31.874  10.978
45861W        W12644  19.138  10.736  14.423
45862W        W12645  10.257  16.590  11.740
45863W        W12646   0.236  27.282  11.250
45864W        W12647  27.421  22.681   2.676
45865W        W12648  43.721  25.338  11.329
45866W        W12649  41.344  18.700   0.948
45867W        W12650  12.750  17.085   1.023
45868W        W12651  29.073  19.622  12.654
45869W        W12652  29.976  12.457  12.754
45870W        W12653  14.299  44.538  13.908
45871W        W12654  28.190   2.640   3.143
45872W        W12655   5.267  19.166   0.487
45873W        W12656   8.184  34.860  11.626
45874W        W12657  41.551  26.218   4.096
45875W        W12658  11.881  24.875  12.844
45876W        W12659  21.448  39.902  13.773
45877W        W12660  38.171  10.216   2.371
45878W        W12661  24.416  28.390  11.606
45879W        W12662   0.712  43.428  14.136
45880W        W12663  36.618  38.384   4.155
45881W        W12664  20.067  20.696   3.451
45882W        W12665  31.532   4.875   2.700
45883W        W12666  25.210   9.568  10.942
45884W        W12667  36.592  23.634  10.298
45885W        W12668  33.514  24.422  13.890
45886W        W12669  39.839  22.298   4.945
45887W        W12670  19.649  43.030   1.815
45888W        W12671  24.118  25.491   3.102
45889W        W12672  39.589  13.006  14.976
45890W        W12673  13.379  26.749  11.392
45891W        W12674  23.322  24.180  14.567
45892W        W12675  31.381  36.360   1.225
45893W        W12676   7.173  44.957  14.457
45894W        W12677  19.721   2.287  12.797
45895W        W12678   3.021  26.943  11.025
45896W        W12679   0.429  21.791   0.809
45897W        W12680  36.501  19.161   0.880
45898W        W12681  11.257  29.000   3.325
45899W        W12682  44.932  33.721   3.132
45900W        W12683  29.261   3.962  10.419
45901W        W12684   7.298  44.299   4.321
45902W        W12685   6.962  23.008   0.383
45903W        W12686   6.222   8.815  14.446
45904W        W12687   1.209  36.182  12.833
45905W        W12688  38.267  38.574  11.456
45906W        W12689   8.476  25.780   4.470
45907W        W12690  19.463  34.135  11.545
45908W        W12691   2.877  15.035  13.161
45909W        W12692  27.868  27.369   1.035
45910W        W12693   5.660   6.871  13.378
45911W        W12694   9.408   0.889   4.579
45912W        W12695   1.477  43.671   2.215
45913W        W12696  42.259   7.640   1.190
45914W        W12697  44.104  17.485  11.191
45915W        W12698  42.048  23.710  14.494
45916W        W12699  44.247   6.266  13.306
45917W        W12700  40.819  18.891   3.249
45918W        W12701  42.425  27.408   4.389
45919W        W12702  17.188   3.266  11.600
45920W        W12703  18.825   5.920   0.969
45921W        W12704   8.204  37.916   3.113
45922W        W12705  44.043  30.490  13.531
45923W        W12706  43.306  10.176  12.029
45924W        W12707  37.228  37.835  14.398
45925W        W12708   9.552   2.222   1.567
45926W        W12709  31.564  20.158   3.628
45927W        W12710  14.090  27.120  10.363
45928W        W12711  23.909  18.187   2.847
45929W        W12712  25.628  30.861  12.960
45930W        W12713  28.667  44.265   2.685
45931W        W12714  35.881   5.126  13.931
45932W        W12715  40.480  24.545   2.841
45933W        W12716   7.485  32.068  12.758
45934W        W12717  43.862   2.694   4.733
45935W        W12718  29.988  30.495  11.742
45936W        W12719  17.280  42.434   0.469
45937W        W12720   2.402  30.383  13.587
45938W        W12721  19.478  19.697   0.370
45939W        W12722   4.409  17.725   1.550
45940W        W12723  19.341  26.221  11.448
45941W        W12724  41.687  17.805   3.885
45942W        W12725  12.824  31.097  14.791
45943W        W12726  41.557  31.953  11.642
45944W        W12727  11.168   0.799   2.338
45945W        W12728   0.705  26.336  11.779
45946W        W12729   9.372  17.048   3.345
45947W        W12730  16.154   8.346   3.597
45948W        W12731   0.205  40.949   3.346
45949W        W12732  27.177  42.320   0.934
45950W        W12733  36.010  39.441  13.828
45951W        W12734  32.662   8.827  12.068
45952W        W12735  41.038  38.514   3.927
45953W        W12736  25.726   8.249   2.425
45954W        W12737   0.335  24.252   1.394
45955W        W12738  43.184  11.516  13.353
45956W        W12739   3.353   4.533  14.475
45957W        W12740  18.001  25.168   3.600
45958W        W12741  33.948  16.844   2.224
45959W        W12742  24.113  43.420  13.314
45960W        W12743  44.949  32.986  11.908
45961W        W12744  22.830   8.576  11.100
45962W        W12745  27.671  39.642  14.942
45963W        W12746   2.347  37.975   3.244
45964W        W12747  13.399  17.379  11.182
45965W        W12748  37.175   2.732   0.715
45966W        W12749   4.938  43.878   1.380
45967W        W12750   9.867  18.329   1.734
45968W        W12751   7.875  19.319  13.753
45969W        W12752  19.173   2.512   2.198
45970W        W12753   2.398  28.414   0.717
45971W        W12754  41.040  31.075   0.419
45972W        W12755  43.960  42.892   4.169
45973W        W12756   5.902   5.402   4.288
45974W        W12757  24.419  23.742   2.369
45975W        W12758  14.777  30.111  13.110
45976W        W12759  43.491  26.743   3.282
45977W        W12760   8.210   9.856   0.222
45978W        W12761  23.245  19.795  12.774
45979W        W12762  39.467  44.321   4.619
45980W        W12763  29.935  40.520  13.207
45981W        W12764  41.288   1.210   2.458
45982W        W12765  40.355  19.249  12.365
45983W        W12766   5.804  21.073   3.244
45984W        W12767   4.857  42.308   0.367
45985W        W12768  32.982   3.862  14.271
45986W        W12769   3.491  44.385  11.269
45987W        W12770  32.517   1.076  14.718
45988W        W12771  41.553  25.944  12.063
45989W        W12772  34.909  41.160   0.534
45990W        W12773   0.029   8.886  10.453
45991W        W12774  35.369  14.859  12.058
45992W        W12775   1.654  25.925   3.227
45993W        W12776  44.777  20.352  14.407
45994W        W12777  26.432  24.386  14.455
45995W        W12778   8.247  35.364  11.629
45996W        W12779  26.458  33.034   1.007
45997W        W12780  17.058  38.964  10.784
45998W        W12781  32.080  39.839  10.784
45999W        W12782  44.437  26.601  14.977
46000W        W12783   3.468  12.914  14.867
46001W        W12784  22.319  29.191   2.645
46002W        W12785  12.729  26.859   4.811
46003W        W12786  37.402  32.475  13.875
46004W        W12787  15.369   3.061  14.142
46005W        W12788  30.854  21.161   3.610
46006W        W12789  24.712  27.614  13.481
46007W        W12790  18.834  29.600   5.018
46008W        W12791   3.442  36.969  11.653
46009W        W12792   1.949  32.336   3.875
46010W        W12793  10.731   8.713   1.617
46011W        W12794  15.516  40.220   2.531
46012W        W12795  34.856  11.393  11.215
46013W        W12796  20.397  19.585  12.246
46014W        W12797  41.057   3.785   0.953
46015W        W12798   4.212  20.302   2.803
46016W        W12799   9.665   7.018  14.764
46017W        W12800  21.975  25.566  14.434
46018W        W12801  21.622  30.533  12.129
46019W        W12802  25.447  18.634   4.212
46020W        W12803  35.299  10.772   2.072
46021W        W12804  28.276  35.310   3.210
46022W        W12805   5.643   1.588   0.762
46023W        W12806  32.960  36.779   0.311
46024W        W12807  31.146   5.326   1.011
46025W        W12808   8.402  28.545   0.020
46026W        W12809  40.086   3.369  10.611
46027W        W12810  33.654   7.481   3.162
46028W        W12811  15.279  39.945   3.198
46029W        W12812  12.305  22.634   1.760
46030W        W12813  32.464  17.619   0.776
46031W        W12814  27.024  24.100  12.128
46032W        W12815   0.498  32.671   1.455
46033W        W12816  18.154  30.052   3.167
46034W        W12817  31.568   0.843   1.952
46035W        W12818  41.409   0.411  12.101
46036W        W12819  10.104  31.072   2.093
46037W        W12820   9.162  25.921  10.740
46038W        W12821  29.334   8.876  12.523
46039W        W12822  28.067   7.455  14.329
46040W        W12823  32.852  18.059  14.899
46041W        W12824  10.366   5.835  11.991
46042W        W12825   2.780  33.834  14.656
46043W        W12826  10.611  12.321   0.363
46044W        W12827  16.776   5.504   4.558
46045W        W12828  18.059  17.920  11.060
46046W        W12829   2.044  36.114   1.696
46047W        W12830  31.740  41.287  11.428
46048W        W12831  29.589  19.040   3.250
46049W        W12832  19.711  33.477   1.217
46050W        W12833   5.169  26.267   4.875
46051W        W12834  36.002   0.620  12.220
46052W        W12835  27.593  31.926  10.466
46053W        W12836  18.111  44.452   1.692
46054W        W12837   3.185  37.355  11.417
46055W        W12838   1.874  18.202   0.954
46056W        W12839   7.827  14.591  11.611
46057W        W12840  22.858   7.674   2.380
46058W        W12841  24.581  15.284  14.427
46059W        W12842  11.417   9.929  12.529
46060W        W12843  40.429  37.022   3.212
46061W        W12844  35.013  10.191   4.764
46062W        W12845  16.291  22.097   0.948
46063W        W12846  11.721  35.347  14.957
46064W        W12847  42.770  40.455  12.242
46065W        W12848  22.794   3.018  13.948
46066W        W12849  42.851  36.755   0.707
46067W        W12850  43.326  33.103   0.217
46068W        W12851  16.492  41.866  11.033
46069W        W12852  32.216  43.678   2.193
46070W        W12853  37.478  19.931  11.163
46071W        W12854  44.773   2.704  11.520
46072W        W12855  18.628   8.666  12.258
46073W        W12856  24.858   9.407   3.608
46074W        W12857   8.112  43.005  10.367
46075W        W12858  27.611  21.343  14.458
46076W        W12859   1.844  35.372   4.526
46077W        W12860  42.866  35.781   2.416
46078W        W12861  41.292  37.577   9.866
46079W        W12862  33.516  21.787   0.702
46080W        W12863   9.121  30.067  12.650
46081W        W12864  28.574  41.337   0.942
46082W        W12865   1.806  21.295  13.237
46083W        W12866   1.049  33.529   1.224
46084W        W12867  26.258  38.005  12.964
46085W        W12868  26.514  27.120  10.782
46086W        W12869  32.647  33.631  13.954
46087W        W12870   0.549  43.364   0.975
46088W        W12871   9.605  29.916  12.467
46089W        W12872  25.637  41.467   0.353
46090W        W12873   6.738   3.850   3.442
46091W        W12874  39.381  42.558   3.697
46092W        W12875   3.513  34.148   0.736
46093W        W12876  44.927  34.681   3.408
46094W        W12877  26.121  42.089   3.403
46095W        W12878  23.781  36.783  13.953
46096W        W12879  25.247  40.790   1.315
46097W        W12880  40.084  39.341   4.497
46098W        W12881   2.833  18.368   4.832
46099W        W12882  26.674  13.262  13.686
46100W        W12883  29.682   0.714  14.923
46101W        W12884  20.205  29.522  13.491
46102W        W12885  13.572   5.199  13.885
46103W        W12886  40.522  24.762   0.783
46104W        W12887  19.647   4.883   3.128
46105W        W12888   9.085  17.925  13.102
46106W        W12889  13.818  34.056  10.206
46107W        W12890  40.086  31.052   2.882
46108W        W12891  44.744   2.547   4.547
46109W        W12892  42.896  22.091   2.026
46110W        W12893  38.506  13.283  10.644
46111W        W12894  23.624  34.145  11.912
46112W        W12895  23.506  13.340   4.599
46113W        W12896   9.847  10.151   3.161
46114W        W12897  36.473  41.872   1.502
46115W        W12898   9.857  34.521  14.340
46116W        W12899  40.071  43.516  14.466
46117W        W12900  20.022  36.495  10.719
46118W        W12901  37.870  22.744   1.852
46119W        W12902  28.683   8.698  11.914
46120W        W12903  43.329  11.049   4.629
46121W        W12904  40.926  22.700   0.342
46122W        W12905  32.920  41.622  13.622
46123W        W12906  23.812  30.438  10.625
46124W        W12907  32.137  42.853   1.339
46125W        W12908  15.709   1.047   3.065
46126W        W12909  11.605  30.077   4.672
46127W        W12910  31.994  16.289  14.515
46128W        W12911   2.768   7.421  10.636
46129W        W12912   3.645   7.688  14.019
46130W        W12913  40.833  36.382   3.532
46131W        W12914  19.267  27.503   2.944
46132W        W12915   3.256  44.286  12.590
46133W        W12916   3.922  21.496  11.050
46134W        W12917  32.968  14.834   0.813
46135W        W12918  39.970   3.305  12.098
46136W        W12919  24.293  42.753   0.647
46137W        W12920  15.106  19.184  11.672
46138W        W12921   3.179  37.405  13.970
46139W        W12922   9.375  30.307  13.027
46140W        W12923   3.179  42.379   0.909
46141W        W12924  34.988  24.197  12.996
46142W        W12925   5.085  23.923  11.154
46143W        W12926  17.255  36.733  14.126
46144W        W12927  43.752  11.786   3.308
46145W        W12928  18.258  42.054  11.490
46146W        W12929  40.863  38.922   2.936
46147W        W12930  13.846  44.580   0.556
46148W        W12931  32.545  31.437  10.661
46149W        W12932  43.631   1.865  11.500
46150W        W12933  14.076  36.919   2.627
46151W        W12934  37.051  27.878  11.454
46152W        W12935   3.642  28.411  13.057
46153W        W12936  14.258  44.824   0.378
46154W        W12937  29.106  22.191   1.188
46155W        W12938  21.148  20.462   3.596
46156W        W12939  23.924  35.519  12.031
46157W        W12940  36.204  13.327  14.530
46158W        W12941  28.130  21.671  11.051
46159W        W12942  26.633  19.111   3.317
46160W        W12943  35.055  13.156  10.583
46161W        W12944  12.626   3.681   1.214
46162W        W12945   9.712  28.921  13.953
46163W        W12946  16.298   8.905   4.840
46164W        W12947  42.916  42.683   0.787
46165W        W12948  41.696   5.121   2.741
46166W        W12949   1.858  43.803   4.175
46167W        W12950  13.674  24.703  12.577
46168W        W12951  14.300   2.801   4.179
46169W        W12952  44.422  20.542  11.633
46170W        W12953  32.843  32.126   2.705
46171W        W12954  36.542  13.482   4.711
46172W        W12955  28.301  43.782  13.440
46173W        W12956  33.956  18.587  11.564
46174W        W12957  41.981  25.459   1.437
46175W        W12958  40.781   5.482  13.829
46176W        W12959  27.920   5.213   1.998
46177W        W12960  44.926   0.361  12.979
46178W        W12961  13.725  39.225   3.653
46179W        W12962   7.017   0.931  10.700
46180W        W12963  11.870   6.008  12.057
46181W        W12964  20.631  23.958   3.301
46182W        W12965  19.388  35.958   2.748
46183W        W12966  41.695  32.017   4.668
46184W        W12967   9.240  41.856  14.712
46185W        W12968   3.290   3.510  14.439
46186W        W12969  31.329  22.667   3.877
46187W        W12970   7.072   7.767  14.454
46188W        W12971   2.715  36.884  13.048
46189W        W12972  41.738  39.310  11.870
46190W        W12973  38.493  24.007   0.878
46191W        W12974  30.591  44.824   2.383
46192W        W12975  24.120  24.587  12.465
46193W        W12976  41.481  31.933  12.631
46194W        W12977  42.921  42.218  10.378
46195W        W12978  39.542  22.123  13.370
46196W        W12979  10.312  36.799   2.732
46197W        W12980  18.766  10.176   4.826
46198W        W12981  36.052  22.048  11.176
46199W        W12982  21.514  12.408  11.744
46200W        W12983  41.813   2.450   3.785
46201W        W12984  26.099  19.694  11.919
46202W        W12985  40.077  34.940   0.699
46203W        W12986  41.986  20.162  10.714
46204W        W12987   2.427  11.313   4.013
46205W        W12988  36.637   7.853  11.359
46206W        W12989  33.355  38.880   1.693
46207W        W12990  41.358  21.314  11.141
46208W        W12991  20.228  42.245  11.139
46209W        W12992  43.167   6.783   0.943
46210W        W12993  15.495  39.860  12.674
46211W        W12994  14.657  21.592   2.275
46212W        W12995  22.012  22.419  14.360
46213W        W12996   6.878  42.340  12.243
46214W        W12997  17.640  26.377   4.081
46215W        W12998  28.661  17.431  12.863
46216W        W12999  23.020  41.434  12.771
46217W        W13000  13.454  34.750  11.899
46218W        W13001   9.805   0.948   1.108
46219W        W13002  13.737   3.207   2.409
46220W        W13003  18.552  14.231   1.099
46221W        W13004  25.958  16.179  13.515
46222W        W13005  37.374  32.061   0.373
46223W        W13006   6.512   6.717  11.225
46224W        W13007  24.976  44.963   1.314
46225W        W13008   6.783  29.761   2.860
46226W        W13009  33.690  27.161  11.601
46227W        W13010  18.706  34.502   3.404
46228W        W13011  13.827  42.758   0.484
46229W        W13012  35.028  15.812   0.718
46230W        W13013  38.368  13.368   3.349
46231W        W13014  14.665  31.968   3.673
46232W        W13015  17.293   0.836  13.488
46233W        W13016  29.315  24.291   0.270
46234W        W13017  10.287  28.774   3.949
46235W        W13018  19.632   9.007   2.245
46236W        W13019  38.875  39.648  12.394
46237W        W13020  16.552  38.772  12.592
46238W        W13021  13.037   4.796   0.442
46239W        W13022   8.912  26.611  14.313
46240W        W13023   7.146  23.736  13.411
46241W        W13024  42.962  10.324   2.609
46242W        W13025  30.867   6.370  11.237
46243W        W13026  37.425  18.578  12.531
46244W        W13027  35.392  37.505   4.025
46245W        W13028  28.608  19.333   2.435
46246W        W13029  34.012  13.977  11.037
46247W        W13030   1.333  39.493   3.152
46248W        W13031  41.809   0.258  12.403
46249W        W13032  18.876  20.694   3.870
46250W        W13033  39.814   2.919  11.476
46251W        W13034  23.074   4.517   4.892
46252W        W13035  14.402   1.851   1.554
46253W        W13036   0.449  11.311   4.679
46254W        W13037  38.282  44.891   1.672
46255W        W13038  39.034  28.083   0.056
46256W        W13039  41.562  18.293  10.703
46257W        W13040  28.573  17.600  13.343
46258W        W13041  29.854   5.168   4.161
46259W        W13042  43.755  19.338  14.303
46260W        W13043  15.915  41.726   4.215
46261W        W13044  28.806  19.679  13.122
46262W        W13045  30.026  40.827   1.789
46263W        W13046  42.211  25.567  10.598
46264W        W13047  11.356  29.451  13.416
46265W        W13048   0.323  42.473   0.066
46266W        W13049  36.295   1.965  13.921
46267W        W13050   6.465  23.057   4.559
46268W        W13051  34.311  18.598  14.765
46269W        W13052  14.156  39.576  14.338
46270W        W13053  42.939   5.522   4.580
46271W        W13054   4.662  44.197   3.574
46272W        W13055   6.488  27.435   3.488
46273W        W13056  14.180  38.242  12.985
46274W        W13057  10.726  38.647  12.105
46275W        W13058  21.223   9.755   4.596
46276W        W13059  27.536  12.991   4.309
46277W        W13060   6.649  39.218  14.352
46278W        W13061   8.438  41.888   0.508
46279W        W13062  14.984  30.664   0.715
46280W        W13063   5.995  21.053  11.518
46281W        W13064  37.241  17.848  14.384
46282W        W13065  21.967  22.334  12.141
46283W        W13066  26.417   6.815  14.873
46284W        W13067  10.653  30.036  12.469
46285W        W13068  34.832  11.203   2.188
46286W        W13069  39.384  44.913   2.927
46287W        W13070  20.984   9.492  13.435
46288W        W13071  37.936  43.675  11.565
46289W        W13072  37.657  37.586   2.272
46290W        W13073  44.023  24.946   0.873
46291W        W13074  24.613   4.328   3.375
46292W        W13075  27.571  43.285   3.813
46293W        W13076  11.579   0.443  13.834
46294W        W13077  36.822  29.643   3.682
46295W        W13078  36.124  31.557   4.068
46296W        W13079  26.639   7.249   4.476
46297W        W13080  40.632  45.000   3.206
46298W        W13081  15.078  20.709  11.743
46299W        W13082  13.368  30.188  11.758
46300W        W13083  44.845  44.987   3.645
46301W        W13084  37.798  10.524  11.197
46302W        W13085  27.901   1.209  11.961
46303W        W13086  28.759  34.501   4.131
46304W        W13087  25.679  35.994  13.103
46305W        W13088  42.062  23.924  13.163
46306W        W13089  17.382   8.865   4.094
46307W        W13090   8.274  34.146  10.955
46308W        W13091   9.331  16.095   1.818
46309W        W13092  37.023  11.559   2.258
46310W        W13093  15.883  38.034   2.339
46311W        W13094  42.908  14.709  12.083
46312W        W13095  27.067  20.300   0.267
46313W        W13096  21.116  34.900  11.854
46314W        W13097  42.799  24.376  14.497
46315W        W13098  30.457   5.719   1.628
46316W        W13099   5.751   5.211   1.477
46317W        W13100  10.559  39.008   2.774
46318W        W13101  33.509  39.571  11.557
46319W        W13102  10.421   6.294   4.120
46320W        W13103  19.595  21.037   4.153
46321W        W13104   6.366  30.385   1.969
46322W        W13105  38.286   2.508  11.422
46323W        W13106  32.156  30.692   1.047
46324W        W13107   1.697  26.491   2.260
46325W        W13108  14.104  33.083  11.632
46326W        W13109  23.215  12.180  14.220
46327W        W13110  44.826  12.493  12.485
46328W        W13111  34.722  26.170   1.236
46329W        W13112  36.792  36.389  13.892
46330W        W13113  29.905  24.697  14.703
46331W        W13114   6.989   1.175   2.766
46332W        W13115  12.013   0.686  13.683
46333W        W13116  33.893  44.910  10.547
46334W        W13117   4.943   9.024   1.884
46335W        W13118   2.312  17.769   0.343
46336W        W13119  19.015   5.225   1.772
46337W        W13120  13.152  13.423   4.034
46338W        W13121   7.782  13.134   2.024
46339W        W13122  24.062  36.018   4.346
46340W        W13123  22.326  38.300   0.890
46341W        W13124  21.892  31.846   3.111
46342W        W13125  36.651  19.872  12.014
46343W        W13126  12.929  44.595  13.799
46344W        W13127  37.877  30.163  13.048
46345W        W13128  20.390  42.702   2.312
46346W        W13129   3.983   3.827  14.955
46347W        W13130  29.989  16.796  13.929
46348W        W13131  36.809  33.074   1.012
46349W        W13132  28.471  14.679  11.564
46350W        W13133  37.427   6.054   3.584
46351W        W13134  44.523   4.611   5.018
46352W        W13135  42.942   1.154   4.682
46353W        W13136  36.762  37.675  14.199
46354W        W13137  16.599  34.235  13.824
46355W        W13138  28.898   5.936  12.442
46356W        W13139  27.605  23.728   2.293
46357W        W13140  28.054  36.943   1.182
46358W        W13141  41.198   4.004  11.513
46359W        W13142  33.451  28.900  13.029
46360W        W13143  28.125  29.178   2.255
46361W        W13144   3.708  44.107   1.888
46362W        W13145  44.411  21.796   1.700
46363W        W13146  14.273  17.379   2.926
46364W        W13147  43.493  28.741   2.259
46365W        W13148  17.505  24.654  14.258
46366W        W13149   4.173  29.832   1.294
46367W        W13150   1.995  37.135   2.295
46368W        W13151  38.969   9.756   0.348
46369W        W13152   5.961  13.247   1.034
46370W        W13153   8.689  41.628  14.402
46371W        W13154  38.802   3.868  12.341
46372W        W13155  18.509   5.365  13.778
46373W        W13156  39.287  13.372   3.127
46374W        W13157  18.042  18.812  14.299
46375W        W13158   4.865   6.574   3.264
46376W        W13159  20.074  17.076  14.380
46377W        W13160   4.419   9.949   0.040
46378W        W13161  30.738  29.500  12.587
46379W        W13162  25.955  15.324   0.977
46380W        W13163  26.169  20.591   4.742
46381W        W13164  34.678  22.157  11.243
46382W        W13165   0.587   8.286   0.475
46383W        W13166  10.843  22.655   0.694
46384W        W13167   7.334  11.138   2.873
46385W        W13168  30.499  15.590   2.771
46386W        W13169  23.186  12.401  12.036
46387W        W13170   0.684   3.915   1.354
46388W        W13171  11.117  39.407   2.110
46389W        W13172  34.955  34.998  15.000
46390W        W13173  34.328  35.000   1.909
46391W        W13174   4.903  29.122   3.681
46392W        W13175  29.886  10.616   4.133
46393W        W13176  34.193  13.598   1.681
46394W        W13177  29.914   2.029  14.465
46395W        W13178  37.478   0.808  13.100
46396W        W13179  33.892  12.726  11.518
46397W        W13180  20.965  39.919   4.112
46398W        W13181  34.145  44.381   3.799
46399W        W13182  16.313  19.005  11.279
46400W        W13183  24.298  21.602  13.039
46401W        W13184  34.184   9.455  13.075
46402W        W13185  44.642  29.343  12.011
46403W        W13186   4.003  11.678   1.679
46404W        W13187  14.098  41.327  13.336
46405W        W13188  32.414  21.012   1.693
46406W        W13189  10.360  31.330  11.507
46407W        W13190  44.132  25.120   3.683
46408W        W13191  26.170  23.965   0.422
46409W        W13192  35.948  42.192   2.277
46410W        W13193  41.413  38.593  14.002
46411W        W13194  30.287  18.160  11.714
46412W        W13195  14.551  23.966   4.967
46413W        W13196  36.309  29.075  13.904
46414W        W13197  25.943  33.531   2.322
46415W        W13198  32.309  24.992  11.539
46416W        W13199  40.032  39.184   0.196
46417W        W13200  37.867  35.394   1.748
46418W        W13201  38.246  16.816  11.980
46419W        W13202   1.935  42.700   0.734
46420W        W13203  11.072  41.038   1.944
46421W        W13204   5.190  30.554  12.414
46422W        W13205   3.947  32.454   4.905
46423W        W13206  12.261  35.093   3.047
46424W        W13207  15.638   2.849   3.680
46425W        W13208  15.533   4.258  11.589
46426W        W13209  20.115  23.610   1.668
46427W        W13210  11.218   4.789   4.094
46428W        W13211  14.810  18.656   0.690
46429W        W13212  41.537   9.788  10.988
46430W        W13213  26.463  21.677   3.892
46431W        W13214   8.175   2.736   2.132
46432W        W13215  43.238  11.451  14.350
46433W        W13216  27.575  14.887  11.651
46434W        W13217  10.761  18.497  10.639
46435W        W13218   4.930   8.153   0.103
46436W        W13219   2.911  33.992   3.870
46437W        W13220  27.585  29.949  13.036
46438W        W13221  15.116  44.723   3.296
46439W        W13222  37.918  39.433   3.656
46440W        W13223  31.422  26.061  12.141
46441W        W13224  19.786  29.577   2.866
46442W        W13225  21.824  14.832   3.971
46443W        W13226   8.916  12.731   1.346
46444W        W13227  42.659  40.374   2.667
46445W        W13228  37.820  34.438  13.902
46446W        W13229  33.622  36.680  12.593
46447W        W13230  44.284  11.280   3.672
46448W        W13231   7.870  29.982   0.899
46449W        W13232  10.848  25.788   0.291
46450W        W13233   7.784  29.628  10.978
46451W        W13234  15.723  33.811   1.994
46452W        W13235  12.149  42.623  10.604
46453W        W13236  22.094   1.620  11.881
46454W        W13237  12.663  17.036   3.549
46455W        W13238  30.605  22.578  14.011
46456W        W13239  28.091  26.923   3.976
46457W        W13240  15.590  37.944  14.010
46458W        W13241   6.889  29.605   3.392
46459W        W13242   7.331  30.070  13.359
46460W        W13243   2.760   5.400  14.788
46461W        W13244  35.672  27.284  11.618
46462W        W13245  33.878  23.776   1.351
46463W        W13246   9.325  10.894  11.938
46464W        W13247  24.632  41.462   1.400
46465W        W13248  28.485  25.225  13.842
46466W        W13249  19.838   4.994  11.707
46467W        W13250  25.762   8.557  12.224
46468W        W13251   8.524  32.515   2.694
46469W        W13252  35.346  40.122  14.239
46470W        W13253   0.442  23.802   4.501
46471W        W13254   7.634   0.681   2.866
46472W        W13255  29.880  29.130   3.197
46473W        W13256  13.526  38.547   3.168
46474W        W13257  13.084  40.354   2.894
46475W        W13258  37.961   0.810  12.632
46476W        W13259  18.523  41.367   4.999
46477W        W13260   1.351   0.669   2.189
46478W        W13261  32.754  26.676   0.919
46479W        W13262  38.097  25.185   3.234
46480W        W13263   5.665  13.762   4.602
46481W        W13264   2.779  40.299  10.795
46482W        W13265  33.872   7.839  13.869
46483W        W13266   0.979  34.460   1.473
46484W        W13267  24.964  25.377  10.328
46485W        W13268  15.998  14.742   9.843
46486W        W13269   8.300  14.920   4.310
46487W        W13270  16.312  14.376   2.412
46488W        W13271  10.343  35.645   3.621
46489W        W13272  21.496  10.498  13.804
46490W        W13273  20.920  12.037   0.040
46491W        W13274  38.856   3.375  12.898
46492W        W13275  22.192  18.778   4.196
46493W        W13276  40.703   1.817   1.824
46494W        W13277  10.715  15.028   4.470
46495W        W13278   2.883  25.506  12.430
46496W        W13279   6.011  17.069   4.961
46497W        W13280  27.967  21.954  12.914
46498W        W13281   1.268  28.056  11.439
46499W        W13282  43.343  22.327   0.784
46500W        W13283  39.484  20.746   2.396
46501W        W13284  14.249  39.253  14.740
46502W        W13285  18.025  31.537   1.906
46503W        W13286  43.093  33.930   0.832
46504W        W13287  30.176  36.022   4.285
46505W        W13288  43.967  24.051  12.102
46506W        W13289   7.304   5.369   0.943
46507W        W13290  18.649  33.387   0.296
46508W        W13291  25.051  25.624   2.238
46509W        W13292  44.734  26.026   0.749
46510W        W13293  43.868   8.898  12.144
46511W        W13294  22.731   0.003   1.876
46512W        W13295  37.968  44.593  11.984
46513W        W13296  37.545  30.279   2.368
46514W        W13297  39.376  35.412   0.814
46515W        W13298  27.805  32.048  13.600
46516W        W13299  12.726  44.742   4.788
46517W        W13300  30.116  17.292  14.088
46518W        W13301  44.962  15.850   3.386
46519W        W13302  32.499  26.976  10.896
46520W        W13303  25.659  35.243  13.872
46521W        W13304  23.950  16.092   2.324
46522W        W13305  17.198  27.426   3.648
46523W        W13306  16.035  33.063   4.095
46524W        W13307  10.153  17.161   3.623
46525W        W13308  33.448  39.945  10.072
46526W        W13309  31.410  39.790  14.332
46527W        W13310  16.214  21.547   2.430
46528W        W13311  16.723  13.299   1.537
46529W        W13312  28.698   6.855   1.540
46530W        W13313  31.353  22.470  14.867
46531W        W13314  20.489  18.708  12.138
46532W        W13315   2.666  39.038  13.495
46533W        W13316  38.200   4.663   3.639
46534W        W13317  12.497  44.536  10.876
46535W        W13318   4.917  12.467   2.341
46536W        W13319  41.517  43.370  12.031
46537W        W13320  22.028   1.376   0.304
46538W        W13321  32.167  41.725  12.574
46539W        W13322  30.562  28.079  14.100
46540W        W13323  39.350   4.647   4.762
46541W        W13324  42.876  42.454   3.327
46542W        W13325  16.598  13.398  14.402
46543W        W13326  29.362   2.058  10.319
46544W        W13327  27.598   2.400  13.292
46545W        W13328  41.800  13.641  11.264
46546W        W13329  42.678   8.359   3.584
46547W        W13330  39.215   4.803  14.967
46548W        W13331   1.014  15.131  10.987
46549W        W13332  32.650  40.865  10.667
46550W        W13333  27.728  27.662  14.565
46551W        W13334  34.773  21.665   2.492
46552W        W13335   2.305  20.846  14.389
46553W        W13336  42.821   1.383  13.032
46554W        W13337  26.350  25.611  14.010
46555W        W13338  34.607  40.043  13.504
46556W        W13339  42.036  32.664   2.274
46557W        W13340  10.304   5.782   2.795
46558W        W13341  22.576  27.220   0.688
46559W        W13342   7.688   7.459  10.746
46560W        W13343  35.911  36.593  14.010
46561W        W13344  21.304   5.211   2.839
46562W        W13345  19.179  19.265  12.875
46563W        W13346   8.965  18.763  13.946
46564W        W13347  36.337  28.760   2.115
46565W        W13348  18.558   7.811  13.022
46566W        W13349  36.547  22.251  12.440
46567W        W13350   5.532  19.730   4.320
46568W        W13351  23.529   8.160  11.190
46569W        W13352  11.698  39.995  12.294
46570W        W13353  41.338  27.162  10.637
46571W        W13354  22.224  40.736  11.164
46572W        W13355   2.959  21.102  12.070
46573W        W13356  40.748  29.145  14.545
46574W        W13357  40.517  40.369   1.833
46575W        W13358  20.548  23.612   1.391
46576W        W13359  44.374  36.538  10.736
46577W        W13360  37.974  30.173   2.646
46578W        W13361  24.775  21.834  11.079
46579W        W13362  14.357   6.283  11.593
46580W        W13363  18.141  40.815   4.094
46581W        W13364  40.703   4.401   3.332
46582W        W13365  24.539  17.187   1.351
46583W        W13366  14.742  44.646   0.360
46584W        W13367  34.136  19.108  13.912
46585W        W13368  32.466  39.449  10.731
46586W        W13369   9.282  31.370   4.181
46587W        W13370   4.863  18.312   1.962
46588W        W13371  10.659  32.464   4.230
46589W        W13372  19.835  19.606   0.819
46590W        W13373   0.814  44.525   0.249
46591W        W13374  43.776  32.029   1.094
46592W        W13375  25.217   5.984   4.925
46593W        W13376  23.988   0.571  12.808
46594W        W13377  41.127  42.454  11.738
46595W        W13378   2.332  30.431  12.093
46596W        W13379  24.653  14.226   0.272
46597W        W13380  18.541  33.172  11.123
46598W        W13381  15.765  21.677   4.649
46599W        W13382  14.675  19.067   0.409
46600W        W13383  16.089  21.552   0.993
46601W        W13384   2.191  11.851   3.198
46602W        W13385  34.009  35.876   2.176
46603W        W13386  38.400  41.256   3.776
46604W        W13387  17.794   4.877   2.289
46605W        W13388  22.150  25.127   2.393
46606W        W13389  18.339   8.546   3.198
46607W        W13390  19.009   0.456   0.669
46608W        W13391  10.854  14.838   0.411
46609W        W13392  20.179   1.266   1.806
46610W        W13393   3.543  10.334   1.760
46611W        W13394   1.963  41.481   1.961
46612W        W13395  22.654  40.392   1.716
46613W        W13396  13.552  39.020  11.971
46614W        W13397  15.022   8.943   4.726
46615W        W13398   8.189  10.204   3.377
46616W        W13399   3.457  23.123  14.366
46617W        W13400  14.956  34.943  14.860
46618W        W13401  19.015   4.312  14.730
46619W        W13402   9.201   8.269   0.002
46620W        W13403  29.044  25.960   4.008
46621W        W13404  32.842   5.640   3.101
46622W        W13405  31.053   4.827   1.819
46623W        W13406  13.472  44.430  10.303
46624W        W13407  13.280   3.149   1.467
46625W        W13408  27.922  27.387  12.326
46626W        W13409  39.908  11.199  14.985
46627W        W13410  37.637  31.909  12.634
46628W        W13411  20.476  24.083  12.040
46629W        W13412  24.540  32.185   4.221
46630W        W13413   1.088  42.882   1.649
46631W        W13414  27.309  36.329  10.973
46632W        W13415   8.965   9.364   0.344
46633W        W13416  21.200  17.215  14.765
46634W        W13417  19.767  15.345  13.147
46635W        W13418  26.660  18.597   0.436
46636W        W13419  19.178  17.841   0.928
46637W        W13420  19.499  34.275   3.764
46638W        W13421  38.392   6.169   2.711
46639W        W13422  21.205  38.319  13.266
46640W        W13423   7.714   3.887   0.416
46641W        W13424  33.136  19.079  14.351
46642W        W13425  17.895  27.245   0.314
46643W        W13426  30.141  21.688   1.437
46644W        W13427  16.362  31.689  13.057
46645W        W13428  36.651  39.780  13.535
46646W        W13429  23.629  29.761   2.799
46647W        W13430  15.689   7.373  12.082
46648W        W13431  26.264  28.684   3.711
46649W        W13432   9.312   1.249  11.605
46650W        W13433  23.387  35.597   0.337
46651W        W13434  25.030  18.265   0.801
46652W        W13435  32.668  44.290  11.048
46653W        W13436   8.609   0.485   0.572
46654W        W13437  10.279  37.391  13.298
46655W        W13438  33.826  14.120  11.810
46656W        W13439  39.066   6.011  11.515
46657W        W13440   7.731   1.752   1.445
46658W        W13441  42.553  14.712   4.085
46659W        W13442  31.989  25.813  10.803
46660W        W13443   1.988   3.372   3.324
46661W        W13444  29.919   4.656   4.091
46662W        W13445  43.052  39.562   3.664
46663W        W13446   8.738   8.286  12.948
46664W        W13447   4.307  43.049  11.012
46665W        W13448  10.495  19.924   2.207
46666W        W13449  44.947  22.514   0.026
46667W        W13450  41.694  28.256  10.993
46668W        W13451  13.761   3.185  14.909
46669W        W13452   7.627  10.572  14.353
46670W        W13453   7.493   0.777   4.053
46671W        W13454  17.925  42.519  12.276
46672W        W13455  31.313  19.160   0.651
46673W        W13456  19.231  22.601  12.897
46674W        W13457  33.057   1.355   4.779
46675W        W13458   1.243   5.946   2.593
46676W        W13459   7.736  13.597   1.743
46677W        W13460  34.444   7.099  13.856
46678W        W13461  10.070  42.828  13.777
46679W        W13462  15.820  15.599  10.721
46680W        W13463  10.398  22.963   2.371
46681W        W13464  28.926  39.377   2.136
46682W        W13465   6.374   2.192   3.965
46683W        W13466  17.081   2.619  12.920
46684W        W13467  39.405  14.193   4.537
46685W        W13468  29.469  17.161  11.549
46686W        W13469  28.420   9.865   0.258
46687W        W13470  18.561  10.179   1.508
46688W        W13471  24.047  31.890  11.639
46689W        W13472  24.122  17.558   2.203
46690W        W13473  38.760  16.867  12.007
46691W        W13474  20.104   5.211   3.117
46692W        W13475  26.525  36.754   0.422
46693W        W13476  43.852   4.968  12.405
46694W        W13477  19.423  14.723   1.870
46695W        W13478  42.797  38.456  11.526
46696W        W13479   5.343   9.350   4.748
46697W        W13480  13.175  43.707  13.599
46698W        W13481  13.314  31.805  14.293
46699W        W13482  15.254  44.223  12.718
46700W        W13483   9.163   8.408   1.885
46701W        W13484  26.382   5.777  13.504
46702W        W13485  27.615  41.318   0.353
46703W        W13486  27.655  13.471  11.642
46704W        W13487  24.072  18.792   4.700
46705W        W13488  16.220  23.947  13.530
46706W        W13489  34.538  37.972   1.325
46707W        W13490  34.546  29.649  12.220
46708W        W13491  12.397  21.245   3.749
46709W        W13492   9.713  14.886  12.959
46710W        W13493  33.014  43.596   1.787
46711W        W13494  44.299  34.535   2.673
46712W        W13495  30.099   5.638   1.999
46713W        W13496   5.689  14.624  13.962
46714W        W13497  10.834   3.940   3.642
46715W        W13498  19.619   7.414  10.308
46716W        W13499  28.045  18.382  12.076
46717W        W13500  14.047  21.591   0.389
46718W        W13501  10.882  29.648  10.354
46719W        W13502  16.838  36.354  11.502
46720W        W13503  35.896  29.750  14.357
46721W        W13504  20.639  27.552   4.855
46722W        W13505   1.940  23.081  14.825
46723W        W13506   3.065  27.446  11.550
46724W        W13507  38.537  16.153  11.042
46725W        W13508  18.781  22.514  12.085
46726W        W13509  16.751  33.906  10.530
46727W        W13510   1.549  38.385   0.791
46728W        W13511   5.653  29.049   4.539
46729W        W13512  31.655  36.917   2.228
46730W        W13513  35.063  39.421   2.683
46731W        W13514  24.765  43.275  11.495
46732W        W13515  32.086  25.047   0.227
46733W        W13516   5.041  34.660   0.914
46734W        W13517  21.837  33.372  14.504
46735W        W13518  33.109  27.422   3.173
46736W        W13519  15.920  28.740   2.511
46737W        W13520  35.446  42.094   4.713
46738W        W13521  44.449  26.970   2.862
46739W        W13522  21.472  23.740  13.092
46740W        W13523  39.195  17.037   3.018
46741W        W13524  37.538  13.798  13.528
46742W        W13525  23.039  34.018  12.611
46743W        W13526   6.784  33.252   0.524
46744W        W13527  18.477  19.562   0.404
46745W        W13528   1.429   5.403   4.475
46746W        W13529  34.348  14.333  12.067
46747W        W13530  36.331   2.254  12.076
46748W        W13531  29.848  25.681  13.818
46749W        W13532  17.846  19.532   1.813
46750W        W13533  43.925  26.003  13.960
46751W        W13534  12.208  27.858  14.828
46752W        W13535   1.554  17.492  13.068
46753W        W13536  22.710   6.609  10.710
46754W        W13537  11.927  37.650  11.947
46755W        W13538  14.741  28.432  13.439
46756W        W13539  21.992  40.988   1.813
46757W        W13540  11.990   5.827  14.489
46758W        W13541  25.933   5.416  11.847
46759W        W13542  39.805  29.387  13.351
46760W        W13543  20.095   8.809   1.143
46761W        W13544   4.909  39.574   2.390
46762W        W13545   5.086  27.134  12.486
46763W        W13546  32.272  44.802   1.750
46764W        W13547  32.181  25.914   0.390
46765W        W13548  10.821  10.099   2.237
46766W        W13549  34.331  16.284   0.033
46767W        W13550  43.909  33.939   2.780
46768W        W13551  41.338  34.579   0.683
46769W        W13552   6.749   2.386   3.291
46770W        W13553  20.563   2.792  12.618
46771W        W13554  33.421  27.039  11.171
46772W        W13555  42.457  26.038   4.147
46773W        W13556  14.388   5.378  12.539
46774W        W13557  42.937  21.069   2.947
46775W        W13558   3.998  44.903   4.798
46776W        W13559  34.961  25.636   1.911
46777W        W13560  44.765  34.565   4.897
46778W        W13561  24.523  20.075  10.749
46779W        W13562  25.973  30.537   2.754
46780W        W13563  39.517   1.199   2.224
46781W        W13564  37.545  13.720  12.993
46782W        W13565   4.381   3.311  11.077
46783W        W13566  44.312  21.954  12.908
46784W        W13567   1.992  31.146   4.711
46785W        W13568  24.523  24.673  11.642
46786W        W13569  44.555  29.334  10.755
46787W        W13570  27.277  23.988   4.119
46788W        W13571  21.967  11.481  12.431
46789W        W13572  16.636   8.613   1.194
46790W        W13573  43.978  42.554  13.927
46791W        W13574   5.256  19.171   3.270
46792W        W13575  12.879   5.464  12.507
46793W        W13576  14.261   8.799  10.336
46794W        W13577   4.845  17.992  14.919
46795W        W13578   2.161  15.859   1.903
46796W        W13579  37.684  42.743  14.136
46797W        W13580  14.180  18.073   4.884
46798W        W13581  34.521  21.702   1.557
46799W        W13582  27.778  19.599   4.170
46800W        W13583  35.819  16.645   1.761
46801W        W13584   0.683  32.660   0.113
46802W        W13585   6.201  39.543  11.110
46803W        W13586  22.870  19.288   3.566
46804W        W13587   5.641  18.748   4.265
46805W        W13588  43.905  32.686  11.995
46806W        W13589   7.852   3.658  11.052
46807W        W13590  42.362  31.471  12.561
46808W        W13591  37.072  35.965   0.054
46809W        W13592  14.093  29.443  13.362
46810W        W13593  13.616   9.114  13.054
46811W        W13594  36.933  33.977   4.902
46812W        W13595  30.161  34.430  11.903
46813W        W13596  12.345  43.386   0.942
46814W        W13597  39.566  41.535  11.478
46815W        W13598  40.700   9.316  12.143
46816W        W13599   3.710  33.184  11.225
46817W        W13600  25.084   7.247  13.453
46818W        W13601  31.012  21.405  12.373
46819W        W13602  17.076  16.300   4.958
46820W        W13603  40.908  11.897   2.200
46821W        W13604   7.809  25.636  12.521
46822W        W13605  27.594  30.386   3.775
46823W        W13606  20.394  34.539  12.526
46824W        W13607  25.670  10.008  13.952
46825W        W13608  10.112  27.110  10.674
46826W        W13609   9.217  30.170  14.730
46827W        W13610   9.689  40.805   4.289
46828W        W13611  43.038  29.078   1.292
46829W        W13612  17.245  36.541  14.643
46830W        W13613   1.194   8.885   0.410
46831W        W13614  38.032   2.314  14.418
46832W        W13615  42.971  36.973   1.841
46833W        W13616   8.225   0.429  10.522
46834W        W13617  28.886  25.180   2.305
46835W        W13618  41.556   2.237   2.161
46836W        W13619  36.755  36.778  12.928
46837W        W13620  16.861  24.677   2.545
46838W        W13621  27.599  18.041   3.202
46839W        W13622   3.860  13.645   1.630
46840W        W13623   9.640  40.063  13.687
46841W        W13624  21.635  10.645  12.519
46842W        W13625  41.986  44.669   4.178
46843W        W13626  19.824  25.431   2.544
46844W        W13627   1.665   4.511   2.454
46845W        W13628  11.578  38.572  10.268
46846W        W13629  20.598  11.094   3.729
46847W        W13630  15.084  43.421   4.517
46848W        W13631   1.970  41.356  11.134
46849W        W13632  22.028  18.294   4.149
46850W        W13633   2.421   6.059   2.345
46851W        W13634  35.424  13.548  10.553
46852W        W13635  43.732  21.806   3.696
46853W        W13636  43.758  24.094  11.644
46854W        W13637   7.380  20.442  14.077
46855W        W13638  13.431  22.600  13.907
46856W        W13639  15.661  16.534   1.827
46857W        W13640   1.166  18.070   4.585
46858W        W13641  22.529   7.904   5.086
46859W        W13642   4.624  31.339   3.123
46860W        W13643  22.151  43.906   0.706
46861W        W13644  16.357  28.826   0.775
46862W        W13645  12.512  26.571  10.455
46863W        W13646   3.855  38.273  10.755
46864W        W13647   2.260  41.301  10.199
46865W        W13648  15.845   6.915  12.999
46866W        W13649  12.375  23.932  13.779
46867W        W13650   7.829  28.416   4.618
46868W        W13651  38.016   4.210   0.382
46869W        W13652  14.674  37.899   1.221
46870W        W13653   5.226  30.527   0.953
46871W        W13654  12.018  11.139  13.842
46872W        W13655  30.478  41.123   1.637
46873W        W13656  22.032  42.574  12.269
46874W        W13657  43.221  44.814   1.294
46875W        W13658  40.226   7.429   4.189
46876W        W13659   6.989  20.112   0.763
46877W        W13660  42.779  34.614  12.964
46878W        W13661  29.513  33.220  13.926
46879W        W13662  34.320  29.132  14.897
46880W        W13663  32.121  19.347  11.911
46881W        W13664  25.250   2.472  11.614
46882W        W13665  20.625  25.466   4.124
46883W        W13666   2.104  16.522   0.729
46884W        W13667   9.638  12.234   1.340
46885W        W13668  19.061   6.948  14.025
46886W        W13669   3.906  19.716   4.204
46887W        W13670   8.721  12.940  10.510
46888W        W13671  10.948  30.469   4.169
46889W        W13672   8.176  20.133   1.881
46890W        W13673  15.698  24.163  12.277
46891W        W13674  32.893  20.107   1.626
46892W        W13675  41.466  23.523  10.881
46893W        W13676  30.176  24.764   3.247
46894W        W13677   0.219  12.153   2.255
46895W        W13678  40.448  25.664  10.999
46896W        W13679  29.131  42.097   1.779
46897W        W13680  23.273  23.171   2.132
46898W        W13681  37.856  23.222   4.061
46899W        W13682   9.407   0.449  10.970
46900W        W13683  11.797   2.247   0.056
46901W        W13684  22.948  14.130   3.753
46902W        W13685  10.737  30.531   1.771
46903W        W13686  37.839   3.554  12.074
46904W        W13687  39.282  27.724   3.057
46905W        W13688   0.503  24.962   3.731
46906W        W13689  42.157  25.177  12.453
46907W        W13690   6.619  18.732   2.952
46908W        W13691   5.188  13.332   3.317
46909W        W13692  21.893  21.271   2.116
46910W        W13693  44.474  16.084   2.599
46911W        W13694  34.437  32.069  12.494
46912W        W13695  44.800  43.288   1.444
46913W        W13696  35.889  35.530  13.829
46914W        W13697  38.846   5.565  13.538
46915W        W13698  41.404  23.028   3.860
46916W        W13699  32.413   7.361  13.007
46917W        W13700  23.453  37.390   0.843
46918W        W13701  40.798  26.126  12.289
46919W        W13702   5.841   3.369   3.819
46920W        W13703  27.968   3.787   4.550
46921W        W13704  12.670  15.208  12.841
46922W        W13705  28.112  16.776   4.478
46923W        W13706  13.594   8.914   4.543
46924W        W13707   5.727  41.903   1.847
46925W        W13708  44.898  35.031   2.191
46926W        W13709  19.618  12.722   2.412
46927W        W13710  31.391  38.890   4.103
46928W        W13711   6.709  29.056  12.963
46929W        W13712  35.379  11.743   4.078
46930W        W13713  33.135  32.075  11.265
46931W        W13714   2.907  19.762  10.635
46932W        W13715  41.609   3.971   2.790
46933W        W13716   6.764  44.856  11.198
46934W        W13717  27.373  10.932   1.252
46935W        W13718  29.006  36.542   1.306
46936W        W13719   0.320  41.830  14.293
46937W        W13720   7.555   4.838  13.346
46938W        W13721  29.140   2.296   0.060
46939W        W13722  28.804  44.486  10.808
46940W        W13723  37.061  31.030  11.591
46941W        W13724  19.121  42.390  14.231
46942W        W13725  41.198  17.595   2.744
46943W        W13726   9.156  44.122  14.830
46944W        W13727  22.927  11.481  10.284
46945W        W13728  43.892  33.655  12.320
46946W        W13729   7.279   8.377   3.342
46947W        W13730  34.027   1.063  13.424
46948W        W13731  42.425  44.278   0.335
46949W        W13732   6.358  28.456  11.691
46950W        W13733  17.760   3.487   1.727
46951W        W13734  28.607  18.903  13.772
46952W        W13735   8.121  29.477   4.033
46953W        W13736  25.621  24.699   2.599
46954W        W13737  16.596  33.785   1.713
46955W        W13738  16.337  31.931   4.940
46956W        W13739  16.543  31.128  14.069
46957W        W13740  35.903  29.429  14.789
46958W        W13741  26.993   3.320   0.397
46959W        W13742  43.911  11.667   1.456
46960W        W13743  38.818   4.667  13.495
46961W        W13744   8.335  28.752  12.193
46962W        W13745  24.567  21.123  12.389
46963W        W13746  25.282  43.684   3.348
46964W        W13747  21.168  19.686   3.221
46965W        W13748  32.124   1.615  13.332
46966W        W13749  41.959  26.010   2.836
46967W        W13750  18.786  27.118  14.462
46968W        W13751  15.634  12.723  14.082
46969W        W13752  29.177   3.913   1.180
46970W        W13753  40.382  34.296   1.141
46971W        W13754  24.756  37.844  11.494
46972W        W13755  41.291  12.129  13.603
46973W        W13756  14.267  18.451   4.526
46974W        W13757   3.887   7.960  13.330
46975W        W13758  34.064  29.830   2.076
46976W        W13759  22.443  34.549   3.695
46977W        W13760  44.271  31.708   4.290
46978W        W13761  24.924  14.081   0.798
46979W        W13762   4.260  42.634   3.838
46980W        W13763  14.216  36.926   1.133
46981W        W13764  18.634  31.613   4.652
46982W        W13765  30.597  24.259   4.250
46983W        W13766  35.496  23.433   0.313
46984W        W13767  43.278   8.080   0.712
46985W        W13768  38.093  22.442   4.204
46986W        W13769  27.262  21.692   0.259
46987W        W13770  43.443  41.542   2.275
46988W        W13771  39.601  11.063  12.613
46989W        W13772  19.380  23.343   4.071
46990W        W13773  41.408  35.197   3.112
46991W        W13774  23.896  11.831   3.303
46992W        W13775  11.162  28.545  12.398
46993W        W13776  36.040   1.927   3.550
46994W        W13777  23.593  34.891   0.019
46995W        W13778  18.472  22.643  11.160
46996W        W13779  13.350  30.116  12.598
46997W        W13780  42.269  29.946  11.027
46998W        W13781  22.708  11.893  12.996
46999W        W13782  44.865   7.360  12.986
47000W        W13783  34.563  33.387   3.560
47001W        W13784  14.452  39.911  12.496
47002W        W13785  12.298  37.358   1.537
47003W        W13786  10.766  18.991   2.651
47004W        W13787  10.812  32.997  13.967
47005W        W13788   2.310   8.414  13.797
47006W        W13789  28.223  32.046   0.797
47007W        W13790  17.586   3.915  14.865
47008W        W13791  13.424  27.654   2.861
47009W        W13792  12.954  15.716  10.095
47010W        W13793   4.883  41.277   0.567
47011W        W13794  24.513   1.099   3.197
47012W        W13795  26.372  24.188  11.595
47013W        W13796  42.130  40.283   2.766
47014W        W13797  37.198   6.424  10.232
47015W        W13798  43.780  44.370   1.932
47016W        W13799  42.295  37.784  13.531
47017W        W13800  23.310  30.582  12.268
47018W        W13801  41.933   7.266   0.973
47019W        W13802  29.554  10.349  14.963
47020W        W13803  43.867  34.567  11.308
47021W        W13804  14.922  37.439  10.180
47022W        W13805  42.012  38.303  13.885
47023W        W13806  37.725   9.884  10.074
47024W        W13807   2.663  42.258   0.936
47025W        W13808  11.191  39.561   3.379
47026W        W13809  39.810  41.894   3.302
47027W        W13810  32.643  10.711  11.014
47028W        W13811  36.580  34.398   2.254
47029W        W13812  42.284  14.558  12.873
47030W        W13813   9.732  42.983  14.763
47031W        W13814  33.498   9.902  13.392
47032W        W13815  40.126  26.161  14.727
47033W        W13816  23.203  17.451  11.683
47034W        W13817   5.458  17.911   4.284
47035W        W13818  29.392  21.171  13.998
47036W        W13819  18.766  22.916   0.712
47037W        W13820  27.913   2.566   9.991
47038W        W13821  13.632  35.568   4.567
47039W        W13822  37.262  44.312  12.945
47040W        W13823  23.871  35.371  14.981
47041W        W13824  36.365  16.705  13.827
47042W        W13825  10.695  44.954  14.756
47043W        W13826  38.700  41.329  10.244
47044W        W13827  23.459  36.805  13.117
47045W        W13828  26.506   8.310  10.921
47046W        W13829  25.152  18.198   4.203
47047W        W13830  31.012   5.026  13.527
47048W        W13831  25.185   5.277   1.668
47049W        W13832  32.886   5.985  13.085
47050W        W13833  24.696  35.895  11.453
47051W        W13834  15.151  42.485   2.710
47052W        W13835  34.950   3.682  10.781
47053W        W13836  27.273  23.140   2.866
47054W        W13837  44.470   6.674  13.592
47055W        W13838   1.210   8.825  11.559
47056W        W13839  24.359  21.413  11.532
47057W        W13840  18.493  30.408  12.583
47058W        W13841  19.239  10.808   4.633
47059W        W13842  34.191  41.030   2.789
47060W        W13843  15.977  44.476  12.045
47061W        W13844  30.273  21.992  12.184
47062W        W13845  12.568   1.020   0.466
47063W        W13846  44.097  13.625  11.204
47064W        W13847   6.587   1.858  11.587
47065W        W13848   3.942   6.647  10.968
47066W        W13849   7.439   1.720  12.129
47067W        W13850  24.585  38.841  11.217
47068W        W13851  23.147  32.299   2.642
47069W        W13852   2.165   8.718   2.225
47070W        W13853  29.860  13.147  14.586
47071W        W13854  18.813   8.432  10.410
47072W        W13855  22.031  36.426  11.960
47073W        W13856   6.286   1.681  10.056
47074W        W13857  15.882   6.990  14.666
47075W        W13858   3.336  43.101   3.880
47076W        W13859  14.921  14.142   2.596
47077W        W13860   1.618  20.524   3.825
47078W        W13861  24.919  12.922  12.991
47079W        W13862   8.087  38.131   2.658
47080W        W13863  19.131   2.382  10.988
47081W        W13864  44.994  28.680  13.026
47082W        W13865  30.041   6.865  13.835
47083W        W13866  40.478  11.166  13.839
47084W        W13867   4.805   8.451  13.353
47085W        W13868  28.633  25.793  11.606
47086W        W13869  21.926  26.534  10.323
47087W        W13870  41.956  11.952   0.344
47088W        W13871  38.949   3.936  12.815
47089W        W13872  10.506  26.909  12.512
47090W        W13873  43.513  44.527   3.250
47091W        W13874  10.486  34.630  11.107
47092W        W13875  44.818  14.902   0.715
47093W        W13876  28.584  10.268  11.547
47094W        W13877  22.056  17.953  12.812
47095W        W13878  36.591  35.881  12.918
47096W        W13879   8.673   8.703  12.618
47097W        W13880  20.594  27.603  12.641
47098W        W13881  27.968  27.312   3.662
47099W        W13882   3.506  37.051  13.734
47100W        W13883  34.885  24.623   1.561
47101W        W13884  11.570  43.851  10.922
47102W        W13885  20.512  27.138  14.838
47103W        W13886  22.225  26.907   0.917
47104W        W13887  30.604  32.444  10.795
47105W        W13888  30.354  25.867  13.888
47106W        W13889  31.644  27.727   1.885
47107W        W13890  40.512  27.026  14.391
47108W        W13891  34.044  23.346   3.250
47109W        W13892  31.407  26.205  14.523
47110W        W13893   5.988  17.769  14.348
47111W        W13894  43.629   4.427   2.222
47112W        W13895  25.632  12.997  11.532
47113W        W13896   6.346  39.287  10.685
47114W        W13897   6.928  33.618   3.447
47115W        W13898  43.343  15.613  14.434
47116W        W13899  15.300  37.054  13.987
47117W        W13900   8.197  28.114   4.340
47118W        W13901  39.950  19.021   1.599
47119W        W13902  40.053   7.786   5.108
47120W        W13903   2.521  17.593  11.583
47121W        W13904  13.161  17.119  13.723
47122W        W13905  22.116  43.096  12.826
47123W        W13906   9.503   4.402  12.554
47124W        W13907  37.292  44.638   2.168
47125W        W13908  28.639  34.784   1.449
47126W        W13909  22.203   9.746  13.963
47127W        W13910  20.706  15.255  11.221
47128W        W13911  41.586  22.203  11.158
47129W        W13912   0.139  36.236  13.931
47130W        W13913  19.629  32.093  12.520
47131W        W13914  18.168  27.696   0.320
47132W        W13915  41.742  29.447   2.497
47133W        W13916  12.586  35.373   4.069
47134W        W13917  13.498  12.414  12.149
47135W        W13918  22.720  34.792   4.485
47136W        W13919   6.412   6.738  14.851
47137W        W13920   0.957   9.386  13.067
47138W        W13921  31.780  41.202   4.237
47139W        W13922  25.421  13.586   0.967
47140W        W13923  26.909   9.830   2.251
47141W        W13924  43.456  16.414  11.336
47142W        W13925  14.102   4.489  11.567
47143W        W13926  19.567  26.827   4.731
47144W        W13927  36.659  40.990  14.555
47145W        W13928  42.069  34.691  11.556
47146W        W13929  44.522   3.483  13.116
47147W        W13930  22.499  36.318   4.104
47148W        W13931   9.194  41.497  14.267
47149W        W13932  30.166  38.604  13.983
47150W        W13933  23.538  14.223  12.657
47151W        W13934  33.380  24.977  11.365
47152W        W13935  39.424  40.539   3.234
47153W        W13936  41.544  22.245  13.605
47154W        W13937   3.046  10.055  13.606
47155W        W13938  21.575  33.008   2.900
47156W        W13939  12.779  42.592   1.882
47157W        W13940  24.786  44.494   1.181
47158W        W13941  10.681  33.307  12.441
47159W        W13942   6.685  20.494   0.917
47160W        W13943  10.042  43.367   0.478
47161W        W13944  13.834  36.521  11.594
47162W        W13945  40.991  13.991   2.776
47163W        W13946  28.630  26.368   4.704
47164W        W13947  21.997  11.794   1.426
47165W        W13948  13.295  10.988  10.804
47166W        W13949  13.122  14.369  14.938
47167W        W13950  30.405  13.165  12.919
47168W        W13951  39.192  37.573   4.331
47169W        W13952   4.419  37.778   2.121
47170W        W13953   3.668  26.960   1.776
47171W        W13954  32.418  15.180   3.899
47172W        W13955  19.517  33.414  13.742
47173W        W13956   8.113  26.786   2.685
47174W        W13957  38.176  22.096  12.968
47175W        W13958  34.393  22.106   1.906
47176W        W13959  32.631  30.478   3.207
47177W        W13960  18.523   5.929  13.067
47178W        W13961  15.787  15.911  11.550
47179W        W13962   2.954   8.027  13.355
47180W        W13963  35.357   7.094  12.644
47181W        W13964   4.111  37.946   4.827
47182W        W13965  43.578  21.207  10.543
47183W        W13966  14.924  33.510   2.670
47184W        W13967  19.087  14.037   0.470
47185W        W13968  25.043   6.631   2.708
47186W        W13969   1.758  30.611  13.431
47187W        W13970  33.042  14.780  11.513
47188W        W13971  10.262  15.764  11.635
47189W        W13972  44.811  13.049  11.074
47190W        W13973  14.061  18.600  12.003
47191W        W13974  10.135  43.421  12.552
47192W        W13975  36.149   5.730  12.433
47193W        W13976  22.109   2.920   3.729
47194W        W13977  29.521  18.039   3.232
47195W        W13978  32.702  15.281   2.483
47196W        W13979  37.839   4.436  11.182
47197W        W13980   2.579  28.405   2.652
47198W        W13981  39.198   3.231   5.096
47199W        W13982  29.609  18.381  11.184
47200W        W13983  14.380   9.904  11.625
47201W        W13984  41.490  25.536   0.780
47202W        W13985  37.422  26.115   1.244
47203W        W13986  10.942  32.460  12.347
47204W        W13987  28.596  18.250   0.587
47205W        W13988   3.379  18.323  12.128
47206W        W13989   6.798   5.615  12.626
47207W        W13990  44.333  10.363  12.023
47208W        W13991  28.739  31.401  14.337
47209W        W13992  16.166  27.007  10.789
47210W        W13993  33.457  42.443   0.323
47211W        W13994  31.861  21.481  12.054
47212W        W13995  32.138  41.469   3.192
47213W        W13996  43.497   2.821   0.917
47214W        W13997   1.060   4.764  14.073
47215W        W13998  25.256  10.186   4.213
47216W        W13999  40.299  21.709  10.688
47217W        W14000  33.498   9.883  14.401
47218W        W14001  31.041  34.480   1.359
47219W        W14002  33.372  37.249   4.943
47220W        W14003  11.179   0.746  13.983
47221W        W14004  25.556   7.004  13.600
47222W        W14005  18.669  17.044   0.863
47223W        W14006  20.170  32.655   1.441
47224W        W14007  16.928   3.919  14.304
47225W        W14008  17.795  24.235  14.221
47226W        W14009   4.290   6.343  14.956
47227W        W14010  10.768  43.305  14.931
47228W        W14011  10.843  22.148  12.458
47229W        W14012  30.307  28.077  12.039
47230W        W14013  22.776  31.916  11.095
47231W        W14014   8.029  35.576   0.803
47232W        W14015  36.639  37.471  12.012
47233W        W14016  38.510  42.041  14.043
47234W        W14017  38.739  40.287   4.959
47235W        W14018   6.951   1.965   2.323
47236W        W14019  43.470   6.408   3.198
47237W        W14020  11.834  16.223  13.077
47238W        W14021  43.125   6.344  12.032
47239W        W14022  42.459  41.060  14.616
47240W        W14023  42.144  37.497  11.157
47241W        W14024  18.757   2.188  14.390
47242W        W14025  25.355  16.297  12.053
47243W        W14026   2.926  25.898  13.384
47244W        W14027  27.467  36.603  14.367
47245W        W14028  42.458  18.420   0.278
47246W        W14029  37.626  38.576   0.015
47247W        W14030  38.486   8.859   1.492
47248W        W14031   5.709  33.005   3.052
47249W        W14032  27.665  44.590   1.785
47250W        W14033  12.548  41.743   0.935
47251W        W14034  22.920  24.480  14.769
47252W        W14035  18.144  23.512   0.767
47253W        W14036  20.133  11.172  10.658
47254W        W14037  36.851  24.973  10.771
47255W        W14038  11.302  25.149  13.721
47256W        W14039  38.118   2.810   3.743
47257W        W14040   8.433  12.532   2.589
47258W        W14041  42.726   3.520  13.570
47259W        W14042  24.122  27.486   2.673
47260W        W14043   5.196  30.019   4.568
47261W        W14044  37.149  18.554  11.482
47262W        W14045  15.188   9.183  14.981
47263W        W14046  17.197  24.967   2.282
47264W        W14047   7.732   2.252   3.750
47265W        W14048  40.352  20.268   2.770
47266W        W14049  12.818  34.929  11.011
47267W        W14050  10.059  31.510  10.708
47268W        W14051   7.768  41.099   0.821
47269W        W14052  34.501  24.702  14.455
47270W        W14053   0.923  40.943   1.401
47271W        W14054  26.038   4.042  11.197
47272W        W14055  23.167   2.305   1.948
47273W        W14056  12.871  30.501   1.854
47274W        W14057  29.894  13.617   3.199
47275W        W14058  21.273   4.237   1.441
47276W        W14059   8.736  17.264   0.714
47277W        W14060  41.621  29.959   3.666
47278W        W14061  21.544  20.802  12.948
47279W        W14062  25.633  31.047  13.440
47280W        W14063  17.209  44.503   4.956
47281W        W14064   0.279   3.438   0.429
47282W        W14065  12.545  11.127   4.538
47283W        W14066   0.864   4.274   3.854
47284W        W14067  33.503   2.059   0.760
47285W        W14068   9.083  16.216   2.258
47286W        W14069   9.575  35.415   3.209
47287W        W14070  22.560   2.287   0.872
47288W        W14071   2.300  18.802  12.091
47289W        W14072  26.185  21.522  13.673
47290W        W14073  33.203  17.266  13.904
47291W        W14074  14.046  18.266   1.249
47292W        W14075  38.913  28.037   2.923
47293W        W14076  25.214  44.711  11.461
47294W        W14077  29.044  27.104  12.204
47295W        W14078  25.940  42.543   3.248
47296W        W14079  27.232  38.858  14.005
47297W        W14080   5.542  13.302  12.399
47298W        W14081  41.856  24.659   1.499
47299W        W14082  17.743  16.652   1.014
47300W        W14083  18.173  28.120  13.427
47301W        W14084  23.070   3.525  11.999
47302W        W14085  44.266  22.086  11.989
47303W        W14086  31.392  18.749  12.658
47304W        W14087  17.078  43.343   4.184
47305W        W14088  27.499  28.765   0.639
47306W        W14089   2.860  31.075   2.234
47307W        W14090   3.853  30.239   1.457
47308W        W14091  11.622  41.934  14.295
47309W        W14092  27.696  37.079  14.509
47310W        W14093  42.791  19.051   1.307
47311W        W14094  29.339  15.757   3.584
47312W        W14095   1.663   2.936   4.219
47313W        W14096   0.777   0.153   3.892
47314W        W14097  13.754  41.717  13.493
47315W        W14098   4.703  14.990  12.536
47316W        W14099  20.532  36.488   2.351
47317W        W14100  29.273  34.622  13.497
47318W        W14101  33.355  11.583   3.849
47319W        W14102   7.764  21.601   3.758
47320W        W14103  30.384  37.437  12.504
47321W        W14104  36.639  10.803   1.855
47322W        W14105  19.619  30.747   3.201
47323W        W14106  34.961  11.671  14.261
47324W        W14107  16.901  25.608  12.239
47325W        W14108  20.083  19.597   1.349
47326W        W14109  20.923  40.694  11.495
47327W        W14110   8.441  13.343   1.344
47328W        W14111  44.306  37.803   4.074
47329W        W14112   2.875  19.181  11.705
47330W        W14113  38.929  16.816  14.706
47331W        W14114  16.142  41.659  13.221
47332W        W14115  40.350  23.809   1.928
47333W        W14116  40.414  36.358   1.907
47334W        W14117  11.587  28.169  13.224
47335W        W14118  17.745  41.523  10.740
47336W        W14119  13.574  37.494   1.075
47337W        W14120   0.506  37.540   3.178
47338W        W14121  15.175  14.744  10.328
47339W        W14122  11.835  37.089   1.777
47340W        W14123   9.626   5.645  11.365
47341W        W14124  40.351  19.969  10.767
47342W        W14125  31.249  34.089  11.045
47343W        W14126  37.904  16.275  12.409
47344W        W14127   6.883  13.064  13.901
47345W        W14128   8.332  17.104   2.188
47346W        W14129  26.271  35.119   2.954
47347W        W14130  35.121  25.886   1.435
47348W        W14131  26.239   2.766  14.876
47349W        W14132   6.974  37.123  13.409
47350W        W14133  26.020  12.573  10.667
47351W        W14134   0.680  26.734   2.097
47352W        W14135  11.271  12.732   0.303
47353W        W14136  34.448  41.495   4.334
47354W        W14137  15.611  10.236  11.277
47355W        W14138  36.939  28.093  14.819
47356W        W14139  37.018  25.699  12.926
47357W        W14140  35.623  33.885  13.839
47358W        W14141   4.107  27.680   3.273
47359W        W14142  32.401  38.017   3.804
47360W        W14143  13.156  16.403   1.266
47361W        W14144  26.367  19.615  12.363
47362W        W14145  28.014  31.973   4.003
47363W        W14146  16.034   4.307   2.313
47364W        W14147  23.950  13.621   2.360
47365W        W14148  12.902  16.776   2.765
47366W        W14149  21.298  22.739  11.562
47367W        W14150  43.141   0.836  10.976
47368W        W14151  29.456  44.738   3.861
47369W        W14152  14.107  22.611   4.107
47370W        W14153  16.936  10.349  12.031
47371W        W14154  23.511  16.912   2.246
47372W        W14155  32.545  31.039  13.803
47373W        W14156  17.102  24.326  12.977
47374W        W14157  41.862  40.125   2.141
47375W        W14158  17.816   8.252  13.044
47376W        W14159   6.619  19.228   4.601
47377W        W14160  33.517  34.192   4.108
47378W        W14161  38.648  16.667  14.223
47379W        W14162  22.338  17.167   4.238
47380W        W14163  34.659  34.844  11.892
47381W        W14164  43.291   2.769  11.366
47382W        W14165  30.126  37.037  13.828
47383W        W14166  43.783  15.710   2.549
47384W        W14167  40.500  40.974   1.680
47385W        W14168  20.646  41.799  12.208
47386W        W14169  25.519  33.351  14.252
47387W        W14170   0.015   2.392  14.819
47388W        W14171  40.255  37.424   2.292
47389W        W14172  35.935  10.174  10.759
47390W        W14173  30.608  29.493   2.352
47391W        W14174  42.990  43.292   4.754
47392W        W14175  20.034   3.429   0.004
47393W        W14176  12.233  16.708  12.043
47394W        W14177  33.899  29.150  13.122
47395W        W14178   1.854  37.325   1.503
47396W        W14179  34.900   6.883  13.961
47397W        W14180   8.166  14.691  12.017
47398W        W14181  34.334  36.969  11.673
47399W        W14182  10.769  18.458   0.751
47400W        W14183  38.826  13.270   0.307
47401W        W14184  36.624  34.820   1.982
47402W        W14185  44.463  27.485   1.730
47403W        W14186  23.170  39.227  10.254
47404W        W14187  20.365  22.454   0.296
47405W        W14188   4.185  23.648   3.405
47406W        W14189  13.809  11.155  11.689
47407W        W14190  41.974   8.404  14.422
47408W        W14191  31.412  24.255   3.189
47409W        W14192  37.940  11.487  11.569
47410W        W14193  41.506  20.693  11.649
47411W        W14194  32.428  14.259  11.842
47412W        W14195  30.589   6.256   1.787
47413W        W14196  41.016  22.214  13.071
47414W        W14197  24.522  44.176   3.231
47415W        W14198   5.312  16.537   0.343
47416W        W14199  30.914  20.408  10.312
47417W        W14200  13.088  16.993   3.242
47418W        W14201  21.597   5.640  11.123
47419W        W14202  36.271  34.063  10.789
47420W        W14203  32.492  40.507  13.755
47421W        W14204  16.142  33.604  10.718
47422W        W14205  42.166  11.853   2.645
47423W        W14206  38.179  42.856  11.649
47424W        W14207  15.661  37.205  13.440
47425W        W14208  37.931  31.227   1.592
47426W        W14209   3.677  41.119  13.768
47427W        W14210   8.748  21.729  14.335
47428W        W14211  33.066  25.031   0.191
47429W        W14212  39.514  23.948  11.620
47430W        W14213  16.715  36.879  13.438
47431W        W14214  30.942  35.903  10.739
47432W        W14215  19.523  11.433   4.548
47433W        W14216  28.581  27.151  13.486
47434W        W14217   4.196  14.522  13.125
47435W        W14218  32.367   1.368   1.488
47436W        W14219  21.507  44.226   2.204
47437W        W14220  34.013  18.433  10.678
47438W        W14221  16.346  30.485  12.155
47439W        W14222   8.710  20.263   3.648
47440W        W14223  12.693  28.483   0.355
47441W        W14224  24.628   0.493  13.932
47442W        W14225  22.027  17.658  13.235
47443W        W14226  42.501  12.120   2.365
47444W        W14227  26.061  44.535  13.428
47445W        W14228  10.265  20.306  11.554
47446W        W14229  31.662  42.295   4.063
47447W        W14230  17.073  33.272  12.789
47448W        W14231  44.238   8.654   0.790
47449W        W14232  14.850  38.341  13.399
47450W        W14233  25.719  44.970   1.881
47451W        W14234  36.920  24.079  14.375
47452W        W14235  14.229  28.483  10.605
47453W        W14236  39.345  34.008   0.416
47454W        W14237  17.124   2.666   4.038
47455W        W14238  12.641  44.663   0.980
47456W        W14239  20.065   2.766  11.581
47457W        W14240   7.761  20.741   4.234
47458W        W14241  31.212  17.764   3.786
47459W        W14242  23.400  40.376   0.118
47460W        W14243  23.708  11.614  14.601
47461W        W14244   9.092  43.367   2.806
47462W        W14245  27.131  39.648  14.337
47463W        W14246  41.004  40.564  11.590
47464W        W14247   9.843   5.019   0.837
47465W        W14248  31.941  37.802   0.816
47466W        W14249   1.416  37.415  13.250
47467W        W14250  16.128  14.598  11.594
47468W        W14251  27.653  12.826   1.280
47469W        W14252  33.011  40.475  12.990
47470W        W14253  35.523   8.641  11.249
47471W        W14254   8.325  30.413  13.356
47472W        W14255  29.071  26.593   2.634
47473W        W14256  24.597   2.724  14.284
47474W        W14257   4.384  31.583   4.111
47475W        W14258  42.282  16.284  10.094
47476W        W14259  32.482  22.725   1.868
47477W        W14260  40.993  15.844  11.497
47478W        W14261  38.122  28.655  13.898
47479W        W14262  22.221  37.278   4.487
47480W        W14263   1.895  36.461  12.929
47481W        W14264  16.961  27.551   1.936
47482W        W14265  11.954  11.955   4.548
47483W        W14266  10.359  28.565  10.789
47484W        W14267  21.499  21.158  13.551
47485W        W14268  43.830  30.067  13.268
47486W        W14269   0.742  24.082  12.429
47487W        W14270   7.436   8.887  12.812
47488W        W14271  26.465  27.037  14.301
47489W        W14272  21.904  32.662   1.956
47490W        W14273  26.093  40.347   1.400
47491W        W14274  36.306  16.527  11.140
47492W        W14275  28.911  18.529   0.296
47493W        W14276   6.879  20.193  14.231
47494W        W14277  42.071   7.738   1.734
47495W        W14278  14.635   9.890   0.752
47496W        W14279  36.909  12.613   0.460
47497W        W14280  39.334  34.557  11.057
47498W        W14281  40.336   7.370   5.165
47499W        W14282  34.444  22.145  12.249
47500W        W14283  44.423  39.868  14.876
47501W        W14284  21.828  40.492   1.792
47502W        W14285  43.781  16.810   1.203
47503W        W14286  38.268  39.491  11.665
47504W        W14287  16.864   0.000   0.354
47505W        W14288   4.665  24.789   1.117
47506W        W14289  15.234  31.266   4.315
47507W        W14290   3.294  37.836   3.671
47508W        W14291  32.033  34.355  13.511
47509W        W14292  44.557  10.712   3.716
47510W        W14293  42.216  20.218   4.879
47511W        W14294   6.074  41.392   1.325
47512W        W14295  35.238  44.927  12.135
47513W        W14296  26.236  23.852   4.107
47514W        W14297   0.200  44.871  13.063
47515W        W14298  23.607  22.941  12.860
47516W        W14299  39.833  15.410   0.321
47517W        W14300  40.425  22.080   0.886
47518W        W14301  23.298  11.738  14.925
47519W        W14302  11.524  36.085  10.599
47520W        W14303  29.865  14.140   3.143
47521W        W14304  18.372  25.222  10.951
47522W        W14305   0.421   5.849  12.855
47523W        W14306  35.731  31.878   4.328
47524W        W14307  33.448   3.513   0.844
47525W        W14308  25.728  13.921   0.089
47526W        W14309  35.116   6.853  13.471
47527W        W14310  28.138  20.614   3.704
47528W        W14311  30.314  41.311  12.426
47529W        W14312  43.361  12.820   1.673
47530W        W14313   3.237   7.112   2.258
47531W        W14314  17.776  35.452   4.419
47532W        W14315  30.087  41.481  10.728
47533W        W14316  39.362  11.079   0.440
47534W        W14317  34.066  33.155   1.946
47535W        W14318  35.431  32.662   3.638
47536W        W14319  26.122  11.724   2.746
47537W        W14320  12.372  38.039  14.745
47538W        W14321  32.481   5.210  11.576
47539W        W14322  30.903  33.403  11.128
47540W        W14323  21.363  43.720   4.113
47541W        W14324  24.851  41.828  11.900
47542W        W14325  28.531   9.760   1.823
47543W        W14326  14.600  25.044   2.720
47544W        W14327  37.163  19.115  12.354
47545W        W14328  24.061  36.637  12.067
47546W        W14329  15.505   7.683   3.189
47547W        W14330  20.655   6.846  13.588
47548W        W14331   9.876  12.652  12.068
47549W        W14332  11.355  37.348  13.536
47550W        W14333  18.750  17.516  13.471
47551W        W14334   2.220  38.033   4.144
47552W        W14335  31.313   7.402   2.107
47553W        W14336  10.377  23.092  13.879
47554W        W14337  31.191  41.976  14.443
47555W        W14338   6.704  31.481  13.663
47556W        W14339  33.301  29.125  13.948
47557W        W14340  21.082  10.628   1.399
47558W        W14341  29.521  27.911  10.424
47559W        W14342  31.228  25.053   1.295
47560W        W14343   7.388  39.306  12.909
47561W        W14344   6.441   4.641   3.617
47562W        W14345  24.547  19.720   2.281
47563W        W14346  10.370  11.329   5.006
47564W        W14347  15.837  35.546   4.180
47565W        W14348  31.184  12.764   2.155
47566W        W14349  26.140  44.376   3.634
47567W        W14350  35.615   9.005  11.634
47568W        W14351  25.252  42.109  12.781
47569W        W14352   6.448   8.448   2.846
47570W        W14353  31.951  19.465  14.303
47571W        W14354  28.624  37.498   3.688
47572W        W14355  26.737  17.700  12.955
47573W        W14356   9.379  15.174   3.792
47574W        W14357  29.918  18.205   3.672
47575W        W14358  10.776   7.770  14.223
47576W        W14359  44.102  27.540   2.796
47577W        W14360   2.116  44.201  14.843
47578W        W14361  39.525  21.005   0.721
47579W        W14362  11.131  24.815  13.359
47580W        W14363  44.339  17.492  11.637
47581W        W14364   7.155  40.994   2.185
47582W        W14365  42.406  34.443   1.982
47583W        W14366  23.972  29.677   1.509
47584W        W14367  28.327  32.905  12.350
47585W        W14368  29.588  11.224  14.216
47586W        W14369  26.049  11.415   4.119
47587W        W14370   4.874  41.735   1.160
47588W        W14371  34.302  43.916  13.502
47589W        W14372  10.775  25.705   4.517
47590W        W14373  39.813  37.928   2.707
47591W        W14374  20.246  22.139  14.922
47592W        W14375  34.982  14.692   0.720
47593W        W14376  24.244  12.697  12.664
47594W        W14377  42.458   7.572   0.441
47595W        W14378  13.648  14.718   4.459
47596W        W14379  42.391  13.866   4.026
47597W        W14380  25.570  38.634  13.528
47598W        W14381  34.948  30.511  13.352
47599W        W14382   0.134  39.989  14.395
47600W        W14383  31.441  25.012  12.976
47601W        W14384   1.284   7.229   2.942
47602W        W14385   1.809   9.642   4.142
47603W        W14386  16.126  28.156  11.642
47604W        W14387   1.553   9.070   5.303
47605W        W14388   3.216  12.683  12.595
47606W        W14389  30.895  41.715  12.994
47607W        W14390   8.392  27.600   0.855
47608W        W14391  31.006   9.156   3.235
47609W        W14392   2.805  30.767   0.358
47610W        W14393  29.129  30.632  13.561
47611W        W14394  11.561  31.487   1.247
47612W        W14395   9.634  32.467  12.832
47613W        W14396  39.187  31.312   2.374
47614W        W14397  31.643  16.245   4.546
47615W        W14398  42.591  31.053   3.642
47616W        W14399  33.866  19.613  11.436
47617W        W14400  41.278  18.722  13.730
47618W        W14401  29.265   4.418  12.998
47619W        W14402   5.975  27.552  13.702
47620W        W14403  24.087  36.739  11.174
47621W        W14404  27.666  23.661  13.823
47622W        W14405  41.503  42.272  13.403
47623W        W14406  36.413  21.287   0.323
47624W        W14407  19.616  13.191  11.367
47625W        W14408  15.052  15.748   0.948
47626W        W14409  11.130  37.798  12.063
47627W        W14410  12.255   5.040  10.845
47628W        W14411  38.129  19.657   3.314
47629W        W14412  33.992   9.330  12.211
47630W        W14413  38.560  15.647   3.951
47631W        W14414  33.316  11.176  11.992
47632W        W14415  32.293  19.219   4.996
47633W        W14416  36.634  18.785  11.429
47634W        W14417   1.908   6.869   1.985
47635W        W14418  15.073  32.308   0.432
47636W        W14419   3.745   3.443   1.265
47637W        W14420  34.631  11.797  12.966
47638W        W14421  26.137  13.605   0.216
47639W        W14422  20.068  30.455  14.070
47640W        W14423  28.689  32.771   4.509
47641W        W14424  44.224   4.866   0.375
47642W        W14425   0.065   3.569   3.623
47643W        W14426  30.387  30.188   4.614
47644W        W14427  27.656  14.183  14.358
47645W        W14428  21.604  15.813   1.389
47646W        W14429   8.428  33.362  14.793
47647W        W14430   8.254  44.977  11.459
47648W        W14431  38.823  33.833   2.825
47649W        W14432  15.241   1.241   3.172
47650W        W14433  20.246  39.438  10.367
47651W        W14434   7.432  11.809   1.106
47652W        W14435  39.329  27.918  11.132
47653W        W14436  14.316  20.864  11.025
47654W        W14437  43.076  28.433   2.349
47655W        W14438  18.089   7.392   3.672
47656W        W14439   5.748   5.703   2.498
47657W        W14440  19.603  11.019   3.149
47658W        W14441  43.975   7.958  13.944
47659W        W14442  28.035  29.898   4.398
47660W        W14443   9.793  29.433   0.753
47661W        W14444  12.748   6.962   0.451
47662W        W14445  26.104  24.435   1.339
47663W        W14446  16.318   3.096   0.960
47664W        W14447  32.551  34.949  12.898
47665W        W14448   6.183  29.148   4.415
47666W        W14449  36.262  30.012  11.598
47667W        W14450   3.765   5.368  11.242
47668W        W14451  42.624   9.964   3.954
47669W        W14452  26.522  17.012  10.745
47670W        W14453  41.145  16.058   1.371
47671W        W14454  39.533  14.251   2.209
47672W        W14455   6.877  25.248  14.343
47673W        W14456  18.253  24.528   3.239
47674W        W14457  30.402  31.552   2.751
47675W        W14458   4.220  20.777  14.798
47676W        W14459  44.095   7.934   1.319
47677W        W14460  18.707  38.017   1.312
47678W        W14461   8.740   7.836   1.288
47679W        W14462   9.198  10.939   4.721
47680W        W14463  22.563  20.179   1.672
47681W        W14464  22.043  40.368  14.838
47682W        W14465  20.840  12.873   9.693
47683W        W14466   5.513  27.081   4.333
47684W        W14467   3.512  40.826  10.614
47685W        W14468  23.619  19.453   0.751
47686W        W14469  23.842   5.475  14.096
47687W        W14470  31.571  32.914  10.866
47688W        W14471  20.908  40.828  13.825
47689W        W14472  37.435  29.253  10.528
47690W        W14473  28.417  12.197   4.880
47691W        W14474  15.291  33.605   1.721
47692W        W14475  13.133   5.748  10.702
47693W        W14476  36.297  36.893   3.114
47694W        W14477  24.531  22.478   2.795
47695W        W14478  12.007  41.148  10.784
47696W        W14479  16.221  44.056   3.510
47697W        W14480   1.617   8.099   2.737
47698W        W14481  11.724  12.901   2.216
47699W        W14482   0.443  27.156  12.567
47700W        W14483  36.772  24.469  13.620
47701W        W14484  16.257  30.944   0.002
47702W        W14485   7.390  33.426   3.669
47703W        W14486  32.416  25.746   4.890
47704W        W14487  28.141  18.788   1.533
47705W        W14488  16.311  14.391   1.164
47706W        W14489  13.168  40.881   4.281
47707W        W14490  11.305   0.191  12.200
47708W        W14491  29.488  16.632   3.634
47709W        W14492  21.757  31.974   1.577
47710W        W14493   7.382  41.152   4.014
47711W        W14494  22.731  28.812   0.296
47712W        W14495  24.532  25.750  13.658
47713W        W14496  44.250  17.786   4.986
47714W        W14497  17.687  19.241  12.312
47715W        W14498  32.102  11.636  14.860
47716W        W14499   0.032  14.213  11.079
47717W        W14500   7.451  39.432   0.031
47718W        W14501  31.497  42.290  13.415
47719W        W14502   8.665  28.587   0.568
47720W        W14503  29.950  10.936  14.472
47721W        W14504   4.419  15.388   0.112
47722W        W14505   0.943  16.541   4.995
47723W        W14506   2.830  43.356   1.363
47724W        W14507  41.557  25.702   4.077
47725W        W14508  32.495  44.650  10.725
47726W        W14509  36.872  29.692  14.860
47727W        W14510  37.870   8.204   3.256
47728W        W14511  34.958   0.305   2.397
47729W        W14512   3.014   6.801   2.917
47730W        W14513  26.515  10.110  14.068
47731W        W14514  39.910  23.699  12.953
47732W        W14515   2.286  35.834  13.464
47733W        W14516  36.161   0.496   1.536
47734W        W14517  22.485  43.455  13.052
47735W        W14518   5.223  13.188  11.924
47736W        W14519  21.934  34.553   4.541
47737W        W14520   8.977  41.315  13.508
47738W        W14521  14.469  34.051  11.460
47739W        W14522  39.979  35.160  14.196
47740W        W14523   0.051  34.349  14.826
47741W        W14524  14.301  17.583  12.638
47742W        W14525  25.899  15.725   2.376
47743W        W14526  16.078  41.760   0.502
47744W        W14527   3.807  11.937   0.226
47745W        W14528  44.005  25.221  12.664
47746W        W14529  22.711  21.149   1.600
47747W        W14530   5.731  40.850  11.517
47748W        W14531   4.282  35.446   2.767
47749W        W14532  22.997  21.732   3.122
47750W        W14533  23.327  33.922   1.277
47751W        W14534  33.729   3.457  14.467
47752W        W14535  17.890   2.242  11.115
47753W        W14536   3.497  25.043  14.095
47754W        W14537   6.880  26.822  13.087
47755W        W14538  37.595  34.689  14.304
47756W        W14539  26.694  24.576  11.543
47757W        W14540  32.121   7.306  13.579
47758W        W14541   6.348   4.411   4.436
47759W        W14542   4.402   9.109  13.032
47760W        W14543  18.884  26.694   5.100
47761W        W14544  14.686  28.367  14.694
47762W        W14545  13.063  17.935   4.068
47763W        W14546  15.979  18.518   2.762
47764W        W14547  20.040  10.400  12.096
47765W        W14548   9.506   4.134   0.717
47766W        W14549  30.970  42.456  14.446
47767W        W14550  20.595  43.219   1.438
47768W        W14551  12.305   9.916   3.860
47769W        W14552  44.165  30.171  12.818
47770W        W14553   3.438  38.303  13.864
47771W        W14554  33.403  23.501  13.030
47772W        W14555  41.510   7.009   3.204
47773W        W14556   2.304   8.685  10.717
47774W        W14557   2.263  25.884   3.085
47775W        W14558  29.193  39.001   4.966
47776W        W14559   0.307  23.541   4.067
47777W        W14560  23.343  21.010  11.481
47778W        W14561   5.213  22.836   4.109
47779W        W14562  25.937   4.922   4.231
47780W        W14563   7.307  40.923   1.703
47781W        W14564  40.179  35.379   0.413
47782W        W14565  38.809  26.952  10.172
47783W        W14566   4.946  25.720  12.503
47784W        W14567  43.079  37.439  14.011
47785W        W14568  40.373  27.191   1.540
47786W        W14569  23.458  42.884  14.996
47787W        W14570   3.041  15.822  11.583
47788W        W14571  38.115  25.559  14.821
47789W        W14572  31.562  29.087   0.809
47790W        W14573  34.825  30.978  14.956
47791W        W14574  38.985  22.023   4.555
47792W        W14575  19.952  22.756  13.421
47793W        W14576  29.953   2.260  11.222
47794W        W14577  33.913  17.793  10.236
47795W        W14578  18.977   1.704   1.831
47796W        W14579  13.282   3.243   2.778
47797W        W14580  42.233  44.450   1.764
47798W        W14581  18.116  31.990  11.429
47799W        W14582  14.672  11.362   3.356
47800W        W14583  18.703  22.664   2.652
47801W        W14584   7.269  21.546  13.080
47802W        W14585  25.234   1.676   3.747
47803W        W14586  22.588  42.741   0.536
47804W        W14587  16.113   7.463   4.066
47805W        W14588  32.501   6.610   4.956
47806W        W14589  35.490  31.062   2.262
47807W        W14590  37.565  39.586  13.389
47808W        W14591  12.681  13.377   4.254
47809W        W14592   1.247  23.488  12.541
47810W        W14593  25.313  12.804  11.155
47811W        W14594  33.692  30.103   1.761
47812W        W14595   6.232   1.419  13.777
47813W        W14596  17.264   2.843  14.779
47814W        W14597  23.940   5.277   4.051
47815W        W14598  39.066  40.476  12.178
47816W        W14599  14.352  23.094   4.149
47817W        W14600  24.470  26.652   0.439
47818W        W14601  32.960  22.017   1.948
47819W        W14602  13.899   3.951   2.828
47820W        W14603  27.725   9.150   4.244
47821W        W14604   9.807  17.347  11.966
47822W        W14605   1.783  27.524  12.050
47823W        W14606   1.760  24.610   1.482
47824W        W14607  25.939   7.434   1.835
47825W        W14608  40.571  30.766  11.114
47826W        W14609  35.848  37.781   4.039
47827W        W14610  23.781  31.318  12.882
47828W        W14611  15.145  35.723  14.072
47829W        W14612  26.718  28.238  14.729
47830W        W14613   0.189  15.041   0.359
47831W        W14614  25.845  42.262  14.360
47832W        W14615  21.838  35.643   0.563
47833W        W14616  13.292  32.079   3.225
47834W        W14617  10.716  13.872   1.008
47835W        W14618   9.878  40.624   4.752
47836W        W14619  15.280   9.706   1.768
47837W        W14620  38.102  26.249   3.452
47838W        W14621  38.824  37.806   2.909
47839W        W14622  35.374  16.656   0.908
47840W        W14623  17.281   7.209   0.922
47841W        W14624   5.271  14.751   3.012
47842W        W14625  31.542  39.393  11.573
47843W        W14626  12.743  17.543   0.751
47844W        W14627  23.516  34.647  11.671
47845W        W14628  16.638  12.255   1.655
47846W        W14629   1.869  15.586   2.237
47847W        W14630  40.512  25.244  11.530
47848W        W14631  24.560  35.156   0.947
47849W        W14632  10.355  16.378  14.909
47850W        W14633  19.149   8.319  14.733
47851W        W14634  21.678  11.566   4.671
47852W        W14635   2.359   6.281   5.133
47853W        W14636  22.215  41.300  11.813
47854W        W14637  34.848   8.905   2.023
47855W        W14638   3.324  37.836  11.540
47856W        W14639  21.971   3.798  12.226
47857W        W14640   6.583   4.353   3.183
47858W        W14641  36.922  41.314   0.769
47859W        W14642   9.562  24.603   1.004
47860W        W14643   8.723  21.403  12.453
47861W        W14644  20.522  23.786   0.356
47862W        W14645  24.140   1.238  11.824
47863W        W14646  33.114  33.371   4.201
47864W        W14647  10.125  29.236  13.936
47865W        W14648  44.780  10.787   1.978
47866W        W14649  24.136   8.440   2.249
47867W        W14650  34.704  24.116   3.643
47868W        W14651  27.276   4.657   4.580
47869W        W14652  25.300  13.060   4.819
47870W        W14653  32.344  13.587   2.767
47871W        W14654  19.126  36.933   2.773
47872W        W14655  38.157  19.757   3.821
47873W        W14656   1.336   9.798   3.249
47874W        W14657  17.751  36.785  12.383
47875W        W14658  22.437  16.810   0.989
47876W        W14659   7.840  33.994  12.519
47877W        W14660  23.246  26.507  13.515
47878W        W14661  31.667  16.033   0.761
47879W        W14662  28.529  23.622   2.862
47880W        W14663   1.100  38.911  11.648
47881W        W14664  44.077  15.417  11.654
47882W        W14665  13.176   6.668   4.258
47883W        W14666  10.793   4.329  14.953
47884W        W14667  16.203  41.973   3.745
47885W        W14668  43.834  20.514   2.642
47886W        W14669  21.702  32.142   4.451
47887W        W14670   5.431  16.217   3.663
47888W        W14671  21.805   1.962  10.148
47889W        W14672  43.567  29.605   2.703
47890W        W14673  16.296  13.416   1.286
47891W        W14674  40.865  34.483   3.423
47892W        W14675   4.118  24.780  14.879
47893W        W14676  27.557  26.693   1.431
47894W        W14677   4.540  21.025   4.481
47895W        W14678  31.408  27.477  11.186
47896W        W14679  23.824  35.932  10.328
47897W        W14680  37.082  41.465  11.539
47898W        W14681  30.132   4.061  12.603
47899W        W14682  44.923  33.323   3.487
47900W        W14683  13.559  18.762  14.263
47901W        W14684  29.056  17.756  11.210
47902W        W14685   3.959   4.816  13.745
47903W        W14686  44.011  44.236   4.319
47904W        W14687   0.499  44.037  11.049
47905W        W14688  37.528  18.545   4.956
47906W        W14689  30.476  18.785  12.386
47907W        W14690   0.089  20.078   0.475
47908W        W14691   4.528  11.624  10.038
47909W        W14692  27.237   2.641  12.508
47910W        W14693  18.583  22.453  14.976
47911W        W14694  42.886  38.281   2.255
47912W        W14695  15.228  13.343   2.292
47913W        W14696   7.469  33.485   2.284
47914W        W14697  44.080  18.413  14.661
47915W        W14698  12.878   5.586   3.360
47916W        W14699  10.321  10.295  14.051
47917W        W14700  39.442  17.290   4.935
47918W        W14701  12.531  40.915   1.774
47919W        W14702   1.174   4.220  11.013
47920W        W14703   9.304   7.276   2.849
47921W        W14704   2.217  40.324  13.421
47922W        W14705   3.050   4.813  12.757
47923W        W14706  28.635  10.364   0.073
47924W        W14707  16.586  10.575  13.365
47925W        W14708   6.192   7.722   0.179
47926W        W14709   9.499  38.856  14.744
47927W        W14710  25.408   2.482   2.855
47928W        W14711   7.979   0.792   0.426
47929W        W14712  23.127   0.370  10.182
47930W        W14713  39.390  14.708   2.413
47931W        W14714  22.525  42.428  10.157
47932W        W14715  42.590  37.469   2.640
47933W        W14716  22.231   0.337  12.788
47934W        W14717   0.407   2.181  11.996
47935W        W14718  41.990   7.580  14.684
47936W        W14719  20.211  12.600   0.049
47937W        W14720  10.156   6.731   9.888
47938W        W14721  37.563  25.657  14.707
47939W        W14722  42.827  37.878   0.814
47940W        W14723   0.375  35.503   4.966
47941W        W14724  24.510   1.533  11.151
47942W        W14725  44.286  33.473   0.415
47943W        W14726  33.071  37.618   4.268
47944W        W14727  34.814  35.372  10.686
47945W        W14728   1.984   7.842  11.698
47946W        W14729  27.466   8.843   1.634
47947W        W14730   6.261  14.984   3.740
47948W        W14731  32.491   5.140  14.763
47949W        W14732   1.363  14.357   2.143
47950W        W14733  23.543  39.828   3.849
47951W        W14734   9.402  19.014   1.662
47952W        W14735  35.376  43.072  14.614
47953W        W14736   0.764   0.549  10.453
47954W        W14737  14.299  14.100   3.180
47955W        W14738  17.268  42.091  13.879
47956W        W14739  15.188   6.209  11.842
47957W        W14740  20.516  29.232   2.941
47958W        W14741   2.177   3.279   4.669
47959W        W14742  44.922  32.481   4.592
47960W        W14743  30.431  34.002   1.700
47961W        W14744  42.489  16.386  10.553
47962W        W14745  14.722  14.348  11.634
47963W        W14746  27.931  37.522  14.354
47964W        W14747   0.118  26.805  12.793
47965W        W14748  40.073  38.040   3.145
47966W        W14749  36.008  30.784   0.235
47967W        W14750   9.898  34.039   4.601
47968W        W14751  18.041  12.361   0.347
47969W        W14752  44.355  29.170   1.001
47970W        W14753  29.155  42.161   0.824
47971W        W14754  29.703  28.811  10.958
47972W        W14755  43.501   1.364   4.921
47973W        W14756   1.874  24.441  12.108
47974W        W14757  38.181  12.353  12.088
47975W        W14758   6.058  32.380   4.483
47976W        W14759  24.205  41.054   3.225
47977W        W14760  28.987  27.852   1.639
47978W        W14761  10.790  35.968   2.808
47979W        W14762  37.989  21.393  12.242
47980W        W14763  13.439  23.890  11.994
47981W        W14764  36.836  34.457  14.053
47982W        W14765  24.425  42.369  12.442
47983W        W14766  10.181  38.020  14.511
47984W        W14767   6.690  39.966   3.788
47985W        W14768   6.474  30.175   1.140
47986W        W14769  44.235  38.880  14.596
47987W        W14770  31.966  20.026   0.923
47988W        W14771  22.613  11.633   4.648
47989W        W14772  32.343  32.142  11.720
47990W        W14773   3.057  21.046   2.520
47991W        W14774  23.051  23.247   0.364
47992W        W14775  14.228  21.579  11.569
47993W        W14776   5.080  20.694  11.561
47994W        W14777  35.955  43.452  13.973
47995W        W14778  24.202  26.398   0.796
47996W        W14779  19.472  29.974   0.116
47997W        W14780   6.236   6.053   1.761
47998W        W14781   9.741  38.468  13.374
47999W        W14782  26.439  29.544   0.325
48000W        W14783   3.735  38.900   0.514
48001W        W14784  35.847  16.707  11.208
48002W        W14785   2.996  34.900   1.747
48003W        W14786  33.436  27.937  12.743
48004W        W14787  11.910  28.947   2.364
48005W        W14788  10.990  38.878  11.700
48006W        W14789  24.515  27.896  11.742
48007W        W14790  37.993  41.016  14.472
48008W        W14791  38.350  14.228   4.048
48009W        W14792   8.781  25.134   0.109
48010W        W14793   7.486  38.473  14.925
48011W        W14794  44.998  41.989   4.729
48012W        W14795  10.613  18.654  14.874
48013W        W14796  40.137  11.562  11.241
48014W        W14797   4.427  30.444  12.916
48015W        W14798  39.536   2.545  14.052
48016W        W14799  25.200  27.522   0.735
48017W        W14800  32.879  41.336  14.070
48018W        W14801  25.670   1.699  12.856
48019W        W14802  43.974  10.114   4.121
48020W        W14803  42.978  17.263   2.142
48021W        W14804  26.904  35.194   4.144
48022W        W14805  17.066  38.170  13.791
48023W        W14806  38.562  20.972  11.650
48024W        W14807   5.623  20.144   1.322
48025W        W14808   8.233  25.322   2.846
48026W        W14809  41.974  20.738  14.389
48027W        W14810  27.059  23.068   5.556
48028W        W14811  12.227  43.872   4.379
48029W        W14812   8.705  33.527  14.032
48030W        W14813  33.531  31.484   0.784
48031W        W14814  29.616  34.176  12.877
48032W        W14815  20.314  14.084   4.527
48033W        W14816  39.503   4.819  13.014
48034W        W14817  35.321   6.217  12.426
48035W        W14818  35.008  19.759  13.643
48036W        W14819  38.953  15.279   1.231
48037W        W14820  27.098  20.123  14.233
48038W        W14821   4.251  35.945  12.723
48039W        W14822  10.819  29.533   4.830
48040W        W14823   6.307  16.848  14.791
48041W        W14824  26.885  26.539  14.919
48042W        W14825   2.349   4.639  14.489
48043W        W14826  14.279  40.711  10.058
48044W        W14827  27.023   7.836  13.479
48045W        W14828  11.342  21.133   3.682
48046W        W14829  30.984  20.456  11.113
48047W        W14830  30.649   7.493  14.058
48048W        W14831  32.843  31.635  13.158
48049W        W14832  19.090  31.370   0.763
48050W        W14833   6.944  31.342   3.278
48051W        W14834  15.770  42.590   3.316
48052W        W14835  28.174  15.520  11.895
48053W        W14836  39.275   8.997   1.019
48054W        W14837  15.815   3.629  10.411
48055W        W14838  39.301  29.591   4.145
48056W        W14839  16.104   9.996   3.645
48057W        W14840  38.585  22.232   1.281
48058W        W14841  43.253  18.456   0.734
48059W        W14842  20.601  38.425  10.606
48060W        W14843  23.200  41.046   3.260
48061W        W14844  37.780  29.530  14.820
48062W        W14845  44.711  15.777   2.941
48063W        W14846  30.455   0.062   4.363
48064W        W14847  18.695  36.852   0.211
48065W        W14848   3.337   5.760   4.604
48066W        W14849  30.950   1.001  10.295
48067W        W14850  27.449  44.371   2.310
48068W        W14851  35.858  24.963  14.094
48069W        W14852  17.285   9.159  14.014
48070W        W14853  38.557  41.583  12.969
48071W        W14854  25.619  32.773  12.938
48072W        W14855  42.250  26.951   4.657
48073W        W14856  29.465  40.680   2.422
48074W        W14857  10.616  42.325  13.046
48075W        W14858  10.521  41.827  14.233
48076W        W14859  27.099   6.793   4.697
48077W        W14860  36.076  36.875   0.785
48078W        W14861  35.037   2.313  13.276
48079W        W14862  26.014  18.376   4.759
48080W        W14863  32.631  29.447  11.147
48081W        W14864   3.906  26.487  13.879
48082W        W14865  36.270  38.387   1.771
48083W        W14866  12.382   6.647   1.374
48084W        W14867  36.917  36.822   3.762
48085W        W14868   6.764   8.247   2.028
48086W        W14869   2.912   6.323   3.182
48087W        W14870   1.258  24.399   3.217
48088W        W14871  24.045  23.711  13.903
48089W        W14872  17.052   6.471  14.368
48090W        W14873  14.648  30.845  12.028
48091W        W14874   7.890  34.743  12.992
48092W        W14875  40.599  25.499  11.959
48093W        W14876   3.835   3.441   2.225
48094W        W14877  37.888  30.426   3.842
48095W        W14878  30.974  15.666  12.406
48096W        W14879   1.876  30.480   0.815
48097W        W14880  27.950  43.467   4.114
48098W        W14881  36.115  33.453  13.597
48099W        W14882  42.004  12.137   4.177
48100W        W14883  16.304   5.815   1.852
48101W        W14884  37.426  13.026   3.667
48102W        W14885  29.025  23.483  14.015
48103W        W14886  44.527  17.970  13.888
48104W        W14887  10.854  32.611   1.763
48105W        W14888  36.925  43.733  14.375
48106W        W14889   2.679  14.384  12.417
48107W        W14890  37.800  26.665  13.267
48108W        W14891  44.558  30.728  11.056
48109W        W14892   4.738  30.743  13.413
48110W        W14893   8.655  25.467  11.377
48111W        W14894  28.143   0.251   3.136
48112W        W14895  22.996  28.147   3.376
48113W        W14896  17.127  19.159  13.472
48114W        W14897  25.665  36.006   1.559
48115W        W14898  13.703   9.155   4.105
48116W        W14899   6.466  37.618   4.639
48117W        W14900  32.928  14.573  14.866
48118W        W14901  36.811   5.851  14.340
48119W        W14902  34.055  33.754  12.060
48120W        W14903  39.269  36.908  14.887
48121W        W14904  43.468  24.311   0.639
48122W        W14905  24.168   3.360   1.938
48123W        W14906   4.325  11.867   0.233
48124W        W14907  38.392  40.803   0.380
48125W        W14908  35.915  19.553  11.982
48126W        W14909  41.778  33.516  12.875
48127W        W14910  40.819  31.377   5.001
48128W        W14911   4.367   5.151  11.900
48129W        W14912   1.132  29.612   3.697
48130W        W14913  43.231   5.743   3.571
48131W        W14914   4.349  15.112  11.639
48132W        W14915  41.397  28.909   4.462
48133W        W14916  33.137  28.145   0.809
48134W        W14917  41.240  33.490  10.627
48135W        W14918  38.361  25.436   3.668
48136W        W14919  10.828  39.085   0.465
48137W        W14920  34.955  19.914   2.616
48138W        W14921  43.489   7.222   3.675
48139W        W14922  10.772  26.379   3.686
48140W        W14923  23.514   4.545   4.036
48141W        W14924  42.233  36.180  12.575
48142W        W14925   4.379  43.267  14.822
48143W        W14926   7.660  32.803  14.104
48144W        W14927  13.785   7.765  13.208
48145W        W14928  28.140  21.546  13.865
48146W        W14929  38.544  23.851  13.475
48147W        W14930  21.694   7.977   1.440
48148W        W14931  23.607  34.234  11.391
48149W        W14932  43.287  32.938   1.215
48150W        W14933  28.044  12.718  10.095
48151W        W14934   5.868  40.577  14.394
48152W        W14935  36.398  34.640  12.467
48153W        W14936   8.615   7.725   3.550
48154W        W14937  43.009  28.595  11.154
48155W        W14938  31.380  22.982  14.958
48156W        W14939  35.047  17.210   4.666
48157W        W14940  16.014  32.779  13.096
48158W        W14941   2.363  28.330   0.199
48159W        W14942   4.534   3.571   3.816
48160W        W14943  14.783  13.669   1.863
48161W        W14944  14.060  33.793  10.609
48162W        W14945   4.619   6.283   0.394
48163W        W14946  19.282  37.659   4.126
48164W        W14947  23.973  33.022   1.331
48165W        W14948  10.213  11.120  11.432
48166W        W14949  38.092   7.412   3.684
48167W        W14950  17.439  23.469  12.039
48168W        W14951  41.851  24.164   3.694
48169W        W14952  40.355  38.831  12.071
48170W        W14953  10.156  24.613   0.258
48171W        W14954  17.847  43.988   1.865
48172W        W14955  26.804   3.532   4.047
48173W        W14956  21.232  37.887   0.387
48174W        W14957  43.772  20.557   0.313
48175W        W14958   6.396  25.984   1.768
48176W        W14959  40.491  21.431  11.067
48177W        W14960  38.490   2.255   2.414
48178W        W14961  31.119  15.594  13.815
48179W        W14962  18.663   2.720   0.275
48180W        W14963   2.248  10.395   4.175
48181W        W14964  36.381  30.077  12.540
48182W        W14965  13.586  33.002   4.138
48183W        W14966  42.320  41.886  12.010
48184W        W14967   7.855   6.957  13.991
48185W        W14968   6.287   8.851   1.352
48186W        W14969  33.343  11.878  11.560
48187W        W14970  43.222   0.347  12.130
48188W        W14971  40.341  43.858   0.256
48189W        W14972   0.451  10.944  10.748
48190W        W14973   3.268  11.318   3.618
48191W        W14974  29.844  13.619   3.908
48192W        W14975  39.790  38.366   0.387
48193W        W14976  22.836  30.797   1.233
48194W        W14977   7.027  38.536  11.632
48195W        W14978   6.152  24.785  11.605
48196W        W14979  28.877  12.054  11.984
48197W        W14980  43.823   8.212   1.881
48198W        W14981   2.910  19.726  11.577
48199W        W14982  11.180  40.861   0.965
48200W        W14983  24.501  26.440  10.552
48201W        W14984  25.151  39.795  14.930
48202W        W14985  41.805   1.447  12.143
48203W        W14986   4.350  27.677   1.899
48204W        W14987   1.982  29.947   0.877
48205W        W14988  22.805  40.522  11.792
48206W        W14989   5.428  39.613   3.713
48207W        W14990  23.166   5.005  10.836
48208W        W14991  29.652  38.585   1.268
48209W        W14992  28.587  42.473  14.470
48210W        W14993  44.484   8.690   9.746
48211W        W14994  13.216  18.190   1.759
48212W        W14995  32.079  24.549  11.575
48213W        W14996  28.994  43.309  13.466
48214W        W14997  42.962  10.929   0.410
48215W        W14998  32.089   7.884   5.181
48216W        W14999  44.896   2.310  13.344
48217W        W15000  11.278   3.884  13.718
48218W        W15001  33.676  29.707   0.383
48219W        W15002  17.715  11.308  11.538
48220W        W15003  23.117  31.046  12.939
48221W        W15004   1.182  42.902  11.902
48222W        W15005  37.965  29.026   1.587
48223W        W15006  29.348  21.624   2.974
48224W        W15007  26.318  31.200   3.351
48225W        W15008  42.735  25.540   3.384
48226W        W15009  31.417  40.523   0.447
48227W        W15010   3.167  28.446  12.451
48228W        W15011  18.309  40.650   0.748
48229W        W15012  37.650  36.008  12.016
48230W        W15013  16.633  39.351  10.609
48231W        W15014  26.502  15.846  10.108
48232W        W15015   0.402  15.430   2.517
48233W        W15016   5.240  37.254  14.804
48234W        W15017   0.437  10.831   2.538
48235W        W15018  26.609  10.925  14.276
48236W        W15019   7.443  42.788   0.051
48237W        W15020  40.994   5.484  11.715
48238W        W15021  23.075  25.745  12.820
48239W        W15022  29.485  23.064  12.142
48240W        W15023   2.856  31.049   4.488
48241W        W15024   3.208  43.103  12.960
48242W        W15025  15.436  31.466   2.633
48243W        W15026   6.285  21.666   2.573
48244W        W15027  11.709  18.730  13.025
48245W        W15028  30.114  39.054  11.819
48246W        W15029  39.813   8.932  12.191
48247W        W15030  22.803  42.381  13.063
48248W        W15031  41.077  34.326   1.722
48249W        W15032  15.724  11.762   4.699
48250W        W15033  22.622   1.579   1.475
48251W        W15034  32.910   9.190   1.474
48252W        W15035  40.856  25.463   1.862
48253W        W15036  44.900   0.590  13.901
48254W        W15037  44.329  42.860  10.997
48255W        W15038  41.128   2.755  12.448
48256W        W15039  25.391   7.813   4.038
48257W        W15040  41.757  32.410  13.211
48258W        W15041  20.602  41.538   3.259
48259W        W15042  36.685   9.886  10.719
48260W        W15043  11.877  29.069  13.865
48261W        W15044  25.596   9.256  14.620
48262W        W15045   3.742  18.520  11.245
48263W        W15046  27.573  33.586  14.405
48264W        W15047   1.906  12.848   0.852
48265W        W15048  25.056   4.838   0.826
48266W        W15049   1.264  17.253  11.620
48267W        W15050  17.167  16.840   2.288
48268W        W15051  37.533  35.582  10.705
48269W        W15052  29.322  36.796   0.541
48270W        W15053  15.576   4.417  13.480
48271W        W15054  37.443   5.797   2.626
48272W        W15055   8.087   3.837  12.642
48273W        W15056  24.494  27.692  13.010
48274W        W15057  41.933  43.728   0.849
48275W        W15058  18.103  37.027   1.954
48276W        W15059  23.020  41.311   1.812
48277W        W15060  32.888  37.043  10.747
48278W        W15061  12.594  16.636   4.660
48279W        W15062   4.153  24.520   3.140
48280W        W15063  16.761  14.394  13.416
48281W        W15064  11.545   3.796   4.084
48282W        W15065   2.171  43.947  13.052
48283W        W15066  23.577  36.891   4.510
48284W        W15067   2.565   2.669   0.241
48285W        W15068   9.176   0.357  12.559
48286W        W15069  43.684  14.032  13.968
48287W        W15070  44.014  11.940  13.771
48288W        W15071  17.985  11.924  12.055
48289W        W15072  35.581   5.420  12.988
48290W        W15073  35.439  17.527   4.518
48291W        W15074  22.285  17.954  11.541
48292W        W15075  14.112  17.098  13.825
48293W        W15076  26.016   2.333   5.049
48294W        W15077  38.657  27.006   4.796
48295W        W15078  11.767  41.612   3.703
48296W        W15079  43.236  21.718   3.864
48297W        W15080  35.920  43.956  11.442
48298W        W15081   0.415  26.571   0.389
48299W        W15082   6.330  27.646   0.036
48300W        W15083  35.355  42.145  10.933
48301W        W15084   0.704   3.268   2.883
48302W        W15085   7.732  15.303  11.115
48303W        W15086  43.872   9.842  14.803
48304W        W15087  10.364  44.589  14.461
48305W        W15088  26.619  40.895   1.871
48306W        W15089  27.695  42.194   0.974
48307W        W15090   5.970  29.416   3.352
48308W        W15091   6.877  25.780  11.101
48309W        W15092  38.675  18.961  12.410
48310W        W15093  33.143  15.060   4.612
48311W        W15094  19.953  43.082  13.872
48312W        W15095  14.672  30.980  10.796
48313W        W15096  39.179  42.925  10.613
48314W        W15097   9.932  24.448  12.989
48315W        W15098  10.656  24.954   2.653
48316W        W15099  33.046  43.621   0.996
48317W        W15100  44.828  43.938   3.677
48318W        W15101  16.468  15.662   9.979
48319W        W15102  24.179  38.773  14.317
48320W        W15103  32.364  30.460  11.964
48321W        W15104  21.659  33.811  10.613
48322W        W15105  15.355  44.238  11.409
48323W        W15106   6.440  42.399  11.965
48324W        W15107  35.697   2.278   0.854
48325W        W15108  36.280  21.251  13.360
48326W        W15109  41.937  38.020  12.241
48327W        W15110   5.491  33.123  13.409
48328W        W15111  38.065  21.738   4.796
48329W        W15112  38.386  34.332   1.613
48330W        W15113  34.408  30.273   0.405
48331W        W15114   8.912   3.756  13.385
48332W        W15115  35.507   2.688  14.473
48333W        W15116  22.450  13.045   2.112
48334W        W15117  15.167  14.237   3.483
48335W        W15118   6.911  33.157   3.664
48336W        W15119  27.114  25.947  14.245
48337W        W15120  39.356  11.245   2.195
48338W        W15121  35.354  16.161  14.321
48339W        W15122   0.102  29.650   2.640
48340W        W15123  16.778  11.854  13.566
48341W        W15124  29.608   1.344  14.883
48342W        W15125  37.092  26.909   0.194
48343W        W15126  36.216  15.281   0.278
48344W        W15127   6.147   5.369   2.404
48345W        W15128  32.097  36.998  12.065
48346W        W15129  26.544   8.426   3.008
48347W        W15130  19.749  35.416   2.918
48348W        W15131   5.276  17.397  13.471
48349W        W15132  34.090  19.766  13.942
48350W        W15133   6.982   0.834   4.112
48351W        W15134   6.580  36.088   1.794
48352W        W15135  16.248  23.683   1.080
48353W        W15136  24.199  24.119   3.715
48354W        W15137   6.709   1.724  11.097
48355W        W15138  15.255  38.251   4.083
48356W        W15139  30.109  30.094   2.831
48357W        W15140   8.781  38.698   2.227
48358W        W15141  13.725   5.716   1.884
48359W        W15142   3.231  24.787   0.433
48360W        W15143  22.662  25.211   4.123
48361W        W15144   7.158  36.122   1.312
48362W        W15145   2.781  10.310  12.131
48363W        W15146  35.366  35.097  13.345
48364W        W15147  44.998  10.959  14.904
48365W        W15148   2.204  26.997   0.804
48366W        W15149  31.091  39.080   3.678
48367W        W15150  31.770   9.785  12.454
48368W        W15151  10.670  24.591  13.465
48369W        W15152  41.215  30.030  12.977
48370W        W15153   3.617  25.374  11.953
48371W        W15154   0.112  16.872   5.431
48372W        W15155  11.567   0.913   0.741
48373W        W15156  44.403   0.270  11.815
48374W        W15157  37.140  29.651  13.998
48375W        W15158   1.527  17.390   2.341
48376W        W15159  24.211  10.325   5.073
48377W        W15160  37.559  29.141  14.513
48378W        W15161  19.236  35.136   3.814
48379W        W15162   1.897   7.474  13.423
48380W        W15163  25.022   8.435   0.204
48381W        W15164  15.794  37.387  12.012
48382W        W15165  24.101  16.968   3.494
48383W        W15166  20.500  30.062   3.453
48384W        W15167  20.355   2.888   2.800
48385W        W15168  10.357  43.057   2.700
48386W        W15169  28.503  27.120   4.189
48387W        W15170  15.244  10.661  12.055
48388W        W15171  18.540  11.592   1.349
48389W        W15172   2.176  36.818  13.135
48390W        W15173  38.751  19.796  11.877
48391W        W15174  43.344  27.505  13.270
48392W        W15175  19.044  24.213   2.931
48393W        W15176  30.123  28.443   3.276
48394W        W15177  14.430  26.559  12.784
48395W        W15178   8.133   3.739   2.699
48396W        W15179   6.823  21.248   3.416
48397W        W15180  32.853  26.606  11.074
48398W        W15181  43.465  19.117  12.081
48399W        W15182  10.819   9.077   3.151
48400W        W15183  40.154  12.191  12.965
48401W        W15184  34.473   4.336   0.253
48402W        W15185  30.203  21.928  11.561
48403W        W15186   3.170  41.503   0.085
48404W        W15187  18.806  20.521   3.390
48405W        W15188  36.998  29.448   0.297
48406W        W15189  12.072   0.873   3.586
48407W        W15190  39.501   4.452   4.044
48408W        W15191  21.173  27.953   4.132
48409W        W15192  13.647  31.376   4.247
48410W        W15193  43.004  32.508   1.197
48411W        W15194  16.477  31.553   2.795
48412W        W15195   1.041   6.350  13.995
48413W        W15196  41.423  39.575   2.631
48414W        W15197   0.734   1.555  14.047
48415W        W15198  28.172   0.007  14.424
48416W        W15199  41.818  19.684  10.574
48417W        W15200  32.290  33.874  10.394
48418W        W15201  28.304   0.874   5.187
48419W        W15202  19.560  20.856   3.312
48420W        W15203  30.463  26.258   4.981
48421W        W15204  32.125  33.550   1.784
48422W        W15205  29.301   1.658  12.438
48423W        W15206   8.343   0.132   4.225
48424W        W15207  17.821   8.212   0.076
48425W        W15208  34.345   1.345   3.139
48426W        W15209  14.836  23.973   1.410
48427W        W15210  41.781  21.682   1.210
48428W        W15211   8.262   0.319  13.435
48429W        W15212  35.127  18.380   0.461
48430W        W15213  13.617  43.882   0.042
48431W        W15214  23.130  43.599   3.834
48432W        W15215  25.563  40.100   0.043
48433W        W15216   1.018  33.510  12.494
48434W        W15217  38.845  35.369   2.868
48435W        W15218  17.618   5.703   4.142
48436W        W15219   4.141  10.881  13.798
48437W        W15220  36.068  30.130   0.926
48438W        W15221  29.964   7.235   2.629
48439W        W15222  25.273  37.818   2.811
48440W        W15223  21.393  28.917  12.566
48441W        W15224  35.399   5.470   2.143
48442W        W15225   5.976  32.972   1.115
48443W        W15226  37.837  29.268   1.144
48444W        W15227  28.889  42.668  12.278
48445W        W15228  39.101  15.078  14.061
48446W        W15229   3.552  43.550   3.723
48447W        W15230  14.894  22.477   1.382
48448W        W15231  33.406  30.034  10.760
48449W        W15232   1.564  20.565  11.549
48450W        W15233  26.633  17.334   2.457
48451W        W15234  19.088  11.950  13.621
48452W        W15235  12.177  17.015   3.737
48453W        W15236   0.760  37.567  14.909
48454W        W15237   7.828  44.661   2.473
48455W        W15238  32.676  42.462   2.534
48456W        W15239  40.363  19.004   1.904
48457W        W15240  17.664  24.729   2.276
48458W        W15241  44.930  21.129  14.707
48459W        W15242   0.815  35.973   2.802
48460W        W15243  30.315  32.023  12.505
48461W        W15244  13.040  13.753   4.437
48462W        W15245  10.851  21.539   2.871
48463W        W15246  25.678   1.021  12.052
48464W        W15247   7.363  39.517   0.527
48465W        W15248  44.247  40.619   4.478
48466W        W15249  28.297  19.198   0.749
48467W        W15250  26.267  15.569   0.657
48468W        W15251  34.559  24.382   3.236
48469W        W15252  36.932  23.174  13.995
48470W        W15253  20.939  29.534  11.945
48471W        W15254  42.971  31.093  12.092
48472W        W15255  14.029  10.726   0.858
48473W        W15256  14.935   9.681   3.689
48474W        W15257  11.119  28.376   0.503
48475W        W15258  12.231  42.220  13.700
48476W        W15259  31.038  43.225   2.820
48477W        W15260   5.138  23.935   0.354
48478W        W15261  32.398   8.275  12.921
48479W        W15262  14.983   6.961   5.095
48480W        W15263  44.042  32.641  14.801
48481W        W15264   2.276  37.424  13.792
48482W        W15265  41.987  20.662   1.235
48483W        W15266  21.705  28.319  13.197
48484W        W15267  14.777  14.313   3.123
48485W        W15268  10.446  17.575   0.738
48486W        W15269  32.381   2.343   4.569
48487W        W15270  36.429   1.247   2.705
48488W        W15271  17.304  15.164  13.803
48489W        W15272  36.865  40.281   4.090
48490W        W15273  43.432  30.626  11.622
48491W        W15274  30.393   2.540   2.630
48492W        W15275  16.208  39.412   3.898
48493W        W15276  12.337  39.355   2.810
48494W        W15277  20.893  14.914   3.626
48495W        W15278   2.999  23.253   0.743
48496W        W15279  30.576  20.977   1.220
48497W        W15280  10.226  10.242  11.623
48498W        W15281  15.097  24.081   4.589
48499W        W15282  23.316   8.402   1.293
48500W        W15283  41.896  16.403  11.735
48501W        W15284  32.226   9.875   2.820
48502W        W15285  25.084  33.427   0.801
48503W        W15286   9.346   0.930   0.890
48504W        W15287  11.619   7.629  11.276
48505W        W15288  21.140   8.241   3.755
48506W        W15289  33.584  44.442  13.259
48507W        W15290  27.177   8.383   5.098
48508W        W15291   4.279  10.799   2.146
48509W        W15292  26.461   0.711   0.309
48510W        W15293  26.686  13.122  12.704
48511W        W15294  15.913  30.658  11.199
48512W        W15295   3.983   9.415  11.977
48513W        W15296  40.048  26.635   5.089
48514W        W15297  14.871  28.396   0.999
48515W        W15298  43.076  12.221   1.815
48516W        W15299  11.832  35.743   3.837
48517W        W15300  23.678  36.499   1.848
48518W        W15301  16.616  30.093   2.597
48519W        W15302  10.854  20.823  14.535
48520W        W15303   4.835  18.102   0.432
48521W        W15304  24.478  44.111   1.875
48522W        W15305  16.713  28.118  13.768
48523W        W15306  40.278  38.958  11.202
48524W        W15307  27.467   0.599  12.405
48525W        W15308  22.975  37.578  11.644
48526W        W15309  14.845   6.792   2.203
48527W        W15310  43.404  32.290   4.144
48528W        W15311  30.155  40.650  14.616
48529W        W15312  37.435  41.131   0.752
48530W        W15313  42.723  42.427  14.353
48531W        W15314  13.182   1.382  14.348
48532W        W15315   2.713  42.414  11.247
48533W        W15316  33.810  37.941   2.691
48534W        W15317  41.934   1.801  14.248
48535W        W15318   9.884  15.085   3.727
48536W        W15319  37.644   9.392  10.241
48537W        W15320  44.815  17.291  14.979
48538W        W15321  24.507  42.263   4.572
48539W        W15322  11.766  36.934  13.589
48540W        W15323   8.728  38.804   0.396
48541W        W15324   2.244  16.369   4.130
48542W        W15325   4.846  19.266  12.865
48543W        W15326  28.617  44.773  13.662
48544W        W15327  35.034  22.904  12.422
48545W        W15328   0.835   0.499   4.730
48546W        W15329  37.400  12.023  13.884
48547W        W15330   6.660  22.224  13.044
48548W        W15331  23.752  17.938   1.055
48549W        W15332  14.620  20.033  10.481
48550W        W15333  11.251  22.064  10.593
48551W        W15334  11.307  35.495   1.898
48552W        W15335   3.914   6.953  14.448
48553W        W15336  38.480   5.808   3.284
48554W        W15337  24.312  44.383   1.419
48555W        W15338  24.004  21.512   4.072
48556W        W15339   3.163  28.456   4.889
48557W        W15340  38.470  19.658  14.925
48558W        W15341  13.116   6.740  13.064
48559W        W15342  11.481   3.962  11.463
48560W        W15343  44.969  35.551   2.394
48561W        W15344  34.016  40.363  11.715
48562W        W15345  25.629   4.149   4.077
48563W        W15346  23.995  40.544   1.398
48564W        W15347  27.985  20.137  12.014
48565W        W15348  17.876  43.629   0.354
48566W        W15349  23.145  10.849  10.811
48567W        W15350   9.777  44.276   3.115
48568W        W15351   3.877   3.805   0.456
48569W        W15352  39.929  19.972  12.650
48570W        W15353  12.276  30.575   3.134
48571W        W15354  25.193  17.219   0.822
48572W        W15355  25.213  37.596   3.749
48573W        W15356  38.987   4.988   0.501
48574W        W15357  34.557  39.906  14.949
48575W        W15358  41.623  38.491   3.203
48576W        W15359  41.099  20.276  14.176
48577W        W15360  31.026  16.299  14.550
48578W        W15361  38.528  26.217   0.224
48579W        W15362   8.956   4.768   0.935
48580W        W15363  18.228  17.644   9.764
48581W        W15364  17.158  22.398  13.051
48582W        W15365  31.101  31.069   1.900
48583W        W15366   1.305  22.050   0.252
48584W        W15367  10.280  31.614  10.255
48585W        W15368  25.666   1.412   1.957
48586W        W15369  18.381  16.662  11.078
48587W        W15370  19.869  40.995  14.795
48588W        W15371  38.788  42.223  12.093
48589W        W15372  24.179  41.649  13.717
48590W        W15373  36.369   7.102  14.933
48591W        W15374  10.342  19.784   3.113
48592W        W15375  24.663   9.883   3.665
48593W        W15376  27.353  44.935  13.113
48594W        W15377  37.111  29.627   4.128
48595W        W15378  10.373  26.776  10.327
48596W        W15379  38.873  37.808  13.804
48597W        W15380  39.269   9.285   4.285
48598W        W15381  15.236  12.539  11.258
48599W        W15382   2.901  21.625   3.355
48600W        W15383  30.551   0.941  13.668
48601W        W15384  23.760  13.632  11.695
48602W        W15385  21.550  41.729  13.077
48603W        W15386   0.054  41.964   3.768
48604W        W15387   8.223   3.782   3.220
48605W        W15388  43.229  29.378   5.031
48606W        W15389  39.789   7.891  14.822
48607W        W15390  29.818  40.208   1.023
48608W        W15391  21.205  37.327  14.230
48609W        W15392  30.980   1.885   2.627
48610W        W15393  31.418   9.697   1.681
48611W        W15394   5.687  38.953   0.949
48612W        W15395   4.388  31.089   0.293
48613W        W15396  16.150  24.190  11.979
48614W        W15397  17.183  40.161   2.857
48615W        W15398   4.493  38.373  14.405
48616W        W15399  38.791  24.953  12.126
48617W        W15400  25.148  34.937  12.062
48618W        W15401   9.483  26.897  13.374
48619W        W15402   2.606  33.589  10.584
48620W        W15403  40.798  11.865  14.562
48621W        W15404  39.763  29.465   2.986
48622W        W15405   0.904  35.971  12.456
48623W        W15406  33.848  12.782   2.576
48624W        W15407   2.789  14.246   4.124
48625W        W15408  33.299   9.265  14.482
48626W        W15409  41.614  28.642  12.064
48627W        W15410  44.425  17.842  10.055
48628W        W15411  29.924  33.479  10.956
48629W        W15412   7.977  18.102   4.621
48630W        W15413  22.102  37.155  11.432
48631W        W15414  43.875  19.621   4.011
48632W        W15415   1.927   5.367   2.735
48633W        W15416  44.175   6.187   3.712
48634W        W15417  40.017  38.804   1.346
48635W        W15418  34.976  40.526  14.787
48636W        W15419  23.117  39.545  14.097
48637W        W15420   6.502  15.422  11.607
48638W        W15421  20.579  30.633   4.149
48639W        W15422  26.024   6.411  13.899
48640W        W15423  17.844  11.799   0.231
48641W        W15424  31.800   7.849  11.055
48642W        W15425   2.158   6.297  11.148
48643W        W15426  16.874  15.503   3.246
48644W        W15427  31.590  20.263  14.303
48645W        W15428  31.131  18.177   2.711
48646W        W15429  22.177  20.142   1.296
48647W        W15430  35.364  11.237   2.297
48648W        W15431  27.065  27.614  11.394
48649W        W15432   8.870  11.868   3.695
48650W        W15433  33.598  24.637   1.111
48651W        W15434  26.584  20.520   1.909
48652W        W15435  25.745  16.458   3.191
48653W        W15436  43.540  10.870   3.805
48654W        W15437  29.943  31.659  10.766
48655W        W15438   9.099  19.949   0.294
48656W        W15439   4.869  13.413  12.913
48657W        W15440  26.113  30.708   3.305
48658W        W15441   5.249  38.464  10.617
48659W        W15442  19.257  33.457  11.656
48660W        W15443  32.924  13.150  13.018
48661W        W15444   1.032  17.958  11.995
48662W        W15445  32.545  40.063  11.150
48663W        W15446  28.320  44.301  11.523
48664W        W15447  38.971   8.741  12.353
48665W        W15448   6.253  44.403  10.560
48666W        W15449  11.069   2.361   1.232
48667W        W15450  36.527  29.858  13.381
48668W        W15451  21.979  17.115  11.130
48669W        W15452  36.892  28.945   3.422
48670W        W15453  16.267  22.467  10.456
48671W        W15454  22.649  16.027  10.094
48672W        W15455   6.204  13.907  12.509
48673W        W15456  40.386  13.151  13.528
48674W        W15457  36.297  29.053  14.748
48675W        W15458  21.920  35.918  12.835
48676W        W15459  14.729  29.223  14.951
48677W        W15460  21.410  34.172   2.336
48678W        W15461  21.444  28.502  13.874
48679W        W15462  41.028  36.551  11.647
48680W        W15463  26.416  41.373   2.666
48681W        W15464   0.817  43.981  12.649
48682W        W15465   9.934  33.382  12.028
48683W        W15466  34.392  42.829  14.989
48684W        W15467  37.450  34.799   0.736
48685W        W15468  29.082   3.719  10.829
48686W        W15469  21.689   8.337  14.796
48687W        W15470  28.018  22.395   4.848
48688W        W15471  43.238  15.353  12.090
48689W        W15472   4.024  16.269   3.477
48690W        W15473  18.478  14.686   2.830
48691W        W15474   5.784  17.634  12.190
48692W        W15475  37.590  39.398  14.498
48693W        W15476  32.363  35.581   4.670
48694W        W15477  44.170  24.744  12.566
48695W        W15478  38.989  41.799   4.169
48696W        W15479  16.634  28.421  11.660
48697W        W15480  44.002  23.566   3.248
48698W        W15481   0.751  27.257   1.308
48699W        W15482  33.509  10.534   2.258
48700W        W15483   7.896  12.827  12.021
48701W        W15484   8.685  28.081  13.453
48702W        W15485  39.989   3.787   3.627
48703W        W15486  32.183  26.121  14.909
48704W        W15487   4.248  41.549   3.294
48705W        W15488  36.616  39.723  12.659
48706W        W15489   6.840   4.994   4.337
48707W        W15490  25.586   6.589  12.515
48708W        W15491   2.944  29.893   2.367
48709W        W15492   5.764  33.451   4.358
48710W        W15493  38.061   0.765   0.233
48711W        W15494  30.846  18.033  13.940
48712W        W15495   9.677   9.423  10.622
48713W        W15496  27.447  40.779  11.183
48714W        W15497  20.653  30.320  12.275
48715W        W15498  32.041   4.497  11.944
48716W        W15499  24.681  38.031   3.772
48717W        W15500  13.802   7.863  12.001
48718W        W15501  28.564  25.963   0.627
48719W        W15502   9.157  20.544   4.659
48720W        W15503  34.104  17.897   0.492
48721W        W15504  38.417  36.011   0.267
48722W        W15505   4.320   7.770  14.679
48723W        W15506  39.923  28.277   0.485
48724W        W15507  44.196  16.546  13.071
48725W        W15508  38.500  32.079   2.793
48726W        W15509   2.234  14.600   2.869
48727W        W15510   6.445  42.920  11.174
48728W        W15511   0.927   7.902  12.699
48729W        W15512   0.179  44.730  14.831
48730W        W15513  27.613   2.419  14.760
48731W        W15514   0.710   6.602   3.784
48732W        W15515  34.573  11.678   2.299
48733W        W15516  43.296  40.857  10.756
48734W        W15517  42.348   4.551   1.169
48735W        W15518  13.182   0.549  11.126
48736W        W15519  38.600   3.373  11.597
48737W        W15520  39.091  19.318   3.208
48738W        W15521  42.044  36.028  14.282
48739W        W15522  43.468   8.745   0.187
48740W        W15523  44.296  27.603  12.093
48741W        W15524  24.036   6.773  10.921
48742W        W15525  38.090  10.411  12.113
48743W        W15526  26.562  39.248  12.031
48744W        W15527   6.339  36.393   4.080
48745W        W15528  23.172  39.038   4.138
48746W        W15529  33.978  22.922  12.486
48747W        W15530   7.707  29.799  13.582
48748W        W15531  24.106  39.314   2.800
48749W        W15532  34.948  37.516   2.361
48750W        W15533  32.605  22.923  10.756
48751W        W15534   7.167  17.685  12.423
48752W        W15535  22.634  11.150  14.975
48753W        W15536  38.945  34.547   2.286
48754W        W15537  12.102   4.403   3.675
48755W        W15538  35.916  38.105  12.179
48756W        W15539   3.216  22.071  12.982
48757W        W15540  36.127  31.356   3.173
48758W        W15541   0.887  29.899  14.249
48759W        W15542  35.343   5.338   2.639
48760W        W15543  23.569  25.096  12.658
48761W        W15544  16.183  26.027  14.768
48762W        W15545   8.260   2.398   3.440
48763W        W15546  18.689   2.066   1.583
48764W        W15547  25.026  25.436   0.409
48765W        W15548  13.403  29.902   4.128
48766W        W15549  41.003  36.590  12.431
48767W        W15550  43.955  21.452  10.234
48768W        W15551  13.523  17.510  13.050
48769W        W15552  22.079  18.355   1.994
48770W        W15553  40.067  32.041  11.624
48771W        W15554  14.321  10.602  10.488
48772W        W15555  13.904  44.534   2.733
48773W        W15556  41.568  41.975   3.244
48774W        W15557  25.014   9.668  14.942
48775W        W15558  19.654   4.655  10.874
48776W        W15559   6.144  10.745  12.565
48777W        W15560   0.783  35.037   1.750
48778W        W15561  24.651  10.856  14.398
48779W        W15562  40.958  25.175   4.666
48780W        W15563  11.171  32.346   3.983
48781W        W15564   9.813  31.944   0.853
48782W        W15565   9.758   8.752   1.194
48783W        W15566  38.845  36.076   2.377
48784W        W15567  39.786  39.074  14.405
48785W        W15568   1.278   2.778  10.993
48786W        W15569  38.447  12.253  13.823
48787W        W15570  34.481  37.527   0.995
48788W        W15571  19.061  13.205   4.575
48789W        W15572  35.913  14.846   1.828
48790W        W15573   8.755  29.141  12.990
48791W        W15574  33.708  37.623   1.040
48792W        W15575   7.112  32.472  14.900
48793W        W15576  34.280  15.350   1.370
48794W        W15577  24.728  40.728   0.414
48795W        W15578  31.891   5.152   2.996
48796W        W15579  16.016  24.223  14.861
48797W        W15580  21.785  12.325  13.077
48798W        W15581  34.698  13.370   9.702
48799W        W15582  36.132  16.301   2.014
48800W        W15583  16.718  38.736   2.847
48801W        W15584  38.706  40.125  12.286
48802W        W15585  16.519  24.193  14.968
48803W        W15586   1.061  21.318   1.459
48804W        W15587  40.823  20.519   2.690
48805W        W15588  23.566  38.614  14.305
48806W        W15589   2.860  18.319  13.253
48807W        W15590  35.748  19.009  11.314
48808W        W15591  35.310  24.528   1.827
48809W        W15592  31.037   4.952  10.289
48810W        W15593   9.396  16.126  10.921
48811W        W15594  26.715   9.678   3.579
48812W        W15595  24.632   5.840  13.835
48813W        W15596  39.403  39.708   2.356
48814W        W15597   3.195  43.462  10.508
48815W        W15598  22.104  26.070   3.324
48816W        W15599  35.408  24.949  11.026
48817W        W15600  40.026  36.944  10.961
48818W        W15601  28.014  27.273  14.751
48819W        W15602  17.732  26.513  14.726
48820W        W15603   7.387  38.073  13.331
48821W        W15604  20.242  37.335   4.152
48822W        W15605  28.582  31.522   1.966
48823W        W15606  40.009   7.784   2.394
48824W        W15607  31.846  13.336   2.131
48825W        W15608  19.009  36.050   4.546
48826W        W15609   4.891  35.519  10.746
48827W        W15610  43.666  29.025  11.476
48828W        W15611   5.223   1.483  12.901
48829W        W15612  41.454  37.175   1.676
48830W        W15613   6.429  43.174  11.617
48831W        W15614  36.601  31.270  12.131
48832W        W15615  34.976  25.465   2.427
48833W        W15616   8.662  43.798  13.460
48834W        W15617  23.681  20.739  11.769
48835W        W15618  28.551  17.092  13.423
48836W        W15619  19.923  15.554  14.295
48837W        W15620  10.327  44.931   4.501
48838W        W15621   2.036  26.545  12.930
48839W        W15622  20.725  43.294   0.926
48840W        W15623  43.030  19.197   0.499
48841W        W15624  42.206   6.153  14.450
48842W        W15625   9.782  19.203   2.379
48843W        W15626  13.340  38.279  14.807
48844W        W15627   4.752  33.538  13.045
48845W        W15628  37.399  35.209   3.812
48846W        W15629  24.180  22.619   4.749
48847W        W15630  20.773  43.222   4.102
48848W        W15631  23.624  26.955   1.131
48849W        W15632  35.606  15.201  11.209
48850W        W15633  19.808  34.900   4.094
48851W        W15634  11.157  12.734  11.648
48852W        W15635   1.510  13.871   2.027
48853W        W15636  27.600  35.179  14.321
48854W        W15637   5.687  14.678  12.756
48855W        W15638  37.131  41.816   4.218
48856W        W15639   1.289   0.157   2.062
48857W        W15640  30.422   2.880  12.854
48858W        W15641  13.773  28.343  13.018
48859W        W15642  43.106  36.399   4.137
48860W        W15643  40.607  37.134   0.351
48861W        W15644  30.660   1.260  14.941
48862W        W15645  17.494  22.438  13.757
48863W        W15646  26.996   7.123  11.815
48864W        W15647  35.763  31.533  12.314
48865W        W15648   3.166  20.247  10.596
48866W        W15649  13.367   3.073   0.760
48867W        W15650  39.086  31.586  13.470
48868W        W15651  33.548  16.654   4.841
48869W        W15652  22.342   1.530   3.213
48870W        W15653  13.307  26.195   2.099
48871W        W15654  30.940  19.294   4.166
48872W        W15655  21.473  40.783  12.833
48873W        W15656   7.414  13.094  12.193
48874W        W15657   4.747   5.380  12.142
48875W        W15658  40.018  14.648   3.205
48876W        W15659  25.416  22.189   3.209
48877W        W15660   8.666  22.562  13.473
48878W        W15661  31.157  25.705   4.128
48879W        W15662  33.008  25.003  13.391
48880W        W15663  36.721   4.279  14.923
48881W        W15664  18.130   5.365   2.322
48882W        W15665  21.565  41.304   0.961
48883W        W15666  29.190   6.772  12.109
48884W        W15667  30.522  40.844  11.197
48885W        W15668  43.344  10.840   0.740
48886W        W15669  21.241  14.811   9.844
48887W        W15670  10.394  21.114   4.629
48888W        W15671  20.892  31.516   3.295
48889W        W15672  16.355   0.009   0.459
48890W        W15673   8.033   7.393  14.296
48891W        W15674  23.611  43.359  13.573
48892W        W15675   3.309  11.163  13.208
48893W        W15676  27.177  16.806   4.891
48894W        W15677   0.248   6.966   0.903
48895W        W15678  42.209  42.833   4.601
48896W        W15679  20.689  37.437  12.584
48897W        W15680  13.191   4.010   1.825
48898W        W15681  14.711  24.574   1.158
48899W        W15682  22.099  39.756  14.499
48900W        W15683  35.418  41.436   2.751
48901W        W15684  41.131  28.612  14.038
48902W        W15685  15.742  23.963  12.753
48903W        W15686  21.781  18.107   4.557
48904W        W15687  26.227   8.736  12.465
48905W        W15688  39.058  37.359  13.549
48906W        W15689  29.717  33.152  11.432
48907W        W15690  24.062   6.063  13.395
48908W        W15691  43.372   4.984   0.057
48909W        W15692   6.914  27.586  10.798
48910W        W15693  34.461   6.815  11.145
48911W        W15694   9.576  23.098   1.082
48912W        W15695   9.071   2.344   1.730
48913W        W15696  31.665  44.894   0.249
48914W        W15697  32.716  38.994  10.685
48915W        W15698  23.107  42.763   0.721
48916W        W15699  33.754  39.549  11.082
48917W        W15700  32.603  11.117  13.445
48918W        W15701  40.942  10.849  13.454
48919W        W15702  27.148  31.181   3.243
48920W        W15703  41.775  15.088   2.203
48921W        W15704  34.615  18.791  12.132
48922W        W15705  17.261  30.895   1.790
48923W        W15706  27.952   6.865   2.654
48924W        W15707  11.829  29.860  12.874
48925W        W15708  29.217  14.902  14.226
48926W        W15709  25.894  43.553  11.913
48927W        W15710  17.317  27.093  13.423
48928W        W15711  28.401   1.324  11.953
48929W        W15712  33.693  30.218  10.236
48930W        W15713   5.665  35.984  13.110
48931W        W15714  28.425  27.558  14.816
48932W        W15715  14.560  26.598   1.848
48933W        W15716   2.828   9.140  14.074
48934W        W15717  32.496  22.523  11.694
48935W        W15718  31.929  32.896  10.475
48936W        W15719  15.550  34.661   3.855
48937W        W15720  16.666  37.502   2.367
48938W        W15721   7.549   0.390  12.517
48939W        W15722  29.967   4.915   3.653
48940W        W15723  18.013   9.448   1.938
48941W        W15724  33.975  15.297  13.567
48942W        W15725  13.704  23.085  10.766
48943W        W15726  42.551   3.172   3.212
48944W        W15727  31.680  18.131  14.325
48945W        W15728   4.210  36.978  12.094
48946W        W15729   7.851  23.174  12.141
48947W        W15730  10.319  42.368  13.825
48948W        W15731  17.599  12.925   2.757
48949W        W15732  30.844  44.189   3.009
48950W        W15733  31.514   0.299   0.682
48951W        W15734   0.762  28.639  11.010
48952W        W15735  34.028   1.727  12.656
48953W        W15736  29.407  13.688  11.284
48954W        W15737  38.492   6.271  10.447
48955W        W15738   6.828   4.207  14.478
48956W        W15739  42.983   8.139   1.721
48957W        W15740  33.919  13.572   4.057
48958W        W15741  13.696  18.206   1.608
48959W        W15742  16.117  12.596  11.596
48960W        W15743  16.043  16.929  11.472
48961W        W15744   9.082  28.929  13.466
48962W        W15745  24.559  43.525   3.755
48963W        W15746  36.095  39.109  11.946
48964W        W15747  36.861  31.281   4.897
48965W        W15748  10.365  16.260  13.156
48966W        W15749   4.685  14.254   2.354
48967W        W15750  19.007   4.996   2.699
48968W        W15751   2.847  42.773   0.892
48969W        W15752  22.201  24.664  12.340
48970W        W15753   6.838  35.049   5.213
48971W        W15754  12.395  35.179  11.112
48972W        W15755  20.797  32.082  13.510
48973W        W15756  34.341  43.261   0.971
48974W        W15757   5.188   3.764   2.231
48975W        W15758  13.501  12.028   2.010
48976W        W15759  43.208  12.827  14.780
48977W        W15760  24.138  37.892  14.594
48978W        W15761  37.638  19.059   4.107
48979W        W15762  21.580  33.289  11.560
48980W        W15763   8.676  26.531  14.779
48981W        W15764  27.784   3.717  12.005
48982W        W15765   3.722  33.019  13.889
48983W        W15766  12.109  22.870  12.734
48984W        W15767   5.564  23.744  12.162
48985W        W15768  35.972  10.645   2.637
48986W        W15769  18.974   3.411   0.545
48987W        W15770  30.712  42.426  11.423
48988W        W15771  26.225   2.985  10.638
48989W        W15772   6.648  11.218   1.465
48990W        W15773  18.825  18.160   0.228
48991W        W15774  39.266  42.538  13.927
48992W        W15775  14.611  33.544   3.114
48993W        W15776  29.499   7.563   1.365
48994W        W15777  18.993  27.032  11.992
48995W        W15778  30.009  18.602  12.477
48996W        W15779  34.037   5.207   2.385
48997W        W15780  17.817  22.074  10.709
48998W        W15781  10.663  13.593  13.425
48999W        W15782  30.190  26.958  10.805
49000W        W15783  19.206  18.775   0.404
49001W        W15784   7.742  27.689  14.314
49002W        W15785  26.511  17.734  13.562
49003W        W15786  40.205  15.842   4.585
49004W        W15787   6.292  15.529  11.144
49005W        W15788   2.511   2.414  11.102
49006W        W15789  36.814  12.428  12.179
49007W        W15790  34.037  10.360   2.324
49008W        W15791   7.340  41.709  12.429
49009W        W15792   9.189  30.503   3.190
49010W        W15793  24.121  40.924  11.580
49011W        W15794  37.679   4.346   4.794
49012W        W15795  36.162  25.490  14.446
49013W        W15796  12.749  12.495  10.720
49014W        W15797  38.063  40.943   4.904
49015W        W15798   9.986  42.470  12.570
49016W        W15799  11.258   3.076   5.040
49017W        W15800   1.468  32.056  10.742
49018W        W15801  24.669  40.076  14.753
49019W        W15802  36.073  18.673  11.488
49020W        W15803  10.845  28.571   3.136
49021W        W15804  18.314  22.902  12.931
49022W        W15805  41.727  20.466   2.657
49023W        W15806   4.648  29.567   3.670
49024W        W15807   5.622  35.652   0.172
49025W        W15808  25.671  37.120  14.233
49026W        W15809  18.693  10.692   4.846
49027W        W15810  17.639  37.620  12.087
49028W        W15811  17.855  21.663   2.290
49029W        W15812  20.644  17.772  14.574
49030W        W15813   7.375   7.399  12.007
49031W        W15814  24.600  12.233  12.072
49032W        W15815   7.158  36.083   4.212
49033W        W15816  38.146  44.829  10.618
49034W        W15817   9.188  44.830   3.721
49035W        W15818  37.785  12.602   4.383
49036W        W15819  32.725   8.679  14.781
49037W        W15820  14.086   2.680  13.890
49038W        W15821  23.777  23.182  10.308
49039W        W15822   9.344  27.938   2.391
49040W        W15823   8.162  21.209  12.020
49041W        W15824  17.491   1.445  11.230
49042W        W15825  23.249  30.927  14.872
49043W        W15826   0.726  41.132  10.916
49044W        W15827  42.940  35.139  13.023
49045W        W15828  34.192  26.653  12.279
49046W        W15829   7.677   0.890  14.978
49047W        W15830  26.403  29.016  13.469
49048W        W15831  25.172   2.571   3.937
49049W        W15832  18.503  10.365   4.419
49050W        W15833   9.997  28.580  14.361
49051W        W15834  13.573  17.332   1.191
49052W        W15835  38.976   7.384  12.648
49053W        W15836  42.233  25.299   0.398
49054W        W15837   8.676  20.298  11.637
49055W        W15838  23.075   5.434  11.740
49056W        W15839  27.925  29.765   3.078
49057W        W15840   5.905  23.674   2.426
49058W        W15841  33.930   7.972   3.502
49059W        W15842  15.461  23.989  10.386
49060W        W15843  12.713   0.685   0.074
49061W        W15844  10.666  25.080  14.087
49062W        W15845   4.687  30.921  12.877
49063W        W15846  21.367   6.662   3.687
49064W        W15847  11.320  17.122  14.103
49065W        W15848   8.320  28.780  13.840
49066W        W15849  37.551  36.614  12.543
49067W        W15850  27.458   6.191  14.508
49068W        W15851  36.843  32.024   2.932
49069W        W15852  31.068  15.631   1.855
49070W        W15853  22.537   2.208  12.198
49071W        W15854  28.535  26.043  14.148
49072W        W15855  18.039  24.013  10.866
49073W        W15856  22.680  15.271   3.216
49074W        W15857  42.823  28.867   3.567
49075W        W15858  29.831  36.616  11.116
49076W        W15859  36.076  37.391  13.427
49077W        W15860  35.850  40.800   2.223
49078W        W15861   0.866   9.674   4.168
49079W        W15862   2.737   2.033   1.777
49080W        W15863  29.839  15.763  13.702
49081W        W15864  12.248  21.420   1.815
49082W        W15865  27.639  42.386  11.953
49083W        W15866  29.984   7.220  13.441
49084W        W15867   0.849   7.823   4.985
49085W        W15868  26.939   4.683  13.420
49086W        W15869  24.154  33.885   1.844
49087W        W15870  26.444  23.075  13.580
49088W        W15871  11.452  20.821   0.932
49089W        W15872  21.020  36.407   1.400
49090W        W15873   4.892  35.912  13.945
49091W        W15874  16.286   2.503  14.353
49092W        W15875  39.778  11.786  10.925
49093W        W15876  33.644  10.998  12.947
49094W        W15877  17.027  19.988  12.877
49095W        W15878  43.510  14.176  14.491
49096W        W15879   9.163   3.202   3.748
49097W        W15880   1.506  25.559   4.543
49098W        W15881  43.491  32.420  13.924
49099W        W15882  30.283   8.734   2.829
49100W        W15883   5.715  29.626  12.443
49101W        W15884  31.186   3.828  12.957
49102W        W15885  42.000  38.694   3.538
49103W        W15886  20.239  34.560  11.657
49104W        W15887  37.507   6.351  14.900
49105W        W15888  10.362  22.752   1.686
49106W        W15889  23.772  22.726   1.707
49107W        W15890  20.057  10.546   0.460
49108W        W15891  30.060  43.464  10.766
49109W        W15892  30.017   8.617  14.755
49110W        W15893  34.290   3.970  13.536
49111W        W15894  28.083  15.885   4.461
49112W        W15895   0.350  17.113  13.810
49113W        W15896   2.980  44.808  14.883
49114W        W15897  13.757  24.111   0.444
49115W        W15898   6.267  20.044  12.636
49116W        W15899  15.610   7.323  13.780
49117W        W15900  29.458   0.336  13.396
49118W        W15901  42.938  20.025  13.790
49119W        W15902  36.812  44.835   2.226
49120W        W15903  13.562  43.405  14.373
49121W        W15904  22.430  18.303  11.179
49122W        W15905  38.066   9.733   0.847
49123W        W15906   3.888  12.910  12.041
49124W        W15907  41.458  30.990   3.325
49125W        W15908  12.971  42.733  10.849
49126W        W15909   6.746   6.357   4.384
49127W        W15910  38.514  39.754  10.794
49128W        W15911   1.020   0.910  11.604
49129W        W15912   0.351  19.490   2.330
49130W        W15913  38.365  38.521  10.200
49131W        W15914  31.235  10.084   2.247
49132W        W15915  37.637  35.447   0.176
49133W        W15916   4.250   4.257   2.449
49134W        W15917  21.728  11.655   0.991
49135W        W15918   1.504   9.297  14.073
49136W        W15919   2.700   4.663  13.528
49137W        W15920  40.281   7.403  11.425
49138W        W15921  14.049   6.689   2.413
49139W        W15922  32.115  35.667  14.960
49140W        W15923  37.246  29.983  11.585
49141W        W15924  43.669  18.570   4.514
49142W        W15925  43.803  24.725  14.425
49143W        W15926  13.741  28.752   4.807
49144W        W15927  44.313  29.215   4.295
49145W        W15928  17.697   1.380   2.081
49146W        W15929   6.680   9.405  14.062
49147W        W15930  33.465  38.542   4.341
49148W        W15931  40.997  26.933   1.385
49149W        W15932  35.967  33.550   0.684
49150W        W15933   2.385   0.028   0.737
49151W        W15934  38.247  22.778  14.351
49152W        W15935   6.312  17.798   3.900
49153W        W15936  31.466  21.318   0.682
49154W        W15937  21.209  44.323  13.822
49155W        W15938  44.358  21.050   2.201
49156W        W15939  20.510  38.440  11.903
49157W        W15940  34.549  40.876  12.354
49158W        W15941  41.122  32.046  13.526
49159W        W15942  34.426  41.581   4.848
49160W        W15943  37.019  43.020  13.383
49161W        W15944  12.818   1.225  11.608
49162W        W15945  28.655  31.071   1.681
49163W        W15946  25.038  16.989   4.353
49164W        W15947  29.702  15.021  11.954
49165W        W15948  28.129  11.596  12.887
49166W        W15949  21.946  35.431   1.715
49167W        W15950  10.596  31.492   2.726
49168W        W15951  29.113  36.773  12.768
49169W        W15952  40.893  18.758  14.679
49170W        W15953   4.932  15.511  12.174
49171W        W15954   8.178  14.456   4.100
49172W        W15955   9.773  44.328  11.879
49173W        W15956   2.354  20.912   4.153
49174W        W15957  42.431  23.582   4.678
49175W        W15958  11.190  26.070   3.852
49176W        W15959  39.852  43.936   2.558
49177W        W15960  15.552  27.433  13.613
49178W        W15961   9.912  21.657  11.595
49179W        W15962  10.150  22.857  13.371
49180W        W15963  22.959  39.885  11.188
49181W        W15964  44.673   5.474   3.716
49182W        W15965  38.084  38.427   4.805
49183W        W15966  11.852  12.135  13.876
49184W        W15967  34.858  30.995  10.733
49185W        W15968  28.627  27.058   0.006
49186W        W15969  13.797  16.811   1.800
49187W        W15970  42.305   9.708   4.308
49188W        W15971  14.756   8.164  12.321
49189W        W15972   4.241  35.417   4.646
49190W        W15973   9.677  41.431   2.948
49191W        W15974   9.307   2.270  14.220
49192W        W15975  10.571  36.795  12.603
49193W        W15976   4.808   5.208   2.574
49194W        W15977  35.577  26.510  11.999
49195W        W15978  26.297  41.220   4.977
49196W        W15979  26.925  25.104   1.642
49197W        W15980  10.118  20.667  10.527
49198W        W15981  17.107  23.661  13.624
49199W        W15982  35.827  14.312  14.057
49200W        W15983   9.881  29.523   2.223
49201W        W15984   6.358  43.502  10.511
49202W        W15985  43.007   7.890   2.790
49203W        W15986  34.165  40.672   1.001
49204W        W15987   1.725  42.047   0.459
49205W        W15988   6.793  12.922   4.617
49206W        W15989  35.557  18.494  11.402
49207W        W15990  37.208   6.349  11.665
49208W        W15991  15.096  40.831   1.370
49209W        W15992  27.668  11.276  10.218
49210W        W15993  16.081  23.448  11.638
49211W        W15994  41.804  13.258   0.366
49212W        W15995  12.350  40.143   4.924
49213W        W15996   2.676  27.273  11.855
49214W        W15997  20.849  43.787   1.836
49215W        W15998  22.125  35.708   1.322
49216W        W15999  38.927  16.767   4.178
49217W        W16000  34.860  44.951   2.790
49218W        W16001   6.556  26.700   1.119
49219W        W16002  39.488  37.252   1.663
49220W        W16003   9.155  27.136  11.540
49221W        W16004  44.527  23.989  14.308
49222W        W16005   7.901  20.034   0.697
49223W        W16006  42.122  14.614   1.357
49224W        W16007  32.066  15.016   3.571
49225W        W16008  26.051  32.096  12.669
49226W        W16009  15.576  41.067   1.399
49227W        W16010  19.681  33.661  12.382
49228W        W16011  26.238  26.235  12.440
49229W        W16012  38.959  36.771  14.471
49230W        W16013   1.988  41.025  11.557
49231W        W16014  31.025  37.817  13.651
49232W        W16015  29.086  27.510   3.035
49233W        W16016  15.548  30.614  13.426
49234W        W16017  34.598  20.019  14.915
49235W        W16018   2.403   2.903   1.708
49236W        W16019  35.942  12.983   2.178
49237W        W16020  27.094  31.927  10.614
49238W        W16021  14.082  35.025   3.039
49239W        W16022   9.604  14.370   0.267
49240W        W16023  10.350  22.588  13.914
49241W        W16024  18.708  36.047  13.009
49242W        W16025  15.148  30.717  10.730
49243W        W16026  28.787  40.365  13.514
49244W        W16027  26.176  35.376  12.466
49245W        W16028   3.519  39.859   2.046
49246W        W16029  20.599  12.142   3.687
49247W        W16030  44.367  43.599   3.652
49248W        W16031  21.189  34.477   1.873
49249W        W16032  38.007   7.050   1.592
49250W        W16033   0.675  14.853  13.696
49251W        W16034  33.005   2.964   2.430
49252W        W16035  27.159  41.980   4.695
49253W        W16036  28.231  17.665   2.440
49254W        W16037  15.626  26.221   1.314
49255W        W16038   5.914  38.482   1.150
49256W        W16039  14.097  13.871   1.299
49257W        W16040  24.013   2.351  13.971
49258W        W16041  39.528  32.813   2.358
49259W        W16042  44.156  27.708   3.299
49260W        W16043  16.104  32.447  13.933
49261W        W16044  10.237  36.908   0.355
49262W        W16045  22.555  11.827   3.608
49263W        W16046  39.812  22.047   1.761
49264W        W16047  43.338   5.889  10.593
49265W        W16048  39.015   7.122   3.292
49266W        W16049  10.934  44.056  14.406
49267W        W16050  37.853   6.923  11.125
49268W        W16051  36.087  13.199   2.611
49269W        W16052  25.049  18.507   3.704
49270W        W16053  25.196  36.962  10.666
49271W        W16054  32.172  37.834  12.972
49272W        W16055  31.812   8.466   3.549
49273W        W16056  12.751  16.640  12.942
49274W        W16057  14.510  15.831  11.130
49275W        W16058   0.858  20.584   4.097
49276W        W16059  19.459  22.649  13.370
49277W        W16060  42.644  11.645  10.276
49278W        W16061  35.921  12.989  11.058
49279W        W16062  29.652  31.443  14.349
49280W        W16063  29.026  12.579   3.672
49281W        W16064  16.771   1.312   4.464
49282W        W16065   1.339  15.323  10.576
49283W        W16066  23.922  41.988   0.396
49284W        W16067  33.382   1.494  12.954
49285W        W16068  35.984  39.664   3.247
49286W        W16069  35.821  19.272   3.645
49287W        W16070  36.127  18.906   3.449
49288W        W16071  11.241  35.562   9.782
49289W        W16072  39.665  16.534   2.871
49290W        W16073  24.264  30.077   1.417
49291W        W16074  30.069  25.601  10.758
49292W        W16075   7.542   2.343  13.129
49293W        W16076   3.285   5.859  12.456
49294W        W16077  14.839  25.291  12.026
49295W        W16078  34.685  32.151   4.055
49296W        W16079  43.303  33.482   2.903
49297W        W16080  30.625  35.534  13.033
49298W        W16081   3.287  38.362   3.733
49299W        W16082   7.701  26.494   3.384
49300W        W16083  11.356  18.440   2.390
49301W        W16084   6.861  38.918  10.424
49302W        W16085   0.889  34.525   0.943
49303W        W16086  43.668  42.315   0.294
49304W        W16087   9.883  28.098   3.123
49305W        W16088  23.224  14.296  11.642
49306W        W16089  36.395  26.744  12.551
49307W        W16090  39.110   7.192  13.099
49308W        W16091  11.424  43.821   1.836
49309W        W16092  28.974  12.676   4.524
49310W        W16093  29.553  24.710  13.891
49311W        W16094  41.893   5.648  13.485
49312W        W16095  30.423  16.665   4.593
49313W        W16096  21.300  26.943   5.106
49314W        W16097   3.249  29.043  13.883
49315W        W16098  19.526  40.970   3.610
49316W        W16099   8.345  11.776   3.042
49317W        W16100   9.085   5.730   3.605
49318W        W16101  10.717  13.501   0.482
49319W        W16102  25.286   0.719   3.604
49320W        W16103  41.409   0.850  13.934
49321W        W16104  14.299  30.355  12.482
49322W        W16105  16.055  14.023  11.535
49323W        W16106  32.672  42.342   1.722
49324W        W16107  25.692   3.288  14.666
49325W        W16108   4.209  19.248  14.773
49326W        W16109  43.510   1.681   0.547
49327W        W16110  36.814  24.723   3.673
49328W        W16111  14.266  38.420  11.528
49329W        W16112  13.982  34.655  12.425
49330W        W16113  36.626  29.420   4.135
49331W        W16114   6.926  35.079   3.368
49332W        W16115  25.845  21.315   3.665
49333W        W16116  10.080  13.135   3.657
49334W        W16117  13.079   8.569   4.476
49335W        W16118   9.050   0.297   0.309
49336W        W16119  41.514   8.919  12.144
49337W        W16120  33.316  39.248  14.785
49338W        W16121  27.548  35.678  12.072
49339W        W16122  14.490  30.857   5.070
49340W        W16123   8.452  10.688   4.081
49341W        W16124   5.762  35.089   0.878
49342W        W16125   6.733  29.648  11.061
49343W        W16126   4.007  31.018  14.024
49344W        W16127   7.698   6.965  11.691
49345W        W16128  44.799  16.738   1.563
49346W        W16129  21.816  37.799  11.112
49347W        W16130  17.434  35.031   1.683
49348W        W16131  25.081  41.911   3.616
49349W        W16132  33.632  23.532   2.728
49350W        W16133   2.190  21.722  11.570
49351W        W16134  11.072   5.779  10.718
49352W        W16135  40.566  29.593   3.280
49353W        W16136  30.430  40.372   0.309
49354W        W16137   2.280  25.092  10.749
49355W        W16138  22.792  40.688  12.268
49356W        W16139  36.574  36.600   3.465
49357W        W16140  41.572  29.633  14.935
49358W        W16141  25.018  22.404  13.464
49359W        W16142  41.466   5.304  11.681
49360W        W16143   7.678  26.067   2.574
49361W        W16144   1.046  21.911   3.728
49362W        W16145  44.279  42.890   1.909
49363W        W16146  17.176   0.950   0.344
49364W        W16147   2.945   5.912   2.449
49365W        W16148   5.924   0.799  13.347
49366W        W16149  39.014  32.223   1.624
49367W        W16150  44.744  28.660   2.718
49368W        W16151   3.207  39.542   0.278
49369W        W16152  24.885  33.887   0.717
49370W        W16153  35.443  15.408  12.672
49371W        W16154  26.480   2.747  14.398
49372W        W16155  10.579  13.986   0.301
49373W        W16156  11.196   5.743   5.400
49374W        W16157  34.630   5.017   3.144
49375W        W16158   5.440   4.826  13.563
49376W        W16159   2.300  16.904  12.967
49377W        W16160  35.097  27.086   0.944
49378W        W16161  21.845  21.617   0.138
49379W        W16162   8.201   1.292  13.452
49380W        W16163  30.055   0.314  14.906
49381W        W16164  29.949  43.388  14.404
49382W        W16165   8.201  44.635  14.008
49383W        W16166  37.349  33.567  11.569
49384W        W16167  37.087  42.682  12.858
49385W        W16168  14.613  15.100   2.229
49386W        W16169  17.278  34.509   0.782
49387W        W16170  42.268  34.599  14.284
49388W        W16171  37.073  29.512  13.018
49389W        W16172  19.813  29.843  13.250
49390W        W16173  42.610  41.507  14.781
49391W        W16174  24.502  11.672  10.343
49392W        W16175  32.205   9.128   4.903
49393W        W16176   9.364  39.372  11.170
49394W        W16177  17.750  14.067   1.570
49395W        W16178   5.988  28.560   3.291
49396W        W16179  27.230  39.551   2.894
49397W        W16180  31.381  35.347   0.397
49398W        W16181  26.647  34.877   2.660
49399W        W16182  22.648  10.297  12.911
49400W        W16183   1.065  31.185   2.622
49401W        W16184  16.637  34.524  14.543
49402W        W16185  36.874  26.456   2.869
49403W        W16186  28.389  39.212  10.701
49404W        W16187  18.844  35.481   3.691
49405W        W16188  32.217   4.231  12.660
49406W        W16189  39.848  43.526  12.586
49407W        W16190  39.533  28.233  10.728
49408W        W16191  24.249  17.842   3.205
49409W        W16192  12.264  22.202   4.107
49410W        W16193  17.668  40.419  11.772
49411W        W16194  16.175  24.031  14.403
49412W        W16195   1.019  10.067   0.022
49413W        W16196  12.760  21.566   3.924
49414W        W16197  14.140  37.038  11.997
49415W        W16198  40.815  27.417   1.365
49416W        W16199  17.345  22.976   4.266
49417W        W16200  41.228  28.492   3.645
49418W        W16201  43.525  43.946  14.767
49419W        W16202  37.081   0.140   1.861
49420W        W16203  40.457  23.711  11.494
49421W        W16204   3.777  42.561   3.631
49422W        W16205  35.549  14.201  11.078
49423W        W16206  42.486  12.966  10.785
49424W        W16207  28.052  16.284   3.110
49425W        W16208  41.337  27.198  11.944
49426W        W16209  43.394  10.123  10.611
49427W        W16210  31.969  23.469  11.153
49428W        W16211   5.236  30.507  13.355
49429W        W16212   7.681  29.816  14.438
49430W        W16213   2.010  27.601  11.576
49431W        W16214   6.045  21.220  13.585
49432W        W16215  24.710  39.324  11.103
49433W        W16216  22.548  12.737   3.707
49434W        W16217   2.171   5.023  12.843
49435W        W16218  41.437  27.270  13.099
49436W        W16219  17.193  35.263   3.298
49437W        W16220   3.647  21.410   0.455
49438W        W16221  37.974  26.937   1.257
49439W        W16222  24.202  24.148  12.153
49440W        W16223  21.129  37.313   3.705
49441W        W16224  19.934  18.543  10.824
49442W        W16225   7.901  20.509   0.912
49443W        W16226  13.967  39.226   5.219
49444W        W16227  39.394  15.578   1.806
49445W        W16228  41.871  19.040   3.176
49446W        W16229  38.463   3.788   1.149
49447W        W16230  37.025  22.806  14.969
49448W        W16231  11.803  18.803   3.126
49449W        W16232  28.620   2.338   3.211
49450W        W16233  41.472  32.230   3.661
49451W        W16234  19.800  10.536  12.892
49452W        W16235  12.900   3.920   4.463
49453W        W16236   3.952  19.648   4.721
49454W        W16237   3.523  35.388  12.980
49455W        W16238  32.564  30.945   4.680
49456W        W16239   0.831   0.347  14.675
49457W        W16240  41.345  44.055  14.744
49458W        W16241   0.575  43.271   2.069
49459W        W16242  23.460  35.954   2.610
49460W        W16243  17.512  39.511  13.052
49461W        W16244  14.791  10.790   4.223
49462W        W16245   6.164  40.490   2.734
49463W        W16246  39.568  21.681  10.669
49464W        W16247  20.747   0.227   4.153
49465W        W16248  34.404   2.985   0.301
49466W        W16249  15.856  34.883  12.508
49467W        W16250  37.343   9.251  13.392
49468W        W16251  22.915   1.239  14.962
49469W        W16252  19.578   8.863  10.534
49470W        W16253  14.366  16.218   1.035
49471W        W16254  32.571  23.546   3.515
49472W        W16255   3.256  20.076   0.436
49473W        W16256   2.528  40.523   2.292
49474W        W16257  34.897  34.920  12.571
49475W        W16258  42.828   7.837  11.629
49476W        W16259  37.888  21.017   0.904
49477W        W16260  37.567  15.315  13.815
49478W        W16261  41.214  40.950  12.816
49479W        W16262  19.965  10.030   3.330
49480W        W16263   0.240   3.658  13.644
49481W        W16264  19.337  40.315   0.294
49482W        W16265   8.426  44.309  13.625
49483W        W16266  44.408  21.329   3.661
49484W        W16267  19.985  44.556  11.917
49485W        W16268  24.454  16.390  11.957
49486W        W16269   9.863  32.096  11.556
49487W        W16270  32.118  28.719   3.642
49488W        W16271  30.054  29.315  14.035
49489W        W16272  41.663  21.552  11.957
49490W        W16273  31.161  14.173  13.179
49491W        W16274   3.976   9.904   0.971
49492W        W16275  21.743  41.201   2.251
49493W        W16276  33.051  12.581  11.100
49494W        W16277  21.925   9.390   3.143
49495W        W16278  28.159   2.454  10.864
49496W        W16279   3.803  43.399   3.245
49497W        W16280   9.244  39.227   0.042
49498W        W16281  12.816   3.551   4.839
49499W        W16282   1.780   8.416  12.544
49500W        W16283  22.246  34.149   1.647
49501W        W16284   3.754  16.023   4.368
49502W        W16285  16.197  33.885  13.906
49503W        W16286  18.645  34.605  11.130
49504W        W16287  24.658  18.643  11.288
49505W        W16288  37.454  32.449   2.662
49506W        W16289  30.133  44.843  10.778
49507W        W16290  34.935  28.406  10.636
49508W        W16291  18.072  36.553   2.291
49509W        W16292  15.061  17.425   2.741
49510W        W16293  32.334  25.444   3.168
49511W        W16294   3.394  34.132   0.238
49512W        W16295  40.909  19.179   4.070
49513W        W16296   0.436   9.587  14.450
49514W        W16297   0.128   9.851  12.021
49515W        W16298  30.670  26.038   0.399
49516W        W16299  20.770   2.200   0.349
49517W        W16300  17.781  36.964   4.299
49518W        W16301   9.409   3.123   4.555
49519W        W16302  10.923  26.240   1.890
49520W        W16303  34.504  19.059   4.532
49521W        W16304  41.818  40.414  11.301
49522W        W16305  20.633  44.056   2.265
49523W        W16306  13.150  17.010  11.827
49524W        W16307  28.943   3.139   4.091
49525W        W16308   0.903  37.026   4.605
49526W        W16309  24.554  28.242  10.220
49527W        W16310  41.412  28.700  11.194
49528W        W16311  27.921  12.944   0.841
49529W        W16312  42.864  13.205   0.448
49530W        W16313  27.729   9.047  13.343
49531W        W16314   8.936   0.294   3.752
49532W        W16315  13.094  16.796   4.562
49533W        W16316  23.554   3.316  12.054
49534W        W16317   4.285  26.841  13.906
49535W        W16318  41.419  19.648  11.864
49536W        W16319   6.869   6.239  14.951
49537W        W16320   7.847  36.414   0.503
49538W        W16321  32.235  28.948   5.032
49539W        W16322   4.450  13.087  13.052
49540W        W16323  32.946   8.675   1.619
49541W        W16324  41.959  17.576  11.016
49542W        W16325  20.124  22.547   2.310
49543W        W16326  43.984  21.762  12.343
49544W        W16327  20.372  34.062  11.187
49545W        W16328   6.379  21.259  11.225
49546W        W16329  34.414  37.080  13.354
49547W        W16330  29.769  41.320  10.367
49548W        W16331  33.729  15.766   1.273
49549W        W16332  17.915   7.432  10.652
49550W        W16333  37.291  30.517  11.564
49551W        W16334  28.438  21.787   1.433
49552W        W16335  30.014   7.300  14.785
49553W        W16336  23.140  39.180  14.528
49554W        W16337  25.131  29.371  14.817
49555W        W16338   8.135  40.705   2.632
49556W        W16339  43.789   6.533   0.176
49557W        W16340  31.028  30.424  11.561
49558W        W16341  13.863  18.180   2.781
49559W        W16342   2.849  20.064  14.625
49560W        W16343  40.265  34.728  13.977
49561W        W16344  12.208  16.533   3.974
49562W        W16345   7.156  35.643  13.475
49563W        W16346  32.962  26.101   0.948
49564W        W16347   6.913   9.489   2.254
49565W        W16348  21.367   9.830  13.450
49566W        W16349  18.955  30.736  12.517
49567W        W16350  32.700  18.118   4.519
49568W        W16351  29.112   2.719   0.994
49569W        W16352  25.035  28.857  14.929
49570W        W16353  42.104  20.684  11.470
49571W        W16354   9.098   8.632   0.457
49572W        W16355  41.579   7.807  14.900
49573W        W16356  15.488  40.433   3.440
49574W        W16357  44.232  24.423  14.307
49575W        W16358  30.312  25.244   3.095
49576W        W16359  44.881  30.087   2.954
49577W        W16360  24.572   4.027  11.231
49578W        W16361   1.335  28.966  10.968
49579W        W16362  11.335  15.713   4.609
49580W        W16363  37.112  37.519   2.336
49581W        W16364  31.071  19.691   4.469
49582W        W16365  25.444  37.445  10.729
49583W        W16366  20.202  29.914   1.283
49584W        W16367   0.256  41.562   4.532
49585W        W16368  10.734  36.402   2.348
49586W        W16369   5.634   7.122   1.374
49587W        W16370   2.074  34.378   2.829
49588W        W16371  28.150  33.622  10.160
49589W        W16372  33.845  27.377  14.072
49590W        W16373  32.189  33.138   1.334
49591W        W16374   9.616  43.963   2.271
49592W        W16375  38.507  42.011   2.457
49593W        W16376  29.543  22.646   5.072
49594W        W16377  12.634  33.028  11.549
49595W        W16378  14.167  38.947  14.065
49596W        W16379  15.824  29.276   3.302
49597W        W16380  27.169  13.080  12.525
49598W        W16381  18.179  25.166  12.857
49599W        W16382  27.445  38.664   2.897
49600W        W16383  20.353  14.382   2.152
49601W        W16384  44.840  14.232  13.836
49602W        W16385  14.318  15.574  12.484
49603W        W16386  21.110   5.537   2.415
49604W        W16387  13.181  31.209  13.076
49605W        W16388  40.548  15.348  11.972
49606W        W16389  16.523   9.012  14.289
49607W        W16390  25.632  36.308  11.120
49608W        W16391  30.774  25.965  12.110
49609W        W16392  36.550  17.240   1.313
49610W        W16393  43.784  42.733   1.675
49611W        W16394   8.821   3.335  13.711
49612W        W16395  12.258  33.655   3.239
49613W        W16396  37.851  21.731  14.786
49614W        W16397  26.598   1.822   4.658
49615W        W16398  31.846  33.467   2.227
49616W        W16399  44.254  44.433  14.913
49617W        W16400  36.332  28.449  11.472
49618W        W16401   9.161  19.517   1.163
49619W        W16402  12.758  14.425   3.113
49620W        W16403  29.944  23.226   2.280
49621W        W16404  13.828  34.849   4.095
49622W        W16405  21.053  39.872  10.571
49623W        W16406   2.912  28.224  11.999
49624W        W16407  34.667   4.133   4.337
49625W        W16408  42.026  39.832   1.722
49626W        W16409   5.688  15.759   0.874
49627W        W16410  20.278  23.222  10.792
49628W        W16411   1.020  37.588   3.174
49629W        W16412  22.541  35.038  10.699
49630W        W16413  21.701  22.790  12.900
49631W        W16414  42.285  17.096   4.849
49632W        W16415   5.434  28.673  13.818
49633W        W16416  31.049   0.053  12.491
49634W        W16417   8.053  23.538   3.290
49635W        W16418  37.868   2.312   3.167
49636W        W16419   2.934   3.907  11.532
49637W        W16420  35.802  43.591  11.091
49638W        W16421  22.360  32.046   2.309
49639W        W16422  14.981   6.274  12.775
49640W        W16423  30.632  20.064   1.349
49641W        W16424   6.222  14.804   4.759
49642W        W16425   9.902  17.240   4.560
49643W        W16426  29.985  34.164  12.489
49644W        W16427  34.575  10.410   4.887
49645W        W16428  19.844   8.483  12.023
49646W        W16429  16.388   0.556   4.070
49647W        W16430   7.660   3.285  13.399
49648W        W16431  44.562  44.759  11.465
49649W        W16432  44.293   2.376   4.779
49650W        W16433  34.323  39.922   1.634
49651W        W16434  34.859  22.548  12.056
49652W        W16435  10.672  10.767  10.491
49653W        W16436  37.514  38.169   3.507
49654W        W16437  19.750  41.392   2.230
49655W        W16438   2.920  14.299  11.569
49656W        W16439   2.931   3.451   4.125
49657W        W16440  16.151  38.108  11.572
49658W        W16441  22.022   8.278   0.199
49659W        W16442  40.586  20.538  11.976
49660W        W16443  39.325  12.733   4.138
49661W        W16444  23.241   4.839  14.387
49662W        W16445   7.391  30.188  12.554
49663W        W16446   7.473   0.786  13.797
49664W        W16447   8.440  14.693  14.025
49665W        W16448  18.245   6.799  14.510
49666W        W16449  30.856  37.880  14.964
49667W        W16450  38.841  24.588   1.048
49668W        W16451  37.462   6.195  12.099
49669W        W16452  36.954  30.967  11.058
49670W        W16453  39.942   7.972   3.786
49671W        W16454   9.701  13.054   3.280
49672W        W16455  16.641  30.910  14.536
49673W        W16456   9.626   6.016   1.028
49674W        W16457   1.798  38.991   3.659
49675W        W16458  30.319  26.432  10.647
49676W        W16459  11.323  39.593   4.229
49677W        W16460  16.384   4.307   1.316
49678W        W16461  16.731  31.599  11.139
49679W        W16462  23.042  20.457  13.829
49680W        W16463  12.170  39.378   0.017
49681W        W16464  10.392  34.173  14.747
49682W        W16465  40.740   5.113   2.760
49683W        W16466  21.058  21.732   4.551
49684W        W16467  25.986  39.284   1.775
49685W        W16468  20.926  15.245   5.017
49686W        W16469  20.790  17.583   3.156
49687W        W16470   2.916  35.664  11.720
49688W        W16471   4.359   4.238  12.947
49689W        W16472   6.809  44.758  13.521
49690W        W16473   4.317   3.467   0.125
49691W        W16474  38.043  17.062   1.505
49692W        W16475  23.225  35.404  10.659
49693W        W16476  20.337  17.803  11.126
49694W        W16477  32.491  16.585  14.004
49695W        W16478  26.009  33.261   3.199
49696W        W16479  36.787  26.612   0.953
49697W        W16480   0.039  34.578   1.941
49698W        W16481   1.534  20.035   1.660
49699W        W16482   3.849  18.154   0.429
49700W        W16483   3.398   9.093  14.423
49701W        W16484  27.950  35.493  11.212
49702W        W16485  43.613   9.402  11.697
49703W        W16486  17.723  17.175  11.384
49704W        W16487  27.163  24.164   1.958
49705W        W16488  10.452  17.139  14.537
49706W        W16489   0.537   2.721  14.925
49707W        W16490  11.159  29.043  12.528
49708W        W16491  21.555  30.748   0.046
49709W        W16492  18.169  40.544   3.663
49710W        W16493   4.954  22.153  11.499
49711W        W16494   0.448  16.423  10.142
49712W        W16495   9.987   2.033  11.121
49713W        W16496  39.525  34.416  14.511
49714W        W16497  25.006  16.336   3.255
49715W        W16498  39.958  22.578   2.128
49716W        W16499  25.087   8.302  11.176
49717W        W16500   6.200  25.049   4.594
49718W        W16501  24.589  24.483   1.681
49719W        W16502  11.083  21.017  10.470
49720W        W16503  24.734  27.762   3.725
49721W        W16504  11.249  38.966  10.329
49722W        W16505  29.922  20.511  12.273
49723W        W16506   1.856  40.051  12.311
49724W        W16507  36.147  20.460   3.880
49725W        W16508  43.506   6.996  10.712
49726W        W16509  26.666   3.873   3.667
49727W        W16510  16.646   1.036   1.184
49728W        W16511   9.736   7.431   2.066
49729W        W16512  36.756   0.800  14.258
49730W        W16513  42.911  28.620   4.408
49731W        W16514  16.536  34.589   3.625
49732W        W16515  37.902  22.302  13.765
49733W        W16516  28.929  11.596   2.758
49734W        W16517  38.464  23.056  12.593
49735W        W16518  35.942  18.677   2.201
49736W        W16519  22.470  10.299   1.564
49737W        W16520   4.604  18.692   2.892
49738W        W16521  42.103  13.684   0.268
49739W        W16522  44.624   4.773  11.959
49740W        W16523  14.556   2.471  13.894
49741W        W16524  35.982  30.595   0.740
49742W        W16525   3.369   3.577  13.665
49743W        W16526  15.103  33.211  12.620
49744W        W16527  35.942  31.827   0.215
49745W        W16528  26.000  16.528  13.914
49746W        W16529  32.875   3.492   1.521
49747W        W16530   8.374  30.665  12.812
49748W        W16531   5.284  21.363  14.739
49749W        W16532  38.284  14.523  12.895
49750W        W16533  19.746  14.544   0.639
49751W        W16534  16.580  34.599   2.284
49752W        W16535   4.089  16.553  11.699
49753W        W16536  42.485  43.756   0.318
49754W        W16537  24.767  26.727   3.686
49755W        W16538  14.179  36.044   0.774
49756W        W16539  38.974   1.867   1.440
49757W        W16540  43.328  13.602  12.343
49758W        W16541  39.146  29.656  13.873
49759W        W16542  16.390  19.495   3.868
49760W        W16543  44.581   7.729   2.694
49761W        W16544   0.491  16.288   5.057
49762W        W16545  38.225  21.038  14.818
49763W        W16546   6.717  20.955  13.036
49764W        W16547  41.330   1.563   2.960
49765W        W16548   0.124  22.024  10.604
49766W        W16549   0.904  26.215   1.364
49767W        W16550  20.310  13.030  12.022
49768W        W16551   7.540  34.173   0.307
49769W        W16552  29.023  28.500   4.355
49770W        W16553  37.462  15.796   0.414
49771W        W16554  35.109  29.476  13.759
49772W        W16555  10.621  10.704  12.014
49773W        W16556  14.757  22.176  14.997
49774W        W16557  42.013   8.560   1.359
49775W        W16558  11.764   1.683  11.281
49776W        W16559  24.691  21.402  14.451
49777W        W16560   8.518   0.827  10.798
49778W        W16561  29.695  17.546   4.099
49779W        W16562  17.204  44.305  14.739
49780W        W16563  39.939   4.523   0.285
49781W        W16564   0.560  16.915  10.021
49782W        W16565   9.247  23.475   0.358
49783W        W16566  29.385  41.440  14.182
49784W        W16567   1.781  27.928  12.992
49785W        W16568  10.556  25.216   3.080
49786W        W16569   0.976  37.063  13.986
49787W        W16570   6.255  39.619  14.317
49788W        W16571  21.235  25.733   1.094
49789W        W16572  44.280  35.634  14.308
49790W        W16573  30.178  31.439   3.210
49791W        W16574   5.796  30.385   3.770
49792W        W16575  10.700  41.745  14.752
49793W        W16576  44.220  30.642   0.897
49794W        W16577   3.901   6.204  10.686
49795W        W16578  36.501  17.801  11.583
49796W        W16579   7.395  18.710  11.776
49797W        W16580   0.041  15.230  14.871
49798W        W16581  31.607  30.246   1.809
49799W        W16582  30.056  39.579  10.855
49800W        W16583  25.451  28.578   3.112
49801W        W16584   6.704  23.232   1.222
49802W        W16585  31.196  29.153   3.616
49803W        W16586  18.448  43.349   0.862
49804W        W16587  13.874   7.178   2.353
49805W        W16588  28.539  18.186   0.063
49806W        W16589  44.569   6.617   2.207
49807W        W16590   9.405   9.282  11.751
49808W        W16591  26.430   6.651   2.715
49809W        W16592  27.143  29.023   1.259
49810W        W16593  22.512  24.214  13.406
49811W        W16594  26.716  30.662   4.605
49812W        W16595  31.638  13.168  12.502
49813W        W16596  31.606  34.458   4.052
49814W        W16597   3.804   5.825   3.396
49815W        W16598  32.237  29.708   2.997
49816W        W16599   4.657  44.008   1.832
49817W        W16600  14.751  32.444  14.811
49818W        W16601  40.174   6.825   1.686
49819W        W16602  11.277  25.284   1.652
49820W        W16603  27.491   0.317   3.265
49821W        W16604  37.134  20.484   0.761
49822W        W16605  22.664  26.099  11.118
49823W        W16606  14.711   9.044  11.128
49824W        W16607  39.076  31.679   1.642
49825W        W16608  15.201   0.688  12.996
49826W        W16609  32.543  20.542   1.383
49827W        W16610  17.681  16.829  13.572
49828W        W16611  42.336   3.265   0.021
49829W        W16612   5.306  29.159   4.092
49830W        W16613  34.952  30.627   3.150
49831W        W16614  21.282   9.361   0.258
49832W        W16615  29.621   3.733   4.914
49833W        W16616   0.555  16.148   1.372
49834W        W16617   7.808  42.265  14.410
49835W        W16618  14.570  23.621   0.816
49836W        W16619  19.972  14.148  14.354
49837W        W16620  41.439  39.376   4.536
49838W        W16621   6.457  33.315   3.299
49839W        W16622  41.027  16.699   3.175
49840W        W16623   4.028  37.911   3.389
49841W        W16624  34.935  37.240   2.818
49842W        W16625  40.097  31.975  13.588
49843W        W16626  31.769  21.593  12.958
49844W        W16627  43.568   0.849  10.676
49845W        W16628   6.783  25.581   4.115
49846W        W16629   0.742   7.211  13.453
49847W        W16630  26.118  32.142   0.897
49848W        W16631  27.511  42.338   4.602
49849W        W16632  41.310   3.124   2.717
49850W        W16633  40.869   9.900   2.179
49851W        W16634  19.272  39.727  12.821
49852W        W16635  22.116  25.449   4.184
49853W        W16636  14.169  27.183   4.167
49854W        W16637  29.359  25.052  14.270
49855W        W16638  29.868   0.289  10.624
49856W        W16639  23.120  36.803   3.602
49857W        W16640   5.393  40.362   0.920
49858W        W16641  32.176  27.928   5.292
49859W        W16642  17.063  44.969   3.337
49860W        W16643  30.230  19.433  11.841
49861W        W16644  25.029   3.290   0.285
49862W        W16645  21.832  37.560   2.170
49863W        W16646  12.772   6.617   3.068
49864W        W16647  39.275  33.150  12.017
49865W        W16648  24.910  29.915   2.264
49866W        W16649  26.059  25.153  14.085
49867W        W16650  17.536  28.416   1.744
49868W        W16651  18.013  29.555   3.320
49869W        W16652  25.534  22.087  11.265
49870W        W16653  19.553  35.039   1.718
49871W        W16654  42.123   1.765  13.500
49872W        W16655  12.102  32.068   1.663
49873W        W16656  12.382  17.578   2.415
49874W        W16657  20.804  14.233   2.426
49875W        W16658  34.444   7.037   3.167
49876W        W16659  36.075   4.262  11.793
49877W        W16660   1.619  34.887   4.605
49878W        W16661  26.097  22.898  11.784
49879W        W16662  23.292  33.482  13.523
49880W        W16663  22.337  19.898  14.394
49881W        W16664   9.563  11.865  14.069
49882W        W16665   6.098  24.627   4.311
49883W        W16666  39.055  28.043  13.348
49884W        W16667  27.594  44.092  13.730
49885W        W16668  44.684  44.907  12.887
49886W        W16669  16.616  30.411  14.417
49887W        W16670  23.542   9.709  14.730
49888W        W16671  28.513  26.082  14.655
49889W        W16672  41.144  33.488   3.459
49890W        W16673   1.477  15.343  12.358
49891W        W16674  15.298  38.224  12.460
49892W        W16675   9.891   3.248  13.400
49893W        W16676  39.495  20.061   3.154
49894W        W16677  35.562   3.669   2.677
49895W        W16678  11.879  37.301   4.966
49896W        W16679   2.352  17.986  14.845
49897W        W16680  34.094  12.558   0.378
49898W        W16681  14.274  40.410  10.495
49899W        W16682   8.863   2.442   5.028
49900W        W16683  39.424   2.235   4.684
49901W        W16684   9.385  12.936   0.836
49902W        W16685  40.347  38.786   1.836
49903W        W16686  33.547  20.617   0.370
49904W        W16687   7.180  28.625   0.928
49905W        W16688  40.135   8.737  10.902
49906W        W16689  16.158  21.062   1.234
49907W        W16690  31.607  37.820  10.678
49908W        W16691  21.992  10.967  12.385
49909W        W16692  37.756   4.802  12.607
49910W        W16693   3.210  20.730   3.682
49911W        W16694   6.209  27.963  13.437
49912W        W16695  16.409   1.391   2.893
49913W        W16696  32.713  12.859   3.278
49914W        W16697   2.034  33.870   1.359
49915W        W16698  32.578  41.484   0.179
49916W        W16699  10.126   1.526   0.980
49917W        W16700  18.829   4.938  11.737
49918W        W16701   0.764   6.175  12.145
49919W        W16702   7.821   2.946  12.477
49920W        W16703  27.023  33.901  14.467
49921W        W16704   3.208  32.854   4.139
49922W        W16705   7.704  18.650   3.251
49923W        W16706  14.846  35.770   5.462
49924W        W16707   0.361  38.905   4.532
49925W        W16708  12.125   3.765  14.354
49926W        W16709  32.208  26.484  12.916
49927W        W16710  27.959  29.151  11.525
49928W        W16711  33.608  26.170   3.389
49929W        W16712  34.366  26.010   0.858
49930W        W16713   0.660  36.769   2.925
49931W        W16714  12.065  27.474   4.612
49932W        W16715  16.758  20.791  12.860
49933W        W16716  24.651  44.875   0.838
49934W        W16717   3.391  17.004   5.022
49935W        W16718  30.159  44.727  13.873
49936W        W16719  38.637  26.518  14.815
49937W        W16720  20.748  15.366  14.454
49938W        W16721  32.542  41.773   3.069
49939W        W16722   6.281   2.551   0.373
49940W        W16723  42.248  30.017   1.635
49941W        W16724  43.113  17.266   1.633
49942W        W16725  28.655  35.922  12.143
49943W        W16726  38.133  41.394  11.736
49944W        W16727   3.897   6.654  11.462
49945W        W16728  26.232  29.760  14.333
49946W        W16729  26.400  19.704   4.740
49947W        W16730  39.966   1.840   0.659
49948W        W16731   6.230  18.083   4.343
49949W        W16732  20.217  19.561   3.095
49950W        W16733  29.422  35.580  11.083
49951W        W16734  41.355  30.101   0.878
49952W        W16735  19.320  30.931   0.949
49953W        W16736  36.597  11.372   0.630
49954W        W16737  32.465  26.657   0.416
49955W        W16738   3.564  25.761  11.312
49956W        W16739  34.835  41.671   3.981
49957W        W16740  15.049  37.520   2.049
49958W        W16741  26.565  13.656  14.929
49959W        W16742  41.228   9.230  10.223
49960W        W16743  24.079  32.364   3.368
49961W        W16744  41.739  43.875   4.506
49962W        W16745  43.356  40.076  13.109
49963W        W16746   6.999  28.464  14.390
49964W        W16747  44.149  22.175  13.717
49965W        W16748   6.801  21.745   1.374
49966W        W16749  44.974   8.874  13.450
49967W        W16750  38.733  38.459  11.645
49968W        W16751  38.310  31.483   0.493
49969W        W16752  22.282  23.175   3.144
49970W        W16753  11.912   8.050  12.580
49971W        W16754  17.157  13.420  13.370
49972W        W16755  19.750  14.800  12.403
49973W        W16756  43.053   0.221  11.472
49974W        W16757  25.941  12.897  12.863
49975W        W16758   6.936  13.673   3.114
49976W        W16759  41.818  27.059   4.369
49977W        W16760  22.425  35.019   3.190
49978W        W16761   1.673  35.422   2.168
49979W        W16762  25.734   6.687   1.479
49980W        W16763  12.321  21.210  12.650
49981W        W16764  26.054  16.739   3.586
49982W        W16765  27.747   9.671   4.173
49983W        W16766  15.670   0.641  13.436
49984W        W16767   1.975   2.775   2.643
49985W        W16768   3.527  23.869   2.323
49986W        W16769  30.605  37.610  13.474
49987W        W16770  35.369  11.346   0.387
49988W        W16771   6.710  16.370  13.067
49989W        W16772   9.861  38.537  10.421
49990W        W16773  37.500   9.459   4.069
49991W        W16774   4.414  26.985   2.748
49992W        W16775  16.786  43.456  14.356
49993W        W16776  44.492  23.473   1.758
49994W        W16777   1.421  40.993   4.055
49995W        W16778  14.156  35.492   2.374
49996W        W16779   6.578   3.785   0.949
49997W        W16780   1.363  15.242  11.444
49998W        W16781  13.772  10.139  10.935
49999W        W16782  26.189   1.939  13.577
50000W        W16783  19.498  14.118   0.760
50001W        W16784   4.748   3.927   3.076
50002W        W16785  22.624   4.811   3.919
50003W        W16786   0.713  29.993   1.269
50004W        W16787   6.876   9.694  13.546
50005W        W16788  18.678  23.582  14.961
50006W        W16789  31.161  18.249   4.111
50007W        W16790  38.537  27.546  13.029
50008W        W16791  21.177  36.578   0.855
50009W        W16792   3.231  13.213   2.639
50010W        W16793  36.369  10.798  11.756
50011W        W16794  24.353  14.766   1.448
50012W        W16795   4.100  25.971   0.395
50013W        W16796  41.531  17.322   0.465
50014W        W16797  17.880  43.459   4.861
50015W        W16798  33.837  41.131  10.261
50016W        W16799  42.404  28.550  13.581
50017W        W16800  41.416  36.792  14.064
50018W        W16801  23.096   6.808  11.817
50019W        W16802  40.358   2.403  11.157
50020W        W16803   1.583  34.941  13.213
50021W        W16804   2.198  36.840   3.706
50022W        W16805  16.151  17.602  13.641
50023W        W16806  35.184   0.185   0.729
50024W        W16807  10.723   7.242  14.968
50025W        W16808  29.689   2.967  13.391
50026W        W16809  23.323  31.056   2.304
50027W        W16810  32.856  12.829  12.377
50028W        W16811  36.887  24.973   0.511
50029W        W16812   5.595  26.042  11.268
50030W        W16813  12.078  23.506  13.861
50031W        W16814  42.703  10.261   4.465
50032W        W16815   6.375  33.469  10.956
50033W        W16816  29.076  24.515  13.964
50034W        W16817   9.913  19.034   4.201
50035W        W16818  15.314   9.433   1.326
50036W        W16819  35.704  26.967   3.257
50037W        W16820  23.716   5.967  10.026
50038W        W16821  23.309  44.931   2.721
50039W        W16822  15.564   9.578  11.209
50040W        W16823  26.399  38.463  11.519
50041W        W16824   9.961  13.955   4.910
50042W        W16825  39.380   8.498   1.213
50043W        W16826  26.408  13.444  14.469
50044W        W16827   8.161  43.509  11.714
50045W        W16828  29.383   5.830   4.601
50046W        W16829  42.361   2.989  14.169
50047W        W16830  23.605  41.830  14.186
50048W        W16831   3.867  14.604  12.370
50049W        W16832   4.757  37.358  12.396
50050W        W16833   0.549  22.992   4.021
50051W        W16834   2.318  43.226   2.683
50052W        W16835  27.695  25.475   0.735
50053W        W16836  43.184  35.947  11.113
50054W        W16837  23.144  44.961   3.218
50055W        W16838  23.240  33.506   2.170
50056W        W16839   9.752  30.656  13.087
50057W        W16840  33.525  33.144   3.177
50058W        W16841  17.688  23.686   4.627
50059W        W16842   4.435  33.640  11.985
50060W        W16843  34.567   8.402  14.630
50061W        W16844   6.986  29.214  11.124
50062W        W16845  20.707  17.545  13.882
50063W        W16846  38.065  12.658   1.820
50064W        W16847  31.356  13.252  11.722
50065W        W16848  14.358  30.534   3.772
50066W        W16849   8.219  39.307  12.402
50067W        W16850  36.157  36.386   3.260
50068W        W16851   4.737  39.999   3.884
50069W        W16852  11.866  43.331  13.907
50070W        W16853  13.276  20.526   0.833
50071W        W16854  36.456   3.702  14.426
50072W        W16855  15.012  15.899   3.767
50073W        W16856   9.222   0.087  14.836
50074W        W16857  26.203  43.893   0.496
50075W        W16858   9.298   6.768  14.439
50076W        W16859  24.306  25.545   0.804
50077W        W16860  40.745   5.192   0.977
50078W        W16861  44.005  11.800   0.015
50079W        W16862  13.149  12.212   2.322
50080W        W16863   6.004  24.254  12.370
50081W        W16864  39.486  19.289  12.375
50082W        W16865   8.170  22.731  11.766
50083W        W16866  15.115   9.864   3.197
50084W        W16867  40.943  15.039  12.075
50085W        W16868   8.043  40.182   2.654
50086W        W16869   5.607  31.178   3.528
50087W        W16870  22.244  24.630   0.353
50088W        W16871  22.795  33.275  11.096
50089W        W16872  27.213   4.912  10.768
50090W        W16873   0.842  19.943   5.192
50091W        W16874  39.624  17.250  12.662
50092W        W16875  18.921  33.851   2.821
50093W        W16876  22.815  25.201  12.565
50094W        W16877   1.136   3.728   3.246
50095W        W16878  43.713  12.139  14.758
50096W        W16879   8.766  36.989   3.696
50097W        W16880  41.134   3.904   4.525
50098W        W16881   9.316   0.637  11.746
50099W        W16882  15.848  32.558   0.800
50100W        W16883  23.497   2.061   1.021
50101W        W16884  18.042  20.102  12.871
50102W        W16885  41.312  24.007  11.057
50103W        W16886  11.787  37.246   0.787
50104W        W16887   9.495  18.121  13.342
50105W        W16888  13.007  38.022   0.117
50106W        W16889  36.414  12.366  10.682
50107W        W16890  24.153  44.824   0.031
50108W        W16891  17.867  35.329   9.639
50109W        W16892  28.089  38.779  12.948
50110W        W16893  41.747  17.101  10.916
50111W        W16894  18.719  40.726  11.015
50112W        W16895  27.945  21.327  13.305
50113W        W16896  33.939  27.038  12.042
50114W        W16897  44.480  28.622  12.934
50115W        W16898  17.245   4.770  12.443
50116W        W16899  27.643  15.099  11.076
50117W        W16900  39.778   3.793  11.973
50118W        W16901   9.683  16.710   4.543
50119W        W16902  35.061  40.284  12.948
50120W        W16903  34.124  12.709  12.887
50121W        W16904  26.998  26.559   4.866
50122W        W16905  18.299  10.180  12.578
50123W        W16906  26.455  23.217   1.241
50124W        W16907  23.059   6.871  11.305
50125W        W16908  14.310  30.449  14.389
50126W        W16909  12.343  30.645  14.310
50127W        W16910  25.580  36.503   1.410
50128W        W16911  37.111  21.648   3.322
50129W        W16912  39.862  29.391  12.795
50130W        W16913  33.729  30.664   3.788
50131W        W16914   5.735  30.006   3.121
50132W        W16915  27.300  29.808   0.004
50133W        W16916  17.324  41.309  13.403
50134W        W16917   9.678  13.821  14.923
50135W        W16918  32.279   3.339  14.388
50136W        W16919  20.095   1.189  13.641
50137W        W16920  16.830  23.597  10.753
50138W        W16921  14.395  12.314  11.876
50139W        W16922  42.862   6.081   9.786
50140W        W16923  33.956   7.110   2.380
50141W        W16924  33.344  41.494  14.272
50142W        W16925  27.006   2.630  14.397
50143W        W16926  20.045   7.241  10.597
50144W        W16927  28.989  34.327  11.177
50145W        W16928  35.044  28.749  12.099
50146W        W16929  18.187  24.157  14.561
50147W        W16930   3.779  28.967  13.091
50148W        W16931  33.052  32.751  13.930
50149W        W16932  12.371  14.096   2.557
50150W        W16933   0.765  13.870  11.407
50151W        W16934  15.724  32.428   4.486
50152W        W16935  13.790   3.805   3.844
50153W        W16936  31.365  22.166   3.241
50154W        W16937  24.614  10.535   1.318
50155W        W16938  17.832  41.348  11.678
50156W        W16939  41.517   4.859  14.945
50157W        W16940  13.524  34.101   4.781
50158W        W16941  28.597  42.039  12.382
50159W        W16942  44.548  41.039   4.659
50160W        W16943  44.729  28.682  14.357
50161W        W16944  37.093  13.422  12.029
50162W        W16945  40.023  35.624  14.970
50163W        W16946   1.393   2.529   0.766
50164W        W16947  14.815   9.809   9.443
50165W        W16948   7.918  33.986  13.456
50166W        W16949  11.194   8.300  10.459
50167W        W16950  10.326  22.609   2.787
50168W        W16951  39.804  42.288  14.794
50169W        W16952  27.174   1.230  11.677
50170W        W16953   1.139  42.921  11.330
50171W        W16954  11.588  15.360  10.593
50172W        W16955  17.344  29.510  14.994
50173W        W16956  11.580  39.853   1.921
50174W        W16957   2.182  35.456   3.674
50175W        W16958  23.891  39.862   9.826
50176W        W16959  17.132   7.815  10.652
50177W        W16960  33.331  37.585   1.427
50178W        W16961  37.877  25.503  11.156
50179W        W16962  39.870  29.379  14.293
50180W        W16963  34.971  10.082  13.001
50181W        W16964  28.326   9.715  11.360
50182W        W16965   7.812   5.559   0.850
50183W        W16966  21.751  31.432   3.401
50184W        W16967  32.600   6.390  14.447
50185W        W16968  43.940  44.240   3.395
50186W        W16969  25.734  10.810   0.505
50187W        W16970  22.694  39.898  14.727
50188W        W16971  24.017  38.447   1.715
50189W        W16972  40.231  12.736  14.769
50190W        W16973  34.483   5.095   4.527
50191W        W16974  32.665  26.661  12.831
50192W        W16975  14.144  30.661   0.759
50193W        W16976   5.278  21.524   0.234
50194W        W16977  30.153  40.483   1.366
50195W        W16978  16.737  41.921  11.493
50196W        W16979  17.591  32.058   2.394
50197W        W16980   4.005  11.171   1.887
50198W        W16981  41.438  33.932   3.407
50199W        W16982  34.859  38.388  13.795
50200W        W16983  10.968  32.674   3.285
50201W        W16984  33.346   8.905  13.487
50202W        W16985  36.368  12.255  14.792
50203W        W16986  10.180  13.839   3.086
50204W        W16987  23.686  36.312  14.896
50205W        W16988   9.754   2.741   4.412
50206W        W16989  13.706  15.253  11.686
50207W        W16990  12.804  32.090  12.914
50208W        W16991   2.538   8.475   0.270
50209W        W16992   7.728  28.059   4.060
50210W        W16993   9.570  21.164   4.950
50211W        W16994  10.033  33.869   3.402
50212W        W16995  31.641   3.556  11.682
50213W        W16996  42.925  13.797  12.613
50214W        W16997  18.199  17.717   4.696
50215W        W16998  12.630  39.321  11.746
50216W        W16999  15.649  13.576  13.398
50217W        W17000  17.760  43.538  14.400
50218W        W17001  17.958  13.014  10.171
50219W        W17002   7.693   7.983  11.836
50220W        W17003  29.081  16.225   4.110
50221W        W17004   0.291  38.847  13.094
50222W        W17005  11.307  35.932   4.922
50223W        W17006  20.353   2.170   4.993
50224W        W17007   5.300  19.356  13.129
50225W        W17008  20.492  25.272  13.269
50226W        W17009  41.743  29.750   4.609
50227W        W17010   8.464   9.454   0.527
50228W        W17011  16.794  28.088   0.349
50229W        W17012  12.486  17.808   4.118
50230W        W17013  35.414  30.841   3.243
50231W        W17014   4.936   3.700   1.731
50232W        W17015  17.955  28.008   3.622
50233W        W17016  44.954  41.510   4.954
50234W        W17017  16.504  35.433  13.601
50235W        W17018  41.959   2.783   3.187
50236W        W17019  24.656  26.616  11.038
50237W        W17020  29.382   4.967   1.877
50238W        W17021  36.438   1.337  10.288
50239W        W17022  30.460  31.017   1.265
50240W        W17023   3.497   9.822   1.784
50241W        W17024  22.545  13.324  11.291
50242W        W17025  21.498  36.312  14.415
50243W        W17026  20.181  38.955   3.348
50244W        W17027  20.071  34.699  10.459
50245W        W17028  39.806  25.239  12.971
50246W        W17029   7.172   5.610  13.674
50247W        W17030  32.000  33.000  11.892
50248W        W17031  36.198  40.128  12.062
50249W        W17032  10.776  12.295  14.015
50250W        W17033  11.564  20.249   1.842
50251W        W17034   8.383  32.056  13.079
50252W        W17035  12.576   3.111   3.935
50253W        W17036  22.167   1.688  10.685
50254W        W17037   1.178  29.017  14.800
50255W        W17038  16.828  11.422   2.717
50256W        W17039  26.262  13.291   2.350
50257W        W17040  41.557  21.047  14.468
50258W        W17041  14.703  19.558   2.907
50259W        W17042  13.392  16.880  11.123
50260W        W17043  35.259  30.642   4.984
50261W        W17044  19.992  42.329  12.021
50262W        W17045   8.001   8.903   4.223
50263W        W17046  33.175  35.850  12.106
50264W        W17047   4.793  20.260  12.837
50265W        W17048   1.320  38.451   2.212
50266W        W17049   8.796   9.825  10.666
50267W        W17050  39.291  30.654  12.692
50268W        W17051  21.964  43.390  10.652
50269W        W17052  33.299  34.896   2.757
50270W        W17053  17.656  43.617  12.467
50271W        W17054  13.947  12.789   0.860
50272W        W17055  32.098   7.928  14.310
50273W        W17056  36.848   0.835  13.739
50274W        W17057   7.156   3.325   4.130
50275W        W17058   6.735   2.170   2.769
50276W        W17059  15.521   8.080  12.459
50277W        W17060  40.017  40.658   1.816
50278W        W17061  26.182  44.305   4.134
50279W        W17062  44.517   4.803  13.801
50280W        W17063  11.231  33.234  14.125
50281W        W17064  26.166  43.737  10.719
50282W        W17065   0.882  43.698  11.054
50283W        W17066  14.265  43.460   1.011
50284W        W17067  13.730   8.717   2.313
50285W        W17068   5.517  18.282  11.527
50286W        W17069  14.199  11.224   2.282
50287W        W17070   5.286  23.044  13.440
50288W        W17071   4.746  42.860  10.232
50289W        W17072  37.136  23.691   0.680
50290W        W17073  15.403  39.123  10.730
50291W        W17074  23.690  29.940  10.646
50292W        W17075   7.209  15.499  12.325
50293W        W17076  16.791  17.985  11.696
50294W        W17077  39.534  25.446  14.829
50295W        W17078  29.661  36.942   0.986
50296W        W17079  29.627  16.133  12.593
50297W        W17080  37.344  26.683   2.860
50298W        W17081  38.617  32.824  13.913
50299W        W17082  37.185  34.420  14.463
50300W        W17083  33.084  27.916  14.453
50301W        W17084  37.375  17.176   3.651
50302W        W17085  20.775   3.187   2.673
50303W        W17086  16.286  11.942  10.795
50304W        W17087   2.748   5.817   2.942
50305W        W17088   9.594  37.214   3.267
50306W        W17089   4.132  40.478  12.393
50307W        W17090   3.312   7.328   0.299
50308W        W17091  10.820  23.084  11.602
50309W        W17092  43.634  16.736   2.368
50310W        W17093  16.178   8.790   3.901
50311W        W17094  19.558  12.405   1.195
50312W        W17095  44.295   8.538   2.315
50313W        W17096  33.571  10.454  13.329
50314W        W17097   0.948   6.412  12.596
50315W        W17098  31.524  44.318  14.505
50316W        W17099  17.129  44.754   4.380
50317W        W17100  26.505  30.047  14.653
50318W        W17101   3.659  16.124  14.465
50319W        W17102  43.020  17.591  12.497
50320W        W17103  11.636   8.759   3.314
50321W        W17104  41.887   2.490  13.035
50322W        W17105  29.987  35.584   0.702
50323W        W17106  37.772   5.954   9.782
50324W        W17107  13.506   1.755  10.720
50325W        W17108   4.938  24.170  13.540
50326W        W17109  30.966  31.175  14.531
50327W        W17110  29.500  38.783  11.957
50328W        W17111  40.376  36.599  11.097
50329W        W17112  34.712   3.804  11.540
50330W        W17113   0.838  23.444   2.339
50331W        W17114  40.347   5.916   1.231
50332W        W17115  38.723  36.912   1.287
50333W        W17116  19.828  27.402  12.127
50334W        W17117  31.210  21.570   4.464
50335W        W17118  20.829  14.167  13.914
50336W        W17119  39.815  10.409  11.813
50337W        W17120   2.904   5.758  11.450
50338W        W17121  33.916   9.441   3.647
50339W        W17122  35.819   6.180   4.954
50340W        W17123  33.373  15.607   2.291
50341W        W17124   6.503   1.650  13.309
50342W        W17125  38.445  23.408  10.520
50343W        W17126  30.955  40.050  12.037
50344W        W17127  35.499  27.277  10.564
50345W        W17128  40.106  14.576   1.262
50346W        W17129  12.985   3.325   1.048
50347W        W17130  21.496  32.096  12.616
50348W        W17131  30.663  32.975  10.848
50349W        W17132  16.865  12.696  13.469
50350W        W17133   5.854  28.424  14.585
50351W        W17134   2.186  37.631   1.267
50352W        W17135  20.734  30.667  10.431
50353W        W17136   9.899  39.923  10.558
50354W        W17137  23.525   3.523   0.448
50355W        W17138  18.298   9.796   1.251
50356W        W17139  21.244  35.046  14.038
50357W        W17140   1.763  42.365   2.456
50358W        W17141  38.228  24.184   1.292
50359W        W17142  11.604  21.027   4.131
50360W        W17143   5.647  23.790   3.378
50361W        W17144  14.972  27.718  14.394
50362W        W17145  21.985  23.618  13.010
50363W        W17146  15.012  10.638  12.963
50364W        W17147  10.579  37.082  13.028
50365W        W17148  34.415  39.493   1.918
50366W        W17149   9.950   9.154   1.469
50367W        W17150  22.014  21.594  13.875
50368W        W17151  19.576   3.920   2.964
50369W        W17152  25.814   7.083   4.030
50370W        W17153  33.780  29.736  10.480
50371W        W17154  24.481   1.236  14.544
50372W        W17155   3.561  38.516   4.167
50373W        W17156  23.644  32.600   1.183
50374W        W17157  20.148  42.347   1.225
50375W        W17158  16.461  21.199   4.894
50376W        W17159  29.125  28.597   0.292
50377W        W17160  25.679  33.097  11.650
50378W        W17161  39.338   6.145   2.770
50379W        W17162  42.794  14.753  14.747
50380W        W17163  24.074  23.671   1.635
50381W        W17164  31.247  26.425  13.865
50382W        W17165  19.608  42.833   2.659
50383W        W17166  17.643  37.436  10.093
50384W        W17167   0.833  18.227   4.212
50385W        W17168   9.501   8.821   0.742
50386W        W17169  19.702  17.244  14.041
50387W        W17170   8.037  20.184  13.354
50388W        W17171   9.627  31.983  12.619
50389W        W17172  30.560   7.651  11.602
50390W        W17173  13.462   6.743   3.602
50391W        W17174  30.576  28.700   3.223
50392W        W17175  34.082  30.979  13.095
50393W        W17176  27.992  17.331   0.286
50394W        W17177   9.732  43.806   0.390
50395W        W17178   1.855  11.138   4.649
50396W        W17179  10.538  20.489  14.865
50397W        W17180   5.396  35.494   1.507
50398W        W17181   1.282  42.370   2.232
50399W        W17182  17.621  29.748   2.464
50400W        W17183   4.892  39.510   3.767
50401W        W17184  37.937   2.225  12.286
50402W        W17185  31.004  29.169   0.254
50403W        W17186   2.762  24.631   1.345
50404W        W17187  30.862  21.435  11.148
50405W        W17188  35.959  38.447  13.790
50406W        W17189  26.694  33.428  13.856
50407W        W17190  33.990   0.789   0.635
50408W        W17191  14.049  31.155   2.066
50409W        W17192  36.351   5.429   3.947
50410W        W17193  23.651  10.042   0.210
50411W        W17194  34.321  42.302   0.762
50412W        W17195  21.775  35.591   2.293
50413W        W17196  17.009  43.396   0.806
50414W        W17197  29.384  10.224   2.796
50415W        W17198  28.642  34.912  10.597
50416W        W17199  22.457   5.270   3.256
50417W        W17200  42.769  25.120  13.991
50418W        W17201  32.067  32.353  13.438
50419W        W17202  12.299  27.637  11.621
50420W        W17203  14.168  39.400   2.031
50421W        W17204  28.944  10.847  11.584
50422W        W17205  16.298  43.187  11.639
50423W        W17206  33.758  37.557   1.697
50424W        W17207  27.910  10.273  13.998
50425W        W17208  24.143  19.859  14.629
50426W        W17209   3.873  20.481  10.947
50427W        W17210  20.184  14.346   3.611
50428W        W17211  16.881  14.731  14.955
50429W        W17212  34.621  11.719   0.033
50430W        W17213   2.126  29.424   3.601
50431W        W17214  39.745  16.035   2.730
50432W        W17215  19.606  16.224   3.039
50433W        W17216  29.193  41.128  13.362
50434W        W17217   9.312  26.983   1.887
50435W        W17218  34.835  28.563  14.802
50436W        W17219  43.849   4.185  13.074
50437W        W17220   8.724  34.252  11.200
50438W        W17221   1.900  21.632   2.338
50439W        W17222  40.082  36.017  11.115
50440W        W17223  28.102   2.556  12.425
50441W        W17224   0.799  27.557  12.916
50442W        W17225  39.094  19.705   2.187
50443W        W17226  32.118  15.167   4.333
50444W        W17227  12.741  14.343   1.291
50445W        W17228   6.546  24.737  14.926
50446W        W17229  16.193  34.058   2.026
50447W        W17230  19.090  32.987  11.547
50448W        W17231   2.832  35.854  12.645
50449W        W17232   7.164  21.477   0.296
50450W        W17233  42.280  29.279   3.141
50451W        W17234  23.566  33.802   2.888
50452W        W17235  31.846  20.532   0.797
50453W        W17236  39.331  31.186   1.526
50454W        W17237  23.457  21.948  11.192
50455W        W17238  18.568   5.993   2.849
50456W        W17239  39.783  11.409   0.439
50457W        W17240  42.249  17.146  11.018
50458W        W17241   8.874  31.659   4.073
50459W        W17242  25.649  31.440  12.536
50460W        W17243   4.407  19.349   0.253
50461W        W17244  41.306  31.108   0.865
50462W        W17245  22.708  26.726   0.739
50463W        W17246   8.223  21.487   2.380
50464W        W17247  39.991  13.691  11.938
50465W        W17248   0.925   0.065  13.590
50466W        W17249   9.633  32.026  12.097
50467W        W17250   9.848  30.045  12.013
50468W        W17251   0.547   3.050  10.115
50469W        W17252   2.670   1.724  11.639
50470W        W17253  34.999  19.123  11.117
50471W        W17254   6.874  22.737   4.720
50472W        W17255  40.361  31.145  13.842
50473W        W17256  20.108   6.693  13.504
50474W        W17257  37.071  27.479  10.686
50475W        W17258  20.353  17.806  14.136
50476W        W17259  44.619  20.675   3.669
50477W        W17260  29.940  38.683  13.049
50478W        W17261  14.425  23.110  13.297
50479W        W17262  26.720  33.658  14.806
50480W        W17263  20.995   8.346  14.327
50481W        W17264  24.641  16.814   4.058
50482W        W17265  25.835   0.318  13.869
50483W        W17266  22.494  38.553  10.919
50484W        W17267  17.458   5.836   1.252
50485W        W17268  27.688  41.274   2.179
50486W        W17269  35.173  17.512  13.383
50487W        W17270  15.159  18.171  14.676
50488W        W17271  21.602   6.805   4.610
50489W        W17272  33.096  13.728   4.852
50490W        W17273   1.523  26.977  12.980
50491W        W17274   1.422  11.361   3.832
50492W        W17275   4.404  10.449   2.970
50493W        W17276  23.444  39.910   0.482
50494W        W17277   0.845  43.289   4.643
50495W        W17278   3.605  27.446  11.587
50496W        W17279  12.922  15.775   2.415
50497W        W17280  29.649  39.701   1.031
50498W        W17281  31.245   6.877   3.679
50499W        W17282  40.928  38.011  13.849
50500W        W17283  23.209  43.986  14.330
50501W        W17284  12.029  18.724  11.297
50502W        W17285  31.007   7.297   1.240
50503W        W17286   8.422  25.510  11.926
50504W        W17287  31.467   2.242   3.365
50505W        W17288  27.959  25.387   2.581
50506W        W17289   8.267  18.980  14.940
50507W        W17290   4.948  19.999   3.158
50508W        W17291  11.930  17.493   0.402
50509W        W17292   4.863   7.319  10.775
50510W        W17293  20.028  44.014   0.815
50511W        W17294  32.072   5.957  11.967
50512W        W17295  25.045  36.320   3.038
50513W        W17296  26.238  18.166  14.329
50514W        W17297   9.326  16.865   3.819
50515W        W17298  32.974  42.147   2.843
50516W        W17299  41.555  28.986   3.662
50517W        W17300  31.082  11.815   2.132
50518W        W17301  19.203  33.408   1.041
50519W        W17302  42.943  20.159   3.795
50520W        W17303  33.074   6.622   1.008
50521W        W17304  29.008  27.171   0.330
50522W        W17305  39.655  23.752   0.442
50523W        W17306  22.986   5.319   1.922
50524W        W17307   9.403  24.245  14.859
50525W        W17308   4.815  44.320   2.256
50526W        W17309  28.047  38.526  11.078
50527W        W17310  32.590  19.127   0.816
50528W        W17311  31.039  28.031  14.367
50529W        W17312  29.423  28.891  11.487
50530W        W17313  26.156  27.444  14.351
50531W        W17314  39.575  28.043  13.363
50532W        W17315  18.611  26.167  10.785
50533W        W17316  31.615  25.178   4.757
50534W        W17317  32.159  23.142   1.919
50535W        W17318  42.042  10.059  13.739
50536W        W17319  24.893  43.339   0.323
50537W        W17320   0.683  32.070  12.159
50538W        W17321  32.472  35.443  13.335
50539W        W17322   1.586  11.088   2.205
50540W        W17323   0.082   6.845  10.436
50541W        W17324   1.231  27.064   1.172
50542W        W17325  26.996  20.014   0.731
50543W        W17326  12.277  26.211  12.993
50544W        W17327   9.580  44.901  13.931
50545W        W17328   2.695  14.604  10.738
50546W        W17329  25.063  19.439  13.791
50547W        W17330  30.540  18.468   5.008
50548W        W17331   0.460  14.124  14.302
50549W        W17332  40.172  27.838   5.052
50550W        W17333  29.514   6.274  13.067
50551W        W17334  24.800   3.979  10.769
50552W        W17335  39.128   4.063   2.822
50553W        W17336  22.286   3.848   1.718
50554W        W17337  21.689   6.260   3.704
50555W        W17338   3.975  44.696  12.475
50556W        W17339   7.574  11.628  13.092
50557W        W17340   3.405   4.891  13.802
50558W        W17341  43.746  39.570  12.032
50559W        W17342  43.566  27.520  11.632
50560W        W17343  29.142  22.247  12.090
50561W        W17344  13.716  39.743   3.980
50562W        W17345   9.598  13.382   3.664
50563W        W17346  40.909   3.425   4.601
50564W        W17347  41.002  20.009  11.015
50565W        W17348  21.376  40.814   4.999
50566W        W17349   9.164  11.384  11.010
50567W        W17350  23.943  36.622   4.239
50568W        W17351  15.594  19.950   0.293
50569W        W17352  43.467  27.844   1.786
50570W        W17353   7.967  27.725   3.725
50571W        W17354  33.154  13.136  11.127
50572W        W17355  17.102  22.117  13.960
50573W        W17356  28.075  44.298  13.571
50574W        W17357  37.322   3.404  12.092
50575W        W17358  20.506   6.713  11.686
50576W        W17359  15.768   0.893  10.715
50577W        W17360  24.990   6.235   1.881
50578W        W17361  36.959  22.343   1.688
50579W        W17362  20.550   6.435  13.291
50580W        W17363  36.318  26.064   1.032
50581W        W17364   9.639   7.998   0.020
50582W        W17365  29.619  22.530  14.527
50583W        W17366  40.774   0.594  13.214
50584W        W17367  44.716  30.925  14.850
50585W        W17368  21.021  38.943  12.029
50586W        W17369  42.548  30.068   0.340
50587W        W17370  11.222  29.495  14.270
50588W        W17371   1.472   6.229   3.881
50589W        W17372  38.274   5.799  14.453
50590W        W17373  21.049  27.900   2.761
50591W        W17374  37.013   5.880   2.298
50592W        W17375  19.356  17.239  12.094
50593W        W17376  40.798   8.179  13.311
50594W        W17377  21.087   5.701   0.323
50595W        W17378  36.154  26.536   0.394
50596W        W17379  39.021  18.875  11.983
50597W        W17380   7.577  43.321   2.636
50598W        W17381  24.368  27.732  10.417
50599W        W17382  37.335  19.677  13.230
50600W        W17383   4.907  19.626  14.000
50601W        W17384  42.969   7.996   3.856
50602W        W17385  33.530  24.140  14.325
50603W        W17386  41.590  44.378   4.535
50604W        W17387  38.642  15.330   3.215
50605W        W17388  32.057  22.859  13.500
50606W        W17389  19.222  28.442   2.323
50607W        W17390  43.902  12.875  13.134
50608W        W17391  33.667  23.916   0.076
50609W        W17392  27.233  27.975   4.180
50610W        W17393  22.015   3.979  13.027
50611W        W17394  15.794   9.820   1.909
50612W        W17395  40.208   2.298   2.797
50613W        W17396  40.344  31.512   3.567
50614W        W17397   8.678  31.589   2.151
50615W        W17398   0.357  30.165   2.189
50616W        W17399   2.950  44.851  10.709
50617W        W17400  39.557  30.975   0.539
50618W        W17401  37.887  31.115  11.040
50619W        W17402  15.942  27.137   0.237
50620W        W17403   2.148   0.485  11.165
50621W        W17404  20.217   4.736   4.632
50622W        W17405  17.296  18.962   0.861
50623W        W17406  15.394  35.301   1.899
50624W        W17407   9.219  17.419  13.036
50625W        W17408  18.098  23.648   2.574
50626W        W17409  35.314  30.770  10.742
50627W        W17410  24.391  19.518  14.966
50628W        W17411   0.493   3.708   0.843
50629W        W17412  28.622  25.101   2.774
50630W        W17413   2.248  27.209   3.277
50631W        W17414   7.996  40.143  12.337
50632W        W17415  27.489  27.407   0.632
50633W        W17416   9.121  35.435  11.164
50634W        W17417   8.755   7.484  14.891
50635W        W17418  34.873  34.415   1.294
50636W        W17419  33.089  37.541   3.742
50637W        W17420   8.616   4.343   1.055
50638W        W17421  12.828  19.526  11.021
50639W        W17422  27.790  22.096  14.955
50640W        W17423   6.394   7.418  10.697
50641W        W17424  14.443  13.268  14.106
50642W        W17425   0.880  31.604  13.627
50643W        W17426  12.634  26.634  12.300
50644W        W17427  20.508  37.011   4.509
50645W        W17428  42.780  29.647  12.457
50646W        W17429  24.473  22.665  10.822
50647W        W17430  44.046  39.925  11.818
50648W        W17431  31.906  29.487   2.635
50649W        W17432   4.972  29.490   3.264
50650W        W17433  16.714  26.652   2.219
50651W        W17434  18.615  20.676  12.891
50652W        W17435  23.432  44.327  10.390
50653W        W17436  22.422  35.631  12.895
50654W        W17437  12.895  15.286   3.103
50655W        W17438  26.032  24.989   3.116
50656W        W17439  33.075  13.666   4.350
50657W        W17440  43.474  44.356   1.439
50658W        W17441  19.585  37.303   0.404
50659W        W17442  19.674  30.138  13.924
50660W        W17443  18.130  39.644  10.373
50661W        W17444  36.890   3.271  13.025
50662W        W17445  20.720  14.835   9.850
50663W        W17446   1.168  12.517  12.618
50664W        W17447  32.662  17.346   1.747
50665W        W17448  37.828   4.251   1.818
50666W        W17449  22.101  30.970   0.858
50667W        W17450  44.512  19.279  12.496
50668W        W17451  29.953  11.407   0.450
50669W        W17452   4.371  43.929  10.592
50670W        W17453  39.872  32.190   2.905
50671W        W17454   5.149  43.326   2.303
50672W        W17455   2.722  44.341   4.588
50673W        W17456  15.887  12.696   5.073
50674W        W17457  37.332  24.232   4.901
50675W        W17458  14.689  39.787   0.325
50676W        W17459  29.627   5.254   2.808
50677W        W17460  43.529   1.188   1.701
50678W        W17461  25.296  27.558  12.016
50679W        W17462   7.497  21.466  14.904
50680W        W17463  24.191  38.563  13.754
50681W        W17464  23.333  27.551  13.513
50682W        W17465  28.647  13.086  13.627
50683W        W17466  44.962   1.084   0.013
50684W        W17467  23.037  10.225   4.998
50685W        W17468  14.352  15.622  11.602
50686W        W17469   8.634  40.461   2.781
50687W        W17470   1.858  33.706  11.506
50688W        W17471  24.562   9.387  11.585
50689W        W17472  31.534  16.574  12.082
50690W        W17473   5.455  40.529  12.016
50691W        W17474  41.050  25.995  14.913
50692W        W17475   2.881  30.482  13.803
50693W        W17476   4.158  15.802  14.905
50694W        W17477  43.389  36.897   2.651
50695W        W17478  36.014  33.823  12.793
50696W        W17479  24.508  19.081   2.654
50697W        W17480  32.060  17.838   1.057
50698W        W17481  38.135  16.490   3.142
50699W        W17482  35.527  17.991  11.490
50700W        W17483  35.917  44.234  14.447
50701W        W17484  30.861  20.223   9.835
50702W        W17485  32.041   2.083   2.604
50703W        W17486  12.268  14.296   1.059
50704W        W17487  41.833  26.897  14.848
50705W        W17488  13.037  11.772   1.195
50706W        W17489  23.496   4.444   0.970
50707W        W17490  40.084  42.247  12.605
50708W        W17491   7.922   0.942  14.501
50709W        W17492  11.180   4.422  10.603
50710W        W17493   8.645  29.868  12.579
50711W        W17494   1.037  35.977   0.825
50712W        W17495  42.840   1.416   4.126
50713W        W17496  29.627  34.492   2.019
50714W        W17497  22.128   9.403   4.119
50715W        W17498   7.843  38.290  13.343
50716W        W17499  14.756  42.210   4.753
50717W        W17500  37.001   4.990   4.085
50718W        W17501  29.511  36.525  11.500
50719W        W17502  16.314  44.392  11.193
50720W        W17503   4.755  38.847  11.542
50721W        W17504   4.208  20.259  11.253
50722W        W17505  21.157  44.473  12.522
50723W        W17506  22.482  27.687   0.872
50724W        W17507  18.363  37.091  14.889
50725W        W17508   9.757  27.136  14.262
50726W        W17509  43.633  24.636   1.008
50727W        W17510  29.151  22.027  11.627
50728W        W17511  31.879  25.566   1.493
50729W        W17512  17.490   1.751  12.977
50730W        W17513  23.005   0.054   3.704
50731W        W17514  30.647  21.790   0.674
50732W        W17515  17.681  35.574  14.218
50733W        W17516   5.263  16.165  13.730
50734W        W17517   4.469  31.577   0.461
50735W        W17518  38.619  36.491   0.927
50736W        W17519  19.516   5.004   2.643
50737W        W17520  36.221  32.047  13.046
50738W        W17521  26.358  44.347  11.879
50739W        W17522  17.657   3.415  14.966
50740W        W17523  12.764   4.523   3.275
50741W        W17524  39.249   3.429  13.785
50742W        W17525  37.499   5.003  13.845
50743W        W17526  19.086  12.174   4.709
50744W        W17527   2.886  17.858   2.459
50745W        W17528  38.616  30.053   1.004
50746W        W17529  19.983   7.477  13.114
50747W        W17530  28.429  39.665  12.301
50748W        W17531  27.488   9.879   4.574
50749W        W17532  25.952  36.976  14.662
50750W        W17533  11.199  35.529  14.882
50751W        W17534  37.556  16.391  10.634
50752W        W17535  26.325  40.568   0.998
50753W        W17536  17.634  27.150  11.915
50754W        W17537  16.499  11.595  13.223
50755W        W17538  26.068  31.970  11.967
50756W        W17539  39.501   4.792  12.062
50757W        W17540  17.778  19.540  12.705
50758W        W17541  16.640   5.764   0.087
50759W        W17542  13.108  36.330   2.425
50760W        W17543   0.375  38.150   0.223
50761W        W17544  41.835   4.164  10.867
50762W        W17545  14.805  33.607  11.435
50763W        W17546  22.549  28.320   4.133
50764W        W17547  30.896  37.752  11.262
50765W        W17548  14.874  15.170   4.067
50766W        W17549  16.120  18.877  13.469
50767W        W17550  22.440  32.376  13.892
50768W        W17551  33.813  27.137   0.290
50769W        W17552  32.673  37.562  12.221
50770W        W17553  20.748  33.339   4.143
50771W        W17554  22.882  12.412  11.635
50772W        W17555   9.989  17.679   0.932
50773W        W17556  30.502   2.950  13.928
50774W        W17557   5.527  13.227   4.646
50775W        W17558  22.520  30.397  10.255
50776W        W17559  16.628  23.723   4.094
50777W        W17560   6.743   4.723  12.814
50778W        W17561  17.858  23.167  11.981
50779W        W17562  37.986  26.645  13.740
50780W        W17563  35.048  28.476  11.658
50781W        W17564  37.307  25.530   3.652
50782W        W17565  12.380  28.497  13.484
50783W        W17566  24.731  15.175  13.000
50784W        W17567   1.437  27.268  10.991
50785W        W17568  12.261  13.921  13.841
50786W        W17569  34.620  36.830   2.852
50787W        W17570   8.220  36.033   0.496
50788W        W17571  20.735  22.966   4.237
50789W        W17572   0.470   1.238   0.759
50790W        W17573  25.140  35.773  14.362
50791W        W17574  31.115  18.222   1.213
50792W        W17575   0.530  37.556   1.774
50793W        W17576  39.497   3.702  11.182
50794W        W17577   5.627  10.729  12.626
50795W        W17578  23.564  28.437   1.407
50796W        W17579  18.048  35.934   4.710
50797W        W17580  22.854   3.294  12.939
50798W        W17581  15.386  16.133   3.458
50799W        W17582  11.163  41.866  13.961
50800W        W17583  28.270  16.489   0.617
50801W        W17584  30.173  39.140  14.985
50802W        W17585  43.849   3.101   3.790
50803W        W17586  28.995  27.734   4.677
50804W        W17587  15.283  30.965   3.325
50805W        W17588   1.917  39.519  12.270
50806W        W17589  27.721  12.298   0.892
50807W        W17590  21.344  30.729   3.990
50808W        W17591   4.826   8.880   0.073
50809W        W17592  16.503  20.867   0.473
50810W        W17593   1.863  17.290   1.731
50811W        W17594  25.907  27.698  11.077
50812W        W17595  26.176  38.286   2.834
50813W        W17596  23.704   9.244   4.227
50814W        W17597  31.688  41.909  14.334
50815W        W17598   7.313  13.082   0.170
50816W        W17599  19.693  14.227  11.493
50817W        W17600  21.123   0.001  12.571
50818W        W17601  21.625  11.163  13.589
50819W        W17602  24.963  43.886  11.100
50820W        W17603  25.184  32.826   4.501
50821W        W17604  41.903  44.074  10.759
50822W        W17605  22.462  35.124  12.154
50823W        W17606  26.216   2.255   0.751
50824W        W17607   2.891   3.460  14.983
50825W        W17608   8.231  42.295   0.242
50826W        W17609  19.102   8.359  14.191
50827W        W17610  28.835  42.931  11.454
50828W        W17611  39.975  16.381   2.431
50829W        W17612  21.058  15.502  13.400
50830W        W17613  41.002  26.123   3.268
50831W        W17614  33.080  33.129   2.848
50832W        W17615  36.998  35.865  14.548
50833W        W17616  30.060   9.605  14.921
50834W        W17617  38.507  28.894   1.655
50835W        W17618  37.587  24.700  10.510
50836W        W17619  15.492   4.193  12.291
50837W        W17620   6.779  36.381   4.627
50838W        W17621  39.169  22.399   4.895
50839W        W17622   7.248  43.380   4.885
50840W        W17623   3.482  41.033   0.429
50841W        W17624  15.338  31.992  13.993
50842W        W17625  33.553   3.747   4.178
50843W        W17626   6.369  31.115  11.723
50844W        W17627  39.974  20.717  11.300
50845W        W17628   0.437  10.249   3.226
50846W        W17629  24.702  38.926   0.787
50847W        W17630  20.034  17.646   2.864
50848W        W17631  33.916  35.082  14.334
50849W        W17632  19.569  44.794   2.372
50850W        W17633  16.755  43.995  11.817
50851W        W17634  24.207  39.000  10.907
50852W        W17635  37.499  14.844  10.638
50853W        W17636  27.518  34.663  14.442
50854W        W17637  23.673   4.076   4.579
50855W        W17638  34.649  23.529  13.108
50856W        W17639   0.963   8.356  11.530
50857W        W17640  26.507  34.469   1.218
50858W        W17641  24.049  21.011   0.429
50859W        W17642  44.400  44.856   0.719
50860W        W17643  41.843  25.538  11.000
50861W        W17644  22.767  13.751   1.355
50862W        W17645   8.400  25.087  11.629
50863W        W17646  37.759  43.031  12.694
50864W        W17647  44.796  29.436  14.917
50865W        W17648  18.782  43.396   3.815
50866W        W17649  37.566   6.845  10.343
50867W        W17650  19.069  42.229   0.157
50868W        W17651  31.063  31.855   1.371
50869W        W17652  22.654  12.634   0.643
50870W        W17653  21.183   4.282   0.846
50871W        W17654  17.224  42.859   2.882
50872W        W17655   4.693  20.149  11.141
50873W        W17656  21.121  24.605  11.505
50874W        W17657  19.105   4.830   4.483
50875W        W17658  33.982  41.499   4.555
50876W        W17659  31.964  44.970  12.544
50877W        W17660  35.326  17.200   3.855
50878W        W17661  37.635   5.260  11.369
50879W        W17662  15.257   9.561  11.613
50880W        W17663  12.886  44.196   3.693
50881W        W17664  15.046  35.872  11.728
50882W        W17665  12.048  32.629   4.354
50883W        W17666  28.055  18.354  13.491
50884W        W17667  13.177  26.205   1.190
50885W        W17668  31.075   7.443  14.344
50886W        W17669  13.269  10.958  14.384
50887W        W17670  15.163  35.721   0.900
50888W        W17671   4.432  11.280   3.425
50889W        W17672  30.853   9.498   1.326
50890W        W17673   7.050   7.607  11.206
50891W        W17674  35.093  15.175   3.163
50892W        W17675  18.100   6.505   1.779
50893W        W17676  24.596  19.224   0.352
50894W        W17677  10.276  14.878   3.472
50895W        W17678  23.981  15.731  14.836
50896W        W17679  35.845  29.646   0.913
50897W        W17680  42.993  24.734  11.115
50898W        W17681  16.263  21.069   4.054
50899W        W17682  30.558  30.385  14.342
50900W        W17683  18.909  36.087  11.148
50901W        W17684   5.256  37.797  13.065
50902W        W17685  16.880  23.467   3.160
50903W        W17686  41.772  32.995  12.097
50904W        W17687  25.634  12.833   1.342
50905W        W17688   8.945  10.192   4.480
50906W        W17689  27.655  37.650   1.158
50907W        W17690  29.560  25.630  11.585
50908W        W17691  44.027  25.529   4.447
50909W        W17692  11.749  32.451   1.237
50910W        W17693  32.495  40.293  14.695
50911W        W17694  36.790  41.623  12.510
50912W        W17695  11.277  34.840   3.205
50913W        W17696  24.599  44.992  14.881
50914W        W17697   4.558  28.400   4.115
50915W        W17698  11.608  15.562   1.929
50916W        W17699  25.212  17.728  13.834
50917W        W17700  33.622   3.335  12.118
50918W        W17701  32.143  33.398   4.506
50919W        W17702  32.579  40.055   2.257
50920W        W17703  32.471  17.533   5.543
50921W        W17704  22.417  39.464  14.869
50922W        W17705  27.120  22.058   3.941
50923W        W17706   1.924  21.211   1.582
50924W        W17707  20.607  15.030   1.539
50925W        W17708  41.463  32.634   1.524
50926W        W17709  30.081   6.883   1.321
50927W        W17710  36.805  26.766  12.951
50928W        W17711  32.944  22.286   2.420
50929W        W17712  28.733  30.138  11.888
50930W        W17713  36.825  35.896   0.508
50931W        W17714   8.204  34.815  12.492
50932W        W17715   3.881  17.894  13.590
50933W        W17716  39.799  12.204   0.337
50934W        W17717  15.355  14.377  11.140
50935W        W17718   0.721  29.871  13.747
50936W        W17719   3.332  22.936   4.034
50937W        W17720  38.967   0.876  13.150
50938W        W17721  43.720  15.404   1.737
50939W        W17722  42.864  13.898  14.503
50940W        W17723  12.076  43.433   0.445
50941W        W17724  24.046  18.655   0.948
50942W        W17725  38.450  28.604   0.221
50943W        W17726  30.529   8.942   3.259
50944W        W17727  35.761   1.227   4.695
50945W        W17728  24.626  33.338   2.328
50946W        W17729  34.320  28.937   1.413
50947W        W17730  34.965   7.240   3.313
50948W        W17731   9.218  30.466  14.283
50949W        W17732  10.703  26.246   4.566
50950W        W17733  40.622  38.013  12.509
50951W        W17734   4.417  39.607  11.397
50952W        W17735   4.356   8.917   0.315
50953W        W17736  11.371  36.675  14.309
50954W        W17737  41.484   7.450  11.953
50955W        W17738   1.475  19.176  12.611
50956W        W17739  25.233  23.373  13.493
50957W        W17740  35.008  25.768  11.151
50958W        W17741  21.674  30.569   2.367
50959W        W17742  21.681  29.072   3.035
50960W        W17743  19.143   3.212   1.901
50961W        W17744  12.386  14.422   0.427
50962W        W17745  37.678  21.228  11.547
50963W        W17746  14.071  41.840  14.486
50964W        W17747   3.061  11.801  10.680
50965W        W17748  23.663  35.111  11.847
50966W        W17749  32.423  37.672   1.663
50967W        W17750  31.642  14.649   3.175
50968W        W17751  19.665   4.665   1.829
50969W        W17752  38.824  30.082  11.477
50970W        W17753  20.640   3.268  13.400
50971W        W17754  19.271   2.222   3.501
50972W        W17755  39.892   5.261   0.865
50973W        W17756   4.601  19.267  12.062
50974W        W17757  40.591  13.195  10.728
50975W        W17758  38.759  33.383  14.801
50976W        W17759  32.214   1.210   4.422
50977W        W17760  42.494  35.021   0.307
50978W        W17761  43.211   9.625   2.556
50979W        W17762  43.515  30.608  10.707
50980W        W17763  33.857   8.273   2.205
50981W        W17764  39.563  31.497  10.888
50982W        W17765  21.478  18.795  14.796
50983W        W17766  25.081  25.095  12.084
50984W        W17767  11.518  33.253   1.606
50985W        W17768  35.420  38.986   2.671
50986W        W17769  28.734  19.251  12.814
50987W        W17770   4.856  20.032  12.382
50988W        W17771  11.764  21.861  13.574
50989W        W17772  24.591  16.116  12.348
50990W        W17773  23.565   2.296  12.680
50991W        W17774  21.653  16.594  12.390
50992W        W17775  26.409  40.295   2.659
50993W        W17776  18.505  32.660   1.514
50994W        W17777  29.026  34.832  11.200
50995W        W17778  25.532  21.615  12.430
50996W        W17779   1.948   7.000  13.203
50997W        W17780  15.923  42.407  13.837
50998W        W17781   1.422   6.606  12.413
50999W        W17782  14.568  22.000   0.453
51000W        W17783  33.158   4.346  14.415
51001W        W17784  17.355  26.089   4.386
51002W        W17785   8.654  40.371  13.920
51003W        W17786  35.988  25.110  11.660
51004W        W17787  40.725  40.786   3.603
51005W        W17788  18.709  30.756  11.115
51006W        W17789  43.956  35.817  10.692
51007W        W17790  40.976  14.251  14.079
51008W        W17791  37.830   2.872  14.897
51009W        W17792  24.709   0.089  10.410
51010W        W17793  23.495  22.201   2.742
51011W        W17794  13.672   3.364   4.648
51012W        W17795  39.962  30.331  13.182
51013W        W17796  12.183   5.816   3.851
51014W        W17797  37.778  34.409  14.722
51015W        W17798   1.392  41.914   0.831
51016W        W17799   4.846  32.818   3.398
51017W        W17800  29.119  37.530  12.040
51018W        W17801  34.027  32.573   4.619
51019W        W17802  23.337  28.756  14.192
51020W        W17803  11.966   6.366  13.878
51021W        W17804   2.606  15.800  10.137
51022W        W17805  28.132  36.679  12.472
51023W        W17806  18.252  27.092  14.411
51024W        W17807  28.236  10.122  14.405
51025W        W17808  22.309  22.890  11.513
51026W        W17809  22.079  29.460  14.914
51027W        W17810  13.696  27.213   2.983
51028W        W17811  15.811   7.583   4.480
51029W        W17812  26.987  13.216   1.250
51030W        W17813  25.983  29.815   0.276
51031W        W17814  42.482  43.667   2.826
51032W        W17815  37.969   6.927  12.583
51033W        W17816  39.730  21.175   2.642
51034W        W17817  28.118  27.454   4.154
51035W        W17818  11.922  16.304  14.401
51036W        W17819  15.206  43.884  11.748
51037W        W17820  29.463   1.434   0.595
51038W        W17821  18.268  25.373   2.164
51039W        W17822  38.174   6.144  10.039
51040W        W17823  10.272  25.607   2.191
51041W        W17824   6.401   4.866  10.618
51042W        W17825  44.949  15.446  12.649
51043W        W17826   5.941  36.718  12.510
51044W        W17827  29.083  25.498  10.708
51045W        W17828  32.394   0.282   4.379
51046W        W17829  31.446  25.519   1.230
51047W        W17830  43.394  22.076   0.340
51048W        W17831   6.129  42.765  11.772
51049W        W17832   4.372  33.975   0.638
51050W        W17833  19.702  14.616   1.425
51051W        W17834  28.146  42.977   0.441
51052W        W17835  34.637  43.458   4.219
51053W        W17836  39.019  36.823   4.591
51054W        W17837  18.933  26.483   2.802
51055W        W17838  41.660  14.908  11.549
51056W        W17839   2.336  31.101   2.563
51057W        W17840  13.650   2.313   1.963
51058W        W17841  26.335  37.845   4.128
51059W        W17842   3.524  19.184  13.336
51060W        W17843  36.528  27.216  10.734
51061W        W17844  43.325  25.595   0.267
51062W        W17845  16.375  19.808   1.959
51063W        W17846  25.997  40.178  12.963
51064W        W17847  12.241  24.056  11.915
51065W        W17848   9.868  33.585  13.380
51066W        W17849  44.961  17.218   1.723
51067W        W17850  23.724  44.105  11.696
51068W        W17851  37.558   6.885  14.278
51069W        W17852  29.052  40.081  10.508
51070W        W17853  17.739   0.823   2.845
51071W        W17854  16.351  15.353   1.265
51072W        W17855  40.203  33.492  13.317
51073W        W17856   5.327  40.032  13.134
51074W        W17857  38.826   9.164  10.612
51075W        W17858  26.606   7.852  10.661
51076W        W17859  13.891  20.830  14.498
51077W        W17860  40.489  17.364   3.754
51078W        W17861  20.168  33.336  10.364
51079W        W17862  26.678  19.456  13.520
51080W        W17863  39.366  40.737   4.584
51081W        W17864   8.999  23.649  14.903
51082W        W17865  33.815  37.833  13.594
51083W        W17866  20.628   2.617  10.271
51084W        W17867  13.924  19.472   4.032
51085W        W17868  33.511  36.123  12.425
51086W        W17869  34.464   4.906  12.591
51087W        W17870  14.178  41.737  10.755
51088W        W17871  15.658  25.495  13.701
51089W        W17872  37.842  33.616  11.613
51090W        W17873  35.181  30.577   0.003
51091W        W17874   0.905   4.735   4.060
51092W        W17875  42.806  25.653  13.128
51093W        W17876  14.538  44.938  14.745
51094W        W17877  22.232  22.640  11.086
51095W        W17878  15.830  23.042  14.504
51096W        W17879  40.108   3.460  10.034
51097W        W17880  28.122  10.432  11.009
51098W        W17881   8.673   7.743  12.057
51099W        W17882  16.153  44.759   2.398
51100W        W17883  37.066  15.726   2.491
51101W        W17884  25.033  34.275   3.495
51102W        W17885  41.509   5.217   1.415
51103W        W17886   5.190  31.995  13.760
51104W        W17887  18.344  29.530   1.489
51105W        W17888  39.258  19.677   1.691
51106W        W17889   2.020  30.421   2.603
51107W        W17890  13.634  34.423  14.964
51108W        W17891  38.880  31.635   3.263
51109W        W17892  35.936  34.176  14.830
51110W        W17893  32.173  42.958  12.876
51111W        W17894  32.591  31.201  12.380
51112W        W17895   9.467  18.075   1.540
51113W        W17896   6.630  23.976  13.448
51114W        W17897  43.841  14.184   0.880
51115W        W17898  15.587  23.777   4.189
51116W        W17899   7.444  25.151   1.413
51117W        W17900  41.554  35.466  13.027
51118W        W17901   1.200  26.660   3.498
51119W        W17902  23.147  18.528  13.334
51120W        W17903  34.483  34.356  10.540
51121W        W17904  40.285   3.551  14.959
51122W        W17905  37.882  27.149  12.010
51123W        W17906   8.561   0.955   3.098
51124W        W17907   8.792  44.776  13.464
51125W        W17908  39.350   8.112  14.628
51126W        W17909  17.552   2.839  13.049
51127W        W17910  41.875  40.981   0.920
51128W        W17911  43.466  12.732   1.174
51129W        W17912  24.172  28.466   3.240
51130W        W17913  39.430  25.436   0.908
51131W        W17914  10.235  42.366   0.920
51132W        W17915   4.657  41.067  14.798
51133W        W17916  27.019  25.749   2.186
51134W        W17917  12.048  25.838  13.254
51135W        W17918   9.531  20.306  13.505
51136W        W17919  10.889  22.704  14.871
51137W        W17920   6.852  21.168   4.315
51138W        W17921  35.391   5.434   1.627
51139W        W17922  38.798  34.584   3.232
51140W        W17923  24.289  23.290   0.686
51141W        W17924   1.256  18.233  14.452
51142W        W17925   7.351   4.614  13.932
51143W        W17926   8.005   5.435  14.886
51144W        W17927  40.842  21.113   0.456
51145W        W17928   9.074  24.804  11.334
51146W        W17929  44.955  40.685   4.632
51147W        W17930  10.035  13.151   0.094
51148W        W17931   7.580  38.658   1.885
51149W        W17932  39.520  14.168  11.332
51150W        W17933  14.532   3.402   3.380
51151W        W17934   4.339  32.941  10.760
51152W        W17935  15.276  28.213   2.619
51153W        W17936  31.537  37.329   0.346
51154W        W17937  41.424   6.390  12.675
51155W        W17938  41.996  29.076   1.207
51156W        W17939   3.806  15.182  11.565
51157W        W17940  35.021  10.337   3.353
51158W        W17941  41.517  32.641   3.354
51159W        W17942   9.218   6.133   1.319
51160W        W17943  34.598  42.056   3.616
51161W        W17944   1.643  14.279  14.850
51162W        W17945  20.557  20.624   1.610
51163W        W17946   7.689  34.127  13.933
51164W        W17947  44.663  44.727  14.860
51165W        W17948   7.298  34.286  12.461
51166W        W17949  36.592  27.991   1.068
51167W        W17950   4.909  32.452  10.811
51168W        W17951   4.647  32.951  11.162
51169W        W17952  28.496  14.706  12.674
51170W        W17953  40.719  13.496  11.499
51171W        W17954  30.507  40.616   1.753
51172W        W17955  21.553  13.281  11.542
51173W        W17956  14.742   9.785  10.426
51174W        W17957   3.966  21.667  13.256
51175W        W17958   8.318  18.780   2.786
51176W        W17959   3.216  35.090  14.368
51177W        W17960   7.501  14.916  13.757
51178W        W17961  11.675  19.768  12.973
51179W        W17962  27.758  27.212  11.416
51180W        W17963  31.996  21.038  14.406
51181W        W17964  39.883  22.769  12.746
51182W        W17965  11.088   5.708  12.499
51183W        W17966  17.287   8.682   4.552
51184W        W17967  23.766  25.483   0.869
51185W        W17968  15.787  38.763  10.646
51186W        W17969   9.849  30.945   3.062
51187W        W17970  18.166  32.953  13.933
51188W        W17971  25.176  13.193  14.788
51189W        W17972  30.085  39.894  10.431
51190W        W17973  34.633  20.440  14.608
51191W        W17974   7.503  30.042   4.384
51192W        W17975  13.129  13.228   4.508
51193W        W17976  36.674  19.730   4.480
51194W        W17977  24.184  22.649  13.982
51195W        W17978  29.008  26.367   3.107
51196W        W17979   4.339  32.213  11.546
51197W        W17980  43.551  35.117   3.351
51198W        W17981  17.108   3.788  12.916
51199W        W17982  38.554  42.991   2.843
51200W        W17983  28.062  32.005  10.763
51201W        W17984  32.070  25.362  11.890
51202W        W17985   8.901  34.908   2.901
51203W        W17986  17.178  15.260   3.576
51204W        W17987  37.467  12.738  10.727
51205W        W17988  13.500  30.199  13.867
51206W        W17989   6.476  15.195  12.959
51207W        W17990  28.127  22.539  12.043
51208W        W17991  15.952  24.488   3.352
51209W        W17992  36.762  16.303   0.373
51210W        W17993  36.126  38.584  12.006
51211W        W17994   2.751  39.894  14.490
51212W        W17995  12.625  30.681   0.710
51213W        W17996  20.129   1.227   0.033
51214W        W17997  13.814  41.550  12.029
51215W        W17998  18.202  18.918  11.947
51216W        W17999   3.646   2.416   2.383
51217W        W18000  20.568  28.605   3.636
51218W        W18001  40.325  11.695  13.012
51219W        W18002  10.302   6.788   4.175
51220W        W18003  15.697  44.405   0.247
51221W        W18004   8.772  33.589   4.839
51222W        W18005  13.647  27.842  12.827
51223W        W18006  27.966   2.569   0.862
51224W        W18007  43.335  23.465  14.516
51225W        W18008  10.228  17.117   1.773
51226W        W18009  25.899  19.043  12.920
51227W        W18010  15.747   6.984   1.674
51228W        W18011  27.428  31.455   1.863
51229W        W18012  43.681   6.198   4.654
51230W        W18013   6.710  37.394  14.822
51231W        W18014  10.748  14.125   3.870
51232W        W18015  26.568   1.850  11.983
51233W        W18016  39.001  22.581   2.966
51234W        W18017  34.619  15.015  12.394
51235W        W18018   4.718  14.091   4.136
51236W        W18019  29.391  19.747  14.432
51237W        W18020  26.666  26.536  12.245
51238W        W18021  21.695  24.670   1.908
51239W        W18022  22.059   1.246   3.585
51240W        W18023  27.949   9.579  13.177
51241W        W18024  42.944  35.881   1.276
51242W        W18025  40.045  13.312  11.579
51243W        W18026  42.780  12.884  14.497
51244W        W18027  31.636   3.786  13.892
51245W        W18028  18.545  10.312   2.766
51246W        W18029  10.808   4.146  13.858
51247W        W18030  42.331  23.524   2.668
51248W        W18031  37.602   4.428   2.262
51249W        W18032  17.014  44.470  13.451
51250W        W18033  26.159  37.977  11.329
51251W        W18034  33.517  21.833   4.690
51252W        W18035  18.846   1.686   4.256
51253W        W18036  40.839  23.528   4.333
51254W        W18037   5.295  29.029  13.404
51255W        W18038  22.586  44.368  14.280
51256W        W18039   1.953  25.834   0.522
51257W        W18040  17.764  35.481   1.518
51258W        W18041  34.619  14.474  11.627
51259W        W18042  10.217  36.271  12.913
51260W        W18043  36.009  12.872   1.312
51261W        W18044  25.659  19.528   0.373
51262W        W18045  43.415   8.396   1.618
51263W        W18046   4.847  24.796  14.286
51264W        W18047  25.784   0.242  10.295
51265W        W18048  11.539  16.823   4.962
51266W        W18049  42.586  22.056  11.050
51267W        W18050   4.639  39.318  12.656
51268W        W18051   4.519  27.226   4.522
51269W        W18052  28.740  19.676  12.155
51270W        W18053  27.997  19.731  10.312
51271W        W18054  27.716  26.576   3.267
51272W        W18055  34.548  43.701  10.712
51273W        W18056  22.106  28.232  14.230
51274W        W18057  27.697  37.242   0.341
51275W        W18058  40.282  30.035   3.233
51276W        W18059  27.203   9.813   3.703
51277W        W18060  26.449  24.694   5.467
51278W        W18061  21.713   0.253   0.915
51279W        W18062  34.089  28.773  14.422
51280W        W18063  30.108  28.041  14.479
51281W        W18064   5.748  32.097   4.158
51282W        W18065  36.574   6.659  12.902
51283W        W18066  29.207  17.571  11.688
51284W        W18067   2.564  18.630   2.341
51285W        W18068  14.081   0.782  12.007
51286W        W18069  42.786   0.678   4.519
51287W        W18070  14.868  32.688  14.391
51288W        W18071  13.799  44.289  14.576
51289W        W18072  19.498   7.252  13.151
51290W        W18073  29.156  37.324   0.289
51291W        W18074  32.340  18.941   4.553
51292W        W18075   6.672  40.855   3.593
51293W        W18076  10.382  31.434  12.433
51294W        W18077  44.470  19.598  10.793
51295W        W18078  14.665  26.007  14.917
51296W        W18079  17.360  31.096  13.471
51297W        W18080  33.394  29.434  12.121
51298W        W18081  11.420  10.377  11.163
51299W        W18082  27.082   2.907   2.630
51300W        W18083  32.330  32.902  13.659
51301W        W18084   8.745   8.227   2.132
51302W        W18085  11.643  40.826  14.916
51303W        W18086  15.018   9.356   3.113
51304W        W18087  35.200  13.776   1.440
51305W        W18088  32.333  39.959   1.819
51306W        W18089  10.351  31.966  10.707
51307W        W18090  11.723  26.189  12.411
51308W        W18091  23.028  23.709   1.299
51309W        W18092   2.499  30.411  11.205
51310W        W18093   1.528  24.779   0.601
51311W        W18094  33.964   8.499  14.513
51312W        W18095  30.210  29.364   3.602
51313W        W18096   7.901  32.464   0.886
51314W        W18097  13.913  11.874   0.820
51315W        W18098  41.406   8.836  11.370
51316W        W18099  35.707  17.584   1.343
51317W        W18100   5.730  35.789  14.429
51318W        W18101  15.612  38.380  12.859
51319W        W18102   0.653   8.167  11.903
51320W        W18103  14.331  20.638   3.175
51321W        W18104  44.759  40.855  14.964
51322W        W18105  32.218  31.551   4.071
51323W        W18106  43.211  37.810  11.105
51324W        W18107  28.641  28.954  11.965
51325W        W18108  10.329  25.166   0.059
51326W        W18109  31.452   4.412   2.946
51327W        W18110   9.443  24.058  11.656
51328W        W18111  35.190  24.964   2.112
51329W        W18112  22.103  36.997   0.040
51330W        W18113  20.061  21.062  13.000
51331W        W18114  15.961  14.048  14.319
51332W        W18115  27.236  32.107   4.409
51333W        W18116   6.266   3.100   4.944
51334W        W18117  38.351  21.601   1.991
51335W        W18118  37.472  43.291  10.549
51336W        W18119   6.083  22.460   3.818
51337W        W18120  21.155   3.921  12.901
51338W        W18121  41.360  19.617  12.581
51339W        W18122  16.717  21.770  10.916
51340W        W18123  20.167  15.191  11.243
51341W        W18124  26.999  39.098   0.279
51342W        W18125   4.365  31.662  14.456
51343W        W18126  20.591   9.724   4.102
51344W        W18127  34.046   1.323   3.574
51345W        W18128   7.690   4.460  12.088
51346W        W18129   1.871  29.854  11.738
51347W        W18130  24.893   9.964  10.782
51348W        W18131  39.282  16.862  11.993
51349W        W18132  39.995  30.206  13.767
51350W        W18133  28.556   7.147   0.546
51351W        W18134  28.062  22.780   1.294
51352W        W18135   3.865  44.978  14.957
51353W        W18136  23.293  18.550   2.258
51354W        W18137   4.327   4.721  11.197
51355W        W18138  14.754  21.623  11.604
51356W        W18139  26.479  11.082  12.456
51357W        W18140  36.427  29.636  14.412
51358W        W18141  43.643  36.495  13.933
51359W        W18142  28.937  26.197   3.578
51360W        W18143  35.813  29.553   1.721
51361W        W18144  38.556  27.110  13.462
51362W        W18145  14.760  25.288   4.911
51363W        W18146   1.464  13.352   1.863
51364W        W18147  10.783  12.355  11.963
51365W        W18148   2.998   3.172   2.681
51366W        W18149   1.154  38.280  14.478
51367W        W18150  32.634  22.928   4.935
51368W        W18151   3.335  19.513  14.934
51369W        W18152   2.860  42.049  11.901
51370W        W18153  28.801  41.790   0.875
51371W        W18154   2.271  34.928  14.301
51372W        W18155  19.686  11.726   4.146
51373W        W18156   6.625  20.498  10.889
51374W        W18157  29.028  32.333   4.530
51375W        W18158  40.475  26.122   3.219
51376W        W18159  27.590  40.762  13.784
51377W        W18160   3.018   3.242  11.163
51378W        W18161  31.847   6.807   1.863
51379W        W18162   0.247  25.753  11.085
51380W        W18163  14.731  43.184   0.278
51381W        W18164  40.823  24.936   4.227
51382W        W18165   9.178  34.677  12.650
51383W        W18166  11.067   9.512  11.959
51384W        W18167  24.956   7.732  13.312
51385W        W18168  16.242  40.609   0.885
51386W        W18169  24.464   4.342   0.701
51387W        W18170   0.453  23.945  11.591
51388W        W18171  23.516  18.411   4.090
51389W        W18172  17.874  21.180  12.380
51390W        W18173  24.245  36.484  11.618
51391W        W18174  26.564  40.508   0.525
51392W        W18175  42.283  31.759   0.877
51393W        W18176   9.149  32.366  11.997
51394W        W18177  35.403  14.056   3.269
51395W        W18178  17.257  38.334   2.301
51396W        W18179  18.437  27.222   0.320
51397W        W18180  27.264  18.620   1.307
51398W        W18181  43.240  25.088  12.454
51399W        W18182  29.143   1.917   2.462
51400W        W18183   4.392  25.644   0.713
51401W        W18184   7.315  37.965   4.745
51402W        W18185  33.350  31.558  12.912
51403W        W18186  38.144  35.925   2.999
51404W        W18187  29.045  39.324   0.351
51405W        W18188  29.559  41.362   4.173
51406W        W18189  11.854   7.174  11.371
51407W        W18190  27.163  17.586  11.573
51408W        W18191  30.101  14.329  12.472
51409W        W18192  15.763  24.270  11.610
51410W        W18193   3.379   8.717  12.077
51411W        W18194  44.881  10.339  12.003
51412W        W18195  25.858  35.925   2.859
51413W        W18196  23.476  16.719   0.525
51414W        W18197   9.280   3.393  11.208
51415W        W18198   9.248  39.928  12.447
51416W        W18199  31.955  31.979  14.828
51417W        W18200   0.692   3.736   2.686
51418W        W18201  43.047  26.402  11.508
51419W        W18202   7.178  35.284   4.799
51420W        W18203   4.785  34.055  12.295
51421W        W18204  37.853  30.531   0.928
51422W        W18205  30.450  25.515   2.702
51423W        W18206  37.887  39.926   4.566
51424W        W18207  26.651  36.383  11.928
51425W        W18208  22.585   5.073  14.885
51426W        W18209   0.752  40.572   5.253
51427W        W18210  11.764  21.524   4.552
51428W        W18211  20.078  12.189   3.715
51429W        W18212  26.439  17.606  14.590
51430W        W18213  43.128  28.087   3.792
51431W        W18214  27.944  18.309  10.797
51432W        W18215  42.372  14.727  14.449
51433W        W18216  43.347  26.152   4.506
51434W        W18217  35.521  38.999  14.595
51435W        W18218  44.622  14.387   4.993
51436W        W18219  10.427  39.878  11.608
51437W        W18220  27.234  22.984   0.790
51438W        W18221  39.376  28.647   1.806
51439W        W18222  41.526  15.081   0.001
51440W        W18223  42.461  44.736  12.012
51441W        W18224  22.475   3.245  14.989
51442W        W18225  32.743  44.993   1.870
51443W        W18226  18.526   7.260   0.266
51444W        W18227  18.840  38.547   4.117
51445W        W18228  31.380  41.427  11.057
51446W        W18229  41.960  17.599   0.289
51447W        W18230  21.566  33.861   4.129
51448W        W18231  17.282   2.428   2.225
51449W        W18232  32.235  31.640  11.204
51450W        W18233   7.658  40.952   2.134
51451W        W18234  19.282   4.293  11.117
51452W        W18235  35.208  40.164   1.956
51453W        W18236   1.065   7.534  10.168
51454W        W18237  31.697  35.267  12.822
51455W        W18238  13.754  41.450  14.320
51456W        W18239  21.541  39.115  13.242
51457W        W18240  19.846  21.516   0.416
51458W        W18241  31.576  32.092  11.257
51459W        W18242  39.617  40.928   0.879
51460W        W18243  19.963   9.247  10.630
51461W        W18244  44.315  14.506   0.087
51462W        W18245  19.291  41.996   1.871
51463W        W18246   7.180  37.124  14.098
51464W        W18247  15.300  28.532   3.328
51465W        W18248   0.389  18.223  14.784
51466W        W18249  35.124  41.871   4.363
51467W        W18250  31.902   4.829  11.579
51468W        W18251  10.143  29.719  10.644
51469W        W18252   8.689  22.037   1.215
51470W        W18253  20.293  22.419  14.449
51471W        W18254  12.923  18.583   0.429
51472W        W18255  15.381  29.853   2.107
51473W        W18256  28.022  33.919   3.395
51474W        W18257  36.776  38.367   1.881
51475W        W18258   1.797  41.727  11.492
51476W        W18259  31.893   0.070  14.315
51477W        W18260  25.184  29.062  10.025
51478W        W18261  32.597  38.995   2.211
51479W        W18262   2.273  16.823   2.760
51480W        W18263  10.738  24.827   3.369
51481W        W18264   5.422   8.240   2.818
51482W        W18265  12.380  25.122   3.167
51483W        W18266  36.986  33.953  13.817
51484W        W18267   3.903   8.452  13.459
51485W        W18268   6.506  35.587  13.983
51486W        W18269  15.956  31.618   2.727
51487W        W18270  34.579  18.162  14.615
51488W        W18271  40.493  14.496   3.045
51489W        W18272  15.636  35.271   4.573
51490W        W18273  28.599  16.136   0.402
51491W        W18274  43.284  25.463  13.126
51492W        W18275  16.812   3.101   1.836
51493W        W18276  35.420  14.262   2.377
51494W        W18277  30.688  43.918   3.617
51495W        W18278  22.397  29.978  14.436
51496W        W18279  33.835  26.269  11.191
51497W        W18280  43.921  42.111  12.047
51498W        W18281  38.214  10.572  11.488
51499W        W18282   0.857   0.522   0.182
51500W        W18283  22.510  37.417  11.555
51501W        W18284  20.731  11.628  14.352
51502W        W18285  28.479   3.864  13.053
51503W        W18286  42.353   8.917   1.079
51504W        W18287  36.106  35.044  13.807
51505W        W18288  42.056   9.832   0.398
51506W        W18289  27.130   9.188   4.735
51507W        W18290  27.141  18.709   4.128
51508W        W18291  34.710  10.280   0.908
51509W        W18292  15.841  32.614  12.486
51510W        W18293  42.192  43.689   3.664
51511W        W18294   9.826  19.106  14.727
51512W        W18295  15.740  23.705   3.719
51513W        W18296   4.811  36.011   2.294
51514W        W18297  44.572  44.320  11.731
51515W        W18298   1.801  30.064  10.913
51516W        W18299  43.910   3.364   2.269
51517W        W18300  19.047   6.611   0.570
51518W        W18301  11.690  39.228  14.849
51519W        W18302  32.306  42.273  13.792
51520W        W18303  38.791  13.558   0.720
51521W        W18304  35.495   1.723   2.857
51522W        W18305   6.177  30.669  13.556
51523W        W18306   5.153  11.612   3.919
51524W        W18307  24.787  10.147  12.755
51525W        W18308   4.256  35.076  12.384
51526W        W18309  42.800  33.145   4.219
51527W        W18310   2.841  27.171   2.258
51528W        W18311  41.969   9.800  11.943
51529W        W18312  24.250  15.274   2.769
51530W        W18313  10.236  33.182  11.158
51531W        W18314  36.230  17.832   4.706
51532W        W18315   0.187   8.955   1.942
51533W        W18316  28.504  13.353   2.815
51534W        W18317  25.304  22.283  12.987
51535W        W18318   3.827  29.061  12.551
51536W        W18319  20.594   4.413  11.428
51537W        W18320  40.450  19.620   3.178
51538W        W18321  27.103  24.583   0.731
51539W        W18322   2.948  21.484  10.959
51540W        W18323  24.263   6.336  11.142
51541W        W18324  17.827  33.320   1.726
51542W        W18325   9.553  25.078   3.592
51543W        W18326  38.596  16.804   0.792
51544W        W18327  11.789  40.309   1.765
51545W        W18328  36.902  36.755  11.589
51546W        W18329  22.088  22.108  13.951
51547W        W18330   3.720  29.091  14.151
51548W        W18331  34.950   8.873   4.493
51549W        W18332  40.826  26.245   4.552
51550W        W18333  29.918  29.531  11.917
51551W        W18334  23.680  44.746   1.791
51552W        W18335  25.484  21.300   0.718
51553W        W18336   4.452  19.060  12.530
51554W        W18337  30.367  19.690   2.569
51555W        W18338  22.498  35.798  11.149
51556W        W18339  23.573  42.797   4.028
51557W        W18340  14.130   4.216   3.400
51558W        W18341  33.486   4.187   1.448
51559W        W18342  42.589   1.738  14.300
51560W        W18343  31.395  26.259   0.959
51561W        W18344  13.157   5.678   0.605
51562W        W18345   9.889   3.947   2.807
51563W        W18346  26.735  14.159  13.061
51564W        W18347   8.604  43.819   1.329
51565W        W18348   5.666   9.385  13.859
51566W        W18349  40.069  28.155  11.582
51567W        W18350  21.946  28.590  13.903
51568W        W18351  16.751  38.574  13.651
51569W        W18352  34.077  22.644  11.601
51570W        W18353  16.817  32.854  13.538
51571W        W18354  41.293   2.867   4.409
51572W        W18355  22.845   4.954   0.320
51573W        W18356  10.270  15.580   0.326
51574W        W18357  44.710   3.521   2.232
51575W        W18358  13.767   3.136  12.079
51576W        W18359  36.423  31.570   4.891
51577W        W18360  20.032  10.017  12.922
51578W        W18361  17.353  43.841   1.413
51579W        W18362  31.525  13.846  13.844
51580W        W18363  18.199  35.982  12.928
51581W        W18364  37.038   5.211   1.931
51582W        W18365  19.206  23.008   0.959
51583W        W18366  15.024   2.858   2.902
51584W        W18367  25.037   0.208   0.758
51585W        W18368  40.661   2.243   3.541
51586W        W18369   3.353  10.325  10.534
51587W        W18370  13.641  15.726   1.877
51588W        W18371   5.327  18.759  12.450
51589W        W18372  23.548  18.353  13.613
51590W        W18373  32.086  44.042  10.386
51591W        W18374  38.027  14.063   4.748
51592W        W18375  31.363  41.322  12.525
51593W        W18376  34.079  44.686   4.256
51594W        W18377  22.021  19.618   1.334
51595W        W18378   8.796  42.595  14.592
51596W        W18379  29.588  11.393   0.816
51597W        W18380  31.980   5.929  14.515
51598W        W18381  40.546   0.536  11.960
51599W        W18382  42.576  20.526   1.361
51600W        W18383  37.312  17.636   1.451
51601W        W18384  16.581  12.548   2.087
51602W        W18385  14.790  36.164  10.744
51603W        W18386  19.555  24.644   4.610
51604W        W18387  17.785  19.158   0.734
51605W        W18388   4.212  29.549  11.724
51606W        W18389   1.450  27.883  12.409
51607W        W18390  12.644   9.986  11.603
51608W        W18391  24.686   6.166   4.631
51609W        W18392  19.652  39.710  13.760
51610W        W18393  34.035  18.951  13.430
51611W        W18394   1.725  39.378   4.604
51612W        W18395  42.364  27.396   4.908
51613W        W18396   6.596  17.132   4.968
51614W        W18397  33.313  40.226   0.440
51615W        W18398  20.762   3.247   1.362
51616W        W18399   6.430  10.861  13.994
51617W        W18400  43.829  33.003  13.451
51618W        W18401  42.013  37.427  14.994
51619W        W18402   3.847   6.610   2.329
51620W        W18403   7.043  44.849   1.439
51621W        W18404   8.276  39.012  11.508
51622W        W18405  12.610  22.902  14.877
51623W        W18406   5.133   0.944   2.686
51624W        W18407  10.794  22.352  13.822
51625W        W18408  29.434  15.109  12.413
51626W        W18409  27.189  34.540   4.199
51627W        W18410  14.173   5.267   0.873
51628W        W18411  15.209   9.066  13.867
51629W        W18412  27.226   5.198   4.750
51630W        W18413  38.542  39.027  10.150
51631W        W18414  33.091   6.331  14.276
51632W        W18415   8.813  38.042   4.136
51633W        W18416  12.241  19.465   1.079
51634W        W18417  21.977  23.917  10.714
51635W        W18418   5.290  40.946   0.432
51636W        W18419  36.161  22.945  10.982
51637W        W18420  27.603  14.732  12.182
51638W        W18421  32.934  23.585  10.939
51639W        W18422  27.185  15.517   1.119
51640W        W18423  18.970  42.995  10.780
51641W        W18424  43.634  16.203   2.366
51642W        W18425  32.107   6.362  12.780
51643W        W18426  13.569   0.308  10.416
51644W        W18427  13.658   2.894   4.960
51645W        W18428  22.652   7.577  12.352
51646W        W18429  16.726  13.564  13.114
51647W        W18430   0.257   8.460  12.109
51648W        W18431  32.886  24.578   4.661
51649W        W18432  29.782  15.911  11.127
51650W        W18433  35.117  21.290   1.004
51651W        W18434  40.889  26.543  11.622
51652W        W18435  19.783   5.353  14.684
51653W        W18436   0.766  16.626  10.996
51654W        W18437  24.055  30.492   1.181
51655W        W18438   6.646  27.153   2.265
51656W        W18439  38.302  24.718   2.180
51657W        W18440  24.089  35.561   0.770
51658W        W18441  21.074  13.078  11.529
51659W        W18442  41.704  12.452  13.531
51660W        W18443  29.227  23.584   1.275
51661W        W18444   2.292  13.801   3.265
51662W        W18445  21.458  24.350  10.724
51663W        W18446  43.777  23.945   0.146
51664W        W18447   9.337  11.606  10.568
51665W        W18448   6.850   2.663   2.815
51666W        W18449   3.031  19.191  13.173
51667W        W18450  27.283  18.233  12.451
51668W        W18451  17.269   3.939  13.523
51669W        W18452   9.182  42.458   2.860
51670W        W18453  37.673  17.020   4.068
51671W        W18454   2.502  41.092   0.454
51672W        W18455  13.603  17.131  13.955
51673W        W18456  25.438  40.248  14.074
51674W        W18457  20.992   1.391   2.066
51675W        W18458  43.963   6.414   0.683
51676W        W18459  40.000  16.901  12.834
51677W        W18460  28.563  21.812  10.797
51678W        W18461  40.871   8.445   3.125
51679W        W18462  38.584  15.431  12.172
51680W        W18463  18.051  24.896   0.655
51681W        W18464  13.705  18.011   0.718
51682W        W18465  40.678   1.266   3.678
51683W        W18466  27.187  30.048  14.114
51684W        W18467  39.002  30.041  14.253
51685W        W18468  25.323  19.515   2.684
51686W        W18469  23.030  33.807   0.865
51687W        W18470  20.301  31.526  11.172
51688W        W18471   8.319   6.254   3.741
51689W        W18472  32.849  22.345   0.955
51690W        W18473  26.003  21.550   1.436
51691W        W18474   3.823   6.644   2.842
51692W        W18475   3.955  14.317   0.436
51693W        W18476  22.729  34.722  11.994
51694W        W18477   9.661  34.566   4.634
51695W        W18478  43.042  22.561   1.884
51696W        W18479   0.443  43.870  12.968
51697W        W18480   9.612  23.135   0.572
51698W        W18481   2.989  30.072  14.810
51699W        W18482  19.163   4.480   2.159
51700W        W18483  15.753  32.067  11.783
51701W        W18484  21.519   8.694   1.834
51702W        W18485  34.462  44.779  12.142
51703W        W18486   2.680  38.393  12.795
51704W        W18487  13.375  34.583   4.650
51705W        W18488  28.366   6.992   3.385
51706W        W18489  37.617  11.551  14.759
51707W        W18490  42.726   8.781  11.640
51708W        W18491  35.658  11.138   4.676
51709W        W18492  37.382  30.176  11.140
51710W        W18493  19.065  11.866  14.125
51711W        W18494  12.140  34.128   1.325
51712W        W18495   7.232  44.988  10.973
51713W        W18496  19.073  10.751  14.934
51714W        W18497   5.022  28.228   1.713
51715W        W18498  14.103  28.407   4.972
51716W        W18499  32.823  23.725   0.353
51717W        W18500  10.396  19.001  12.001
51718W        W18501  37.549  12.110   1.107
51719W        W18502  44.948  38.983  12.532
51720W        W18503  43.730  26.723   2.787
51721W        W18504  44.165  42.151   1.441
51722W        W18505   3.933  43.866  13.583
51723W        W18506   9.951   5.751  13.810
51724W        W18507  13.290  35.884   2.601
51725W        W18508   6.763  29.413  11.605
51726W        W18509  23.984  37.849   2.796
51727W        W18510  10.986   4.105  11.428
51728W        W18511  26.893   7.138   1.516
51729W        W18512  15.353   8.720   4.406
51730W        W18513   9.766  15.599  13.582
51731W        W18514  35.617  21.335   1.848
51732W        W18515  44.225   7.350  12.168
51733W        W18516  31.638  36.067  13.302
51734W        W18517  29.410   5.389   4.347
51735W        W18518   7.708  17.945   3.752
51736W        W18519   4.470  11.707  12.576
51737W        W18520  43.836  31.490   3.998
51738W        W18521  31.935  41.473  14.516
51739W        W18522  37.810  37.500  14.944
51740W        W18523   6.409  20.796   0.346
51741W        W18524  14.238  19.197   1.396
51742W        W18525  10.949  17.785  12.576
51743W        W18526   8.329  19.748   0.809
51744W        W18527   4.450  37.928  12.546
51745W        W18528   7.524   6.806  11.244
51746W        W18529  18.304   6.915   3.711
51747W        W18530   1.050  23.701   0.838
51748W        W18531  36.992   7.236   1.603
51749W        W18532  36.066  43.445  11.507
51750W        W18533  17.310   5.166  11.119
51751W        W18534  44.077  10.393   4.562
51752W        W18535  21.680  15.678   0.883
51753W        W18536  43.873  20.670  10.707
51754W        W18537  40.771  10.412  11.211
51755W        W18538   7.242  29.086  13.412
51756W        W18539   9.362   9.758   4.807
51757W        W18540   0.408  12.989   4.498
51758W        W18541   1.275  23.988   1.829
51759W        W18542  28.383  17.631   1.750
51760W        W18543   5.174  34.463  13.698
51761W        W18544  12.682  37.636   0.629
51762W        W18545  42.949  26.069   4.849
51763W        W18546  29.672  18.317   0.982
51764W        W18547  38.115   8.779   3.247
51765W        W18548  21.454  29.684  13.667
51766W        W18549  21.671   2.428  12.004
51767W        W18550  22.911  33.233   2.865
51768W        W18551   2.825  44.502   5.087
51769W        W18552  32.387   2.721  13.516
51770W        W18553  32.537  39.256   1.411
51771W        W18554  16.825  30.248  12.124
51772W        W18555  38.042  30.051   4.166
51773W        W18556  24.490  18.988   2.136
51774W        W18557  14.147  36.678  13.813
51775W        W18558  16.476  14.106   3.578
51776W        W18559  30.939  31.713  13.256
51777W        W18560  13.386  39.312  14.947
51778W        W18561  29.976  28.810  14.027
51779W        W18562  41.947  36.963   2.390
51780W        W18563   4.207   4.759  12.145
51781W        W18564   0.361  38.100   2.668
51782W        W18565  35.461  13.844  14.768
51783W        W18566   9.115   1.308  14.591
51784W        W18567  10.089   5.467  14.259
51785W        W18568  22.618  39.844   4.605
51786W        W18569  18.370  39.740  14.353
51787W        W18570  31.955  30.527   0.026
51788W        W18571  43.256  40.352   4.432
51789W        W18572   0.786  35.770  14.408
51790W        W18573  18.801  44.843   1.889
51791W        W18574  18.649  27.392   1.174
51792W        W18575  22.292  36.919   0.507
51793W        W18576  36.268  19.373   5.175
51794W        W18577  11.142  43.846   2.344
51795W        W18578  23.144  40.408  10.710
51796W        W18579  41.340  24.939   2.183
51797W        W18580  28.864  20.042   2.474
51798W        W18581  32.387   4.570   4.104
51799W        W18582   5.912  42.843  10.445
51800W        W18583  42.494  29.557   4.452
51801W        W18584  19.136  24.125   1.467
51802W        W18585  25.139  26.502  12.820
51803W        W18586  41.958  38.426   4.447
51804W        W18587  39.438  44.095  11.969
51805W        W18588  44.113  40.118  12.876
51806W        W18589  29.919  31.892  11.706
51807W        W18590  36.155  16.388  13.393
51808W        W18591  41.511  11.773  11.080
51809W        W18592  27.607  28.753  11.383
51810W        W18593   2.236  10.169   0.747
51811W        W18594  32.538  33.594   9.998
51812W        W18595  33.601  32.481  11.816
51813W        W18596  37.113  37.552  13.296
51814W        W18597  19.206   6.230  12.119
51815W        W18598  42.767  15.630  12.067
51816W        W18599  30.102   0.600   1.793
51817W        W18600  15.179  40.118   0.085
51818W        W18601  44.779  29.630  13.302
51819W        W18602  36.897  44.530   3.439
51820W        W18603  35.120  26.766  12.042
51821W        W18604  27.145   7.835  10.659
51822W        W18605  18.098  38.797   0.464
51823W        W18606   9.259   7.456  13.982
51824W        W18607   5.107  22.626  11.531
51825W        W18608  27.591   8.686   4.032
51826W        W18609   7.528  24.732   0.173
51827W        W18610  25.465   6.392  14.350
51828W        W18611   8.045  18.532   2.353
51829W        W18612  27.007  44.816  10.760
51830W        W18613  11.781  32.844   0.859
51831W        W18614  33.343   1.383  12.040
51832W        W18615  33.151  40.714   0.397
51833W        W18616  40.444   1.913   0.457
51834W        W18617  44.859  27.919  11.461
51835W        W18618  31.180  19.655   0.780
51836W        W18619   0.939  34.852  14.869
51837W        W18620   2.911  36.744  14.749
51838W        W18621  16.371  42.315   1.313
51839W        W18622  44.947  35.579   0.918
51840W        W18623   7.965  23.675   4.199
51841W        W18624  37.322  22.688  11.934
51842W        W18625  11.942  39.864  10.301
51843W        W18626  38.277   3.315   3.779
51844W        W18627   0.423   0.084   1.839
51845W        W18628  28.386  32.168  13.924
51846W        W18629  17.871   5.398  11.942
51847W        W18630   7.384  37.987   0.148
51848W        W18631  11.344  11.762  12.564
51849W        W18632  12.558   9.303  12.197
51850W        W18633  42.934   4.136  14.846
51851W        W18634  34.130  22.983   4.162
51852W        W18635  26.625   1.560   2.910
51853W        W18636  21.221  21.233   3.242
51854W        W18637  32.065   9.634  10.436
51855W        W18638  25.439  11.637   1.016
51856W        W18639  34.396  11.297  10.979
51857W        W18640  25.543   5.209  11.528
51858W        W18641  32.200  18.678   3.884
51859W        W18642   2.499  24.474  14.057
51860W        W18643  10.836  21.843  13.713
51861W        W18644  37.913  39.080   3.257
51862W        W18645  12.240  40.548   4.098
51863W        W18646   2.761  15.634   3.147
51864W        W18647   8.600  31.115  12.985
51865W        W18648  44.345   6.847  12.201
51866W        W18649  18.197  34.985  14.470
51867W        W18650   8.878  34.139  13.311
51868W        W18651  42.989  21.080  14.952
51869W        W18652  19.681  28.179   2.314
51870W        W18653  17.843  42.504  13.313
51871W        W18654   0.958   8.392  12.858
51872W        W18655  37.413  31.952  10.716
51873W        W18656  19.826   1.817  14.495
51874W        W18657  11.318  21.256   1.717
51875W        W18658  16.646   6.241   0.311
51876W        W18659  31.033   3.891  12.461
51877W        W18660  28.419  20.002  11.062
51878W        W18661  10.377  42.340  12.091
51879W        W18662  34.018  38.916  10.486
51880W        W18663  25.054  38.774   1.188
51881W        W18664  37.524  14.632  14.558
51882W        W18665  21.776  41.306  14.836
51883W        W18666   9.147  44.253   2.707
51884W        W18667  42.489  28.001   0.844
51885W        W18668  14.547   2.446  11.533
51886W        W18669  24.663  26.708  12.533
51887W        W18670  44.570  17.167   1.357
51888W        W18671  37.866  35.534  11.926
51889W        W18672  23.566  28.580  12.405
51890W        W18673  16.665  10.681   1.342
51891W        W18674  19.526  15.246   0.073
51892W        W18675  14.330  19.580  10.601
51893W        W18676  42.918  19.797   0.962
51894W        W18677  21.137  26.513   1.698
51895W        W18678  10.295  37.876  13.533
51896W        W18679  12.118   9.511   1.684
51897W        W18680  30.425  42.476   1.140
51898W        W18681  13.403  25.151  12.002
51899W        W18682  12.349  11.813  10.110
51900W        W18683   9.600  16.310   2.238
51901W        W18684  36.878  10.322   3.576
51902W        W18685   4.986   5.340   3.031
51903W        W18686   8.108  17.017   1.707
51904W        W18687   4.292  18.234  13.543
51905W        W18688  31.325   4.098   0.864
51906W        W18689  12.699  32.600   1.867
51907W        W18690   7.488  26.024  14.408
51908W        W18691   1.662  10.853  10.584
51909W        W18692  26.131  29.725   3.225
51910W        W18693  30.897  30.101  13.747
51911W        W18694   0.510  10.918   1.227
51912W        W18695  20.743   2.292   3.270
51913W        W18696   9.599  41.921   4.347
51914W        W18697   1.540  35.303   0.168
51915W        W18698  39.389  10.211   3.955
51916W        W18699  21.573  21.153   0.693
51917W        W18700  36.976  44.146  11.575
51918W        W18701   9.442  15.218   4.330
51919W        W18702   2.640  42.506  13.733
51920W        W18703   8.707  41.785  10.852
51921W        W18704  10.298  10.898  10.851
51922W        W18705  40.473  32.674  14.002
51923W        W18706   7.542  36.352  12.971
51924W        W18707  35.386  10.515  11.485
51925W        W18708  18.800  24.072   4.618
51926W        W18709  39.900  17.393   4.610
51927W        W18710  11.218   3.387  13.564
51928W        W18711  21.531  22.071   0.728
51929W        W18712  21.532   1.286   0.960
51930W        W18713  39.416  20.475  12.048
51931W        W18714   1.832  30.778  10.788
51932W        W18715  30.066  11.315  12.191
51933W        W18716   4.451   2.282   0.957
51934W        W18717  34.701  17.998  11.349
51935W        W18718  25.722   6.499  13.447
51936W        W18719  24.100  43.853  13.018
51937W        W18720  19.654  42.281  14.258
51938W        W18721  38.955  13.792   3.582
51939W        W18722  34.147  14.156  12.545
51940W        W18723   9.133  20.028   3.863
51941W        W18724  23.522  12.831   1.815
51942W        W18725  21.175  28.709   2.355
51943W        W18726  22.875  37.660  14.840
51944W        W18727  35.846   2.767   0.954
51945W        W18728  34.116   1.572  13.395
51946W        W18729  33.107  31.923   0.348
51947W        W18730  41.216  38.795  13.316
51948W        W18731   0.994  21.339  11.241
51949W        W18732  15.278  41.569   1.938
51950W        W18733  14.226  28.075   0.589
51951W        W18734  14.157  44.488   3.191
51952W        W18735  29.083  11.092  14.865
51953W        W18736  31.653  31.621  12.066
51954W        W18737  42.263   6.375  10.389
51955W        W18738  19.988  21.580   2.856
51956W        W18739  11.694  36.439   3.195
51957W        W18740  22.226  37.910  12.031
51958W        W18741  18.053  19.083   0.256
51959W        W18742  12.205  31.185  12.158
51960W        W18743   0.526  29.950   1.763
51961W        W18744  31.668  39.670   2.793
51962W        W18745  14.520  30.989   1.940
51963W        W18746   7.245  37.988   2.667
51964W        W18747   2.933  16.339   2.369
51965W        W18748   4.848  35.580   4.477
51966W        W18749  41.972  34.964   0.286
51967W        W18750   3.015  20.172  14.154
51968W        W18751   3.970  32.358  13.327
51969W        W18752  10.306   0.878  11.605
51970W        W18753  29.164  37.002  12.103
51971W        W18754   5.302   2.386  12.676
51972W        W18755   2.226  41.492   4.215
51973W        W18756  26.654  23.113  10.207
51974W        W18757  16.097   9.875  14.790
51975W        W18758  22.747   4.553   1.721
51976W        W18759  42.485   8.587   3.063
51977W        W18760  30.663   3.869  13.813
51978W        W18761  44.289   3.651  14.396
51979W        W18762  36.998  22.558  10.615
51980W        W18763  44.440  34.979   3.671
51981W        W18764  39.533  37.851  12.664
51982W        W18765  41.583   0.332  13.281
51983W        W18766  40.888  33.928   2.696
51984W        W18767  19.382  13.655  10.718
51985W        W18768  11.802  34.071  12.997
51986W        W18769  41.674  30.897  11.527
51987W        W18770   8.635  41.468   1.430
51988W        W18771  42.959  43.812  13.806
51989W        W18772  14.736  38.204   3.719
51990W        W18773  33.242  21.925  14.544
51991W        W18774  13.399  31.066   0.458
51992W        W18775  14.643  18.016  11.363
51993W        W18776   9.333   5.621   1.371
51994W        W18777  41.292  43.237   0.862
51995W        W18778  22.711   9.998  14.247
51996W        W18779  27.776  24.107   0.037
51997W        W18780  15.506   0.715  12.571
51998W        W18781  34.162  18.138  13.885
51999W        W18782   2.695   5.208   3.758
52000W        W18783  34.227  23.117  11.952
52001W        W18784   7.322   6.935  12.988
52002W        W18785  30.980  20.588   5.303
52003W        W18786   8.289  44.690  14.947
52004W        W18787  36.010  22.998   3.796
52005W        W18788  24.776  31.195   4.610
52006W        W18789  22.084  22.024   0.548
52007W        W18790  33.928  24.451  12.405
52008W        W18791  33.406   3.734   2.201
52009W        W18792   4.923  42.331   4.251
52010W        W18793   2.182  43.852   3.775
52011W        W18794   1.354   0.983  13.896
52012W        W18795  33.074  32.942   0.333
52013W        W18796  33.285  31.041   0.825
52014W        W18797  20.176  11.895   4.310
52015W        W18798  39.293  26.933  14.045
52016W        W18799  30.843  23.670  13.340
52017W        W18800  24.130  12.138  14.345
52018W        W18801  38.148  33.484  12.018
52019W        W18802  26.556  35.433   2.688
52020W        W18803  14.615  31.342  12.953
52021W        W18804  22.048  16.413  13.028
52022W        W18805  30.420  16.671   3.515
52023W        W18806   7.228  39.747   2.276
52024W        W18807  20.089   1.961  12.981
52025W        W18808  21.491  33.968   0.918
52026W        W18809  11.264  19.777  12.276
52027W        W18810   9.792   3.353  13.896
52028W        W18811  34.155  10.840  11.121
52029W        W18812   2.015  23.089  10.904
52030W        W18813  15.830  39.177   3.562
52031W        W18814  25.785  13.426  10.760
52032W        W18815  31.993   1.780  14.508
52033W        W18816  27.459  40.325  12.978
52034W        W18817   3.452  25.098  14.823
52035W        W18818   9.626  38.896   0.258
52036W        W18819  43.827  18.655   1.413
52037W        W18820  25.821   0.712  11.626
52038W        W18821   5.808  20.001  12.909
52039W        W18822  40.090  10.404   5.038
52040W        W18823   5.031  25.129   4.962
52041W        W18824  37.414  10.298  11.447
52042W        W18825  30.125  23.575  10.633
52043W        W18826   6.905  33.452  14.469
52044W        W18827  35.652  42.591  11.031
52045W        W18828  21.838  36.746  11.602
52046W        W18829  15.519  37.515  11.603
52047W        W18830  38.072  24.623   4.305
52048W        W18831  13.022   1.921   0.185
52049W        W18832  37.589   5.161   2.334
52050W        W18833   9.799   5.990  10.434
52051W        W18834  30.205   0.712  13.991
52052W        W18835  33.687  38.550  11.199
52053W        W18836  30.484  31.173  14.778
52054W        W18837  18.401  32.009   1.902
52055W        W18838   5.861  44.109   0.849
52056W        W18839   2.614  33.894  12.002
52057W        W18840  31.338   8.227   3.621
52058W        W18841  14.550  43.265   1.824
52059W        W18842  10.753  41.881   2.263
52060W        W18843  27.023   7.692   3.221
52061W        W18844  32.099  18.464  10.741
52062W        W18845  11.728  36.900  12.380
52063W        W18846  17.225  23.515   1.291
52064W        W18847   0.559   6.325  13.792
52065W        W18848   7.298  26.168   1.242
52066W        W18849   5.594  42.808   4.214
52067W        W18850  26.390  31.854  14.942
52068W        W18851  27.607  12.777   3.674
52069W        W18852  26.921  17.670   2.129
52070W        W18853  18.804   8.415   0.828
52071W        W18854  16.320   1.961  11.540
52072W        W18855  36.578  11.834   2.207
52073W        W18856  22.853  15.021   2.780
52074W        W18857  30.964  29.352   2.760
52075W        W18858  11.380  39.635  12.037
52076W        W18859   9.396   2.772   3.572
52077W        W18860  15.686  32.080  14.561
52078W        W18861  22.183  39.539   4.665
52079W        W18862   5.892  24.181   4.619
52080W        W18863  34.092  23.542   4.527
52081W        W18864  42.612  44.311   4.734
52082W        W18865  30.965  16.154  12.196
52083W        W18866   4.351  19.524  11.681
52084W        W18867  36.399  27.027   4.106
52085W        W18868   6.342   1.287  12.937
52086W        W18869  32.187  12.580   4.135
52087W        W18870  39.920  22.049  10.589
52088W        W18871  33.944  36.641   2.645
52089W        W18872  26.281   7.040  11.175
52090W        W18873   7.231  19.204   1.449
52091W        W18874  40.222  40.101   0.414
52092W        W18875  27.528  25.881   0.385
52093W        W18876  19.456  18.340   0.255
52094W        W18877  13.592   5.709  13.040
52095W        W18878  36.557  21.831   5.057
52096W        W18879  11.898  36.917   9.874
52097W        W18880   3.814  10.283  10.783
52098W        W18881  25.409  42.326   4.509
52099W        W18882  33.667   1.526   1.817
52100W        W18883   6.856  40.281   0.310
52101W        W18884  41.916   1.288  11.611
52102W        W18885  13.265  26.967   2.786
52103W        W18886   9.328  39.134   3.298
52104W        W18887  10.791  37.704   0.394
52105W        W18888  17.941  40.523   4.484
52106W        W18889  20.597   5.916  14.335
52107W        W18890  28.386  25.990   2.230
52108W        W18891   9.569  23.546  13.457
52109W        W18892  29.848  42.292  13.824
52110W        W18893   1.291  33.378   4.926
52111W        W18894  38.306   2.523   3.351
52112W        W18895  32.990  11.599  11.135
52113W        W18896  43.741  22.099   3.211
52114W        W18897  28.235   6.364   2.847
52115W        W18898  40.557   5.127   2.281
52116W        W18899  21.771  37.903   1.390
52117W        W18900   8.257  26.176  11.025
52118W        W18901  44.321  10.214   3.741
52119W        W18902  16.836   6.862  13.037
52120W        W18903  29.833  24.385   0.323
52121W        W18904  10.386  14.595   1.593
52122W        W18905  26.072  42.296   0.746
52123W        W18906   7.426  37.488   0.363
52124W        W18907   8.697   7.768  12.934
52125W        W18908  17.168  12.827  14.461
52126W        W18909  40.409  38.607  13.924
52127W        W18910  13.588  18.738   1.356
52128W        W18911  23.602   8.481   4.403
52129W        W18912   2.903  31.195  11.868
52130W        W18913  43.009  17.193  11.464
52131W        W18914  42.344  34.003   3.860
52132W        W18915   2.756  13.198   2.418
52133W        W18916  22.532  37.447  12.566
52134W        W18917  19.150  16.843   0.783
52135W        W18918  12.585  22.087  12.890
52136W        W18919  10.887  43.942  12.559
52137W        W18920  11.267  15.714  13.913
52138W        W18921  19.864  42.707   3.103
52139W        W18922  20.764  17.113  12.914
52140W        W18923  28.067   5.344   2.601
52141W        W18924  16.362  35.126  13.987
52142W        W18925  35.850  19.483  14.438
52143W        W18926  34.923   3.657  12.527
52144W        W18927  40.081   7.762   0.242
52145W        W18928  37.769   2.743  14.393
52146W        W18929  33.125  29.612   0.818
52147W        W18930  44.983  13.829  13.519
52148W        W18931  21.535   0.754  13.473
52149W        W18932  33.966   7.321  13.763
52150W        W18933  44.470  41.959  11.902
52151W        W18934  15.936  39.088   3.069
52152W        W18935  24.187  30.126  12.232
52153W        W18936   9.748  44.255  10.417
52154W        W18937  11.887  34.530  10.400
52155W        W18938  37.946  14.115   3.171
52156W        W18939  42.825  19.558   3.243
52157W        W18940  41.544   4.797   0.963
52158W        W18941  42.004  33.067  13.020
52159W        W18942  25.991  39.670  13.052
52160W        W18943  23.191  13.820  14.806
52161W        W18944  21.280   0.953  14.389
52162W        W18945  20.137  10.240   2.212
52163W        W18946  44.863  24.321  12.977
52164W        W18947   6.143  26.456  12.234
52165W        W18948  44.764  34.991  11.554
52166W        W18949  39.980  22.829  11.048
52167W        W18950  44.570  38.738   2.380
52168W        W18951   8.707  38.721  10.586
52169W        W18952  43.529  37.997  13.587
52170W        W18953   6.114  31.749   1.394
52171W        W18954   3.890  18.629   4.433
52172W        W18955  44.111  37.348  13.905
52173W        W18956  38.613  29.224  12.442
52174W        W18957   8.765   5.599   3.139
52175W        W18958   0.740  29.867   0.446
52176W        W18959  18.395  32.622  13.095
52177W        W18960  35.796  28.106  13.941
52178W        W18961  42.334  34.995  13.417
52179W        W18962  18.134  40.025   3.683
52180W        W18963  16.454   7.263  13.308
52181W        W18964  29.867  21.133   3.655
52182W        W18965  12.674  18.839  12.890
52183W        W18966  11.616   0.277   3.743
52184W        W18967  16.104  19.619   1.007
52185W        W18968  25.689  36.409   2.433
52186W        W18969  37.238  18.216   1.723
52187W        W18970  34.971  24.206  12.121
52188W        W18971  38.616  10.185   2.125
52189W        W18972  21.478  18.837  12.106
52190W        W18973  12.093  25.522  11.207
52191W        W18974  24.878  39.435   5.191
52192W        W18975  21.369  24.286   1.918
52193W        W18976  13.243  28.137  11.548
52194W        W18977  14.209  11.843   0.026
52195W        W18978   7.482  19.622   3.653
52196W        W18979  14.371  41.416  13.788
52197W        W18980  21.961  18.628  12.013
52198W        W18981  27.066  33.935   0.393
52199W        W18982  14.156   1.692  11.849
52200W        W18983  21.725  17.153  14.769
52201W        W18984   7.931  15.879  12.071
52202W        W18985   3.136  34.007  11.159
52203W        W18986  20.734  20.987   4.625
52204W        W18987   6.344  23.540   2.206
52205W        W18988  10.058   2.661  11.981
52206W        W18989   5.703  29.965   2.601
52207W        W18990  32.677   9.277   4.005
52208W        W18991  32.155  38.421  10.855
52209W        W18992  17.526  32.607   3.401
52210W        W18993  38.157  13.220   4.183
52211W        W18994  30.280  22.990   4.437
52212W        W18995  31.056  30.498  12.478
52213W        W18996  18.148  44.370  13.956
52214W        W18997  17.599  37.410   3.667
52215W        W18998  19.172   9.263   2.127
52216W        W18999  43.285  19.133  12.578
52217W        W19000  34.568  27.280   2.184
52218W        W19001  23.515  37.797   4.373
52219W        W19002  17.614  33.665  11.735
52220W        W19003  26.101   1.657  14.001
52221W        W19004   2.111   2.321   0.212
52222W        W19005   0.356  15.912  10.275
52223W        W19006  18.792  20.537   0.743
52224W        W19007  32.360  19.214  14.508
52225W        W19008   9.329   1.855   3.784
52226W        W19009  22.006  28.393  10.120
52227W        W19010  16.811  37.153   1.756
52228W        W19011  11.694  27.006  14.505
52229W        W19012  10.709   8.623   1.120
52230W        W19013   6.354  38.519  13.518
52231W        W19014   3.533   4.827   4.559
52232W        W19015   6.973   0.939  14.025
52233W        W19016  38.667   2.582   0.263
52234W        W19017  39.523   3.380  14.809
52235W        W19018   4.211  28.393   1.261
52236W        W19019  15.585  16.697   2.335
52237W        W19020  29.983  30.379  13.993
52238W        W19021  43.057  26.796  12.772
52239W        W19022  34.437  16.115  11.623
52240W        W19023  14.947  32.116   4.924
52241W        W19024  24.168  39.076   3.269
52242W        W19025  37.501  29.814  13.100
52243W        W19026  43.808  41.601  12.176
52244W        W19027  16.086  19.318  12.524
52245W        W19028   0.881   2.074   2.306
52246W        W19029  24.988   2.881   3.572
52247W        W19030  20.667  29.209  11.650
52248W        W19031   1.911  13.609  14.762
52249W        W19032   8.795  16.172  14.349
52250W        W19033  38.776  42.851   4.148
52251W        W19034  20.233  13.211  11.039
52252W        W19035   7.366   1.923  14.386
52253W        W19036   9.638  20.112   2.611
52254W        W19037  18.996   2.281   3.057
52255W        W19038  18.241   2.417  13.247
52256W        W19039  40.853  39.066  14.726
52257W        W19040  15.095  41.506  11.035
52258W        W19041  22.529  28.700   2.689
52259W        W19042  29.700  20.885  13.314
52260W        W19043  21.260  40.809   1.285
52261W        W19044  17.502  23.990  12.921
52262W        W19045  40.325  32.414   3.524
52263W        W19046  31.587   9.265   1.936
52264W        W19047  20.590  21.132   4.132
52265W        W19048  41.536   6.465   3.195
52266W        W19049  26.655  17.751  12.022
52267W        W19050   6.242  11.201  10.369
52268W        W19051  37.898   0.952   4.662
52269W        W19052  32.827   9.148  11.644
52270W        W19053  41.033  12.467  12.955
52271W        W19054   7.762  31.837  14.546
52272W        W19055   1.207  23.718   1.383
52273W        W19056  12.604  30.135   3.830
52274W        W19057  34.017  43.873   4.675
52275W        W19058   6.660  39.068  12.373
52276W        W19059   2.952  32.574   1.258
52277W        W19060  44.692  28.621   0.842
52278W        W19061  43.636  20.200  10.630
52279W        W19062  25.393   0.883  14.453
52280W        W19063  14.309   5.828  11.349
52281W        W19064  43.613   7.944   1.496
52282W        W19065   8.032  25.597  13.871
52283W        W19066  19.718  23.662  13.465
52284W        W19067  22.767  31.469   4.014
52285W        W19068  26.815   0.019   3.753
52286W        W19069  40.544  40.551   4.028
52287W        W19070  12.566  14.030   0.751
52288W        W19071  34.025  36.348   4.540
52289W        W19072  41.851  33.846   1.731
52290W        W19073  21.741  22.859  10.994
52291W        W19074  24.046  43.145  13.743
52292W        W19075  32.398  42.214   2.145
52293W        W19076  12.655  10.815   2.354
52294W        W19077   3.793  24.554   3.884
52295W        W19078  28.658  31.414  13.457
52296W        W19079  20.785  24.812   0.909
52297W        W19080  28.610  33.827   2.427
52298W        W19081  21.925  38.580  13.011
52299W        W19082  26.587  11.571  13.928
52300W        W19083  30.105  27.397  11.132
52301W        W19084  28.805   1.329   4.933
52302W        W19085  42.309  27.898   4.163
52303W        W19086  13.636   4.482  10.816
52304W        W19087  38.135  35.567   0.238
52305W        W19088   6.584  27.802  11.142
52306W        W19089  13.317  34.018  14.815
52307W        W19090  33.904  15.792  13.796
52308W        W19091  32.109  18.718   1.891
52309W        W19092  22.560   6.855   0.611
52310W        W19093  31.715  27.001  11.381
52311W        W19094  25.649  19.690  11.133
52312W        W19095  33.613  10.765   3.987
52313W        W19096  38.597  13.358   1.848
52314W        W19097  35.850  21.175  11.192
52315W        W19098  13.092  40.303  13.499
52316W        W19099  33.613  43.814   4.084
52317W        W19100  13.729  17.512   0.733
52318W        W19101  12.039  44.809  14.262
52319W        W19102  11.346  12.839  12.513
52320W        W19103   9.709  44.861   3.655
52321W        W19104   5.217  33.643   3.372
52322W        W19105  16.582  23.487   0.726
52323W        W19106  31.567  13.272   4.824
52324W        W19107  14.303  43.273   3.759
52325W        W19108  42.692  11.116  13.350
52326W        W19109  29.619  29.244   3.630
52327W        W19110  44.510  25.116   0.806
52328W        W19111  22.117  12.540   4.381
52329W        W19112  35.330  37.004   0.248
52330W        W19113  19.736  23.650   4.654
52331W        W19114   1.497  29.572  14.069
52332W        W19115  12.812  23.868   3.893
52333W        W19116  44.500  25.967  13.003
52334W        W19117   5.435  21.848   4.135
52335W        W19118   8.278  17.308   3.651
52336W        W19119  21.001  26.314   4.230
52337W        W19120  20.028   9.458  11.107
52338W        W19121  41.311  29.920  13.868
52339W        W19122  39.763  34.870  11.587
52340W        W19123   8.423  31.147   4.566
52341W        W19124  43.755  38.420   4.826
52342W        W19125   3.918  19.230   0.402
52343W        W19126   2.488  24.199  13.101
52344W        W19127  40.249  36.224   0.693
52345W        W19128  12.720  36.570   2.166
52346W        W19129  14.764  13.553   2.447
52347W        W19130  37.707   8.169   2.310
52348W        W19131  12.283  25.515  14.544
52349W        W19132  39.500  23.777  13.662
52350W        W19133  44.531  21.599  14.332
52351W        W19134  12.426  29.087  10.768
52352W        W19135  31.183   6.782   4.554
52353W        W19136  22.471  30.612  12.458
52354W        W19137   0.077  16.579   2.370
52355W        W19138  34.666  23.598   2.792
52356W        W19139   3.195  36.499   4.287
52357W        W19140  27.676  19.249   0.858
52358W        W19141  32.821  40.434  12.504
52359W        W19142  34.178  34.848  11.174
52360W        W19143   6.383  25.144   5.067
52361W        W19144  36.169  13.641   3.211
52362W        W19145  24.436  18.310   1.669
52363W        W19146  25.914  27.915   4.611
52364W        W19147  34.514  44.453   4.165
52365W        W19148  40.341  41.526   4.176
52366W        W19149  13.351   5.747  13.618
52367W        W19150   8.409   9.377  13.138
52368W        W19151  36.379  10.219  13.637
52369W        W19152  42.472  16.368  13.017
52370W        W19153  44.680  16.390  13.009
52371W        W19154  12.144  16.761  14.449
52372W        W19155  12.278  28.604   1.685
52373W        W19156  33.418  33.880  13.376
52374W        W19157  11.737  40.885  13.997
52375W        W19158  34.116   5.124   3.282
52376W        W19159   6.885  12.558   3.156
52377W        W19160  36.883   3.968   0.365
52378W        W19161  16.161  24.029   3.712
52379W        W19162   6.799  11.655   1.715
52380W        W19163   9.286  14.723   3.296
52381W        W19164   7.758  37.788  10.575
52382W        W19165  20.734  43.653  11.902
52383W        W19166  25.001   2.210   0.199
52384W        W19167  35.555  30.358  13.455
52385W        W19168  44.129  10.746  10.991
52386W        W19169  31.158  20.938   3.266
52387W        W19170  35.586  10.151  11.168
52388W        W19171  17.159  41.396   2.876
52389W        W19172  35.555  12.595  13.316
52390W        W19173  41.129  25.932   4.276
52391W        W19174  33.997   9.160   2.260
52392W        W19175  25.252  21.615  12.883
52393W        W19176  15.812  28.170  12.915
52394W        W19177   4.221   0.512  11.087
52395W        W19178  25.233  13.115   0.802
52396W        W19179  44.388  40.003   3.226
52397W        W19180  16.866  22.983   0.742
52398W        W19181  27.967  42.753   1.971
52399W        W19182  13.466  17.320   3.199
52400W        W19183  39.587  31.090  11.840
52401W        W19184  24.139   2.005   3.137
52402W        W19185   2.307  11.453  11.636
52403W        W19186   4.481  13.030  14.180
52404W        W19187  19.054  19.287   0.458
52405W        W19188  16.300   4.016  13.098
52406W        W19189   3.878  19.966   3.687
52407W        W19190  41.024  37.089  11.644
52408W        W19191  13.584  35.887   0.195
52409W        W19192  32.717   7.843   1.362
52410W        W19193  40.520  39.466  11.989
52411W        W19194  25.189   7.705  12.039
52412W        W19195  18.060  17.003  10.790
52413W        W19196  27.739  30.617   4.567
52414W        W19197   7.254  28.869   1.428
52415W        W19198   5.839  30.504   4.314
52416W        W19199  39.968  21.622   2.695
52417W        W19200  29.455  29.645  12.077
52418W        W19201  41.511  31.859   0.391
52419W        W19202  35.179  18.417   1.002
52420W        W19203  29.490  44.979  11.333
52421W        W19204  29.927  12.229   2.026
52422W        W19205  16.267  39.426   3.364
52423W        W19206  36.151  11.853   1.201
52424W        W19207  19.522  12.856   4.177
52425W        W19208  24.881  17.037  12.320
52426W        W19209  20.174  33.400   4.403
52427W        W19210  37.086  40.170   0.017
52428W        W19211   0.674  37.886  11.207
52429W        W19212  27.739  12.785  14.509
52430W        W19213  26.560   7.110  10.280
52431W        W19214  39.033  16.210  10.884
52432W        W19215   3.369  40.377  12.927
52433W        W19216  28.949   7.111  12.902
52434W        W19217   3.365  20.434  13.899
52435W        W19218  13.609   8.669   5.422
52436W        W19219  20.356  13.345  13.986
52437W        W19220  22.498  12.697  11.899
52438W        W19221  28.228   9.210   4.157
52439W        W19222  28.407  39.248   1.941
52440W        W19223  26.535  14.630   3.088
52441W        W19224  25.914  39.282  14.030
52442W        W19225  14.194  17.867  11.127
52443W        W19226  42.095  31.145  13.358
52444W        W19227   4.422  22.189  10.667
52445W        W19228  23.118  41.879   4.057
52446W        W19229  36.361  33.003   1.809
52447W        W19230  30.045  35.138   1.481
52448W        W19231   6.465  38.866  14.950
52449W        W19232  16.753  17.190   4.054
52450W        W19233  19.269  17.641   9.780
52451W        W19234   0.849  12.306  13.626
52452W        W19235  33.913   5.247  14.907
52453W        W19236  38.393  25.189  12.809
52454W        W19237  14.127  22.271   4.607
52455W        W19238  13.855  17.778  13.386
52456W        W19239  23.005   6.768   2.951
52457W        W19240  11.356  16.357   0.974
52458W        W19241  32.943  27.170  10.726
52459W        W19242  44.287   2.851   4.523
52460W        W19243  16.406  23.791  10.984
52461W        W19244  14.773   8.333  11.835
52462W        W19245  42.288  38.406  11.508
52463W        W19246   3.264  16.740  13.882
52464W        W19247   0.784  15.158   4.069
52465W        W19248   9.178  29.652  14.801
52466W        W19249  11.579   1.898  11.701
52467W        W19250  43.760  16.089  12.515
52468W        W19251  15.999  22.182   3.390
52469W        W19252  18.065   4.354  13.467
52470W        W19253   5.117  10.725  12.699
52471W        W19254   6.249  22.325  14.041
52472W        W19255  34.368  19.468  11.414
52473W        W19256  42.434  32.961  10.846
52474W        W19257  25.713  34.157   0.929
52475W        W19258  37.626   4.755   3.292
52476W        W19259   5.959  35.669  13.997
52477W        W19260  23.401  18.752  10.711
52478W        W19261  10.789  14.390  12.147
52479W        W19262  21.244  11.656   3.782
52480W        W19263   7.821  11.790  14.560
52481W        W19264  23.548  21.831   2.382
52482W        W19265  17.278  28.875   1.627
52483W        W19266  17.714  14.234   3.203
52484W        W19267   6.712  40.916   0.926
52485W        W19268  33.511  16.738   2.822
52486W        W19269   3.510  37.797  12.854
52487W        W19270  18.472  32.510   4.069
52488W        W19271   8.707  13.869   0.381
52489W        W19272  23.611  39.335   2.947
52490W        W19273  30.516  25.645  14.337
52491W        W19274  39.686  27.208   4.784
52492W        W19275   4.863   5.650  13.999
52493W        W19276  15.129  44.008   1.382
52494W        W19277  38.242  10.382   4.526
52495W        W19278   0.745  42.948  11.633
52496W        W19279  20.642  32.861   1.270
52497W        W19280   8.621  15.812   0.780
52498W        W19281  36.700  16.338  11.951
52499W        W19282  29.184  34.768  14.820
52500W        W19283  11.137   8.986  12.169
52501W        W19284   2.830  27.735  11.985
52502W        W19285   7.717  32.320   1.361
52503W        W19286  11.138  44.266  11.391
52504W        W19287   0.706   4.762   0.506
52505W        W19288  22.730  14.194  13.350
52506W        W19289  34.186  33.793   0.758
52507W        W19290  26.136  34.656  10.547
52508W        W19291   4.808   1.952   1.272
52509W        W19292  16.637  40.604   2.224
52510W        W19293  16.353  31.879   3.620
52511W        W19294   1.990  12.270  14.503
52512W        W19295  16.848  38.181  13.327
52513W        W19296  11.103  17.222  11.763
52514W        W19297  37.118   2.222   0.769
52515W        W19298  43.256  16.366   0.612
52516W        W19299   7.224  28.412   0.410
52517W        W19300  42.228  26.489   4.941
52518W        W19301  24.501   8.524   4.615
52519W        W19302  20.841  20.562   1.170
52520W        W19303  44.725  23.730  10.569
52521W        W19304   2.854  10.172  12.633
52522W        W19305  21.237  18.074  11.622
52523W        W19306   1.454  30.460  11.055
52524W        W19307  26.052   2.684  11.023
52525W        W19308  18.821   3.982  12.749
52526W        W19309  22.073  43.788   2.610
52527W        W19310  32.577  14.101   0.482
52528W        W19311  13.422  15.681   4.605
52529W        W19312  25.163   8.375  10.635
52530W        W19313  12.350  26.924  10.996
52531W        W19314  22.963  24.111   0.979
52532W        W19315  37.405  27.358   0.043
52533W        W19316  42.392   0.010   4.148
52534W        W19317  22.321   2.817  13.829
52535W        W19318  19.642   4.582  10.365
52536W        W19319  31.128   9.602   4.108
52537W        W19320  27.120   6.462  13.689
52538W        W19321  35.897  34.958   0.399
52539W        W19322  17.785   3.801  12.706
52540W        W19323   2.027   3.906  14.790
52541W        W19324  30.996   9.640   0.825
52542W        W19325  23.516  22.923  13.891
52543W        W19326  37.831  31.439   0.914
52544W        W19327   6.637  44.737  14.931
52545W        W19328  44.021   0.983   2.142
52546W        W19329   6.276  15.293   1.767
52547W        W19330  22.578  18.629   0.820
52548W        W19331  33.463  41.132  11.664
52549W        W19332   1.897   8.301   4.880
52550W        W19333  15.741  23.973  14.139
52551W        W19334  20.137  40.801   0.199
52552W        W19335  41.964  38.116   0.282
52553W        W19336  40.006  20.551   1.227
52554W        W19337   2.966   8.919   3.360
52555W        W19338   3.495   3.180  13.991
52556W        W19339   9.296  44.455  12.827
52557W        W19340  40.906  10.758   3.691
52558W        W19341  31.282   3.622   0.687
52559W        W19342  40.876  15.681   1.698
52560W        W19343  19.746  24.744   2.559
52561W        W19344  37.896  28.001   4.938
52562W        W19345  31.659  35.139  13.785
52563W        W19346  41.069  33.550   0.478
52564W        W19347  33.815  30.336  11.932
52565W        W19348   2.465  18.695   4.666
52566W        W19349  27.097   1.939   4.653
52567W        W19350   4.620  37.372  14.224
52568W        W19351  17.797  39.081  12.104
52569W        W19352  23.654   8.870  13.465
52570W        W19353  34.183  16.666  12.472
52571W        W19354  17.574   6.336   1.374
52572W        W19355  36.968   4.387   3.253
52573W        W19356   3.592  12.363   4.616
52574W        W19357   9.290  28.557  11.416
52575W        W19358  12.095  11.666  13.797
52576W        W19359  10.543   5.734  10.702
52577W        W19360  18.587   5.945  14.989
52578W        W19361  22.233  14.917  10.622
52579W        W19362  33.409  11.945   2.873
52580W        W19363  23.295  16.090   1.003
52581W        W19364  38.370   0.461  14.289
52582W        W19365  14.225   4.406  12.089
52583W        W19366  44.931  10.865   4.094
52584W        W19367  35.496  32.316  11.945
52585W        W19368   9.983  32.603  10.110
52586W        W19369   6.618  28.410  14.743
52587W        W19370  19.789  41.993   1.912
52588W        W19371  22.257   5.795   1.694
52589W        W19372  39.725   6.246   0.813
52590W        W19373  28.243  33.417   1.156
52591W        W19374  25.897  43.619  14.417
52592W        W19375  31.389   1.587  14.619
52593W        W19376  34.465  26.738  14.569
52594W        W19377  15.160  34.384   1.179
52595W        W19378  37.228  37.350  14.132
52596W        W19379  21.652  14.621   0.884
52597W        W19380   7.357  41.361  14.283
52598W        W19381  41.162  16.567   1.812
52599W        W19382  15.931  35.099   0.107
52600W        W19383  14.235  35.606   4.631
52601W        W19384  23.154  23.493   3.203
52602W        W19385  30.108  16.739  12.049
52603W        W19386   7.835  37.817   0.381
52604W        W19387  23.232  15.663  12.377
52605W        W19388  17.804  43.965  12.913
52606W        W19389  37.317  31.464   0.930
52607W        W19390  28.125  18.290   0.406
52608W        W19391  13.561  31.126   3.810
52609W        W19392  44.509  27.197  14.453
52610W        W19393  27.156  38.360   1.895
52611W        W19394  15.545  14.371  10.242
52612W        W19395  30.578  39.075   3.643
52613W        W19396  36.859  37.434   4.117
52614W        W19397  44.772  27.122   4.676
52615W        W19398  27.942  17.829  11.716
52616W        W19399  14.300  11.888  13.050
52617W        W19400  32.331  38.637   0.941
52618W        W19401  41.716  41.386  12.484
52619W        W19402  37.256  35.486   2.433
52620W        W19403  37.078  10.821  12.068
52621W        W19404  31.509  12.942   1.339
52622W        W19405  29.201  21.292   1.440
52623W        W19406  20.074  24.652  10.660
52624W        W19407  35.575   8.986   3.082
52625W        W19408  18.994  40.429  14.374
52626W        W19409  35.233  35.939   3.206
52627W        W19410  28.738  21.594   1.891
52628W        W19411  37.822  30.479  12.435
52629W        W19412  31.283  36.896  11.593
52630W        W19413  10.741  14.911   1.360
52631W        W19414  23.032   0.799  13.943
52632W        W19415   3.723  39.809   1.155
52633W        W19416  11.181   7.646  12.511
52634W        W19417  31.126   4.354  12.984
52635W        W19418   1.691  34.427   0.350
52636W        W19419  29.701  22.578  11.163
52637W        W19420   2.496  10.764  10.834
52638W        W19421   2.925  22.365   2.795
52639W        W19422  32.801  44.186   0.206
52640W        W19423  27.943  38.974  12.058
52641W        W19424  27.995   3.308   0.250
52642W        W19425   3.909  33.235  14.639
52643W        W19426  23.085   6.314   3.610
52644W        W19427  33.538  10.404  11.476
52645W        W19428  39.468   1.866  13.558
52646W        W19429  25.011  27.722  11.549
52647W        W19430   6.349  42.553  10.549
52648W        W19431  19.174  39.091   4.314
52649W        W19432   4.249  43.412  12.437
52650W        W19433  35.639  35.531   4.173
52651W        W19434  32.552  13.355   3.245
52652W        W19435  41.452  41.058   0.179
52653W        W19436   9.841  12.822  13.821
52654W        W19437  42.325  16.277   0.825
52655W        W19438  12.116  39.964  13.921
52656W        W19439  18.046  15.732   2.622
52657W        W19440   5.187  27.668   1.419
52658W        W19441  33.144   8.673   2.623
52659W        W19442  14.821  20.857  12.161
52660W        W19443  39.843   3.285  11.104
52661W        W19444  38.842  26.169  14.487
52662W        W19445  17.275  25.341  13.005
52663W        W19446  28.540  24.026  11.961
52664W        W19447  29.154  39.858   0.276
52665W        W19448  19.783  34.532   1.686
52666W        W19449  35.830  20.101  10.746
52667W        W19450  27.344  35.860   0.757
52668W        W19451   3.567  19.664   0.447
52669W        W19452  20.755  12.304  13.158
52670W        W19453  37.776  27.697  14.786
52671W        W19454  21.830   0.488  10.131
52672W        W19455   4.327  18.885   1.101
52673W        W19456   5.790   0.415  12.968
52674W        W19457   0.005  16.521   0.391
52675W        W19458  20.922   3.306  14.749
52676W        W19459  20.751  41.754  12.696
52677W        W19460  28.216  17.526  11.387
52678W        W19461  27.951  40.087  14.809
52679W        W19462   9.291  22.183  13.381
52680W        W19463  37.518   9.963  11.857
52681W        W19464  29.560  28.925   0.326
52682W        W19465  39.581  39.998   1.071
52683W        W19466   1.384  34.509  13.027
52684W        W19467  30.978  10.416  13.964
52685W        W19468   8.761   5.213  14.586
52686W        W19469  38.762  24.138   1.361
52687W        W19470  29.934  43.718   1.187
52688W        W19471   0.049  10.419   4.433
52689W        W19472   0.443   0.171   4.744
52690W        W19473  21.600  25.426   4.222
52691W        W19474  24.132  37.574  13.504
52692W        W19475  21.478  40.079   4.224
52693W        W19476  17.413  26.166  11.495
52694W        W19477  31.941  35.533  12.411
52695W        W19478  21.702  38.868   4.333
52696W        W19479   8.401  34.557   3.786
52697W        W19480  40.308  41.765  14.319
52698W        W19481  37.408  35.456   4.776
52699W        W19482  14.062  28.356   2.754
52700W        W19483  42.961   8.847  12.091
52701W        W19484   4.729  19.993   4.052
52702W        W19485   4.056  11.560  13.508
52703W        W19486  36.537   1.709  14.362
52704W        W19487  19.988  29.517  10.209
52705W        W19488  20.765  29.734  11.501
52706W        W19489   3.010  34.480   3.634
52707W        W19490  31.153  43.400   4.562
52708W        W19491  10.606   9.626  14.437
52709W        W19492  26.231  38.862  10.717
52710W        W19493  26.773  20.752  12.966
52711W        W19494   5.787  12.362   0.968
52712W        W19495   0.884  23.104  12.507
52713W        W19496  23.440   1.865   2.674
52714W        W19497  43.887   2.256  12.342
52715W        W19498  44.023   7.606  12.602
52716W        W19499  42.073  18.606  11.915
52717W        W19500  40.446  28.139  10.293
52718W        W19501  34.043  32.880   4.186
52719W        W19502   2.859  42.051  13.461
52720W        W19503  10.580  30.876  14.343
52721W        W19504   2.866  34.950   0.709
52722W        W19505  36.894  38.267  11.129
52723W        W19506  35.652  41.231  11.225
52724W        W19507   7.794   8.714  13.636
52725W        W19508   5.625   2.224  14.498
52726W        W19509  17.830  24.439   1.837
52727W        W19510  13.564  44.444   0.961
52728W        W19511  39.284  25.126  10.584
52729W        W19512  40.327  37.130   0.793
52730W        W19513  31.223  42.924  12.071
52731W        W19514  26.298  13.589   2.776
52732W        W19515  11.729  21.603   4.018
52733W        W19516   8.456  44.538   3.286
52734W        W19517  17.092  27.277   0.708
52735W        W19518  33.908  41.483   3.613
52736W        W19519   1.883   6.327  12.458
52737W        W19520  34.322  42.725  12.114
52738W        W19521   1.625  32.127   2.227
52739W        W19522  26.471  13.669   1.052
52740W        W19523  23.213   8.914   1.345
52741W        W19524  26.211  44.240  10.674
52742W        W19525  13.793   8.070   2.718
52743W        W19526  43.926   5.906  11.877
52744W        W19527  10.399  11.630   3.735
52745W        W19528  13.623  31.448   0.822
52746W        W19529  18.553   4.900  14.184
52747W        W19530   9.829  17.804   3.634
52748W        W19531  42.830  22.169  13.795
52749W        W19532   6.163  22.467  10.264
52750W        W19533   2.370   3.449   5.120
52751W        W19534  22.566  19.681   4.684
52752W        W19535  31.444  24.723  12.147
52753W        W19536  15.626  16.187   2.215
52754W        W19537  17.939  19.558   0.426
52755W        W19538  14.042  42.239  13.718
52756W        W19539  24.400  43.356  14.422
52757W        W19540  29.645  23.803  13.989
52758W        W19541  41.123  35.491   1.283
52759W        W19542   8.114  32.421   0.249
52760W        W19543  21.956  13.627   4.144
52761W        W19544  36.508  19.655  13.892
52762W        W19545   4.629   0.186  11.790
52763W        W19546   0.057  27.613  13.444
52764W        W19547  21.367  16.942  12.072
52765W        W19548  43.887  12.835   0.553
52766W        W19549  31.657  26.696  10.703
52767W        W19550  11.671  17.642  11.144
52768W        W19551  42.134  15.836  10.342
52769W        W19552  23.776  16.159   0.734
52770W        W19553  20.212   0.036  12.007
52771W        W19554  44.341  30.242   4.236
52772W        W19555  40.343   8.677  14.334
52773W        W19556   1.432  43.268  11.623
52774W        W19557  27.942  37.325   0.841
52775W        W19558   4.745  10.248   3.271
52776W        W19559  14.604   5.892  12.635
52777W        W19560   3.334  22.814  13.494
52778W        W19561  39.777  10.593  12.701
52779W        W19562  39.035  14.939   4.082
52780W        W19563  40.890   5.534   4.065
52781W        W19564  35.951  42.407  11.941
52782W        W19565  18.095   8.403   3.634
52783W        W19566  28.961  33.495  13.045
52784W        W19567  30.142  13.227   3.816
52785W        W19568  26.527   9.619   1.320
52786W        W19569  18.803  12.237   2.360
52787W        W19570  32.146  11.610   3.172
52788W        W19571  15.145  33.836  14.253
52789W        W19572  44.916  23.664  13.512
52790W        W19573  43.438  20.009   2.656
52791W        W19574   0.287  44.995   2.363
52792W        W19575  41.592  37.582   4.914
52793W        W19576  29.638  33.729   4.734
52794W        W19577  44.620  25.910   2.224
52795W        W19578  38.340  18.213  14.840
52796W        W19579  13.865  12.614   3.620
52797W        W19580  38.038   1.301  10.442
52798W        W19581   9.801  14.844   0.323
52799W        W19582  20.132  19.181   0.505
52800W        W19583  42.940   3.366   0.398
52801W        W19584   8.740  44.750  11.610
52802W        W19585  16.224  11.362  13.581
52803W        W19586  22.035  17.983   2.915
52804W        W19587   3.224  23.503   0.321
52805W        W19588  26.612  37.364   3.815
52806W        W19589   0.714  15.124   1.660
52807W        W19590  35.081   8.228   0.373
52808W        W19591  26.516  41.015   4.547
52809W        W19592  20.395  39.370   1.272
52810W        W19593  40.421  32.837  12.920
52811W        W19594  22.523  32.706   4.643
52812W        W19595  41.359   4.931   0.467
52813W        W19596   5.154  44.346   1.327
52814W        W19597  14.059  25.630  13.815
52815W        W19598  24.473  27.162  11.039
52816W        W19599  44.143  34.524   4.058
52817W        W19600  41.971  30.300  13.327
52818W        W19601  25.002  26.068  13.143
52819W        W19602   9.206   6.292  14.672
52820W        W19603  20.783   9.031  11.251
52821W        W19604  22.107  37.687   1.726
52822W        W19605   8.816  34.361  10.716
52823W        W19606  27.988  19.428  14.389
52824W        W19607  38.292  14.962   3.152
52825W        W19608  42.067  43.439   0.387
52826W        W19609  25.990  12.650  13.316
52827W        W19610  36.494  13.084   1.317
52828W        W19611  40.594  30.778   4.243
52829W        W19612  43.028  32.918  13.107
52830W        W19613  42.285   9.373  13.426
52831W        W19614   3.325  19.157  10.821
52832W        W19615  43.499  27.247  14.453
52833W        W19616  38.323  12.262   3.546
52834W        W19617  21.119   0.807   2.757
52835W        W19618  26.807  44.508   2.898
52836W        W19619  29.559  32.138   1.041
52837W        W19620   1.800  43.631  11.195
52838W        W19621  34.553  28.516   4.456
52839W        W19622  44.853  16.375  12.503
52840W        W19623  10.575  19.576   3.516
52841W        W19624  13.890  34.482   4.611
52842W        W19625  38.452  19.721  10.738
52843W        W19626   0.509  10.248   1.845
52844W        W19627  18.554   4.035   4.509
52845W        W19628   5.711  30.930  12.845
52846W        W19629  26.357  43.363  14.279
52847W        W19630  17.915  16.247  14.362
52848W        W19631  23.633   8.411   2.973
52849W        W19632  41.499  36.968  11.555
52850W        W19633  27.703   0.285   1.449
52851W        W19634  10.805   5.906  11.124
52852W        W19635  30.207  26.302  13.306
52853W        W19636  16.392  29.348  13.483
52854W        W19637  42.398  30.452   4.939
52855W        W19638  16.347  43.896   1.351
52856W        W19639  31.110   0.142  11.199
52857W        W19640  19.134  25.720   2.302
52858W        W19641   9.045   8.734   5.220
52859W        W19642   4.896  16.736  10.627
52860W        W19643  16.522   1.521   1.066
52861W        W19644  27.462  17.385  10.591
52862W        W19645   1.932  43.380  12.174
52863W        W19646   9.958   4.938   2.578
52864W        W19647  43.948  32.047   1.601
52865W        W19648   8.029  26.041   4.624
52866W        W19649  30.622  24.381   3.263
52867W        W19650  44.879  19.260  14.783
52868W        W19651  23.928  42.939   0.270
52869W        W19652   8.710  39.283  11.631
52870W        W19653  36.372  37.003  12.582
52871W        W19654   4.579  13.238   5.088
52872W        W19655  27.696  43.345  14.824
52873W        W19656  34.568  36.542  11.472
52874W        W19657  40.012  20.323  10.579
52875W        W19658  22.067  16.151  10.922
52876W        W19659  19.813   5.467   3.533
52877W        W19660  22.779  24.404   2.631
52878W        W19661  16.634  35.369   3.937
52879W        W19662  24.076  39.405  14.514
52880W        W19663  10.390  14.354   2.182
52881W        W19664   5.908  25.757   1.870
52882W        W19665   9.218  16.789   1.658
52883W        W19666   4.827  24.446   3.652
52884W        W19667   3.306  10.976  14.384
52885W        W19668   6.959   7.476  13.402
52886W        W19669   4.340  43.808  11.536
52887W        W19670   7.740  43.775  10.739
52888W        W19671  15.518  39.558   3.670
52889W        W19672   1.493  40.472   3.764
52890W        W19673  34.603   4.302   2.904
52891W        W19674  22.122  13.789  13.903
52892W        W19675  36.248  20.244  11.648
52893W        W19676   0.350  29.182   3.288
52894W        W19677  20.540  27.830   1.696
52895W        W19678  31.439  11.189  13.909
52896W        W19679   6.797  43.747  10.600
52897W        W19680  16.690  28.633  13.022
52898W        W19681  17.328  11.444  14.390
52899W        W19682  21.036  27.886  11.687
52900W        W19683  36.035  30.111   2.793
52901W        W19684  35.105  13.829   2.391
52902W        W19685  24.635  19.990   1.833
52903W        W19686  43.248   9.426  14.327
52904W        W19687  29.149   1.376   3.080
52905W        W19688  14.899  35.261   2.790
52906W        W19689  31.893  22.715   2.819
52907W        W19690  26.465  34.344  13.851
52908W        W19691   3.433  40.243  13.423
52909W        W19692  20.537  17.392  14.926
52910W        W19693  43.469   3.818   4.183
52911W        W19694  34.875   0.521  10.812
52912W        W19695  23.069  14.941   4.154
52913W        W19696  42.696  25.212  12.393
52914W        W19697   4.706  43.005   4.644
52915W        W19698  24.596   7.274   1.780
52916W        W19699  14.335  34.831   9.900
52917W        W19700  36.354  19.308   3.673
52918W        W19701  20.035  10.260   1.304
52919W        W19702   7.674  32.607  12.898
52920W        W19703   7.382  18.242   1.273
52921W        W19704  36.165  27.943   3.272
52922W        W19705  39.249  25.649  12.542
52923W        W19706   5.703   6.905  14.267
52924W        W19707  23.894   7.250   1.277
52925W        W19708   2.494  44.875  10.464
52926W        W19709  18.085  18.962   2.924
52927W        W19710  39.009  14.349   2.344
52928W        W19711   5.226  26.056   3.817
52929W        W19712  31.502  38.641  11.047
52930W        W19713  33.366   7.130  14.862
52931W        W19714  17.806  22.100   0.987
52932W        W19715  38.626  26.893   4.141
52933W        W19716  30.810  37.708   2.598
52934W        W19717  28.710  43.478  13.917
52935W        W19718  17.513   0.850  13.952
52936W        W19719  22.142  34.595  14.290
52937W        W19720  10.788  25.267  11.136
52938W        W19721  38.029  14.773  12.385
52939W        W19722  22.982  26.382   3.627
52940W        W19723   6.753   6.253   2.277
52941W        W19724   4.447  17.944   4.105
52942W        W19725  33.032  29.927   1.805
52943W        W19726   2.435  32.562   3.829
52944W        W19727  18.839  41.906   4.282
52945W        W19728  31.652  13.504  14.261
52946W        W19729  25.770   3.141  11.457
52947W        W19730  34.810  38.032  13.351
52948W        W19731  38.059  25.098   0.125
52949W        W19732   2.772  27.228  13.805
52950W        W19733   1.173   8.622   2.324
52951W        W19734  41.802  27.387  12.147
52952W        W19735  17.710   1.085  10.491
52953W        W19736   1.148  39.001   3.043
52954W        W19737  43.938  36.480  12.877
52955W        W19738  32.092   1.889   0.582
52956W        W19739  37.215  31.808  14.933
52957W        W19740  35.325  32.983   3.258
52958W        W19741  33.008  22.659  10.526
52959W        W19742   4.167  32.823   1.796
52960W        W19743  38.941  12.108   1.856
52961W        W19744   9.923  26.933   1.499
52962W        W19745  29.990   9.186  10.658
52963W        W19746   9.557  22.587  11.659
52964W        W19747  44.322   8.818   1.886
52965W        W19748  29.875   6.232   2.633
52966W        W19749   6.467  29.003   9.766
52967W        W19750  10.086  24.091   0.476
52968W        W19751  40.263  36.976  13.368
52969W        W19752  37.837  13.078   4.613
52970W        W19753  30.448  26.454   4.473
52971W        W19754  26.775  44.358  12.765
52972W        W19755  16.728  29.681  13.732
52973W        W19756   4.747   1.187   4.720
52974W        W19757  22.166  25.048  13.152
52975W        W19758  37.717  10.312   2.137
52976W        W19759  30.481  16.833   1.255
52977W        W19760  25.962   4.034  14.276
52978W        W19761  32.596  11.037  14.486
52979W        W19762   8.828   7.277   9.907
52980W        W19763  27.814  24.464   4.503
52981W        W19764  33.903  11.310   1.244
52982W        W19765  30.240  34.943  12.525
52983W        W19766  14.042  42.330  14.642
52984W        W19767  27.494  25.679   1.385
52985W        W19768  37.369  36.065  12.484
52986W        W19769  25.761  39.325   0.478
52987W        W19770  33.064  26.355   3.950
52988W        W19771  20.645  20.662   0.158
52989W        W19772  38.264  39.748   4.872
52990W        W19773  21.131  38.119  14.927
52991W        W19774  33.239  14.263  10.299
52992W        W19775  16.668  41.363   4.619
52993W        W19776  17.566  34.598  13.853
52994W        W19777  10.119  12.077  14.546
52995W        W19778  24.418  30.074   3.207
52996W        W19779  33.919  28.401  14.054
52997W        W19780  41.274  24.706   4.093
52998W        W19781  14.960  12.148   4.433
52999W        W19782  33.802  44.284   4.923
53000W        W19783  37.489  44.562  12.560
53001W        W19784  35.428  39.027  13.061
53002W        W19785   2.767  27.748  13.814
53003W        W19786  15.167  41.382  13.526
53004W        W19787  17.312  29.480  11.097
53005W        W19788  43.255  33.410  13.964
53006W        W19789  33.984  31.292   3.247
53007W        W19790  25.905   4.750   4.720
53008W        W19791  29.141  40.088  14.391
53009W        W19792  42.821  15.547   3.126
53010W        W19793  25.577   8.780   3.126
53011W        W19794   6.650  28.960  14.736
53012W        W19795  21.960   5.434  12.957
53013W        W19796  13.623  26.585   0.878
53014W        W19797  33.971  36.946  13.947
53015W        W19798  33.421   2.713   2.223
53016W        W19799  19.182  30.416  12.182
53017W        W19800  41.435  44.310   1.354
53018W        W19801   5.428  36.003   2.573
53019W        W19802  35.155  35.055   1.461
53020W        W19803   9.715  34.209  12.341
53021W        W19804   3.005  36.056   2.122
53022W        W19805  31.275  17.190   4.902
53023W        W19806  33.925  13.160   1.789
53024W        W19807  31.823  29.065  13.989
53025W        W19808  18.422  24.822   3.622
53026W        W19809   8.408  24.430  13.331
53027W        W19810  38.161  42.741   2.629
53028W        W19811  11.178  36.160   1.146
53029W        W19812  21.437  32.856   1.897
53030W        W19813  31.612  22.245   3.702
53031W        W19814  23.648   2.214  14.954
53032W        W19815   5.652  23.644  12.887
53033W        W19816  24.996  38.518   3.280
53034W        W19817  22.786  41.831  13.062
53035W        W19818   5.941   1.372   2.754
53036W        W19819  20.047   0.881   3.095
53037W        W19820  37.064  22.580  14.229
53038W        W19821  39.411  43.752  10.509
53039W        W19822  10.612  14.403  12.991
53040W        W19823  17.025  26.344   4.666
53041W        W19824  25.497  32.456   3.790
53042W        W19825  44.739   5.389   1.846
53043W        W19826  36.390  15.991  10.527
53044W        W19827  13.254  13.379  12.907
53045W        W19828  10.713  19.305   0.494
53046W        W19829  27.167  20.198   3.690
53047W        W19830  26.413  26.414  13.700
53048W        W19831  30.979  34.561  10.732
53049W        W19832  10.867   2.421   3.269
53050W        W19833  29.047  29.285  12.070
53051W        W19834   5.537  32.348  14.380
53052W        W19835  44.740  15.771  11.137
53053W        W19836  40.257  32.909   3.329
53054W        W19837  39.601  15.206  12.003
53055W        W19838  26.019   9.818   2.171
53056W        W19839  14.603   6.369   2.941
53057W        W19840  37.148  21.544   4.631
53058W        W19841  38.525  17.710   0.733
53059W        W19842  30.162  30.441  11.253
53060W        W19843  41.058  37.386  14.615
53061W        W19844   2.685  36.005   3.033
53062W        W19845  15.305  33.802   2.911
53063W        W19846  33.086  35.418  14.236
53064W        W19847   8.216  25.781  14.939
53065W        W19848   9.592  40.946  11.197
53066W        W19849  35.038  26.477  12.490
53067W        W19850   9.925   4.939  10.739
53068W        W19851   8.307  12.353   2.083
53069W        W19852  37.975  29.419  14.348
53070W        W19853  36.054  12.782  10.601
53071W        W19854  36.292  41.689   0.215
53072W        W19855   6.850  29.163   3.677
53073W        W19856   0.495  36.380  12.660
53074W        W19857  27.140  34.935  13.050
53075W        W19858  16.235  39.047   0.771
53076W        W19859  18.353  40.250   3.276
53077W        W19860   4.060  29.031   4.919
53078W        W19861  12.715  41.254  13.144
53079W        W19862  34.173  22.452  12.576
53080W        W19863  25.586   8.102  10.468
53081W        W19864  32.531  26.622   1.918
53082W        W19865  24.971   4.894   1.353
53083W        W19866  16.074  25.554   0.899
53084W        W19867  26.754   9.302   0.892
53085W        W19868  19.158  42.995  13.462
53086W        W19869   4.694  38.290  13.912
53087W        W19870   3.936  16.319   1.543
53088W        W19871  22.249  39.591  12.696
53089W        W19872  10.450  13.454  12.512
53090W        W19873  15.229  29.363  10.731
53091W        W19874  36.840  11.329  12.426
53092W        W19875   9.282  33.381  10.453
53093W        W19876  40.935  44.358  11.220
53094W        W19877   3.917   9.152   0.437
53095W        W19878   8.152  15.591  12.419
53096W        W19879  43.488  15.110  14.296
53097W        W19880  40.539  30.894  12.831
53098W        W19881  36.329  25.608   1.709
53099W        W19882  25.399  18.588  12.423
53100W        W19883   8.194  39.604  13.913
53101W        W19884  14.313  43.329  14.960
53102W        W19885  44.908   8.178   1.269
53103W        W19886   4.246  40.040   4.528
53104W        W19887  40.011  38.287  14.054
53105W        W19888  14.570  40.148  12.978
53106W        W19889  20.753  14.290  13.006
53107W        W19890  20.816   7.328   0.754
53108W        W19891  21.821  26.496   3.100
53109W        W19892  10.573  23.731   3.276
53110W        W19893  21.776  44.038   1.368
53111W        W19894  16.611  21.718   3.634
53112W        W19895  26.495  26.941  13.379
53113W        W19896  37.974  43.567   2.180
53114W        W19897  29.914  24.430  13.626
53115W        W19898  31.974   6.985   4.240
53116W        W19899  31.436  39.984   2.436
53117W        W19900  28.522  41.515  12.396
53118W        W19901  41.907   6.654  13.333
53119W        W19902  17.333  34.926   3.669
53120W        W19903  30.963  41.488   3.667
53121W        W19904  36.564  27.161   1.444
53122W        W19905  30.251  26.581  14.765
53123W        W19906  28.854  44.552  12.222
53124W        W19907  24.964  38.391  11.616
53125W        W19908  27.289  33.920  10.611
53126W        W19909  34.880   2.724   4.152
53127W        W19910   0.413   8.833   2.385
53128W        W19911  29.670  37.045  13.429
53129W        W19912  11.220  10.631  10.734
53130W        W19913  33.486  39.389   0.988
53131W        W19914  39.282   0.026   1.535
53132W        W19915  28.872  24.581   2.739
53133W        W19916  22.845  37.628  12.928
53134W        W19917  39.504  19.480  12.868
53135W        W19918  28.111  25.805   4.092
53136W        W19919  37.044  17.573   3.691
53137W        W19920  13.855  35.953  13.900
53138W        W19921   6.972   8.651  11.150
53139W        W19922  23.174   1.237  11.474
53140W        W19923  13.818  25.394  13.411
53141W        W19924   1.532  42.764   2.830
53142W        W19925  12.646  18.868   2.292
53143W        W19926   5.262  42.825   2.176
53144W        W19927  20.078  38.954   1.380
53145W        W19928  18.483  17.685  11.982
53146W        W19929  16.408  31.826   0.985
53147W        W19930  10.165   0.798   3.204
53148W        W19931  37.162  36.627   1.421
53149W        W19932  17.340  14.636  13.987
53150W        W19933  13.565  31.492  12.087
53151W        W19934  23.655  23.987  13.027
53152W        W19935  17.592   0.466  11.295
53153W        W19936   6.345  21.087   2.163
53154W        W19937  43.450  21.278  14.921
53155W        W19938  11.597  36.379   1.326
53156W        W19939  24.056  29.975  11.393
53157W        W19940   3.747  11.242  14.441
53158W        W19941  40.958   7.288  13.195
53159W        W19942  44.221   4.695   0.850
53160W        W19943  40.842  39.577  10.618
53161W        W19944  34.625  14.276   0.840
53162W        W19945   6.776  15.189  14.480
53163W        W19946  19.193  27.640   0.023
53164W        W19947   7.369   0.760   1.484
53165W        W19948  14.660  11.990   0.215
53166W        W19949  20.860  35.372   3.040
53167W        W19950  41.008   4.126  14.990
53168W        W19951  12.234  32.221  14.915
53169W        W19952  33.902  15.818   4.654
53170W        W19953  37.773  44.319  12.919
53171W        W19954  36.319  14.883  13.628
53172W        W19955  15.537  17.614   2.613
53173W        W19956  29.618   4.327  14.420
53174W        W19957  34.380  31.022   4.299
53175W        W19958  29.402  22.883   0.488
53176W        W19959  34.897  26.442   2.585
53177W        W19960  20.661   8.143  13.583
53178W        W19961  17.244  37.038  14.531
53179W        W19962   4.217  22.138  13.437
53180W        W19963  16.404  36.947   3.552
53181W        W19964  16.740   3.966   3.641
53182W        W19965   3.649  42.917  14.926
53183W        W19966  14.972  27.060  13.339
53184W        W19967   1.354  44.794   4.486
53185W        W19968  21.136  21.047  14.756
53186W        W19969   5.150   9.427   3.790
53187W        W19970   5.111  21.185   1.370
53188W        W19971  12.208  21.008  11.068
53189W        W19972  16.175  41.389   2.401
53190W        W19973  26.331  37.894  14.459
53191W        W19974  34.047  18.026   5.011
53192W        W19975  28.309   1.656   4.078
53193W        W19976   4.938  38.509  11.196
53194W        W19977  43.802  43.434  12.953
53195W        W19978  36.443  33.090   4.515
53196W        W19979  16.767   5.286   0.471
53197W        W19980  41.402  11.108  13.288
53198W        W19981  15.660   1.856   0.301
53199W        W19982  25.943  38.994  13.594
53200W        W19983  42.335   5.667  14.430
53201W        W19984  31.175  44.243   5.015
53202W        W19985   8.152  33.470  11.686
53203W        W19986  34.324   5.360  12.372
53204W        W19987   5.844  29.470   2.289
53205W        W19988  22.548  18.819   2.668
53206W        W19989  35.387  11.395  12.772
53207W        W19990  44.522  18.764   3.316
53208W        W19991  35.683   0.967  14.431
53209W        W19992  13.793  39.970   0.916
53210W        W19993   1.798  19.636   2.811
53211W        W19994  25.174  42.401  14.803
53212W        W19995  26.056  14.347   2.313
53213W        W19996   4.155   8.329   1.609
53214W        W19997  42.809  14.310  12.838
53215W        W19998  42.994  11.852   5.027
53216W        W19999  11.228  22.983   2.721
53217W        W20000  18.052  37.403  10.653
53218W        W20001   3.834  38.190  12.952
53219W        W20002   5.279   5.262   0.779
53220W        W20003  40.426  12.228  10.445
53221W        W20004  26.982  44.010   1.738
53222W        W20005  36.441  25.119   0.280
53223W        W20006  13.219  30.183   3.292
53224W        W20007   3.528   6.693   4.671
53225W        W20008  16.901   4.334   0.014
53226W        W20009   9.308  30.674  14.850
53227W        W20010  42.309  35.447   4.750
53228W        W20011  33.531  18.163  10.237
53229W        W20012  44.883  30.962   4.585
53230W        W20013  17.907  41.271  14.729
53231W        W20014  22.022  26.479   1.826
53232W        W20015  41.846  10.466   2.835
53233W        W20016  31.848  38.494  14.496
53234W        W20017  33.929  14.122   4.053
53235W        W20018   0.926  19.138  13.968
53236W        W20019  21.502  31.125   1.715
53237W        W20020  20.621  12.881   0.213
53238W        W20021  38.320  33.585  12.925
53239W        W20022  13.553  33.979   9.709
53240W        W20023  32.756  29.590   0.407
53241W        W20024   6.675   9.815  11.524
53242W        W20025   1.731  17.311  13.903
53243W        W20026   0.908  32.601  13.865
53244W        W20027  20.047   1.763  12.384
53245W        W20028  26.016  32.974   1.325
53246W        W20029  23.001  25.394  11.996
53247W        W20030   9.702   7.511  14.882
53248W        W20031  25.199  38.836  10.688
53249W        W20032   8.458   7.894  13.428
53250W        W20033  18.551   0.979   2.344
53251W        W20034  42.113  30.922   3.618
53252W        W20035  10.955  29.613  13.806
53253W        W20036  37.452   4.642  14.372
53254W        W20037  26.091  40.264   3.056
53255W        W20038  15.617  42.707   4.160
53256W        W20039  36.464  21.687  10.635
53257W        W20040  41.775  41.814   2.806
53258W        W20041  39.157   6.929   4.779
53259W        W20042  22.547  10.873   2.702
53260W        W20043   1.271  20.974  11.451
53261W        W20044   3.990  31.985   1.724
53262W        W20045  15.510  17.070  13.937
53263W        W20046  30.639  19.223   2.419
53264W        W20047   2.201  40.965   2.686
53265W        W20048  13.846  32.346   4.099
53266W        W20049  10.779  30.314   3.577
53267W        W20050  29.072  22.162   0.238
53268W        W20051   8.791   0.023   2.848
53269W        W20052  34.462  38.235  12.036
53270W        W20053  28.405  10.757  13.859
53271W        W20054  33.508  18.554  10.593
53272W        W20055   5.248  36.393   3.378
53273W        W20056  30.075   3.607   1.248
53274W        W20057   6.992   3.370  14.713
53275W        W20058  28.042  44.856  11.916
53276W        W20059  15.260  35.465   0.464
53277W        W20060  36.889  24.184   3.591
53278W        W20061   1.531   8.651   4.436
53279W        W20062  19.164  41.370   3.284
53280W        W20063   9.132  43.552  13.471
53281W        W20064  25.124  27.121   3.641
53282W        W20065  10.800  19.170  13.962
53283W        W20066   2.473  19.798  12.893
53284W        W20067  40.414  44.196  14.868
53285W        W20068  24.123  24.259   1.808
53286W        W20069  23.247  26.206   2.374
53287W        W20070   1.915  11.212   4.153
53288W        W20071  44.322   1.958   3.840
53289W        W20072   4.246  22.535   0.304
53290W        W20073  20.755   4.347   0.569
53291W        W20074  29.997  23.987   0.952
53292W        W20075   3.016  28.547  14.707
53293W        W20076  16.404  20.117  14.850
53294W        W20077  42.788  25.763   2.473
53295W        W20078  30.085   5.167  14.544
53296W        W20079  31.048  27.508  14.186
53297W        W20080  24.460  39.377   0.882
53298W        W20081  10.846  21.717   2.374
53299W        W20082   0.178  44.305   3.773
53300W        W20083  23.573  22.487  11.101
53301W        W20084  16.652   2.849   4.488
53302W        W20085   5.163  39.558  13.390
53303W        W20086  20.648  44.450  11.407
53304W        W20087  40.563   0.154  14.693
53305W        W20088  13.907  12.161  14.696
53306W        W20089  32.422  10.747   3.386
53307W        W20090  21.345   1.294  13.925
53308W        W20091  41.322  24.068  11.561
53309W        W20092  35.863  41.911   3.818
53310W        W20093  38.906  30.597   1.674
53311W        W20094  41.339  11.278  11.887
53312W        W20095  28.751  20.217  11.395
53313W        W20096  26.708  22.946  12.095
53314W        W20097   7.748  12.821  10.689
53315W        W20098  41.463  14.042  14.826
53316W        W20099  41.620  35.351   3.566
53317W        W20100  19.100  13.073  14.405
53318W        W20101  16.040  28.884   1.632
53319W        W20102   4.255  21.117  11.212
53320W        W20103  12.682  34.882   2.793
53321W        W20104  36.380  12.274   1.969
53322W        W20105  15.425  26.716  12.494
53323W        W20106  43.934  17.629   1.790
53324W        W20107  41.659  13.094   2.355
53325W        W20108  43.781  37.163  11.218
53326W        W20109   9.391   8.851  11.110
53327W        W20110  44.140   5.691  11.100
53328W        W20111   5.176  40.840   0.956
53329W        W20112   2.032  32.937  10.404
53330W        W20113  25.622  35.358   3.742
53331W        W20114   8.154  37.389   0.892
53332W        W20115  44.777   0.010  10.559
53333W        W20116  28.966  38.800   0.414
53334W        W20117  24.938  38.576   2.333
53335W        W20118  30.956  41.128  11.034
53336W        W20119   5.765  36.404  14.506
53337W        W20120   7.213  26.194  14.823
53338W        W20121  23.476  34.982   4.149
53339W        W20122  41.824  25.221  10.593
53340W        W20123  41.442  35.839   0.396
53341W        W20124  21.125  17.253  13.914
53342W        W20125  10.646  33.732  11.634
53343W        W20126  23.991  32.997  13.116
53344W        W20127  37.715  22.113  10.592
53345W        W20128  43.278  44.439  11.268
53346W        W20129  19.339  31.156  12.451
53347W        W20130  11.170  10.778   2.160
53348W        W20131  10.157   2.966  13.957
53349W        W20132  36.160  36.492   0.436
53350W        W20133  11.944  27.415  13.081
53351W        W20134   7.213  33.543  13.496
53352W        W20135  25.472  28.044   4.337
53353W        W20136  24.286  26.206  14.473
53354W        W20137  42.273  17.219   2.855
53355W        W20138  15.778   6.754   3.276
53356W        W20139  15.092   3.791   0.575
53357W        W20140  18.906  19.703   5.195
53358W        W20141  33.115  25.581   0.785
53359W        W20142  36.224  33.309  11.214
53360W        W20143   2.836   4.348   0.933
53361W        W20144  16.645  21.418  11.826
53362W        W20145   2.936  36.910   4.561
53363W        W20146   7.686  24.141   4.187
53364W        W20147   5.286   5.095  10.531
53365W        W20148  35.483  26.297  11.484
53366W        W20149  18.342  37.802   4.159
53367W        W20150  13.030  22.221   3.746
53368W        W20151   0.218  29.729  13.027
53369W        W20152  39.272  29.198  11.126
53370W        W20153  12.064  41.584  13.643
53371W        W20154  16.827  20.973   2.636
53372W        W20155  15.831  31.413   4.956
53373W        W20156   0.920   4.400  11.886
53374W        W20157  13.647  21.697   4.333
53375W        W20158  12.687  40.771   0.809
53376W        W20159  36.865   0.242   0.335
53377W        W20160   4.713  34.497   3.413
53378W        W20161   5.248  25.839   1.912
53379W        W20162  33.634  29.889  12.089
53380W        W20163  44.993  16.254  13.416
53381W        W20164   5.865  32.575  13.559
53382W        W20165  25.991  40.519  11.158
53383W        W20166  41.107   1.979  10.916
53384W        W20167   5.750  36.944  12.934
53385W        W20168  31.442  13.863   0.207
53386W        W20169  43.353  40.229  14.006
53387W        W20170  33.758  31.582  11.958
53388W        W20171  11.308  17.372   3.129
53389W        W20172  13.807  40.759   2.767
53390W        W20173  13.613  41.105   4.143
53391W        W20174   2.901  23.639   4.740
53392W        W20175  38.527  33.577  14.361
53393W        W20176   1.206  29.081   2.744
53394W        W20177  34.819   8.215  12.398
53395W        W20178  29.230  11.334   4.164
53396W        W20179  13.601  14.868  14.001
53397W        W20180  31.440   3.838  12.085
53398W        W20181  37.191  17.176   5.016
53399W        W20182   6.489  23.125   2.644
53400W        W20183  41.305   6.953  11.955
53401W        W20184   0.899  32.854  10.433
53402W        W20185  27.397  42.930   0.761
53403W        W20186  25.429  15.264   3.902
53404W        W20187  34.604  43.803   3.240
53405W        W20188  26.098   3.500   2.378
53406W        W20189  15.251   0.244   4.164
53407W        W20190  42.523  36.951   0.369
53408W        W20191  21.601   4.843  11.676
53409W        W20192  39.625  12.342   3.323
53410W        W20193   1.831   5.594   1.353
53411W        W20194  35.201  18.102   5.007
53412W        W20195  26.505  33.315   4.174
53413W        W20196  38.281  28.461  14.743
53414W        W20197  42.236  24.589   3.833
53415W        W20198  41.445  12.321   2.711
53416W        W20199   7.479  39.130  12.071
53417W        W20200  17.628  33.470  11.275
53418W        W20201  27.584   6.813   4.480
53419W        W20202  35.337  33.435   2.481
53420W        W20203  26.185  10.535  10.776
53421W        W20204  41.377  21.597   3.073
53422W        W20205  30.400   7.257  13.129
53423W        W20206  19.280  43.840   1.294
53424W        W20207   4.763  39.447  11.730
53425W        W20208  28.863   9.824   2.211
53426W        W20209  17.205   7.658  12.696
53427W        W20210  42.101   3.230   4.104
53428W        W20211  34.004   3.373   3.331
53429W        W20212  21.836  31.065   1.310
53430W        W20213  29.542  13.694  12.208
53431W        W20214  15.997  24.617  12.244
53432W        W20215   6.014  11.135  13.804
53433W        W20216  36.360  18.006  14.166
53434W        W20217   9.046   3.070  12.025
53435W        W20218   3.440  20.665  10.737
53436W        W20219  23.945  18.551  14.801
53437W        W20220  38.935   6.357  14.773
53438W        W20221  23.315  34.919  13.564
53439W        W20222   8.448  36.624  12.071
53440W        W20223  18.811  30.957   0.913
53441W        W20224   7.284  25.537  14.488
53442W        W20225   7.801  15.005   1.261
53443W        W20226  29.340  24.972   3.186
53444W        W20227   0.284  30.627  12.380
53445W        W20228  17.424  26.733   1.351
53446W        W20229  21.234  18.005  13.414
53447W        W20230   9.424   6.247   0.160
53448W        W20231  21.749  42.315  14.839
53449W        W20232  25.724  24.780   1.189
53450W        W20233  33.739  22.715  13.480
53451W        W20234  18.058  13.220   3.652
53452W        W20235  23.273  29.014  10.714
53453W        W20236   3.275  14.314  10.633
53454W        W20237   3.113  33.887  13.787
53455W        W20238  39.064  29.046  10.690
53456W        W20239  44.847  34.421  11.998
53457W        W20240  11.305  40.331  13.900
53458W        W20241   0.835  43.929  13.940
53459W        W20242  21.062  22.320   0.773
53460W        W20243  17.136   3.359  14.938
53461W        W20244  11.839  17.204  14.927
53462W        W20245  43.542  17.324   3.242
53463W        W20246  34.866  23.141   0.201
53464W        W20247  27.659  22.140   2.708
53465W        W20248   5.979  38.403  11.145
53466W        W20249  30.227  40.998   4.234
53467W        W20250   6.856  32.371   4.149
53468W        W20251  19.024  39.009  13.412
53469W        W20252  13.787   9.791   2.374
53470W        W20253  31.865   7.703   2.765
53471W        W20254  24.480   9.411  14.024
53472W        W20255  37.600  13.300  13.442
53473W        W20256  30.602  20.159  11.852
53474W        W20257  25.090   7.454   3.260
53475W        W20258  39.459  23.101   4.446
53476W        W20259  24.951  15.579   1.915
53477W        W20260  27.742  12.204  13.896
53478W        W20261  43.715  21.576   1.125
53479W        W20262  39.663  31.314   2.631
53480W        W20263  14.756   7.535  12.969
53481W        W20264  36.361   5.003   3.611
53482W        W20265   5.222  31.536  12.287
53483W        W20266  33.464  32.540  14.542
53484W        W20267  44.337  25.105   3.197
53485W        W20268  42.223  15.565   3.886
53486W        W20269  12.726  42.394  11.200
53487W        W20270   7.062  38.209  12.051
53488W        W20271  19.371  12.400   4.351
53489W        W20272  34.541  36.595   4.662
53490W        W20273  14.209  29.691  13.785
53491W        W20274  43.991  31.087  12.945
53492W        W20275  10.710   3.055   4.124
53493W        W20276  18.054  13.331   0.888
53494W        W20277  37.063  36.626  13.482
53495W        W20278  26.506  40.955   0.246
53496W        W20279   7.386  30.319  12.059
53497W        W20280  35.963  39.156   3.242
53498W        W20281   8.899  43.086   2.270
53499W        W20282   0.380  41.598  14.959
53500W        W20283   3.808  41.692   1.909
53501W        W20284   3.695  39.058   2.478
53502W        W20285  25.977  44.830   0.424
53503W        W20286  31.512   6.074   0.246
53504W        W20287  19.939  37.333  12.135
53505W        W20288  34.115  27.699   3.279
53506W        W20289  11.742  21.769   2.265
53507W        W20290  15.278  25.491   2.230
53508W        W20291   1.885  23.506  12.112
53509W        W20292  17.282   2.952  12.567
53510W        W20293  31.598  16.887  11.129
53511W        W20294   4.390   0.073   3.510
53512W        W20295  17.691   3.337  14.060
53513W        W20296  19.689  28.170   1.360
53514W        W20297  22.733   0.533   0.255
53515W        W20298  15.139  22.988   3.739
53516W        W20299   6.700  32.612   1.221
53517W        W20300   5.319  17.649   1.630
53518W        W20301  11.176  25.083   4.400
53519W        W20302  15.872  43.315   1.990
53520W        W20303  12.736   0.485   2.168
53521W        W20304  33.908  40.260   1.178
53522W        W20305  34.712   1.807  12.080
53523W        W20306  36.886  14.124  11.588
53524W        W20307   4.317   2.879   4.663
53525W        W20308  13.705  27.773  13.798
53526W        W20309   2.652  11.407   4.888
53527W        W20310  11.495  24.572  13.050
53528W        W20311  11.117  44.283   0.760
53529W        W20312   4.841  22.455  12.871
53530W        W20313  41.520  16.239  13.806
53531W        W20314  27.092  42.939   5.030
53532W        W20315  42.978  36.141  12.896
53533W        W20316  10.276  23.485   1.236
53534W        W20317  43.749  42.018   4.237
53535W        W20318  26.099  31.345  12.795
53536W        W20319  21.240   9.101   4.311
53537W        W20320  31.088  13.382   2.713
53538W        W20321  15.093   5.781   2.755
53539W        W20322  39.295   9.537   3.207
53540W        W20323   2.751  32.623  10.529
53541W        W20324   6.178  36.429  11.539
53542W        W20325  14.900  27.661  10.216
53543W        W20326  18.129  24.056   3.437
53544W        W20327  33.802  34.518  12.375
53545W        W20328   8.352   2.752  13.372
53546W        W20329  39.863   3.244   1.645
53547W        W20330  34.913  10.236  10.605
53548W        W20331  21.313  32.442  10.908
53549W        W20332  24.733  27.419  10.613
53550W        W20333  18.214  23.983   4.450
53551W        W20334  39.466   3.168   0.324
53552W        W20335  18.199  11.115   0.696
53553W        W20336  37.313   4.206  13.097
53554W        W20337  40.118  29.997  14.717
53555W        W20338  11.864  15.700   1.479
53556W        W20339  31.027  16.268  10.707
53557W        W20340  28.456  11.311   1.470
53558W        W20341  14.204  22.672  14.684
53559W        W20342  33.069  43.920   3.266
53560W        W20343  11.895  23.392  12.608
53561W        W20344  16.344   8.546   1.632
53562W        W20345  23.172  40.706   2.896
53563W        W20346   1.720  39.393   4.064
53564W        W20347  38.426  16.755  14.760
53565W        W20348  27.734  35.477  12.906
53566W        W20349  22.835  24.706   1.747
53567W        W20350  25.056   6.147   2.917
53568W        W20351   7.619  17.689   4.654
53569W        W20352  29.457  29.689  11.169
53570W        W20353   2.595  30.598   4.432
53571W        W20354  20.236  11.665  11.477
53572W        W20355   1.975   9.114   3.178
53573W        W20356  28.471  37.384  12.499
53574W        W20357   9.855  32.811  10.770
53575W        W20358   5.140  40.383  13.867
53576W        W20359  13.132   9.379  14.299
53577W        W20360  38.295  29.566  14.887
53578W        W20361  32.642  10.288   2.713
53579W        W20362  20.274  41.521  12.512
53580W        W20363  20.507  21.100   1.838
53581W        W20364  37.209   6.848   1.342
53582W        W20365  19.205  24.810  10.815
53583W        W20366  30.594   6.638   1.326
53584W        W20367  22.156  32.251  13.441
53585W        W20368  32.549   3.916   0.371
53586W        W20369   8.299  12.391   5.036
53587W        W20370  14.630  38.509   1.963
53588W        W20371  22.728  41.564  11.056
53589W        W20372  21.025  15.191  12.466
53590W        W20373  13.961  43.015  10.776
53591W        W20374  35.641  26.043   1.492
53592W        W20375  28.680   7.903  12.902
53593W        W20376  37.748  26.097  11.901
53594W        W20377  39.972  27.020   1.205
53595W        W20378  19.371  19.504   4.809
53596W        W20379  28.340   5.328   4.161
53597W        W20380  15.111  27.463   2.198
53598W        W20381  18.642  26.652   0.692
53599W        W20382  43.348  21.455  13.539
53600W        W20383  41.512  44.287  11.043
53601W        W20384  27.373  35.297   1.640
53602W        W20385  32.886  20.949   1.933
53603W        W20386  13.507  10.577   0.776
53604W        W20387  34.947  23.531  11.757
53605W        W20388  42.703   1.821  12.101
53606W        W20389  22.214  13.611   3.691
53607W        W20390  24.426  15.814   2.247
53608W        W20391  20.941   1.671  12.688
53609W        W20392  22.037   3.757   9.907
53610W        W20393   7.673  12.559  12.955
53611W        W20394  38.686  27.961  11.027
53612W        W20395  30.451  40.480  10.037
53613W        W20396  27.842  10.742   1.321
53614W        W20397  23.610  15.690   3.229
53615W        W20398  40.248  26.609   1.275
53616W        W20399  41.805   9.055   5.181
53617W        W20400  29.731  33.492   1.316
53618W        W20401   3.272  39.096   3.221
53619W        W20402  11.294  37.885   3.996
53620W        W20403   9.619   9.725   3.972
53621W        W20404  34.637  24.589   0.867
53622W        W20405  40.835  29.430  14.990
53623W        W20406   0.964  36.681   4.178
53624W        W20407  21.997  28.504  14.799
53625W        W20408  33.936   3.161   2.862
53626W        W20409  33.373   4.813   0.720
53627W        W20410   0.178  14.683  14.975
53628W        W20411   2.438  17.184  13.865
53629W        W20412  36.312  37.462   0.988
53630W        W20413   4.147  20.648  13.486
53631W        W20414  28.585   2.459   2.181
53632W        W20415  42.060  13.854  12.609
53633W        W20416  24.013   5.069   5.377
53634W        W20417  16.267   3.390  11.238
53635W        W20418  30.004  41.308   0.379
53636W        W20419  17.360  17.164   0.539
53637W        W20420  17.410  37.308   4.142
53638W        W20421  22.504  22.491   1.193
53639W        W20422   1.525  10.193   1.737
53640W        W20423  25.110  40.749   2.184
53641W        W20424  14.025  38.944  12.140
53642W        W20425   8.137  27.747  11.208
53643W        W20426   3.929  38.429   0.670
53644W        W20427  24.037  40.082  10.278
53645W        W20428  40.909  38.503  13.939
53646W        W20429   9.681   9.968   0.001
53647W        W20430  10.331  23.743  13.406
53648W        W20431  21.161  33.388   1.136
53649W        W20432  40.004  34.408  11.526
53650W        W20433  10.713   7.532   3.740
53651W        W20434  41.953  28.684  12.463
53652W        W20435  27.580  26.646   5.485
53653W        W20436  40.239  16.164  14.689
53654W        W20437  37.098  32.587   1.960
53655W        W20438  31.910   2.521  13.532
53656W        W20439   4.898  21.295  13.845
53657W        W20440   1.713  32.021   1.253
53658W        W20441  23.636  20.079   4.031
53659W        W20442  30.918   7.878  13.837
53660W        W20443   1.686  15.235  12.976
53661W        W20444  29.623  12.343   3.683
53662W        W20445  41.546  22.957   1.413
53663W        W20446  41.795   3.781  14.469
53664W        W20447  44.312   7.232   0.309
53665W        W20448  23.827  38.683  12.939
53666W        W20449   7.383  25.686  10.805
53667W        W20450  28.918  33.779   4.130
53668W        W20451   6.473  26.199   3.207
53669W        W20452  11.891  18.138  11.377
53670W        W20453  31.479  44.439   3.477
53671W        W20454  20.430   8.201   2.410
53672W        W20455  11.621   9.334   2.594
53673W        W20456  18.301   7.114  10.741
53674W        W20457  14.047   3.290  13.360
53675W        W20458  34.522   0.873   4.605
53676W        W20459  36.622  41.058   3.797
53677W        W20460  33.561   1.935  12.743
53678W        W20461   1.764  14.258   2.440
53679W        W20462  26.003   8.227  14.301
53680W        W20463  14.318   5.667  13.405
53681W        W20464  38.116  22.646  13.401
53682W        W20465  18.960   1.343  12.928
53683W        W20466  34.408  26.409  13.578
53684W        W20467  15.407  41.387  13.972
53685W        W20468  18.532  43.979   2.868
53686W        W20469   3.934  28.559   2.251
53687W        W20470  20.461  18.041   0.857
53688W        W20471  17.034  21.320   1.682
53689W        W20472  27.091   3.185   2.199
53690W        W20473  32.291  15.185  12.541
53691W        W20474  28.731  29.044   1.423
53692W        W20475  21.994  27.213   3.637
53693W        W20476  12.526  28.111  11.474
53694W        W20477   4.127   8.028  12.010
53695W        W20478  43.873  30.383   1.483
53696W        W20479  44.945   4.343   0.281
53697W        W20480  44.000   1.761   2.484
53698W        W20481  36.559  36.784  11.173
53699W        W20482  44.846  31.625   2.632
53700W        W20483  13.701  22.298  11.460
53701W        W20484  14.167   0.003   3.205
53702W        W20485   3.302  14.913   0.315
53703W        W20486  31.380   7.934   1.852
53704W        W20487  22.743   7.620  11.833
53705W        W20488  12.295  33.913  12.051
53706W        W20489  18.622  33.512   3.116
53707W        W20490  30.868  20.985  14.989
53708W        W20491  16.212  14.044   5.467
53709W        W20492  13.595  43.567   1.769
53710W        W20493  23.645  21.031   5.234
53711W        W20494  40.451  15.714  14.562
53712W        W20495  36.446  24.977  12.438
53713W        W20496  25.030  44.368   3.517
53714W        W20497  10.847  17.935   3.728
53715W        W20498  22.680   0.049  13.139
53716W        W20499  29.111  18.311   4.108
53717W        W20500  26.530  15.908  11.583
53718W        W20501  22.048   1.003   3.134
53719W        W20502  27.390  21.498  11.704
53720W        W20503   5.014  27.918   3.487
53721W        W20504   4.767  41.606   3.209
53722W        W20505   9.655  11.914   0.376
53723W        W20506  40.197  12.716  11.921
53724W        W20507  22.686  15.327   0.524
53725W        W20508  23.465  28.020   3.602
53726W        W20509  23.816  41.154   0.415
53727W        W20510   0.169   4.775   0.492
53728W        W20511  40.823  35.228   4.521
53729W        W20512  24.806  20.704  13.130
53730W        W20513   6.863  26.070  11.511
53731W        W20514  21.069  44.592  11.630
53732W        W20515  38.049  44.365   3.855
53733W        W20516   4.992  42.343  14.446
53734W        W20517  12.862   8.419  12.490
53735W        W20518  16.027  13.367   3.821
53736W        W20519  26.126   2.041   2.160
53737W        W20520  24.147  19.816   3.142
53738W        W20521   6.319  18.309   3.101
53739W        W20522  35.575  28.814  13.508
53740W        W20523  30.434  20.246  12.343
53741W        W20524  26.785  42.426   5.462
53742W        W20525   2.715  16.504   3.657
53743W        W20526  34.993  36.297  14.481
53744W        W20527   7.375   1.534   4.842
53745W        W20528  18.620  43.376  14.777
53746W        W20529  42.501   1.913   0.343
53747W        W20530  21.123  30.270  12.454
53748W        W20531  19.298   1.831   3.175
53749W        W20532  20.076   2.910  11.099
53750W        W20533  32.119  27.908  11.483
53751W        W20534  19.610  40.309  11.002
53752W        W20535  35.098   4.844  14.328
53753W        W20536  19.623  13.578   2.410
53754W        W20537   9.573  44.976  11.109
53755W        W20538   8.893  42.049   2.192
53756W        W20539  14.727  10.292   1.133
53757W        W20540  37.667  30.473  13.879
53758W        W20541  35.002  28.924   3.286
53759W        W20542   2.490   6.761  14.396
53760W        W20543  22.720   3.867  10.327
53761W        W20544  16.251  38.942   3.696
53762W        W20545  36.089  33.076  11.649
53763W        W20546  12.714  25.962  12.992
53764W        W20547  19.298  27.477  12.102
53765W        W20548  27.537  12.969  11.581
53766W        W20549  24.087   1.385   3.357
53767W        W20550   7.409  39.008   0.363
53768W        W20551  29.508  31.976   1.530
53769W        W20552  31.117  41.835   2.259
53770W        W20553  22.615   7.692  14.144
53771W        W20554  28.443  13.006   0.871
53772W        W20555   2.361  42.035  12.876
53773W        W20556  29.860  23.932  13.452
53774W        W20557  27.135  28.580  10.467
53775W        W20558  31.136  11.045  11.245
53776W        W20559  30.971  13.688   2.323
53777W        W20560  43.671  38.881   0.811
53778W        W20561   8.186  16.055  12.992
53779W        W20562  25.217  16.082  14.395
53780W        W20563  28.086  32.988   2.908
53781W        W20564   2.903  20.655  13.884
53782W        W20565   9.805  42.886  13.348
53783W        W20566   7.047  38.660  11.138
53784W        W20567   4.453  18.198   2.764
53785W        W20568  38.474  25.959   3.730
53786W        W20569  10.422   3.555  11.946
53787W        W20570  41.857  15.930  14.806
53788W        W20571  40.702   9.075   0.427
53789W        W20572  30.594  30.021   1.242
53790W        W20573   0.087   4.743   3.857
53791W        W20574  14.852   6.392   0.670
53792W        W20575   4.559   0.641   0.366
53793W        W20576   6.616  18.155   0.737
53794W        W20577  40.425  10.399   1.408
53795W        W20578  24.158  32.618   2.940
53796W        W20579  14.690  12.707  12.058
53797W        W20580   5.943  26.253   3.220
53798W        W20581  29.444   2.422   1.840
53799W        W20582  40.927  41.309  13.115
53800W        W20583  14.634  12.937   3.199
53801W        W20584  36.288  38.025   2.220
53802W        W20585   7.224  29.151   3.167
53803W        W20586  13.430   1.850  14.906
53804W        W20587   6.337  31.573   2.681
53805W        W20588   3.585  40.406  11.125
53806W        W20589  11.406   9.222   2.134
53807W        W20590   8.885  36.308   1.863
53808W        W20591  10.437  12.695   1.411
53809W        W20592  34.866   6.001  12.998
53810W        W20593  27.615  32.844   2.686
53811W        W20594  18.588  25.481  12.799
53812W        W20595  33.572  28.436  11.154
53813W        W20596  14.639  10.627   3.149
53814W        W20597  23.729  43.587  11.647
53815W        W20598  28.926  19.256   4.154
53816W        W20599  16.145  40.870   2.226
53817W        W20600  19.132   7.289  11.033
53818W        W20601   2.744  16.019   2.772
53819W        W20602  36.031  34.727  13.399
53820W        W20603  29.623  16.193  11.559
53821W        W20604   4.972  29.974   3.600
53822W        W20605   5.116  12.201  11.939
53823W        W20606  43.029  35.403   0.977
53824W        W20607  29.005  41.386  10.740
53825W        W20608  20.693  27.769   2.394
53826W        W20609   7.817  25.509   1.277
53827W        W20610  32.687   0.907   0.716
53828W        W20611   2.634  43.490   4.638
53829W        W20612  22.484  32.717  11.865
53830W        W20613  34.578  44.576  13.941
53831W        W20614   1.350  30.560  13.774
53832W        W20615  13.190   4.150   2.857
53833W        W20616   5.789  14.780  13.251
53834W        W20617   8.712   6.701  13.787
53835W        W20618  25.362  35.923   2.957
53836W        W20619   3.899  39.377   0.815
53837W        W20620  36.589   7.294  14.460
53838W        W20621   6.393  35.911   2.800
53839W        W20622  26.227   5.224  14.237
53840W        W20623  11.968   0.534  14.875
53841W        W20624  21.005  26.244  13.808
53842W        W20625  20.910  26.658   4.598
53843W        W20626  27.347  36.878   1.809
53844W        W20627  19.836   7.896   3.328
53845W        W20628  14.072   7.577  12.371
53846W        W20629  37.785   9.760   3.692
53847W        W20630  13.313  25.180  14.394
53848W        W20631   2.001  24.598  10.810
53849W        W20632   3.469  31.620  14.436
53850W        W20633  32.487   8.274   3.579
53851W        W20634   7.737   2.491   2.290
53852W        W20635   9.877  34.140   2.937
53853W        W20636   0.982  23.739  10.280
53854W        W20637  23.711  23.308  14.827
53855W        W20638  28.044  19.351  10.704
53856W        W20639  22.245  44.025  14.446
53857W        W20640  28.000  41.620   5.133
53858W        W20641   6.605  11.573   0.441
53859W        W20642  28.462   8.670  13.346
53860W        W20643  13.043  29.936  14.555
53861W        W20644   1.593   5.094  11.100
53862W        W20645  34.351  18.969  11.689
53863W        W20646  32.545   3.281  10.700
53864W        W20647  20.000  36.483  13.320
53865W        W20648  11.844  44.265  12.706
53866W        W20649  24.512   8.201  13.459
53867W        W20650  18.113  14.804  13.006
53868W        W20651   1.963   1.009  10.646
53869W        W20652   2.059  28.716   0.955
53870W        W20653  36.888  40.060  14.337
53871W        W20654  32.045   2.220   4.186
53872W        W20655  19.945  24.993  14.897
53873W        W20656  39.783  28.250   3.556
53874W        W20657  19.181  32.109   3.134
53875W        W20658   1.897  11.147   1.786
53876W        W20659  36.871  23.716  13.935
53877W        W20660   2.388  25.652  12.393
53878W        W20661   5.958  41.575   4.391
53879W        W20662  40.827  31.564   3.272
53880W        W20663  39.392  10.685   0.779
53881W        W20664   2.549   9.883  13.450
53882W        W20665  13.255  34.760  11.165
53883W        W20666  12.747  41.528  14.501
53884W        W20667  15.427  39.759   2.253
53885W        W20668  36.958  34.596  12.271
53886W        W20669  16.703  13.146   3.280
53887W        W20670   4.265  18.046  12.652
53888W        W20671  11.874  22.635  13.146
53889W        W20672  42.868  24.269   4.618
53890W        W20673  20.426  32.522   4.762
53891W        W20674  17.217   6.003   4.421
53892W        W20675   6.349   7.228   4.168
53893W        W20676   8.846  42.956   1.748
53894W        W20677  12.576  28.618  14.046
53895W        W20678  12.899  35.464   0.394
53896W        W20679   0.063  33.419   0.103
53897W        W20680  14.673  22.975  12.064
53898W        W20681  13.627  33.703   3.544
53899W        W20682  20.700  31.037   2.151
53900W        W20683   1.161   8.194  11.974
53901W        W20684  25.680  42.938   1.362
53902W        W20685   7.707  40.087   3.116
53903W        W20686  14.628  18.717   4.812
53904W        W20687  10.038   6.793   2.858
53905W        W20688   4.624   0.471   3.269
53906W        W20689  26.942  37.565  10.850
53907W        W20690  15.664  14.646   4.952
53908W        W20691  35.649  23.867   5.012
53909W        W20692  40.633   7.374  10.233
53910W        W20693  20.152  14.774   2.434
53911W        W20694  21.479  25.518  14.294
53912W        W20695  35.356  37.001   3.035
53913W        W20696   7.111  33.515   1.901
53914W        W20697  20.340  28.211  12.969
53915W        W20698   1.046  40.145  11.098
53916W        W20699  25.459   4.003   4.536
53917W        W20700  26.179  26.005   1.296
53918W        W20701  37.544   3.743  13.785
53919W        W20702  43.002  13.761   1.283
53920W        W20703  14.150  27.463   3.736
53921W        W20704  13.670  42.749   1.381
53922W        W20705  42.886  40.836   0.393
53923W        W20706  31.003  25.068  12.058
53924W        W20707  12.024   4.316  10.285
53925W        W20708  39.419   4.581  11.185
53926W        W20709  35.353  14.361   4.145
53927W        W20710  17.815  14.788  13.961
53928W        W20711  15.179  35.486   4.601
53929W        W20712  13.196  25.695   4.054
53930W        W20713   9.830  29.845  11.142
53931W        W20714  20.596  39.874   1.709
53932W        W20715  41.973  15.147   3.695
53933W        W20716  33.611  14.523  14.288
53934W        W20717  25.421  25.532   2.605
53935W        W20718  29.456  17.548  14.054
53936W        W20719   5.200  35.992   0.244
53937W        W20720   0.842   1.005   4.585
53938W        W20721  19.749   1.306   4.369
53939W        W20722  43.377   3.664  14.461
53940W        W20723  15.427  16.913   0.337
53941W        W20724  36.058  31.590   1.769
53942W        W20725  22.879  14.213  14.879
53943W        W20726  33.940   0.441   2.196
53944W        W20727   4.043  28.167  12.810
53945W        W20728  44.200   0.128  14.764
53946W        W20729  28.970  37.682   3.121
53947W        W20730  40.890   4.922  13.869
53948W        W20731   5.415  10.163   4.274
53949W        W20732  16.033  28.886   0.311
53950W        W20733  31.835  44.331   3.128
53951W        W20734  13.711  42.330   4.630
53952W        W20735  30.469  41.453   0.100
53953W        W20736   0.677  37.025  13.120
53954W        W20737  29.403  23.174   2.308
53955W        W20738  23.115  41.283   4.557
53956W        W20739   4.455  23.470  11.941
53957W        W20740  34.593  38.952   2.307
53958W        W20741  35.160  34.600  13.541
53959W        W20742  17.368  38.762   1.283
53960W        W20743  36.579   1.823   0.293
53961W        W20744  13.595  12.114  12.547
53962W        W20745  39.588  11.427  14.019
53963W        W20746  10.787  35.528  13.979
53964W        W20747  32.660  26.556  14.064
53965W        W20748  31.161  21.989  14.923
53966W        W20749  18.580  44.785  10.708
53967W        W20750  34.652   1.049   4.122
53968W        W20751  22.078  27.097  12.928
53969W        W20752  30.746  29.588  11.103
53970W        W20753  28.164  33.306   4.851
53971W        W20754  15.796   1.994  11.463
53972W        W20755  38.533  43.393  14.288
53973W        W20756  37.504  33.461  13.518
53974W        W20757  43.021   3.975  12.694
53975W        W20758  39.923  43.762  11.234
53976W        W20759  20.434  14.861   1.998
53977W        W20760  24.102  30.137   4.902
53978W        W20761  14.274  23.738  12.873
53979W        W20762  16.904  13.990  11.256
53980W        W20763  29.655  42.557   2.833
53981W        W20764   5.904  39.977  10.962
53982W        W20765  10.399   2.406   1.708
53983W        W20766  13.420   5.827   2.314
53984W        W20767  10.781  17.579  11.116
53985W        W20768  10.750   1.932   1.082
53986W        W20769   5.165  22.718   2.357
53987W        W20770   5.965  44.314  14.362
53988W        W20771  27.102  20.245   3.173
53989W        W20772  43.963  19.756  10.765
53990W        W20773  39.350   6.713  12.065
53991W        W20774  24.168  31.588   0.443
53992W        W20775  38.460  25.062   4.007
53993W        W20776  13.327  19.236   0.816
53994W        W20777  41.665   2.132   4.166
53995W        W20778  41.659   1.592   0.078
53996W        W20779  26.915  12.278  14.338
53997W        W20780  27.026  44.286   4.687
53998W        W20781  16.777   8.309   2.400
53999W        W20782  37.728  10.157   3.006
54000W        W20783  33.435   9.531   2.208
54001W        W20784  26.246  42.026   4.407
54002W        W20785  42.918  42.860   5.046
54003W        W20786   3.459   3.070  11.491
54004W        W20787   3.427  33.472   9.931
54005W        W20788  10.958  24.473  13.030
54006W        W20789  12.549  18.237   3.165
54007W        W20790  11.354  27.420   1.938
54008W        W20791  11.801  15.129  14.771
54009W        W20792  28.009  21.058  13.768
54010W        W20793  19.586  29.219   0.499
54011W        W20794  35.740  11.229   1.924
54012W        W20795   0.046   0.754   2.461
54013W        W20796  23.107  43.276  13.514
54014W        W20797  14.255   8.390   9.979
54015W        W20798  28.335   1.859   1.433
54016W        W20799   0.396   2.726  14.039
54017W        W20800  39.774  25.146  12.064
54018W        W20801   7.358  25.588   0.477
54019W        W20802  17.445   6.739   2.711
54020W        W20803  23.121   3.688   4.082
54021W        W20804  19.060  26.925  13.909
54022W        W20805  44.393  10.288   1.187
54023W        W20806  14.597  32.801   4.215
54024W        W20807  25.293  39.527  14.337
54025W        W20808  21.070  21.210   0.567
54026W        W20809  24.462  10.891   2.652
54027W        W20810  34.584  12.655  12.560
54028W        W20811  15.883  36.633   1.909
54029W        W20812  42.632  30.013   4.775
54030W        W20813  34.291  40.532   0.521
54031W        W20814   2.270  14.690  12.482
54032W        W20815  29.312   7.396   0.877
54033W        W20816  42.689  11.082   0.009
54034W        W20817  20.042  44.223   2.211
54035W        W20818  44.951  28.576   4.116
54036W        W20819  25.500  10.643   4.160
54037W        W20820  20.135  18.700   3.821
54038W        W20821  35.816  40.092   4.130
54039W        W20822  19.460  25.521   0.459
54040W        W20823   1.485  28.510  14.775
54041W        W20824  30.167   2.921   3.339
54042W        W20825   5.487  27.111  14.740
54043W        W20826  22.521  16.397  10.984
54044W        W20827  38.904  38.972   3.341
54045W        W20828  35.780  43.710   1.953
54046W        W20829  36.082  44.393   4.377
54047W        W20830  35.049  33.887   0.798
54048W        W20831  29.629   8.623  10.332
54049W        W20832  33.561  33.109   0.198
54050W        W20833  15.295  32.697   4.589
54051W        W20834  33.691  23.342  12.599
54052W        W20835  26.035   5.107  11.414
54053W        W20836   1.819  43.386   2.818
54054W        W20837   7.843  25.135   4.152
54055W        W20838  41.333   8.224   2.243
54056W        W20839  31.737   1.852   0.951
54057W        W20840   8.126  19.002   4.812
54058W        W20841  38.402  14.461   3.053
54059W        W20842  29.654  18.066   4.096
54060W        W20843  22.145  43.437  11.918
54061W        W20844  38.932   8.292  14.378
54062W        W20845  24.342   8.705  11.130
54063W        W20846  26.967  39.452  11.610
54064W        W20847  35.822  22.165   0.898
54065W        W20848  43.086   4.184   3.433
54066W        W20849  24.351   6.500  10.176
54067W        W20850  34.107  12.177  13.592
54068W        W20851  37.516   7.206   1.541
54069W        W20852  27.607  10.405  10.067
54070W        W20853  14.207  12.844   0.392
54071W        W20854  15.590  18.632  12.031
54072W        W20855  37.379  39.390  13.866
54073W        W20856  32.975   2.449  14.322
54074W        W20857  39.980  10.828   2.231
54075W        W20858  23.947  10.869   1.714
54076W        W20859  21.137  23.274   4.225
54077W        W20860  36.042  11.130   1.367
54078W        W20861   8.292   4.395   1.454
54079W        W20862  19.190   0.191  12.723
54080W        W20863  27.285   7.115   1.914
54081W        W20864  23.531  16.270   0.296
54082W        W20865  17.875  31.896  12.924
54083W        W20866  11.620  42.175   0.806
54084W        W20867   6.953  43.117  14.477
54085W        W20868  38.174  15.965  12.899
54086W        W20869  38.347  43.733  13.435
54087W        W20870  10.125  21.110  12.785
54088W        W20871  12.387  18.048   2.715
54089W        W20872  31.707  41.088   0.397
54090W        W20873   6.618  18.348  12.126
54091W        W20874   7.643  18.696   1.327
54092W        W20875  12.564  34.449   3.545
54093W        W20876   0.969  38.326  12.980
54094W        W20877  16.731  36.250  10.487
54095W        W20878   3.521  16.616  10.784
54096W        W20879  21.957  31.520  14.913
54097W        W20880  24.461  37.465  10.721
54098W        W20881   2.350   8.957  12.339
54099W        W20882  15.704  21.516   3.300
54100W        W20883  21.222  23.579  12.189
54101W        W20884  33.410  27.246   3.549
54102W        W20885   6.105  23.186   1.290
54103W        W20886  25.261  24.440   0.319
54104W        W20887   4.199  22.132   3.686
54105W        W20888  20.579  31.870  12.111
54106W        W20889  36.959  28.612  14.830
54107W        W20890  23.250  21.483   0.746
54108W        W20891   0.952   1.809   1.858
54109W        W20892  15.572   6.372   0.275
54110W        W20893  44.743  13.165   1.985
54111W        W20894   8.851  40.035  12.831
54112W        W20895   6.248  18.279   3.755
54113W        W20896  28.520  39.447   4.651
54114W        W20897   6.323  36.969  13.991
54115W        W20898  20.912   3.298  13.841
54116W        W20899  44.915   5.472  10.593
54117W        W20900  43.886  35.393   4.533
54118W        W20901  17.558  38.120  11.120
54119W        W20902  35.562  13.415   1.339
54120W        W20903  40.266   4.850   2.830
54121W        W20904  44.769  42.900   2.102
54122W        W20905  33.723  44.816   3.437
54123W        W20906   9.142  14.226   4.603
54124W        W20907  40.106  26.568   2.422
54125W        W20908  27.061   6.838   3.175
54126W        W20909   0.849   2.433  12.529
54127W        W20910   6.937  11.567  14.068
54128W        W20911  34.957  20.015   0.892
54129W        W20912  20.011  43.442   2.691
54130W        W20913  37.584  16.344  13.887
54131W        W20914  13.134   2.252   1.826
54132W        W20915   2.161  15.213   0.413
54133W        W20916  42.407  29.609   1.914
54134W        W20917  43.691  17.307  14.250
54135W        W20918   7.339  35.080  13.768
54136W        W20919  24.010  13.397  11.152
54137W        W20920  18.645  19.185  14.716
54138W        W20921  10.700  31.611   3.234
54139W        W20922   1.773  20.594  12.047
54140W        W20923  22.742  23.642  12.504
54141W        W20924  14.731  12.844   1.661
54142W        W20925   8.430  36.119  12.046
54143W        W20926  40.095  17.320  14.461
54144W        W20927  23.048  13.165   4.797
54145W        W20928  18.164  36.190   4.222
54146W        W20929  44.032   3.774   1.711
54147W        W20930  31.427  43.343  13.479
54148W        W20931  13.752  37.947  10.417
54149W        W20932  28.099   7.177  12.910
54150W        W20933  28.226   7.693  12.930
54151W        W20934  19.822  24.576  12.506
54152W        W20935  26.937  43.288   3.749
54153W        W20936  15.046  31.108   4.819
54154W        W20937  36.324  32.944   4.018
54155W        W20938  33.014  37.825   2.343
54156W        W20939   8.282  36.413   3.105
54157W        W20940  12.383  25.931   1.753
54158W        W20941  27.492  11.769   2.793
54159W        W20942   0.862  27.097   3.733
54160W        W20943  28.654  23.343   0.841
54161W        W20944  15.167   0.172  12.989
54162W        W20945   2.914  18.096  12.237
54163W        W20946  37.063  35.365  10.813
54164W        W20947  26.952   3.279  10.538
54165W        W20948  11.275  27.400  13.601
54166W        W20949  29.483  11.559   4.981
54167W        W20950  27.840   1.998  14.048
54168W        W20951  36.029  22.455   4.691
54169W        W20952  12.433  16.721   2.381
54170W        W20953  43.869  22.558  12.889
54171W        W20954  30.643  18.593   1.817
54172W        W20955  11.909  11.389   4.032
54173W        W20956  18.710  43.888   0.057
54174W        W20957  26.088  17.160  10.444
54175W        W20958  24.655  19.280  11.093
54176W        W20959  30.730  43.756   0.271
54177W        W20960   8.159   7.699   0.772
54178W        W20961  32.570  41.431   4.831
54179W        W20962  25.600  39.909  12.786
54180W        W20963  17.165  33.633  10.626
54181W        W20964  34.324  17.573   5.000
54182W        W20965  11.259  25.444   0.415
54183W        W20966   9.147   1.567   5.020
54184W        W20967  35.922  40.596  12.000
54185W        W20968  24.394  34.615  14.846
54186W        W20969   5.932  34.561  11.100
54187W        W20970  25.794  17.316   2.613
54188W        W20971  24.285  35.405   0.316
54189W        W20972   4.111   0.764   1.808
54190W        W20973  28.474   5.002  10.655
54191W        W20974  10.825  37.391   3.162
54192W        W20975  12.511  18.319   4.087
54193W        W20976   1.842   5.364  10.747
54194W        W20977  30.478  10.436  11.020
54195W        W20978  15.548  28.331   0.953
54196W        W20979  37.665  44.034   3.872
54197W        W20980  42.808  36.522  11.530
54198W        W20981  40.951  21.752   1.522
54199W        W20982  31.653   0.758  11.111
54200W        W20983   8.674  12.582  12.660
54201W        W20984  26.865  34.619  14.001
54202W        W20985  11.867  29.946   3.332
54203W        W20986   8.190   9.625  11.316
54204W        W20987  43.985  18.980  12.062
54205W        W20988  22.797  16.165  11.363
54206W        W20989  11.925  24.491  14.025
54207W        W20990   4.494  16.129   3.868
54208W        W20991  26.094   7.886  12.562
54209W        W20992  37.056  35.048  12.030
54210W        W20993  42.051  40.403  10.833
54211W        W20994  20.285  34.738   4.182
54212W        W20995  11.423  16.746  12.484
54213W        W20996  20.457  18.087   2.357
54214W        W20997  39.802  22.071  13.814
54215W        W20998   6.689   8.164  14.640
54216W        W20999   7.662  26.893   4.801
54217W        W21000  43.055  31.115  11.228
54218W        W21001  17.198   0.266   0.726
54219W        W21002   7.816  33.592   1.344
54220W        W21003  23.015  18.204  12.889
54221W        W21004  10.807  16.163   0.775
54222W        W21005  26.233   1.649  14.877
54223W        W21006  36.293  15.584   0.722
54224W        W21007   8.663   8.552   4.660
54225W        W21008  16.660  11.901   2.702
54226W        W21009  31.785  26.885   0.253
54227W        W21010   3.952  29.531  12.274
54228W        W21011  41.859  32.864   4.304
54229W        W21012  32.479  23.994   1.859
54230W        W21013   6.784  33.867  11.958
54231W        W21014  38.865  30.895  14.008
54232W        W21015  43.483  29.174   1.970
54233W        W21016  24.111  37.738  14.104
54234W        W21017  16.167   1.236  13.748
54235W        W21018  26.850  19.883  13.768
54236W        W21019  20.189   0.402  10.297
54237W        W21020  34.571   6.149   0.556
54238W        W21021  31.908  35.551  11.020
54239W        W21022   1.514   1.538   3.325
54240W        W21023  39.260  44.524   3.233
54241W        W21024  31.795  20.746  13.952
54242W        W21025  26.217  31.518  10.892
54243W        W21026  26.672  28.369   2.319
54244W        W21027   1.978   3.218  11.106
54245W        W21028  23.045  39.568  11.582
54246W        W21029  12.971  35.821   2.189
54247W        W21030  29.095  17.583   2.900
54248W        W21031  31.536  24.399   1.820
54249W        W21032   5.042  13.151  12.442
54250W        W21033   2.746  37.836  11.360
54251W        W21034  18.352   4.380  11.165
54252W        W21035  11.808  27.222  12.452
54253W        W21036  18.010  35.069  11.389
54254W        W21037  13.940  13.323  13.888
54255W        W21038  32.090  11.565  10.666
54256W        W21039  41.870  20.150  12.375
54257W        W21040   9.150   8.937  14.430
54258W        W21041  34.760  17.586   1.216
54259W        W21042  31.722  27.931   3.709
54260W        W21043  39.735  19.056   1.095
54261W        W21044  34.723  26.032  12.330
54262W        W21045   1.370  24.166  10.982
54263W        W21046  42.345  14.809   4.556
54264W        W21047  26.196  20.135  14.431
54265W        W21048  26.907  44.070  12.353
54266W        W21049  32.206  15.133   2.367
54267W        W21050  38.500   6.801  10.472
54268W        W21051  42.849  16.269  14.062
54269W        W21052  21.288   3.082   2.346
54270W        W21053  25.494  15.306  12.266
54271W        W21054   4.897  19.762  13.017
54272W        W21055  37.301   1.441  10.769
54273W        W21056  10.745  27.333  12.725
54274W        W21057   6.861  18.238   1.241
54275W        W21058  18.138   0.747  13.251
54276W        W21059  13.858  32.725   0.260
54277W        W21060   8.823  23.996  13.677
54278W        W21061  43.450  41.865   0.798
54279W        W21062   0.274   3.875  11.159
54280W        W21063  27.832  32.188   0.028
54281W        W21064  14.378   8.285   0.820
54282W        W21065  22.580   3.649   3.392
54283W        W21066  35.794  37.448   1.903
54284W        W21067  33.284  44.737  14.700
54285W        W21068  14.760  38.839  13.559
54286W        W21069  32.145   1.541   1.003
54287W        W21070  40.472  19.249   0.426
54288W        W21071  39.368   8.743   2.707
54289W        W21072  32.379  33.929   0.902
54290W        W21073  12.708  11.600   2.744
54291W        W21074   8.676  36.082  13.397
54292W        W21075   0.421   6.598   2.516
54293W        W21076  35.995  43.733  14.412
54294W        W21077  23.730  31.816  13.001
54295W        W21078   0.663  25.669  11.377
54296W        W21079  38.078  24.672  10.728
54297W        W21080  29.638  20.662   3.612
54298W        W21081   1.034  30.701   2.845
54299W        W21082   7.407   6.411   0.755
54300W        W21083  17.261   4.830   4.072
54301W        W21084  30.322  21.220  10.993
54302W        W21085   0.289  42.014  12.516
54303W        W21086   1.406   5.858   2.087
54304W        W21087  29.161  38.898  14.030
54305W        W21088  42.466  38.260   0.866
54306W        W21089  43.883   8.410   1.345
54307W        W21090  39.079  19.098  11.106
54308W        W21091  22.522  38.514  13.025
54309W        W21092  30.840  23.273   1.717
54310W        W21093  17.186  15.786  11.984
54311W        W21094  26.272  15.379  12.561
54312W        W21095  42.059  31.028  11.863
54313W        W21096  25.120  29.687  10.415
54314W        W21097  14.341  32.688   1.047
54315W        W21098  26.258  39.496  11.093
54316W        W21099  27.675  26.122   4.224
54317W        W21100  14.695  42.496   4.333
54318W        W21101  32.577   1.197  12.554
54319W        W21102  40.210  30.934   1.796
54320W        W21103  12.679  26.657   1.739
54321W        W21104  27.750  22.506   3.067
54322W        W21105  19.768  28.084   3.139
54323W        W21106  37.989  34.395  13.284
54324W        W21107   2.492  14.876   1.880
54325W        W21108   5.012  17.650  10.976
54326W        W21109  33.647   9.792   1.245
54327W        W21110   5.766  17.540  13.957
54328W        W21111  14.623   2.247   2.286
54329W        W21112  30.892  40.868   2.023
54330W        W21113  39.293  37.544  13.968
54331W        W21114  29.991  34.649  10.692
54332W        W21115  32.557  22.549   1.357
54333W        W21116  19.729  40.444   4.463
54334W        W21117  34.841  28.863  10.334
54335W        W21118   5.398  42.260   2.043
54336W        W21119   8.607   8.794   3.291
54337W        W21120  12.217  10.336   1.839
54338W        W21121   5.136  14.142  13.376
54339W        W21122   9.910  35.981   1.176
54340W        W21123  32.603  28.070   1.717
54341W        W21124   2.335   6.221   3.855
54342W        W21125  44.317   7.285   2.672
54343W        W21126  39.557  37.601   1.260
54344W        W21127  14.178  27.430  13.285
54345W        W21128   0.900  18.409   1.907
54346W        W21129  38.144  27.904  10.301
54347W        W21130  22.590   2.886  13.403
54348W        W21131  28.464  15.600  12.319
54349W        W21132   1.919  32.560   0.257
54350W        W21133  16.009   3.393   3.202
54351W        W21134  31.527  15.327  14.831
54352W        W21135  10.792   0.541   1.330
54353W        W21136  13.187  41.993  11.848
54354W        W21137   9.765  18.144   2.810
54355W        W21138  17.343  19.771  12.490
54356W        W21139  29.343  24.479  12.833
54357W        W21140  38.879  32.202  11.999
54358W        W21141  17.197  31.568  13.618
54359W        W21142  13.249  25.921   1.602
54360W        W21143   2.336   7.896   0.960
54361W        W21144   8.717  20.777  13.763
54362W        W21145  22.381   1.080   5.014
54363W        W21146  31.785   3.023  10.823
54364W        W21147  37.006   6.943  13.066
54365W        W21148   0.694  41.272   4.520
54366W        W21149  23.494  29.389  13.044
54367W        W21150  34.785   5.701  10.656
54368W        W21151   8.806   3.224  11.343
54369W        W21152   5.684  14.760   0.353
54370W        W21153  13.211   0.034  11.107
54371W        W21154  10.303  44.520   1.845
54372W        W21155  30.817   1.631  11.139
54373W        W21156   3.071  13.193  14.716
54374W        W21157  36.152  14.209   3.830
54375W        W21158  37.740  32.318  11.335
54376W        W21159  13.002  38.607   3.277
54377W        W21160  28.905  10.660  13.047
54378W        W21161  42.720   3.799   3.647
54379W        W21162  34.046  36.964  12.939
54380W        W21163  35.908  44.177  12.318
54381W        W21164   2.894  41.006  13.357
54382W        W21165   9.642  15.876   3.267
54383W        W21166  32.687  13.237   0.516
54384W        W21167  28.617  29.185   4.801
54385W        W21168   3.902  40.805  10.947
54386W        W21169  28.470  33.236   3.852
54387W        W21170  31.345  37.748   2.824
54388W        W21171  20.536  37.465  13.563
54389W        W21172  16.841  44.471   4.065
54390W        W21173  32.070   2.401  12.754
54391W        W21174  31.313  33.760   0.061
54392W        W21175  38.723  10.731   2.884
54393W        W21176  12.592  30.437  13.872
54394W        W21177  25.999   6.960   2.777
54395W        W21178  19.479   2.347  10.636
54396W        W21179  10.450  21.020  10.037
54397W        W21180  29.145  44.952  10.689
54398W        W21181  29.432  29.456  14.285
54399W        W21182  17.666  16.982   2.353
54400W        W21183   3.567  22.618  10.375
54401W        W21184  19.484  43.950  14.872
54402W        W21185  16.501   5.472   3.709
54403W        W21186   5.827  40.280   1.189
54404W        W21187   7.977  18.278  12.397
54405W        W21188  18.793  21.732   2.008
54406W        W21189  32.083   6.834   3.387
54407W        W21190  25.759  28.989   5.173
54408W        W21191  35.955  44.973  12.868
54409W        W21192  25.013  34.361   4.332
54410W        W21193  34.375  11.704   2.770
54411W        W21194  37.768  23.836  13.981
54412W        W21195  18.174  37.461   1.680
54413W        W21196  21.162  14.688   4.578
54414W        W21197  11.632  18.654  14.292
54415W        W21198   1.389   6.821   2.138
54416W        W21199  14.365  24.676  13.925
54417W        W21200   1.914   8.948  12.578
54418W        W21201  43.118   2.693  14.803
54419W        W21202  39.990   5.371  12.889
54420W        W21203   0.354  42.961   0.170
54421W        W21204  38.530  17.734  14.887
54422W        W21205   8.475  17.301  13.964
54423W        W21206   9.769   3.997  14.462
54424W        W21207  21.344  12.538  13.594
54425W        W21208  12.510  33.687  13.817
54426W        W21209  18.638  27.458  13.146
54427W        W21210  30.541  37.410   3.381
54428W        W21211  30.438  40.312  12.602
54429W        W21212  25.416  39.403   3.142
54430W        W21213  10.235  29.434   0.429
54431W        W21214  19.373  26.191   2.357
54432W        W21215  16.972  30.162   1.338
54433W        W21216  16.334   6.385   0.745
54434W        W21217  39.185   2.152   1.028
54435W        W21218   2.201  31.189  14.370
54436W        W21219  39.996   7.407  14.561
54437W        W21220  37.942  10.749  12.477
54438W        W21221  34.618  28.806   0.216
54439W        W21222   1.721  43.228  14.490
54440W        W21223  27.493  41.534   4.899
54441W        W21224  39.235  28.583  10.468
54442W        W21225  36.543  33.416   4.137
54443W        W21226  10.668  12.002   3.353
54444W        W21227  30.353  39.887   1.163
54445W        W21228  14.244   9.369   0.297
54446W        W21229  22.051   7.201   1.279
54447W        W21230  25.537  29.106  14.977
54448W        W21231  17.721  42.720  11.131
54449W        W21232  13.598  34.712  12.765
54450W        W21233  21.444   7.153   1.816
54451W        W21234   7.671  37.359   4.309
54452W        W21235   8.025   2.406  12.945
54453W        W21236  41.226   1.338  14.728
54454W        W21237  27.349  20.406   4.158
54455W        W21238  35.303  27.472   1.268
54456W        W21239  39.385  32.544  13.662
54457W        W21240  25.713  36.922   2.721
54458W        W21241  26.543  16.007  13.369
54459W        W21242   7.386  41.499  10.962
54460W        W21243  31.179   1.497  13.406
54461W        W21244  22.441   1.909  13.352
54462W        W21245   6.384  22.304   0.873
54463W        W21246  21.743  34.006   3.659
54464W        W21247  25.558   8.444   4.498
54465W        W21248  38.354   0.672   2.212
54466W        W21249   0.253  22.433  13.012
54467W        W21250  30.628  43.929  11.711
54468W        W21251  35.657  16.911   2.869
54469W        W21252  43.395  30.702   4.121
54470W        W21253  34.069  38.532   1.800
54471W        W21254   3.697  15.583   4.626
54472W        W21255  42.077  39.018  11.574
54473W        W21256  19.164  14.084   2.902
54474W        W21257  19.048   9.831  14.845
54475W        W21258  18.178  33.417  13.649
54476W        W21259  37.867   5.683  10.774
54477W        W21260  33.492  25.535  13.037
54478W        W21261  28.219   7.230   1.746
54479W        W21262   8.296  14.235   1.368
54480W        W21263  34.605  28.112   3.627
54481W        W21264   1.794   9.773   4.645
54482W        W21265  34.123  24.130   2.287
54483W        W21266  22.125  25.225   1.217
54484W        W21267  43.235   6.691   1.932
54485W        W21268  32.687   2.829   3.832
54486W        W21269  41.477   3.027  13.869
54487W        W21270  39.239  43.360  14.030
54488W        W21271  40.163   3.293  11.571
54489W        W21272   9.391   3.455  12.137
54490W        W21273  12.229   8.893   1.394
54491W        W21274  18.215  30.588  11.204
54492W        W21275  22.592  27.992   1.696
54493W        W21276  13.508   7.269   3.310
54494W        W21277  28.915  13.242   3.089
54495W        W21278  37.075  20.621  11.521
54496W        W21279   0.778  34.552   3.595
54497W        W21280  38.534   3.752  13.134
54498W        W21281  43.789  24.618   4.289
54499W        W21282  24.662  10.598  11.114
54500W        W21283   8.764  17.075   0.225
54501W        W21284   5.905  36.884  10.923
54502W        W21285  32.494  18.312  10.119
54503W        W21286  21.053  30.699  11.540
54504W        W21287  16.149   4.850  10.476
54505W        W21288  21.533  22.850  10.129
54506W        W21289  28.627   2.505  11.802
54507W        W21290  41.592  36.869  14.552
54508W        W21291  13.694  10.022   0.486
54509W        W21292  13.098   5.986   2.689
54510W        W21293   0.373   2.623   1.703
54511W        W21294  11.681  30.590   4.646
54512W        W21295  10.863  13.774  14.436
54513W        W21296   4.455   7.438  13.808
54514W        W21297   8.771  39.594  13.087
54515W        W21298  17.804   4.595   3.984
54516W        W21299  28.907  41.170   3.381
54517W        W21300  39.413  10.054  11.707
54518W        W21301  25.198  23.722   1.987
54519W        W21302  34.965  12.652  14.000
54520W        W21303  18.361  34.379  13.492
54521W        W21304  22.237  16.976   2.819
54522W        W21305  37.811  40.039  13.302
54523W        W21306  23.996  38.651  11.218
54524W        W21307  30.667   3.323  11.553
54525W        W21308  16.180  30.099  12.995
54526W        W21309  38.495  16.301   0.957
54527W        W21310  31.288  25.538   3.391
54528W        W21311  33.598   1.973  11.197
54529W        W21312  29.108  40.180   4.000
54530W        W21313   6.411  14.814   1.901
54531W        W21314   2.148  12.586   3.762
54532W        W21315   3.386  34.336   4.303
54533W        W21316   8.449  12.675   3.094
54534W        W21317  16.268  33.257   2.707
54535W        W21318  18.728  34.043   4.656
54536W        W21319  16.534  14.873   0.357
54537W        W21320   9.462  21.668  12.491
54538W        W21321  22.077  16.640  11.052
54539W        W21322  44.523  26.781  13.495
54540W        W21323  36.534   9.577   1.045
54541W        W21324   1.317  31.569  14.507
54542W        W21325   8.440  34.053  13.003
54543W        W21326  42.542   3.010   0.435
54544W        W21327  36.843  17.031  13.698
54545W        W21328  33.826  28.893  11.261
54546W        W21329  41.271  33.227  14.302
54547W        W21330  20.451  28.612   2.657
54548W        W21331  14.889  13.395   4.562
54549W        W21332   3.685  33.454  10.748
54550W        W21333  39.368  32.504   1.014
54551W        W21334  31.036  22.705   2.562
54552W        W21335  12.328  34.263  12.967
54553W        W21336  21.220  10.196  10.470
54554W        W21337  39.924  37.950  11.764
54555W        W21338  33.882  13.271   3.649
54556W        W21339   6.221  13.665  13.413
54557W        W21340  21.191  27.433  12.401
54558W        W21341  14.834   2.016   1.788
54559W        W21342  38.326   5.486  13.505
54560W        W21343  35.032  24.657   4.099
54561W        W21344  19.631   8.432  10.823
54562W        W21345  24.893  42.297   1.362
54563W        W21346  37.541  11.649   3.821
54564W        W21347   9.101  43.439   1.776
54565W        W21348   9.370  11.805   2.314
54566W        W21349   1.269  12.604  14.236
54567W        W21350  30.053  34.535   1.646
54568W        W21351  28.473   5.258   2.251
54569W        W21352  41.307  42.296   1.333
54570W        W21353   9.416  41.151  11.714
54571W        W21354   2.919  35.854   4.666
54572W        W21355  14.199   6.732   4.190
54573W        W21356  16.549  16.243   1.319
54574W        W21357  23.332  20.375   2.325
54575W        W21358   9.368  13.801  13.438
54576W        W21359   3.407  30.166  12.479
54577W        W21360   8.960   9.239   1.260
54578W        W21361  26.341  34.019  13.495
54579W        W21362  44.439  34.983   1.300
54580W        W21363  13.167  41.641   3.601
54581W        W21364  37.562   1.232   1.386
54582W        W21365  22.255  41.547  14.688
54583W        W21366   5.895   4.616  11.919
54584W        W21367   8.517  11.463   4.577
54585W        W21368  28.033  21.788   2.702
54586W        W21369   8.788  21.679   4.065
54587W        W21370   2.854  33.128   4.849
54588W        W21371  29.003  36.184  12.661
54589W        W21372  39.857  39.706  10.648
54590W        W21373   6.036  11.588  14.073
54591W        W21374  25.238   8.078  12.976
54592W        W21375  38.960  42.847   1.130
54593W        W21376   2.894  17.105  14.759
54594W        W21377  25.987   8.367  12.692
54595W        W21378  16.742  26.069  12.419
54596W        W21379  24.175  11.670  13.439
54597W        W21380  27.704  38.312   4.392
54598W        W21381  15.819  27.127   1.919
54599W        W21382  15.883  15.436  13.319
54600W        W21383   8.255  11.817  13.780
54601W        W21384  21.160  16.212  14.955
54602W        W21385  35.337  31.903  11.487
54603W        W21386  15.483  16.179   4.724
54604W        W21387   5.460  21.663   2.180
54605W        W21388  16.651  39.494  13.232
54606W        W21389   6.362  23.823  12.081
54607W        W21390  41.890  37.194  13.186
54608W        W21391  40.898  36.056   3.083
54609W        W21392  40.651  15.291   1.403
54610W        W21393  12.542   3.152   1.972
54611W        W21394   2.750  11.863   2.116
54612W        W21395  22.845  29.493   1.422
54613W        W21396  10.108  18.666  13.036
54614W        W21397  22.591   4.731   2.584
54615W        W21398  36.801  21.170   1.017
54616W        W21399  43.245  23.036   1.794
54617W        W21400   4.624  25.550  11.232
54618W        W21401  30.923  43.464   3.642
54619W        W21402   4.507  29.043   1.842
54620W        W21403  35.018  31.696  14.305
54621W        W21404  10.873   9.968   1.721
54622W        W21405  22.617   5.879  13.937
54623W        W21406   7.833  15.631  10.722
54624W        W21407   0.055  23.132   4.252
54625W        W21408  32.241  26.079  13.493
54626W        W21409   6.592   5.890   0.309
54627W        W21410  40.417   7.716   0.646
54628W        W21411  40.582  41.640   3.421
54629W        W21412  39.433  21.971   4.918
54630W        W21413  41.540  42.489   3.302
54631W        W21414  18.858  37.340   4.147
54632W        W21415   9.829  32.434   4.497
54633W        W21416  34.141   0.947   4.229
54634W        W21417   0.476  19.187   0.775
54635W        W21418  24.383  14.251  14.823
54636W        W21419  40.979   2.222  14.363
54637W        W21420   5.366  35.984   0.746
54638W        W21421  37.387  15.429   3.232
54639W        W21422   5.928  15.206  12.980
54640W        W21423  19.575  24.916   1.236
54641W        W21424  43.169   6.393  13.488
54642W        W21425  31.382  36.566  12.661
54643W        W21426   9.664  27.633   3.874
54644W        W21427  19.656  16.581   0.814
54645W        W21428  44.369  39.577   2.243
54646W        W21429  26.515  36.073   3.599
54647W        W21430  25.928  12.059  10.630
54648W        W21431  42.319  40.004   3.581
54649W        W21432  22.979   2.893  14.437
54650W        W21433  31.148   3.672  13.814
54651W        W21434  24.209   9.636   4.472
54652W        W21435  31.307  17.714  13.481
54653W        W21436  20.106  14.990   1.408
54654W        W21437   0.171  22.105   1.294
54655W        W21438  37.071  41.548  13.389
54656W        W21439  20.675   7.988   0.218
54657W        W21440  14.322  44.776   3.696
54658W        W21441  22.198   0.036   3.173
54659W        W21442   0.210   1.334   4.130
54660W        W21443  24.298  11.377  12.629
54661W        W21444  15.747  17.031   1.965
54662W        W21445  11.126  29.039   2.383
54663W        W21446   6.836   5.752   2.249
54664W        W21447  40.859  16.993   4.828
54665W        W21448  35.477  42.315   1.282
54666W        W21449  13.151  41.372   4.490
54667W        W21450  24.928  17.552  12.364
54668W        W21451  26.119   5.726  12.781
54669W        W21452  10.428  19.079   4.223
54670W        W21453  37.156  39.224   1.492
54671W        W21454  34.085  14.185   2.769
54672W        W21455  42.903  21.647  11.134
54673W        W21456  21.768  17.824   3.314
54674W        W21457   4.885   1.439   0.499
54675W        W21458  20.757  19.184   1.700
54676W        W21459  14.696  42.032  13.555
54677W        W21460   8.828   0.555   2.892
54678W        W21461  26.962  29.986  12.400
54679W        W21462  25.990  39.015   3.643
54680W        W21463  31.473  14.321  14.045
54681W        W21464  33.439  28.074   2.415
54682W        W21465  18.055  20.208   0.912
54683W        W21466  18.596  10.176  10.918
54684W        W21467   3.593   9.362  11.025
54685W        W21468   4.989  31.138  11.969
54686W        W21469  41.903  40.187  12.993
54687W        W21470  21.132  13.078   3.783
54688W        W21471  37.339  12.636   4.063
54689W        W21472  21.057  32.659  13.946
54690W        W21473  23.030  44.737   4.146
54691W        W21474  16.845  42.468   4.814
54692W        W21475   8.974  39.151   4.534
54693W        W21476   4.768  14.638   4.853
54694W        W21477  21.472   4.335   1.937
54695W        W21478  27.686  38.190  11.255
54696W        W21479   2.803  39.026  14.312
54697W        W21480  28.741  37.863  10.375
54698W        W21481  25.654  40.604   3.621
54699W        W21482   1.780  20.271  13.413
54700W        W21483  37.860  14.189  10.702
54701W        W21484  38.881   0.822   0.960
54702W        W21485  17.017   7.360  11.472
54703W        W21486   5.704  31.579   2.329
54704W        W21487   0.424  25.600   4.850
54705W        W21488  21.791  26.103  12.069
54706W        W21489  13.228   7.048   4.691
54707W        W21490   0.974  39.578  12.513
54708W        W21491  30.336   0.849   3.267
54709W        W21492  29.409  20.698   2.197
54710W        W21493  27.631   9.104  14.898
54711W        W21494  43.294   7.121  13.812
54712W        W21495   1.916   6.537   3.725
54713W        W21496  37.342  44.342  10.568
54714W        W21497   5.337  40.951   4.079
54715W        W21498  26.767  36.659  13.836
54716W        W21499  13.844  33.724   0.457
54717W        W21500   6.394  37.603   0.370
54718W        W21501  23.741  35.666  13.458
54719W        W21502   5.140  28.573  13.048
54720W        W21503  38.420  16.301  13.634
54721W        W21504   4.571   6.897   5.115
54722W        W21505  27.092  16.045   2.040
54723W        W21506  29.968  32.465  13.941
54724W        W21507  42.759  30.432   2.169
54725W        W21508   1.663   4.274  12.938
54726W        W21509  36.893  31.839  13.802
54727W        W21510   0.353  42.282   4.124
54728W        W21511  11.867  19.193  12.072
54729W        W21512  19.019  39.432  11.068
54730W        W21513  28.703  34.010   0.795
54731W        W21514  31.449   8.790   2.081
54732W        W21515   3.013  38.662  11.574
54733W        W21516  41.334   2.416  13.000
54734W        W21517   1.795  19.149   2.205
54735W        W21518  29.882   6.719   2.833
54736W        W21519   9.966  21.545  13.326
54737W        W21520  15.640  23.798   0.911
54738W        W21521   2.476  31.652   0.492
54739W        W21522  33.664   6.116   2.263
54740W        W21523   7.635  23.733   2.345
54741W        W21524  32.847  30.131   2.872
54742W        W21525  43.992  15.627  13.073
54743W        W21526  32.110  26.427   1.410
54744W        W21527  33.230   2.950   1.746
54745W        W21528   2.774  21.073   2.100
54746W        W21529  27.898  20.873   1.362
54747W        W21530  35.333  24.083   1.567
54748W        W21531  11.267  21.265  12.665
54749W        W21532  12.094  41.406   0.860
54750W        W21533  28.697   3.406   2.322
54751W        W21534  26.081   8.459   1.763
54752W        W21535   6.275  17.363   3.215
54753W        W21536  32.876  28.726   4.023
54754W        W21537  32.652  33.064   3.132
54755W        W21538  44.786  44.496  10.570
54756W        W21539   1.259  19.172   0.268
54757W        W21540  25.370  33.326  12.512
54758W        W21541  37.169  41.053  13.663
54759W        W21542  39.052  13.472   3.972
54760W        W21543  20.628  23.443   4.829
54761W        W21544  38.843  38.518   3.611
54762W        W21545  42.274   4.692   4.594
54763W        W21546  43.106  34.371  13.496
54764W        W21547  21.859  32.025  14.759
54765W        W21548  24.500  21.078  14.832
54766W        W21549   8.126  43.398   4.167
54767W        W21550  17.707  25.872   4.088
54768W        W21551  14.723  10.358   0.563
54769W        W21552  12.465  19.464   1.582
54770W        W21553   5.171  11.147   4.197
54771W        W21554  18.593  15.673  13.317
54772W        W21555  27.243  31.446  10.743
54773W        W21556   3.695  37.679  12.102
54774W        W21557  39.059  25.960   3.238
54775W        W21558   2.179  42.960  12.913
54776W        W21559  42.559  30.733  11.979
54777W        W21560  17.878  35.836  11.065
54778W        W21561   6.120  10.218   3.819
54779W        W21562  34.716  38.765  12.993
54780W        W21563  33.092   2.037  11.800
54781W        W21564  12.384  30.380  11.955
54782W        W21565  20.230  13.598  14.978
54783W        W21566   8.605  21.894  12.148
54784W        W21567  15.663  23.099   3.623
54785W        W21568  17.197  16.933   4.090
54786W        W21569  32.536   2.207   2.492
54787W        W21570  40.826  16.681  13.322
54788W        W21571  38.802  16.331  12.024
54789W        W21572  24.515  27.191  13.264
54790W        W21573  33.676  27.559   0.573
54791W        W21574  16.459   5.917   0.959
54792W        W21575  21.924   3.431   1.305
54793W        W21576   4.941  18.136  10.739
54794W        W21577   7.792  22.187  12.167
54795W        W21578  40.005   2.891   3.907
54796W        W21579   6.225  26.442   3.609
54797W        W21580  10.298   4.249  14.762
54798W        W21581  40.841  14.526   0.441
54799W        W21582  12.237  43.979   0.238
54800W        W21583  17.773  14.221   2.476
54801W        W21584  29.873  10.627  14.071
54802W        W21585  41.138   6.808  12.997
54803W        W21586  43.599  35.368  14.951
54804W        W21587  31.851  32.033  10.834
54805W        W21588  13.896   8.325   9.620
54806W        W21589   6.644  26.212   0.494
54807W        W21590  41.389  38.123   2.898
54808W        W21591   3.125  40.432  12.477
54809W        W21592  32.879  22.365  12.006
54810W        W21593  39.869  32.512   3.319
54811W        W21594  39.263  23.140   1.437
54812W        W21595  40.273  43.568   4.228
54813W        W21596   1.882  22.559   4.805
54814W        W21597  16.863  27.037   1.912
54815W        W21598  34.555  43.396  11.522
54816W        W21599  18.704   2.703  14.368
54817W        W21600   2.409  19.572   0.827
54818W        W21601  44.910   9.930   0.769
54819W        W21602  30.375   2.984  12.061
54820W        W21603  36.848   0.379  12.895
54821W        W21604   8.888  38.317  14.128
54822W        W21605  43.012  42.005  12.488
54823W        W21606  20.152  30.936  13.842
54824W        W21607  38.515  22.742   1.287
54825W        W21608   2.804  26.396  13.402
54826W        W21609   9.212   2.653   1.344
54827W        W21610  31.185  13.322   0.460
54828W        W21611  25.218  10.214   0.945
54829W        W21612   5.891  35.216  12.690
54830W        W21613  11.633  13.448  10.720
54831W        W21614  36.638  34.867   1.472
54832W        W21615   3.787  37.856  14.938
54833W        W21616  35.043  18.495  13.057
54834W        W21617  33.328  14.610  12.504
54835W        W21618  15.710  15.919  13.235
54836W        W21619  17.145  23.280   1.938
54837W        W21620  31.557  17.877   2.862
54838W        W21621  11.553   3.743   3.216
54839W        W21622  26.835  18.132  11.717
54840W        W21623  11.180  11.396  13.712
54841W        W21624  23.948  20.724   1.792
54842W        W21625  40.279  33.463  11.536
54843W        W21626  38.443   0.039   4.203
54844W        W21627  10.871   3.818  13.415
54845W        W21628  12.871  41.726  13.284
54846W        W21629  15.212  30.334  12.364
54847W        W21630  29.594   0.587   1.281
54848W        W21631   7.523   2.840   3.279
54849W        W21632  14.785  28.641   1.444
54850W        W21633  15.579  28.193   4.535
54851W        W21634   9.538  40.835  12.123
54852W        W21635  22.617  39.357  13.930
54853W        W21636  19.204  40.513   2.785
54854W        W21637  16.048   0.288  13.229
54855W        W21638  10.457  22.680  10.808
54856W        W21639  33.021   5.182   4.704
54857W        W21640  36.527  23.497  13.627
54858W        W21641  26.105  26.112  14.535
54859W        W21642   5.313  35.852  12.651
54860W        W21643  41.572  10.714   3.224
54861W        W21644   5.152  25.702  11.277
54862W        W21645  42.272  37.712  11.952
54863W        W21646   7.781  31.568   3.718
54864W        W21647  33.455  11.890   0.340
54865W        W21648   6.492   2.719  14.934
54866W        W21649  14.282  29.198  13.815
54867W        W21650  22.701   5.052   1.597
54868W        W21651   5.804  17.022  13.465
54869W        W21652  24.805  17.250   0.453
54870W        W21653   1.751   3.459  12.116
54871W        W21654  12.593  23.881  12.358
54872W        W21655  16.641  36.419   3.061
54873W        W21656  14.811   2.699   1.323
54874W        W21657  35.818  21.285  10.703
54875W        W21658  44.940  40.648   1.700
54876W        W21659  37.303  19.334   3.781
54877W        W21660  36.072   8.030   2.241
54878W        W21661  28.948  15.511   2.447
54879W        W21662  35.066   8.447   1.240
54880W        W21663  24.980  22.784  12.320
54881W        W21664  35.464   7.710  14.705
54882W        W21665  37.170  37.945  11.460
54883W        W21666   8.355   1.000   3.835
54884W        W21667  30.644  29.948  14.616
54885W        W21668  32.629  11.865  14.945
54886W        W21669   1.085  26.640   0.836
54887W        W21670  24.188   7.795   0.427
54888W        W21671  42.418  28.116  11.739
54889W        W21672  25.296  42.221   4.006
54890W        W21673  40.243  44.905   1.387
54891W        W21674   8.720   4.379   3.677
54892W        W21675  28.930  27.031  13.079
54893W        W21676  14.227  40.057   1.192
54894W        W21677  12.222  19.601  10.808
54895W        W21678  23.097  16.587   3.173
54896W        W21679  29.248  28.102   0.026
54897W        W21680  33.894  27.667  10.646
54898W        W21681  10.377  29.304   2.930
54899W        W21682  37.571  19.664  14.230
54900W        W21683  35.570  25.599   3.203
54901W        W21684  26.848  34.459  11.520
54902W        W21685  44.265  22.702   2.802
54903W        W21686  16.667  35.135   2.254
54904W        W21687   4.854  33.295  12.007
54905W        W21688   1.948  19.091  14.212
54906W        W21689  41.377  39.239   5.084
54907W        W21690  26.098  31.171  12.198
54908W        W21691   5.532  29.082   3.621
54909W        W21692  37.316  30.558   3.295
54910W        W21693  15.143  15.193   4.512
54911W        W21694  21.188  37.677   2.774
54912W        W21695  35.045  23.434  12.319
54913W        W21696  27.933  42.577  11.552
54914W        W21697  14.413  42.792   4.027
54915W        W21698  14.753  32.877  12.094
54916W        W21699  27.931  26.804   5.131
54917W        W21700  18.606  43.296   2.920
54918W        W21701   5.196  25.727  12.040
54919W        W21702  25.724  25.730  13.520
54920W        W21703  43.299  38.117   1.545
54921W        W21704  34.093   6.664  12.884
54922W        W21705  22.402   2.161   3.344
54923W        W21706  24.152  19.186  10.601
54924W        W21707  20.131  20.000  12.443
54925W        W21708  25.842  15.282   0.466
54926W        W21709  30.962  40.398  11.505
54927W        W21710  26.767  26.674  10.869
54928W        W21711   3.871  22.188  14.088
54929W        W21712  43.849  21.603   3.219
54930W        W21713  39.483   7.229   3.866
54931W        W21714  32.904  41.695  14.466
54932W        W21715  18.705  16.857   0.333
54933W        W21716  34.174  39.146   3.260
54934W        W21717   2.059  20.119  13.943
54935W        W21718  21.170  25.854  11.199
54936W        W21719  31.260  27.013   2.106
54937W        W21720  13.296   2.957  12.119
54938W        W21721  22.083  35.312   4.076
54939W        W21722  34.917  32.848  13.940
54940W        W21723  18.018  27.086   3.650
54941W        W21724  16.337   5.827  13.445
54942W        W21725  30.627  11.511  13.441
54943W        W21726   0.417  42.246   2.236
54944W        W21727  16.481  28.512  13.488
54945W        W21728   8.295  15.694  10.454
54946W        W21729  30.056   8.122   3.255
54947W        W21730  12.341  29.859  12.171
54948W        W21731  11.854   9.899   4.467
54949W        W21732  34.894   6.212   1.793
54950W        W21733   6.429  37.678  10.000
54951W        W21734  26.731  38.002  14.116
54952W        W21735   7.812  12.121   0.847
54953W        W21736  13.829  33.307   3.208
54954W        W21737  35.476  43.877  12.433
54955W        W21738  28.612  43.865  12.849
54956W        W21739  15.655  11.288   3.821
54957W        W21740  11.953  42.223  12.477
54958W        W21741  27.508  12.238  13.428
54959W        W21742  39.974   1.939   2.524
54960W        W21743  18.467  40.467   4.551
54961W        W21744  20.261  23.686  11.203
54962W        W21745  40.408   4.413  12.231
54963W        W21746  43.085  27.065   0.399
54964W        W21747  14.487  25.171   4.092
54965W        W21748  14.494  42.935  14.079
54966W        W21749   9.560   6.333  14.302
54967W        W21750  22.270  29.701   4.043
54968W        W21751  17.618   8.786   2.799
54969W        W21752   6.615  33.214   2.487
54970W        W21753  27.627  16.086   4.293
54971W        W21754   0.926  18.311   0.978
54972W        W21755  41.991   4.578   4.995
54973W        W21756  19.516  27.028  11.982
54974W        W21757   3.870  25.472   3.389
54975W        W21758  11.620  41.886  12.244
54976W        W21759  36.964   6.776   0.506
54977W        W21760  22.372  22.967  12.615
54978W        W21761   6.101  30.155  13.515
54979W        W21762  19.245   6.560  13.128
54980W        W21763   5.071   4.710  10.818
54981W        W21764  16.037  16.008   3.000
54982W        W21765  27.194   2.733  14.882
54983W        W21766   1.201  36.830   1.721
54984W        W21767  19.375  42.788  11.653
54985W        W21768  32.475   3.513   4.122
54986W        W21769  41.233   4.749   4.513
54987W        W21770   7.192  37.581  14.858
54988W        W21771  34.183  23.483  13.276
54989W        W21772  11.845  43.752  14.656
54990W        W21773  28.559  38.873   4.728
54991W        W21774  13.023  35.455   3.762
54992W        W21775   9.310  38.365  13.097
54993W        W21776  33.206  10.655   2.662
54994W        W21777  10.935  37.211   3.643
54995W        W21778  10.740  23.783  14.172
54996W        W21779   2.537  42.573  12.897
54997W        W21780  21.058  40.424   3.323
54998W        W21781  25.528   9.324  13.109
54999W        W21782  26.383  15.548   1.165
55000W        W21783   0.259  16.953  12.823
55001W        W21784   4.596  27.648  14.051
55002W        W21785   2.398  32.564   1.999
55003W        W21786  41.798  41.152   4.577
55004W        W21787   4.871  11.700   1.894
55005W        W21788  25.977   0.902   0.299
55006W        W21789  15.047  37.903  12.004
55007W        W21790  41.091  27.625  14.968
55008W        W21791  29.665  40.850   0.482
55009W        W21792  38.342  14.393  14.870
55010W        W21793   7.741   8.155  12.955
55011W        W21794  12.216   5.901  14.013
55012W        W21795  39.059  33.580   4.556
55013W        W21796  26.260  19.138  13.361
55014W        W21797  24.124  32.530   1.410
55015W        W21798  32.968   4.762   1.945
55016W        W21799  11.927  25.160   3.666
55017W        W21800  34.885  42.860  10.411
55018W        W21801   6.449  26.683   0.402
55019W        W21802  44.320   1.318   2.413
55020W        W21803   8.605  40.046   1.169
55021W        W21804  11.082  15.694   1.887
55022W        W21805  23.936  17.716  14.252
55023W        W21806  33.024  42.433   0.009
55024W        W21807  24.598   9.550  10.737
55025W        W21808  21.981  18.319   3.364
55026W        W21809  36.565  33.514   1.847
55027W        W21810  41.284  43.284  14.947
55028W        W21811  35.430  13.558   4.573
55029W        W21812  26.579  22.730   1.020
55030W        W21813  35.836  17.064  11.891
55031W        W21814  22.844   8.956   3.254
55032W        W21815   1.434  39.503   2.220
55033W        W21816  23.816  40.186   0.726
55034W        W21817  10.322  38.024   1.425
55035W        W21818  16.156  36.387  12.436
55036W        W21819   7.011  33.667   3.952
55037W        W21820   3.618   6.802   0.913
55038W        W21821  38.770  38.743  12.139
55039W        W21822  26.510  40.763   4.088
55040W        W21823  23.720  33.959   4.689
55041W        W21824   8.771  19.993   0.721
55042W        W21825  11.339   8.073  11.245
55043W        W21826  42.383   7.569   3.234
55044W        W21827   7.534  39.994  12.500
55045W        W21828   1.396  22.748  14.943
55046W        W21829  19.607  21.275  12.823
55047W        W21830  24.931  29.449   0.282
55048W        W21831  19.119  37.805  13.042
55049W        W21832  39.423  33.102  12.982
55050W        W21833  16.250  20.079   1.242
55051W        W21834  40.769  44.921  12.523
55052W        W21835  36.265  18.972   1.334
55053W        W21836  19.127   3.469   1.433
55054W        W21837  19.918  25.059   4.583
55055W        W21838   9.360  18.385  10.619
55056W        W21839  29.536  31.743   0.672
55057W        W21840  13.180  16.063   1.664
55058W        W21841  14.009  34.747   0.279
55059W        W21842  44.187   3.701  12.500
55060W        W21843   9.735  30.360   2.220
55061W        W21844  28.058  22.465  12.944
55062W        W21845  41.818   0.747   2.509
55063W        W21846  41.966  14.132  14.962
55064W        W21847  30.468  22.605  10.676
55065W        W21848  16.087  12.899   2.098
55066W        W21849   2.803  23.045   2.226
55067W        W21850  14.530  13.316   2.848
55068W        W21851   8.853   3.112   3.338
55069W        W21852  36.966  35.023   0.738
55070W        W21853  17.757  24.234  13.300
55071W        W21854  40.967  43.303  10.786
55072W        W21855   6.921  26.925  12.261
55073W        W21856   5.056  22.064  10.075
55074W        W21857  24.899   0.992  13.613
55075W        W21858   2.860   5.243  11.667
55076W        W21859  16.781  10.791  10.417
55077W        W21860  12.119   5.866   2.965
55078W        W21861   4.516   4.637  14.617
55079W        W21862  24.257  36.934   2.896
55080W        W21863   6.585   2.080  12.946
55081W        W21864  25.171  41.604  12.830
55082W        W21865  10.755  25.104  13.576
55083W        W21866  28.165   0.005   4.088
55084W        W21867  10.617  41.883   1.728
55085W        W21868  42.881  16.506  14.876
55086W        W21869  26.508  12.625   0.478
55087W        W21870  33.039  41.488  14.925
55088W        W21871  15.233  35.578   3.271
55089W        W21872  42.142   3.765  11.624
55090W        W21873  32.198  40.887   2.800
55091W        W21874  27.914  14.927  10.267
55092W        W21875  21.850  44.895   1.772
55093W        W21876  42.271  18.539  10.654
55094W        W21877  28.629   8.055   2.410
55095W        W21878  19.771  34.107  12.018
55096W        W21879  18.325  22.715   3.331
55097W        W21880  12.117  32.200  12.395
55098W        W21881   4.953  14.767   0.800
55099W        W21882   3.586  18.951  11.604
55100W        W21883  25.639  16.731   0.697
55101W        W21884   2.249  21.580  14.914
55102W        W21885  40.557   1.881   1.316
55103W        W21886  20.298  39.479  12.436
55104W        W21887  22.243  20.261   3.163
55105W        W21888  17.240  20.834  14.543
55106W        W21889  19.116  31.487  13.108
55107W        W21890   1.846  31.061   0.936
55108W        W21891   1.496   1.766  13.894
55109W        W21892   2.281   9.541  11.974
55110W        W21893  27.095  34.014   2.225
55111W        W21894  39.440  42.889  11.058
55112W        W21895  37.180  27.479  12.500
55113W        W21896  23.439  16.716  11.137
55114W        W21897  15.159   9.888  12.537
55115W        W21898  20.771  34.691  13.452
55116W        W21899  21.514  12.688  14.928
55117W        W21900   2.208  28.984  11.160
55118W        W21901  43.032  11.699   1.740
55119W        W21902  31.082   6.244   1.961
55120W        W21903  26.255  11.332  12.897
55121W        W21904  25.956  18.074   2.672
55122W        W21905  18.809  20.627  14.404
55123W        W21906  43.354   4.938   1.371
55124W        W21907  22.091  30.441  13.451
55125W        W21908  43.085   1.686  12.405
55126W        W21909  10.737  22.995   1.974
55127W        W21910   1.322  40.612   1.577
55128W        W21911  29.427  28.150   1.506
55129W        W21912  21.618  27.119   4.161
55130W        W21913  11.691   1.432   0.549
55131W        W21914  14.853  40.354  13.830
55132W        W21915  39.526  41.420   0.900
55133W        W21916   2.828  36.077   4.192
55134W        W21917   9.053  22.615  11.741
55135W        W21918  38.996  43.651  10.913
55136W        W21919   8.715  11.131  11.062
55137W        W21920  34.198  36.287  11.179
55138W        W21921  28.958  20.965  12.425
55139W        W21922  16.839  22.624  14.802
55140W        W21923  22.201  40.765  14.528
55141W        W21924  20.552  38.465  12.762
55142W        W21925  32.268  16.038   2.774
55143W        W21926  26.076  42.553  11.251
55144W        W21927  10.468  14.086   1.628
55145W        W21928  27.728  36.836   3.637
55146W        W21929  34.894  32.579   2.936
55147W        W21930   2.876   6.732  11.124
55148W        W21931  43.966   9.673   1.916
55149W        W21932  15.781  18.246   1.518
55150W        W21933  42.591  18.102  13.570
55151W        W21934   3.782  26.972  13.929
55152W        W21935  32.029   7.989   3.636
55153W        W21936  40.212  13.408   1.095
55154W        W21937  24.660  23.231  11.592
55155W        W21938  10.978   1.640  13.533
55156W        W21939  36.767  16.765  14.169
55157W        W21940  40.285  34.000  11.692
55158W        W21941  14.760   0.733  13.457
55159W        W21942   2.551  11.777  10.734
55160W        W21943  27.125  42.030   0.502
55161W        W21944  15.430  17.193   2.344
55162W        W21945  41.863  43.019  14.271
55163W        W21946  31.566  22.232  12.500
55164W        W21947  12.839  41.693  14.988
55165W        W21948   0.979  22.763   4.204
55166W        W21949   4.312  28.172   2.350
55167W        W21950   9.273  36.397  12.249
55168W        W21951  10.397  21.226  12.366
55169W        W21952  31.856  12.472   2.221
55170W        W21953  30.327  11.765   0.424
55171W        W21954  35.933  12.040  11.483
55172W        W21955   8.976  12.116  14.742
55173W        W21956  33.672  12.296   3.179
55174W        W21957  22.237   5.070  14.482
55175W        W21958  44.953   6.702  14.539
55176W        W21959   6.871  42.963   0.387
55177W        W21960  39.049  25.434  13.013
55178W        W21961  15.318   7.352  12.471
55179W        W21962   3.878  37.912   1.461
55180W        W21963  15.804  38.289   1.862
55181W        W21964  43.981  33.884   2.222
55182W        W21965   2.557  33.826   0.889
55183W        W21966  44.862  43.598   0.612
55184W        W21967  17.462  17.310   3.201
55185W        W21968  21.724  23.416  13.945
55186W        W21969  15.093  27.092  11.405
55187W        W21970  44.718  15.432   0.693
55188W        W21971  10.053  35.629   0.753
55189W        W21972  14.437  25.503   0.652
55190W        W21973  25.535  31.870  13.323
55191W        W21974  30.853   3.380   4.584
55192W        W21975  39.005  23.980  12.095
55193W        W21976  22.424  26.827  12.029
55194W        W21977  15.088  38.784  14.358
55195W        W21978  15.223  20.890   2.695
55196W        W21979  21.705  19.217   1.624
55197W        W21980  29.168  16.474  10.822
55198W        W21981  29.213  36.244  14.482
55199W        W21982  40.402  21.502  12.849
55200W        W21983  24.667  10.642   3.195
55201W        W21984  33.061  22.552  12.450
55202W        W21985  34.546  33.139   2.192
55203W        W21986  34.362  38.979   1.825
55204W        W21987   1.335  21.339  12.624
55205W        W21988  26.248  33.103  13.491
55206W        W21989  19.982  35.378   3.373
55207W        W21990  34.899  15.502  11.205
55208W        W21991  16.190   5.480   2.238
55209W        W21992  12.070  37.564   2.342
55210W        W21993   0.338   9.400  12.251
55211W        W21994  26.213  29.489  12.543
55212W        W21995   6.489   3.635   2.700
55213W        W21996  27.996  41.961   1.334
55214W        W21997  18.775  28.699   2.376
55215W        W21998   9.529  32.180   0.470
55216W        W21999   8.983   8.957   4.757
55217W        W22000   6.002   9.062  11.514
55218W        W22001   4.260  24.733  10.642
55219W        W22002   6.215  12.084   2.850
55220W        W22003  11.826   5.495  14.068
55221W        W22004  31.925  37.446   3.347
55222W        W22005   3.470   1.948   4.168
55223W        W22006  17.516  12.356   3.637
55224W        W22007  23.124  40.366   1.940
55225W        W22008  28.224  13.627   1.608
55226W        W22009  37.195  27.650   2.709
55227W        W22010  38.792  28.111   4.518
55228W        W22011  32.490  29.234   3.164
55229W        W22012   8.368  36.378   1.805
55230W        W22013  18.232   3.003  12.027
55231W        W22014  33.899  33.481  11.113
55232W        W22015  22.041  19.728  13.550
55233W        W22016  23.596  30.992  10.629
55234W        W22017  26.613  20.465   0.026
55235W        W22018   0.488  26.452   1.691
55236W        W22019   8.576  14.606   1.786
55237W        W22020  21.372  27.998   0.453
55238W        W22021   0.844   8.745   2.723
55239W        W22022  42.745  39.854   2.706
55240W        W22023  25.002  44.847  11.960
55241W        W22024  39.919   6.255   4.580
55242W        W22025  33.304  16.603  14.987
55243W        W22026   0.304   2.458   2.898
55244W        W22027  10.455   5.416  10.249
55245W        W22028  24.665   6.696  12.867
55246W        W22029  20.652  41.882   3.701
55247W        W22030  13.603  19.075   3.171
55248W        W22031  42.061  12.785   0.225
55249W        W22032   9.755  39.965   2.231
55250W        W22033  41.117  19.491  11.016
55251W        W22034  40.584  43.007  11.127
55252W        W22035  44.346  25.955  10.698
55253W        W22036  11.334  20.215  14.759
55254W        W22037  31.345  26.927   4.191
55255W        W22038  38.723  14.596  11.666
55256W        W22039  16.230  37.846   0.177
55257W        W22040   0.365  33.454   2.421
55258W        W22041  35.417   2.891  10.673
55259W        W22042  26.445   4.937   0.027
55260W        W22043  40.302   6.846  14.760
55261W        W22044  11.292  14.155   1.868
55262W        W22045  33.564  12.081   1.207
55263W        W22046  16.876   3.276   2.328
55264W        W22047  22.801   4.146   5.095
55265W        W22048   3.425  19.912  13.902
55266W        W22049   8.700  20.771   1.878
55267W        W22050  16.167  26.454  12.003
55268W        W22051  34.655  30.130  12.059
55269W        W22052  38.524  30.331   4.794
55270W        W22053   2.737   5.427  14.262
55271W        W22054  44.453   3.487  14.867
55272W        W22055  22.995  15.617   1.295
55273W        W22056  26.086  22.603   2.237
55274W        W22057  36.045  28.475  12.090
55275W        W22058   6.487  17.830   2.863
55276W        W22059  24.176   7.136   0.833
55277W        W22060  23.036  39.858   5.025
55278W        W22061  28.112  40.185   2.324
55279W        W22062  24.479  26.343   1.371
55280W        W22063  10.109   7.666  13.578
55281W        W22064  22.036   8.618   1.853
55282W        W22065  15.364  22.512  12.398
55283W        W22066   3.017   3.397  14.002
55284W        W22067  10.771  31.402   3.713
55285W        W22068   0.777  34.035  13.329
55286W        W22069  33.992   4.916  13.182
55287W        W22070  33.544  26.173   2.389
55288W        W22071  12.918   9.226  10.278
55289W        W22072  11.919  43.966   2.784
55290W        W22073  34.223  35.106  10.557
55291W        W22074   8.374  35.611  12.075
55292W        W22075  38.738  13.873   1.152
55293W        W22076  26.459   1.387  14.276
55294W        W22077  39.599   8.347  12.418
55295W        W22078   0.483  36.832   4.267
55296W        W22079  30.752  33.853  10.877
55297W        W22080  12.679  19.684  10.546
55298W        W22081  35.203  40.570   1.620
55299W        W22082  10.090  25.573  13.867
55300W        W22083  10.150   9.187  10.652
55301W        W22084  34.565  29.612   0.863
55302W        W22085  12.104  29.470   3.274
55303W        W22086  43.006  18.893   2.483
55304W        W22087  21.114  22.724  12.121
55305W        W22088  21.569  10.364  11.258
55306W        W22089  34.899  38.425  11.499
55307W        W22090   4.287  18.473  14.366
55308W        W22091  10.001  14.335   2.959
55309W        W22092  43.294  41.903  10.662
55310W        W22093   6.259  35.303   1.249
55311W        W22094  20.258  31.120   4.115
55312W        W22095  32.772  33.729   2.389
55313W        W22096  39.284  21.267  10.736
55314W        W22097  29.588  38.749   2.671
55315W        W22098  19.205  43.989  10.718
55316W        W22099   0.171  18.651   1.895
55317W        W22100  37.179  24.059  11.880
55318W        W22101  39.386  18.795  12.324
55319W        W22102  42.450  14.921  11.133
55320W        W22103   0.552  27.490  13.346
55321W        W22104  30.022  12.128  14.043
55322W        W22105   1.189  30.589   4.346
55323W        W22106  41.541  37.816   0.286
55324W        W22107  12.608  16.856   4.076
55325W        W22108  18.761  44.042  10.466
55326W        W22109   3.723  15.216  12.524
55327W        W22110  31.483  11.667   1.345
55328W        W22111   2.001  35.280   0.409
55329W        W22112  36.573  27.703  13.993
55330W        W22113  14.251  20.071   4.804
55331W        W22114  30.621   2.127  11.976
55332W        W22115   0.718  16.182  12.942
55333W        W22116  25.634  12.914  10.767
55334W        W22117  15.624  20.640  14.490
55335W        W22118  31.979  30.001   2.128
55336W        W22119  13.647   1.152  14.481
55337W        W22120  27.449  18.094   1.366
55338W        W22121  12.801  19.473   0.657
55339W        W22122  11.197  39.970  14.679
55340W        W22123  39.985  24.667   3.757
55341W        W22124  11.854  35.803  14.750
55342W        W22125  30.954  38.197   0.863
55343W        W22126   3.386  20.943  13.861
55344W        W22127  38.516   7.703   1.262
55345W        W22128  31.393  27.919   4.105
55346W        W22129  23.171  12.821   4.126
55347W        W22130   3.289  39.719   4.268
55348W        W22131  20.534   0.533  12.150
55349W        W22132  35.340  33.072  13.725
55350W        W22133  27.895  30.355   1.203
55351W        W22134  44.817   5.190  13.968
55352W        W22135   2.383   9.154   4.553
55353W        W22136  26.238   0.622   4.571
55354W        W22137   7.754   5.662   3.136
55355W        W22138  38.872  27.745   2.312
55356W        W22139  41.911  41.110   0.415
55357W        W22140  40.297  34.387   3.259
55358W        W22141  18.540  36.772   0.689
55359W        W22142  43.389  11.225   4.140
55360W        W22143  21.060  16.739  13.076
55361W        W22144  28.179  27.784   1.058
55362W        W22145  31.304   4.737   0.842
55363W        W22146  26.586  40.064  14.020
55364W        W22147  44.738  21.168  12.741
55365W        W22148   3.033  37.719  14.982
55366W        W22149   5.438  13.105  10.441
55367W        W22150  34.906   1.742   0.928
55368W        W22151  16.571  27.154   2.364
55369W        W22152   1.024  17.053  10.700
55370W        W22153  13.751   9.964  13.031
55371W        W22154  22.458  41.117  13.671
55372W        W22155  29.395  13.965   3.033
55373W        W22156   0.750  15.128   0.810
55374W        W22157  14.145   8.429   4.605
55375W        W22158   1.895  15.787   3.682
55376W        W22159  31.074  23.251  12.056
55377W        W22160  13.837  17.581  11.372
55378W        W22161  24.329  40.385   1.789
55379W        W22162   7.327   3.951  11.925
55380W        W22163  10.116  31.953  12.478
55381W        W22164   6.385  42.524  12.452
55382W        W22165  24.923   1.219  14.274
55383W        W22166  25.652  36.622  13.372
55384W        W22167  40.900  22.254   1.438
55385W        W22168   8.689   4.445  10.533
55386W        W22169  12.701  15.776   4.286
55387W        W22170   4.804  32.937   0.580
55388W        W22171  32.085  29.033   2.892
55389W        W22172  41.400   7.220   2.110
55390W        W22173  23.285   5.728   1.836
55391W        W22174  37.639  14.061  13.998
55392W        W22175  37.326  27.554  14.571
55393W        W22176  25.433  41.379  14.462
55394W        W22177  39.576   3.196   4.156
55395W        W22178   0.291  44.320  10.637
55396W        W22179   9.237  10.407  12.485
55397W        W22180  28.429  16.083  12.536
55398W        W22181   5.750   7.892  10.728
55399W        W22182  27.205   6.260   0.858
55400W        W22183  17.267  40.604   3.761
55401W        W22184   0.985  35.769   4.316
55402W        W22185   9.162   5.347  13.291
55403W        W22186  19.795   1.311   4.897
55404W        W22187  26.779  26.865  10.380
55405W        W22188  28.092  27.592   4.651
55406W        W22189  42.261  23.964   2.976
55407W        W22190  16.176   3.428  13.791
55408W        W22191   5.122   0.330  14.628
55409W        W22192  16.131  35.048   1.469
55410W        W22193   3.984   9.392   0.904
55411W        W22194  28.424  22.972  14.289
55412W        W22195  33.579   3.273   1.292
55413W        W22196  11.177   5.695  13.015
55414W        W22197  20.978   2.887  13.510
55415W        W22198  21.325  29.577   1.857
55416W        W22199  10.612  27.211  10.552
55417W        W22200  40.078  28.446  14.249
55418W        W22201  19.958   2.417   1.301
55419W        W22202   9.661  27.979   0.872
55420W        W22203  35.856  24.232   3.136
55421W        W22204   6.363  22.642  13.151
55422W        W22205  14.259  43.226   4.269
55423W        W22206  25.443  10.007  14.922
55424W        W22207  32.661  33.601  13.029
55425W        W22208   4.711  28.070  10.720
55426W        W22209   6.754  40.462  12.854
55427W        W22210  29.524  41.906  12.488
55428W        W22211  44.538   1.075  13.421
55429W        W22212  18.571  31.496   1.816
55430W        W22213  30.702  12.645   1.964
55431W        W22214  27.867  24.567   2.880
55432W        W22215  43.960  18.174  12.130
55433W        W22216   7.623  39.837   1.334
55434W        W22217  44.263  23.657  14.952
55435W        W22218  28.527   3.222   2.773
55436W        W22219  41.762  15.410  13.023
55437W        W22220  42.930  13.993   0.793
55438W        W22221  14.621  31.997   4.545
55439W        W22222   2.417  39.618  12.098
55440W        W22223  13.238  37.135  14.017
55441W        W22224  14.853  32.009  12.280
55442W        W22225  26.240  11.406   0.550
55443W        W22226  14.143  25.010  10.688
55444W        W22227  31.368   0.412  10.827
55445W        W22228  39.139   4.254   1.851
55446W        W22229  16.847   1.236  12.943
55447W        W22230  38.927   7.992  13.952
55448W        W22231   7.702  14.288  12.964
55449W        W22232  39.842  31.856   4.628
55450W        W22233  34.364  28.410   1.386
55451W        W22234  11.688  14.080   4.107
55452W        W22235  22.600  25.100   0.540
55453W        W22236  17.367  41.464   0.818
55454W        W22237   9.887  40.186   1.774
55455W        W22238  11.080  29.727   0.715
55456W        W22239  28.077  16.264   2.540
55457W        W22240  43.789  40.330   1.213
55458W        W22241  11.167   7.300   2.427
55459W        W22242  25.578   4.434   3.241
55460W        W22243   3.401   3.959   2.194
55461W        W22244  40.967  35.852   3.562
55462W        W22245  21.124   2.080  13.663
55463W        W22246   9.318  20.242  14.920
55464W        W22247   3.821  36.029   3.629
55465W        W22248  34.896  10.055  14.592
55466W        W22249   0.989  42.337   4.617
55467W        W22250   3.628  10.123   2.235
55468W        W22251  23.773   8.122  13.829
55469W        W22252  40.301   2.848  13.277
55470W        W22253  34.120  40.480  10.740
55471W        W22254  19.250  27.957  11.570
55472W        W22255   5.812  17.585   1.802
55473W        W22256  16.521  21.860  11.609
55474W        W22257   6.212  15.639   4.992
55475W        W22258  44.708  22.986   1.576
55476W        W22259   7.154   0.454  10.813
55477W        W22260   3.895  36.892  14.028
55478W        W22261  32.766  35.148   1.755
55479W        W22262  15.776   0.682   2.712
55480W        W22263  42.060  33.002   2.759
55481W        W22264  20.806   4.398  10.959
55482W        W22265  18.045  28.604  12.241
55483W        W22266  30.159  24.576  14.252
55484W        W22267  17.324  36.171   4.174
55485W        W22268  31.161  38.043   0.372
55486W        W22269  42.528  36.198   1.464
55487W        W22270  24.465  29.763   1.799
55488W        W22271  42.091   0.277   0.825
55489W        W22272  17.417  31.272  11.642
55490W        W22273   9.322  37.517  11.603
55491W        W22274   6.606  19.192  13.168
55492W        W22275  41.248   1.127   0.961
55493W        W22276  43.860  21.159   2.054
55494W        W22277  22.463  12.595  14.273
55495W        W22278   5.206   3.950   2.767
55496W        W22279  11.422  20.759   1.812
55497W        W22280  38.910  40.453   4.515
55498W        W22281   1.820  25.240  11.630
55499W        W22282  10.389  41.592   0.351
55500W        W22283  36.236  13.951   1.307
55501W        W22284  34.189  28.503   0.441
55502W        W22285  14.819  12.717   3.664
55503W        W22286  34.869  41.678  13.819
55504W        W22287   7.233  17.077   0.864
55505W        W22288  22.153  26.678   2.744
55506W        W22289  16.367  14.873  12.917
55507W        W22290  22.242   5.625  10.773
55508W        W22291  44.070  42.960   0.777
55509W        W22292  20.625   0.849   0.009
55510W        W22293  44.527  23.820  13.002
55511W        W22294  38.190  16.138   2.295
55512W        W22295  22.498   4.587  14.815
55513W        W22296  16.870  15.599   0.812
55514W        W22297  33.922   2.666   2.770
55515W        W22298  12.046   3.438  10.263
55516W        W22299  12.237  38.346   1.384
55517W        W22300  22.709  30.641   4.062
55518W        W22301  18.573  32.939   0.571
55519W        W22302  36.804  34.298   4.501
55520W        W22303  27.128  29.310   0.033
55521W        W22304  13.612  34.293  12.473
55522W        W22305   3.355  14.171  11.984
55523W        W22306   0.226  43.031   3.701
55524W        W22307  38.527  21.609  10.522
55525W        W22308  42.480  24.056  10.468
55526W        W22309  21.261   3.339   1.212
55527W        W22310   2.770   3.702  13.667
55528W        W22311  41.804  41.484   3.193
55529W        W22312   1.269   8.124   3.131
55530W        W22313   6.391  16.868   3.064
55531W        W22314  19.937  34.471  14.994
55532W        W22315   5.652  31.803   1.177
55533W        W22316  31.434  15.116   2.989
55534W        W22317  39.368  18.701   2.846
55535W        W22318  10.723  13.998   4.806
55536W        W22319  22.121  23.046  13.087
55537W        W22320  17.089  30.969  12.698
55538W        W22321  15.963  25.653  10.690
55539W        W22322   5.744  20.853   2.674
55540W        W22323  22.634  30.545   0.824
55541W        W22324  33.393  18.150   3.732
55542W        W22325  41.693  32.479  11.905
55543W        W22326  37.423  38.660   3.558
55544W        W22327  18.056  43.572  11.101
55545W        W22328  17.684  26.127   2.554
55546W        W22329   8.865  34.449   0.874
55547W        W22330  11.145  36.191  14.403
55548W        W22331  38.086  29.598   3.348
55549W        W22332  38.051   4.177   3.652
55550W        W22333  17.555  41.541   4.113
55551W        W22334  20.273  16.041   5.059
55552W        W22335   2.843  29.398   2.435
55553W        W22336  38.886  28.672   1.981
55554W        W22337  17.621  41.848   3.656
55555W        W22338  39.132   5.190   1.937
55556W        W22339   2.034  26.975  14.865
55557W        W22340  18.723   1.264  10.610
55558W        W22341  30.917  25.521  12.495
55559W        W22342   9.303  18.464   4.529
55560W        W22343  41.246  40.051   2.676
55561W        W22344  17.623  13.619  10.196
55562W        W22345  14.800   2.917  11.603
55563W        W22346  41.632  44.968  11.717
55564W        W22347   5.121  12.598  12.535
55565W        W22348   0.487  31.954   4.122
55566W        W22349  12.642  16.340   4.227
55567W        W22350  11.143  27.142  10.453
55568W        W22351  28.408  32.380   1.157
55569W        W22352  15.132  16.218   0.020
55570W        W22353  42.481  43.251  12.431
55571W        W22354  18.543  35.004   4.524
55572W        W22355  27.202  31.137  12.844
55573W        W22356   0.728   3.390  13.925
55574W        W22357  27.238   0.958   0.651
55575W        W22358  14.600  24.652   3.300
55576W        W22359  33.830  35.034  13.563
55577W        W22360   6.347  12.320   0.215
55578W        W22361  14.234   8.280  10.479
55579W        W22362  17.667   5.051   0.857
55580W        W22363  24.537  38.571  12.511
55581W        W22364  43.567  33.056   3.048
55582W        W22365  39.972  44.794  12.047
55583W        W22366   3.603  38.559  13.219
55584W        W22367  38.582  27.021  12.332
55585W        W22368   7.267  33.148   3.266
55586W        W22369   3.399  11.566   0.936
55587W        W22370   9.686  42.505   0.035
55588W        W22371  29.319  40.317  14.875
55589W        W22372  36.758  37.116   3.217
55590W        W22373  16.642  10.884  13.815
55591W        W22374   0.073   6.272   1.492
55592W        W22375  42.983  25.412  11.605
55593W        W22376   7.781  15.618   2.195
55594W        W22377  14.663  35.671  10.758
55595W        W22378  24.665  16.522   0.273
55596W        W22379   9.835   3.722   4.104
55597W        W22380  29.437   2.164  14.625
55598W        W22381  25.692  33.786  13.969
55599W        W22382  23.561  27.980   3.092
55600W        W22383  39.539  38.538  12.400
55601W        W22384  43.831  38.421  12.879
55602W        W22385  33.237  35.473  14.723
55603W        W22386  13.906  32.501   2.069
55604W        W22387  27.617  30.156  11.053
55605W        W22388  22.090   1.884   0.133
55606W        W22389  42.448   9.430  12.616
55607W        W22390   5.310  25.984   4.458
55608W        W22391  20.137  20.561   1.947
55609W        W22392  34.533  35.117   0.805
55610W        W22393  18.783  43.028  12.006
55611W        W22394   9.125   4.477   4.113
55612W        W22395   0.438  22.472  10.585
55613W        W22396  24.942  42.746  13.553
55614W        W22397  27.539  37.305   3.553
55615W        W22398  30.393   5.477  14.007
55616W        W22399   9.381  13.028   1.759
55617W        W22400   5.668  26.415  12.547
55618W        W22401  28.458  28.580  13.427
55619W        W22402   4.344  24.297  13.937
55620W        W22403   0.560  38.991  11.670
55621W        W22404  25.069  16.588  13.045
55622W        W22405  12.072  40.456  13.514
55623W        W22406  44.201   8.440   3.163
55624W        W22407  36.270  14.379  13.747
55625W        W22408   2.742  23.911   0.267
55626W        W22409  23.576  32.214   3.366
55627W        W22410  12.217  15.177  12.435
55628W        W22411   9.096  10.393   3.619
55629W        W22412  17.019  13.852  10.754
55630W        W22413  15.069  20.174  12.991
55631W        W22414  18.344  41.379   1.160
55632W        W22415   9.692   4.314   1.194
55633W        W22416   5.552  41.428   1.282
55634W        W22417  25.703  39.739   1.784
55635W        W22418  14.976  16.330   9.805
55636W        W22419  33.931  21.593   2.712
55637W        W22420   1.997  17.544   2.176
55638W        W22421  11.970  17.844   1.863
55639W        W22422  17.659  23.239  12.462
55640W        W22423  32.742  23.068  11.689
55641W        W22424  13.693  31.108  13.149
55642W        W22425   4.668  39.443   1.312
55643W        W22426  25.278  33.255   2.627
55644W        W22427  42.741  34.614   2.965
55645W        W22428  44.498   3.251   1.393
55646W        W22429  17.026  36.759  11.769
55647W        W22430   6.601  16.113   1.826
55648W        W22431   4.736   1.067  14.986
55649W        W22432  24.554  41.022  11.334
55650W        W22433   1.761  21.206  10.776
55651W        W22434  25.379  24.077   3.203
55652W        W22435  18.184  42.095   2.781
55653W        W22436  28.426  42.759   0.848
55654W        W22437  21.365  15.946   0.353
55655W        W22438  26.233  39.004   0.807
55656W        W22439   3.957  41.859   2.371
55657W        W22440  36.974  38.932  12.405
55658W        W22441  20.836  18.676  14.569
55659W        W22442  36.847  43.421  12.140
55660W        W22443  26.668  44.453  13.706
55661W        W22444   4.427  39.265  14.936
55662W        W22445   6.273  15.094  10.856
55663W        W22446  12.133  39.907   1.783
55664W        W22447   8.751  29.925  14.840
55665W        W22448  36.083  26.805  14.223
55666W        W22449  24.172  24.072  13.066
55667W        W22450  12.194  28.903  11.192
55668W        W22451  15.131  28.085  13.423
55669W        W22452  30.991   3.941  14.226
55670W        W22453  17.625  10.310   0.980
55671W        W22454  21.696   9.597  13.970
55672W        W22455  42.038   8.137  11.651
55673W        W22456  11.403  18.667  12.624
55674W        W22457  38.129  41.045   2.489
55675W        W22458  26.177  24.661  11.434
55676W        W22459  19.230  12.424  14.822
55677W        W22460  19.729  32.123   2.017
55678W        W22461  26.011   1.527  11.459
55679W        W22462  15.887   3.957  14.912
55680W        W22463  31.672  31.382  13.352
55681W        W22464   6.965  13.087  11.391
55682W        W22465  39.571  28.688   2.653
55683W        W22466   8.921   6.221  13.581
55684W        W22467  38.086  11.392  13.376
55685W        W22468  29.844  11.935   0.466
55686W        W22469  15.149   0.543   3.747
55687W        W22470   1.493  23.027   3.163
55688W        W22471  13.256  12.293   0.435
55689W        W22472  14.555  10.837   2.206
55690W        W22473  14.277  38.465   3.652
55691W        W22474  10.736  28.049  14.249
55692W        W22475  43.706  36.791   0.730
55693W        W22476   7.660   5.048   1.207
55694W        W22477  20.532  24.219  13.372
55695W        W22478   2.379  31.611   2.418
55696W        W22479  15.819   1.075  11.621
55697W        W22480   2.918   1.197   3.611
55698W        W22481   2.311  19.093  13.449
55699W        W22482  16.696   8.711   3.729
55700W        W22483   7.261  29.653   3.030
55701W        W22484  41.090  44.404   1.785
55702W        W22485  38.763  39.417   3.060
55703W        W22486  33.329   6.996   1.256
55704W        W22487  20.500  29.264  13.819
55705W        W22488  13.417   7.116   4.222
55706W        W22489  22.173  28.106  13.733
55707W        W22490  20.326  24.210   0.979
55708W        W22491  13.337  29.514   3.799
55709W        W22492  14.694  36.612   2.368
55710W        W22493  34.437  44.530   1.589
55711W        W22494   4.636  31.593   4.933
55712W        W22495  34.143   3.145  14.457
55713W        W22496  43.281  10.198  11.112
55714W        W22497  41.268   2.896  14.322
55715W        W22498   0.169  18.532  11.509
55716W        W22499  31.999  31.996   2.410
55717W        W22500  14.422  20.484  10.701
55718W        W22501  11.617   7.393   3.308
55719W        W22502  32.126  42.049   0.817
55720W        W22503  40.342  35.660   0.836
55721W        W22504   9.126  28.380  13.308
55722W        W22505  22.722  17.652  11.448
55723W        W22506  39.002  15.031   0.760
55724W        W22507  23.527  41.287  12.606
55725W        W22508  39.360  30.833  14.605
55726W        W22509  30.671   2.711   0.796
55727W        W22510  11.240  30.718  12.368
55728W        W22511  23.153  37.758   3.668
55729W        W22512  17.014  26.979   3.904
55730W        W22513  29.758  18.444   2.006
55731W        W22514  26.127  36.015  11.798
55732W        W22515  19.945  28.637   2.704
55733W        W22516   0.374  25.095  14.294
55734W        W22517  30.920  32.293  11.744
55735W        W22518  11.274  42.711  10.691
55736W        W22519  37.855  13.021  13.997
55737W        W22520   6.392  38.650   4.936
55738W        W22521   9.715  10.925  11.579
55739W        W22522  11.467  34.831   1.467
55740W        W22523  20.518  33.147  13.949
55741W        W22524   1.026  22.496  11.481
55742W        W22525  22.980  15.793  13.203
55743W        W22526  10.211   8.164  13.702
55744W        W22527  37.622  20.074   2.678
55745W        W22528  36.095   1.423   3.339
55746W        W22529  13.763   6.550   2.814
55747W        W22530  10.637  44.868  13.728
55748W        W22531  33.085  43.694  11.641
55749W        W22532  15.624   1.501   2.328
55750W        W22533   9.098   6.948   3.168
55751W        W22534  19.274  37.528  11.538
55752W        W22535   3.442  33.607  11.169
55753W        W22536  42.822  29.969   2.906
55754W        W22537  21.722  43.346   3.225
55755W        W22538  14.074  14.775  12.985
55756W        W22539  39.964  42.957  11.065
55757W        W22540   1.673  33.516   2.449
55758W        W22541  18.348  10.324   1.948
55759W        W22542  13.274   0.908  13.736
55760W        W22543  41.887  44.800   4.663
55761W        W22544  29.906  38.789  14.421
55762W        W22545   9.601  26.742   3.938
55763W        W22546  35.184  14.639  13.616
55764W        W22547   2.725  14.455   2.740
55765W        W22548  24.623  32.743  14.829
55766W        W22549  11.035   2.203   0.743
55767W        W22550  36.905  36.949  14.869
55768W        W22551  43.980  16.876   0.543
55769W        W22552   8.962  41.793   0.716
55770W        W22553   8.500   5.568  14.856
55771W        W22554  14.991  42.342  11.386
55772W        W22555  12.670  38.520  11.109
55773W        W22556  26.316   9.279  13.916
55774W        W22557   1.362  28.846   2.299
55775W        W22558  35.084  14.155   1.066
55776W        W22559  18.809  31.252  10.971
55777W        W22560  20.200   4.949  11.359
55778W        W22561  21.030   2.627  12.437
55779W        W22562  17.582  29.842   3.890
55780W        W22563  44.689  32.422  10.570
55781W        W22564  36.921   5.734   0.782
55782W        W22565  44.330   2.483  10.674
55783W        W22566  24.218  36.370  14.026
55784W        W22567  11.703   6.243  14.329
55785W        W22568   1.113  39.288   1.767
55786W        W22569  34.107   7.036  14.260
55787W        W22570  11.373  42.869   4.478
55788W        W22571  34.559  19.126  13.423
55789W        W22572  40.920  31.160  14.080
55790W        W22573  12.646   5.658   0.383
55791W        W22574  13.201   5.845  14.131
55792W        W22575  18.325   9.279   0.508
55793W        W22576  26.390  41.320   1.707
55794W        W22577  28.067  19.849  13.459
55795W        W22578  39.836  41.614  13.997
55796W        W22579   2.818  39.938   4.353
55797W        W22580  13.612  10.371   4.117
55798W        W22581   7.978  35.888   4.513
55799W        W22582   2.592  34.274   4.192
55800W        W22583  28.995  26.087   1.265
55801W        W22584  20.770  31.463  14.480
55802W        W22585   7.958  29.041  12.568
55803W        W22586  33.840  11.382   2.316
55804W        W22587  29.481  31.173  13.920
55805W        W22588  25.538   9.748   1.902
55806W        W22589   0.882  11.926  11.991
55807W        W22590  32.895  31.464   2.466
55808W        W22591  36.033  37.912   1.789
55809W        W22592  17.765  34.820  12.075
55810W        W22593  13.280  28.959  13.548
55811W        W22594  39.747  11.202   4.047
55812W        W22595  42.157  11.717  13.843
55813W        W22596   1.497  17.530  11.260
55814W        W22597   1.682  34.314  10.689
55815W        W22598  35.516  23.609   3.421
55816W        W22599  19.508  37.546  13.514
55817W        W22600  36.793  13.912   1.346
55818W        W22601  13.204   7.712   9.761
55819W        W22602   7.728  43.392   4.584
55820W        W22603  16.765   3.614  10.577
55821W        W22604  40.690   6.750   1.677
55822W        W22605  43.816  26.607  10.738
55823W        W22606  21.581   6.938  12.264
55824W        W22607   0.246   2.478  11.611
55825W        W22608   4.903  26.747   1.419
55826W        W22609  43.529  17.830   3.286
55827W        W22610  28.913  42.207   3.626
55828W        W22611  43.739  39.123  10.266
55829W        W22612   5.950   4.293  13.800
55830W        W22613   6.419   7.308  12.016
55831W        W22614   3.947  33.495   0.644
55832W        W22615  13.623   7.419  14.476
55833W        W22616  22.119  21.905  14.444
55834W        W22617   0.619  20.562   4.552
55835W        W22618  42.522  23.068  12.382
55836W        W22619  43.274  33.583  11.668
55837W        W22620   8.750   2.487   2.779
55838W        W22621  27.993   3.301  14.371
55839W        W22622  43.193  21.162  11.914
55840W        W22623   9.739  13.394   1.856
55841W        W22624   8.706   3.857   3.704
55842W        W22625  22.926  37.775  12.427
55843W        W22626   4.534  18.682  13.427
55844W        W22627  32.620  37.836  10.731
55845W        W22628  26.928   3.985  11.164
55846W        W22629  33.973  31.463   2.027
55847W        W22630  20.570  26.000   4.163
55848W        W22631  13.648  10.441   2.041
55849W        W22632  30.496   4.297   3.257
55850W        W22633  15.992  40.740  13.033
55851W        W22634  27.863  10.686   4.150
55852W        W22635  39.316  11.829   1.206
55853W        W22636  41.045   1.966  12.817
55854W        W22637  14.118  35.658  12.525
55855W        W22638   6.828  27.794   3.317
55856W        W22639  20.069  26.990  11.097
55857W        W22640  28.106  31.643   2.135
55858W        W22641  26.190  43.727   4.815
55859W        W22642   5.228  37.885   0.335
55860W        W22643  22.653   6.236   0.829
55861W        W22644   8.394  27.235   1.296
55862W        W22645   3.841   5.946  13.607
55863W        W22646  23.445   1.403   0.906
55864W        W22647  29.418   9.625   0.298
55865W        W22648  32.016  34.213   1.146
55866W        W22649  26.418  37.148  11.202
55867W        W22650  28.712  38.794  14.953
55868W        W22651  33.581  23.021   4.108
55869W        W22652  38.715  20.767  13.601
55870W        W22653  16.286   5.479  14.256
55871W        W22654  20.049  11.759  10.999
55872W        W22655  15.878   3.224  13.062
55873W        W22656  22.489  28.776   0.747
55874W        W22657  27.163   4.432  11.000
55875W        W22658  19.260  38.086   0.243
55876W        W22659   0.754  43.493  12.460
55877W        W22660  17.726  16.857   4.075
55878W        W22661   3.303  37.568  12.432
55879W        W22662  11.733  12.604  12.792
55880W        W22663  31.668  21.728  10.551
55881W        W22664   1.473   6.699  12.927
55882W        W22665  13.069  31.598  13.868
55883W        W22666  29.476  19.323   2.119
55884W        W22667  29.620  19.564  14.885
55885W        W22668  21.283  13.831   1.310
55886W        W22669   5.406  43.209   4.503
55887W        W22670  26.052  26.776   4.772
55888W        W22671   7.706  16.654   4.327
55889W        W22672   4.324   3.055   3.764
55890W        W22673  19.664  26.467   0.769
55891W        W22674  15.213  20.123   0.699
55892W        W22675  34.054  13.845   4.477
55893W        W22676  36.063  33.881  13.330
55894W        W22677  28.205  26.482   2.212
55895W        W22678  29.650  10.274   3.830
55896W        W22679  10.425   6.425   0.341
55897W        W22680  31.247  35.322   2.695
55898W        W22681  28.580  17.120   3.300
55899W        W22682  44.041  19.759  14.252
55900W        W22683  44.610   0.974   2.773
55901W        W22684  44.192   3.656   1.223
55902W        W22685  23.096   6.310  11.998
55903W        W22686  12.612  22.477   3.879
55904W        W22687  33.675  24.747  11.711
55905W        W22688  39.527  13.534  10.638
55906W        W22689   0.708  44.844  14.852
55907W        W22690   4.862  22.574  13.375
55908W        W22691  17.236  10.181   4.458
55909W        W22692  10.363   6.938   0.269
55910W        W22693  30.739  26.827  10.802
55911W        W22694   0.769  39.932  10.729
55912W        W22695  33.422  13.706   2.365
55913W        W22696  34.371  31.632  12.890
55914W        W22697  31.080  24.075  11.107
55915W        W22698  33.653  19.200   0.069
55916W        W22699  43.584  14.603   3.266
55917W        W22700  26.142   2.037  12.241
55918W        W22701  11.877   0.331   2.101
55919W        W22702  42.738   7.285  12.338
55920W        W22703  29.944  22.459   3.060
55921W        W22704  37.510   3.937   2.729
55922W        W22705  44.460   1.763  11.850
55923W        W22706  11.162  10.810  12.812
55924W        W22707  26.439  30.054   0.154
55925W        W22708  11.802   1.846  12.941
55926W        W22709  21.650  15.712   2.794
55927W        W22710  34.403  33.386   2.644
55928W        W22711  36.164  33.838  11.256
55929W        W22712  22.967  18.106   3.310
55930W        W22713  16.639  17.564  10.868
55931W        W22714  42.277  26.765  14.406
55932W        W22715  21.120  37.884  11.609
55933W        W22716  33.678   9.937  12.484
55934W        W22717  32.183   1.029   0.843
55935W        W22718  10.844   9.099   0.345
55936W        W22719  44.834   6.861  11.341
55937W        W22720  16.581   9.098   4.074
55938W        W22721   1.782  10.615   2.366
55939W        W22722  23.772  41.079  14.919
55940W        W22723  13.012  22.138  14.477
55941W        W22724   9.108  27.508  13.956
55942W        W22725  26.935   5.240   4.222
55943W        W22726  43.339  41.908   1.854
55944W        W22727  42.423  29.704   1.241
55945W        W22728  12.692  40.091   1.725
55946W        W22729   9.815  25.998   4.592
55947W        W22730   1.366  10.318   3.173
55948W        W22731  24.551   0.069  12.108
55949W        W22732  11.573  19.028  11.212
55950W        W22733  32.144  12.227  14.126
55951W        W22734  21.715   0.703  14.520
55952W        W22735  31.607  24.161   3.652
55953W        W22736   4.869   4.917   1.542
55954W        W22737   4.454   3.348  12.945
55955W        W22738  21.254   8.225   4.275
55956W        W22739  34.614  18.172  10.539
55957W        W22740   0.435   1.170   1.616
55958W        W22741  30.209   0.129   0.769
55959W        W22742  14.241  10.359  10.032
55960W        W22743  10.123  35.119   0.915
55961W        W22744  32.362  44.216   2.277
55962W        W22745  26.642  26.042  13.998
55963W        W22746   3.851  41.488   0.479
55964W        W22747   9.380  31.970  10.696
55965W        W22748  13.266  15.885   3.142
55966W        W22749   6.981  26.957  13.569
55967W        W22750  16.725  22.202  10.588
55968W        W22751  13.210  40.598   3.341
55969W        W22752  27.730  36.203   1.669
55970W        W22753  21.194  42.445  13.547
55971W        W22754  43.987   3.290  11.407
55972W        W22755  18.029  11.375   1.440
55973W        W22756   0.213  29.727  13.582
55974W        W22757  16.255  42.341  11.061
55975W        W22758  16.125  35.868   2.883
55976W        W22759  12.185  25.324  14.080
55977W        W22760  20.553   9.953  12.862
55978W        W22761  44.955  36.628  11.137
55979W        W22762  22.064  24.620   4.683
55980W        W22763  13.191  31.087  11.297
55981W        W22764   7.298  11.144   4.168
55982W        W22765  36.994  44.912   3.116
55983W        W22766  26.271   0.622  14.830
55984W        W22767  11.369  14.628  11.097
55985W        W22768   0.107  42.158   1.048
55986W        W22769  40.556  21.098  13.420
55987W        W22770  38.066  11.725   2.275
55988W        W22771  23.138   4.745  13.442
55989W        W22772  43.563   5.601  13.824
55990W        W22773  41.203   6.931   4.063
55991W        W22774  36.922  18.692   0.043
55992W        W22775  19.293  20.075   1.202
55993W        W22776   4.639  17.153  12.903
55994W        W22777  25.311  28.018   2.417
55995W        W22778  16.632  25.011  10.651
55996W        W22779  35.795  14.722  11.120
55997W        W22780  28.760   7.465  10.795
55998W        W22781  33.587   3.403   0.335
55999W        W22782  15.161  38.823   4.134
56000W        W22783  23.517   0.696   4.661
56001W        W22784   7.812  40.391  14.269
56002W        W22785  41.732  41.293  11.185
56003W        W22786  28.552  15.223  13.611
56004W        W22787  30.865   8.222  11.113
56005W        W22788   3.803  34.907   1.343
56006W        W22789   8.940   3.008   4.750
56007W        W22790  36.094  18.483   1.253
56008W        W22791  43.151  12.236   4.707
56009W        W22792  12.298   7.960   3.033
56010W        W22793  30.427  42.826  14.811
56011W        W22794  18.293  36.356   0.872
56012W        W22795   5.143   6.333  11.337
56013W        W22796  20.057  41.448  10.742
56014W        W22797  32.906  35.003   3.471
56015W        W22798  16.334  18.636   4.224
56016W        W22799   9.364  15.609   0.344
56017W        W22800  28.636  11.128  13.576
56018W        W22801  42.491  26.644  10.569
56019W        W22802  41.170  36.382   1.186
56020W        W22803  31.959  37.462  10.852
56021W        W22804  17.192   6.328   1.865
56022W        W22805  14.118  27.915  13.501
56023W        W22806   5.282  35.561   2.795
56024W        W22807  16.767   7.764  14.073
56025W        W22808   2.434  36.733  14.978
56026W        W22809  29.242  42.334   2.609
56027W        W22810  32.998   3.516  13.852
56028W        W22811  24.682  34.313  10.723
56029W        W22812  40.009  17.927   0.273
56030W        W22813  40.774  36.631   2.151
56031W        W22814  23.610   4.327   1.457
56032W        W22815  31.354   9.388   3.674
56033W        W22816  43.842  12.576   1.494
56034W        W22817  31.321  30.444  11.131
56035W        W22818  24.306  26.440  14.938
56036W        W22819  29.403  15.502  13.679
56037W        W22820   8.921  17.709  10.917
56038W        W22821  44.148  25.588  11.066
56039W        W22822  33.803  13.418  11.760
56040W        W22823  28.172  28.943   4.140
56041W        W22824  31.114  37.266  13.629
56042W        W22825   9.602  12.125  14.517
56043W        W22826  33.032  25.550  14.938
56044W        W22827  40.884  41.237   4.846
56045W        W22828  25.484  39.066   3.824
56046W        W22829  37.446  44.778  14.965
56047W        W22830  11.791  36.362   0.853
56048W        W22831  28.481  44.524   2.247
56049W        W22832  33.149  44.455   0.506
56050W        W22833   8.189  20.163  13.861
56051W        W22834  25.734  44.326  12.786
56052W        W22835  44.589  32.872  14.022
56053W        W22836   4.682   3.665  12.613
56054W        W22837  36.622  37.460  12.564
56055W        W22838  32.288  25.432   0.511
56056W        W22839  38.413  10.813  13.815
56057W        W22840  40.365  38.783   3.741
56058W        W22841  24.477  40.901   2.605
56059W        W22842  15.123   6.509   4.155
56060W        W22843  42.705  26.550   4.799
56061W        W22844   3.524  24.558  12.957
56062W        W22845  27.715  15.084  13.917
56063W        W22846   5.559   4.904  10.947
56064W        W22847  37.126  11.708  14.780
56065W        W22848  37.823  38.039   3.141
56066W        W22849   0.679  20.575  14.965
56067W        W22850  27.770  24.261  11.533
56068W        W22851  11.610  15.142  13.079
56069W        W22852  19.675  17.371  14.546
56070W        W22853  20.057  43.807  11.748
56071W        W22854  40.626   1.019  12.845
56072W        W22855  34.116  31.493  13.342
56073W        W22856  28.886  29.407   4.127
56074W        W22857  26.591  26.625   4.495
56075W        W22858  12.707  26.422  12.757
56076W        W22859  19.313   0.517   1.108
56077W        W22860  22.295  20.913  14.856
56078W        W22861  31.960   8.243   1.398
56079W        W22862   5.117   1.761   3.677
56080W        W22863  40.275  29.001   2.585
56081W        W22864  23.492  29.917  13.012
56082W        W22865   6.308  17.572  13.926
56083W        W22866  22.531  27.701  14.419
56084W        W22867  21.799  12.015  13.977
56085W        W22868  34.942   0.025   3.718
56086W        W22869  38.805  25.775   0.220
56087W        W22870  44.995  30.131   1.800
56088W        W22871  10.827  26.253   0.696
56089W        W22872  25.669  28.371  13.016
56090W        W22873  41.521  22.442  14.737
56091W        W22874  19.917  11.060  11.998
56092W        W22875  44.103  37.961  13.485
56093W        W22876  11.224   8.153  12.994
56094W        W22877  15.066  16.007  10.563
56095W        W22878  15.521  25.351  10.656
56096W        W22879  39.025  37.953  12.856
56097W        W22880   7.606   3.754   0.958
56098W        W22881  39.551   4.764  13.550
56099W        W22882  33.349  44.408   2.309
56100W        W22883   9.987   4.361  11.429
56101W        W22884  19.584   4.167   2.167
56102W        W22885  33.853  36.693  11.631
56103W        W22886   5.608  27.692  11.015
56104W        W22887  30.539  38.922  11.007
56105W        W22888  19.371  13.298   3.246
56106W        W22889   2.381  36.304  12.050
56107W        W22890  20.175  24.761   3.362
56108W        W22891  26.173  27.601  13.468
56109W        W22892  19.299  23.605   3.166
56110W        W22893  12.069  28.137  11.698
56111W        W22894  16.772  32.634   4.726
56112W        W22895  12.745  15.333   2.617
56113W        W22896  10.380  23.877   5.133
56114W        W22897  28.585  40.578   0.457
56115W        W22898  36.511  34.962  12.873
56116W        W22899   2.882  34.207  13.323
56117W        W22900  32.845  16.828   4.065
56118W        W22901  19.152  41.712  10.535
56119W        W22902  12.054  24.771   3.352
56120W        W22903  13.168  11.675  11.608
56121W        W22904  18.981  17.123  14.965
56122W        W22905  40.880  16.701  12.324
56123W        W22906   0.238  32.330  14.347
56124W        W22907  31.266   8.923   2.868
56125W        W22908  41.306   9.714   4.849
56126W        W22909  16.179  18.370   2.238
56127W        W22910  28.797  11.674   3.687
56128W        W22911   1.300  32.091  13.039
56129W        W22912  38.169  25.115   1.721
56130W        W22913  31.786   4.645  14.150
56131W        W22914   8.952  37.487  10.337
56132W        W22915   2.794  31.235   4.019
56133W        W22916  32.646   4.322  14.424
56134W        W22917  21.218   7.028   0.759
56135W        W22918  44.038   9.769   3.683
56136W        W22919  35.403  16.651  14.144
56137W        W22920  17.842  33.398  12.125
56138W        W22921  20.610  22.587   0.758
56139W        W22922  21.999  13.848   1.820
56140W        W22923  31.892  36.460   1.269
56141W        W22924   5.155  27.263   2.217
56142W        W22925  10.291  32.707   3.727
56143W        W22926  27.145  22.657   3.647
56144W        W22927  33.565  30.480  13.833
56145W        W22928  16.029  12.159   4.571
56146W        W22929  30.631   5.564  12.690
56147W        W22930  19.007  13.227   2.714
56148W        W22931  11.201  40.838  13.909
56149W        W22932  35.781  10.847  13.472
56150W        W22933   9.165   9.926   3.810
56151W        W22934  18.154  26.867   0.629
56152W        W22935  19.060   3.442   3.760
56153W        W22936  30.021   9.315   1.012
56154W        W22937   7.869  34.990   0.791
56155W        W22938  35.255  12.800   4.200
56156W        W22939  33.958  41.300  12.870
56157W        W22940   1.885   8.412  10.680
56158W        W22941  16.132  44.586  12.550
56159W        W22942  20.986  35.952  12.785
56160W        W22943  26.473  36.340  14.320
56161W        W22944  33.769  42.938   3.768
56162W        W22945  17.077  27.748  14.202
56163W        W22946  22.122  19.575  10.465
56164W        W22947  44.398  20.349  11.170
56165W        W22948  43.820  37.153  14.954
56166W        W22949  41.226   9.186  13.047
56167W        W22950   7.140  10.635  14.508
56168W        W22951  31.218  18.990  13.076
56169W        W22952  43.472  13.407   2.698
56170W        W22953  13.192  41.782   1.955
56171W        W22954   8.385  34.196  10.447
56172W        W22955   4.052  22.614   1.428
56173W        W22956   6.169  19.577  10.347
56174W        W22957   7.232  25.429  11.218
56175W        W22958  27.207  37.863   0.948
56176W        W22959  23.610  41.471   1.135
56177W        W22960  28.725   9.719   0.751
56178W        W22961  16.740   9.146  14.773
56179W        W22962  17.168  19.654  14.694
56180W        W22963  41.428  38.910  11.986
56181W        W22964  31.187   1.269  14.960
56182W        W22965   9.354  20.528  12.527
56183W        W22966   5.414   5.185  14.896
56184W        W22967  35.079  32.799  12.480
56185W        W22968   5.179  30.001  13.070
56186W        W22969  11.848   4.904   4.673
56187W        W22970  27.193  38.409   0.947
56188W        W22971  38.657  34.117   2.386
56189W        W22972  21.838   4.158   2.851
56190W        W22973  35.634  23.416  10.212
56191W        W22974  24.899  10.944   3.585
56192W        W22975  11.862  12.987  13.588
56193W        W22976   5.684  40.853   0.782
56194W        W22977  44.699  12.077   2.367
56195W        W22978  36.014   0.855   2.115
56196W        W22979  25.645  34.439   2.724
56197W        W22980  38.080  13.131  13.540
56198W        W22981  42.291  31.835   3.283
56199W        W22982  22.077  17.636  13.740
56200W        W22983   0.012  32.561  12.183
56201W        W22984  19.707  18.080   3.779
56202W        W22985   6.962  23.218  13.258
56203W        W22986  25.619   3.266  14.134
56204W        W22987  35.647  11.910  11.883
56205W        W22988  14.960  24.000  10.558
56206W        W22989  40.446   0.844   1.267
56207W        W22990  25.018  21.677   4.035
56208W        W22991  39.028  42.075  13.945
56209W        W22992  32.433  25.269  13.384
56210W        W22993  10.141  12.241   4.670
56211W        W22994  32.417  30.693  12.415
56212W        W22995  30.516  36.950   3.171
56213W        W22996  43.356  32.142  14.355
56214W        W22997  37.641   2.495   0.650
56215W        W22998  29.564  42.182  11.595
56216W        W22999  31.583  13.955  12.864
56217W        W23000  19.106  32.038  12.328
56218W        W23001  44.578  33.615   3.715
56219W        W23002  13.388   4.964   3.629
56220W        W23003  44.761  12.686   0.506
56221W        W23004  34.752  40.479   4.600
56222W        W23005  33.632  14.133  12.580
56223W        W23006  37.882   6.951   1.057
56224W        W23007  16.186  42.764  13.051
56225W        W23008   0.935  35.479  14.988
56226W        W23009  25.249  32.047  10.335
56227W        W23010  28.846  30.565  12.747
56228W        W23011  26.126  22.563   0.841
56229W        W23012   1.967  23.263   3.236
56230W        W23013  13.132   9.147  13.844
56231W        W23014   7.872  22.243   2.714
56232W        W23015  38.149   1.657   3.209
56233W        W23016  37.963   4.573  11.877
56234W        W23017  29.150   9.403  14.287
56235W        W23018   3.440  14.610   4.456
56236W        W23019  22.972  24.483  13.434
56237W        W23020  17.133  21.190   3.503
56238W        W23021  29.615  22.697  12.547
56239W        W23022  22.138  24.698  10.975
56240W        W23023  41.853  10.415   4.443
56241W        W23024  29.060  32.701  14.425
56242W        W23025  40.954   6.854  13.471
56243W        W23026   2.385   7.096   2.232
56244W        W23027   5.473  15.536  12.055
56245W        W23028   5.538  36.755   4.599
56246W        W23029  28.100  11.635  11.559
56247W        W23030  16.771  43.871  12.322
56248W        W23031  31.884  30.270  14.553
56249W        W23032  14.697   2.320  13.404
56250W        W23033  19.079   1.305   3.756
56251W        W23034  31.151  32.276  12.466
56252W        W23035   6.326  30.622   0.341
56253W        W23036  22.553  25.133   0.018
56254W        W23037  41.436  19.532   4.361
56255W        W23038  38.901   9.879   3.337
56256W        W23039  26.088  11.091   1.409
56257W        W23040  44.311  13.206   2.766
56258W        W23041   3.954   7.534  11.981
56259W        W23042  13.660  21.271  13.673
56260W        W23043  16.788  43.890  14.665
56261W        W23044  27.182  17.180   3.613
56262W        W23045  32.412  35.087   3.070
56263W        W23046  22.137  33.898  13.527
56264W        W23047  19.214  15.351  11.949
56265W        W23048  41.739  39.821   4.958
56266W        W23049   0.303   6.418  14.240
56267W        W23050   5.193  13.786   1.911
56268W        W23051  28.723  35.855   0.780
56269W        W23052  20.680  27.010   4.116
56270W        W23053  16.537  37.514  14.064
56271W        W23054   9.580  28.306   2.702
56272W        W23055  21.108  27.832   0.888
56273W        W23056  34.300  19.636   1.966
56274W        W23057  31.617  22.190   2.704
56275W        W23058  31.119   0.972   1.230
56276W        W23059  22.524   1.527   5.248
56277W        W23060  33.189  10.544   0.704
56278W        W23061  44.502  15.395  12.368
56279W        W23062  43.124  39.611   2.984
56280W        W23063   2.573  15.522   3.797
56281W        W23064   8.875   3.593  12.123
56282W        W23065  24.584  26.140  14.015
56283W        W23066   9.350  39.471   4.317
56284W        W23067  43.047   0.291   4.743
56285W        W23068   6.409  25.049  14.498
56286W        W23069  34.092   9.887   1.014
56287W        W23070  41.492  13.437   1.707
56288W        W23071  27.632  44.827   3.408
56289W        W23072  37.546   1.976   1.931
56290W        W23073   9.150  34.679   4.550
56291W        W23074  17.992  17.519  13.013
56292W        W23075  20.482  35.361  10.859
56293W        W23076  35.991   4.069   4.636
56294W        W23077   4.646  11.854   3.185
56295W        W23078  15.189  17.531  13.577
56296W        W23079  32.053  41.276  14.011
56297W        W23080   5.020  22.746   3.269
56298W        W23081  35.446  38.533   2.406
56299W        W23082  28.693  11.598  11.124
56300W        W23083  39.804  31.778  12.335
56301W        W23084  24.569  25.665   3.596
56302W        W23085  12.299   6.850   3.976
56303W        W23086  19.970  42.937  10.647
56304W        W23087  39.763   5.692   2.691
56305W        W23088   2.988  14.683   3.140
56306W        W23089  43.030  36.480   1.973
56307W        W23090   5.655  31.119   3.030
56308W        W23091  44.753  35.932   1.345
56309W        W23092  37.889  22.075   0.193
56310W        W23093  21.650  44.240   4.109
56311W        W23094  29.624  22.424  13.501
56312W        W23095  26.676   7.785   0.465
56313W        W23096  44.960  19.716   3.216
56314W        W23097  32.132  31.265  14.482
56315W        W23098  16.273  42.510   3.969
56316W        W23099   1.343  18.189  13.510
56317W        W23100  35.442  16.714   4.328
56318W        W23101  17.910  25.694   3.636
56319W        W23102  29.685   5.316  12.401
56320W        W23103  23.191  13.021  14.521
56321W        W23104  18.129  24.969  10.489
56322W        W23105  37.050   9.461   2.722
56323W        W23106  41.797  20.481  11.086
56324W        W23107  23.031  10.093   0.900
56325W        W23108  27.351  22.596  12.013
56326W        W23109  37.276  30.834   2.712
56327W        W23110  10.108  41.892  13.877
56328W        W23111  44.426  21.222  10.246
56329W        W23112   9.354  33.304   2.333
56330W        W23113  40.526  35.467   2.396
56331W        W23114  39.946  23.584  14.863
56332W        W23115  20.629  12.823   0.737
56333W        W23116  41.251  36.333  10.812
56334W        W23117  19.528  34.085   1.758
56335W        W23118  23.926  31.066  12.332
56336W        W23119  42.002   8.870   0.371
56337W        W23120  16.615  40.306   2.749
56338W        W23121  13.152  36.359   1.909
56339W        W23122  20.082  17.153   2.717
56340W        W23123  41.351  12.383  10.958
56341W        W23124  42.342  33.519   2.222
56342W        W23125  12.619   0.999   4.172
56343W        W23126   8.302   3.642   1.387
56344W        W23127  35.933  27.006   0.408
56345W        W23128  12.491  31.516  14.763
56346W        W23129   1.767   6.060  14.279
56347W        W23130  22.034   6.436   2.663
56348W        W23131   4.179  18.157   1.389
56349W        W23132   4.877  25.259  11.599
56350W        W23133  17.298  35.894  14.044
56351W        W23134  35.093  10.311   2.270
56352W        W23135  10.201  24.983  12.873
56353W        W23136  42.738  23.021   1.823
56354W        W23137  14.849   3.154   2.438
56355W        W23138   3.892  15.411   1.287
56356W        W23139  20.751  15.903  10.643
56357W        W23140  32.825  23.152  11.200
56358W        W23141  25.104  43.487   3.794
56359W        W23142  41.292   1.243  10.830
56360W        W23143  12.314  42.521   2.634
56361W        W23144  33.578  38.032  12.834
56362W        W23145   2.905  12.851   0.984
56363W        W23146   7.326  25.411   0.953
56364W        W23147  43.760  23.692   4.559
56365W        W23148  39.550  43.349  12.168
56366W        W23149  44.920  34.062  13.405
56367W        W23150  33.121  10.773   4.244
56368W        W23151  28.553  10.476   4.968
56369W        W23152  23.136  43.990  12.011
56370W        W23153  17.907  37.802   3.718
56371W        W23154  18.075  10.281   1.333
56372W        W23155  18.143  34.617  11.218
56373W        W23156   5.197   1.926   3.200
56374W        W23157   8.114  41.896   3.226
56375W        W23158  17.248  24.181  10.226
56376W        W23159  20.018   7.335   1.323
56377W        W23160   7.366  28.401  11.217
56378W        W23161  10.321  24.011  12.157
56379W        W23162  14.663  10.122  11.259
56380W        W23163   5.952  40.008   2.816
56381W        W23164  38.788  20.680  14.318
56382W        W23165  43.548  34.471  14.829
56383W        W23166   3.598  21.215  14.349
56384W        W23167  29.145  43.966   4.439
56385W        W23168  18.617  16.195  11.501
56386W        W23169  43.009  30.479   2.627
56387W        W23170  39.312   1.271  12.163
56388W        W23171  41.980   9.618  12.842
56389W        W23172   8.310  31.554  12.905
56390W        W23173   8.382  41.026   0.203
56391W        W23174   7.787  29.568   1.292
56392W        W23175  23.198  17.154   4.361
56393W        W23176  11.434  40.311  10.951
56394W        W23177  15.282  12.861  12.675
56395W        W23178   3.262  18.694  14.327
56396W        W23179  16.555  31.985   2.332
56397W        W23180  18.260  37.749   1.269
56398W        W23181  14.740  37.341   2.899
56399W        W23182  44.128   5.909   1.339
56400W        W23183  21.755   6.886  14.908
56401W        W23184  19.595  21.428  12.308
56402W        W23185  32.525   2.779   2.427
56403W        W23186  21.052   9.688   1.384
56404W        W23187  39.806  18.971  11.528
56405W        W23188   5.118   3.388   0.535
56406W        W23189  12.876  42.352  12.592
56407W        W23190  39.539  38.609   1.357
56408W        W23191   1.705  36.249   4.135
56409W        W23192  32.817   0.775  12.332
56410W        W23193  36.437  11.073  12.601
56411W        W23194  30.369  43.473   3.556
56412W        W23195  28.713  40.378  14.399
56413W        W23196  12.677  40.340  12.626
56414W        W23197  43.502  38.390  14.242
56415W        W23198   0.721  42.795   4.557
56416W        W23199   7.733  26.215   1.951
56417W        W23200  38.879  24.277  12.497
56418W        W23201  21.117   2.596   2.308
56419W        W23202  44.234  30.676  12.606
56420W        W23203  17.660  43.907   0.961
56421W        W23204  21.679  31.994  13.449
56422W        W23205  39.526  10.301   3.471
56423W        W23206   2.606   0.527   1.682
56424W        W23207  31.818  31.650   0.224
56425W        W23208  17.548  31.218   3.657
56426W        W23209  31.961   3.768  14.334
56427W        W23210  12.663  37.394   2.738
56428W        W23211  11.823  28.177   1.806
56429W        W23212   6.235  36.886  14.939
56430W        W23213  39.834  42.956   0.212
56431W        W23214  33.851  34.952   1.670
56432W        W23215   2.753   4.337  12.119
56433W        W23216   4.724   4.686  14.145
56434W        W23217   5.974  32.975  12.436
56435W        W23218  37.587  26.152   3.620
56436W        W23219  39.750  38.542  14.457
56437W        W23220  40.212  41.505  11.242
56438W        W23221   0.781  18.081   2.286
56439W        W23222  38.519   5.791  14.921
56440W        W23223   4.679  36.627   2.288
56441W        W23224  33.886  10.096   0.381
56442W        W23225  25.413   9.232   1.857
56443W        W23226  17.050  27.420   3.149
56444W        W23227  27.210   7.411  13.779
56445W        W23228   8.855  10.737   2.411
56446W        W23229  34.353   1.805   3.691
56447W        W23230  19.763  41.309   0.202
56448W        W23231   6.663  11.071  13.464
56449W        W23232  18.662  27.471  10.869
56450W        W23233   1.346  42.023   4.995
56451W        W23234  21.729  36.414  13.051
56452W        W23235  38.471  29.311  14.464
56453W        W23236  17.128  21.468  12.056
56454W        W23237  43.032  38.802   0.901
56455W        W23238  15.871  38.180  12.437
56456W        W23239  11.445  39.468  11.179
56457W        W23240  13.106   0.509  12.794
56458W        W23241  14.848  12.644   2.791
56459W        W23242  38.319   0.709  13.243
56460W        W23243  44.287  26.116  11.606
56461W        W23244  10.258  43.468   3.610
56462W        W23245   0.834  17.872  11.044
56463W        W23246  28.742  22.806  12.501
56464W        W23247   7.283  31.835  11.915
56465W        W23248  29.046  38.950  12.697
56466W        W23249  22.285  30.626   3.746
56467W        W23250   9.351  44.839   0.315
56468W        W23251  17.533  17.546  13.889
56469W        W23252  41.744  27.873   1.195
56470W        W23253  14.208  42.857   5.054
56471W        W23254   9.687   4.323  14.869
56472W        W23255  32.203  16.553   4.133
56473W        W23256  15.254  37.423   3.051
56474W        W23257  25.046  32.579   0.513
56475W        W23258  23.345  41.731  11.477
56476W        W23259   2.523  27.070  14.654
56477W        W23260   1.028  20.514  11.534
56478W        W23261  36.782  35.076  12.468
56479W        W23262  35.366  25.118  14.042
56480W        W23263   6.464  35.105   3.139
56481W        W23264  16.295  36.065  10.255
56482W        W23265  39.438  28.504   0.536
56483W        W23266   0.289  26.436  11.507
56484W        W23267  22.460  35.621   4.928
56485W        W23268   8.674  27.662   1.276
56486W        W23269  34.117   9.339  14.735
56487W        W23270   7.682  33.442  12.522
56488W        W23271  40.365  24.780  13.845
56489W        W23272  35.480  23.547  10.694
56490W        W23273  40.052  21.113  14.162
56491W        W23274  20.211  34.778  14.263
56492W        W23275  14.041  12.317   2.832
56493W        W23276  23.671  34.897   1.494
56494W        W23277  26.320  25.351   3.986
56495W        W23278  18.348  13.328  11.875
56496W        W23279   2.135  17.388  10.977
56497W        W23280  29.897  44.848   1.066
56498W        W23281  42.444  10.233   3.288
56499W        W23282   8.655   7.089   2.919
56500W        W23283   2.230  26.703  11.588
56501W        W23284  36.381  19.980  14.789
56502W        W23285  24.646  40.190  14.245
56503W        W23286  23.105   9.801   1.846
56504W        W23287  17.771  27.936  13.113
56505W        W23288  22.691  38.138  12.705
56506W        W23289  13.084  39.550  14.333
56507W        W23290  35.549  33.309  14.420
56508W        W23291  41.486  29.462  11.697
56509W        W23292  15.629  30.450  11.597
56510W        W23293  24.422  42.971  11.703
56511W        W23294  20.060   7.344  14.017
56512W        W23295  11.641   7.218   2.023
56513W        W23296  19.228  20.172  10.370
56514W        W23297  15.666  23.805   1.789
56515W        W23298  44.677  40.397   4.254
56516W        W23299  30.107  11.731   1.381
56517W        W23300  36.381  30.077   0.191
56518W        W23301  38.509   3.854   3.616
56519W        W23302  32.466  24.633   4.959
56520W        W23303   1.723  29.228  12.427
56521W        W23304  33.952   8.657   2.982
56522W        W23305  16.643  21.456   2.712
56523W        W23306  43.057  29.564   2.678
56524W        W23307  23.590  22.041   1.901
56525W        W23308  13.409  30.626  12.014
56526W        W23309  34.324  36.793   3.285
56527W        W23310  20.975  35.660   1.898
56528W        W23311  37.821  29.985   4.655
56529W        W23312  17.275  14.356  13.558
56530W        W23313  25.154  20.259   1.324
56531W        W23314  43.543  32.968  13.931
56532W        W23315  12.075   3.618  12.505
56533W        W23316   0.603   4.673  11.036
56534W        W23317  40.124  38.328   3.804
56535W        W23318  43.844   3.347   3.332
56536W        W23319   3.380  15.200  14.003
56537W        W23320  23.291  33.678  14.452
56538W        W23321  24.104  39.056  13.889
56539W        W23322  22.932  18.723  12.908
56540W        W23323  35.390  26.371  12.867
56541W        W23324   7.913  25.512   2.493
56542W        W23325   2.809  34.652  13.069
56543W        W23326  41.264  14.612  12.806
56544W        W23327   8.830  43.686  14.183
56545W        W23328  10.793  23.021   0.283
56546W        W23329  34.360   4.620   2.086
56547W        W23330  33.509   3.343   3.095
56548W        W23331  36.895  12.209   1.895
56549W        W23332   4.815  29.294  10.507
56550W        W23333   4.163   7.271   4.537
56551W        W23334  39.584  44.840   2.440
56552W        W23335  23.568  14.141   1.379
56553W        W23336  34.444  27.026  12.936
56554W        W23337  29.102  11.259  11.903
56555W        W23338  20.514   6.467   0.462
56556W        W23339  33.508  22.004   3.128
56557W        W23340  41.916   0.276   0.005
56558W        W23341  39.824  33.136  12.009
56559W        W23342  37.032  16.541  11.602
56560W        W23343   0.558  11.221   0.790
56561W        W23344  11.594  37.563   1.260
56562W        W23345  14.217  43.419  12.562
56563W        W23346   3.359   6.372  12.495
56564W        W23347  24.068  18.423   0.320
56565W        W23348   9.146   9.767  13.394
56566W        W23349  38.804  31.538   2.075
56567W        W23350  35.065  35.559   1.444
56568W        W23351  21.218  25.059  14.268
56569W        W23352  33.241  10.903   3.094
56570W        W23353  21.868  37.946   3.814
56571W        W23354  36.891   7.505   0.650
56572W        W23355  41.493  19.300   0.318
56573W        W23356  18.681   4.539   4.586
56574W        W23357  39.309  36.088  13.782
56575W        W23358  26.740   6.729  12.934
56576W        W23359  13.207  37.097   0.951
56577W        W23360   5.924  23.594   1.908
56578W        W23361  35.696  36.140   3.305
56579W        W23362  24.249  10.136  12.392
56580W        W23363  14.205  44.738  12.936
56581W        W23364   6.958  30.030   2.417
56582W        W23365  16.751  31.929  11.629
56583W        W23366   9.146  33.414   3.208
56584W        W23367  36.476  13.244   2.248
56585W        W23368  23.127  41.309  11.261
56586W        W23369   6.604  41.861   0.969
56587W        W23370  18.727  25.570   3.241
56588W        W23371  38.575  44.376   1.686
56589W        W23372  30.589  10.669  13.733
56590W        W23373  41.275  39.186   0.043
56591W        W23374  30.092  33.146  10.598
56592W        W23375  43.741  30.871  12.531
56593W        W23376  15.364  30.237  13.743
56594W        W23377  43.417  40.518  13.347
56595W        W23378  25.243   3.030  11.535
56596W        W23379  33.405  21.644   2.090
56597W        W23380  19.631  17.081   0.888
56598W        W23381  37.747   9.617  11.527
56599W        W23382  39.762   9.577  11.174
56600W        W23383  41.675   2.328   4.979
56601W        W23384  18.048   0.883   0.186
56602W        W23385  11.871   2.217  11.103
56603W        W23386  40.434   3.233  12.439
56604W        W23387  27.129  21.098   0.778
56605W        W23388   6.407  31.912  14.848
56606W        W23389   9.936  27.931  13.928
56607W        W23390  13.809  35.416   0.160
56608W        W23391  19.290  11.745   4.901
56609W        W23392  12.958  31.104  12.646
56610W        W23393   4.952   8.919  13.876
56611W        W23394  19.740   3.706   1.940
56612W        W23395  29.184  30.883   0.900
56613W        W23396  41.757   6.960   3.688
56614W        W23397  31.534  32.423  13.393
56615W        W23398  15.075  39.317   1.985
56616W        W23399  25.629  32.446   2.693
56617W        W23400   5.936  20.605  11.244
56618W        W23401  38.861  34.127  11.736
56619W        W23402  32.640   2.326  10.701
56620W        W23403   5.530  32.427   1.826
56621W        W23404  39.252  16.374  11.764
56622W        W23405  33.691  13.427  14.024
56623W        W23406  17.324  34.822  11.456
56624W        W23407   9.708  16.545   1.210
56625W        W23408  14.661  33.613  12.948
56626W        W23409  30.545   0.695  12.864
56627W        W23410   2.778  18.132  11.720
56628W        W23411   7.330  39.314   3.219
56629W        W23412  12.845  28.479  14.461
56630W        W23413  40.830  22.578   4.842
56631W        W23414  25.926   0.943  14.366
56632W        W23415  23.377   0.853  12.682
56633W        W23416  20.341   9.363  12.064
56634W        W23417   0.450  17.710   3.533
56635W        W23418  19.922  35.889   2.732
56636W        W23419  37.292   2.662   2.096
56637W        W23420  37.985  38.415  14.626
56638W        W23421  33.546   0.993   4.687
56639W        W23422  29.139  22.489  13.774
56640W        W23423  28.337  41.569  12.884
56641W        W23424  11.304   4.791   0.924
56642W        W23425  18.607   5.273   1.460
56643W        W23426  31.796  12.315   0.436
56644W        W23427  22.633  44.034   0.834
56645W        W23428  19.809  32.909   2.217
56646W        W23429  41.258   5.346  14.050
56647W        W23430  18.431  22.623   0.453
56648W        W23431  12.591  32.722  13.575
56649W        W23432  39.379  31.677  12.612
56650W        W23433  25.700  12.409  12.944
56651W        W23434  24.608  32.649  11.588
56652W        W23435   4.851  29.213  14.375
56653W        W23436  26.923  34.828  12.205
56654W        W23437   7.159  21.391   3.027
56655W        W23438  25.717   0.443   0.233
56656W        W23439  31.464  19.247  14.409
56657W        W23440  13.112  27.196   2.347
56658W        W23441  34.116  24.690  10.680
56659W        W23442  39.224   2.920  14.353
56660W        W23443  29.729  36.145   2.861
56661W        W23444  29.010   8.124   1.649
56662W        W23445  29.148  26.269  13.531
56663W        W23446  23.218  30.894   3.352
56664W        W23447  20.844  18.532  14.079
56665W        W23448  37.475  44.336   2.609
56666W        W23449  44.380  36.405   4.189
56667W        W23450  24.911  30.445   4.201
56668W        W23451  20.255  20.606  11.554
56669W        W23452   8.168  40.071  10.743
56670W        W23453  28.336  12.044  14.455
56671W        W23454  28.077  14.463  13.996
56672W        W23455  10.137  22.278  11.663
56673W        W23456  29.390  39.315   3.694
56674W        W23457  40.352  32.687   4.646
56675W        W23458  33.540  35.139   3.148
56676W        W23459   8.846  30.981  13.430
56677W        W23460  41.941  26.889  14.014
56678W        W23461  15.494  12.617  13.070
56679W        W23462  11.916   1.875   1.210
56680W        W23463  12.136  38.902   1.355
56681W        W23464  37.121   6.412  13.046
56682W        W23465   9.863  27.869   2.669
56683W        W23466  16.291   4.300   3.686
56684W        W23467  28.407  17.774   0.369
56685W        W23468  12.148   6.232  11.301
56686W        W23469  29.003   7.866   3.612
56687W        W23470  20.912  17.484   4.151
56688W        W23471  12.779  27.404  11.618
56689W        W23472  29.459  16.808  12.924
56690W        W23473  37.951  26.977  10.685
56691W        W23474  38.693  23.112   5.146
56692W        W23475  34.564  36.598  10.963
56693W        W23476  21.074  31.365  12.512
56694W        W23477   8.174  18.310   1.786
56695W        W23478   4.507  16.239   5.148
56696W        W23479  14.947  10.626  14.708
56697W        W23480  27.041  22.141   0.413
56698W        W23481  40.539   9.798  14.324
56699W        W23482   4.954  36.462   3.822
56700W        W23483  15.527  25.997   1.779
56701W        W23484  27.512  24.263  12.081
56702W        W23485  41.921  27.492   3.096
56703W        W23486  38.735  21.297   2.671
56704W        W23487  35.701  13.919   1.467
56705W        W23488  26.922  40.916   3.180
56706W        W23489  29.081  29.277   3.648
56707W        W23490  15.779  35.847   5.357
56708W        W23491   9.321  20.625  11.611
56709W        W23492  27.803   6.041   2.264
56710W        W23493  38.339   6.097  12.175
56711W        W23494  19.304  19.644   1.751
56712W        W23495  34.165  41.112  14.340
56713W        W23496  22.204   5.937   0.822
56714W        W23497  27.281  35.594   1.217
56715W        W23498   1.383  39.979   3.638
56716W        W23499   4.160   6.236  11.262
56717W        W23500  28.231   2.998  13.450
56718W        W23501  30.502  42.518  13.022
56719W        W23502   2.218  25.017   3.294
56720W        W23503  31.626  30.424   3.380
56721W        W23504  10.346  38.859   0.512
56722W        W23505   3.556  20.516   0.541
56723W        W23506  13.878  30.609   1.206
56724W        W23507   0.383  14.486  12.432
56725W        W23508  31.950  20.239  13.913
56726W        W23509  33.856  12.366  14.936
56727W        W23510  44.854  44.002  10.473
56728W        W23511   5.762   7.432  13.386
56729W        W23512  23.422  31.590   0.897
56730W        W23513  23.515  31.883   4.298
56731W        W23514  18.754  29.114  13.408
56732W        W23515   1.457   2.802  10.506
56733W        W23516  38.737   8.947  11.076
56734W        W23517  21.452  41.754  10.786
56735W        W23518   3.885  28.138  12.314
56736W        W23519  37.818  29.502   1.883
56737W        W23520   0.601  21.989  11.654
56738W        W23521  43.718  34.359   2.086
56739W        W23522  27.715  44.771  11.035
56740W        W23523  21.271  38.580  14.034
56741W        W23524  12.179  25.997   3.670
56742W        W23525  38.558  42.427   0.325
56743W        W23526   5.695  28.637   0.582
56744W        W23527   2.004  28.580  14.871
56745W        W23528   0.858   4.856   0.012
56746W        W23529  28.186  30.556   0.808
56747W        W23530  27.505  29.637  14.135
56748W        W23531  41.778   6.122  12.366
56749W        W23532  27.084  42.466   4.863
56750W        W23533  31.415   7.684  13.379
56751W        W23534  19.764  22.145   1.029
56752W        W23535  36.820  21.032  10.707
56753W        W23536  14.617  10.670  14.308
56754W        W23537   5.938  20.501   1.682
56755W        W23538  10.537  38.907  10.877
56756W        W23539  14.773  31.135  13.760
56757W        W23540  32.685   2.978  11.988
56758W        W23541  19.465   9.974   3.196
56759W        W23542   4.159   4.524  13.341
56760W        W23543  41.263  10.128  12.891
56761W        W23544   5.512   6.313   3.639
56762W        W23545  35.547  43.247   1.773
56763W        W23546  29.611  27.435  13.043
56764W        W23547   2.356  29.786   3.956
56765W        W23548  21.798  29.658  11.599
56766W        W23549   0.897  18.956  13.461
56767W        W23550   3.509  10.173  13.327
56768W        W23551  12.344  39.864  14.896
56769W        W23552  38.002   7.100  13.074
56770W        W23553   7.781  22.474  10.565
56771W        W23554  13.118  11.778  10.348
56772W        W23555  17.879  19.436   3.167
56773W        W23556  19.949  11.678  14.909
56774W        W23557  22.295  20.615   2.786
56775W        W23558  16.313  33.989   0.224
56776W        W23559  39.884  23.650   1.786
56777W        W23560  27.231  37.528  12.147
56778W        W23561  32.325  23.713   2.277
56779W        W23562   3.048  19.299   1.909
56780W        W23563  17.061  28.399   4.513
56781W        W23564  13.813  13.083   1.339
56782W        W23565  34.260  19.518   1.077
56783W        W23566  25.420   5.883  14.348
56784W        W23567  14.125  36.700  13.274
56785W        W23568  24.375   1.507   4.251
56786W        W23569  26.217  31.567   1.325
56787W        W23570  30.682  15.147   2.564
56788W        W23571  18.649   9.210   2.732
56789W        W23572  19.246  32.467  12.606
56790W        W23573   4.376  20.248   0.959
56791W        W23574   2.749  13.801  14.403
56792W        W23575   6.160  42.616  10.017
56793W        W23576   7.125   3.878  12.387
56794W        W23577  16.997  21.779   1.935
56795W        W23578  12.092  16.634   4.917
56796W        W23579  27.141  13.194  13.428
56797W        W23580   6.392  14.637   0.946
56798W        W23581   5.958  25.489   0.914
56799W        W23582  22.286  14.664   1.227
56800W        W23583  12.201   3.430   0.468
56801W        W23584  26.388  14.138  14.755
56802W        W23585  21.687  21.318   4.534
56803W        W23586  29.422  10.315   1.865
56804W        W23587   4.367  38.010  13.612
56805W        W23588  10.607  25.515   1.776
56806W        W23589  26.151  40.546  12.112
56807W        W23590   8.236   0.199  10.984
56808W        W23591  43.381  25.634   0.758
56809W        W23592  25.601  19.261  14.436
56810W        W23593   2.278  42.794   4.426
56811W        W23594   1.951  25.110   3.723
56812W        W23595  27.888  16.793  14.667
56813W        W23596  33.998   0.092   2.663
56814W        W23597  18.046  44.011   2.589
56815W        W23598  26.753  39.414   3.700
56816W        W23599   8.808  18.998   2.402
56817W        W23600  41.527   1.304   3.981
56818W        W23601  20.832  23.159   3.773
56819W        W23602   1.249  35.606   4.949
56820W        W23603  20.352   8.024   3.436
56821W        W23604  20.223  44.399   2.684
56822W        W23605   8.393  38.955   1.724
56823W        W23606  11.607  42.916   2.337
56824W        W23607  42.825  44.756   2.822
56825W        W23608   7.253  23.666   3.633
56826W        W23609  11.788  22.629  14.621
56827W        W23610  15.480  28.956  11.011
56828W        W23611  21.763  30.898  12.932
56829W        W23612  37.375   5.634   1.632
56830W        W23613  16.489  37.408   2.845
56831W        W23614   2.851  11.760   3.637
56832W        W23615  28.547  19.158  13.293
56833W        W23616  37.920  24.762  12.137
56834W        W23617   3.329   3.471   2.383
56835W        W23618   3.468  26.349   3.370
56836W        W23619  20.142   0.921   4.853
56837W        W23620   2.402  42.789   4.977
56838W        W23621   1.981  17.580  11.422
56839W        W23622  22.986   6.364  12.501
56840W        W23623  39.039  43.357  13.516
56841W        W23624  39.060  35.741   3.799
56842W        W23625  20.298  29.650   2.716
56843W        W23626   5.924  44.413  13.055
56844W        W23627   3.748  11.881  13.830
56845W        W23628  14.214  40.320  14.757
56846W        W23629  26.669  19.646   2.887
56847W        W23630  35.840  43.425   0.808
56848W        W23631   7.968  31.867  12.662
56849W        W23632   4.469  24.978  12.846
56850W        W23633  10.012  11.148   2.728
56851W        W23634  23.723  14.344  14.620
56852W        W23635  29.685  37.912   3.337
56853W        W23636  42.482  15.151   3.718
56854W        W23637  12.624  36.305   4.170
56855W        W23638   7.332  32.070   2.247
56856W        W23639  28.265  40.546  13.483
56857W        W23640  29.541  36.079   3.346
56858W        W23641  18.021  32.677   3.735
56859W        W23642  20.213  18.706  13.252
56860W        W23643   5.888  13.190  14.920
56861W        W23644  36.838  20.793  14.737
56862W        W23645   0.235   5.367   1.655
56863W        W23646  13.399  35.288   4.957
56864W        W23647  19.894  33.368   3.536
56865W        W23648  36.149  39.703  13.373
56866W        W23649  15.591  31.934  10.790
56867W        W23650   6.500  40.891  14.676
56868W        W23651  11.353  38.582  10.734
56869W        W23652   3.855   0.533  12.032
56870W        W23653  33.083   1.739  12.594
56871W        W23654  35.966  20.988   3.743
56872W        W23655  32.280  24.144  11.825
56873W        W23656  22.564  34.906  14.292
56874W        W23657  35.863  12.900  13.592
56875W        W23658  34.869  16.779   2.160
56876W        W23659  33.140  12.621   1.881
56877W        W23660  17.801  10.712   4.931
56878W        W23661  27.425  15.231   3.833
56879W        W23662   9.392  29.614  13.526
56880W        W23663  42.568  29.318  14.371
56881W        W23664   1.463  14.116  11.158
56882W        W23665   5.119  34.414   4.596
56883W        W23666  38.909   4.478  12.705
56884W        W23667   0.448  39.933  13.992
56885W        W23668  14.134  30.614   3.320
56886W        W23669  12.866  38.433  13.938
56887W        W23670  25.573  27.917   5.001
56888W        W23671  30.342  23.206  12.573
56889W        W23672   0.173  34.294   2.337
56890W        W23673  37.918  38.802  14.283
56891W        W23674  30.617  20.691   2.816
56892W        W23675  37.974  15.186   1.470
56893W        W23676   3.738  26.491   3.788
56894W        W23677  17.028  34.033  11.519
56895W        W23678  39.880  44.999   2.843
56896W        W23679   3.829  11.894  12.035
56897W        W23680  12.476   2.715  14.906
56898W        W23681  10.556  32.421  10.863
56899W        W23682  31.023  37.949  13.126
56900W        W23683   2.462  13.546   3.672
56901W        W23684   8.373  22.777   4.131
56902W        W23685  29.810   1.252   2.373
56903W        W23686  19.540  27.490  11.670
56904W        W23687   7.796  22.913  14.761
56905W        W23688  43.863  33.046   0.348
56906W        W23689  18.318   5.444   4.569
56907W        W23690  17.087  17.206   1.682
56908W        W23691   9.428   9.075   1.426
56909W        W23692  33.035  28.924  14.373
56910W        W23693  34.962   4.192   2.107
56911W        W23694  13.215  24.673  14.397
56912W        W23695  43.488   1.557  11.098
56913W        W23696  17.055  11.724  13.995
56914W        W23697  36.562  20.161   5.663
56915W        W23698  38.813   1.341  14.601
56916W        W23699   6.457  13.647  12.042
56917W        W23700  26.738  37.580   3.339
56918W        W23701  39.472  34.989  11.995
56919W        W23702  16.699  24.753  12.015
56920W        W23703  23.792   0.776   1.398
56921W        W23704   6.983  29.495  12.136
56922W        W23705  31.038  33.307  13.516
56923W        W23706  14.386   6.214   3.552
56924W        W23707  13.626  27.607   2.239
56925W        W23708  33.103  37.965  13.023
56926W        W23709  41.351   3.454  12.107
56927W        W23710  17.366  24.721   1.832
56928W        W23711   2.483  20.666  10.890
56929W        W23712  35.806  31.464  11.620
56930W        W23713   0.357   2.902   1.277
56931W        W23714  38.264   8.955  10.861
56932W        W23715   9.798  22.532   3.764
56933W        W23716   3.487   1.005  12.872
56934W        W23717  28.924   5.829   3.306
56935W        W23718  33.226  42.220   3.312
56936W        W23719  41.807  23.327  11.682
56937W        W23720  15.015   2.199  13.932
56938W        W23721  21.565  32.829  14.000
56939W        W23722  11.042  39.581   0.453
56940W        W23723  41.763  36.485   2.271
56941W        W23724  16.128  27.012   1.532
56942W        W23725  36.832  16.547   2.174
56943W        W23726   1.731  38.873   4.172
56944W        W23727  44.861  11.294  13.122
56945W        W23728  34.450   8.945   2.387
56946W        W23729   1.912  17.436   1.241
56947W        W23730   2.745   1.200  14.028
56948W        W23731   2.845  35.349   1.520
56949W        W23732   9.151  22.918  10.907
56950W        W23733  27.465  11.179   4.778
56951W        W23734  14.927  32.087   4.125
56952W        W23735  42.989  26.255   1.274
56953W        W23736  22.590  44.326   2.611
56954W        W23737  24.599  35.453   2.818
56955W        W23738  18.596   3.210   0.182
56956W        W23739  18.293  29.355  14.883
56957W        W23740  19.818  13.269   4.097
56958W        W23741   0.249  17.211   3.587
56959W        W23742  17.816  35.074   3.552
56960W        W23743   8.796   8.586  11.639
56961W        W23744   4.344  22.119  12.337
56962W        W23745  18.318  18.061  12.334
56963W        W23746  32.073   7.487  10.789
56964W        W23747   8.444  23.131  12.064
56965W        W23748  37.683  40.258  14.111
56966W        W23749  33.564  15.833  12.011
56967W        W23750   9.537  14.714  14.893
56968W        W23751  28.063  21.231  14.790
56969W        W23752   6.879  22.731   3.458
56970W        W23753  43.331  19.564   1.757
56971W        W23754   6.789   7.457   0.182
56972W        W23755  30.423  32.202  13.893
56973W        W23756  22.217  12.715  14.852
56974W        W23757  15.104  33.082  11.754
56975W        W23758  23.788   5.014  11.208
56976W        W23759  38.514  39.990  13.929
56977W        W23760  17.087  42.288  14.469
56978W        W23761   2.882  34.518  12.476
56979W        W23762  30.618  14.639   3.219
56980W        W23763  20.552  15.983  14.928
56981W        W23764  41.807  32.091  10.408
56982W        W23765  42.642  36.581  14.990
56983W        W23766  33.940  28.684  12.901
56984W        W23767  18.892   4.071  13.298
56985W        W23768  14.709   9.241  13.970
56986W        W23769   7.284  15.801   4.257
56987W        W23770  10.353  11.854  12.325
56988W        W23771  22.040   4.656  12.378
56989W        W23772  20.689  35.102   4.212
56990W        W23773  26.183  10.968   3.200
56991W        W23774  40.047  13.913   0.486
56992W        W23775  10.820  15.248  11.023
56993W        W23776  25.163  32.725   2.697
56994W        W23777  15.576   7.334  11.231
56995W        W23778  14.742  33.171  14.331
56996W        W23779  36.652  16.844   0.441
56997W        W23780  13.337  43.421   3.569
56998W        W23781  22.486  23.061   1.024
56999W        W23782  25.974   9.175  10.671
57000W        W23783  34.596   8.392  11.973
57001W        W23784  42.305  44.000  14.901
57002W        W23785   7.637   9.629  13.326
57003W        W23786  34.886  18.094  12.661
57004W        W23787  15.743  41.224   2.659
57005W        W23788  34.941  37.535  11.591
57006W        W23789   7.258  25.627  13.124
57007W        W23790  12.873  22.406   1.167
57008W        W23791  24.844  20.863  10.997
57009W        W23792  21.327  16.524   4.278
57010W        W23793   1.016  19.162   2.691
57011W        W23794  21.215  42.250   2.674
57012W        W23795   1.142  15.579   1.687
57013W        W23796  39.051  17.841  13.843
57014W        W23797  17.594  29.524   0.938
57015W        W23798  36.471  25.922  14.357
57016W        W23799  41.053  22.685   2.731
57017W        W23800  21.639   2.697  12.968
57018W        W23801   7.934  29.852   2.325
57019W        W23802   2.445  31.208  11.622
57020W        W23803   6.593  16.260   2.331
57021W        W23804  36.748  28.018   1.775
57022W        W23805  24.657  20.987   0.997
57023W        W23806   7.500  40.884   2.616
57024W        W23807   4.427  25.652  12.476
57025W        W23808  22.677  38.355   4.186
57026W        W23809  13.890  27.188   2.006
57027W        W23810  29.062  42.047  14.221
57028W        W23811   8.884  44.980  14.282
57029W        W23812  42.098  30.498  10.175
57030W        W23813  20.680  10.463  11.079
57031W        W23814   5.775  39.066  14.025
57032W        W23815  10.360  44.981  11.626
57033W        W23816  20.349   2.309  11.582
57034W        W23817   6.653   7.655  14.729
57035W        W23818  25.486  11.830  10.757
57036W        W23819  40.616  29.754  11.653
57037W        W23820  24.653  11.398   4.548
57038W        W23821  32.057   8.669   2.727
57039W        W23822   4.150   2.260  14.535
57040W        W23823   2.962  10.241   3.252
57041W        W23824  32.202  18.332  11.642
57042W        W23825  36.960  26.129   0.933
57043W        W23826  25.790  13.695   1.854
57044W        W23827  16.007  11.078   2.672
57045W        W23828   3.162  20.115   2.966
57046W        W23829  14.902  44.993  11.432
57047W        W23830  21.336  23.017  13.450
57048W        W23831  11.805  43.258  14.797
57049W        W23832  37.561  31.515  12.130
57050W        W23833   6.703  33.469  13.410
57051W        W23834  19.324  22.281   4.773
57052W        W23835  31.115  16.686  11.001
57053W        W23836  21.986  21.960  12.983
57054W        W23837  36.463   3.464  10.319
57055W        W23838   7.439  16.882   1.345
57056W        W23839  35.864  26.891  12.881
57057W        W23840  22.764  31.130  13.660
57058W        W23841  15.100  18.717  11.930
57059W        W23842  18.783  41.421   0.237
57060W        W23843  21.767  21.097  11.001
57061W        W23844   5.860  17.079  14.959
57062W        W23845  17.213  33.068   3.268
57063W        W23846   8.691  24.436  11.499
57064W        W23847  32.129  24.231  12.886
57065W        W23848  21.072  27.729   3.639
57066W        W23849  44.532  21.028   3.202
57067W        W23850  34.547  12.019  11.941
57068W        W23851  35.440  33.973  14.851
57069W        W23852  27.860   5.114   4.160
57070W        W23853  44.376   4.950  14.815
57071W        W23854   6.232   0.890  11.525
57072W        W23855  15.231   2.794   3.369
57073W        W23856  32.635  25.751  13.449
57074W        W23857   1.274   6.237  13.014
57075W        W23858  14.134  30.049   1.898
57076W        W23859  19.533  23.608  14.351
57077W        W23860  14.701  16.591  11.718
57078W        W23861  17.840  37.445   0.392
57079W        W23862  31.163  22.015   1.794
57080W        W23863  23.176   2.229   4.015
57081W        W23864  21.576  44.059  12.318
57082W        W23865  41.577  13.764   0.321
57083W        W23866  17.552  24.701   0.556
57084W        W23867  22.873   3.937   3.703
57085W        W23868   6.387  20.114   2.471
57086W        W23869  38.963  37.575  11.268
57087W        W23870  34.102  26.433  14.780
57088W        W23871   5.418  36.924   0.691
57089W        W23872  13.217   0.050   1.414
57090W        W23873  10.419  11.070   1.509
57091W        W23874   8.331  16.844  13.454
57092W        W23875  38.392  13.042  12.955
57093W        W23876  29.762   4.635  12.952
57094W        W23877  20.051  22.115  13.956
57095W        W23878  10.142  26.284  13.514
57096W        W23879  10.765  38.546   0.611
57097W        W23880  42.377  36.398  13.067
57098W        W23881  15.565  19.049  14.407
57099W        W23882   4.451  17.621  12.938
57100W        W23883  21.147  43.322   1.275
57101W        W23884  31.106  25.153   1.821
57102W        W23885  36.451   8.382  13.893
57103W        W23886  30.704  35.922  14.896
57104W        W23887  37.520   3.842  12.798
57105W        W23888  29.362   7.908   0.882
57106W        W23889  32.558  19.686   9.743
57107W        W23890  40.192   2.739  12.781
57108W        W23891  11.615   2.289   1.153
57109W        W23892  27.709   1.065  12.462
57110W        W23893   3.235  42.595  11.202
57111W        W23894  39.608  25.982  13.813
57112W        W23895  26.778  18.752  12.019
57113W        W23896  33.134  27.554  14.814
57114W        W23897  11.540   1.851   0.258
57115W        W23898  20.882  28.092  13.543
57116W        W23899  15.103  35.451  14.955
57117W        W23900  27.506  18.037   4.676
57118W        W23901   5.180  32.346  12.930
57119W        W23902  12.831  33.865  11.184
57120W        W23903  18.178  43.799   0.787
57121W        W23904  28.127  14.480   3.820
57122W        W23905   8.778  41.002   3.884
57123W        W23906   6.309  16.650  14.233
57124W        W23907   1.022  25.775   0.033
57125W        W23908   3.987  16.712  11.218
57126W        W23909  22.414  14.820   3.211
57127W        W23910  34.791  12.377   1.002
57128W        W23911  13.353  42.938   0.371
57129W        W23912  23.433   8.157   0.182
57130W        W23913  39.109  39.742   3.252
57131W        W23914   6.667  28.033   0.149
57132W        W23915  25.634  20.198  12.947
57133W        W23916  25.599  22.558  11.086
57134W        W23917  30.982   2.987   3.159
57135W        W23918  34.909   1.944  12.928
57136W        W23919   8.283  11.413  13.444
57137W        W23920  20.877  38.143   1.665
57138W        W23921  41.303  33.411   4.999
57139W        W23922  35.845  34.567  11.710
57140W        W23923  12.257  32.337   2.776
57141W        W23924  44.211  19.311  14.534
57142W        W23925  29.931  14.212  13.876
57143W        W23926  32.050  15.659  13.324
57144W        W23927  34.921  30.496  10.913
57145W        W23928  19.222  19.996   4.922
57146W        W23929  41.528  40.555  12.975
57147W        W23930   3.993  43.127   0.276
57148W        W23931  11.181  38.960   1.821
57149W        W23932  14.889  20.872  13.392
57150W        W23933  42.944  40.038   0.814
57151W        W23934  30.758  27.058   2.255
57152W        W23935   5.977   4.221  12.791
57153W        W23936  26.676   4.994  14.121
57154W        W23937  16.010   3.913  14.030
57155W        W23938  44.134  11.152   0.845
57156W        W23939  16.043  20.178  11.674
57157W        W23940  13.231   5.205   4.849
57158W        W23941  30.640  34.502   0.978
57159W        W23942  37.550  21.744  11.591
57160W        W23943  37.114   8.677   1.834
57161W        W23944  10.441  40.206  11.182
57162W        W23945  44.647  18.354  10.279
57163W        W23946  35.886  33.276   0.241
57164W        W23947  13.208  30.599  12.494
57165W        W23948  35.555  15.598  10.393
57166W        W23949  13.759   3.365   0.901
57167W        W23950  37.578  31.172  14.492
57168W        W23951  17.852  20.986   0.312
57169W        W23952  38.545  23.254  12.133
57170W        W23953  14.741  22.673  14.705
57171W        W23954  25.456  36.773  11.173
57172W        W23955  24.294   1.950   4.491
57173W        W23956  28.587  10.205   4.517
57174W        W23957  12.024  36.650   1.288
57175W        W23958  14.697  17.562  14.845
57176W        W23959  32.447  42.271   2.965
57177W        W23960  10.158  20.652   4.649
57178W        W23961  34.347  30.469   1.279
57179W        W23962  27.998  14.142   2.399
57180W        W23963  41.938  11.245   3.933
57181W        W23964  14.751   3.318   2.915
57182W        W23965  36.785   6.277  14.661
57183W        W23966  11.252  39.436  10.687
57184W        W23967  42.920  43.369  12.186
57185W        W23968  21.057  13.273  12.965
57186W        W23969  23.899  22.363   5.102
57187W        W23970   7.198  18.974  12.535
57188W        W23971   1.832  24.566   4.488
57189W        W23972  18.543  19.068   3.158
57190W        W23973  30.146   6.947  11.759
57191W        W23974  19.332  30.345  14.772
57192W        W23975  27.508  12.528   4.575
57193W        W23976  38.942  39.125  12.442
57194W        W23977  18.107  25.666  12.609
57195W        W23978  14.021  32.122  11.151
57196W        W23979  21.541   2.500   1.392
57197W        W23980  35.150   0.696  13.443
57198W        W23981  14.734  21.567   4.726
57199W        W23982  35.931  28.493  11.165
57200W        W23983   2.935  20.393  12.516
57201W        W23984  41.786  20.287   3.571
57202W        W23985  32.617   3.405   0.250
57203W        W23986  24.037  27.467  13.075
57204W        W23987  44.495  26.939   0.363
57205W        W23988  14.724  12.406   3.265
57206W        W23989   3.334  12.225  12.397
57207W        W23990  22.712  10.115   2.365
57208W        W23991  29.118  20.986   0.819
57209W        W23992   0.410  43.531  13.351
57210W        W23993   4.895  44.980  11.025
57211W        W23994  16.129   0.336   0.829
57212W        W23995  28.170   4.655   4.812
57213W        W23996   0.505  11.896  10.654
57214W        W23997   5.262  23.558  12.593
57215W        W23998   5.347  32.091   3.378
57216W        W23999   0.577  13.093   3.307
57217W        W24000  25.124  28.656  10.363
57218W        W24001  22.518  10.674   0.724
57219W        W24002  15.902  23.452   3.305
57220W        W24003  30.824  13.171   2.253
57221W        W24004  30.686  13.447  11.223
57222W        W24005  43.435  28.147  14.596
57223W        W24006  30.058  10.111  11.114
57224W        W24007  31.420  36.576  13.206
57225W        W24008  19.213  26.722  13.132
57226W        W24009  31.209   8.397  13.469
57227W        W24010   9.689  23.768   2.283
57228W        W24011  10.745  10.761  12.490
57229W        W24012  33.960  27.450   1.970
57230W        W24013   0.472   4.142  12.525
57231W        W24014  26.286  42.069  11.218
57232W        W24015   2.658  17.544   0.702
57233W        W24016  12.690  33.862  13.357
57234W        W24017  16.620  32.536   1.153
57235W        W24018  35.675  37.298  12.100
57236W        W24019   0.362  11.608  13.740
57237W        W24020   1.834  28.931  12.964
57238W        W24021  29.594   8.379   0.896
57239W        W24022  37.383   1.282   3.736
57240W        W24023  30.527  11.841  13.812
57241W        W24024   0.380  34.548  10.677
57242W        W24025  42.253  16.516   0.354
57243W        W24026   5.669  32.544  12.898
57244W        W24027  32.045  17.619  14.564
57245W        W24028  31.592  13.444  12.956
57246W        W24029   1.836  42.385   1.453
57247W        W24030   1.149  12.557  13.269
57248W        W24031  29.021  12.564  12.071
57249W        W24032  43.450  14.832   0.904
57250W        W24033   1.358  29.808   3.267
57251W        W24034  32.340  19.285  13.471
57252W        W24035  40.607  34.114   1.573
57253W        W24036  28.105  40.012  12.541
57254W        W24037  28.192   3.403  11.225
57255W        W24038  37.959  13.932   1.824
57256W        W24039   5.142  26.991   3.389
57257W        W24040  24.068  25.192  13.843
57258W        W24041   6.124  43.302  14.326
57259W        W24042  29.967  29.962  12.196
57260W        W24043  13.102   3.494  13.490
57261W        W24044  30.347  11.084  12.968
57262W        W24045   9.894  25.632   4.951
57263W        W24046  22.723  11.630  11.239
57264W        W24047   0.436  34.046  14.501
57265W        W24048  42.879  37.566  11.624
57266W        W24049   7.858  37.293   2.618
57267W        W24050   4.873   8.896   3.175
57268W        W24051  11.809  23.625  13.055
57269W        W24052  33.277  23.901  11.771
57270W        W24053  30.062  26.529   3.054
57271W        W24054  20.247  40.568   4.513
57272W        W24055  21.226  31.005   2.223
57273W        W24056  44.926  34.120   0.728
57274W        W24057  26.939  23.557   0.218
57275W        W24058   9.620  33.145   0.788
57276W        W24059  20.031  17.124  11.478
57277W        W24060  31.052  34.650  13.037
57278W        W24061   5.272  35.061   1.234
57279W        W24062   6.868  38.232   2.404
57280W        W24063  18.449  12.077  12.158
57281W        W24064  37.936  36.014   0.038
57282W        W24065   2.608  28.849   1.629
57283W        W24066   4.305   8.614   0.739
57284W        W24067  36.003  31.445  11.130
57285W        W24068  16.629  26.625  13.800
57286W        W24069   3.883  31.121  12.920
57287W        W24070  40.779  26.115   0.846
57288W        W24071  38.749  11.529  10.705
57289W        W24072  13.234  27.573   0.940
57290W        W24073  22.164  37.541   3.587
57291W        W24074  29.719   4.953  12.036
57292W        W24075  23.531  30.530   1.191
57293W        W24076  21.543  36.120   4.184
57294W        W24077   0.673  22.651  13.972
57295W        W24078  26.557  28.241   1.820
57296W        W24079  30.384   5.813  13.626
57297W        W24080  28.398  32.400  14.840
57298W        W24081  32.222   6.996   4.689
57299W        W24082  22.004  31.075   0.262
57300W        W24083  36.849  34.492   0.875
57301W        W24084  29.888   4.237   1.676
57302W        W24085  12.837  38.842  14.826
57303W        W24086  43.414  44.871  10.465
57304W        W24087   4.483  43.849  12.570
57305W        W24088  37.497  31.467  10.425
57306W        W24089  24.784  31.004  14.910
57307W        W24090  34.435   6.882  12.020
57308W        W24091  31.392   7.233  12.960
57309W        W24092  27.707  22.291   1.277
57310W        W24093  28.250  12.313  12.564
57311W        W24094  21.402  44.278   0.990
57312W        W24095  33.516  35.858   5.121
57313W        W24096  37.110   5.756  13.866
57314W        W24097  19.765  20.519  13.568
57315W        W24098  27.612  15.832  12.791
57316W        W24099  17.836  17.573   1.858
57317W        W24100  34.598  22.628   0.829
57318W        W24101   0.208   0.681   2.959
57319W        W24102   8.632  44.821   2.404
57320W        W24103  39.286  14.611  14.248
57321W        W24104   7.715  41.435  12.994
57322W        W24105  21.548  40.855  10.696
57323W        W24106  27.263  19.146   3.887
57324W        W24107  33.964  27.122  11.162
57325W        W24108   5.954  40.040  14.479
57326W        W24109  38.005  15.502  14.700
57327W        W24110  35.270  44.219  10.673
57328W        W24111  30.186  43.316  14.854
57329W        W24112  43.098   5.686  14.968
57330W        W24113  24.787   3.022  14.676
57331W        W24114  14.093  16.145   3.371
57332W        W24115  34.557  27.188  14.323
57333W        W24116  27.094  20.685  11.072
57334W        W24117  28.891  20.075   1.956
57335W        W24118  32.194  10.022  12.661
57336W        W24119  39.992  22.950   4.303
57337W        W24120  14.412   5.386  14.377
57338W        W24121  38.501  31.186  14.737
57339W        W24122  38.064  32.174  13.346
57340W        W24123  20.744  22.664   1.717
57341W        W24124  14.815  30.411   0.268
57342W        W24125  36.498   1.724   1.438
57343W        W24126  21.247  13.311  11.088
57344W        W24127  24.807   1.970  12.926
57345W        W24128  25.983   6.376  11.504
57346W        W24129  34.987  19.304   4.486
57347W        W24130   3.677  15.142  14.445
57348W        W24131  24.532   3.874   2.596
57349W        W24132  12.275  26.046   0.725
57350W        W24133  36.061  41.519  10.490
57351W        W24134  40.510  14.310  13.388
57352W        W24135  37.919  41.172   4.012
57353W        W24136   4.810  12.451  11.628
57354W        W24137  14.938  28.115   1.409
57355W        W24138  14.944  43.052  10.545
57356W        W24139  41.188  19.943  13.061
57357W        W24140  24.664  43.419  14.861
57358W        W24141  44.483  37.564   3.600
57359W        W24142  44.043  44.786  11.486
57360W        W24143  42.990  41.544   1.722
57361W        W24144  28.351   8.157   0.521
57362W        W24145   0.357  13.124   3.993
57363W        W24146  16.431  13.347  12.024
57364W        W24147   0.988  42.941   2.176
57365W        W24148   9.363  29.945  11.848
57366W        W24149  28.053   9.491  12.099
57367W        W24150   3.122  17.221   3.860
57368W        W24151  17.769  29.028   4.547
57369W        W24152  42.481  15.524   1.944
57370W        W24153  32.331  30.220   2.892
57371W        W24154   4.934  39.411   0.841
57372W        W24155   9.489  30.982  14.054
57373W        W24156  12.342   7.369  11.455
57374W        W24157  38.810  11.233   4.137
57375W        W24158   1.863  31.623  13.596
57376W        W24159  30.657  29.580   3.389
57377W        W24160  30.007  31.094   0.395
57378W        W24161  44.300  39.377   0.851
57379W        W24162  35.327   8.656   2.119
57380W        W24163  14.325  39.787  14.777
57381W        W24164   5.326  41.608  10.742
57382W        W24165  37.296  43.509  14.059
57383W        W24166   0.992  33.781   2.284
57384W        W24167  37.013  44.986  13.604
57385W        W24168   3.809   3.538   4.271
57386W        W24169  25.105  20.007  13.055
57387W        W24170  40.761  30.280  11.195
57388W        W24171   1.670  25.511  14.417
57389W        W24172  28.030  10.483   0.887
57390W        W24173  28.563  18.773   0.641
57391W        W24174  19.734  37.377   1.914
57392W        W24175   9.359  16.132   0.354
57393W        W24176   3.437  13.126  14.344
57394W        W24177   4.132  24.040  12.034
57395W        W24178  32.147  41.587   0.534
57396W        W24179  18.869   5.900  10.636
57397W        W24180  26.497  13.649  13.985
57398W        W24181  44.850  36.445   1.371
57399W        W24182  11.679  10.797  10.973
57400W        W24183  13.678   3.509   0.414
57401W        W24184  44.794  37.801  14.596
57402W        W24185  22.020  28.127   4.909
57403W        W24186  35.854  15.712  12.580
57404W        W24187   9.718   5.202  14.003
57405W        W24188  33.629   4.198  14.910
57406W        W24189  30.869   3.930   0.644
57407W        W24190  41.544  33.242  11.573
57408W        W24191  31.473  11.839  12.234
57409W        W24192  26.971  38.384   4.595
57410W        W24193  43.897  30.530  11.428
57411W        W24194  44.752  27.555   0.092
57412W        W24195  34.119  31.902  12.118
57413W        W24196   7.561  23.416  14.814
57414W        W24197  26.486  20.609   1.378
57415W        W24198  27.174  29.503  11.746
57416W        W24199  38.602  29.125   0.741
57417W        W24200  25.933  24.189   2.284
57418W        W24201  18.910  37.870   3.790
57419W        W24202  38.588  42.756  13.016
57420W        W24203   7.054  26.751   4.947
57421W        W24204  19.585  36.477  14.277
57422W        W24205  31.369  42.591   0.824
57423W        W24206  42.962   6.289  12.530
57424W        W24207   9.253  40.534   4.500
57425W        W24208  19.795  21.122   3.661
57426W        W24209  18.576  28.413   4.843
57427W        W24210  31.726  22.104  14.827
57428W        W24211  14.450  37.862   0.588
57429W        W24212  22.794   7.486   1.885
57430W        W24213  24.826  25.659   0.832
57431W        W24214   2.720   8.106  11.189
57432W        W24215  39.931  24.196  12.375
57433W        W24216  33.194  14.018   3.615
57434W        W24217  26.963  43.453   1.327
57435W        W24218  32.598  35.951  13.470
57436W        W24219  19.063  19.013  14.971
57437W        W24220  17.452  14.261   3.658
57438W        W24221  11.392   9.450   3.776
57439W        W24222  13.348   8.431  10.287
57440W        W24223   8.631  15.237   2.223
57441W        W24224  34.379  24.051  13.854
57442W        W24225  16.170  30.690   3.835
57443W        W24226   0.253  33.118   1.351
57444W        W24227  31.507  21.632  14.781
57445W        W24228   3.976   3.939  10.597
57446W        W24229  13.598  31.644  13.871
57447W        W24230   6.297  44.546   3.727
57448W        W24231   1.302  10.188   3.658
57449W        W24232  41.007  28.568   0.503
57450W        W24233   5.153  23.026   0.567
57451W        W24234   7.825  10.895   2.880
57452W        W24235  27.151  28.820   0.225
57453W        W24236  22.460  25.982   0.766
57454W        W24237  12.553  24.633   0.834
57455W        W24238  36.921  40.796  11.147
57456W        W24239  37.296   8.518   4.077
57457W        W24240  42.316  34.384  11.887
57458W        W24241  38.534  14.880  14.918
57459W        W24242  26.068  10.325  13.825
57460W        W24243  26.236  33.362   2.737
57461W        W24244  36.178  41.691   2.287
57462W        W24245  11.984  44.326   3.748
57463W        W24246   7.706   0.811   1.917
57464W        W24247  35.576  37.879   0.474
57465W        W24248   0.400  39.097   2.433
57466W        W24249   4.294  14.412   2.656
57467W        W24250  38.017  24.015  12.849
57468W        W24251  19.559  33.442  11.196
57469W        W24252   4.828  32.939  14.560
57470W        W24253  41.881  36.405   4.999
57471W        W24254   6.388   4.910   3.198
57472W        W24255  22.714  34.233  12.136
57473W        W24256  30.806  25.412   3.186
57474W        W24257  22.610  20.648  10.317
57475W        W24258  27.590  15.599   4.149
57476W        W24259  19.080  18.296   5.153
57477W        W24260  22.942  30.290   1.211
57478W        W24261   9.895  12.376  14.878
57479W        W24262  23.137  25.756   5.263
57480W        W24263  21.654   0.653   4.035
57481W        W24264   1.398  33.435  11.386
57482W        W24265  13.164  19.430  12.415
57483W        W24266  35.045   2.996   3.751
57484W        W24267  14.766  30.134   1.410
57485W        W24268  44.110  15.901  14.401
57486W        W24269  12.740  27.483   3.255
57487W        W24270  38.504  32.589  11.114
57488W        W24271   5.625  43.162  14.423
57489W        W24272   8.284  37.553  14.471
57490W        W24273  16.787  17.980   1.639
57491W        W24274  44.256   4.256  13.860
57492W        W24275  34.006  33.146   3.730
57493W        W24276  42.747   0.993   0.549
57494W        W24277   1.131  27.201  13.247
57495W        W24278  26.593  30.593   1.910
57496W        W24279   2.332  13.182   5.264
57497W        W24280  18.667  19.167  11.197
57498W        W24281   1.549  42.433   4.755
57499W        W24282  34.087  11.533   4.740
57500W        W24283  21.973  30.578   1.411
57501W        W24284  28.520  44.716   3.836
57502W        W24285  43.141   0.014  13.218
57503W        W24286  11.329  37.618   0.410
57504W        W24287  42.215  39.927  10.666
57505W        W24288  24.433   3.188   1.520
57506W        W24289  42.692   6.995   4.633
57507W        W24290   8.516  20.804  12.037
57508W        W24291  20.729  35.028  11.164
57509W        W24292  39.200  42.079  10.717
57510W        W24293   1.293  33.322  10.849
57511W        W24294  18.518   9.776   2.755
57512W        W24295  10.688  44.413   2.872
57513W        W24296  40.538  41.382  11.639
57514W        W24297  42.518  29.177   1.293
57515W        W24298   7.954   3.767  14.988
57516W        W24299  18.797   8.239  12.867
57517W        W24300   2.936  26.454  11.118
57518W        W24301  12.082  18.650   1.508
57519W        W24302  24.574  30.539  11.907
57520W        W24303  35.567  27.063   0.755
57521W        W24304   8.177  25.590   0.539
57522W        W24305  19.199  17.040   2.699
57523W        W24306  42.561   9.756   1.327
57524W        W24307  33.034   9.658  14.319
57525W        W24308  41.147  39.034   1.954
57526W        W24309   7.273   9.411   3.104
57527W        W24310  32.962  23.034  12.524
57528W        W24311  15.354  15.661   4.621
57529W        W24312  29.229  15.284  14.928
57530W        W24313  38.782  43.341   2.469
57531W        W24314   0.919  27.264   4.698
57532W        W24315  25.504  14.095   0.878
57533W        W24316  17.003  13.706   2.245
57534W        W24317  38.959  31.681  12.961
57535W        W24318  41.271  33.646  11.382
57536W        W24319  17.646  11.685  10.792
57537W        W24320  25.708   8.437   3.498
57538W        W24321  25.185  41.502  13.419
57539W        W24322  27.742  30.558  14.459
57540W        W24323  21.328  42.371  12.948
57541W        W24324  37.493  42.903   4.269
57542W        W24325  13.683  43.782  11.448
57543W        W24326  20.439   4.328  14.796
57544W        W24327  20.984  27.127  10.994
57545W        W24328  20.323  13.267   4.050
57546W        W24329   0.947  16.849  11.455
57547W        W24330  35.909  26.759   2.797
57548W        W24331  20.122  28.561  14.449
57549W        W24332  23.264  16.864   2.733
57550W        W24333  23.329  31.089  12.087
57551W        W24334  16.236   6.242   4.914
57552W        W24335   3.802  10.881   2.869
57553W        W24336   9.171   5.029  12.876
57554W        W24337  24.010  19.469   1.365
57555W        W24338  19.197   7.631  10.556
57556W        W24339  27.109  34.782   3.741
57557W        W24340   6.372  14.549   1.453
57558W        W24341  18.134  30.110  11.346
57559W        W24342  44.360  41.489  13.001
57560W        W24343  33.244  30.382   5.155
57561W        W24344   6.832  13.344   0.368
57562W        W24345  39.442   5.373  12.918
57563W        W24346  30.396  10.600  11.514
57564W        W24347  20.291  27.104  14.369
57565W        W24348  36.842  22.927   4.331
57566W        W24349   0.478  14.271   5.127
57567W        W24350  21.269   2.237  11.121
57568W        W24351   3.847  18.237   1.858
57569W        W24352  42.460  38.300   4.302
57570W        W24353  18.847  41.451   1.260
57571W        W24354  12.898  39.780   2.085
57572W        W24355  44.572  15.702  14.423
57573W        W24356  19.110  19.795  11.690
57574W        W24357  11.287  10.572   4.725
57575W        W24358  31.866  31.146   0.967
57576W        W24359   9.197   4.799  12.405
57577W        W24360  43.830  30.057   2.744
57578W        W24361  31.189   2.739   0.698
57579W        W24362   9.594  43.060   2.154
57580W        W24363  20.637  25.515  14.786
57581W        W24364   3.799  11.278  10.686
57582W        W24365  40.882  12.253  10.713
57583W        W24366  17.136  21.565  10.661
57584W        W24367  28.464  26.947   3.622
57585W        W24368  29.824  16.298   1.636
57586W        W24369   2.894  25.048  12.195
57587W        W24370  22.758  13.110   0.431
57588W        W24371   5.809  34.997   2.396
57589W        W24372  15.134   8.362   0.350
57590W        W24373  33.393  14.237  14.908
57591W        W24374  42.237   1.487   2.751
57592W        W24375   1.308  30.291   3.108
57593W        W24376  20.639  30.427   0.386
57594W        W24377  26.430  25.068  12.835
57595W        W24378  13.206  43.751  11.646
57596W        W24379  31.256  43.877  14.416
57597W        W24380   5.857   4.568  11.227
57598W        W24381  16.174   5.673  10.752
57599W        W24382  36.911  39.438  12.364
57600W        W24383  41.535  25.394  14.730
57601W        W24384   6.856  17.280   2.324
57602W        W24385  17.531  32.147   0.470
57603W        W24386  36.454   3.193  14.281
57604W        W24387  14.536  38.643   3.255
57605W        W24388  38.437  34.554   2.580
57606W        W24389  43.209   7.665  14.969
57607W        W24390   6.723  10.139  12.717
57608W        W24391  41.897  24.692  10.719
57609W        W24392   6.936  22.593  14.707
57610W        W24393  27.063  21.171   3.960
57611W        W24394   8.267  19.004   2.339
57612W        W24395  44.981  15.117  14.077
57613W        W24396   7.115  35.636  14.394
57614W        W24397   1.450  14.693   3.735
57615W        W24398   2.782  43.428  13.531
57616W        W24399  22.798   0.738   2.603
57617W        W24400  16.724  44.267   9.795
57618W        W24401  40.814  36.111  14.853
57619W        W24402   6.186  42.406   0.227
57620W        W24403  37.421  16.046  12.428
57621W        W24404  26.002  32.677   0.849
57622W        W24405  40.752  25.762   0.365
57623W        W24406  42.796   2.686  10.667
57624W        W24407  36.680  21.788  10.173
57625W        W24408  30.924  37.585  11.767
57626W        W24409  19.548  39.073  14.976
57627W        W24410  14.102  35.138  12.502
57628W        W24411  23.479  29.323  11.158
57629W        W24412  15.894   1.486   4.395
57630W        W24413  33.839   8.175   0.846
57631W        W24414  32.927   3.129  12.400
57632W        W24415  23.218  10.956  14.896
57633W        W24416  43.887  43.525  10.516
57634W        W24417  25.724  31.029  13.951
57635W        W24418  17.653   7.870  10.579
57636W        W24419  27.732  21.121  11.618
57637W        W24420  33.599   9.914   2.914
57638W        W24421  20.230  25.167   2.291
57639W        W24422  23.223  40.494  10.199
57640W        W24423  33.799  12.206  11.466
57641W        W24424   7.869   3.585   1.655
57642W        W24425  21.988  25.111   5.410
57643W        W24426   9.338  43.534  13.985
57644W        W24427  24.273   3.859  14.931
57645W        W24428  23.935   7.317   0.380
57646W        W24429   5.699   9.985  11.900
57647W        W24430  13.110  22.345  12.023
57648W        W24431   3.472  29.556  14.166
57649W        W24432  20.295  20.949  12.549
57650W        W24433  34.046  34.348   0.847
57651W        W24434  43.975  19.259  11.615
57652W        W24435   0.741   1.785  13.602
57653W        W24436  20.191  12.891  12.555
57654W        W24437  42.505  40.953  12.562
57655W        W24438  27.118   1.457  13.432
57656W        W24439  38.109  34.400  14.316
57657W        W24440   9.800  16.073   3.731
57658W        W24441   6.118  40.568   1.512
57659W        W24442  42.870  28.869  11.953
57660W        W24443  18.554   4.422   0.602
57661W        W24444   1.226  20.082   1.181
57662W        W24445   8.370   9.910  10.958
57663W        W24446  39.642   3.386  11.569
57664W        W24447  29.760  36.023  13.070
57665W        W24448  32.211  15.674  12.853
57666W        W24449  37.421  42.223   2.451
57667W        W24450  17.338  19.066   2.837
57668W        W24451  30.910  26.401   2.906
57669W        W24452  13.753  17.567  10.388
57670W        W24453  11.619  44.991   0.427
57671W        W24454  21.670  13.751  11.726
57672W        W24455   0.365  34.411   2.784
57673W        W24456   1.816  17.294  12.246
57674W        W24457   7.595  37.502   4.873
57675W        W24458   8.162  21.554   3.392
57676W        W24459  22.284  31.104  11.196
57677W        W24460   4.400  32.504   4.098
57678W        W24461  25.594  10.529  14.013
57679W        W24462  20.130   7.771   4.706
57680W        W24463   4.198  18.602  12.585
57681W        W24464   2.664   7.206  11.094
57682W        W24465  31.306   7.120   1.669
57683W        W24466  17.019  28.184  11.026
57684W        W24467  36.555  14.624  14.931
57685W        W24468  32.906  17.982  12.112
57686W        W24469  18.111  32.554  12.159
57687W        W24470   8.702  40.028  12.337
57688W        W24471  25.469  21.660   1.399
57689W        W24472  42.061  38.948  14.881
57690W        W24473  36.646  10.652  13.820
57691W        W24474  12.354  39.960  13.442
57692W        W24475  38.868   9.228  11.483
57693W        W24476  22.600   8.622   2.291
57694W        W24477   0.459  19.898  10.645
57695W        W24478  36.666  16.622  12.361
57696W        W24479  22.083  23.888   0.929
57697W        W24480   9.752  41.471  11.938
57698W        W24481  12.832   9.372  13.479
57699W        W24482   1.982   9.292   0.433
57700W        W24483  12.332  26.527   1.341
57701W        W24484  20.227  18.335   4.596
57702W        W24485  41.151  22.942  12.363
57703W        W24486  37.412  11.264   4.116
57704W        W24487  20.124  27.901   2.185
57705W        W24488  34.002   0.787   1.163
57706W        W24489  37.404  21.839   3.696
57707W        W24490   3.885  12.322  13.158
57708W        W24491  26.446  30.243  10.736
57709W        W24492  39.441  21.454   0.447
57710W        W24493  43.349  15.658   1.417
57711W        W24494  33.991  38.066  12.059
57712W        W24495  40.438  41.897   2.137
57713W        W24496  11.238  20.728   0.466
57714W        W24497  20.067  39.332  11.843
57715W        W24498  29.514  35.585   0.909
57716W        W24499  31.396  16.106  11.946
57717W        W24500  30.387   7.356  12.007
57718W        W24501   3.262  13.812  14.464
57719W        W24502  16.110  33.276  13.044
57720W        W24503  18.988  21.570  11.564
57721W        W24504   5.298   2.475   1.248
57722W        W24505  24.638  15.682  14.086
57723W        W24506  30.819  21.184  13.965
57724W        W24507  24.933  42.980  14.939
57725W        W24508   2.946  13.612   3.805
57726W        W24509  40.342  26.997   4.075
57727W        W24510   4.794  30.235  13.423
57728W        W24511  11.236  40.261  12.450
57729W        W24512  32.085  31.930  12.123
57730W        W24513  34.435  14.751  10.859
57731W        W24514  24.623  25.892  12.151
57732W        W24515  12.854  31.475   4.614
57733W        W24516   6.769  17.285   0.874
57734W        W24517  16.274  36.592   2.249
57735W        W24518  20.847  29.407   1.754
57736W        W24519  14.738  26.893  10.940
57737W        W24520   9.140  43.431  11.508
57738W        W24521  27.621   0.424  12.954
57739W        W24522   9.268  18.514   3.538
57740W        W24523  26.219  24.918   1.214
57741W        W24524   1.948   3.877   1.807
57742W        W24525  25.720  23.805  12.385
57743W        W24526  24.470  43.783  10.673
57744W        W24527   1.158  29.586  13.053
57745W        W24528   9.215  44.552  11.872
57746W        W24529   5.350  25.228  13.169
57747W        W24530  24.714   6.254   0.949
57748W        W24531  18.201  29.508  12.184
57749W        W24532  21.644   8.289  13.916
57750W        W24533  35.798  44.843  13.824
57751W        W24534  30.022  38.278  11.241
57752W        W24535  40.949  41.251   3.526
57753W        W24536  39.869  31.904  14.052
57754W        W24537  17.232   9.104   0.854
57755W        W24538  40.290  35.084   3.687
57756W        W24539   1.836  13.562   3.086
57757W        W24540  17.351  13.707   1.793
57758W        W24541  16.191   9.828  11.942
57759W        W24542  10.003  27.414  11.081
57760W        W24543  12.606  23.054  10.921
57761W        W24544  30.955  16.553  14.994
57762W        W24545  36.279  29.261   2.847
57763W        W24546  26.973  30.591   2.249
57764W        W24547  14.923  39.947   4.039
57765W        W24548  14.603  38.783   0.563
57766W        W24549   1.798  30.691  12.005
57767W        W24550  33.078  15.330   0.676
57768W        W24551  43.001  11.927  13.049
57769W        W24552  24.134  27.900   0.914
57770W        W24553  38.118  28.084   4.476
57771W        W24554  39.457  37.073   2.924
57772W        W24555   9.597  34.521   2.648
57773W        W24556  33.865  44.066  11.579
57774W        W24557   5.446  30.368  14.620
57775W        W24558  28.460  35.117  13.373
57776W        W24559  24.849  41.981  11.090
57777W        W24560  40.947  37.783   1.162
57778W        W24561  18.103  44.933  10.871
57779W        W24562   0.638  15.282  13.356
57780W        W24563   1.168   1.441  11.549
57781W        W24564  28.783  15.693  10.050
57782W        W24565  20.210  33.682   1.127
57783W        W24566  13.616  27.186   3.581
57784W        W24567  13.387   0.743  14.842
57785W        W24568  15.306  15.050   2.770
57786W        W24569  25.408  14.239  12.579
57787W        W24570  16.258  30.339   3.409
57788W        W24571  30.796   4.357  13.904
57789W        W24572  10.649  26.353   1.180
57790W        W24573   6.980  20.536  12.090
57791W        W24574  11.705  23.221  11.966
57792W        W24575   5.273  23.061   3.622
57793W        W24576   1.450  43.430  14.889
57794W        W24577   1.407   5.805   3.147
57795W        W24578   5.874  38.312   2.585
57796W        W24579   7.110  42.990   3.272
57797W        W24580  35.006  42.069  11.297
57798W        W24581  43.761  10.225  10.264
57799W        W24582  33.026  41.223  10.618
57800W        W24583  18.180  23.626  11.204
57801W        W24584  13.732  18.058   3.600
57802W        W24585   9.090  18.582  14.812
57803W        W24586   4.382  15.849   1.927
57804W        W24587  32.976  33.435   0.218
57805W        W24588  10.058  11.214  10.020
57806W        W24589  25.421  29.682   1.189
57807W        W24590  13.786   8.736  14.083
57808W        W24591  40.516  21.650   2.343
57809W        W24592  44.706  32.523  13.515
57810W        W24593  36.425  31.054   4.726
57811W        W24594  19.242  30.420  13.907
57812W        W24595  10.227  38.920  10.459
57813W        W24596  26.655  16.578   1.913
57814W        W24597  10.427  11.649   4.590
57815W        W24598  36.559  15.355   4.109
57816W        W24599  12.147   9.275  13.973
57817W        W24600  21.662  37.162  12.519
57818W        W24601  13.122  38.737  12.736
57819W        W24602   9.026  29.292   4.058
57820W        W24603   1.905  18.555   4.054
57821W        W24604   0.943  35.101  11.155
57822W        W24605   1.402  31.120  13.099
57823W        W24606  44.578  25.053   2.719
57824W        W24607  20.010  13.954  11.165
57825W        W24608   5.480  36.399   1.350
57826W        W24609  42.827  12.793   2.621
57827W        W24610  34.879   7.272  12.568
57828W        W24611  38.079  19.131  12.094
57829W        W24612  26.884  17.963  13.846
57830W        W24613  18.578  17.102   1.824
57831W        W24614  22.251  30.587  10.668
57832W        W24615   2.927  12.279  10.548
57833W        W24616   0.388  40.419   2.395
57834W        W24617  27.615  20.956  14.098
57835W        W24618   4.136  29.512   3.687
57836W        W24619  33.866  19.114  11.604
57837W        W24620  25.643  20.170   3.177
57838W        W24621  37.756   7.378  14.110
57839W        W24622  35.136  16.299   2.255
57840W        W24623  19.647  44.867  14.860
57841W        W24624  23.832   8.606  11.109
57842W        W24625  33.978   8.743   1.486
57843W        W24626  23.558  37.407   3.722
57844W        W24627  17.229  10.623   0.931
57845W        W24628  43.756  40.663  11.992
57846W        W24629   7.987  20.575   3.176
57847W        W24630  24.628  20.104   4.678
57848W        W24631  39.699   7.566   4.180
57849W        W24632  22.410  19.847  12.329
57850W        W24633  11.112  24.562   0.941
57851W        W24634  10.283   5.859  11.133
57852W        W24635  44.737  37.034   3.265
57853W        W24636  34.367  23.201   0.372
57854W        W24637  31.582  13.187  10.999
57855W        W24638  28.017  11.556   4.031
57856W        W24639   6.370  11.371  12.681
57857W        W24640  34.957  42.351   1.334
57858W        W24641  11.193  31.901   3.694
57859W        W24642   7.912  16.375   2.616
57860W        W24643  21.267  41.093  13.543
57861W        W24644  41.493  41.352   0.923
57862W        W24645  40.534  42.204  12.874
57863W        W24646  19.241   1.929  14.480
57864W        W24647  34.966  41.036   1.625
57865W        W24648  14.927   3.358  13.444
57866W        W24649  19.740  11.641  11.470
57867W        W24650  26.136  12.336   3.411
57868W        W24651  20.025  21.570  13.874
57869W        W24652  34.931  33.909   3.622
57870W        W24653  33.613  42.925   2.808
57871W        W24654  30.629  42.815  11.105
57872W        W24655  44.464  37.602  12.956
57873W        W24656  36.763  17.660  14.266
57874W        W24657   6.642  41.707   1.882
57875W        W24658  42.032  31.961  13.326
57876W        W24659  30.707  36.693   3.599
57877W        W24660  39.760  29.048  11.145
57878W        W24661  23.131  18.519   0.727
57879W        W24662   9.542  14.555  12.564
57880W        W24663  29.637  16.949  11.998
57881W        W24664  10.720   5.654   3.321
57882W        W24665  43.890  26.257  14.408
57883W        W24666  22.637   1.969   0.369
57884W        W24667  11.913  43.518   4.111
57885W        W24668  35.519   8.522   0.373
57886W        W24669   8.661  29.676  13.869
57887W        W24670   9.146  40.197  11.575
57888W        W24671  15.685  15.763   0.729
57889W        W24672  19.227  18.006  14.917
57890W        W24673   1.233  29.856   1.376
57891W        W24674  12.765   0.520   1.654
57892W        W24675  33.959  44.243  14.426
57893W        W24676  23.370  30.001   1.188
57894W        W24677  38.612  24.217  13.822
57895W        W24678  22.808  21.731   0.549
57896W        W24679  44.770  18.644  10.712
57897W        W24680  35.472  17.547   3.510
57898W        W24681  41.992  38.374   0.730
57899W        W24682   2.428  28.627  14.073
57900W        W24683   8.815   3.508   4.643
57901W        W24684  15.719   0.938   1.411
57902W        W24685  16.984  42.919   5.023
57903W        W24686  33.893  30.692   1.190
57904W        W24687   3.950  24.967   5.022
57905W        W24688  22.292  15.568   3.023
57906W        W24689  11.535  25.463  14.065
57907W        W24690   9.406   0.005   3.243
57908W        W24691  23.035  13.186  12.455
57909W        W24692  34.905   0.009  10.930
57910W        W24693  23.693  17.253  12.874
57911W        W24694  30.368  30.837   3.397
57912W        W24695  43.783  29.852  11.084
57913W        W24696   4.872  36.865   1.872
57914W        W24697  36.778   3.141   2.769
57915W        W24698  28.997  12.027  13.227
57916W        W24699  21.654  41.805   1.039
57917W        W24700  26.103  43.967   3.285
57918W        W24701   5.185  43.543   4.149
57919W        W24702  15.883  11.613  12.548
57920W        W24703   8.649  17.055  14.379
57921W        W24704  26.140  15.275  11.249
57922W        W24705  24.372   3.190  14.401
57923W        W24706  14.239  37.044   3.619
57924W        W24707   2.824  24.736  13.375
57925W        W24708  15.274   9.697   0.027
57926W        W24709  29.471  44.721   2.554
57927W        W24710  10.741  20.812  12.246
57928W        W24711   2.721   4.475  13.003
57929W        W24712  35.019  35.120   2.662
57930W        W24713  15.111  25.086   4.271
57931W        W24714  15.568  24.553  11.987
57932W        W24715   3.728  36.391  14.534
57933W        W24716  33.563  17.309  13.385
57934W        W24717  37.065  30.145  10.667
57935W        W24718  33.616  30.571   2.294
57936W        W24719   7.312  30.029  13.855
57937W        W24720  22.600  16.583   1.458
57938W        W24721  30.335  38.550   4.531
57939W        W24722   2.400  34.821  13.342
57940W        W24723   6.808  15.877  13.075
57941W        W24724  15.550  44.228   4.137
57942W        W24725   6.934   0.889   3.240
57943W        W24726   8.161  41.715   1.347
57944W        W24727   7.840  27.384   3.372
57945W        W24728  25.566  15.239   2.886
57946W        W24729  20.262  43.039   1.050
57947W        W24730   5.454  12.815  12.218
57948W        W24731   2.173  24.065   4.664
57949W        W24732  35.123  27.025   4.713
57950W        W24733  15.158  32.115   1.908
57951W        W24734  15.817   2.929  10.570
57952W        W24735  34.855  23.858  14.063
57953W        W24736  31.625  35.015   2.375
57954W        W24737  35.190  40.805   3.776
57955W        W24738   5.955  14.670  14.928
57956W        W24739   8.862  21.768  10.803
57957W        W24740  40.437  24.691   2.102
57958W        W24741  15.487   1.638   4.114
57959W        W24742   4.246  26.648   3.715
57960W        W24743   8.258  13.187   4.671
57961W        W24744   9.260  27.409   3.140
57962W        W24745  41.843  44.333  12.129
57963W        W24746  39.194  20.300   2.341
57964W        W24747  42.802  12.676  11.936
57965W        W24748   2.689  26.161   2.164
57966W        W24749  35.562  10.892   5.616
57967W        W24750  36.836  27.480  11.138
57968W        W24751   9.634  22.225   0.654
57969W        W24752  16.836  10.946   0.772
57970W        W24753  16.694  25.045   4.948
57971W        W24754  34.673   8.433   4.500
57972W        W24755  36.486  20.732   4.934
57973W        W24756  22.502  18.179  13.078
57974W        W24757  15.688  19.804  14.813
57975W        W24758  31.169  27.651   0.219
57976W        W24759  20.918  32.588   4.566
57977W        W24760   9.186  11.829  11.888
57978W        W24761  19.670  12.214   2.533
57979W        W24762  10.266  11.668   0.409
57980W        W24763  27.262  19.579   4.178
57981W        W24764  36.813  42.576   1.924
57982W        W24765  26.285  23.629  11.109
57983W        W24766   1.528  22.212   4.444
57984W        W24767  25.980  10.328   2.399
57985W        W24768   4.341   0.315   1.719
57986W        W24769  10.267   4.717   0.478
57987W        W24770  33.961  24.214   9.787
57988W        W24771  41.479  42.241  14.473
57989W        W24772  39.859  34.544   4.047
57990W        W24773  36.434  19.474   1.285
57991W        W24774  20.928  12.212   3.099
57992W        W24775   0.551  20.378   3.627
57993W        W24776  11.236  15.190   4.508
57994W        W24777  42.630  21.723   2.260
57995W        W24778  39.624  11.261   3.173
57996W        W24779  11.596  14.373   3.652
57997W        W24780  37.093  20.572   1.676
57998W        W24781  21.637  23.269   4.096
57999W        W24782  26.586   1.940  14.029
58000W        W24783   7.139  34.609   2.180
58001W        W24784  20.885  40.556  10.769
58002W        W24785  42.457  22.750   3.622
58003W        W24786  37.870  38.912   3.749
58004W        W24787  25.729  28.396  12.012
58005W        W24788  28.016  36.165  12.548
58006W        W24789  38.169   6.730   4.112
58007W        W24790   7.573   2.835  12.939
58008W        W24791  43.917   1.938   1.922
58009W        W24792  36.447   5.736   2.082
58010W        W24793  39.330  34.442   0.814
58011W        W24794  38.017  39.998  13.797
58012W        W24795  22.566  22.713   0.311
58013W        W24796  42.917   7.216   1.126
58014W        W24797  36.271   8.150  13.116
58015W        W24798   8.105  26.868  10.589
58016W        W24799   7.493  15.273   3.335
58017W        W24800  38.207  32.058  14.908
58018W        W24801  20.123  26.787  12.839
58019W        W24802  21.220   9.158  14.768
58020W        W24803  26.483  17.523  10.655
58021W        W24804  10.704   3.451  14.663
58022W        W24805  43.699  19.566   2.639
58023W        W24806  12.702  26.073   0.408
58024W        W24807  41.291   5.792  14.342
58025W        W24808   5.691  15.341  14.371
58026W        W24809  20.232   0.435   4.164
58027W        W24810  26.921  34.095  10.926
58028W        W24811  30.551  39.277  11.990
58029W        W24812  11.286  13.756   4.266
58030W        W24813  28.133  25.031   2.912
58031W        W24814   0.241  28.402   3.715
58032W        W24815   9.856   9.807   3.535
58033W        W24816  19.764   4.233   0.467
58034W        W24817  19.688  34.075  14.428
58035W        W24818  27.567   7.169  11.235
58036W        W24819  43.858  44.045  10.624
58037W        W24820  20.522  40.976   2.726
58038W        W24821  38.516  34.782  13.905
58039W        W24822  20.477  16.080  12.549
58040W        W24823   5.183  15.620   3.196
58041W        W24824  34.389  10.677  11.561
58042W        W24825   8.671  40.458  13.032
58043W        W24826  30.059  43.323  12.309
58044W        W24827   6.684  12.602   1.294
58045W        W24828   2.195  16.442  11.992
58046W        W24829  26.973  15.786  10.998
58047W        W24830  25.932  15.710   5.175
58048W        W24831  27.928   5.878  14.956
58049W        W24832   4.389  22.118   3.113
58050W        W24833   4.509  15.886   4.325
58051W        W24834  38.399  28.958  11.056
58052W        W24835   8.207  31.329  10.906
58053W        W24836  25.053  42.529  13.000
58054W        W24837  32.075  43.600  10.692
58055W        W24838  44.253  32.001  11.969
58056W        W24839  27.885  42.563   3.733
58057W        W24840  37.537  10.870  13.129
58058W        W24841  13.534  10.986  11.275
58059W        W24842  11.791  17.169   0.838
58060W        W24843  13.693  21.560   2.528
58061W        W24844   0.616   2.753   3.722
58062W        W24845  25.001   6.971  14.754
58063W        W24846   6.441  16.366  14.959
58064W        W24847   0.510  17.141  11.476
58065W        W24848  35.084  32.014  12.002
58066W        W24849  42.925  14.834  13.460
58067W        W24850   6.668  15.905  11.425
58068W        W24851  11.181   2.839   4.369
58069W        W24852  23.261  12.766  13.381
58070W        W24853  38.135   7.185  14.382
58071W        W24854   9.310  26.631  12.446
58072W        W24855  44.177  18.803   1.766
58073W        W24856  27.888  22.845  10.824
58074W        W24857  38.418   3.260   4.725
58075W        W24858   5.417  25.119   3.890
58076W        W24859  38.274  23.212   1.232
58077W        W24860  24.971  20.412  10.781
58078W        W24861   3.369  37.054  12.486
58079W        W24862   9.630  23.053   0.050
58080W        W24863  11.175  31.513   0.306
58081W        W24864   4.430  25.027  11.905
58082W        W24865   4.365   8.946  11.965
58083W        W24866  30.432  35.442  12.544
58084W        W24867  15.804   8.258  10.665
58085W        W24868  38.078  31.207  14.347
58086W        W24869  16.222  23.666   1.577
58087W        W24870  25.740  26.938   0.513
58088W        W24871  18.203  37.794  14.343
58089W        W24872  34.872  43.907  11.508
58090W        W24873  34.350   4.369   5.271
58091W        W24874   0.473   2.840   2.155
58092W        W24875  15.822  19.452   1.874
58093W        W24876   6.922  43.726   3.719
58094W        W24877  31.221  11.005  12.145
58095W        W24878   6.736  37.401  10.672
58096W        W24879  10.068   4.888  11.232
58097W        W24880  30.974   5.867  11.084
58098W        W24881  39.807  19.237  14.794
58099W        W24882   3.365   8.515   2.784
58100W        W24883  20.033  43.933  12.550
58101W        W24884  28.741   7.720  11.500
58102W        W24885  19.621  34.953  12.496
58103W        W24886  37.830   3.475  11.207
58104W        W24887   7.383  11.937   3.738
58105W        W24888  25.843   0.769   2.850
58106W        W24889  33.132   4.295   4.585
58107W        W24890   5.090  35.203  12.077
58108W        W24891  14.362   2.946   0.775
58109W        W24892  22.141   7.841  13.099
58110W        W24893  16.778  11.411  14.406
58111W        W24894   1.651  33.543   0.465
58112W        W24895   4.266  42.556  12.976
58113W        W24896  28.684  30.417  11.441
58114W        W24897  11.009  30.149  11.092
58115W        W24898  17.051  10.668  14.046
58116W        W24899  14.730  21.724   3.375
58117W        W24900  24.503  16.152  10.646
58118W        W24901  31.422   2.178  10.622
58119W        W24902  15.908  37.996  14.401
58120W        W24903  44.411  17.216   0.395
58121W        W24904  15.865  34.530   4.676
58122W        W24905   4.498  24.205  12.421
58123W        W24906  37.792   9.578  14.122
58124W        W24907   9.144   2.414  13.241
58125W        W24908  17.304  33.833  11.106
58126W        W24909   0.780  44.269  14.411
58127W        W24910   3.812   1.004   2.236
58128W        W24911  33.727  30.951  14.079
58129W        W24912   7.854  28.504   1.781
58130W        W24913  39.798  11.583  14.674
58131W        W24914  32.896  37.312  14.425
58132W        W24915  19.573  23.046   3.692
58133W        W24916  39.720   4.163  11.134
58134W        W24917  14.728   1.647   1.195
58135W        W24918   6.329  10.801   1.892
58136W        W24919  36.809   5.333   0.453
58137W        W24920   2.205  32.929  12.024
58138W        W24921  42.568  37.841   2.281
58139W        W24922   9.375  26.197   4.777
58140W        W24923   0.827   2.869  10.526
58141W        W24924  29.770  13.337  13.579
58142W        W24925  15.721  20.436   1.854
58143W        W24926  24.174  43.808   3.306
58144W        W24927  17.275   3.357   1.954
58145W        W24928  40.429  39.317  12.916
58146W        W24929  40.146   7.879  11.082
58147W        W24930  26.790  30.370  14.922
58148W        W24931   6.360  25.177  12.707
58149W        W24932  28.922  17.573  13.968
58150W        W24933   2.060  31.368   1.740
58151W        W24934  14.682  39.568  14.374
58152W        W24935  44.438  34.816  11.925
58153W        W24936  18.245  31.642  12.672
58154W        W24937  37.941  34.944  10.725
58155W        W24938  29.974  27.609  13.406
58156W        W24939  10.148  29.396  11.057
58157W        W24940  31.376  24.920   4.104
58158W        W24941  44.534  32.044  12.394
58159W        W24942   9.238  22.983  11.401
58160W        W24943   6.304   4.263   0.881
58161W        W24944   8.491  17.718  11.192
58162W        W24945  19.708  17.009   3.867
58163W        W24946   8.406   4.740   0.256
58164W        W24947  41.346  13.641   0.791
58165W        W24948  31.209  13.164  12.764
58166W        W24949   1.182  28.022   1.020
58167W        W24950  32.853  40.297  11.607
58168W        W24951  40.208   9.202   0.339
58169W        W24952  30.664   5.712  11.570
58170W        W24953  42.554  39.868   1.883
58171W        W24954  44.112   0.882   2.658
58172W        W24955   9.372  33.814  13.548
58173W        W24956  31.204  43.228  13.977
58174W        W24957  12.036  19.835   4.639
58175W        W24958   2.842  13.851  11.348
58176W        W24959  19.736  37.000   0.014
58177W        W24960  15.326  32.617   0.781
58178W        W24961  16.459   9.536   0.586
58179W        W24962   5.508  17.777  10.949
58180W        W24963  10.176   3.799   0.451
58181W        W24964  20.054  35.084   2.650
58182W        W24965  22.129  18.568  14.265
58183W        W24966  28.035  10.078  10.063
58184W        W24967  27.934  26.523  12.324
58185W        W24968  27.080   4.164   2.373
58186W        W24969  33.485  19.215   2.364
58187W        W24970  40.253  40.691  12.772
58188W        W24971   8.184  41.392   4.906
58189W        W24972  36.457   6.701  14.556
58190W        W24973  22.647  34.378   1.406
58191W        W24974  40.391  38.740   2.780
58192W        W24975  38.646  22.455  14.343
58193W        W24976  23.619  37.421   2.327
58194W        W24977  40.725  34.486  12.865
58195W        W24978   5.662  28.058  10.579
58196W        W24979  36.566  23.737   2.664
58197W        W24980  13.230  42.464   0.185
58198W        W24981  29.888  13.590  11.167
58199W        W24982  25.146   7.743   4.507
58200W        W24983  27.245  37.677   3.284
58201W        W24984   8.767  35.053  14.923
58202W        W24985  16.284  32.162  10.209
58203W        W24986  37.104  25.653  11.616
58204W        W24987  27.978  40.209   3.159
58205W        W24988  34.545  37.129   3.621
58206W        W24989  23.092  32.358  12.580
58207W        W24990   2.869  32.895   2.746
58208W        W24991   2.310  26.786   1.272
58209W        W24992  43.202  15.129   2.289
58210W        W24993  19.851  32.097   4.281
58211W        W24994  22.235  37.039   3.450
58212W        W24995  26.708  33.596   1.445
58213W        W24996  29.209  35.195  12.892
58214W        W24997  30.222  23.911   4.060
58215W        W24998  28.416   6.911  13.402
58216W        W24999  21.435  29.689  14.200
58217W        W25000  31.513  22.098   0.319
58218W        W25001  29.910   7.866  14.054
58219W        W25002   8.808  12.182  11.164
58220W        W25003  24.764  42.427   1.871
58221W        W25004  31.406  34.605   1.700
58222W        W25005   1.868   1.805   0.761
58223W        W25006   0.618  19.828  11.132
58224W        W25007  30.439  23.677   3.008
58225W        W25008  40.816  34.019  13.470
58226W        W25009  23.946  23.943  10.744
58227W        W25010   9.801  40.236  14.561
58228W        W25011  41.400   3.635  13.470
58229W        W25012  39.122   3.366  11.561
58230W        W25013  43.281  32.576   0.755
58231W        W25014   6.099  35.088   4.006
58232W        W25015  34.677  32.404   0.308
58233W        W25016  34.114  42.781   4.120
58234W        W25017   1.407  37.970  10.426
58235W        W25018  44.264  11.787   2.384
58236W        W25019  36.248  13.398  11.613
58237W        W25020  37.089  16.681   3.920
58238W        W25021   6.112  42.852   2.027
58239W        W25022  42.745   8.186  11.247
58240W        W25023  14.659  25.118   2.195
58241W        W25024  33.089  33.879   4.158
58242W        W25025  23.292   0.232   5.035
58243W        W25026  39.430   0.350  11.692
58244W        W25027  37.979   5.491   0.797
58245W        W25028   6.455  43.455  12.860
58246W        W25029  18.785  15.119  12.195
58247W        W25030  40.247  21.019   1.297
58248W        W25031  35.894   7.400  11.636
58249W        W25032  34.644  34.939  11.380
58250W        W25033  18.747  20.103  14.571
58251W        W25034  19.697  21.743  13.220
58252W        W25035  42.886   0.074   0.386
58253W        W25036   9.178  41.317   3.690
58254W        W25037  25.248   1.818  13.496
58255W        W25038  10.749  20.018  12.610
58256W        W25039   0.942  36.384   3.115
58257W        W25040  29.681  15.080  11.103
58258W        W25041  37.961  24.006   2.597
58259W        W25042  11.099   5.283   1.792
58260W        W25043  41.232  25.658   3.349
58261W        W25044  38.294  40.870  13.300
58262W        W25045  29.491   7.679   2.290
58263W        W25046   0.878  20.992   0.867
58264W        W25047  16.353  12.345   4.197
58265W        W25048   7.341   8.753  10.799
58266W        W25049  28.013  22.484   3.508
58267W        W25050  13.703  29.738  13.555
58268W        W25051  12.243  43.988  13.299
58269W        W25052  21.842  37.334   4.853
58270W        W25053   0.017   6.114  13.046
58271W        W25054  32.122  13.301   3.588
58272W        W25055  43.439   7.183   0.705
58273W        W25056  30.117  31.190  10.610
58274W        W25057  11.859  23.282  13.441
58275W        W25058  14.818  24.474  10.710
58276W        W25059  18.114   9.788  12.858
58277W        W25060  23.520  29.270   2.677
58278W        W25061  21.122  29.747   3.253
58279W        W25062  20.698   5.148  14.937
58280W        W25063   3.454  10.258   3.135
58281W        W25064  35.669  34.549   1.939
58282W        W25065  27.587  37.507   4.016
58283W        W25066   6.184  23.920  13.920
58284W        W25067  14.914  38.937  10.711
58285W        W25068  19.307   7.617   4.203
58286W        W25069  23.169  24.960  12.291
58287W        W25070  13.838  32.235   0.445
58288W        W25071   0.989  32.200   1.757
58289W        W25072  32.685  15.248   1.034
58290W        W25073  34.622  27.451  10.782
58291W        W25074   6.429  34.078   4.623
58292W        W25075  43.783  37.530  12.411
58293W        W25076  28.428  32.186  12.019
58294W        W25077  41.876  31.582  13.633
58295W        W25078  33.103   1.864  11.311
58296W        W25079  28.539  41.089  12.788
58297W        W25080  40.697  19.718   0.305
58298W        W25081  14.568  17.620   2.432
58299W        W25082  29.127  27.490  13.951
58300W        W25083  10.868  43.079   2.729
58301W        W25084  41.266  20.230   0.849
58302W        W25085  28.531   7.662  14.249
58303W        W25086  13.751  18.177  13.701
58304W        W25087   9.186   7.691   2.187
58305W        W25088  21.408  18.530   1.783
58306W        W25089   3.429  17.069  11.010
58307W        W25090  34.462   4.502   1.184
58308W        W25091   5.683  12.295  10.669
58309W        W25092  35.800   1.102   0.898
58310W        W25093  29.533  30.909   0.252
58311W        W25094  34.164   4.138   4.454
58312W        W25095   4.774   6.021  12.613
58313W        W25096  24.545  41.513  11.625
58314W        W25097  17.948  13.032  13.071
58315W        W25098  11.917  43.828  14.153
58316W        W25099  32.735  24.161  14.816
58317W        W25100  14.424  33.658   1.995
58318W        W25101  40.955  31.106   4.086
58319W        W25102   8.902  11.411   2.253
58320W        W25103  25.895  10.120  11.118
58321W        W25104  32.935   1.264   1.372
58322W        W25105  42.325  22.154   0.386
58323W        W25106  25.617  12.722   3.836
58324W        W25107  18.650  34.884  12.548
58325W        W25108  26.718  21.906   2.067
58326W        W25109  19.550  41.799   3.275
58327W        W25110   0.571   2.377   3.372
58328W        W25111   5.178   2.828  10.866
58329W        W25112  35.939   0.851  11.453
58330W        W25113  17.110  43.557  12.575
58331W        W25114  41.082  16.513   0.564
58332W        W25115  18.721  27.157   4.372
58333W        W25116  41.285  17.347  10.694
58334W        W25117  13.186  19.877  11.110
58335W        W25118   1.718  42.835   1.182
58336W        W25119  42.638  25.626  11.299
58337W        W25120   0.949  12.570   1.938
58338W        W25121  18.088  31.058  11.078
58339W        W25122  26.369  38.379   1.218
58340W        W25123  25.012  32.493  11.885
58341W        W25124  33.302  21.204   1.812
58342W        W25125  13.647  28.637  14.056
58343W        W25126  19.296  16.700   4.130
58344W        W25127   9.056  27.051   2.383
58345W        W25128  10.120  40.543   2.725
58346W        W25129  23.700  28.581   4.270
58347W        W25130  24.568  20.404  11.149
58348W        W25131  28.625   8.352   1.373
58349W        W25132  12.815   7.317   4.531
58350W        W25133  26.671   8.474  12.409
58351W        W25134  39.330  40.572  12.586
58352W        W25135  40.251   9.152   5.410
58353W        W25136   7.528  36.925  11.306
58354W        W25137  42.374   5.329  14.830
58355W        W25138  39.517   9.840  10.367
58356W        W25139  34.114  36.955   4.526
58357W        W25140  27.257   9.262   0.966
58358W        W25141  26.994   2.326  13.957
58359W        W25142  16.205  29.722   2.614
58360W        W25143   0.849  26.205   2.611
58361W        W25144  11.317   7.874  10.766
58362W        W25145  16.758  40.783  12.347
58363W        W25146  11.848  44.440   2.164
58364W        W25147  18.748   2.456  13.924
58365W        W25148  25.211  31.123  13.891
58366W        W25149  34.613   1.448  13.421
58367W        W25150  22.621  20.702   0.854
58368W        W25151  29.024  19.637   4.928
58369W        W25152  34.019  36.143  12.544
58370W        W25153  34.079  28.698   4.338
58371W        W25154  35.576  27.898   0.218
58372W        W25155   0.041  37.488  14.266
58373W        W25156  39.767  23.415   2.228
58374W        W25157   9.544  10.686   1.893
58375W        W25158  18.984  32.421  13.573
58376W        W25159   5.839  15.762  14.111
58377W        W25160  22.922  16.693  14.401
58378W        W25161   3.268  30.571   3.690
58379W        W25162  40.344  24.587   1.588
58380W        W25163  44.600   7.159   2.240
58381W        W25164  18.170  43.911   4.097
58382W        W25165  37.823  13.221   0.465
58383W        W25166   8.404  25.128   0.504
58384W        W25167  36.646  17.269   4.102
58385W        W25168  28.575   7.902  11.037
58386W        W25169   4.187  37.654   4.363
58387W        W25170  27.750  19.003   1.834
58388W        W25171  27.911  34.043  11.943
58389W        W25172  19.579  11.542   0.795
58390W        W25173  41.791   8.678  13.501
58391W        W25174  32.069  26.878   0.661
58392W        W25175   9.416  42.939   3.583
58393W        W25176   1.094  33.832  12.031
58394W        W25177  13.504  42.742  10.776
58395W        W25178  35.877   8.269  13.414
58396W        W25179  31.438   1.429   3.843
58397W        W25180   4.762   7.669  14.968
58398W        W25181  19.285  44.017  12.065
58399W        W25182  22.277  11.626  10.984
58400W        W25183  18.308   3.978   3.402
58401W        W25184   9.748   4.742   0.333
58402W        W25185  34.403  10.285  10.606
58403W        W25186   6.033   6.264   3.599
58404W        W25187  39.373   2.845   0.776
58405W        W25188  31.558  14.016  12.339
58406W        W25189  16.596  34.613  11.982
58407W        W25190  40.858   5.918  12.019
58408W        W25191  27.523   0.567  10.448
58409W        W25192  35.120  22.163   1.466
58410W        W25193  23.521   2.208  14.053
58411W        W25194  31.414  22.718   3.393
58412W        W25195  22.713  36.880  14.569
58413W        W25196  22.093  25.072  10.612
58414W        W25197  43.695   6.676   4.466
58415W        W25198  18.175  18.800   0.669
58416W        W25199  10.130   2.379  12.408
58417W        W25200   5.019  11.304  13.789
58418W        W25201  41.979  13.839  11.697
58419W        W25202  38.898  31.835   0.378
58420W        W25203   8.875  28.345  12.039
58421W        W25204   1.720  22.719  12.540
58422W        W25205  35.456   5.949   2.323
58423W        W25206   7.997  23.297   5.010
58424W        W25207  28.106  35.821   3.210
58425W        W25208  40.944  40.513   0.548
58426W        W25209   3.980  16.531  14.402
58427W        W25210   2.331   9.459   1.341
58428W        W25211   3.198   6.814  10.731
58429W        W25212   2.458  39.027   1.273
58430W        W25213  30.213  32.477   3.267
58431W        W25214  38.100  22.721   0.978
58432W        W25215  17.390  42.896   2.330
58433W        W25216  17.752  29.584  13.436
58434W        W25217   2.806  27.850  11.054
58435W        W25218  26.812  15.599   1.937
58436W        W25219   2.391  44.200   1.150
58437W        W25220  26.778   6.133   4.198
58438W        W25221  16.263  31.544   2.296
58439W        W25222  19.338  35.629   3.830
58440W        W25223  27.723   5.443  11.791
58441W        W25224  19.023  32.977   3.720
58442W        W25225  13.370  24.197   3.162
58443W        W25226  18.016  31.071  14.279
58444W        W25227  38.130   5.617   9.958
58445W        W25228  39.871  30.652   2.617
58446W        W25229   4.875  28.770  11.228
58447W        W25230  26.984  43.999  11.201
58448W        W25231  23.745  30.265   2.912
58449W        W25232  33.988  28.203   2.574
58450W        W25233  13.520  10.719   2.445
58451W        W25234  44.792  35.887  14.143
58452W        W25235  41.327  22.141  12.172
58453W        W25236   0.756  11.878  14.430
58454W        W25237   9.387  32.735  11.045
58455W        W25238  27.453  18.500  14.900
58456W        W25239  34.996  30.412   3.677
58457W        W25240  11.732   0.596   3.242
58458W        W25241  15.640  22.097  13.538
58459W        W25242  28.470   7.249  14.576
58460W        W25243   1.366  17.575  12.126
58461W        W25244  26.936   5.203  13.382
58462W        W25245  21.944  31.919   4.055
58463W        W25246  37.754   5.919  10.310
58464W        W25247  12.723   6.019  14.187
58465W        W25248  42.951  37.431  14.521
58466W        W25249  20.300  10.779  14.093
58467W        W25250   6.086  30.396   3.327
58468W        W25251  17.431  22.775  13.308
58469W        W25252  15.184  39.424  10.337
58470W        W25253  15.600  44.659   4.488
58471W        W25254  28.048  29.238   3.142
58472W        W25255  17.646  20.709  10.717
58473W        W25256  17.063  38.770   4.089
58474W        W25257  16.641   9.039  12.057
58475W        W25258  25.197  37.300   1.559
58476W        W25259  32.542  33.498   1.494
58477W        W25260  17.572  25.415   1.785
58478W        W25261  13.393  11.329  10.394
58479W        W25262  22.260  37.476   0.773
58480W        W25263  28.930  31.050  11.001
58481W        W25264  44.844  43.979   1.940
58482W        W25265  18.637  37.320  11.924
58483W        W25266  40.582  27.861  11.581
58484W        W25267   4.937  40.094   2.513
58485W        W25268  29.338   5.386   4.873
58486W        W25269  28.751  28.965  11.047
58487W        W25270   4.943  23.143  12.563
58488W        W25271  40.833   8.302   4.155
58489W        W25272  13.538  34.442   9.966
58490W        W25273  35.845  13.726   1.029
58491W        W25274  42.017  20.957  13.293
58492W        W25275  25.629   1.836  14.215
58493W        W25276  22.060  11.607   3.387
58494W        W25277   7.742  22.216   4.465
58495W        W25278  28.015  36.091  10.756
58496W        W25279  42.388  19.806  11.851
58497W        W25280   4.290  10.841   2.666
58498W        W25281  37.334   8.236  13.040
58499W        W25282  24.884   4.305  13.955
58500W        W25283  33.184  25.413   1.267
58501W        W25284  26.117  24.169   3.699
58502W        W25285   7.658  10.241   1.656
58503W        W25286  30.994  30.881   2.875
58504W        W25287  42.850  18.812  12.663
58505W        W25288  15.117  21.367  14.752
58506W        W25289  13.612  24.727  11.120
58507W        W25290  13.172  26.584  12.892
58508W        W25291  15.104   2.415   1.643
58509W        W25292   2.578  13.339  14.638
58510W        W25293  33.494  12.395   0.301
58511W        W25294  37.610  40.020   1.182
58512W        W25295  28.928  37.581  10.756
58513W        W25296  42.957  30.399   3.980
58514W        W25297  17.112   2.210   1.756
58515W        W25298  15.296  12.366  10.773
58516W        W25299  33.020  26.706  10.512
58517W        W25300   2.265  39.088  13.099
58518W        W25301  13.322   7.700  11.555
58519W        W25302  40.555  12.866   0.959
58520W        W25303  15.360   8.675  11.304
58521W        W25304  28.723  19.037  14.827
58522W        W25305  35.666   7.682   2.253
58523W        W25306   7.102  19.080   4.405
58524W        W25307  44.362  19.280   0.459
58525W        W25308  10.300   0.219  14.054
58526W        W25309   9.844  17.679  10.456
58527W        W25310  31.470  44.279   0.903
58528W        W25311   7.472  15.719  11.932
58529W        W25312  16.203  29.172   2.523
58530W        W25313  29.602   0.433  12.909
58531W        W25314  15.759  12.569  11.190
58532W        W25315  36.958  10.643  11.049
58533W        W25316  21.178   1.873   0.818
58534W        W25317  14.182  23.779  11.108
58535W        W25318  38.803   2.906  11.551
58536W        W25319  19.694  20.085  11.633
58537W        W25320  24.246   6.440   3.245
58538W        W25321   6.913   4.884  10.725
58539W        W25322  38.971  15.251   0.284
58540W        W25323  27.479   8.724  11.811
58541W        W25324  30.103  38.630  14.905
58542W        W25325  39.865   6.749  11.897
58543W        W25326  26.191  41.485  14.070
58544W        W25327  16.172   9.846   4.553
58545W        W25328  44.746  31.741   4.058
58546W        W25329  13.664  44.310  12.516
58547W        W25330   5.141  39.506  12.507
58548W        W25331  30.986  17.265   3.153
58549W        W25332  24.684   0.354   4.536
58550W        W25333  27.382  25.402   0.336
58551W        W25334  31.612  28.166   2.796
58552W        W25335  36.412  17.893  13.424
58553W        W25336  31.548  43.923   3.300
58554W        W25337  17.296  30.363  11.140
58555W        W25338  39.006  32.561  10.986
58556W        W25339   5.753   0.459   0.190
58557W        W25340  10.216  34.050   2.268
58558W        W25341  10.770  15.270   0.974
58559W        W25342  10.241   9.353  12.123
58560W        W25343  26.675  38.609  14.925
58561W        W25344  24.513  12.081   1.235
58562W        W25345  37.953  22.259   0.738
58563W        W25346  25.750   8.295  13.854
58564W        W25347   1.066   6.684  10.680
58565W        W25348   0.462  16.342   2.064
58566W        W25349  33.711  28.706   0.375
58567W        W25350  22.704  35.155  11.699
58568W        W25351  11.929  42.299   4.035
58569W        W25352  40.410  17.347   5.108
58570W        W25353  20.013  31.905   0.749
58571W        W25354  36.097  19.387  12.448
58572W        W25355  28.389   0.922  13.048
58573W        W25356  23.587   8.677  10.652
58574W        W25357  10.345   2.859  11.537
58575W        W25358   3.395  27.234   4.146
58576W        W25359  24.625  37.556   3.619
58577W        W25360  26.680  26.005  12.478
58578W        W25361  24.167  27.178   4.668
58579W        W25362  34.465  27.596  11.529
58580W        W25363   5.903   7.230   0.286
58581W        W25364  36.436  39.457  14.922
58582W        W25365  22.261  34.007  12.085
58583W        W25366   7.671   9.334   4.037
58584W        W25367  44.337  20.289  14.083
58585W        W25368  29.244  18.439  11.992
58586W        W25369  42.019  34.551  14.956
58587W        W25370  14.389   8.824  12.849
58588W        W25371  13.707  21.908   0.091
58589W        W25372  44.456  28.759  10.902
58590W        W25373  30.921  30.939   3.394
58591W        W25374  40.471  41.037   1.159
58592W        W25375  41.164  23.491  14.365
58593W        W25376  12.969   8.732  10.139
58594W        W25377   3.376  27.057   2.247
58595W        W25378   8.601   5.910   3.511
58596W        W25379  44.209  31.035  11.974
58597W        W25380  18.305  17.981   2.633
58598W        W25381  21.211  17.117  10.553
58599W        W25382  21.403  10.810   1.768
58600W        W25383  32.352  16.306   3.660
58601W        W25384   2.950  20.253  11.546
58602W        W25385   3.751  31.674   2.858
58603W        W25386  26.091  28.018   1.727
58604W        W25387   4.253   8.850  14.786
58605W        W25388  11.814   7.948   3.181
58606W        W25389  26.066  12.488  12.554
58607W        W25390  37.039   0.269   3.566
58608W        W25391  39.914  39.507   3.626
58609W        W25392  36.111  11.571   2.197
58610W        W25393  24.935  10.282   4.639
58611W        W25394  20.169  42.020  13.474
58612W        W25395  31.894  10.848   1.303
58613W        W25396   4.792  34.099   2.256
58614W        W25397  15.052  23.184   2.761
58615W        W25398   8.974  42.558  12.565
58616W        W25399  40.024  37.921   0.249
58617W        W25400  31.540  41.971   1.612
58618W        W25401   6.819  27.749  11.650
58619W        W25402  12.533  38.679   1.625
58620W        W25403   1.905   2.237   1.705
58621W        W25404   1.546  22.164  14.811
58622W        W25405   5.974  24.938   0.911
58623W        W25406  22.455  29.295   4.388
58624W        W25407  33.569   3.986   0.976
58625W        W25408  12.957  40.965   2.139
58626W        W25409  27.619  31.841   3.668
58627W        W25410  12.227  28.582  10.781
58628W        W25411  32.320  15.789   3.274
58629W        W25412  15.237  25.180   0.884
58630W        W25413   7.840  36.066  13.891
58631W        W25414  24.003   5.348   0.639
58632W        W25415  16.742  42.242   3.238
58633W        W25416  26.581  30.155   4.616
58634W        W25417  15.745  31.482   1.683
58635W        W25418  13.621  27.645  11.140
58636W        W25419  43.096  37.453   1.708
58637W        W25420  13.801   7.491  12.778
58638W        W25421  13.901   3.038   1.940
58639W        W25422  13.576  44.679  14.309
58640W        W25423  23.315  14.170   1.886
58641W        W25424   1.800   8.903  10.834
58642W        W25425  15.990   8.740  13.711
58643W        W25426   8.210  40.371  14.906
58644W        W25427   4.783  32.593  13.188
58645W        W25428  40.132   0.518   5.151
58646W        W25429  24.500  32.262   1.161
58647W        W25430  16.610   4.899  11.766
58648W        W25431  27.387   3.279   0.793
58649W        W25432  19.384  21.026  11.199
58650W        W25433  13.615   8.719  12.396
58651W        W25434  32.050  13.567   0.734
58652W        W25435   8.839  20.067  13.079
58653W        W25436  24.570   9.929  14.863
58654W        W25437  44.289  32.096  14.312
58655W        W25438  38.472  14.217   2.617
58656W        W25439   2.899   7.365  14.923
58657W        W25440  10.837  10.804   0.475
58658W        W25441  32.111  21.408   1.861
58659W        W25442  23.121  14.321   3.307
58660W        W25443  31.152  26.399   3.353
58661W        W25444  24.287  19.609  11.522
58662W        W25445  26.834  41.514   5.531
58663W        W25446  41.510  25.334  14.223
58664W        W25447   0.822  21.303   3.934
58665W        W25448   9.727   3.428  14.921
58666W        W25449  17.510  41.751  12.536
58667W        W25450  17.236  38.814   2.752
58668W        W25451  43.164  36.112   3.164
58669W        W25452  23.125  33.635   4.826
58670W        W25453  15.813  34.759  13.037
58671W        W25454  17.176  24.725  13.857
58672W        W25455  31.723  24.521  13.026
58673W        W25456  34.219  17.306  14.094
58674W        W25457   0.918  16.107  13.872
58675W        W25458  29.078  44.722  11.157
58676W        W25459  24.295  18.361  11.569
58677W        W25460  32.623  37.082  12.971
58678W        W25461  43.207  29.064  11.192
58679W        W25462   7.472  13.158   1.606
58680W        W25463  15.233  31.867   1.443
58681W        W25464  14.373  24.240  11.189
58682W        W25465  17.269   6.207  12.968
58683W        W25466  17.749  40.428  10.767
58684W        W25467  19.977  28.160  12.222
58685W        W25468  31.119  13.860  11.552
58686W        W25469  20.245   0.348   1.296
58687W        W25470  11.552  11.713  13.894
58688W        W25471  13.085  39.041  11.723
58689W        W25472  29.447  44.859   4.366
58690W        W25473   8.632  39.196   2.130
58691W        W25474  11.862  15.320   2.746
58692W        W25475  33.296  43.402  12.030
58693W        W25476  44.008  12.754   4.965
58694W        W25477  41.034  12.050   4.041
58695W        W25478  32.113  22.590  14.425
58696W        W25479  18.666  16.119   1.256
58697W        W25480   3.360   2.200  10.755
58698W        W25481  38.090  28.912  11.547
58699W        W25482  42.365  40.113  11.112
58700W        W25483  38.625  37.923  10.920
58701W        W25484   5.703  36.127   0.376
58702W        W25485  35.573  34.187   1.270
58703W        W25486   4.795  24.025  14.050
58704W        W25487   1.288   1.269   4.580
58705W        W25488  11.701  23.531   1.959
58706W        W25489  11.097   2.283  11.534
58707W        W25490  20.987  33.653  13.923
58708W        W25491  23.725  33.035   4.929
58709W        W25492  10.118  42.355   4.726
58710W        W25493  39.797  40.747  12.587
58711W        W25494  25.227  10.825   0.572
58712W        W25495  12.541  41.076  10.821
58713W        W25496  24.697  35.058  11.171
58714W        W25497   8.279   2.210  11.169
58715W        W25498  24.051  39.351   2.279
58716W        W25499   8.155  32.590  13.158
58717W        W25500  24.103  36.227  11.203
58718W        W25501   1.252  15.170  11.941
58719W        W25502  42.100   3.409   9.923
58720W        W25503   2.477   3.976   0.028
58721W        W25504  20.121  38.289   0.031
58722W        W25505   2.496   3.180   0.342
58723W        W25506  15.311   6.791   1.935
58724W        W25507  12.037   7.228  12.381
58725W        W25508  21.071  13.663   3.209
58726W        W25509  31.952  38.852  11.053
58727W        W25510  36.372  26.768  10.354
58728W        W25511  42.029  38.499  12.450
58729W        W25512   0.952  29.002  12.987
58730W        W25513   6.234  15.142  13.520
58731W        W25514  16.542  22.069   4.650
58732W        W25515  27.526  27.775  11.626
58733W        W25516   0.465  34.853   1.285
58734W        W25517   8.648  24.936   0.922
58735W        W25518  24.615  31.002   3.750
58736W        W25519  39.436  19.707  13.872
58737W        W25520   5.673  10.946  11.572
58738W        W25521  27.639  20.499   4.618
58739W        W25522  13.456  41.012  14.366
58740W        W25523   7.124  19.981  11.588
58741W        W25524  17.995  24.995   4.571
58742W        W25525   2.099  19.787  12.560
58743W        W25526  13.721   6.045  13.409
58744W        W25527  34.481  13.384  11.768
58745W        W25528  44.397  37.299   1.247
58746W        W25529  16.871  18.080  13.444
58747W        W25530  12.354  19.042  11.993
58748W        W25531   1.039  18.720  11.495
58749W        W25532  11.719  15.990   0.326
58750W        W25533  16.872  34.964  14.403
58751W        W25534   5.397  21.083   3.933
58752W        W25535  29.115  31.147  13.549
58753W        W25536  14.692   4.980  11.556
58754W        W25537  21.067  38.762   3.697
58755W        W25538  17.690  33.354  13.793
58756W        W25539  31.145  24.172  12.500
58757W        W25540  35.935  20.651   4.773
58758W        W25541   6.624  41.930  13.562
58759W        W25542  13.342  32.857   0.885
58760W        W25543  15.990   1.319  14.647
58761W        W25544  11.005  19.256   2.287
58762W        W25545   5.413  37.596  11.024
58763W        W25546   2.697   3.054  12.070
58764W        W25547  42.189  13.156   2.209
58765W        W25548   7.647  44.710   4.895
58766W        W25549  17.456  28.717   3.207
58767W        W25550   2.807   3.990   1.379
58768W        W25551  25.335  43.867   0.824
58769W        W25552  37.353  23.210   0.728
58770W        W25553  40.824  23.648   1.772
58771W        W25554  13.780  26.927  14.874
58772W        W25555  26.876   8.607   1.436
58773W        W25556  28.923  36.179   2.190
58774W        W25557  15.846  43.037   0.425
58775W        W25558  28.114  37.858  13.974
58776W        W25559  24.128  35.924   1.974
58777W        W25560  15.077   2.502  11.551
58778W        W25561  36.149  36.349   3.780
58779W        W25562  22.251  21.701  13.392
58780W        W25563  31.528  15.059  14.376
58781W        W25564  10.853  29.668   2.197
58782W        W25565  44.922  36.573   2.344
58783W        W25566  14.432  44.991  11.607
58784W        W25567  39.438   4.203   4.519
58785W        W25568  35.371  39.532  10.701
58786W        W25569  10.468  41.061   0.291
58787W        W25570   0.230  30.113  14.475
58788W        W25571  10.243  25.269   5.097
58789W        W25572  11.765  42.588  10.955
58790W        W25573  36.995  24.107   2.346
58791W        W25574   1.308  23.116   2.689
58792W        W25575   1.317   5.629  14.855
58793W        W25576  31.925  35.291   4.573
58794W        W25577   9.198  29.585   3.159
58795W        W25578  20.142   6.251   0.135
58796W        W25579  35.951  10.597  13.053
58797W        W25580  30.597   9.201   4.541
58798W        W25581  19.026   8.808  14.914
58799W        W25582  31.959  17.282  12.387
58800W        W25583  30.979  23.139  13.864
58801W        W25584  26.137  26.419   3.382
58802W        W25585  24.376  32.765  11.146
58803W        W25586  23.525  35.472   2.817
58804W        W25587  32.151  42.946  14.919
58805W        W25588  25.526  11.907  14.418
58806W        W25589   5.689   0.826  11.586
58807W        W25590  19.561   5.494   0.672
58808W        W25591  30.565  28.252  14.588
58809W        W25592  38.000  14.023  13.612
58810W        W25593   0.753  11.671  14.902
58811W        W25594  22.725  12.243  13.888
58812W        W25595  13.851  20.802   0.806
58813W        W25596  12.895  20.686  14.200
58814W        W25597  17.788  35.884   4.074
58815W        W25598  18.243  35.483  11.130
58816W        W25599  37.317   0.847  11.414
58817W        W25600  20.247  25.107   0.480
58818W        W25601  13.324  18.713   4.451
58819W        W25602  26.944  19.701   1.165
58820W        W25603  38.870  23.501   2.166
58821W        W25604  16.814   1.938  11.740
58822W        W25605  20.130   1.317   4.034
58823W        W25606   4.419  31.562   3.594
58824W        W25607  29.861   2.277  13.997
58825W        W25608  29.872  16.170  13.360
58826W        W25609  37.557   1.476   0.394
58827W        W25610  22.371  41.866   0.535
58828W        W25611  27.426  11.791  11.003
58829W        W25612  14.256   7.512   2.200
58830W        W25613  39.601  32.349  14.526
58831W        W25614  27.114  20.221  13.342
58832W        W25615  18.738  22.518  10.734
58833W        W25616  22.425   3.544   1.317
58834W        W25617  39.443  17.526   2.973
58835W        W25618  12.021  42.291   3.044
58836W        W25619  43.958   1.990  11.900
58837W        W25620   3.664   3.101   1.854
58838W        W25621   6.192  25.551   4.658
58839W        W25622  14.322   6.246  14.328
58840W        W25623  22.131  29.459  13.303
58841W        W25624   3.046  13.336   1.109
58842W        W25625  25.742  42.489   1.576
58843W        W25626  32.994   0.700   1.231
58844W        W25627  38.106  36.265  12.991
58845W        W25628  33.507  10.709  13.777
58846W        W25629  26.626  25.220   1.219
58847W        W25630  10.379  40.978   2.581
58848W        W25631  15.122  20.031  10.630
58849W        W25632  16.053  36.638   0.757
58850W        W25633  25.239   5.666  13.914
58851W        W25634  27.159  19.455   2.213
58852W        W25635  44.362   7.177   3.579
58853W        W25636  30.116  31.198  14.344
58854W        W25637  30.286   2.161   1.266
58855W        W25638  14.601  36.105  14.348
58856W        W25639   2.242  17.753  10.634
58857W        W25640  22.575  11.749  12.151
58858W        W25641  42.672  44.014   4.302
58859W        W25642  39.055  39.422  13.398
58860W        W25643   9.341  17.625   4.450
58861W        W25644  15.591  39.272   2.719
58862W        W25645  39.767   9.684   3.321
58863W        W25646  34.888  16.180  12.840
58864W        W25647  25.569  44.769  13.445
58865W        W25648  34.868   3.239   0.980
58866W        W25649  36.351  33.476  12.534
58867W        W25650   1.243  24.917   3.219
58868W        W25651  35.055   8.242  10.596
58869W        W25652  10.377  21.847  13.419
58870W        W25653  34.094   4.389  11.270
58871W        W25654  40.921  11.594  12.934
58872W        W25655  14.084  35.147  13.416
58873W        W25656  22.654  33.902   3.642
58874W        W25657   5.433  16.837  10.784
58875W        W25658  15.282  17.019  12.368
58876W        W25659   4.384  40.918  11.170
58877W        W25660  18.950  24.771  12.079
58878W        W25661   2.954  31.217   3.128
58879W        W25662  31.579  15.379  13.947
58880W        W25663  25.112   5.934   0.024
58881W        W25664  41.931  10.350   3.363
58882W        W25665  31.059   1.685   0.355
58883W        W25666  36.509  40.822   1.422
58884W        W25667   5.734   9.503  12.618
58885W        W25668   2.231  35.439  14.295
58886W        W25669  42.271  26.121  12.422
58887W        W25670  16.610  24.228  12.739
58888W        W25671   8.484  17.859  10.701
58889W        W25672  24.562  34.425   3.632
58890W        W25673  30.110  31.718  14.352
58891W        W25674  37.351  43.285   3.513
58892W        W25675  16.097  34.781  14.265
58893W        W25676  11.583  28.987  13.448
58894W        W25677  42.712   5.338   2.818
58895W        W25678  44.125  20.482  12.865
58896W        W25679  26.757  34.944   0.456
58897W        W25680  19.021  20.510   4.680
58898W        W25681  10.286  44.288   3.179
58899W        W25682  38.882  27.639   3.804
58900W        W25683  36.363  25.202  11.999
58901W        W25684  29.655  40.331  13.605
58902W        W25685  32.612  31.886  12.087
58903W        W25686  23.600  14.556   1.665
58904W        W25687   5.491   5.083   4.169
58905W        W25688  19.217  35.393   2.905
58906W        W25689  19.152  14.644  14.065
58907W        W25690  18.383  37.851  10.766
58908W        W25691  10.731  17.819   4.473
58909W        W25692   0.577  34.818  13.397
58910W        W25693  41.249  13.370   2.184
58911W        W25694  17.295  42.353  11.138
58912W        W25695  34.619  36.590   0.563
58913W        W25696  27.977  17.130  11.178
58914W        W25697  11.530  26.335   4.137
58915W        W25698  28.718   1.417   2.685
58916W        W25699  22.727  40.318  12.626
58917W        W25700  24.300  28.420   0.703
58918W        W25701   2.818  11.416  10.446
58919W        W25702  13.528  14.127  13.563
58920W        W25703  10.670  43.943  10.401
58921W        W25704  22.906   0.234   4.185
58922W        W25705  13.067  14.077   0.807
58923W        W25706  23.645  21.050  12.295
58924W        W25707  38.774  41.185   5.037
58925W        W25708  32.616  26.741   1.427
58926W        W25709   5.709  26.328   3.725
58927W        W25710  11.368   9.916   3.605
58928W        W25711  18.605  42.837   2.647
58929W        W25712   5.977  22.197   4.621
58930W        W25713  41.135  14.872  11.555
58931W        W25714   6.508  20.511  12.847
58932W        W25715  12.287   9.405  13.469
58933W        W25716   4.004   3.497   1.724
58934W        W25717  18.716  33.641   1.798
58935W        W25718   4.747   9.161   3.589
58936W        W25719  40.870  20.218   1.456
58937W        W25720  17.736  43.521  11.507
58938W        W25721  23.933  29.174   2.346
58939W        W25722  16.535  28.677  11.223
58940W        W25723  37.002  25.630   2.070
58941W        W25724   6.790  15.793   2.204
58942W        W25725  43.124  44.707  11.680
58943W        W25726   2.537  15.350   0.772
58944W        W25727  14.961  42.398   1.341
58945W        W25728  44.308  14.266   0.598
58946W        W25729  18.236  31.058   3.222
58947W        W25730   1.769  24.090  11.681
58948W        W25731  23.252  36.778  11.819
58949W        W25732   8.589  15.584   1.776
58950W        W25733  41.018   5.824   4.479
58951W        W25734  44.940   7.821  13.821
58952W        W25735  11.765   3.187  12.452
58953W        W25736  35.035  20.711   1.279
58954W        W25737  24.463  11.986  12.512
58955W        W25738  19.297  30.909   1.918
58956W        W25739  16.123   3.631  11.675
58957W        W25740  10.462   5.867   1.921
58958W        W25741   1.284  13.197  11.073
58959W        W25742  37.092  42.478  14.351
58960W        W25743  20.079  40.477  10.842
58961W        W25744  13.412  22.596  12.864
58962W        W25745   9.216  13.597   4.548
58963W        W25746  26.013  10.877  13.082
58964W        W25747   7.634   0.462   0.667
58965W        W25748  40.226  41.637  11.953
58966W        W25749   2.485  14.703   4.239
58967W        W25750   5.340   5.412  11.481
58968W        W25751  20.584  42.078   4.171
58969W        W25752  42.056  16.303   1.749
58970W        W25753  30.150  30.694  14.345
58971W        W25754  21.509  18.046  14.684
58972W        W25755   0.807  29.874   3.380
58973W        W25756  38.446   9.305  14.839
58974W        W25757  39.999   6.002  13.844
58975W        W25758  14.094  43.030  12.121
58976W        W25759  40.039  23.855   4.213
58977W        W25760  42.089  14.097  12.130
58978W        W25761  19.234  16.523   2.818
58979W        W25762   0.909  26.363   4.847
58980W        W25763  19.302   7.405  12.535
58981W        W25764  27.138  17.178  14.851
58982W        W25765  24.513  25.850   4.073
58983W        W25766  14.349  25.514  11.942
58984W        W25767  44.445  11.691  13.887
58985W        W25768  13.850  24.026   1.761
58986W        W25769   2.381  29.199   2.219
58987W        W25770  30.967  25.537   2.692
58988W        W25771  26.644   6.257   1.601
58989W        W25772  17.744  14.743   3.186
58990W        W25773  19.189   1.931  10.749
58991W        W25774   9.174  30.522   1.604
58992W        W25775   9.812  15.054   1.446
58993W        W25776   0.928  26.461   0.362
58994W        W25777  12.104  32.172  11.281
58995W        W25778  40.845  14.639  14.412
58996W        W25779  30.910  22.479   4.679
58997W        W25780  31.669  17.562   2.460
58998W        W25781  16.784  28.672   0.476
58999W        W25782   0.002  17.794  14.999
59000W        W25783  30.347  27.591  12.405
59001W        W25784  41.972   5.169  14.532
59002W        W25785  19.206   6.782  10.939
59003W        W25786  14.066  26.283   0.923
59004W        W25787  27.546   2.069   1.889
59005W        W25788  19.298   4.966  14.341
59006W        W25789  22.369   6.923   3.767
59007W        W25790   0.053   0.012  12.053
59008W        W25791  40.556  27.498  13.405
59009W        W25792  13.093  24.746  11.091
59010W        W25793  22.194   2.399   1.413
59011W        W25794  40.545  44.489  12.152
59012W        W25795  31.400   2.495  13.450
59013W        W25796  21.020   6.425  13.510
59014W        W25797  44.396   6.779  14.515
59015W        W25798  26.937   9.414  13.434
59016W        W25799  23.966   1.457   0.938
59017W        W25800  15.707   0.108   3.124
59018W        W25801  33.371  22.298   4.932
59019W        W25802  10.876  11.447  11.567
59020W        W25803  23.658  10.687   4.175
59021W        W25804  18.235  24.644   2.737
59022W        W25805  16.517  25.622  14.973
59023W        W25806  33.886  13.689  12.761
59024W        W25807  27.733   7.291   0.851
59025W        W25808  20.145  32.543   0.531
59026W        W25809  44.931  38.592  11.072
59027W        W25810  12.364  22.544  10.971
59028W        W25811   1.898   4.882   1.939
59029W        W25812  14.220  34.514  11.066
59030W        W25813   7.102  14.178  10.537
59031W        W25814  11.227  36.618  11.496
59032W        W25815   1.111  20.482   3.663
59033W        W25816   0.414  32.490  12.999
59034W        W25817  10.265  34.485  13.461
59035W        W25818  30.671  34.456   3.461
59036W        W25819  15.455  31.927   2.396
59037W        W25820  37.442  11.176   2.214
59038W        W25821  28.598  28.182   4.420
59039W        W25822   0.753  20.901   9.630
59040W        W25823  19.420  43.227  13.899
59041W        W25824  11.358   7.120  13.536
59042W        W25825  24.114  29.286  13.675
59043W        W25826  12.063  37.474  14.044
59044W        W25827   7.773   3.300  12.870
59045W        W25828   5.843   2.006  14.922
59046W        W25829  16.319  21.056   2.695
59047W        W25830  12.510   6.569   4.952
59048W        W25831  42.731  36.350  12.022
59049W        W25832  13.264  41.296   1.265
59050W        W25833  43.100  38.293  11.146
59051W        W25834  33.194  13.927   2.800
59052W        W25835  20.618  38.800   0.392
59053W        W25836   7.220  32.477   0.415
59054W        W25837  20.167   0.318  11.539
59055W        W25838   1.917  33.326   1.442
59056W        W25839  35.296  26.023   3.322
59057W        W25840   5.630  11.166   1.236
59058W        W25841  31.955  24.670   1.891
59059W        W25842  41.249  44.700  12.748
59060W        W25843  12.128  37.519  14.583
59061W        W25844  21.144   6.285   1.183
59062W        W25845  17.673  32.900  12.103
59063W        W25846  43.854  15.820  10.827
59064W        W25847  16.315  13.745  14.081
59065W        W25848  10.200  44.279   1.406
59066W        W25849  43.429  22.439   2.725
59067W        W25850  27.690  14.074   5.072
59068W        W25851  40.778  24.019   4.592
59069W        W25852  39.881  44.536   1.468
59070W        W25853  29.654  31.433   3.336
59071W        W25854  39.808   3.636   1.334
59072W        W25855   7.635  20.095   1.617
59073W        W25856  18.033  39.844   4.178
59074W        W25857  20.926  39.464   3.310
59075W        W25858  14.551   7.844  14.451
59076W        W25859   7.082  29.770  11.391
59077W        W25860  12.475   4.155  11.985
59078W        W25861  15.178  26.036  14.958
59079W        W25862  40.070   2.790  12.283
59080W        W25863  41.686  22.797  12.404
59081W        W25864  21.376  22.412   3.977
59082W        W25865  41.452  15.723  11.686
59083W        W25866  25.199   9.076   4.506
59084W        W25867  35.576  30.000  11.117
59085W        W25868  42.199  26.632  12.446
59086W        W25869  39.973  15.360   3.916
59087W        W25870  31.503   2.319   0.854
59088W        W25871  16.816  18.363   1.295
59089W        W25872  10.657  22.507   1.171
59090W        W25873  32.029  26.779  11.039
59091W        W25874  30.384  25.016   0.492
59092W        W25875  20.247  23.780   4.718
59093W        W25876  38.451  36.314   3.195
59094W        W25877  20.460  21.603  10.892
59095W        W25878  19.959  40.402   2.365
59096W        W25879   2.775  43.441   3.307
59097W        W25880  18.097   2.449   1.344
59098W        W25881  19.188  27.988  12.069
59099W        W25882   1.427   3.344   2.153
59100W        W25883  17.784  43.552   3.643
59101W        W25884   4.522  24.269   1.832
59102W        W25885   3.933  35.468  10.802
59103W        W25886  12.576  14.865   1.425
59104W        W25887  24.995  14.620  13.309
59105W        W25888  32.000  34.386  11.653
59106W        W25889   6.729   4.582  11.101
59107W        W25890  15.168  37.577   0.261
59108W        W25891  23.555  13.157   1.401
59109W        W25892  43.554  17.664  14.851
59110W        W25893  11.663  29.947   1.399
59111W        W25894  29.344  37.363  10.558
59112W        W25895  32.618  10.276  12.930
59113W        W25896  20.499  35.179   3.347
59114W        W25897  16.795  18.432   4.142
59115W        W25898   5.962  29.352   1.768
59116W        W25899  41.573  18.168  12.535
59117W        W25900  39.895  27.181   4.283
59118W        W25901  38.595  28.127   0.417
59119W        W25902  12.674  35.376  12.498
59120W        W25903   7.693  14.339   2.709
59121W        W25904  13.853  34.732  14.611
59122W        W25905  38.780   9.805  13.958
59123W        W25906  35.256  15.826  14.964
59124W        W25907  18.334  38.382   4.130
59125W        W25908  44.122  21.874   0.877
59126W        W25909   7.904   8.599  12.623
59127W        W25910  17.450  37.782   2.358
59128W        W25911  23.027   2.755   1.744
59129W        W25912  34.997   2.712  14.684
59130W        W25913  24.313  12.856   1.409
59131W        W25914   3.701   1.006   0.873
59132W        W25915   7.649  33.873  11.543
59133W        W25916  10.800  42.795   0.024
59134W        W25917  36.220  27.669  14.385
59135W        W25918  10.834   4.286   4.340
59136W        W25919   6.409   0.336   2.788
59137W        W25920  22.629  16.265  14.453
59138W        W25921  13.213  12.651   1.125
59139W        W25922  42.003   4.653  10.955
59140W        W25923  41.744  20.216   2.140
59141W        W25924  32.879   6.165   3.997
59142W        W25925  20.236   0.919   4.366
59143W        W25926  36.762  30.609  11.680
59144W        W25927  19.452  14.063   2.297
59145W        W25928   9.908  15.701   2.265
59146W        W25929  18.515  35.279   4.071
59147W        W25930   7.871  25.494  10.704
59148W        W25931  10.696  26.873   1.260
59149W        W25932  21.807  40.416   0.541
59150W        W25933   0.861  44.030   0.115
59151W        W25934   1.417  27.120   3.627
59152W        W25935  24.028   6.632   2.798
59153W        W25936  37.822  20.623  12.102
59154W        W25937  17.047  35.864  14.965
59155W        W25938  37.938  33.210  13.318
59156W        W25939  27.065  32.138  14.224
59157W        W25940  22.132  28.794   4.278
59158W        W25941  28.899  14.515   2.190
59159W        W25942   8.209  37.538  10.717
59160W        W25943  25.166  19.514   1.906
59161W        W25944  19.807  34.565  14.497
59162W        W25945   5.441  37.375   0.382
59163W        W25946   5.778  18.566  14.942
59164W        W25947  33.197  30.850  13.404
59165W        W25948  24.394  12.232   2.848
59166W        W25949  17.350  36.409  11.547
59167W        W25950  17.051  18.093   0.901
59168W        W25951  21.124  22.501  14.114
59169W        W25952  43.912   9.744  13.396
59170W        W25953  39.205  42.826  11.525
59171W        W25954   5.979  32.202  13.206
59172W        W25955  18.540  41.453   4.091
59173W        W25956   6.398  36.927   3.644
59174W        W25957  25.844  16.120  12.078
59175W        W25958   0.520  32.471   2.362
59176W        W25959  15.955  13.837   4.959
59177W        W25960   7.748  20.267  14.774
59178W        W25961  42.806  29.869   0.878
59179W        W25962   1.670  20.986  12.406
59180W        W25963   3.618  24.055  12.173
59181W        W25964   6.532   1.825   3.106
59182W        W25965  37.428  14.061   3.711
59183W        W25966  17.106   2.367  10.574
59184W        W25967   4.745  23.050  13.598
59185W        W25968  12.064  41.915   0.803
59186W        W25969  12.617  18.695   0.012
59187W        W25970  20.767   2.348   3.778
59188W        W25971   7.525  26.504   0.712
59189W        W25972  20.173   8.690  12.416
59190W        W25973  13.334  39.996   2.261
59191W        W25974  32.057   4.184   4.230
59192W        W25975   6.805   5.185  14.838
59193W        W25976  11.489  42.464   1.608
59194W        W25977   8.245   8.832  13.374
59195W        W25978   1.923  25.601  10.771
59196W        W25979  26.020  18.614   4.249
59197W        W25980   0.359  15.314  12.039
59198W        W25981  12.821  29.658   3.721
59199W        W25982  42.313  39.204   2.848
59200W        W25983  37.466  32.663  11.608
59201W        W25984  23.520   0.302  10.523
59202W        W25985  28.677  12.929  14.502
59203W        W25986  36.144  28.110   4.554
59204W        W25987  28.874  26.711  13.492
59205W        W25988   0.443  39.408  14.950
59206W        W25989  35.380  40.070  11.672
59207W        W25990  40.405  20.159   3.294
59208W        W25991  31.689  27.182  10.882
59209W        W25992  34.162   0.980  12.098
59210W        W25993  25.300  21.052   2.924
59211W        W25994  22.186  39.387   2.388
59212W        W25995  19.253  12.759  12.026
59213W        W25996  16.230  35.813   1.856
59214W        W25997  20.803  17.062   3.065
59215W        W25998  43.833  25.584   2.596
59216W        W25999  32.712  30.060  11.970
59217W        W26000  40.795  44.547  13.949
59218W        W26001  36.018  37.830   2.732
59219W        W26002  36.774   2.515  13.479
59220W        W26003   2.651   2.582   4.228
59221W        W26004  40.263  17.203   1.391
59222W        W26005  14.049  42.406   0.172
59223W        W26006  38.208  39.225   0.414
59224W        W26007  31.452  41.270  14.988
59225W        W26008   3.716  20.074   1.722
59226W        W26009  31.111  28.914  14.755
59227W        W26010   8.628  42.880  13.735
59228W        W26011   9.032  35.066   4.182
59229W        W26012   2.787  41.744  13.025
59230W        W26013   6.733   6.951   0.256
59231W        W26014  19.621  32.941   3.687
59232W        W26015  22.738  21.729  14.997
59233W        W26016  16.498   3.694   1.295
59234W        W26017  25.151   4.207   2.335
59235W        W26018   6.737  19.614  10.964
59236W        W26019  37.032   7.230  13.494
59237W        W26020   6.696  25.040   2.742
59238W        W26021  42.327   9.856  14.970
59239W        W26022  42.989  28.934   2.150
59240W        W26023  19.715  26.293  14.345
59241W        W26024  19.536   3.745   2.469
59242W        W26025   0.088  11.116  11.597
59243W        W26026  41.931  28.701  13.859
59244W        W26027  21.190   3.149   0.176
59245W        W26028  24.352  20.873  11.159
59246W        W26029   4.663  37.924   2.765
59247W        W26030   6.332   9.766   1.730
59248W        W26031  37.890  17.266  12.645
59249W        W26032  39.949   7.895   0.775
59250W        W26033  28.181  32.404  13.476
59251W        W26034  34.878  11.707  10.577
59252W        W26035  28.923  29.481   3.191
59253W        W26036  33.148  32.022  13.011
59254W        W26037  14.150  28.694  11.404
59255W        W26038  41.859  39.063   3.158
59256W        W26039  41.718  12.188  11.274
59257W        W26040   9.766  21.161  10.062
59258W        W26041  14.186  40.373   2.263
59259W        W26042  26.173  43.354  11.550
59260W        W26043  15.081  29.431  13.612
59261W        W26044   5.622  26.221   2.800
59262W        W26045  32.296  21.707  12.948
59263W        W26046  42.935  36.108  10.702
59264W        W26047  24.159  32.378   3.879
59265W        W26048  37.635  44.858   1.826
59266W        W26049  15.119   7.358   0.212
59267W        W26050  32.070  15.555   5.004
59268W        W26051   7.281  31.129   0.640
59269W        W26052  13.580  44.338  11.543
59270W        W26053  37.388  27.321  12.021
59271W        W26054  28.854  26.093  13.153
59272W        W26055  26.680  44.340   9.984
59273W        W26056  21.709  10.086   0.891
59274W        W26057   5.888  37.633   0.289
59275W        W26058  21.000  25.131   1.792
59276W        W26059  10.092  10.106  12.657
59277W        W26060  25.487  23.123  13.084
59278W        W26061  33.843  43.187  14.964
59279W        W26062  21.716  25.801  12.943
59280W        W26063  44.697   8.388   3.267
59281W        W26064  38.707   6.331   3.165
59282W        W26065  41.415  25.800   4.959
59283W        W26066  41.074  12.832  12.570
59284W        W26067  36.436  23.767  12.013
59285W        W26068   3.033   3.428   3.148
59286W        W26069  37.000  13.794  13.684
59287W        W26070  38.288  30.640   5.129
59288W        W26071  28.989  28.785   4.796
59289W        W26072  31.811  18.105  11.058
59290W        W26073   7.499  28.113   0.032
59291W        W26074  31.592  13.422   2.607
59292W        W26075  17.508  26.277   3.176
59293W        W26076   5.318   8.884  14.897
59294W        W26077  14.199  32.552   3.755
59295W        W26078  33.608  16.128  10.969
59296W        W26079  17.302   6.238   2.777
59297W        W26080   2.794  39.909   3.309
59298W        W26081  12.401  37.862   1.411
59299W        W26082   0.973   1.862  10.624
59300W        W26083  30.554  23.158  11.197
59301W        W26084  18.982  24.225  11.596
59302W        W26085   0.826   7.508   3.784
59303W        W26086  24.585  13.242   3.432
59304W        W26087  23.391  36.035   3.116
59305W        W26088  31.155  27.267   2.552
59306W        W26089  36.642  24.111  14.974
59307W        W26090  17.925   6.035  13.273
59308W        W26091  28.792  17.120   2.831
59309W        W26092  15.828   8.748   0.635
59310W        W26093  32.635  31.564  13.639
59311W        W26094  40.193   7.031  10.206
59312W        W26095  13.482  37.258  14.444
59313W        W26096  11.395  19.429  12.664
59314W        W26097  36.993  36.452  14.937
59315W        W26098  29.645  25.216  13.856
59316W        W26099  36.571  24.867  13.370
59317W        W26100  12.676  42.271   0.828
59318W        W26101   6.423  14.135  11.227
59319W        W26102  33.566   8.335   3.649
59320W        W26103  28.838   3.316  13.314
59321W        W26104  31.136  13.235  11.266
59322W        W26105   7.196   2.894   4.574
59323W        W26106  24.052   6.846  10.431
59324W        W26107   3.024  13.216  13.327
59325W        W26108  22.226  28.668   3.791
59326W        W26109   2.940   4.375   3.365
59327W        W26110  24.946  39.511   0.962
59328W        W26111  16.826  35.003   3.638
59329W        W26112  34.907  18.031   2.847
59330W        W26113  24.644  24.237   2.509
59331W        W26114  35.012   8.810  13.003
59332W        W26115  28.182  19.270   1.711
59333W        W26116  19.789  16.349   1.243
59334W        W26117  30.112  17.664   2.646
59335W        W26118  17.849  13.171  11.675
59336W        W26119   5.226   3.876  12.086
59337W        W26120  27.515  37.243   4.567
59338W        W26121   9.690  28.068  14.392
59339W        W26122   2.356  20.271   0.378
59340W        W26123  36.923  34.135   0.166
59341W        W26124   5.415  43.104  13.004
59342W        W26125   9.266   3.444   3.290
59343W        W26126   3.749   4.950   3.197
59344W        W26127  33.048  41.981   3.801
59345W        W26128  37.790  18.471   4.056
59346W        W26129   5.365  31.440  14.499
59347W        W26130  44.535   7.803   1.607
59348W        W26131  39.728  25.952  14.337
59349W        W26132  21.619  16.763  12.878
59350W        W26133  23.761  42.208   3.579
59351W        W26134  21.325   0.768   3.648
59352W        W26135  36.987  21.989  12.287
59353W        W26136  17.099   1.941   2.302
59354W        W26137  23.048  33.980  13.515
59355W        W26138   4.902  41.416  14.451
59356W        W26139  43.327  38.041   1.034
59357W        W26140  20.504  39.280   3.031
59358W        W26141  15.156   8.394  12.607
59359W        W26142  39.240  28.996   2.209
59360W        W26143   7.282   4.760   4.536
59361W        W26144  33.849   9.476  11.729
59362W        W26145  37.397  41.452   3.039
59363W        W26146  30.373  33.488  12.036
59364W        W26147  17.884  39.592   1.333
59365W        W26148  24.948   5.370   0.750
59366W        W26149  34.735  15.486  10.126
59367W        W26150  17.616  16.814   3.171
59368W        W26151  21.072   1.063  13.486
59369W        W26152  13.369  36.445  12.923
59370W        W26153  36.856  37.931   1.245
59371W        W26154  39.002   2.251  13.046
59372W        W26155  26.844   4.724   4.248
59373W        W26156  32.662   5.050   4.025
59374W        W26157  44.877   0.356   1.692
59375W        W26158  14.087  40.897   1.391
59376W        W26159  40.858  12.057  13.868
59377W        W26160  16.282   2.699   1.289
59378W        W26161  43.909  22.584   0.870
59379W        W26162  35.516  18.090   0.285
59380W        W26163  16.825  21.151  13.439
59381W        W26164  23.971  28.087  14.395
59382W        W26165   6.123  32.870   3.309
59383W        W26166  43.764   8.756  14.155
59384W        W26167   6.304  43.867  14.112
59385W        W26168  41.945  36.754  13.987
59386W        W26169  16.154   1.780  11.080
59387W        W26170  28.526  24.034  11.032
59388W        W26171  34.423  25.437   2.400
59389W        W26172  44.205  25.449  14.190
59390W        W26173  35.179  32.043  12.834
59391W        W26174  28.403  43.428  13.057
59392W        W26175  20.640   7.076  12.570
59393W        W26176  18.222  21.517  14.419
59394W        W26177  20.701  25.205  11.562
59395W        W26178   0.753   5.989   4.581
59396W        W26179   3.786  35.909   1.230
59397W        W26180  24.674  20.478   0.918
59398W        W26181  12.741  13.148   3.768
59399W        W26182   6.102   1.304  11.871
59400W        W26183  35.588  21.540  14.751
59401W        W26184  43.403  15.953   1.933
59402W        W26185   2.833  16.987   2.966
59403W        W26186   4.371   0.022  10.813
59404W        W26187  24.387   5.705  14.316
59405W        W26188  43.243   1.848  14.915
59406W        W26189  30.231  19.998  11.043
59407W        W26190   2.010  21.087  12.031
59408W        W26191  40.763   0.439  12.708
59409W        W26192   9.239   4.483   3.222
59410W        W26193  24.291  28.925  11.139
59411W        W26194  15.729  23.446  12.840
59412W        W26195  44.744   7.664  14.320
59413W        W26196  37.227  12.551  11.222
59414W        W26197  23.644  19.961   0.899
59415W        W26198  17.469  34.450  14.683
59416W        W26199  12.445  15.305   4.209
59417W        W26200   8.852  25.724  14.331
59418W        W26201  14.151  35.537   0.981
59419W        W26202   1.054  29.443   0.475
59420W        W26203  26.088   8.167   1.263
59421W        W26204  27.714  25.011   0.946
59422W        W26205  10.019  14.216   1.865
59423W        W26206  39.487  18.543  13.234
59424W        W26207   4.512  26.517   4.169
59425W        W26208  19.738  26.118   3.327
59426W        W26209   7.872  41.227  13.455
59427W        W26210  20.672  12.662   2.259
59428W        W26211   5.624   1.198  13.126
59429W        W26212  37.503  16.409   1.863
59430W        W26213  26.750  23.943   4.081
59431W        W26214   8.505   2.814   3.604
59432W        W26215  19.457   0.071   2.963
59433W        W26216  41.496  40.875  12.389
59434W        W26217  16.810  37.575  12.725
59435W        W26218  30.976  25.784   1.855
59436W        W26219   1.494  16.264  10.765
59437W        W26220  37.595  40.938   4.626
59438W        W26221  41.470  14.276   2.673
59439W        W26222  16.094   3.936   1.519
59440W        W26223  16.379  42.841   4.618
59441W        W26224  44.548  15.316   2.765
59442W        W26225  16.593  16.992   1.749
59443W        W26226  18.554  34.163   1.039
59444W        W26227  24.138  21.720  12.486
59445W        W26228  39.991  33.740  11.198
59446W        W26229  17.833  19.749  12.246
59447W        W26230   0.418  10.350   2.728
59448W        W26231  10.486  29.675  14.792
59449W        W26232  43.193  28.597  14.501
59450W        W26233  14.464  35.808   4.189
59451W        W26234  14.268  13.445  11.106
59452W        W26235  35.475   8.707   4.614
59453W        W26236  40.978  24.646  14.451
59454W        W26237  11.272  12.619  13.007
59455W        W26238  42.192  20.668   2.624
59456W        W26239  44.538  32.425   1.361
59457W        W26240  34.434  17.127  13.327
59458W        W26241  43.789  11.284   2.684
59459W        W26242  44.803  11.797  13.060
59460W        W26243  35.526   2.173   4.570
59461W        W26244  16.835  44.555  12.983
59462W        W26245  19.599  20.064   1.618
59463W        W26246  29.673  28.684  11.949
59464W        W26247  37.019  20.667  13.861
59465W        W26248   6.748  44.246  10.712
59466W        W26249  21.821   0.758   3.548
59467W        W26250   8.390  13.275  12.722
59468W        W26251   3.351  44.697  11.936
59469W        W26252  42.301   0.228  12.163
59470W        W26253  31.567  29.452  14.306
59471W        W26254   4.621  17.112   4.564
59472W        W26255  35.957  19.006  12.137
59473W        W26256  16.888  35.841   4.035
59474W        W26257  42.280   4.324   0.718
59475W        W26258  27.183  22.123  11.000
59476W        W26259  41.347  33.980   1.406
59477W        W26260  22.984  25.703  11.561
59478W        W26261  29.893  43.218   2.346
59479W        W26262  17.330  32.966   2.780
59480W        W26263  34.509  40.630   2.704
59481W        W26264  26.111  20.979   0.054
59482W        W26265  20.687   1.723   3.228
59483W        W26266  34.491  43.473  13.381
59484W        W26267  16.184  29.905   4.340
59485W        W26268  18.557  15.126  14.592
59486W        W26269  28.616  11.331  10.681
59487W        W26270  22.939  19.193  14.490
59488W        W26271  34.963  22.735  10.677
59489W        W26272   5.601  36.523  11.104
59490W        W26273   5.341  43.366   0.796
59491W        W26274  25.938  20.072   3.854
59492W        W26275  37.437  43.056   1.391
59493W        W26276  38.936  10.826  12.632
59494W        W26277  40.037  18.327   3.465
59495W        W26278  13.063  23.982   2.268
59496W        W26279   0.369   3.315   3.273
59497W        W26280  10.411  10.205  11.135
59498W        W26281   2.275  31.472   0.951
59499W        W26282  27.531  22.787   1.308
59500W        W26283  35.865  10.918   4.254
59501W        W26284   3.930  33.937   0.939
59502W        W26285  37.740   6.422  10.083
59503W        W26286  33.617  36.009   4.558
59504W        W26287  15.114  11.297   0.178
59505W        W26288  35.529  31.861   3.155
59506W        W26289  41.738  15.568  12.092
59507W        W26290   0.481  13.421  10.594
59508W        W26291  44.374  12.461   2.345
59509W        W26292   7.911  18.660  14.027
59510W        W26293  37.953  14.932  11.372
59511W        W26294   6.699  44.930   2.918
59512W        W26295  42.213   9.150  12.975
59513W        W26296  19.168  15.768  14.973
59514W        W26297   1.081  29.451  10.428
59515W        W26298  16.460  32.858  13.898
59516W        W26299  14.146  16.699  12.370
59517W        W26300  43.874  37.911   4.815
59518W        W26301  41.759   9.346  14.323
59519W        W26302  30.219  21.084   2.844
59520W        W26303   7.922  27.060  13.653
59521W        W26304  16.796  30.658   1.428
59522W        W26305   9.140  40.885   0.752
59523W        W26306  41.822  17.461  11.902
59524W        W26307  11.108   8.897   0.880
59525W        W26308  25.473  11.230  13.380
59526W        W26309  17.534  26.413  10.641
59527W        W26310  34.173  14.769   3.262
59528W        W26311  44.419   6.031  12.005
59529W        W26312  12.541   4.422  14.931
59530W        W26313  39.558  34.903  14.346
59531W        W26314   3.206  44.792  14.272
59532W        W26315   0.883  14.346   1.314
59533W        W26316  36.815   4.780   2.280
59534W        W26317   8.665  15.895  11.094
59535W        W26318  17.135  21.665  10.101
59536W        W26319  27.570  14.522  13.920
59537W        W26320  26.366   7.640  11.135
59538W        W26321  15.475  35.078  14.838
59539W        W26322  37.428  30.351   1.868
59540W        W26323   1.357   1.267  12.582
59541W        W26324  36.995  44.064   3.238
59542W        W26325  37.596   9.289   3.574
59543W        W26326  23.040   0.576  14.409
59544W        W26327  16.234  11.380  14.491
59545W        W26328  28.300  34.409   1.224
59546W        W26329  29.114  12.350   4.123
59547W        W26330   9.786   0.954   0.594
59548W        W26331  32.000  19.615   0.376
59549W        W26332  11.319  21.729   1.500
59550W        W26333  37.606  16.792   2.729
59551W        W26334   1.943  10.497   1.004
59552W        W26335  37.009  19.538   4.142
59553W        W26336   3.948  41.768   0.038
59554W        W26337  10.173  10.351   3.672
59555W        W26338   8.693  23.317  12.478
59556W        W26339   2.993  14.733   4.165
59557W        W26340  30.386  31.284  11.350
59558W        W26341  18.351  23.089   4.204
59559W        W26342  10.588  28.133   4.646
59560W        W26343  14.649  37.167  10.784
59561W        W26344  35.430  25.479  11.059
59562W        W26345  35.677  44.541  10.996
59563W        W26346   5.178   2.963   4.126
59564W        W26347  30.076  44.904  11.821
59565W        W26348  36.267  13.269  13.612
59566W        W26349  18.102  12.396  12.460
59567W        W26350  44.479  29.477   2.230
59568W        W26351  13.855  14.637   0.286
59569W        W26352  36.430  10.382   0.447
59570W        W26353  37.277  25.916  12.020
59571W        W26354  38.738  19.036  12.947
59572W        W26355  26.240   4.246  13.843
59573W        W26356  13.980  14.831   2.740
59574W        W26357   7.658  42.665   4.147
59575W        W26358  28.456  21.525   2.859
59576W        W26359  13.821  41.047   1.801
59577W        W26360  18.608  23.230   2.880
59578W        W26361   0.530  24.977   0.841
59579W        W26362  32.870  27.660  10.632
59580W        W26363   8.859  15.732   2.235
59581W        W26364  44.478  40.985  13.346
59582W        W26365  16.035  34.519  10.663
59583W        W26366  37.449  38.292   0.409
59584W        W26367  30.397  15.202   1.427
59585W        W26368   8.219  23.143   1.387
59586W        W26369  18.245  21.006  13.079
59587W        W26370  30.887  19.730  13.347
59588W        W26371   6.312  40.719   3.219
59589W        W26372  41.597  21.544  12.846
59590W        W26373  30.839  10.948   2.180
59591W        W26374  10.684  15.806   1.181
59592W        W26375   6.658  37.943  12.960
59593W        W26376   9.706  29.973  13.295
59594W        W26377  34.258  25.991  12.573
59595W        W26378  12.902   3.774   3.784
59596W        W26379   2.412  18.046  13.947
59597W        W26380  44.453  25.607   4.864
59598W        W26381   6.421   0.780  12.976
59599W        W26382  38.844   9.763   4.945
59600W        W26383   2.842  42.817  14.137
59601W        W26384  23.585  21.285  10.561
59602W        W26385  12.845  43.729  10.935
59603W        W26386  28.514  36.599   1.693
59604W        W26387  40.100  34.162   3.772
59605W        W26388  42.340  32.509  14.961
59606W        W26389  30.894  25.121   0.371
59607W        W26390  22.144  43.402   2.274
59608W        W26391  25.995   8.448  13.419
59609W        W26392  28.198  39.929  13.908
59610W        W26393  13.839  18.659   4.307
59611W        W26394  41.337   5.673   3.550
59612W        W26395  10.191   1.576   1.774
59613W        W26396  17.677  44.490  14.580
59614W        W26397   6.910  13.854   0.346
59615W        W26398   7.154  31.362  12.795
59616W        W26399  12.048  17.864  14.042
59617W        W26400  41.376  44.533  14.976
59618W        W26401  16.945   7.307  13.380
59619W        W26402   1.268  37.501  10.557
59620W        W26403  22.273  16.549  10.574
59621W        W26404  41.954  33.836   4.157
59622W        W26405   0.998  34.602  11.332
59623W        W26406  18.800  22.612   1.662
59624W        W26407  18.831  24.149  12.877
59625W        W26408  31.022  32.842   2.151
59626W        W26409   1.920  34.818   1.353
59627W        W26410  14.880  15.613  13.326
59628W        W26411   8.171   4.859  12.569
59629W        W26412  28.579  22.264  12.573
59630W        W26413   1.799  38.874  14.445
59631W        W26414  13.139  17.293   3.680
59632W        W26415  42.326  39.267   0.866
59633W        W26416   2.942  40.409   2.608
59634W        W26417  10.165   2.920  14.485
59635W        W26418  28.882   8.262  12.174
59636W        W26419  25.726   3.731  13.935
59637W        W26420  20.283  35.429   2.951
59638W        W26421  30.591  39.021   4.546
59639W        W26422  19.902   7.104  14.888
59640W        W26423   5.695  30.606  14.202
59641W        W26424   9.201  40.004   3.191
59642W        W26425  23.320  44.452  12.164
59643W        W26426  12.157  13.379  10.898
59644W        W26427   5.821  18.153  11.133
59645W        W26428  15.636   6.593  14.417
59646W        W26429  28.823   6.362  11.025
59647W        W26430  27.692  14.577   4.159
59648W        W26431  24.419  23.393   2.772
59649W        W26432  20.833  30.119  13.255
59650W        W26433  36.860  15.327   1.384
59651W        W26434  11.693  43.834   3.680
59652W        W26435  12.809   2.068  13.374
59653W        W26436  34.949  37.344   0.771
59654W        W26437   3.274  28.028  10.795
59655W        W26438  42.009  32.074  11.908
59656W        W26439  12.973   6.700  12.275
59657W        W26440   0.299  42.269  12.056
59658W        W26441  37.406  13.546   3.683
59659W        W26442   6.835  21.071  11.228
59660W        W26443  11.403  40.652   1.855
59661W        W26444   6.691  28.257   3.630
59662W        W26445   4.418  40.782  13.409
59663W        W26446   5.940  34.971   1.900
59664W        W26447  14.327   4.289   1.275
59665W        W26448  42.522  39.403   0.403
59666W        W26449  24.164  12.333   1.522
59667W        W26450   1.379  41.768  10.646
59668W        W26451  30.653  26.044  13.487
59669W        W26452  43.746  43.334  11.550
59670W        W26453  16.599   2.938   2.632
59671W        W26454  21.154  39.874  11.180
59672W        W26455  25.168   2.044  10.234
59673W        W26456   3.520  21.158   3.663
59674W        W26457  40.621  28.016  13.373
59675W        W26458   1.324  24.775   1.209
59676W        W26459  17.492   6.298   2.291
59677W        W26460  39.302  40.323   2.295
59678W        W26461  31.882  39.973  14.204
59679W        W26462  23.687  13.160  11.505
59680W        W26463  18.177  21.339  14.925
59681W        W26464   0.513  14.199   0.331
59682W        W26465  41.438   0.816   4.705
59683W        W26466   2.947  24.094   3.605
59684W        W26467  21.058   1.264   1.211
59685W        W26468  42.345  40.596  11.964
59686W        W26469  13.613  23.158   2.363
59687W        W26470  28.009  32.081   2.400
59688W        W26471  35.796   8.397  11.658
59689W        W26472  30.955  41.966  10.657
59690W        W26473  15.578  16.239  14.230
59691W        W26474  44.309  44.000   2.708
59692W        W26475   8.805  44.309   1.240
59693W        W26476  35.833  35.936   3.880
59694W        W26477  20.865  33.580   3.709
59695W        W26478  14.450   7.223   4.269
59696W        W26479  23.294  23.537  11.176
59697W        W26480  26.048  16.620  12.001
59698W        W26481  23.312   0.801   3.780
59699W        W26482  32.097   4.998   2.042
59700W        W26483  12.838  28.063   4.271
59701W        W26484  11.197  37.121   2.354
59702W        W26485  41.325   2.799  11.503
59703W        W26486  43.677   0.849  14.512
59704W        W26487  18.588   5.214   3.188
59705W        W26488  33.465   7.076   2.189
59706W        W26489  35.220   2.766   0.160
59707W        W26490  10.730  18.033  10.850
59708W        W26491  19.178   9.820   0.751
59709W        W26492  24.474  32.348   2.221
59710W        W26493  44.276   1.403   1.205
59711W        W26494  28.208  44.657  13.964
59712W        W26495  25.278  32.038   5.042
59713W        W26496  24.712  16.636  10.673
59714W        W26497  11.913   6.678  11.238
59715W        W26498  18.316  44.273   0.694
59716W        W26499  20.803  24.667  14.935
59717W        W26500  38.215  13.814   1.263
59718W        W26501  40.158  12.210  14.944
59719W        W26502  26.351  34.942   1.943
59720W        W26503   1.269  13.329   3.987
59721W        W26504  44.777  11.656   3.275
59722W        W26505  29.132  37.993  14.244
59723W        W26506  36.318   5.309   0.689
59724W        W26507  42.426  32.033   1.875
59725W        W26508  26.410  19.140  13.871
59726W        W26509  25.571  26.950   3.414
59727W        W26510  28.919  27.440  14.789
59728W        W26511   3.406  44.010   4.099
59729W        W26512  22.382   8.245   2.954
59730W        W26513  31.020  11.529  12.132
59731W        W26514   8.709  43.259  13.353
59732W        W26515   7.589  39.217   4.593
59733W        W26516  39.118  34.823  12.358
59734W        W26517   3.465   9.853  10.732
59735W        W26518  43.896  14.391  14.803
59736W        W26519  31.957  16.999   3.439
59737W        W26520  31.897  41.046  14.886
59738W        W26521  16.177  18.815  12.551
59739W        W26522  19.040  37.120  12.192
59740W        W26523   0.513  13.100  14.459
59741W        W26524   9.657  40.826   0.803
59742W        W26525   1.574  17.892   2.178
59743W        W26526  28.383  41.849  11.969
59744W        W26527   6.853  24.329  14.758
59745W        W26528   3.844  10.920  12.063
59746W        W26529  35.341  19.086  10.629
59747W        W26530  11.852  27.025  11.144
59748W        W26531  35.298  19.155  11.533
59749W        W26532  30.926  17.535   4.745
59750W        W26533  24.840  13.588   4.267
59751W        W26534  16.518  18.651   3.616
59752W        W26535   6.383  35.418  10.798
59753W        W26536  15.391  22.546   3.745
59754W        W26537  24.116  12.683  10.860
59755W        W26538  11.490  39.112  14.353
59756W        W26539  28.555   4.919   1.791
59757W        W26540  29.743   5.719  11.813
59758W        W26541   0.776  28.007  10.370
59759W        W26542  43.983  25.037  12.146
59760W        W26543  35.566  10.914   0.178
59761W        W26544  25.132  32.084  14.157
59762W        W26545   4.280  25.920  12.893
59763W        W26546  36.629   0.768   1.451
59764W        W26547   9.737  20.760   3.897
59765W        W26548  44.971   2.185   3.183
59766W        W26549  34.365   8.750   0.528
59767W        W26550  30.173  41.442   1.899
59768W        W26551  42.943  25.917   0.829
59769W        W26552   9.742  31.084   1.716
59770W        W26553  36.284   4.407  12.973
59771W        W26554   7.022  39.258   2.400
59772W        W26555   2.191  12.889  11.281
59773W        W26556  37.495  14.585   2.831
59774W        W26557  27.622  44.309  14.725
59775W        W26558  44.916  23.316  12.217
59776W        W26559   1.039  44.874  10.739
59777W        W26560   4.699  27.114  14.014
59778W        W26561  41.767  38.464   1.481
59779W        W26562  43.932  11.467   0.411
59780W        W26563  38.086  31.150  12.891
59781W        W26564  10.438  23.173  12.480
59782W        W26565  33.393  34.994  11.673
59783W        W26566  26.471  10.708   2.701
59784W        W26567  35.679   5.070   3.295
59785W        W26568   0.444  20.723   3.218
59786W        W26569  41.008  29.705   4.093
59787W        W26570   9.184  25.892   1.903
59788W        W26571  42.945  31.415  11.656
59789W        W26572  13.571  10.772  14.776
59790W        W26573  35.110  27.909   1.050
59791W        W26574  37.104  34.594   0.403
59792W        W26575  43.998   8.952   1.283
59793W        W26576   4.556  20.563  11.494
59794W        W26577  24.780  33.285  13.117
59795W        W26578   1.741  43.746   1.782
59796W        W26579  27.601  36.233   4.928
59797W        W26580   8.715  28.196  10.688
59798W        W26581  15.528   5.737   3.915
59799W        W26582  33.419   8.350  14.414
59800W        W26583  28.478  24.473  14.343
59801W        W26584   2.198   4.877   4.136
59802W        W26585  25.942  38.636  11.368
59803W        W26586  38.489  20.226   4.567
59804W        W26587  29.408  43.792  14.738
59805W        W26588  22.801  43.707  12.578
59806W        W26589  11.227  18.098  13.496
59807W        W26590  38.457   7.926  11.161
59808W        W26591  18.814  24.482   1.766
59809W        W26592  41.756  39.135   0.310
59810W        W26593  26.221  15.680   3.876
59811W        W26594  34.883   1.710   2.323
59812W        W26595  37.900   3.913  12.462
59813W        W26596   8.388  12.922  10.909
59814W        W26597  31.639   4.731  11.093
59815W        W26598  26.718  38.367   3.609
59816W        W26599  32.948  27.391  13.797
59817W        W26600  12.260  26.993  12.347
59818W        W26601   5.699  25.048  12.398
59819W        W26602  31.545  37.082  11.173
59820W        W26603   4.635  42.765   4.200
59821W        W26604  33.138  35.522   1.841
59822W        W26605  29.206  39.572  11.051
59823W        W26606   8.544  44.365   4.966
59824W        W26607  27.137  30.366  11.163
59825W        W26608  19.772   1.017   2.685
59826W        W26609   1.878  18.860  12.567
59827W        W26610  21.365  23.300  14.886
59828W        W26611  37.870  36.367   1.998
59829W        W26612  19.733  15.171  14.586
59830W        W26613  42.487   4.488  10.704
59831W        W26614  32.610  15.290  12.117
59832W        W26615   8.744  34.568   4.847
59833W        W26616  28.253  12.243  13.983
59834W        W26617  31.391   8.857   1.577
59835W        W26618  32.349  35.052  10.689
59836W        W26619  31.214  33.655  10.804
59837W        W26620  11.212  21.705  12.390
59838W        W26621  39.320  40.455  14.653
59839W        W26622  31.396  31.866  13.422
59840W        W26623   1.314  13.515   0.527
59841W        W26624  38.026  39.474   2.311
59842W        W26625  10.680  18.310   0.255
59843W        W26626   8.869  11.345  10.589
59844W        W26627  31.521  35.460   3.145
59845W        W26628  18.585  17.672   5.008
59846W        W26629   3.134  17.884  14.464
59847W        W26630  30.371  34.122  14.734
59848W        W26631   4.707  40.316   2.914
59849W        W26632  33.758  23.537   4.932
59850W        W26633  35.089  20.034  12.058
59851W        W26634  32.650  42.146  14.533
59852W        W26635   9.438   9.102   2.316
59853W        W26636   6.522  33.481   3.800
59854W        W26637   9.229  17.144   0.465
59855W        W26638  37.345   2.566   3.139
59856W        W26639  34.782  43.028  13.384
59857W        W26640   0.836  30.266   0.796
59858W        W26641   0.810  15.652  14.024
59859W        W26642   9.646   1.649  11.635
59860W        W26643   2.996  29.499  13.970
59861W        W26644  20.806  32.891   0.266
59862W        W26645  34.947  11.909   4.315
59863W        W26646   4.282   6.682  12.263
59864W        W26647  30.736  15.745  14.667
59865W        W26648  35.083  36.555   0.292
59866W        W26649  39.899  19.505  11.547
59867W        W26650  23.710  44.903   0.839
59868W        W26651  22.047  35.413  13.625
59869W        W26652  33.828   0.519   3.065
59870W        W26653  10.451   3.714   4.975
59871W        W26654  29.991  24.275  12.131
59872W        W26655   5.264  38.014   2.856
59873W        W26656  26.468  16.317   0.222
59874W        W26657   8.905   5.322   0.079
59875W        W26658  35.517  15.036   0.801
59876W        W26659   9.218  16.813  13.397
59877W        W26660  15.187  15.896  12.917
59878W        W26661  38.440   3.258   1.378
59879W        W26662  33.175  24.481  10.566
59880W        W26663   6.250  30.691   3.762
59881W        W26664   2.406  42.176  12.117
59882W        W26665  36.397   8.439   4.864
59883W        W26666  17.106   1.658  13.953
59884W        W26667  11.441  39.623  12.554
59885W        W26668  39.750  37.355  10.639
59886W        W26669  17.798   9.218   0.587
59887W        W26670   2.534  25.509   1.712
59888W        W26671   5.037   1.255   1.456
59889W        W26672   0.864  14.885   9.970
59890W        W26673  21.821  29.010   1.379
59891W        W26674  32.507  43.559  11.665
59892W        W26675  19.760  20.093   2.549
59893W        W26676  33.877  41.861  11.158
59894W        W26677  33.144  32.498  13.505
59895W        W26678  11.301  44.682  10.674
59896W        W26679  14.235  39.661   9.871
59897W        W26680  43.532  16.037   2.851
59898W        W26681  43.988  14.739   1.230
59899W        W26682  20.012  26.446   0.378
59900W        W26683  20.985  23.783  12.594
59901W        W26684  44.454  11.267   4.550
59902W        W26685  30.126  10.213   3.256
59903W        W26686  14.838  26.981   0.824
59904W        W26687  41.407  39.023  12.887
59905W        W26688  25.709  24.285   1.053
59906W        W26689  41.322  43.292  13.439
59907W        W26690  14.948  38.540   4.990
59908W        W26691  39.294  43.818  14.305
59909W        W26692  36.086  28.023   0.984
59910W        W26693  35.543  18.448  10.676
59911W        W26694   2.380   8.805  12.848
59912W        W26695  22.715  19.170   1.719
59913W        W26696  30.097  27.049   3.130
59914W        W26697  42.359  16.012   0.360
59915W        W26698  15.118  43.437  14.456
59916W        W26699  14.060  25.832   4.643
59917W        W26700  43.103   8.260  14.484
59918W        W26701  18.265  21.589   3.227
59919W        W26702  14.671  18.173   2.361
59920W        W26703  24.736   0.861   3.631
59921W        W26704  38.019  24.998  13.131
59922W        W26705  14.897   5.195   1.428
59923W        W26706  33.976  21.788   3.244
59924W        W26707  39.911   6.124   1.489
59925W        W26708   0.287  16.711   3.687
59926W        W26709  40.476   1.826   2.650
59927W        W26710  44.015  40.576   0.012
59928W        W26711  23.721  10.250   4.864
59929W        W26712  34.352  30.154  11.652
59930W        W26713   3.995   2.395   3.275
59931W        W26714   7.957  15.328   4.269
59932W        W26715  33.035   1.513  11.661
59933W        W26716  23.248  33.006   1.900
59934W        W26717  22.951  38.411  10.541
59935W        W26718  10.867  31.194   4.659
59936W        W26719  42.208  11.300  13.345
59937W        W26720  20.978  33.684  14.796
59938W        W26721  25.867   5.900   0.831
59939W        W26722  25.525   2.586  13.145
59940W        W26723  34.754  17.239   2.381
59941W        W26724   1.347  29.292   1.401
59942W        W26725   1.558  35.532  13.940
59943W        W26726  30.345  31.728   1.714
59944W        W26727  38.498  20.345   2.677
59945W        W26728  44.471  12.217  11.916
59946W        W26729  13.895   1.052   4.031
59947W        W26730  36.247   2.204   2.367
59948W        W26731  36.547   7.026  13.599
59949W        W26732   1.159   6.726   4.162
59950W        W26733  35.634  27.956   3.278
59951W        W26734  36.040  17.174   1.227
59952W        W26735  42.408  38.998   3.315
59953W        W26736  40.259  15.634   1.367
59954W        W26737  37.878  40.524   1.228
59955W        W26738   4.958  39.895   4.339
59956W        W26739  29.586  11.400  11.988
59957W        W26740  23.730  19.370  12.579
59958W        W26741  19.150  35.776  12.919
59959W        W26742  35.129  43.690   4.216
59960W        W26743  33.486  19.083   0.533
59961W        W26744  17.057  12.111   4.684
59962W        W26745  40.058  32.593  10.728
59963W        W26746   7.431   4.566  12.932
59964W        W26747   9.980   4.016   0.870
59965W        W26748  32.557  18.053  13.996
59966W        W26749  34.842   9.894  10.208
59967W        W26750  21.169  29.110  11.734
59968W        W26751   3.094  38.477   1.703
59969W        W26752  29.197   3.902  14.005
59970W        W26753  44.594  20.831   0.339
59971W        W26754  27.134   9.629  13.901
59972W        W26755   3.295  31.062   3.876
59973W        W26756  40.406  27.892   3.999
59974W        W26757  34.602  18.588  14.329
59975W        W26758  12.353  29.400  11.186
59976W        W26759   3.745  36.522   0.940
59977W        W26760  33.925  24.371   0.151
59978W        W26761   7.168   4.723  12.524
59979W        W26762  21.176  28.923  14.037
59980W        W26763  39.979  42.440  11.658
59981W        W26764  21.098  18.836   0.842
59982W        W26765  31.882   0.418  10.787
59983W        W26766  20.478  37.701   4.583
59984W        W26767  40.082  25.035   0.708
59985W        W26768  18.094  40.563  13.476
59986W        W26769  14.210  15.129  11.657
59987W        W26770  44.386  18.209   3.599
59988W        W26771  36.622  38.370   1.381
59989W        W26772  10.719   8.625   0.100
59990W        W26773  16.587  22.530  11.567
59991W        W26774  39.061   5.748  14.091
59992W        W26775   8.278  34.327  14.910
59993W        W26776  15.040   6.230   1.124
59994W        W26777  24.576  41.930   1.086
59995W        W26778  10.935  40.824  12.982
59996W        W26779   4.307  43.139   3.951
59997W        W26780   8.184  35.891   3.340
59998W        W26781  10.234  21.823   1.781
59999W        W26782  20.591   9.401   1.333
60000W        W26783  13.273  23.822  14.278
60001W        W26784  15.312  27.522   1.381
60002W        W26785  34.036  24.950  14.270
60003W        W26786  21.294   5.907  14.883
60004W        W26787  32.406  24.301   1.339
60005W        W26788  21.015  33.984   2.793
60006W        W26789   3.246  14.269   1.642
60007W        W26790  35.492  35.695   4.651
60008W        W26791  41.230   4.517  13.723
60009W        W26792  41.780  25.265  13.790
60010W        W26793   5.409  40.783  11.134
60011W        W26794  13.482  44.835   1.818
60012W        W26795  16.078   2.784   2.784
60013W        W26796  36.372  13.393   0.392
60014W        W26797  16.641  31.370   0.859
60015W        W26798  18.178  10.771   0.312
60016W        W26799  36.276  41.553  13.827
60017W        W26800   7.944  21.994  10.679
60018W        W26801  11.332  16.131  13.598
60019W        W26802  35.573   1.223  12.424
60020W        W26803  20.262  37.354   1.840
60021W        W26804  33.372  41.756  12.405
60022W        W26805  39.947  42.747   2.450
60023W        W26806  41.928  29.686  10.712
60024W        W26807  22.704   6.761   2.528
60025W        W26808  17.103  39.252   2.521
60026W        W26809  35.519  24.578   2.308
60027W        W26810  37.807  15.710  10.826
60028W        W26811  30.885  19.047   5.049
60029W        W26812  26.289  32.401   3.073
60030W        W26813   8.139  36.940  12.412
60031W        W26814   4.648  26.324  10.284
60032W        W26815   2.644  41.792   2.677
60033W        W26816   6.676   5.860   4.216
60034W        W26817  20.393  13.590  12.061
60035W        W26818  14.048  15.394  12.059
60036W        W26819  22.720  26.961   1.214
60037W        W26820  28.271  10.833   2.154
60038W        W26821  36.102   0.818  13.489
60039W        W26822  42.093  30.521  12.025
60040W        W26823  28.161   1.420   1.709
60041W        W26824  34.556  17.259   1.855
60042W        W26825  43.507  34.309   0.739
60043W        W26826   9.215   7.214  13.510
60044W        W26827   7.314   6.132  10.806
60045W        W26828   0.748  32.636   1.924
60046W        W26829  31.092  42.931   2.319
60047W        W26830  24.026  29.450   1.040
60048W        W26831  44.263  13.758   2.732
60049W        W26832  32.075  15.357  10.322
60050W        W26833  15.020  22.286   0.462
60051W        W26834  44.972  39.133   0.323
60052W        W26835  23.656  18.106  14.503
60053W        W26836  10.216   4.238   1.289
60054W        W26837   8.454  42.433   1.917
60055W        W26838  21.446   4.751   1.388
60056W        W26839  36.925  10.215   2.548
60057W        W26840  23.967  28.327  13.358
60058W        W26841  33.110  20.368   4.424
60059W        W26842   3.335  42.052  13.866
60060W        W26843   2.383  38.743   0.008
60061W        W26844  39.951  15.834   4.123
60062W        W26845  17.404  25.281  11.130
60063W        W26846  28.428  22.133  13.062
60064W        W26847  14.563   8.870   1.082
60065W        W26848  35.976   6.579   1.711
60066W        W26849  41.476  38.328  14.499
60067W        W26850   4.952  13.853  14.724
60068W        W26851  24.127  25.083  12.841
60069W        W26852  38.908  28.616  12.959
60070W        W26853  20.106  36.754  14.728
60071W        W26854   0.944   9.196  10.739
60072W        W26855  32.173  28.895  13.593
60073W        W26856  41.314  44.501  14.043
60074W        W26857  32.964  39.864   0.721
60075W        W26858  22.003  25.010   9.772
60076W        W26859  11.225  30.664  12.872
60077W        W26860  22.307  15.834   3.759
60078W        W26861  35.759  29.117   2.818
60079W        W26862  40.941  37.241  14.093
60080W        W26863   6.208  34.108   2.267
60081W        W26864   1.396  22.743   2.317
60082W        W26865  40.300  10.224  11.348
60083W        W26866  37.883   8.798   4.626
60084W        W26867  41.951  23.617   3.240
60085W        W26868  16.260  38.918   2.693
60086W        W26869  21.273   6.389   3.046
60087W        W26870  11.725  36.378  12.402
60088W        W26871   5.936  40.938   2.864
60089W        W26872  37.623   7.829  13.900
60090W        W26873  23.587  30.051  14.814
60091W        W26874  34.104  22.347   2.332
60092W        W26875  43.266  31.065   1.821
60093W        W26876  39.588  13.660   4.548
60094W        W26877  35.186  21.787   3.792
60095W        W26878  14.461  25.481  10.709
60096W        W26879   0.531  15.075  14.928
60097W        W26880  37.358  29.020  13.028
60098W        W26881   1.476  31.971   3.147
60099W        W26882  18.288  34.285   3.607
60100W        W26883  23.160  42.251   0.791
60101W        W26884  27.670  29.930   3.608
60102W        W26885  33.954  38.964  13.350
60103W        W26886  42.869   8.302  12.108
60104W        W26887  34.524  17.019  13.814
60105W        W26888  31.933  26.172  14.441
60106W        W26889   6.432  10.744  14.976
60107W        W26890   8.241  38.456  12.313
60108W        W26891  18.581  21.342   9.650
60109W        W26892  24.178   9.929  13.231
60110W        W26893  28.077   6.605   4.160
60111W        W26894   0.298  22.335   1.811
60112W        W26895  33.548   7.296  11.679
60113W        W26896  41.647  41.868   4.688
60114W        W26897  17.015  27.862   4.462
60115W        W26898  22.674   4.692  13.134
60116W        W26899  43.031  19.066   3.790
60117W        W26900  30.023  13.930  11.541
60118W        W26901   3.874  33.968   0.417
60119W        W26902  18.786  10.030   3.129
60120W        W26903  20.785  23.943   4.626
60121W        W26904  35.139  14.173   2.808
60122W        W26905  27.953   3.880  13.989
60123W        W26906  40.102   6.443  13.568
60124W        W26907  26.927   0.267  10.511
60125W        W26908  25.411   4.445   0.769
60126W        W26909  21.570   4.648   0.884
60127W        W26910  41.204  42.962   1.671
60128W        W26911  41.402   1.352   1.967
60129W        W26912  28.938  23.820  13.565
60130W        W26913  32.774  26.195  13.706
60131W        W26914  18.858   2.777  10.448
60132W        W26915  25.156   0.234  14.377
60133W        W26916  15.575  25.531  12.667
60134W        W26917  41.470  10.978  11.500
60135W        W26918  29.999  30.935  14.775
60136W        W26919  19.138   3.200   0.968
60137W        W26920  35.452  35.243  13.848
60138W        W26921  24.555  27.205   3.734
60139W        W26922  31.286  29.591   0.217
60140W        W26923   5.429  16.742  14.856
60141W        W26924   8.472   4.010   4.155
60142W        W26925  18.820  25.557   2.705
60143W        W26926  23.305  32.501   0.772
60144W        W26927  13.258   2.819   3.150
60145W        W26928   5.215  27.414  11.186
60146W        W26929  22.504  38.887  12.043
60147W        W26930  17.378  15.660  13.993
60148W        W26931  11.333  39.133   0.290
60149W        W26932   6.678  37.435   0.774
60150W        W26933  25.021  43.689   1.193
60151W        W26934   7.383  32.937  11.682
60152W        W26935  25.672  12.317  14.708
60153W        W26936  38.818   9.436   3.063
60154W        W26937   6.814   1.429  12.332
60155W        W26938   8.001  20.888   1.282
60156W        W26939  43.449   9.515   5.336
60157W        W26940  28.946   7.308  14.779
60158W        W26941  25.054  21.709   3.529
60159W        W26942  13.247  38.888   2.874
60160W        W26943   3.432  26.652  10.849
60161W        W26944  15.061  40.608  11.585
60162W        W26945  35.616  39.963   1.649
60163W        W26946  44.054   4.667   2.036
60164W        W26947   8.577  18.022  13.419
60165W        W26948  15.224   1.198  12.955
60166W        W26949  34.225  28.017  11.418
60167W        W26950   5.761  37.762   1.208
60168W        W26951  37.642  26.535  14.566
60169W        W26952  18.572  28.718   1.056
60170W        W26953  28.167  25.518  11.858
60171W        W26954  30.105  39.903  12.388
60172W        W26955   9.844  20.125  11.847
60173W        W26956  29.998  21.742  13.116
60174W        W26957   2.458  10.289   3.231
60175W        W26958  41.670  18.163   4.625
60176W        W26959  32.663  11.931   1.825
60177W        W26960  21.513  19.568   1.296
60178W        W26961   1.397  25.587  11.611
60179W        W26962  25.283   2.167   3.660
60180W        W26963  44.448  13.245  11.630
60181W        W26964  16.507  38.987   1.599
60182W        W26965   0.396  13.606   9.849
60183W        W26966  22.011  37.510  12.394
60184W        W26967   9.364  11.773   1.333
60185W        W26968  12.790   3.327  10.786
60186W        W26969  39.992  36.588  11.677
60187W        W26970  14.252  39.242  11.725
60188W        W26971   2.241  15.271   1.198
60189W        W26972  38.337  25.597  11.450
60190W        W26973  19.872  39.465   1.291
60191W        W26974  37.435  41.404  12.426
60192W        W26975  33.526  26.645  12.463
60193W        W26976   9.457  19.074   0.282
60194W        W26977   8.302  33.574  14.346
60195W        W26978  27.178   2.035  11.027
60196W        W26979  13.724  11.398   1.683
60197W        W26980  13.291   1.424  13.833
60198W        W26981  33.966  17.065   0.849
60199W        W26982   5.867   4.796   1.767
60200W        W26983   7.682  27.161   1.905
60201W        W26984  21.148   3.594  11.814
60202W        W26985  40.667  23.696  14.321
60203W        W26986  16.586   2.378   0.313
60204W        W26987  43.648  20.572  12.996
60205W        W26988  18.262  43.991   0.268
60206W        W26989  36.841  42.781  11.392
60207W        W26990  10.200  15.852  10.627
60208W        W26991  17.630   3.108  14.520
60209W        W26992  10.339  17.696  10.836
60210W        W26993  19.997  33.368  13.965
60211W        W26994  35.594   5.892  13.274
60212W        W26995  34.028  19.851   3.695
60213W        W26996  30.501  31.392   2.189
60214W        W26997   0.718  29.876  12.923
60215W        W26998   2.252   0.345   4.150
60216W        W26999  10.378  24.900   4.747
60217W        W27000  24.131  29.424   1.949
60218W        W27001  31.437  28.644   2.914
60219W        W27002  34.340  15.251   3.376
60220W        W27003  27.341   6.250  12.008
60221W        W27004  39.001   6.435   0.283
60222W        W27005  14.487  30.641   2.835
60223W        W27006   9.781   4.116  13.173
60224W        W27007  20.995  36.066   3.265
60225W        W27008   5.112   7.060   1.286
60226W        W27009  20.766  42.744   0.906
60227W        W27010   8.175  26.257   2.678
60228W        W27011  12.884  26.098   4.106
60229W        W27012  14.645  14.427  14.881
60230W        W27013  35.741  43.742  13.438
60231W        W27014  25.245  36.115   1.258
60232W        W27015  28.417  17.454   2.909
60233W        W27016   5.194   0.944   4.901
60234W        W27017  18.614   4.391   3.550
60235W        W27018  28.573  13.724   4.721
60236W        W27019  37.641   1.536   3.320
60237W        W27020  21.737  13.103   3.123
60238W        W27021  13.220  39.010   0.367
60239W        W27022  25.422  14.714   1.624
60240W        W27023  31.122  25.127  13.943
60241W        W27024  30.184  27.143  13.502
60242W        W27025  18.146  42.599   3.705
60243W        W27026  42.812  42.398  11.377
60244W        W27027  36.198  43.552   1.164
60245W        W27028  34.635  23.938  11.860
60246W        W27029  19.612   4.520   0.882
60247W        W27030   8.819  41.280   3.146
60248W        W27031   4.377  42.909   0.924
60249W        W27032  18.524  22.997  10.624
60250W        W27033  18.498  27.990   4.530
60251W        W27034  29.882   4.379   3.204
60252W        W27035  21.166  11.297   3.097
60253W        W27036  22.611   5.303  11.509
60254W        W27037   1.323  44.282   0.247
60255W        W27038  35.846  44.922  11.963
60256W        W27039  42.070  21.130   3.201
60257W        W27040  35.613  14.339  11.558
60258W        W27041  13.292   0.332   0.978
60259W        W27042  18.672  40.756  11.537
60260W        W27043  42.797  14.224   1.276
60261W        W27044  33.628   3.734  12.839
60262W        W27045  40.943  43.740  14.994
60263W        W27046  34.586  14.293  14.262
60264W        W27047  12.856  33.092  13.979
60265W        W27048  39.903  21.771   4.982
60266W        W27049  35.074  27.976  10.889
60267W        W27050  34.019  26.499  14.278
60268W        W27051  25.961  19.639   4.488
60269W        W27052   5.279   8.764  13.454
60270W        W27053  20.694  43.552   2.309
60271W        W27054  25.533   6.035   2.741
60272W        W27055  36.680  30.519   2.292
60273W        W27056  19.517  42.598   4.362
60274W        W27057  19.279  33.539   4.227
60275W        W27058  37.819  43.379   0.887
60276W        W27059  18.034  11.702  11.599
60277W        W27060  36.561  43.567  11.561
60278W        W27061  15.362  31.764   4.247
60279W        W27062  30.362  21.133   3.611
60280W        W27063  11.454   7.390   2.829
60281W        W27064   4.957   1.949   0.280
60282W        W27065  20.802  22.288   0.076
60283W        W27066  40.461  42.005  13.371
60284W        W27067  17.836  37.059   2.815
60285W        W27068  11.203  29.620  12.914
60286W        W27069  39.940  19.005   4.625
60287W        W27070   5.325  32.658  11.599
60288W        W27071  24.015  29.667   5.108
60289W        W27072  31.773  29.557   3.131
60290W        W27073   3.864  44.286  14.364
60291W        W27074  44.939  43.351   4.341
60292W        W27075   0.828   2.950  12.379
60293W        W27076  18.729  35.998   1.744
60294W        W27077  23.911  18.709   4.220
60295W        W27078   2.924  34.851  12.033
60296W        W27079   0.090  24.671   3.545
60297W        W27080  38.008  16.032  14.725
60298W        W27081  16.117  33.582   4.256
60299W        W27082  11.912   1.092  13.326
60300W        W27083  44.885  34.356  10.684
60301W        W27084   4.981  39.272  13.019
60302W        W27085  28.548   3.967   3.294
60303W        W27086  42.995  22.706   2.835
60304W        W27087  30.859  34.007   2.738
60305W        W27088  17.298  20.125  13.725
60306W        W27089   5.294  15.470   4.140
60307W        W27090  28.802   1.447   3.939
60308W        W27091  32.387  15.336  13.534
60309W        W27092  41.892  41.460  14.466
60310W        W27093  16.190  25.154   4.841
60311W        W27094  44.935   7.618   5.214
60312W        W27095  42.060  21.933  11.160
60313W        W27096  21.743  18.725   0.272
60314W        W27097  11.815  31.840  10.514
60315W        W27098  10.042  16.604   2.035
60316W        W27099   8.823  32.408  11.062
60317W        W27100  10.237  15.795  13.458
60318W        W27101  24.735   7.404  12.010
60319W        W27102  42.522  38.731  11.852
60320W        W27103  15.906   5.990   5.198
60321W        W27104  26.751  26.995   0.277
60322W        W27105  31.937  24.099   1.180
60323W        W27106  42.295  20.737  14.887
60324W        W27107  40.873  16.335  11.468
60325W        W27108  42.795  41.809  10.665
60326W        W27109  30.064  25.125  14.998
60327W        W27110  36.304  15.669   5.050
60328W        W27111  16.362   3.178  12.894
60329W        W27112   8.268  10.073   0.664
60330W        W27113  10.370  42.600   0.233
60331W        W27114  13.698   5.424  14.758
60332W        W27115  12.669  36.773   3.919
60333W        W27116  38.434  31.563   4.032
60334W        W27117   8.237  34.449   3.313
60335W        W27118  35.562   9.041   0.291
60336W        W27119  16.351  25.488  13.088
60337W        W27120  10.888  14.775  11.190
60338W        W27121  29.917  10.650   3.082
60339W        W27122  24.973  37.426  13.001
60340W        W27123  33.609  12.686   4.970
60341W        W27124  15.561  29.723  10.937
60342W        W27125  35.409  11.801   2.666
60343W        W27126  34.306  35.382  12.705
60344W        W27127  18.513  17.736  10.196
60345W        W27128  33.746   1.706   3.661
60346W        W27129  34.173  14.253   0.560
60347W        W27130   6.795   3.202  14.246
60348W        W27131   3.872   6.512  14.694
60349W        W27132   5.893  33.883  14.013
60350W        W27133  14.730  31.241   0.150
60351W        W27134  11.869  18.367   4.783
60352W        W27135  28.932  34.507  12.613
60353W        W27136  39.930   1.723  13.092
60354W        W27137  15.862  31.997  14.055
60355W        W27138   8.888  16.429   1.834
60356W        W27139  40.308  24.955  11.167
60357W        W27140   0.035  19.350  12.572
60358W        W27141  42.538  12.260   1.838
60359W        W27142   8.256  13.320  11.676
60360W        W27143  30.009  43.398  11.278
60361W        W27144  23.510  20.591   4.105
60362W        W27145  44.260  34.512   1.210
60363W        W27146  21.454  21.097   0.202
60364W        W27147  32.685   0.961   2.558
60365W        W27148  10.253   5.195   4.605
60366W        W27149  40.102  36.997   2.588
60367W        W27150  28.037  21.646  14.389
60368W        W27151  38.001  19.827  11.025
60369W        W27152  24.773  18.202  11.558
60370W        W27153   8.095  11.083  10.214
60371W        W27154  18.959   4.677   0.409
60372W        W27155  33.555  25.752  13.496
60373W        W27156  34.369  16.898  11.118
60374W        W27157  16.240  15.203   9.883
60375W        W27158  23.252  24.736   0.339
60376W        W27159  43.627  13.186   0.959
60377W        W27160  33.446  24.616   5.682
60378W        W27161   4.704  19.768  11.979
60379W        W27162   9.046  18.675  11.161
60380W        W27163  18.730  25.095  12.446
60381W        W27164  11.648  43.863   1.353
60382W        W27165  28.084  17.090   3.105
60383W        W27166  26.132  42.262   1.786
60384W        W27167   6.483  27.174  11.087
60385W        W27168  23.127  34.376   2.198
60386W        W27169  10.384  16.705  13.911
60387W        W27170  15.152   7.378   4.805
60388W        W27171  30.239  23.426  12.127
60389W        W27172  26.253   9.164   0.899
60390W        W27173   3.805  27.248   0.215
60391W        W27174  11.192  25.563   4.186
60392W        W27175  16.670  40.249  14.252
60393W        W27176  17.583   9.299   4.744
60394W        W27177  37.881  37.925   1.455
60395W        W27178   7.402  34.391   0.770
60396W        W27179  16.332   5.503   4.220
60397W        W27180  33.390   0.383   3.351
60398W        W27181  36.771  19.049   1.338
60399W        W27182  26.533  44.257   2.061
60400W        W27183  33.682  34.674  13.984
60401W        W27184  29.690   3.682  14.053
60402W        W27185   0.378  21.507   2.728
60403W        W27186   4.814  18.108  13.543
60404W        W27187  29.289  38.614  11.493
60405W        W27188  43.221  27.940  12.923
60406W        W27189  19.549  17.479   3.747
60407W        W27190  39.913  10.038   9.666
60408W        W27191  18.565  36.867   2.109
60409W        W27192  36.791  29.254  11.936
60410W        W27193  41.587   7.343  11.163
60411W        W27194  22.144  19.861   2.376
60412W        W27195  26.692  31.988   3.061
60413W        W27196  19.614   1.329  13.789
60414W        W27197  39.475  27.521   3.956
60415W        W27198  15.367   6.842  11.172
60416W        W27199  32.091  43.157   2.232
60417W        W27200   7.589  35.831   1.309
60418W        W27201  17.297   2.749  14.269
60419W        W27202  26.493   7.817  13.964
60420W        W27203  40.513   7.620   2.461
60421W        W27204  44.871  15.887  12.975
60422W        W27205  42.372  37.403  13.185
60423W        W27206  43.404  18.333   0.235
60424W        W27207  41.969  34.108   4.608
60425W        W27208  14.396  16.343  11.043
60426W        W27209   3.774   0.023  12.884
60427W        W27210  31.517  41.771  13.461
60428W        W27211  14.057  13.163  10.741
60429W        W27212  41.542  28.556   2.341
60430W        W27213  31.698   2.841   0.640
60431W        W27214  38.481  18.616  12.768
60432W        W27215  24.023  20.548  10.449
60433W        W27216  20.703   7.912  12.063
60434W        W27217  43.938   9.372   2.344
60435W        W27218   4.832  26.204   0.815
60436W        W27219  26.457  19.660  14.019
60437W        W27220  16.876   2.777   0.120
60438W        W27221  23.146  12.162   1.237
60439W        W27222   2.347  14.466   3.788
60440W        W27223  37.410  30.540   4.754
60441W        W27224  41.988   2.233  11.851
60442W        W27225  14.107  36.230  12.652
60443W        W27226   2.499  15.383  10.429
60444W        W27227  19.642  19.049  14.427
60445W        W27228  24.874  38.228   0.614
60446W        W27229  18.765  17.224   5.157
60447W        W27230   2.501   5.824   0.041
60448W        W27231  31.842   4.225  10.952
60449W        W27232  27.809   0.267  10.741
60450W        W27233  14.544  16.619  14.373
60451W        W27234   6.839  21.594  13.838
60452W        W27235  19.202  38.043  11.502
60453W        W27236   0.505  18.505   2.281
60454W        W27237  26.777  32.965   4.576
60455W        W27238  24.582  32.810  13.123
60456W        W27239  11.460   8.307   3.150
60457W        W27240  22.783   8.341  14.657
60458W        W27241  15.286   8.275  10.643
60459W        W27242  12.237  37.593  13.150
60460W        W27243  25.923   6.924  13.964
60461W        W27244   8.085  36.368  14.783
60462W        W27245  22.702  24.713  12.507
60463W        W27246  25.385  14.166  11.134
60464W        W27247   2.481  44.801   4.695
60465W        W27248  22.318   4.847   0.268
60466W        W27249  43.852   1.645   3.253
60467W        W27250   7.636  37.479   3.784
60468W        W27251  28.846  37.543  13.394
60469W        W27252  23.969   9.656  14.986
60470W        W27253  36.628   3.493   0.476
60471W        W27254   2.398   2.363   0.628
60472W        W27255  19.250  35.686  11.260
60473W        W27256  16.986  38.128  11.906
60474W        W27257   3.073  25.558  11.575
60475W        W27258  30.873  18.711  13.361
60476W        W27259  40.064  16.835   2.667
60477W        W27260  11.558   5.651   9.851
60478W        W27261  25.736  28.875  12.942
60479W        W27262  31.296  13.079   0.889
60480W        W27263  14.682  31.916   2.647
60481W        W27264  39.127  16.558   2.818
60482W        W27265  26.528   4.761   0.492
60483W        W27266  25.132  17.760   0.700
60484W        W27267   9.799  41.491   1.385
60485W        W27268  17.772  36.074   3.602
60486W        W27269   6.885  43.994  14.503
60487W        W27270  19.305  39.757   1.214
60488W        W27271  20.850  10.737  12.054
60489W        W27272  23.574  25.231  12.139
60490W        W27273   1.507   0.039   0.838
60491W        W27274  23.717   2.779  13.953
60492W        W27275   4.438   2.037   0.268
60493W        W27276  29.865  39.860   4.051
60494W        W27277  22.920  14.767  13.286
60495W        W27278  18.010  26.662   4.720
60496W        W27279  26.905  42.779   0.852
60497W        W27280   5.003   2.240   0.888
60498W        W27281  29.077  26.258   4.440
60499W        W27282   0.172  18.955  11.235
60500W        W27283  44.547  43.974  14.713
60501W        W27284  19.036  11.267  11.597
60502W        W27285  38.101  40.486  11.250
60503W        W27286  27.933  21.843   4.755
60504W        W27287   3.193  12.753  10.641
60505W        W27288  17.271  22.738   0.067
60506W        W27289   2.976  19.993  11.097
60507W        W27290   8.755  29.088  13.867
60508W        W27291  19.774  25.567  12.546
60509W        W27292  21.485  17.156   2.155
60510W        W27293   7.690  33.186   0.447
60511W        W27294   6.257   1.272   4.061
60512W        W27295  35.776  41.876  12.432
60513W        W27296  16.896   0.507  11.872
60514W        W27297  12.359  35.577  10.767
60515W        W27298  11.255  31.349  11.559
60516W        W27299  13.278  15.806  13.358
60517W        W27300  17.368  39.777  12.525
60518W        W27301  24.972  35.342   1.742
60519W        W27302  34.922  11.661   0.482
60520W        W27303  17.573   3.321   3.625
60521W        W27304  37.429  27.610  13.032
60522W        W27305   0.206  26.664   1.258
60523W        W27306   4.639  42.479  14.880
60524W        W27307  18.603  27.978  13.188
60525W        W27308   5.868  40.915   3.360
60526W        W27309  30.186  33.717  14.428
60527W        W27310   0.926  22.569  12.618
60528W        W27311  12.165   3.476   1.816
60529W        W27312   7.667   3.320  11.437
60530W        W27313  21.159  22.025   0.352
60531W        W27314  14.583  27.706  13.923
60532W        W27315   7.397  35.382   1.539
60533W        W27316   5.387  23.253  14.844
60534W        W27317   7.823   0.891  10.399
60535W        W27318  37.892  14.738  14.208
60536W        W27319  22.023  41.429   3.600
60537W        W27320  11.594   0.701   4.075
60538W        W27321   4.404   8.322  10.761
60539W        W27322  34.518  16.379  14.540
60540W        W27323  15.879  31.644   3.574
60541W        W27324  44.748  22.746   2.440
60542W        W27325  27.679  29.623   0.868
60543W        W27326  11.419  32.192  13.956
60544W        W27327  44.903   9.394  14.898
60545W        W27328  22.387  44.952   9.888
60546W        W27329  33.333  23.923  13.855
60547W        W27330  17.224  37.205   0.947
60548W        W27331   5.580  33.513   3.026
60549W        W27332  37.599  32.427  10.841
60550W        W27333  21.903   8.136  14.365
60551W        W27334  36.358   7.842  12.178
60552W        W27335  37.509  28.949   2.371
60553W        W27336  33.345  37.269   1.900
60554W        W27337  24.929  21.819  14.759
60555W        W27338  24.043   1.514  12.792
60556W        W27339   4.329   5.667  10.674
60557W        W27340  41.243  23.548   4.635
60558W        W27341  33.795  12.799   3.092
60559W        W27342   4.851  42.968  14.886
60560W        W27343  33.557  17.822   2.409
60561W        W27344   4.553  42.917  11.447
60562W        W27345  37.608   7.665   2.355
60563W        W27346  17.560  34.515  10.625
60564W        W27347   5.862  28.884   1.536
60565W        W27348   3.677  18.647  13.928
60566W        W27349  17.974  31.189   4.489
60567W        W27350   3.458  24.170   1.870
60568W        W27351  30.228  42.735   4.621
60569W        W27352  17.809  25.699  13.418
60570W        W27353  36.445  18.786   3.842
60571W        W27354  17.367   6.716  12.905
60572W        W27355   0.908   1.436  12.294
60573W        W27356   9.864   3.729  10.804
60574W        W27357  15.152  16.543  11.478
60575W        W27358  27.146  15.323   3.398
60576W        W27359   7.291  20.997  11.920
60577W        W27360   7.102  18.562   0.467
60578W        W27361  39.714  37.623   3.158
60579W        W27362  27.232  15.628   1.621
60580W        W27363  34.689  40.858  12.940
60581W        W27364  29.065   7.392   2.227
60582W        W27365  24.706  36.430  13.827
60583W        W27366  12.394   0.884  13.391
60584W        W27367  41.827   1.481  12.991
60585W        W27368  25.559  18.070   1.643
60586W        W27369  35.901  41.359  12.481
60587W        W27370  17.105  27.701  10.783
60588W        W27371   0.015  37.664  10.998
60589W        W27372  41.516  30.654   2.340
60590W        W27373   5.324  34.014   3.721
60591W        W27374  38.013  42.472  13.319
60592W        W27375  43.498  34.315  12.604
60593W        W27376  34.472  38.665   4.043
60594W        W27377  30.477   9.213  14.060
60595W        W27378  20.308  39.974  11.521
60596W        W27379  19.143  39.848   3.203
60597W        W27380  14.891  26.597  12.567
60598W        W27381   0.678   5.267   2.845
60599W        W27382  27.777  14.719   5.068
60600W        W27383  20.319   2.411   4.541
60601W        W27384   3.830  43.310   4.093
60602W        W27385  19.294   6.770   2.402
60603W        W27386   4.496  16.847  13.580
60604W        W27387  19.875  30.391  11.649
60605W        W27388  36.843   5.336  14.934
60606W        W27389  31.793  40.718   3.588
60607W        W27390  12.269  34.540   2.172
60608W        W27391  29.938  15.602   0.759
60609W        W27392  24.938  31.924  11.154
60610W        W27393  39.155   2.296   3.677
60611W        W27394  30.487   2.519  11.135
60612W        W27395  14.834  11.680   3.742
60613W        W27396  42.769  34.299  10.662
60614W        W27397  26.983  32.524   0.928
60615W        W27398   4.351  20.119  14.462
60616W        W27399  19.029  21.670   4.530
60617W        W27400  26.728  37.246   5.139
60618W        W27401  33.221  15.297   2.665
60619W        W27402  39.812  30.223   0.079
60620W        W27403   9.108   6.428  14.057
60621W        W27404  15.366  40.320   0.935
60622W        W27405  29.411  29.058  14.830
60623W        W27406  34.301  11.291   2.088
60624W        W27407  18.338  11.215   1.841
60625W        W27408  21.433  27.640  11.319
60626W        W27409   7.541  38.265  12.851
60627W        W27410   8.163  31.618   2.303
60628W        W27411  25.680   6.373   0.647
60629W        W27412  21.155  20.688   0.368
60630W        W27413  30.965   3.992  10.819
60631W        W27414  13.334  25.652   1.148
60632W        W27415   6.134  29.937  10.766
60633W        W27416  15.107  27.640   4.075
60634W        W27417  44.974  15.264   4.703
60635W        W27418  12.675  18.610   2.792
60636W        W27419  26.591  11.858  10.537
60637W        W27420  17.714  30.376   4.028
60638W        W27421   1.746  33.050   0.278
60639W        W27422   6.624  10.070  11.089
60640W        W27423  30.756  15.383  13.007
60641W        W27424  22.260  25.654   3.015
60642W        W27425  44.043  17.274  10.670
60643W        W27426  32.110  32.902  10.951
60644W        W27427   5.767   8.846  10.687
60645W        W27428  31.747  11.053  12.111
60646W        W27429  11.912  33.771   2.742
60647W        W27430   6.379   1.509   1.847
60648W        W27431  11.198   1.490  12.563
60649W        W27432  12.093  14.578   3.267
60650W        W27433  12.310  32.066   1.194
60651W        W27434  18.790  16.617   1.657
60652W        W27435   7.932  35.598  10.744
60653W        W27436  40.516   4.310   1.411
60654W        W27437  22.990  12.086  11.231
60655W        W27438  41.138  12.347   3.126
60656W        W27439  43.868  37.424   1.211
60657W        W27440  28.905  21.481   3.234
60658W        W27441  10.182   7.794  14.973
60659W        W27442  34.861  23.119  14.685
60660W        W27443  40.294  44.743  13.805
60661W        W27444  44.300   9.395  12.473
60662W        W27445  43.943  31.449  10.974
60663W        W27446  39.249   7.262  13.587
60664W        W27447   5.835  28.434   0.111
60665W        W27448   9.236   4.851  11.894
60666W        W27449  11.639  22.045  12.908
60667W        W27450  31.089  28.121   2.162
60668W        W27451  20.730  41.291  12.488
60669W        W27452  37.598   4.823  12.103
60670W        W27453  42.941   4.625  12.952
60671W        W27454  18.679   5.219  12.337
60672W        W27455   3.567  25.705   4.332
60673W        W27456  34.750  39.946   4.075
60674W        W27457  29.525  31.393  12.532
60675W        W27458  21.493  27.089  11.021
60676W        W27459  14.248  39.786   0.697
60677W        W27460  18.285  10.752  11.587
60678W        W27461  43.054  10.754  14.871
60679W        W27462  13.698  19.883   2.215
60680W        W27463  29.717   1.543   3.244
60681W        W27464  13.668  31.269  11.223
60682W        W27465  36.345   4.026   2.711
60683W        W27466  28.240  29.455   2.684
60684W        W27467  25.852  41.245   3.752
60685W        W27468  31.067   1.727   4.142
60686W        W27469   9.883  40.463  12.007
60687W        W27470  44.246  18.278  12.575
60688W        W27471  22.116  22.090   3.173
60689W        W27472  37.322  17.281   1.870
60690W        W27473   3.891   8.954   3.885
60691W        W27474  15.642  13.845   3.584
60692W        W27475   9.419  13.075  14.006
60693W        W27476   0.338  17.843   3.037
60694W        W27477  10.529   3.657   3.372
60695W        W27478  11.472  21.843   4.871
60696W        W27479   7.900  16.141  14.887
60697W        W27480  19.013  34.542  14.883
60698W        W27481  24.583   2.302   0.501
60699W        W27482  33.999  43.052  10.684
60700W        W27483  41.210  28.114  13.847
60701W        W27484  17.794   0.984   3.727
60702W        W27485  27.424   0.031  10.426
60703W        W27486  44.936  43.533  12.047
60704W        W27487  44.448  40.545   3.274
60705W        W27488  37.793  15.279   1.932
60706W        W27489  27.725   5.603  11.295
60707W        W27490  33.537  31.651   0.299
60708W        W27491   9.661  43.894  12.122
60709W        W27492  22.470  31.915   4.054
60710W        W27493  39.989  25.187   4.684
60711W        W27494  39.508  22.005  11.492
60712W        W27495   1.089   9.734   3.711
60713W        W27496  36.442  41.014  13.939
60714W        W27497  27.654  19.577  11.129
60715W        W27498  41.246  27.036   0.693
60716W        W27499  17.596  24.189   3.626
60717W        W27500  17.707  27.611   4.549
60718W        W27501  22.215  22.553  13.283
60719W        W27502  42.416  17.366   0.231
60720W        W27503  43.486  35.944  12.891
60721W        W27504  39.552  39.230   3.873
60722W        W27505   7.472   7.277   1.234
60723W        W27506  25.385   3.677   4.153
60724W        W27507   4.819  23.409   1.172
60725W        W27508   9.530  31.590  11.851
60726W        W27509  36.738  26.665  11.604
60727W        W27510   5.581   6.680   1.119
60728W        W27511  12.949  25.919   2.351
60729W        W27512  29.302  20.676  13.608
60730W        W27513  37.187  15.413   1.792
60731W        W27514  13.981   0.309   4.358
60732W        W27515   3.186  29.954   0.306
60733W        W27516  36.340  43.548   2.691
60734W        W27517  11.903  14.813   2.859
60735W        W27518  32.156  38.037  14.431
60736W        W27519  29.563  17.154  12.460
60737W        W27520   5.023   2.753   0.794
60738W        W27521  27.725  18.090  12.642
60739W        W27522  20.791  42.231  12.519
60740W        W27523  27.833  26.587  10.577
60741W        W27524  41.700  16.105  10.396
60742W        W27525   2.332  19.346   4.036
60743W        W27526   2.194   8.986   2.704
60744W        W27527  15.037   0.491  12.558
60745W        W27528  36.494  43.231   1.466
60746W        W27529   3.351  43.376   1.205
60747W        W27530   7.130  18.334  13.280
60748W        W27531  28.884   6.407   4.091
60749W        W27532  24.114  18.695   1.905
60750W        W27533  25.714  26.218   1.301
60751W        W27534  25.113  41.545   0.436
60752W        W27535  23.658  22.716   3.304
60753W        W27536  10.248  23.174   2.829
60754W        W27537  12.906   9.330   3.571
60755W        W27538  41.942   5.644   0.644
60756W        W27539  27.438  19.110   4.373
60757W        W27540  32.927  32.839  12.111
60758W        W27541  12.290  20.055  14.699
60759W        W27542  37.636  40.811   3.677
60760W        W27543  38.274  21.152   4.137
60761W        W27544  30.504  35.930   3.898
60762W        W27545  13.692   7.128   1.480
60763W        W27546  20.271  32.670  12.149
60764W        W27547  23.971  13.728   3.320
60765W        W27548  14.218  10.923  14.507
60766W        W27549  12.712  24.332  12.587
60767W        W27550   3.802  23.585   4.229
60768W        W27551  26.948   2.103  14.410
60769W        W27552   7.681  41.645   4.147
60770W        W27553  36.847  23.296   0.833
60771W        W27554  13.013  32.171  11.137
60772W        W27555  39.084  23.505   0.207
60773W        W27556  12.807  27.480   1.244
60774W        W27557  30.814  11.599   3.547
60775W        W27558  18.151  10.089  11.248
60776W        W27559   4.372  10.091  13.323
60777W        W27560  24.659  25.472   1.786
60778W        W27561  20.632   5.848  10.057
60779W        W27562  16.768  12.811   0.856
60780W        W27563  35.425  44.343   0.588
60781W        W27564  24.936  23.435   3.695
60782W        W27565   1.614  26.165   3.703
60783W        W27566  39.946   8.761   0.025
60784W        W27567  26.296  42.352   5.270
60785W        W27568  11.365   5.169   4.877
60786W        W27569   8.176  37.891   2.165
60787W        W27570  27.734  25.891   1.810
60788W        W27571   4.947  10.036  10.242
60789W        W27572  25.279  11.720   1.709
60790W        W27573  25.164  38.634  13.199
60791W        W27574  36.825  10.627   2.282
60792W        W27575   2.398   6.701   1.839
60793W        W27576  21.030  18.718   0.038
60794W        W27577   3.120  39.473   1.702
60795W        W27578  24.569   4.756   1.008
60796W        W27579   3.451   4.389   3.312
60797W        W27580  10.164  24.812   4.301
60798W        W27581  11.103  23.183   3.688
60799W        W27582  14.334  12.647  14.481
60800W        W27583  27.080  39.897  13.852
60801W        W27584   8.649  36.924  12.429
60802W        W27585  13.996  12.267   4.004
60803W        W27586  38.032   1.330  11.894
60804W        W27587   3.026   4.953   1.234
60805W        W27588  18.213   3.262  11.570
60806W        W27589  39.324  36.823   3.754
60807W        W27590  33.636   6.970   0.382
60808W        W27591  22.330   7.818  11.543
60809W        W27592  27.101   8.425  13.471
60810W        W27593  31.608  36.840   3.833
60811W        W27594   3.036   7.732  12.941
60812W        W27595  18.660  18.737  12.036
60813W        W27596  32.348  40.406  10.834
60814W        W27597  14.656  29.206  13.005
60815W        W27598   8.899  16.427  14.770
60816W        W27599  44.265   3.187   4.076
60817W        W27600   2.256  43.458   3.165
60818W        W27601  41.809  12.847  12.574
60819W        W27602  39.407  14.629   4.870
60820W        W27603   1.573  12.812  13.900
60821W        W27604  38.466   2.366  12.320
60822W        W27605  39.367  44.532   1.388
60823W        W27606  18.969  18.147   4.250
60824W        W27607  17.624  11.788  11.294
60825W        W27608  29.436  23.100   1.389
60826W        W27609   4.384  17.662   2.067
60827W        W27610  33.874  16.523  14.982
60828W        W27611  38.541   2.323  14.316
60829W        W27612  29.669  31.923  13.428
60830W        W27613   5.965   0.697   1.409
60831W        W27614  38.438  11.155   4.577
60832W        W27615   5.951  15.270   4.664
60833W        W27616  31.868  40.595  11.082
60834W        W27617  32.678  36.073  11.230
60835W        W27618  41.770  10.095  12.911
60836W        W27619  15.648  34.289  13.184
60837W        W27620   2.000  40.901   1.217
60838W        W27621  13.280  23.219  13.325
60839W        W27622  37.128  35.519   0.310
60840W        W27623  35.169  12.721   0.866
60841W        W27624  43.252  42.600   1.190
60842W        W27625  20.968   7.128  10.843
60843W        W27626   6.418  37.545   1.876
60844W        W27627  38.671  12.430  11.930
60845W        W27628  22.543  25.685   3.976
60846W        W27629   8.590  32.005  11.940
60847W        W27630   0.269  25.904   0.802
60848W        W27631  37.106  16.659  10.628
60849W        W27632  11.793  15.537   0.548
60850W        W27633  44.847  37.466   0.616
60851W        W27634  23.676  42.111   0.856
60852W        W27635   8.797  34.080   4.650
60853W        W27636  17.182   8.127   2.668
60854W        W27637  13.810  41.019  12.022
60855W        W27638  19.706  25.174  10.113
60856W        W27639   8.256  34.305  12.528
60857W        W27640  34.365   2.189  12.108
60858W        W27641  17.135  16.191   2.770
60859W        W27642  23.870  19.624  11.187
60860W        W27643  23.017  14.564  12.033
60861W        W27644  30.180  34.699  13.447
60862W        W27645   8.489   5.780   1.715
60863W        W27646  34.108  10.321   4.682
60864W        W27647  29.101   1.963   3.745
60865W        W27648  30.900  39.840   3.238
60866W        W27649  36.408  43.079  11.566
60867W        W27650  18.130  21.748   4.497
60868W        W27651  44.314   4.874  10.567
60869W        W27652  13.849  24.256  11.166
60870W        W27653   7.238   4.388  14.716
60871W        W27654  39.489  19.747  14.783
60872W        W27655   1.277  32.086  11.223
60873W        W27656   1.542   0.022  10.876
60874W        W27657  43.417   2.710   0.412
60875W        W27658  44.114  33.265  11.037
60876W        W27659  26.028  11.040   4.471
60877W        W27660   8.663  37.251  10.688
60878W        W27661   5.073  44.451   4.455
60879W        W27662  39.134  25.941  12.981
60880W        W27663   5.649  35.118  11.199
60881W        W27664   9.292   7.106  11.227
60882W        W27665  40.065  38.344  14.910
60883W        W27666  40.726   5.338  11.297
60884W        W27667  40.859   8.400   4.700
60885W        W27668  17.003  34.319   2.221
60886W        W27669  11.351  35.054   0.998
60887W        W27670  32.957   3.801  13.409
60888W        W27671   5.278  44.330  14.818
60889W        W27672  19.506  43.813   2.721
60890W        W27673  30.137   1.965  12.069
60891W        W27674   3.708  25.142  10.234
60892W        W27675  31.599  20.381  12.941
60893W        W27676  31.654  19.540   1.561
60894W        W27677  20.198  22.967   3.667
60895W        W27678  39.545   6.024  12.480
60896W        W27679  10.836  41.237   0.999
60897W        W27680   9.425  29.469  12.651
60898W        W27681  41.575  24.077   0.809
60899W        W27682  23.152   5.622   1.024
60900W        W27683  31.822  17.406   3.122
60901W        W27684   2.058  38.883   0.884
60902W        W27685  30.423  26.726  11.615
60903W        W27686   7.757  37.306  10.755
60904W        W27687  33.455  20.456  11.458
60905W        W27688  23.510  25.383   1.337
60906W        W27689  31.117   2.930  14.279
60907W        W27690  30.168  27.160  12.622
60908W        W27691  19.133  12.562  14.339
60909W        W27692   1.206   2.323   4.466
60910W        W27693  44.446   8.422  11.605
60911W        W27694   1.259   4.274  13.872
60912W        W27695  18.549  41.001   4.365
60913W        W27696   3.863  33.983  10.734
60914W        W27697  15.743   2.382   4.584
60915W        W27698  24.729  10.899   0.500
60916W        W27699  31.900  34.008   1.607
60917W        W27700  13.974  26.120  11.155
60918W        W27701  13.544  32.998  11.103
60919W        W27702  28.867  31.402   2.872
60920W        W27703  21.748  37.435   3.918
60921W        W27704   6.184  20.745   3.252
60922W        W27705  11.236  26.496  10.433
60923W        W27706  25.202   9.986  13.149
60924W        W27707  44.931  35.841   3.750
60925W        W27708  14.294  34.070   2.872
60926W        W27709  10.812   0.784  11.930
60927W        W27710  11.176  44.714   0.466
60928W        W27711  39.788   0.990   4.874
60929W        W27712  41.502   6.638   1.374
60930W        W27713  20.521  37.468   0.039
60931W        W27714  31.632  13.686  11.618
60932W        W27715  17.519   7.449  11.474
60933W        W27716  30.894  34.223   5.235
60934W        W27717  26.323   2.750  12.012
60935W        W27718  35.062  41.452  14.791
60936W        W27719   7.927  10.170   2.095
60937W        W27720  34.607  20.358  12.897
60938W        W27721   7.214  16.853   4.073
60939W        W27722  18.714  23.984  13.828
60940W        W27723  18.701  17.228  14.459
60941W        W27724   6.907  34.099   2.648
60942W        W27725  21.299  13.836   4.637
60943W        W27726  24.689  33.396   0.436
60944W        W27727  38.115  33.905   1.526
60945W        W27728  31.119   8.372   1.778
60946W        W27729   6.075  25.823  11.104
60947W        W27730  39.935  11.360  13.258
60948W        W27731  41.710   8.963   2.464
60949W        W27732  23.596  40.798  12.330
60950W        W27733  31.446   0.007   2.316
60951W        W27734  22.798  31.523   0.342
60952W        W27735  15.031  26.218   4.523
60953W        W27736   4.135  41.275  14.952
60954W        W27737  27.696  15.696   0.389
60955W        W27738  41.374  15.248  11.854
60956W        W27739  28.636   9.398  11.602
60957W        W27740  20.606  12.347  11.389
60958W        W27741  22.646   7.719   0.244
60959W        W27742  38.805  29.586  12.043
60960W        W27743  26.713  20.991  14.559
60961W        W27744  41.802  22.258   4.072
60962W        W27745  20.239  36.057  11.496
60963W        W27746  10.130   3.320   2.191
60964W        W27747  43.750  22.946   4.627
60965W        W27748  44.926   7.877  14.774
60966W        W27749   5.055   0.450  11.910
60967W        W27750  32.853  17.778  13.083
60968W        W27751   8.585  38.029   2.760
60969W        W27752  34.343   6.458   0.909
60970W        W27753  13.701   2.359   1.394
60971W        W27754  23.414   6.180   0.228
60972W        W27755  21.550   4.960  12.720
60973W        W27756  27.877  44.318  11.212
60974W        W27757  41.007  23.702  11.723
60975W        W27758  21.389  37.483   4.644
60976W        W27759  25.976  43.942  10.283
60977W        W27760  23.114  31.035   3.863
60978W        W27761  28.584  33.133   2.953
60979W        W27762  16.266  44.397   2.789
60980W        W27763  30.159   6.272  13.652
60981W        W27764   9.749  34.369  10.629
60982W        W27765   1.034  44.833   0.767
60983W        W27766  41.516  20.038  10.886
60984W        W27767  10.215  40.258  12.340
60985W        W27768  35.651  30.124  11.995
60986W        W27769  24.160   6.958   3.261
60987W        W27770   8.898  10.851   3.785
60988W        W27771  16.541  40.511  14.689
60989W        W27772  32.483  31.242   3.716
60990W        W27773  21.803   0.413   1.922
60991W        W27774   2.959  24.205  13.394
60992W        W27775  23.308   3.985   1.185
60993W        W27776  17.454  32.235  10.770
60994W        W27777  28.676  17.564   2.174
60995W        W27778  13.101  30.562  13.845
60996W        W27779  44.072  14.587   3.090
60997W        W27780  26.613   0.982  11.949
60998W        W27781  30.582  40.557   2.773
60999W        W27782   9.386  11.767   4.577
61000W        W27783   3.435  16.165   1.350
61001W        W27784   1.050   3.595   2.371
61002W        W27785  14.748  12.793  10.693
61003W        W27786   4.589  17.252   0.591
61004W        W27787   7.801  34.052   0.788
61005W        W27788   2.983   4.873  10.582
61006W        W27789  38.385  34.022  11.024
61007W        W27790   7.920  35.460   1.416
61008W        W27791  33.715  31.648   2.876
61009W        W27792   2.602  19.162  11.272
61010W        W27793  42.369  41.734   5.011
61011W        W27794  16.631  43.630   0.078
61012W        W27795  35.234   1.178   4.569
61013W        W27796  35.368  21.063  13.843
61014W        W27797  20.706  10.826   2.513
61015W        W27798   4.895  42.142  13.026
61016W        W27799  31.383   9.808  12.920
61017W        W27800  27.630  20.481   3.681
61018W        W27801  31.571  21.312   3.196
61019W        W27802  18.123  15.386   3.580
61020W        W27803  40.464  27.487   4.317
61021W        W27804  30.452   7.589  14.898
61022W        W27805  11.140   6.008   1.162
61023W        W27806   9.088  22.964   2.608
61024W        W27807   1.716  44.006  14.085
61025W        W27808   7.413  38.000   0.656
61026W        W27809  18.691  19.049   4.639
61027W        W27810  11.519  11.140  14.002
61028W        W27811  31.463   0.061  12.897
61029W        W27812  23.083  20.267   4.068
61030W        W27813  23.247  22.666  14.525
61031W        W27814  44.896   7.463   1.798
61032W        W27815  25.085  39.247   1.372
61033W        W27816   1.488   9.290   0.206
61034W        W27817   3.722  35.663  11.229
61035W        W27818  40.248  32.970   4.209
61036W        W27819  33.530  21.492   3.018
61037W        W27820  30.821  33.976   3.611
61038W        W27821  32.718  44.247  13.939
61039W        W27822  21.870  10.593   5.068
61040W        W27823  36.410   2.953  13.766
61041W        W27824  42.481  20.702  12.509
61042W        W27825   2.916  34.194   2.289
61043W        W27826  29.015  18.636  12.429
61044W        W27827  32.870   8.437   0.935
61045W        W27828  20.115   4.955  13.949
61046W        W27829   1.704  18.972  13.045
61047W        W27830  35.491  30.871   2.742
61048W        W27831   6.476  29.226  11.164
61049W        W27832  13.572  29.101  14.542
61050W        W27833  28.627  42.230   1.761
61051W        W27834  15.218   7.653   2.350
61052W        W27835  28.677   0.948  12.612
61053W        W27836  31.122   2.835   4.296
61054W        W27837  27.935  12.258  12.130
61055W        W27838  28.128  24.527   3.800
61056W        W27839   5.037  18.182   0.916
61057W        W27840  33.644  13.774  11.416
61058W        W27841  34.318  39.451  14.923
61059W        W27842  24.234  29.342   4.154
61060W        W27843  41.601  16.146   3.611
61061W        W27844  15.250  31.378   0.253
61062W        W27845  28.603  10.579  11.126
61063W        W27846  20.077  12.622  11.679
61064W        W27847  17.179   1.851  11.331
61065W        W27848  41.491   7.893  11.210
61066W        W27849  25.152  11.692   2.829
61067W        W27850  18.230  27.983   3.071
61068W        W27851  13.085  25.922  13.870
61069W        W27852  35.073   0.474   1.137
61070W        W27853  24.560  43.442  11.960
61071W        W27854   2.808  21.219  11.568
61072W        W27855   2.803  17.128   1.067
61073W        W27856  36.557   0.652  13.285
61074W        W27857   8.305  29.136  10.748
61075W        W27858  23.477   5.533   4.076
61076W        W27859  26.186  19.723   0.380
61077W        W27860   7.314  20.988   2.138
61078W        W27861  24.041  27.966   1.765
61079W        W27862  41.955   9.399   3.564
61080W        W27863  24.828  20.739   2.285
61081W        W27864  29.213  44.279  14.860
61082W        W27865  20.300   0.757   0.950
61083W        W27866   2.454   5.808  11.155
61084W        W27867  30.240   9.729  11.653
61085W        W27868  16.860   3.008  12.234
61086W        W27869  16.091  25.220   1.287
61087W        W27870  28.104   6.435   5.152
61088W        W27871  34.522  38.173  12.536
61089W        W27872  26.348  43.788   1.849
61090W        W27873   9.275  13.255  10.673
61091W        W27874  38.313  15.349   1.897
61092W        W27875  14.240  41.964  14.964
61093W        W27876  41.565  18.344   3.743
61094W        W27877  31.323   4.293  11.124
61095W        W27878  22.592   3.395  13.431
61096W        W27879  11.095  38.427  13.427
61097W        W27880  16.364  14.732  14.850
61098W        W27881  21.677  37.459  11.541
61099W        W27882   3.979  40.454  10.095
61100W        W27883  15.154  17.411   0.489
61101W        W27884  26.715  34.671   2.173
61102W        W27885   4.626  40.315   4.273
61103W        W27886  25.679  17.382  10.699
61104W        W27887  10.949   1.547  10.457
61105W        W27888  44.435   1.860  14.362
61106W        W27889  12.038  28.566   3.637
61107W        W27890  17.211  11.103   4.404
61108W        W27891  34.615   9.596  12.440
61109W        W27892  22.312  25.998  13.551
61110W        W27893  13.238  27.748   1.917
61111W        W27894   8.183   7.738   2.582
61112W        W27895  15.816  17.235   0.476
61113W        W27896   8.663  21.011   3.357
61114W        W27897  38.148  32.612  12.540
61115W        W27898  31.236  33.685  13.829
61116W        W27899  44.451   7.644  13.885
61117W        W27900  33.727  26.411   5.017
61118W        W27901  16.340   8.285  10.706
61119W        W27902   0.910  10.578  11.600
61120W        W27903  31.840  20.436   3.212
61121W        W27904  14.285  24.713   4.209
61122W        W27905  33.631  35.706   4.143
61123W        W27906  11.678  38.843   1.087
61124W        W27907  22.932  44.026   2.844
61125W        W27908  11.983  21.559  13.981
61126W        W27909  26.099  28.689  13.772
61127W        W27910   0.367  28.405  11.347
61128W        W27911   3.952  33.626  12.151
61129W        W27912  20.298  37.057  14.328
61130W        W27913   5.814  31.481   0.404
61131W        W27914  42.722  24.069  11.631
61132W        W27915   9.940  18.077  12.513
61133W        W27916  39.998  37.346   4.584
61134W        W27917  14.084  43.494  11.627
61135W        W27918  12.512  15.541   0.771
61136W        W27919   4.732  38.103   1.313
61137W        W27920   4.229   8.167   4.497
61138W        W27921   9.066  33.223  14.255
61139W        W27922  40.391  40.594   0.441
61140W        W27923  13.197  30.195  11.275
61141W        W27924  37.111  15.242   2.304
61142W        W27925  36.890   1.423  14.647
61143W        W27926  13.140  37.431   1.357
61144W        W27927  18.100  15.355  14.454
61145W        W27928  39.597  32.074   3.339
61146W        W27929  10.931   8.789   3.961
61147W        W27930  42.808  15.858   4.389
61148W        W27931  21.320  30.071   2.295
61149W        W27932  27.942  23.755   4.941
61150W        W27933  12.412  23.258   2.140
61151W        W27934  31.353  13.957   1.407
61152W        W27935  22.425  11.618  12.650
61153W        W27936   6.865  32.140  14.491
61154W        W27937  39.360   6.665  14.926
61155W        W27938   9.543   6.097  13.832
61156W        W27939  15.048  36.281   1.603
61157W        W27940   6.996  32.040  11.155
61158W        W27941  42.449  33.077   1.886
61159W        W27942  26.067  41.984   2.193
61160W        W27943  12.644  42.882   2.327
61161W        W27944  36.465  19.309  13.496
61162W        W27945  29.711  24.613  11.387
61163W        W27946  26.672  13.663  12.912
61164W        W27947  17.583  38.181   3.669
61165W        W27948   8.374  30.635   4.464
61166W        W27949   0.585  42.022   1.259
61167W        W27950  35.773   5.339  14.827
61168W        W27951  17.187   9.616  10.810
61169W        W27952  32.773  24.520   0.972
61170W        W27953   1.790  32.331  14.781
61171W        W27954  11.059  15.604  14.910
61172W        W27955  33.659  11.897  12.898
61173W        W27956   6.193  32.108  10.572
61174W        W27957  10.677   3.727   0.505
61175W        W27958  42.766  42.339   1.307
61176W        W27959   2.320  41.694  12.006
61177W        W27960   4.305  37.211   4.073
61178W        W27961  19.044  21.009   3.286
61179W        W27962  41.755  11.580   1.359
61180W        W27963  32.869   1.681   2.656
61181W        W27964  29.706  17.648  11.531
61182W        W27965  31.068  19.530  11.389
61183W        W27966  42.299   4.878  12.025
61184W        W27967  32.199  22.001   3.252
61185W        W27968  20.936  28.825   4.465
61186W        W27969  33.965  31.617   3.640
61187W        W27970  28.177  17.072  13.909
61188W        W27971  40.771  13.018  10.282
61189W        W27972  14.612   5.732   3.644
61190W        W27973  15.241  28.037   3.116
61191W        W27974  27.926  20.382   0.321
61192W        W27975  35.034  42.503  13.493
61193W        W27976  28.622  43.484   3.055
61194W        W27977  22.665  33.800   5.000
61195W        W27978   3.622   1.540  11.977
61196W        W27979  31.119   7.309  12.532
61197W        W27980  30.581   0.673   2.701
61198W        W27981  38.908  31.439  12.501
61199W        W27982   3.192  17.690   2.836
61200W        W27983  42.380   7.640  12.399
61201W        W27984  27.678  13.178   3.344
61202W        W27985  43.693  39.037   3.621
61203W        W27986  18.577   8.702  10.780
61204W        W27987   1.782   5.762  12.441
61205W        W27988  21.133  35.020   1.943
61206W        W27989  23.275  43.397  14.002
61207W        W27990  11.187  16.317   2.461
61208W        W27991  30.023  27.741  11.581
61209W        W27992  38.711  10.647  11.567
61210W        W27993  13.214  42.364  13.565
61211W        W27994  41.502  33.509   3.098
61212W        W27995  44.479  24.681   4.892
61213W        W27996  14.314  14.285  12.941
61214W        W27997  19.405  20.928   1.217
61215W        W27998  18.738   5.627  11.048
61216W        W27999  23.691  16.638  14.966
61217W        W28000  29.586  33.659  12.968
61218W        W28001  20.661   3.463   0.887
61219W        W28002  32.632  12.342   3.294
61220W        W28003  39.985   1.570   4.885
61221W        W28004  32.336  31.802  14.523
61222W        W28005  33.526  42.366  13.285
61223W        W28006  37.316  23.706  12.229
61224W        W28007   3.290   2.743   1.787
61225W        W28008   0.664   4.151  10.929
61226W        W28009   3.940  18.126   4.162
61227W        W28010  12.742  18.063   1.629
61228W        W28011   8.754  35.159  13.974
61229W        W28012  37.624  12.801   0.201
61230W        W28013  40.765  34.214   9.657
61231W        W28014  27.097   8.682   4.679
61232W        W28015  44.499  23.669   4.612
61233W        W28016   9.989  10.866   5.658
61234W        W28017  44.201  32.808   3.479
61235W        W28018  10.576  11.635  10.874
61236W        W28019  11.620   8.438   2.681
61237W        W28020  33.558   7.459   1.243
61238W        W28021  39.871  16.466  12.499
61239W        W28022   0.823   9.666  11.431
61240W        W28023  41.872  22.024  11.997
61241W        W28024  17.671  15.578  11.975
61242W        W28025  18.112  35.538  12.578
61243W        W28026   6.293   8.851   4.087
61244W        W28027  25.797   7.489   4.795
61245W        W28028  38.836  37.649   3.402
61246W        W28029  18.076   3.764   0.966
61247W        W28030  19.559   7.167   0.307
61248W        W28031  24.036  35.899   4.829
61249W        W28032  33.557  36.095   1.264
61250W        W28033  43.847  12.606   2.361
61251W        W28034  26.679  32.822   2.774
61252W        W28035  43.564  38.409  12.421
61253W        W28036   6.934   2.721   1.843
61254W        W28037  36.953  20.272  12.970
61255W        W28038  40.879  38.895   0.209
61256W        W28039  21.081  33.424   4.554
61257W        W28040  35.621  39.334  12.016
61258W        W28041  36.494  28.102  12.240
61259W        W28042  42.805   3.797   2.199
61260W        W28043  23.853  41.967   2.342
61261W        W28044  37.977  29.121   4.114
61262W        W28045  38.379  33.464  13.428
61263W        W28046  39.836  23.759  10.670
61264W        W28047  26.975   3.165  14.317
61265W        W28048  23.948   1.006   4.589
61266W        W28049  40.370   5.261  11.654
61267W        W28050  39.793  30.717  14.869
61268W        W28051  27.135  23.635  11.390
61269W        W28052   8.757  18.200   0.934
61270W        W28053  26.902   6.867   2.653
61271W        W28054   1.789   0.962   2.276
61272W        W28055  16.576  19.449  11.189
61273W        W28056  12.636   7.713  14.770
61274W        W28057  43.011  24.023  13.546
61275W        W28058   8.709  18.226  14.894
61276W        W28059   3.593   1.525   2.072
61277W        W28060  24.088   9.706   0.472
61278W        W28061  33.971   5.300   1.321
61279W        W28062   1.386  38.410   1.685
61280W        W28063  25.285  31.556  11.127
61281W        W28064  18.721  15.939  13.759
61282W        W28065   1.703  42.223  12.377
61283W        W28066  25.023  15.798   2.390
61284W        W28067   4.954  22.137   4.797
61285W        W28068   2.182   2.648  14.356
61286W        W28069   7.862   1.928  13.066
61287W        W28070   4.724  25.526  13.773
61288W        W28071  38.619  24.488   2.613
61289W        W28072   4.794  22.606  11.934
61290W        W28073   0.733  44.561  13.498
61291W        W28074  27.105   9.243   0.458
61292W        W28075  25.779  12.025   0.934
61293W        W28076  36.095   3.631  11.228
61294W        W28077  30.591   1.931   2.157
61295W        W28078  26.615  13.406   5.197
61296W        W28079  41.278   1.053   2.957
61297W        W28080   5.343  44.364  10.739
61298W        W28081  33.405  27.523  12.423
61299W        W28082   9.437  14.745  11.753
61300W        W28083  41.796  22.576   3.206
61301W        W28084  29.145  31.962  14.962
61302W        W28085  34.771  21.395  10.291
61303W        W28086  38.865  14.157  13.378
61304W        W28087  33.886  18.329   3.694
61305W        W28088  36.554  36.084  14.252
61306W        W28089   4.666  35.261   3.052
61307W        W28090   9.669  25.284   0.761
61308W        W28091  26.929  13.729   4.827
61309W        W28092   7.246  13.386  14.644
61310W        W28093  43.892  18.669   4.976
61311W        W28094  33.571  35.411  10.557
61312W        W28095  38.384  30.422  12.068
61313W        W28096  44.319  23.573  13.402
61314W        W28097  15.805  34.054  10.663
61315W        W28098  14.769  20.294  14.001
61316W        W28099  18.761  19.226   1.418
61317W        W28100  20.119  16.565   0.339
61318W        W28101   8.822  11.367   3.692
61319W        W28102   4.490  28.622   2.192
61320W        W28103  42.360  10.180   2.772
61321W        W28104  44.894  33.786  12.967
61322W        W28105  14.698  12.702  13.563
61323W        W28106  39.504  43.895  12.869
61324W        W28107  41.490  34.074   2.406
61325W        W28108  13.347  40.392   1.238
61326W        W28109  40.330  14.573  14.356
61327W        W28110  12.892   7.271  14.541
61328W        W28111  16.761   0.510   4.456
61329W        W28112   6.864  23.645   0.924
61330W        W28113   7.140  22.047  12.127
61331W        W28114  31.300  31.365   4.054
61332W        W28115  14.215  11.826  14.442
61333W        W28116  21.189  29.580   2.366
61334W        W28117  15.234  22.885   0.551
61335W        W28118  38.825  30.664  11.952
61336W        W28119  40.289  34.184  14.031
61337W        W28120  42.022  11.781  11.178
61338W        W28121  21.416   2.963  12.594
61339W        W28122  11.949  26.218   1.561
61340W        W28123   7.207  35.477   3.505
61341W        W28124  25.754  39.381  12.705
61342W        W28125  37.237  16.301  12.009
61343W        W28126  37.949   6.608   0.017
61344W        W28127   5.293  28.105  13.825
61345W        W28128  29.394  14.944   0.308
61346W        W28129  17.679   8.895  10.854
61347W        W28130   0.513  27.213  14.811
61348W        W28131  31.844  13.710   3.408
61349W        W28132   0.378  25.982  12.838
61350W        W28133  28.949  23.540   1.720
61351W        W28134  41.346  39.225  12.403
61352W        W28135  11.657  14.356  13.404
61353W        W28136  36.877  21.985   2.606
61354W        W28137  41.338  38.927   3.219
61355W        W28138  13.803  43.750   1.322
61356W        W28139  27.733  38.773   3.311
61357W        W28140  22.297  33.434  11.132
61358W        W28141  11.230   1.713   2.836
61359W        W28142  14.921   0.516   2.681
61360W        W28143   1.401   1.927  14.384
61361W        W28144  23.726  34.439  13.009
61362W        W28145   6.278  34.700  14.008
61363W        W28146  10.688  29.984  10.718
61364W        W28147  29.807   6.081  14.471
61365W        W28148  16.273  31.504   3.261
61366W        W28149  26.426   1.268   0.941
61367W        W28150  22.695  15.649  12.387
61368W        W28151   4.192  21.318   4.213
61369W        W28152  36.480   0.382   0.667
61370W        W28153  38.271   3.140   4.249
61371W        W28154  35.362  24.572  14.680
61372W        W28155   3.249  36.833  11.214
61373W        W28156  39.516  20.287  10.696
61374W        W28157  28.789  34.451   1.045
61375W        W28158   6.849  23.412   2.913
61376W        W28159   6.713  32.605  12.842
61377W        W28160  26.979  18.591  11.557
61378W        W28161   7.907  17.601   4.109
61379W        W28162  41.927  36.688  13.319
61380W        W28163  17.263  42.820  10.859
61381W        W28164   4.940  23.278   3.980
61382W        W28165  29.684   1.425  13.958
61383W        W28166  23.509  35.319   1.228
61384W        W28167  31.212  44.245  11.170
61385W        W28168  34.900  24.465  12.542
61386W        W28169   3.747  28.630  13.503
61387W        W28170   0.867   2.933  14.166
61388W        W28171   5.891  14.279   4.480
61389W        W28172   4.894   6.694   0.507
61390W        W28173  26.930  20.775   0.429
61391W        W28174  27.079  22.496   2.356
61392W        W28175  29.073   6.320   0.284
61393W        W28176  35.807   9.295   0.680
61394W        W28177  12.288   4.912   4.314
61395W        W28178  13.050  30.284   1.396
61396W        W28179  44.857  12.599   3.111
61397W        W28180   4.505  34.098  11.675
61398W        W28181  12.175  34.085   2.395
61399W        W28182  32.126   4.577   4.562
61400W        W28183   3.904  19.132   4.628
61401W        W28184   6.820   0.212  14.773
61402W        W28185  21.506  30.543  12.635
61403W        W28186   2.912   4.927  12.228
61404W        W28187   3.169  22.823   5.002
61405W        W28188  40.554  44.410   4.525
61406W        W28189   5.957  23.581  10.787
61407W        W28190  39.800  11.774  12.971
61408W        W28191  43.985   3.855  10.713
61409W        W28192  44.707  42.878   4.539
61410W        W28193  20.353  10.808  12.101
61411W        W28194  34.802  14.317  13.742
61412W        W28195  32.144  33.182   3.639
61413W        W28196  18.649  29.745  12.934
61414W        W28197  29.621  21.547   3.770
61415W        W28198  23.684  41.591   0.643
61416W        W28199   2.955  18.954   2.294
61417W        W28200  13.749  39.320  12.499
61418W        W28201  43.278  16.779  12.850
61419W        W28202  27.139  27.577  11.889
61420W        W28203   7.903   1.309   1.731
61421W        W28204  10.544  44.231   0.998
61422W        W28205  20.864  12.844   4.611
61423W        W28206  42.840  16.533   2.747
61424W        W28207   2.958  43.929   3.163
61425W        W28208  31.672  29.088   1.318
61426W        W28209  44.733  41.526   2.766
61427W        W28210  40.469   8.302   2.594
61428W        W28211   9.528   8.787  10.124
61429W        W28212  15.110  41.344  14.971
61430W        W28213  20.304  28.690   1.790
61431W        W28214  15.298  35.219   0.911
61432W        W28215  14.407   5.672   1.318
61433W        W28216  31.410   5.715  12.934
61434W        W28217  22.867  16.363   2.701
61435W        W28218   3.209  10.790  12.853
61436W        W28219  44.877   3.817   4.249
61437W        W28220  23.158  32.937   1.007
61438W        W28221  36.892   4.579   2.784
61439W        W28222  32.550  40.289   3.637
61440W        W28223  26.725  44.952  11.166
61441W        W28224  13.630  13.218   0.866
61442W        W28225  26.716   7.383  13.496
61443W        W28226   6.606  30.975  13.492
61444W        W28227  39.072  30.510   2.154
61445W        W28228  11.936  16.307   2.691
61446W        W28229  30.880  11.771  14.548
61447W        W28230   1.979  43.381   3.862
61448W        W28231  10.193  36.197   4.274
61449W        W28232  16.976  13.931  13.433
61450W        W28233  26.280  26.241   3.836
61451W        W28234  15.054  20.427   1.308
61452W        W28235  12.152  21.109   2.802
61453W        W28236  26.517  26.687   5.003
61454W        W28237  37.392  35.646   1.839
61455W        W28238  16.473  14.501   9.906
61456W        W28239  32.019  11.006   0.809
61457W        W28240  31.102   5.639  12.518
61458W        W28241  29.503   4.063   3.349
61459W        W28242   9.859  31.052  11.597
61460W        W28243  22.295  44.373  11.886
61461W        W28244  38.539   4.815  12.491
61462W        W28245  22.863  24.177  14.300
61463W        W28246  33.653  31.034  13.586
61464W        W28247  42.308   0.978   4.560
61465W        W28248  14.905   4.768   3.652
61466W        W28249   4.391  17.090   2.236
61467W        W28250   7.420   4.555   2.699
61468W        W28251  10.124  44.423  11.040
61469W        W28252  16.159  25.088   3.838
61470W        W28253  34.100   1.796   3.237
61471W        W28254   2.220  23.270   1.291
61472W        W28255  19.504  10.354   1.395
61473W        W28256  31.031  21.667   3.680
61474W        W28257   8.450  10.744  14.788
61475W        W28258   3.285  25.438  12.938
61476W        W28259   4.896  38.998  10.595
61477W        W28260  31.163  14.628   4.962
61478W        W28261  15.346  22.238  13.960
61479W        W28262  24.588  31.097   0.386
61480W        W28263  24.549  34.853  10.719
61481W        W28264   8.119   4.809   4.727
61482W        W28265  12.371   2.445   3.248
61483W        W28266  34.886  29.383   3.685
61484W        W28267  23.980  23.600   2.592
61485W        W28268  20.570   0.899  13.655
61486W        W28269   9.738  43.772   3.258
61487W        W28270  10.615  16.674  12.915
61488W        W28271  29.975  40.303   1.886
61489W        W28272  43.340  19.071  14.466
61490W        W28273  43.539  39.887  14.953
61491W        W28274  36.323  17.525  14.903
61492W        W28275  17.559   0.964  11.427
61493W        W28276   1.323  33.382   2.095
61494W        W28277  43.857  20.501  13.857
61495W        W28278  30.536  35.002   0.238
61496W        W28279  35.872   5.825  12.848
61497W        W28280  29.018   4.823   3.867
61498W        W28281  38.130   2.295   3.872
61499W        W28282  10.768  10.342   3.997
61500W        W28283  42.348   5.693   2.589
61501W        W28284   1.975  25.913   1.411
61502W        W28285   5.175  38.943   0.977
61503W        W28286  41.454   4.998   1.878
61504W        W28287  26.966   1.763  10.637
61505W        W28288  36.182  12.772   0.821
61506W        W28289  39.795  42.971  12.398
61507W        W28290  32.343  18.851  14.877
61508W        W28291  44.412  42.640  14.941
61509W        W28292  30.061  12.261  11.872
61510W        W28293   2.308  29.783   3.188
61511W        W28294  33.151  16.165   2.269
61512W        W28295  37.519  15.829  13.919
61513W        W28296  28.079  23.995   4.516
61514W        W28297  27.347  10.578   2.384
61515W        W28298  44.345  17.700   1.409
61516W        W28299  43.863  44.796  14.969
61517W        W28300  42.261   4.699  14.470
61518W        W28301  23.516   6.850   2.836
61519W        W28302   3.410  40.689   1.858
61520W        W28303   4.751  13.320   1.232
61521W        W28304  11.551  40.888   1.387
61522W        W28305  43.728  38.846  14.454
61523W        W28306  39.528   5.386   1.197
61524W        W28307   0.661  13.746  12.359
61525W        W28308  13.151   4.967  12.813
61526W        W28309  21.008  24.430  13.393
61527W        W28310  14.671  14.488   0.938
61528W        W28311  13.741   5.003  13.445
61529W        W28312   5.836  18.078  10.616
61530W        W28313   1.369  16.641  12.379
61531W        W28314  15.422  14.155   2.482
61532W        W28315  24.165  24.198   2.337
61533W        W28316  26.739  42.406  12.072
61534W        W28317  39.888  39.881   2.286
61535W        W28318  17.653  40.260  12.265
61536W        W28319  24.833  24.068  14.872
61537W        W28320  19.658  20.109  12.184
61538W        W28321   1.690  10.150   0.710
61539W        W28322  35.444   7.702  11.599
61540W        W28323   5.964  10.327   3.349
61541W        W28324  28.190  13.129  12.387
61542W        W28325   6.158   0.218   0.441
61543W        W28326   2.551  12.726   2.393
61544W        W28327  31.910   8.293   4.900
61545W        W28328   1.074  14.549  10.289
61546W        W28329  30.679  41.058   0.379
61547W        W28330  25.867   2.667   2.910
61548W        W28331  33.133   8.799  11.382
61549W        W28332  29.030  31.185  11.485
61550W        W28333  41.467  13.065   3.692
61551W        W28334  38.334  15.142  14.518
61552W        W28335  43.475  35.854  11.981
61553W        W28336  33.427  11.358   2.893
61554W        W28337   8.689  29.026   0.271
61555W        W28338   6.591   5.196  12.999
61556W        W28339  23.576  14.795  12.865
61557W        W28340  24.145  18.725  11.889
61558W        W28341  39.705   2.651  12.645
61559W        W28342  34.051  11.071  12.487
61560W        W28343  18.084  41.630  14.389
61561W        W28344  21.806  36.377   4.619
61562W        W28345  15.606  12.654   1.313
61563W        W28346  44.951  37.194  11.182
61564W        W28347  26.709   5.413   0.983
61565W        W28348  25.202  17.689   1.658
61566W        W28349  42.724   6.781   1.907
61567W        W28350  29.732  27.233   4.115
61568W        W28351   7.397   1.052   3.100
61569W        W28352  41.437  29.847  10.771
61570W        W28353   2.700  25.546  11.954
61571W        W28354  11.868  33.155   2.014
61572W        W28355  40.338   0.336   2.190
61573W        W28356  32.183  33.110  11.416
61574W        W28357  25.088  18.191  13.546
61575W        W28358  31.858  29.636   4.020
61576W        W28359  42.993  18.997  11.253
61577W        W28360  22.151  24.014  10.250
61578W        W28361  23.055   8.204   4.056
61579W        W28362  20.670  42.780   2.763
61580W        W28363   1.288  31.777  13.921
61581W        W28364  19.233   9.468  13.906
61582W        W28365   4.262  31.711  11.573
61583W        W28366  29.513   8.941  10.725
61584W        W28367  22.518   3.789  12.051
61585W        W28368  32.605  41.941  14.067
61586W        W28369  13.325  34.314   1.824
61587W        W28370  38.331   2.808  13.064
61588W        W28371  25.571  22.176  11.751
61589W        W28372  11.292  25.710   2.748
61590W        W28373   4.038  26.530   1.931
61591W        W28374  38.544  32.295  12.401
61592W        W28375  14.931   5.910   2.273
61593W        W28376  26.167  37.990   3.669
61594W        W28377  16.730  39.982   4.614
61595W        W28378  31.045  10.069   1.640
61596W        W28379  35.557  28.988  14.374
61597W        W28380  19.681  37.567   3.832
61598W        W28381  38.013   3.541   1.298
61599W        W28382  20.088  15.781   0.800
61600W        W28383  26.229  42.602  14.309
61601W        W28384  19.632   7.682   4.612
61602W        W28385   9.071  15.042  14.915
61603W        W28386  43.264  39.928  10.783
61604W        W28387  40.799  40.936   2.693
61605W        W28388   7.834   1.035  13.060
61606W        W28389  16.168  42.075   0.915
61607W        W28390  37.062  19.667  13.955
61608W        W28391  24.750  18.369   4.994
61609W        W28392  26.955  25.606  14.585
61610W        W28393  22.325  29.943  10.401
61611W        W28394   4.913  33.969  11.386
61612W        W28395   4.159  23.057   2.752
61613W        W28396  13.166  13.332  11.064
61614W        W28397  27.225  18.395  11.963
61615W        W28398   9.874   4.003  12.683
61616W        W28399  14.330   7.930   4.558
61617W        W28400  20.412  38.551   3.141
61618W        W28401  12.132   0.392  11.265
61619W        W28402  11.644  13.822  12.001
61620W        W28403   8.359  12.686   4.602
61621W        W28404  41.905   8.286   0.298
61622W        W28405   3.174   8.892  11.612
61623W        W28406   8.492  19.142  14.479
61624W        W28407   7.913   9.327   3.493
61625W        W28408  15.172  27.219  10.905
61626W        W28409  22.220  32.984   2.189
61627W        W28410  13.644  13.330   3.908
61628W        W28411  22.677  18.807   0.307
61629W        W28412  22.028  18.432  13.002
61630W        W28413  34.420  37.469  11.525
61631W        W28414  38.083  36.792   1.814
61632W        W28415  41.328   6.879  12.504
61633W        W28416  19.564   2.979   3.211
61634W        W28417  35.483   6.420  14.443
61635W        W28418  44.385  30.345   2.380
61636W        W28419  27.115  31.624  12.483
61637W        W28420  29.362  26.073  12.412
61638W        W28421  40.517  42.960  12.989
61639W        W28422  21.649  43.356  14.041
61640W        W28423  35.410  24.422  11.008
61641W        W28424   8.273   4.102   3.677
61642W        W28425  34.114  24.471  10.218
61643W        W28426  19.833  42.114  11.553
61644W        W28427   1.847  29.843   1.655
61645W        W28428  16.366   5.989   2.359
61646W        W28429   7.279  19.626   5.033
61647W        W28430  29.975   3.423  10.762
61648W        W28431  29.639  12.801   2.624
61649W        W28432  33.338  15.884  10.086
61650W        W28433  19.027  17.617   1.356
61651W        W28434  32.176   6.677  13.837
61652W        W28435  13.740   8.621   4.147
61653W        W28436  25.461  32.547   4.843
61654W        W28437  36.449  39.033   0.874
61655W        W28438  14.240  16.219   2.351
61656W        W28439   1.187   1.423  13.642
61657W        W28440  42.419  43.413  11.484
61658W        W28441  15.193  21.566   2.241
61659W        W28442   3.489   4.125  12.366
61660W        W28443  38.007  27.005   2.791
61661W        W28444  29.856  20.925  13.830
61662W        W28445  36.529   3.882  11.054
61663W        W28446  13.805  16.681  13.871
61664W        W28447  23.519  14.791   0.421
61665W        W28448  42.278  44.504  14.890
61666W        W28449  31.874   8.175  13.058
61667W        W28450  37.970  17.775  12.808
61668W        W28451  13.302  11.246   2.447
61669W        W28452  18.855  23.731   1.288
61670W        W28453   2.576   4.260  11.634
61671W        W28454  29.202  37.868  12.841
61672W        W28455  30.650  15.203   1.902
61673W        W28456  13.674  29.892   0.770
61674W        W28457   8.833  41.556  14.879
61675W        W28458  40.394  24.979   2.532
61676W        W28459  26.221  17.438  12.277
61677W        W28460   0.896  12.233  10.854
61678W        W28461  31.202  10.832   0.222
61679W        W28462   2.768  42.577  12.098
61680W        W28463   5.325   9.222  12.121
61681W        W28464  20.858  39.728  11.604
61682W        W28465  41.179  14.351   3.088
61683W        W28466   4.970  34.903   5.050
61684W        W28467  40.935   7.510  14.197
61685W        W28468   7.253  11.226  12.894
61686W        W28469   1.631  29.873  13.071
61687W        W28470  28.064  36.499   2.448
61688W        W28471   8.451  42.292   3.265
61689W        W28472  38.552  16.544  11.638
61690W        W28473  39.867  17.504   2.620
61691W        W28474  17.358  42.410   2.066
61692W        W28475  21.739   4.633  11.220
61693W        W28476  21.446  10.153   2.737
61694W        W28477  20.823   8.675   2.318
61695W        W28478  42.737  42.933   2.597
61696W        W28479  22.076  37.391  10.593
61697W        W28480  20.152  18.283  11.202
61698W        W28481   1.406  44.615  14.395
61699W        W28482  33.872  42.505   0.624
61700W        W28483   6.504  17.733  14.391
61701W        W28484  19.750   9.175  13.031
61702W        W28485  43.915  22.211   0.520
61703W        W28486  40.015  34.680  13.336
61704W        W28487  30.643  14.866  13.243
61705W        W28488  39.967  19.702  14.610
61706W        W28489  31.468  32.095   2.472
61707W        W28490  14.785  19.805   3.454
61708W        W28491  10.827  19.567   0.919
61709W        W28492  34.002  15.010  12.933
61710W        W28493  28.126   8.363  13.585
61711W        W28494  39.943   0.342   3.277
61712W        W28495   1.703  23.731  12.563
61713W        W28496  16.104  43.092   0.899
61714W        W28497   2.453  32.424  13.914
61715W        W28498  16.076  43.899   2.508
61716W        W28499   1.807   4.279   3.363
61717W        W28500   8.872   4.652   1.915
61718W        W28501  36.349  23.572   4.007
61719W        W28502   5.189   2.616  10.394
61720W        W28503  19.159  40.506  11.128
61721W        W28504   6.191  14.759  12.885
61722W        W28505   9.360  31.894   3.289
61723W        W28506  32.509  21.779   2.144
61724W        W28507  24.700  22.499   0.938
61725W        W28508  15.954   6.052  11.216
61726W        W28509  35.118  25.519   3.466
61727W        W28510  10.345  13.636  12.992
61728W        W28511  27.000  17.588  13.420
61729W        W28512  11.675   2.511  13.999
61730W        W28513  31.544  26.041  14.056
61731W        W28514  18.284  29.231  11.532
61732W        W28515   2.652  20.732   3.732
61733W        W28516  39.801  13.071  11.950
61734W        W28517  35.483  10.291   3.120
61735W        W28518  39.735  21.017   1.234
61736W        W28519  38.475  39.251   2.660
61737W        W28520  16.885  13.169  13.749
61738W        W28521   6.213  40.324  12.619
61739W        W28522  30.714  38.485  12.575
61740W        W28523  31.111  25.994  12.553
61741W        W28524  24.893  39.781  14.010
61742W        W28525  40.020  27.824   1.000
61743W        W28526  29.568  13.015   4.533
61744W        W28527  32.532  38.546   3.025
61745W        W28528  14.022  32.812   3.318
61746W        W28529  22.566  25.140   5.325
61747W        W28530  28.733  14.815  13.974
61748W        W28531  14.234  26.546  13.832
61749W        W28532   4.690   2.883  12.924
61750W        W28533  22.106  17.019   4.701
61751W        W28534   8.739   4.127   0.176
61752W        W28535  39.545  36.072  12.002
61753W        W28536  43.347  28.935  12.664
61754W        W28537  23.623   3.648  14.859
61755W        W28538  30.127  33.447  11.430
61756W        W28539  13.885  24.992   3.276
61757W        W28540  17.749  17.619  11.637
61758W        W28541  33.740  17.675  11.077
61759W        W28542  19.748  25.098   0.367
61760W        W28543  28.159  12.054  14.955
61761W        W28544  30.509   6.998  14.068
61762W        W28545  32.882  17.508   1.038
61763W        W28546  17.983  43.120   0.336
61764W        W28547  30.218  36.861   3.588
61765W        W28548  31.145  24.538  11.367
61766W        W28549  44.364  37.100   1.722
61767W        W28550   5.676  28.372  11.580
61768W        W28551   1.292   6.492  11.095
61769W        W28552  18.738  33.412  11.555
61770W        W28553  14.986  28.901  10.892
61771W        W28554   1.973  26.906   2.371
61772W        W28555  30.829  33.130   1.744
61773W        W28556  38.022   7.114   4.992
61774W        W28557  22.259  39.003  11.102
61775W        W28558  20.732  41.012   2.252
61776W        W28559  41.416  34.388   4.641
61777W        W28560   8.699  25.090   4.621
61778W        W28561  18.706   6.399   0.195
61779W        W28562   9.916   9.965  14.158
61780W        W28563   0.025  25.047  11.123
61781W        W28564  25.088   4.132  10.307
61782W        W28565  24.679  29.572   4.666
61783W        W28566   9.373  40.526  14.404
61784W        W28567  33.981   2.164   3.622
61785W        W28568  13.527  36.890   0.453
61786W        W28569   5.764  31.993   0.246
61787W        W28570  27.590  33.331   1.773
61788W        W28571  31.062  31.442   4.503
61789W        W28572  22.583  36.445   2.754
61790W        W28573  18.593  15.131   1.888
61791W        W28574  15.911   0.294   0.356
61792W        W28575  34.523  44.648   0.190
61793W        W28576  13.210  44.633   4.009
61794W        W28577  16.250   8.302   4.660
61795W        W28578  33.983  17.582   2.817
61796W        W28579   7.299  16.146  14.540
61797W        W28580  40.519  34.833   3.222
61798W        W28581   7.224  16.246  14.007
61799W        W28582  32.843  19.098   4.415
61800W        W28583  39.073  24.503  12.086
61801W        W28584  10.076  44.746   4.051
61802W        W28585  40.792  26.712   0.367
61803W        W28586  21.072  35.017   2.734
61804W        W28587  17.303  11.133   0.898
61805W        W28588  26.601  37.435   1.997
61806W        W28589  24.913  12.201   4.562
61807W        W28590  10.675  20.809   2.180
61808W        W28591  11.098  34.837  14.506
61809W        W28592  26.305  43.372   3.162
61810W        W28593   1.348  27.633   3.069
61811W        W28594   5.933  31.879   0.740
61812W        W28595   8.946   3.178   4.241
61813W        W28596  22.175  22.149  11.179
61814W        W28597  20.541   0.530  11.255
61815W        W28598   3.936   9.779  13.355
61816W        W28599   3.448  12.610   4.189
61817W        W28600  28.543  25.553   3.043
61818W        W28601   8.176  32.636  12.227
61819W        W28602  40.958  11.333  12.494
61820W        W28603  10.440  20.377   1.917
61821W        W28604  16.932  28.679   3.278
61822W        W28605  44.892  40.398   1.233
61823W        W28606  25.209   0.528   2.294
61824W        W28607  44.275  40.981  14.803
61825W        W28608  39.388  10.211  13.586
61826W        W28609  28.575   8.777  13.879
61827W        W28610  17.790  34.834  14.863
61828W        W28611  38.509  11.927  12.042
61829W        W28612  30.097  25.979  11.560
61830W        W28613  40.313  41.043   2.800
61831W        W28614  26.330  18.048  11.591
61832W        W28615  35.943  35.369   2.203
61833W        W28616   3.693  27.520   2.252
61834W        W28617  25.261  21.223  13.871
61835W        W28618  36.886   7.216   0.200
61836W        W28619   8.429  36.821   4.586
61837W        W28620  10.574  29.476  10.736
61838W        W28621  35.030  42.872  14.300
61839W        W28622  24.240  14.306  11.611
61840W        W28623   8.245  25.027   3.860
61841W        W28624  16.566   2.705  13.094
61842W        W28625  15.519  33.878  11.952
61843W        W28626  44.551  11.445   0.782
61844W        W28627  35.048  30.467  12.446
61845W        W28628  42.514  40.743   0.036
61846W        W28629  13.322  28.666   3.427
61847W        W28630  24.096  21.152  13.708
61848W        W28631   6.159  41.981  11.980
61849W        W28632  26.416   3.866   4.143
61850W        W28633  10.910  30.907   1.484
61851W        W28634  10.410  35.304  10.473
61852W        W28635   5.187   6.706  13.415
61853W        W28636  23.209   4.901   2.128
61854W        W28637  34.873  21.249   0.499
61855W        W28638  28.118  14.646  10.658
61856W        W28639  18.095  14.327   2.851
61857W        W28640  24.926  39.518  12.988
61858W        W28641   1.086  22.482   1.717
61859W        W28642  12.583  37.358  14.762
61860W        W28643  27.900   6.092  11.587
61861W        W28644  20.703  16.524  12.384
61862W        W28645  37.951  21.611  11.247
61863W        W28646  44.631  41.887   1.403
61864W        W28647   9.173  21.669   2.876
61865W        W28648  39.322  22.129  10.490
61866W        W28649  43.474  25.988  14.204
61867W        W28650  21.298  17.868  12.600
61868W        W28651  26.043  28.519   1.923
61869W        W28652  40.318  38.353   0.363
61870W        W28653   2.754  35.605  13.467
61871W        W28654  28.461  38.452  14.224
61872W        W28655  23.948  28.950   0.473
61873W        W28656  16.832  36.084  13.777
61874W        W28657  35.288   7.801   1.789
61875W        W28658   5.028  30.042  11.628
61876W        W28659  18.881  19.516   3.285
61877W        W28660  33.676  43.430   2.857
61878W        W28661  14.585  33.130   2.776
61879W        W28662   0.300  14.881   0.900
61880W        W28663  13.710   7.213   3.783
61881W        W28664  24.567  36.217   3.611
61882W        W28665  20.247  29.642   3.679
61883W        W28666  23.483  42.005  10.669
61884W        W28667   6.519  16.197  12.612
61885W        W28668  43.582  35.038  14.511
61886W        W28669  17.409  13.269   1.532
61887W        W28670  32.798  30.697  13.116
61888W        W28671  28.601  14.573   3.450
61889W        W28672  28.049   9.169   0.695
61890W        W28673  17.452  22.010  12.854
61891W        W28674  26.317  29.875   4.096
61892W        W28675  26.221  35.058   2.434
61893W        W28676  31.679   3.675  13.008
61894W        W28677  30.558  21.177  12.228
61895W        W28678  22.201  27.978  12.453
61896W        W28679  32.253  11.703   1.655
61897W        W28680  40.340  13.553  12.975
61898W        W28681  24.295   6.288   0.620
61899W        W28682  28.508  25.285  12.470
61900W        W28683  33.895  40.015  10.839
61901W        W28684  17.748  21.696  12.455
61902W        W28685  28.780   8.327  14.821
61903W        W28686  32.113  23.339   1.447
61904W        W28687  38.961  43.314   2.964
61905W        W28688  21.822  38.088   2.381
61906W        W28689  40.119   3.615  12.525
61907W        W28690   9.223  19.331  11.073
61908W        W28691  32.542  26.404  11.586
61909W        W28692  13.123   9.446   4.013
61910W        W28693  14.287  30.943  14.593
61911W        W28694  15.227   2.267  13.040
61912W        W28695  22.591  29.967   1.432
61913W        W28696  22.638  27.723  11.842
61914W        W28697  20.510  19.544   0.471
61915W        W28698   7.262  29.536  12.611
61916W        W28699  10.754  42.116   2.736
61917W        W28700  39.373  28.648  14.515
61918W        W28701  27.112  19.247   4.793
61919W        W28702  24.796  39.932   4.431
61920W        W28703  15.553   3.334   0.404
61921W        W28704  21.274  35.890  13.589
61922W        W28705  28.046   4.241  14.394
61923W        W28706   8.811  27.142   1.880
61924W        W28707  32.424  11.575  11.873
61925W        W28708  32.681  25.613  10.989
61926W        W28709  16.666  13.599   3.596
61927W        W28710   2.307  25.869  11.943
61928W        W28711  38.287   0.014  11.989
61929W        W28712  21.565   4.597   2.782
61930W        W28713  40.225  10.885  12.466
61931W        W28714  20.145  26.670   2.314
61932W        W28715   9.859  22.679  14.768
61933W        W28716  28.689   8.372   4.221
61934W        W28717   0.022  12.410  13.862
61935W        W28718  13.301   1.529   4.648
61936W        W28719   9.176   9.998   2.839
61937W        W28720  12.869  30.175  11.896
61938W        W28721  10.623  20.983  14.972
61939W        W28722  44.103  25.068  10.285
61940W        W28723  22.437   8.308  13.341
61941W        W28724  28.727  16.785  12.046
61942W        W28725  10.830  12.387   1.240
61943W        W28726  40.439   0.095  12.876
61944W        W28727   4.862  31.087  13.802
61945W        W28728  24.006  28.802  13.519
61946W        W28729  31.251   2.840   1.687
61947W        W28730  10.572  42.745   4.092
61948W        W28731  41.203  30.882   1.742
61949W        W28732  42.366  23.119   4.426
61950W        W28733  15.814  44.411  14.736
61951W        W28734  24.199  41.516   0.457
61952W        W28735  39.418  10.456  14.043
61953W        W28736  17.522  38.083   1.903
61954W        W28737  35.870  34.137  10.466
61955W        W28738  15.238  36.531  12.874
61956W        W28739   7.169  32.699  13.086
61957W        W28740   9.610   4.130   2.085
61958W        W28741   8.789  30.291   2.808
61959W        W28742   7.824  42.496   1.953
61960W        W28743  37.036  32.044  14.492
61961W        W28744  19.269   3.261   2.809
61962W        W28745  38.818  33.046  10.228
61963W        W28746  21.704  39.891  14.796
61964W        W28747  42.155  44.940  11.647
61965W        W28748  23.612  12.110  14.565
61966W        W28749  44.752   3.822  12.192
61967W        W28750  44.502  43.305   4.755
61968W        W28751   1.020  30.122   3.809
61969W        W28752   3.832   9.127   1.339
61970W        W28753  26.276  16.867   1.709
61971W        W28754  19.705  29.491   0.047
61972W        W28755   5.087  10.127  14.545
61973W        W28756  22.819   3.857  13.535
61974W        W28757  17.173  41.566   1.929
61975W        W28758  39.159   0.795   1.408
61976W        W28759  20.404  16.079  13.058
61977W        W28760  29.029  37.758   2.600
61978W        W28761  11.253  12.247   2.270
61979W        W28762  44.522  38.747   1.063
61980W        W28763   7.131   6.463   3.580
61981W        W28764  35.160  30.080   4.161
61982W        W28765  38.077  31.490   0.005
61983W        W28766  43.268  39.783  12.072
61984W        W28767   2.526  40.262  14.816
61985W        W28768  23.029  17.107  11.298
61986W        W28769  31.732  23.690   1.422
61987W        W28770  13.334  19.164   3.691
61988W        W28771  39.787  40.314  14.836
61989W        W28772   3.406  34.148   3.764
61990W        W28773  17.871  43.699   1.399
61991W        W28774  13.762  19.505  10.721
61992W        W28775   1.390   6.931  11.983
61993W        W28776   7.226   6.306   4.594
61994W        W28777  40.023  41.173   1.790
61995W        W28778  16.820  27.405  11.649
61996W        W28779  19.093   3.178  12.417
61997W        W28780   4.291  17.378  11.992
61998W        W28781  44.540  36.238   3.725
61999W        W28782   2.031  18.039  12.170
62000W        W28783  42.073  23.937   0.770
62001W        W28784   8.692   0.606   1.591
62002W        W28785  17.359  36.689   4.231
62003W        W28786   2.805  29.696  12.049
62004W        W28787  24.034  32.881   4.042
62005W        W28788  21.509  12.779  13.175
62006W        W28789  21.711  10.438  14.339
62007W        W28790   7.466  25.589   2.721
62008W        W28791  32.236   2.269  13.225
62009W        W28792  17.939  22.075  11.584
62010W        W28793  32.998  39.501   3.194
62011W        W28794   7.736  21.509  13.355
62012W        W28795   3.338  44.198   1.116
62013W        W28796  44.852  11.240   0.366
62014W        W28797   4.915   7.183  13.896
62015W        W28798  27.462  42.818  11.060
62016W        W28799   0.782  35.229  13.089
62017W        W28800  39.791   9.779  14.006
62018W        W28801   0.464   7.859   0.723
62019W        W28802  18.040  39.233   0.758
62020W        W28803  20.245  36.336   2.799
62021W        W28804  36.506  39.406  11.004
62022W        W28805  18.306  13.064  13.452
62023W        W28806  23.553  23.136   1.152
62024W        W28807  44.788  13.637  14.415
62025W        W28808  39.741  20.071  12.122
62026W        W28809  15.804  42.772  10.200
62027W        W28810  23.307  35.953  13.293
62028W        W28811  21.640  12.041  14.473
62029W        W28812  21.521  17.624   0.521
62030W        W28813  25.502  19.728   4.053
62031W        W28814   3.920  19.673  13.027
62032W        W28815  27.551   5.949   3.400
62033W        W28816  19.577  12.796   0.282
62034W        W28817   2.019  22.099   2.503
62035W        W28818  16.300  12.613   3.776
62036W        W28819  13.215   9.415   0.420
62037W        W28820   2.672  41.737  14.977
62038W        W28821  41.101  42.212   3.257
62039W        W28822  14.142  38.319  14.311
62040W        W28823  34.354  29.021  12.924
62041W        W28824  12.505  42.071  14.878
62042W        W28825   0.199   8.313   2.284
62043W        W28826  39.598  34.929   3.330
62044W        W28827  39.475   1.240   4.076
62045W        W28828  43.894  34.369   3.633
62046W        W28829  22.786  38.839  13.856
62047W        W28830   8.242  42.048  10.714
62048W        W28831  10.790  39.908   3.309
62049W        W28832   6.608   1.295   0.965
62050W        W28833  17.648  15.349  12.450
62051W        W28834  22.026  36.582   1.272
62052W        W28835  20.542  16.282   3.968
62053W        W28836   7.171   1.711  12.552
62054W        W28837  30.578   9.479   4.102
62055W        W28838  26.959  41.912   2.280
62056W        W28839  34.976  35.899  14.155
62057W        W28840  17.149  20.490  10.708
62058W        W28841  34.539  31.093   2.581
62059W        W28842   3.700  23.905   0.468
62060W        W28843  27.795  42.935   4.248
62061W        W28844   5.320   9.111   2.902
62062W        W28845  32.594   3.986   3.213
62063W        W28846   1.691  12.578  12.548
62064W        W28847  37.977  27.908  12.455
62065W        W28848  23.067  19.711   3.307
62066W        W28849   3.587  37.476   9.740
62067W        W28850  29.232  14.654  10.893
62068W        W28851   6.424  37.333   1.354
62069W        W28852   4.263  29.434  11.223
62070W        W28853  24.667  24.195   4.028
62071W        W28854  28.669  39.691   5.489
62072W        W28855  26.705   8.532   5.008
62073W        W28856  42.775  27.631   1.409
62074W        W28857   4.064  24.147  11.212
62075W        W28858  39.418  35.010  14.828
62076W        W28859  37.626  11.139   0.715
62077W        W28860   2.314  36.985   4.204
62078W        W28861  43.670  34.557  13.949
62079W        W28862  12.377  29.636  11.650
62080W        W28863   3.144  28.292   4.219
62081W        W28864  27.124  14.831  12.441
62082W        W28865   5.959  40.602  11.944
62083W        W28866  41.265  12.341   5.113
62084W        W28867  11.262  35.353   1.406
62085W        W28868  32.945  36.358   0.756
62086W        W28869   6.314   2.306  10.612
62087W        W28870  18.568  24.746   1.378
62088W        W28871  23.102  14.644   3.720
62089W        W28872   6.843  22.036   0.887
62090W        W28873   3.937  32.653   2.673
62091W        W28874  25.957  34.376  13.942
62092W        W28875  16.276   2.662   2.317
62093W        W28876  33.061  17.815   4.730
62094W        W28877  21.121  32.378   2.215
62095W        W28878  21.697  35.030  13.709
62096W        W28879  33.974  35.326   0.806
62097W        W28880  14.794   4.489   2.247
62098W        W28881  32.466  44.269  13.474
62099W        W28882  32.755  42.907  14.174
62100W        W28883  41.269  41.420   2.229
62101W        W28884   3.603  35.890   1.704
62102W        W28885  16.321  17.234  10.598
62103W        W28886  17.050  16.354   1.358
62104W        W28887   2.741   7.761   1.272
62105W        W28888   9.283  35.892  12.083
62106W        W28889   9.157  17.851  13.627
62107W        W28890   8.626  24.263  12.880
62108W        W28891  26.317   6.341  12.079
62109W        W28892   5.595  27.216   3.587
62110W        W28893  29.244   1.388   2.543
62111W        W28894   6.331  32.342  13.573
62112W        W28895  41.310   4.399   0.711
62113W        W28896  38.920  28.092   5.040
62114W        W28897   5.366  43.856   0.987
62115W        W28898  30.174  20.819   9.825
62116W        W28899  14.586  16.449  12.208
62117W        W28900  38.187   1.820  10.688
62118W        W28901  29.618  38.406   3.119
62119W        W28902  19.781  14.028   4.494
62120W        W28903  28.148  29.263  14.384
62121W        W28904  40.898  37.112   2.326
62122W        W28905  27.321   8.638   2.309
62123W        W28906  34.910  30.721   2.649
62124W        W28907   0.102  33.820  12.157
62125W        W28908  14.322  21.774  12.039
62126W        W28909  27.315  16.353   4.611
62127W        W28910  34.811  17.168  12.992
62128W        W28911   8.270   9.364   0.048
62129W        W28912  33.173  32.675  10.732
62130W        W28913  38.646  30.433  14.055
62131W        W28914  44.394   0.855  11.964
62132W        W28915  35.046   8.356  14.873
62133W        W28916  23.180  36.965  14.376
62134W        W28917  32.378   8.225   4.382
62135W        W28918  17.992  38.417  11.567
62136W        W28919  33.356  11.572  10.339
62137W        W28920   9.801  36.528   0.999
62138W        W28921  34.593   0.715   2.416
62139W        W28922  44.296  10.102   2.398
62140W        W28923  18.998   0.872   1.288
62141W        W28924  22.983   4.894  13.939
62142W        W28925  40.304  37.005  14.887
62143W        W28926  33.980  34.335  14.820
62144W        W28927  44.702  31.761  11.916
62145W        W28928  38.452  28.968  11.981
62146W        W28929  11.875  12.297   4.177
62147W        W28930   4.766  44.163  10.844
62148W        W28931  12.506  30.899  11.800
62149W        W28932   3.779   6.107   0.050
62150W        W28933   3.117  36.032   9.932
62151W        W28934  29.147  30.171   1.403
62152W        W28935   5.770  17.091  10.471
62153W        W28936  18.102   4.700   1.739
62154W        W28937  33.820  25.015   2.748
62155W        W28938  13.869   4.767  11.957
62156W        W28939  10.420  16.619  14.449
62157W        W28940  40.820  28.161   1.796
62158W        W28941  18.472  22.525   4.431
62159W        W28942   9.435  36.535   0.498
62160W        W28943  15.306  38.824  14.822
62161W        W28944   2.423  30.634   1.367
62162W        W28945  12.650  12.746   0.544
62163W        W28946  28.181  38.044   3.204
62164W        W28947  15.112  30.283   1.960
62165W        W28948  44.929   1.514  12.237
62166W        W28949  22.147  31.710   1.864
62167W        W28950  39.051  11.008  11.970
62168W        W28951  31.348  26.535  10.323
62169W        W28952  27.455  13.715   4.831
62170W        W28953  32.166  44.323  13.884
62171W        W28954   4.615   1.577   0.090
62172W        W28955  38.611  19.851  13.486
62173W        W28956  34.883  23.215  14.187
62174W        W28957  22.071  21.187   4.900
62175W        W28958  19.284  38.057  13.465
62176W        W28959  29.524  38.276  12.807
62177W        W28960  22.638  20.278  11.590
62178W        W28961  34.719   2.629   0.135
62179W        W28962  42.144   9.441  10.749
62180W        W28963  40.383  39.563  13.834
62181W        W28964  29.465   6.664  11.590
62182W        W28965  21.814  22.818  11.539
62183W        W28966   6.203   9.496   1.300
62184W        W28967  15.340   6.158   0.712
62185W        W28968  37.404  22.008  13.991
62186W        W28969  41.689  19.961   2.618
62187W        W28970  20.144   4.336   3.547
62188W        W28971  12.220  43.958  11.953
62189W        W28972  34.910  34.072  14.851
62190W        W28973  10.426  15.806   2.221
62191W        W28974  30.987  30.502  10.749
62192W        W28975  14.234  33.617   4.654
62193W        W28976   1.400   5.625   0.720
62194W        W28977   5.576  42.728  13.314
62195W        W28978  35.073   0.851   3.098
62196W        W28979  41.387   6.243  11.334
62197W        W28980   1.173  11.601  11.051
62198W        W28981  40.917  44.545   3.660
62199W        W28982  36.916  33.530  12.904
62200W        W28983  29.108   9.379   2.305
62201W        W28984  17.950  16.821   5.063
62202W        W28985  27.643  22.175  10.750
62203W        W28986  13.877  25.507   2.415
62204W        W28987  19.959   1.861  10.245
62205W        W28988  37.241   1.745  11.791
62206W        W28989  32.507  18.084   4.062
62207W        W28990  39.508  33.070   1.910
62208W        W28991   5.472  17.549   3.668
62209W        W28992  40.090  29.172   2.131
62210W        W28993  30.416   5.962   0.019
62211W        W28994  32.103  42.286   2.567
62212W        W28995   1.727   7.918   4.027
62213W        W28996  36.638  27.235  13.120
62214W        W28997  39.100  22.441   3.447
62215W        W28998  19.975  30.068   3.586
62216W        W28999  20.651   2.067   0.877
62217W        W29000  27.561  20.621  11.237
62218W        W29001  16.213  21.967   3.793
62219W        W29002  42.781  39.980   3.812
62220W        W29003  34.922  38.817   2.703
62221W        W29004   3.728   6.374   4.281
62222W        W29005   0.260  21.923  13.000
62223W        W29006  16.306  13.264  12.977
62224W        W29007  10.374  23.264   1.717
62225W        W29008  28.699  42.307  11.103
62226W        W29009   0.751  31.047  11.534
62227W        W29010  39.226  19.983  12.057
62228W        W29011  30.962  11.172   4.317
62229W        W29012  36.041  35.342   5.060
62230W        W29013   1.809  13.698  12.045
62231W        W29014  17.090  44.885   3.839
62232W        W29015  43.016  29.081   4.637
62233W        W29016   9.810  15.746  12.554
62234W        W29017  15.573  27.164  11.238
62235W        W29018  44.069   6.235  13.805
62236W        W29019  15.850  38.821   0.508
62237W        W29020  30.324  17.863   1.269
62238W        W29021  38.301  23.289  14.343
62239W        W29022  30.872  28.016  11.957
62240W        W29023  17.254  14.506   3.225
62241W        W29024  25.648  17.356  13.450
62242W        W29025  31.653  33.916  10.721
62243W        W29026   6.221  34.226  13.835
62244W        W29027  31.971  15.366   3.186
62245W        W29028  44.512   4.929  10.072
62246W        W29029  43.069  29.962  12.146
62247W        W29030   5.817   1.776   1.952
62248W        W29031  12.191  34.584   4.320
62249W        W29032  40.522   0.783   3.619
62250W        W29033  34.628  27.721   3.197
62251W        W29034  29.189  34.649   3.215
62252W        W29035  19.317  31.543   1.222
62253W        W29036  44.489  29.157  14.088
62254W        W29037   0.240   2.067   0.187
62255W        W29038   8.669  24.127   3.205
62256W        W29039  23.783  17.904   2.380
62257W        W29040  26.691   4.222   3.303
62258W        W29041  33.501  12.894   1.611
62259W        W29042  39.116  11.120   0.899
62260W        W29043  25.529  16.372  14.774
62261W        W29044  26.014   3.959   4.586
62262W        W29045  39.614   4.419  14.881
62263W        W29046  29.578  31.173   0.695
62264W        W29047  24.589  14.519   1.865
62265W        W29048  44.518   1.805   4.289
62266W        W29049  23.284  43.050   2.762
62267W        W29050  12.610  31.571  10.642
62268W        W29051  26.060  16.344  12.493
62269W        W29052  13.226  15.525   2.786
62270W        W29053  34.965  42.784  14.805
62271W        W29054  24.039   9.836   2.055
62272W        W29055   3.344  21.646  14.447
62273W        W29056   1.000   5.697  14.024
62274W        W29057  32.167  35.466  11.454
62275W        W29058  21.320  39.422  10.439
62276W        W29059  40.571   4.850   1.340
62277W        W29060  14.720   7.630   3.822
62278W        W29061  25.936  16.767  14.911
62279W        W29062   3.899  22.463   1.923
62280W        W29063  13.477  24.378   4.094
62281W        W29064  27.424  28.480  10.949
62282W        W29065  15.599  39.303   2.018
62283W        W29066  24.613  13.754  14.965
62284W        W29067  10.615  38.065  11.338
62285W        W29068  24.450  26.854  11.865
62286W        W29069  30.958   5.904  13.467
62287W        W29070  40.823  36.369  11.211
62288W        W29071  36.127  37.825   3.598
62289W        W29072  11.684  37.254   0.274
62290W        W29073  41.516  33.935  12.995
62291W        W29074  19.009  41.422  14.761
62292W        W29075   4.796  28.123  14.017
62293W        W29076  39.230  19.753  11.604
62294W        W29077  42.783   9.501   4.142
62295W        W29078   0.006  44.565   4.239
62296W        W29079  12.481  13.151  12.710
62297W        W29080  13.966  20.424  13.129
62298W        W29081  40.337   0.362  13.355
62299W        W29082  15.196   4.309   3.592
62300W        W29083  18.542  37.518  14.628
62301W        W29084   2.526  18.178   3.175
62302W        W29085  37.492  30.052   3.238
62303W        W29086  42.491   5.336  10.730
62304W        W29087  42.372  21.614   3.190
62305W        W29088  15.666   1.488  11.231
62306W        W29089  19.725  41.330  11.126
62307W        W29090   5.214  37.464   4.076
62308W        W29091  10.337  17.523   4.705
62309W        W29092   3.545  20.715  14.314
62310W        W29093  34.041  29.119   2.300
62311W        W29094  42.399  36.874   3.187
62312W        W29095  18.438  44.940   2.752
62313W        W29096  39.763  29.383   4.302
62314W        W29097  21.267  11.188  14.894
62315W        W29098  25.718  24.820   3.866
62316W        W29099  21.475  42.031   3.279
62317W        W29100  31.007  44.238  14.705
62318W        W29101   3.205   6.959  14.883
62319W        W29102  22.301  14.201  13.657
62320W        W29103  33.009  11.365   2.215
62321W        W29104  25.512   2.962   2.672
62322W        W29105  42.839  26.014   1.701
62323W        W29106  38.792  34.559  13.038
62324W        W29107   9.097  25.812  12.669
62325W        W29108  41.428  42.881   2.155
62326W        W29109  24.009   9.485  13.483
62327W        W29110   7.256  26.666   1.115
62328W        W29111  11.600  43.210   1.895
62329W        W29112  37.534   4.299  12.151
62330W        W29113  33.431   6.652   0.022
62331W        W29114   0.424  30.645  12.845
62332W        W29115  29.879  35.276  12.664
62333W        W29116  32.485   6.363   0.356
62334W        W29117  17.303  28.683   0.296
62335W        W29118   9.321   1.768   0.472
62336W        W29119  18.753  12.162  10.640
62337W        W29120  25.429  17.549   2.286
62338W        W29121   5.378  22.760  14.041
62339W        W29122  18.028  10.024   0.880
62340W        W29123   6.808   5.256   0.816
62341W        W29124  24.144  23.257  11.519
62342W        W29125  28.886  14.372  13.696
62343W        W29126  27.136  28.511  11.371
62344W        W29127  20.741  16.801   1.308
62345W        W29128  40.938  20.674   1.691
62346W        W29129  14.728  25.024  14.073
62347W        W29130  44.916  10.203   1.234
62348W        W29131  44.950  42.409  13.369
62349W        W29132  13.862  31.561  13.409
62350W        W29133  17.680  21.226  10.593
62351W        W29134   4.334  17.765  11.628
62352W        W29135  25.191  32.538  10.900
62353W        W29136  19.048  12.160   1.355
62354W        W29137  23.194  21.758  14.687
62355W        W29138  10.324  18.896   2.890
62356W        W29139  19.725  34.974  11.996
62357W        W29140  43.775  24.420   2.423
62358W        W29141  42.256   2.733   4.155
62359W        W29142  39.688   5.893  10.797
62360W        W29143  29.153  23.479   3.573
62361W        W29144   2.346  10.889   4.292
62362W        W29145  39.315   8.312  13.746
62363W        W29146   1.742  13.239  13.128
62364W        W29147  24.587  40.417  12.584
62365W        W29148  39.356  14.722   0.233
62366W        W29149  14.860   4.234   1.340
62367W        W29150  41.486  37.246   1.169
62368W        W29151  12.646  15.273  14.479
62369W        W29152  43.795  34.576  12.942
62370W        W29153  13.130  15.999  10.751
62371W        W29154  18.724   6.761   0.965
62372W        W29155  43.778  18.291  14.260
62373W        W29156  32.479   2.306  11.553
62374W        W29157  14.749  16.344   4.085
62375W        W29158   1.626   0.417  11.210
62376W        W29159  10.415  16.082   0.356
62377W        W29160  44.794  26.692   3.641
62378W        W29161   7.632  21.243  10.300
62379W        W29162  17.088  21.315  11.114
62380W        W29163  10.083  17.393   1.361
62381W        W29164  19.243  24.456  13.458
62382W        W29165  25.373  40.546   2.634
62383W        W29166   6.371   8.953   3.048
62384W        W29167   4.962  14.162   4.623
62385W        W29168  31.409  44.435   0.416
62386W        W29169  37.159  15.135   1.011
62387W        W29170  13.598   6.295   3.331
62388W        W29171   8.370  26.110   3.650
62389W        W29172  12.363  14.565   2.817
62390W        W29173  31.045  13.157  13.722
62391W        W29174   5.553  23.421  10.495
62392W        W29175   0.394  22.697   1.166
62393W        W29176  37.190  23.054  13.251
62394W        W29177  26.737   4.410   3.812
62395W        W29178   6.628  31.693   1.485
62396W        W29179  15.134  29.840  12.272
62397W        W29180  20.296  10.177  12.482
62398W        W29181  16.105  33.819  14.415
62399W        W29182   9.339  28.623   4.535
62400W        W29183  43.843  24.248  12.894
62401W        W29184  42.461   3.671   3.188
62402W        W29185  28.686   5.420   0.747
62403W        W29186  28.737   5.467  11.550
62404W        W29187  33.615   6.780  11.661
62405W        W29188   6.910  42.538   2.092
62406W        W29189  36.358  35.342  12.077
62407W        W29190  23.370  33.439  11.974
62408W        W29191  19.822   3.832  14.276
62409W        W29192  40.333  25.102   4.097
62410W        W29193   7.741  14.574   2.243
62411W        W29194  27.654  27.681   2.338
62412W        W29195  10.113  14.661  12.140
62413W        W29196  17.684  36.918   0.624
62414W        W29197  12.284  25.570  12.265
62415W        W29198  18.003  38.035  12.664
62416W        W29199  31.511  12.500   2.669
62417W        W29200  19.101   9.100  11.076
62418W        W29201  24.159  21.229  12.702
62419W        W29202  36.934  21.386   0.217
62420W        W29203  22.641  25.286   3.606
62421W        W29204  37.274   3.076   2.936
62422W        W29205  16.435  26.525  12.442
62423W        W29206   5.534  23.676  11.240
62424W        W29207  28.108  30.598   3.598
62425W        W29208  42.971  31.586   1.356
62426W        W29209  43.930  42.050   4.768
62427W        W29210  16.824  16.580   0.018
62428W        W29211   1.851  30.357   1.764
62429W        W29212  26.841  17.650  14.896
62430W        W29213  37.929  15.787  14.267
62431W        W29214  29.537  26.619  11.671
62432W        W29215   4.449  40.597   4.684
62433W        W29216  36.890  30.545   3.844
62434W        W29217  37.560  43.850   0.947
62435W        W29218  23.134  10.495   4.570
62436W        W29219  10.044   8.203  11.917
62437W        W29220  35.824  35.369  12.126
62438W        W29221  33.135  36.844   3.082
62439W        W29222  39.964   3.375   4.570
62440W        W29223   0.453  32.221   1.701
62441W        W29224  33.013  15.623  14.830
62442W        W29225   9.166  14.719  12.193
62443W        W29226  12.771  22.629  10.674
62444W        W29227   7.999   7.239   5.115
62445W        W29228  32.624  38.600  11.054
62446W        W29229  21.570  33.065   0.985
62447W        W29230  27.504  36.981   2.655
62448W        W29231  30.111   9.298  12.977
62449W        W29232  25.111  19.747   3.172
62450W        W29233   3.267  21.966   2.339
62451W        W29234  38.487   5.576   4.538
62452W        W29235   2.477  40.602   0.268
62453W        W29236  32.843  29.975  14.401
62454W        W29237  43.797   1.645   1.499
62455W        W29238  31.417   8.828   5.277
62456W        W29239  27.175  13.326   2.276
62457W        W29240  34.142  25.637  13.848
62458W        W29241  12.299   1.378   1.796
62459W        W29242  36.576  37.017   0.805
62460W        W29243  18.673  20.792   4.337
62461W        W29244  30.614  12.594  13.372
62462W        W29245  24.949  29.855  12.606
62463W        W29246   1.882  22.400   0.417
62464W        W29247  21.941   1.016  10.169
62465W        W29248   6.800  28.898   1.204
62466W        W29249  18.118  29.033  11.978
62467W        W29250  20.178  20.740  14.602
62468W        W29251   6.637   0.090  13.941
62469W        W29252   8.181  44.460  13.159
62470W        W29253  35.842  16.460   0.744
62471W        W29254   4.284  28.233   0.778
62472W        W29255  30.171   6.175  10.713
62473W        W29256  42.143  12.703   3.107
62474W        W29257  20.621   0.196  11.766
62475W        W29258  43.085  39.997  11.609
62476W        W29259   2.849  31.057  13.789
62477W        W29260  42.689  20.273   4.628
62478W        W29261  24.897  14.110   1.914
62479W        W29262  44.968  35.470   1.424
62480W        W29263   4.256   7.802  10.632
62481W        W29264  35.506  28.400   1.664
62482W        W29265  26.051  16.635  12.906
62483W        W29266  44.883  33.298  10.118
62484W        W29267  31.986  18.932  10.507
62485W        W29268  16.264  17.770  10.537
62486W        W29269  11.380  14.766   0.403
62487W        W29270   4.996  15.642  14.519
62488W        W29271   9.073   3.424   9.883
62489W        W29272  15.109  41.378   3.362
62490W        W29273  35.390   4.790   3.654
62491W        W29274  34.865  12.138   0.167
62492W        W29275   0.969   2.483  13.919
62493W        W29276  31.075  29.638   3.744
62494W        W29277  27.027  38.861   2.673
62495W        W29278  25.652   7.316  12.655
62496W        W29279  14.748  10.248  10.751
62497W        W29280  32.946  35.705   0.089
62498W        W29281   0.812  32.528   2.818
62499W        W29282  23.055  38.025   1.922
62500W        W29283  15.301  13.381  12.679
62501W        W29284   9.649   5.315  10.525
62502W        W29285  35.269  16.533  14.712
62503W        W29286   3.630   5.108  14.611
62504W        W29287  34.017  26.711  13.341
62505W        W29288  14.522  22.119   2.279
62506W        W29289  40.542  18.304   3.667
62507W        W29290  44.096  12.435  13.842
62508W        W29291   2.285   3.736  12.320
62509W        W29292  40.519  20.653   0.401
62510W        W29293  16.910  39.804  14.496
62511W        W29294   9.537   1.294  14.298
62512W        W29295  18.696   4.766   4.137
62513W        W29296   1.825  39.421  11.346
62514W        W29297  27.708  41.451  13.533
62515W        W29298  30.443  41.132  11.657
62516W        W29299   9.671   8.822  12.633
62517W        W29300   8.352  30.247  14.765
62518W        W29301  10.295  28.443   4.347
62519W        W29302  43.168  17.723  13.055
62520W        W29303  14.751  40.907   1.963
62521W        W29304  24.974  10.720   1.009
62522W        W29305  40.598  35.961   4.837
62523W        W29306  11.670  36.477   2.674
62524W        W29307  42.845  16.464  10.177
62525W        W29308  27.005  36.576   1.234
62526W        W29309  24.192  26.790   5.077
62527W        W29310  12.365  21.745   1.398
62528W        W29311  31.375   9.093  11.023
62529W        W29312  20.678  13.742  12.474
62530W        W29313  18.587   3.645   2.678
62531W        W29314  37.830  20.503  13.207
62532W        W29315  15.425  38.452  14.074
62533W        W29316  17.652   4.578  14.459
62534W        W29317  30.260  33.212  14.621
62535W        W29318   9.379  13.093   0.291
62536W        W29319   3.919  32.506  11.584
62537W        W29320  34.913   3.669   2.151
62538W        W29321  30.984  15.406   2.920
62539W        W29322  37.857   4.542  13.532
62540W        W29323  15.684  11.889  12.011
62541W        W29324  28.780  28.903  12.980
62542W        W29325  28.463  23.949  13.395
62543W        W29326  26.569  10.287   0.946
62544W        W29327  29.523   3.661   2.422
62545W        W29328  36.229  38.972   4.886
62546W        W29329   1.310  15.963   0.895
62547W        W29330  11.169   8.977   4.985
62548W        W29331   4.315  23.426  12.825
62549W        W29332  41.025   5.052   4.113
62550W        W29333  25.588  36.398   2.931
62551W        W29334   9.381  42.823   0.323
62552W        W29335   6.699  30.867  13.000
62553W        W29336  22.117  37.194   1.819
62554W        W29337  13.696  25.236  14.028
62555W        W29338  17.793  44.018  11.043
62556W        W29339  23.028  44.036   2.310
62557W        W29340  16.362  10.842   4.744
62558W        W29341  21.689  24.190   0.756
62559W        W29342  13.559  43.315  11.630
62560W        W29343  23.597   5.289  10.797
62561W        W29344   9.454  28.980  11.721
62562W        W29345  10.751  35.303   1.200
62563W        W29346  30.997  39.286  13.195
62564W        W29347  44.053  31.851  12.559
62565W        W29348  24.544  10.887   0.011
62566W        W29349  12.245  18.560   2.464
62567W        W29350  30.905  35.108   1.575
62568W        W29351   4.447  26.102  14.414
62569W        W29352  18.175   4.484   2.899
62570W        W29353  10.292   4.408  11.914
62571W        W29354  34.877  43.991   2.832
62572W        W29355  20.355  32.190   2.760
62573W        W29356  33.079  17.894   3.208
62574W        W29357  22.776  41.504  13.793
62575W        W29358  37.869  42.324   2.688
62576W        W29359  19.096  29.125  10.884
62577W        W29360  16.867  26.575   0.018
62578W        W29361  39.533  21.944   1.318
62579W        W29362  22.839  42.425   2.144
62580W        W29363  29.881  24.881   0.423
62581W        W29364  11.266  29.941  13.349
62582W        W29365  17.616   4.979  14.129
62583W        W29366  43.486  17.885   4.606
62584W        W29367  43.034  41.626   0.020
62585W        W29368  14.600  25.300  11.553
62586W        W29369  30.500   7.693  13.438
62587W        W29370  34.084  30.796   3.347
62588W        W29371  33.873   8.314  14.067
62589W        W29372   6.181  31.454  14.901
62590W        W29373  36.890  37.090  13.328
62591W        W29374  13.391  25.561   0.279
62592W        W29375  38.182  25.910  10.994
62593W        W29376  19.999  16.555  14.454
62594W        W29377  32.861  11.586   0.841
62595W        W29378  44.231  32.705  13.514
62596W        W29379   9.377  13.530  14.450
62597W        W29380  33.514  25.071   0.417
62598W        W29381  24.534   7.157   4.538
62599W        W29382  18.836   5.506   2.832
62600W        W29383  41.374   6.442   0.532
62601W        W29384   5.178  35.716  12.185
62602W        W29385  14.848  23.160  13.952
62603W        W29386  33.028  38.656  12.276
62604W        W29387  33.650  30.484  14.773
62605W        W29388   7.180  26.482  13.565
62606W        W29389  12.194  38.842   0.397
62607W        W29390   7.156  17.696  10.768
62608W        W29391   7.290  31.476  14.479
62609W        W29392  10.850   2.408  11.057
62610W        W29393  32.884  15.742   2.386
62611W        W29394  21.247  39.450   1.876
62612W        W29395  17.839  18.150   0.463
62613W        W29396  15.796  21.282   4.199
62614W        W29397   9.284  28.559   3.663
62615W        W29398   2.859  31.457  11.333
62616W        W29399  41.696  43.121   1.761
62617W        W29400  17.435  28.112  12.756
62618W        W29401  26.796  35.026  10.834
62619W        W29402  38.077   1.554  12.894
62620W        W29403   8.400   0.315   1.956
62621W        W29404  10.484  21.500   2.083
62622W        W29405  18.057  35.512   3.804
62623W        W29406  18.712  42.721  14.245
62624W        W29407  27.795  36.464  11.082
62625W        W29408  19.382   6.974   0.764
62626W        W29409  36.536  36.030  11.605
62627W        W29410   7.189  30.849  12.790
62628W        W29411   5.787   2.754   0.378
62629W        W29412  15.326   0.087  11.156
62630W        W29413  12.556   2.768   2.346
62631W        W29414  36.561  14.827   3.271
62632W        W29415  32.811  36.420   3.359
62633W        W29416  34.998  42.689   4.085
62634W        W29417   0.377  41.238  12.161
62635W        W29418  14.159  15.892  12.099
62636W        W29419   4.750  17.476   3.200
62637W        W29420  14.238  12.671  10.700
62638W        W29421  36.891   2.906   3.263
62639W        W29422   3.264  28.400  11.686
62640W        W29423  14.741  33.438  10.963
62641W        W29424   2.988   3.927   4.576
62642W        W29425  17.823  23.139   2.269
62643W        W29426   0.580   3.892   4.100
62644W        W29427   0.381   9.891   1.459
62645W        W29428  43.265   7.200   0.226
62646W        W29429  34.884   9.386  10.287
62647W        W29430  30.130  34.068  10.823
62648W        W29431  15.563   2.614  14.728
62649W        W29432   7.756  26.219  11.169
62650W        W29433   4.710  14.166   1.830
62651W        W29434   2.758  28.130   0.463
62652W        W29435   0.969  43.088  13.838
62653W        W29436  38.890  35.380  12.211
62654W        W29437   5.013   7.661  11.118
62655W        W29438  30.841  34.898  14.832
62656W        W29439  23.079  29.899  10.763
62657W        W29440  25.520  38.745  11.098
62658W        W29441   9.789  26.568  12.578
62659W        W29442  34.950  38.035   0.336
62660W        W29443  16.251  23.423  13.087
62661W        W29444  28.193  23.648  11.104
62662W        W29445  13.843  17.715   1.702
62663W        W29446  30.967   4.484   2.199
62664W        W29447  14.895   6.649  13.951
62665W        W29448   2.090  25.972   3.601
62666W        W29449  18.983  16.725   5.195
62667W        W29450  29.000  40.851   3.762
62668W        W29451  34.935  36.402  12.193
62669W        W29452  12.641   3.670   1.738
62670W        W29453   1.657  34.978  12.553
62671W        W29454  14.654  41.982   2.162
62672W        W29455  35.957   5.245   1.539
62673W        W29456   7.408  39.210   2.043
62674W        W29457  16.356   8.142   2.157
62675W        W29458  15.243  39.654  14.300
62676W        W29459  21.772  35.702  12.381
62677W        W29460  35.000  12.821   3.339
62678W        W29461  43.371  43.892   2.696
62679W        W29462  34.334  22.443   4.134
62680W        W29463   3.201  18.601  11.560
62681W        W29464  38.285   6.475   3.672
62682W        W29465  26.186  36.449   3.695
62683W        W29466  19.155  42.087   2.695
62684W        W29467  28.574  14.307  11.905
62685W        W29468  40.698  29.615   1.444
62686W        W29469  22.762  17.794   2.453
62687W        W29470  12.414  42.016   3.270
62688W        W29471  15.894   8.676   4.521
62689W        W29472  34.629  27.419  12.301
62690W        W29473  19.295  38.995  11.140
62691W        W29474  39.021  18.873   1.246
62692W        W29475  10.909  35.504  12.129
62693W        W29476  37.470  21.660  10.665
62694W        W29477  10.431  12.663   2.379
62695W        W29478   6.950  44.004   0.320
62696W        W29479  17.799  17.670   2.981
62697W        W29480  24.124  15.843  11.011
62698W        W29481   0.211  15.838   2.795
62699W        W29482  39.294  14.792   2.918
62700W        W29483  34.837  24.724  12.966
62701W        W29484  28.355   9.882   2.313
62702W        W29485   4.117  32.512   2.214
62703W        W29486  21.064  37.428  13.687
62704W        W29487  24.545   5.338  11.522
62705W        W29488  34.961  31.273  12.561
62706W        W29489  34.421  35.083  14.472
62707W        W29490  11.333  29.108  13.021
62708W        W29491  28.876  20.515  10.990
62709W        W29492   2.810   0.488  12.122
62710W        W29493  23.773  17.078   1.788
62711W        W29494  27.224  30.011   3.954
62712W        W29495  27.045  27.529  12.951
62713W        W29496   8.562   9.850   3.135
62714W        W29497  43.219  15.863  11.951
62715W        W29498  30.892   3.429  10.387
62716W        W29499  42.897  40.490  13.233
62717W        W29500  36.591  42.430   4.594
62718W        W29501  41.875  30.167   3.277
62719W        W29502  15.161  38.976   2.792
62720W        W29503  33.057   5.500  13.179
62721W        W29504   4.182   8.691  12.795
62722W        W29505  22.268  25.541   5.495
62723W        W29506  26.767  11.292  12.866
62724W        W29507  14.610  27.340  13.572
62725W        W29508  31.577  41.574   2.459
62726W        W29509  29.180  29.568   2.215
62727W        W29510   6.359  12.617   4.556
62728W        W29511  15.567  22.097   2.169
62729W        W29512   6.751  31.554  14.606
62730W        W29513  27.511  43.264   4.875
62731W        W29514  44.021  19.239  10.702
62732W        W29515  38.903  36.936   0.809
62733W        W29516  13.153  27.980  14.954
62734W        W29517  20.174  28.428  13.466
62735W        W29518  42.760   6.921  14.841
62736W        W29519  13.672  40.959   0.959
62737W        W29520   7.061  33.033  14.733
62738W        W29521  16.612   6.891   4.607
62739W        W29522  43.325  16.541   1.088
62740W        W29523  10.345  35.141  11.869
62741W        W29524  41.013  10.104   1.702
62742W        W29525   4.755  40.767  11.635
62743W        W29526  26.795   4.550   0.106
62744W        W29527   3.839  31.564   4.301
62745W        W29528  28.510   4.872  14.984
62746W        W29529  14.426  21.969   2.770
62747W        W29530   4.548  14.724  11.168
62748W        W29531  38.448  12.206  12.491
62749W        W29532   9.566   9.757  13.088
62750W        W29533  40.232  35.721  14.027
62751W        W29534  10.246  28.086  13.495
62752W        W29535  40.816  38.932  11.188
62753W        W29536   0.280  37.831  14.850
62754W        W29537  21.492  29.555  12.012
62755W        W29538  40.123  20.030   4.608
62756W        W29539   7.096  12.261   1.354
62757W        W29540  24.785  19.630  10.725
62758W        W29541  38.118  25.669   1.307
62759W        W29542  39.650  23.759  12.489
62760W        W29543  16.226  31.760   4.473
62761W        W29544  25.638  32.945   2.815
62762W        W29545  27.791  17.103   4.197
62763W        W29546  36.005  17.472  13.364
62764W        W29547  20.654  19.075   0.680
62765W        W29548   6.006  18.770   1.446
62766W        W29549  30.943  11.182  10.793
62767W        W29550   4.056  16.622  12.582
62768W        W29551  16.836  36.983   1.263
62769W        W29552  37.530  16.893  10.453
62770W        W29553  12.312   0.962  10.689
62771W        W29554   7.713  33.512  13.334
62772W        W29555   5.736  41.944  14.012
62773W        W29556  43.924  18.394   3.721
62774W        W29557   4.015  14.806   1.702
62775W        W29558  38.943  40.889  10.940
62776W        W29559  21.078  29.267   3.664
62777W        W29560  32.034  43.043   4.076
62778W        W29561  31.185  43.209  14.858
62779W        W29562  28.533  13.885   4.226
62780W        W29563  11.898  38.104   1.770
62781W        W29564  24.740   3.315  14.027
62782W        W29565  11.652   7.893  13.029
62783W        W29566  35.071   3.944   0.837
62784W        W29567  19.473  27.178   2.173
62785W        W29568  28.424  27.119  14.014
62786W        W29569  12.301  40.963   3.699
62787W        W29570  27.352  35.068  14.768
62788W        W29571   3.141  34.505   0.562
62789W        W29572  38.406  36.091  10.548
62790W        W29573  28.134  39.754   5.407
62791W        W29574  38.339  29.581   0.845
62792W        W29575  21.009  16.671   2.043
62793W        W29576  24.060  42.111  13.961
62794W        W29577   1.965   1.312   3.439
62795W        W29578  24.948   9.134  10.839
62796W        W29579  13.870  43.728   0.800
62797W        W29580  10.766  38.012  13.356
62798W        W29581  29.934  31.703  12.604
62799W        W29582  41.545   3.115   0.233
62800W        W29583  33.513  28.120  14.259
62801W        W29584  13.585  28.213  11.946
62802W        W29585  28.511   0.872  10.739
62803W        W29586  43.668  13.898   1.835
62804W        W29587  26.685  38.927  12.969
62805W        W29588  43.505  11.698   3.757
62806W        W29589  33.236   4.016  11.520
62807W        W29590  28.934  20.991  10.757
62808W        W29591  23.649   1.181   3.172
62809W        W29592  20.032  44.258   3.849
62810W        W29593  10.684  24.006  11.237
62811W        W29594  25.805  21.718  11.031
62812W        W29595  22.201  32.373   4.104
62813W        W29596   9.806  16.650  10.909
62814W        W29597  26.589   0.365   4.907
62815W        W29598  41.025   4.928   2.237
62816W        W29599  26.818   8.505   4.256
62817W        W29600  17.326   3.195  12.081
62818W        W29601  22.066  36.825  13.090
62819W        W29602  19.629  10.791   0.268
62820W        W29603   9.101  39.599   3.509
62821W        W29604   2.887  22.049   0.501
62822W        W29605  35.536  20.616   3.159
62823W        W29606  16.492  24.927  13.330
62824W        W29607  19.822   0.806   4.103
62825W        W29608  19.613   5.132   3.976
62826W        W29609  39.919   9.634   1.518
62827W        W29610  42.397   2.987  11.635
62828W        W29611  30.502   4.117   4.501
62829W        W29612  34.708  36.668  10.466
62830W        W29613  31.049  24.098   4.431
62831W        W29614  19.663  23.754   1.858
62832W        W29615  31.797  11.638   1.838
62833W        W29616  44.237  43.838  11.410
62834W        W29617  24.508   4.336  13.104
62835W        W29618  26.083   6.907  13.465
62836W        W29619  31.622  19.746   2.039
62837W        W29620   5.105  22.906  12.980
62838W        W29621  27.017  18.554   2.306
62839W        W29622  40.268  38.272   1.851
62840W        W29623  36.387   3.954  11.541
62841W        W29624  16.710  15.237  14.447
62842W        W29625  21.265  42.564  11.568
62843W        W29626  20.954  17.998   1.021
62844W        W29627  27.526  24.615   4.098
62845W        W29628  42.990  28.054   0.962
62846W        W29629  39.479  43.151   3.128
62847W        W29630  17.458  39.299   4.483
62848W        W29631  33.522  12.380   1.624
62849W        W29632  28.712  10.223   2.497
62850W        W29633  16.198  13.828  11.093
62851W        W29634   0.662  30.512   1.278
62852W        W29635  17.730  34.140  12.650
62853W        W29636  39.267  17.857  11.157
62854W        W29637  24.622  14.502  11.382
62855W        W29638   7.121  13.815  14.883
62856W        W29639   2.346  37.454   3.331
62857W        W29640   0.499   8.357   3.596
62858W        W29641   8.286   8.910   4.653
62859W        W29642  33.789  25.756  11.847
62860W        W29643  13.918  22.602   0.345
62861W        W29644  37.536  41.255   0.221
62862W        W29645   2.261  13.178   2.249
62863W        W29646  16.622  39.535   4.185
62864W        W29647  30.012  27.930  11.112
62865W        W29648   8.472   3.136   4.556
62866W        W29649  31.380  22.958  12.947
62867W        W29650   1.036  18.696   4.075
62868W        W29651  14.371  42.193  10.611
62869W        W29652   5.286  29.807   2.891
62870W        W29653   0.218  31.023  13.508
62871W        W29654   5.668  29.216  11.625
62872W        W29655  44.407  36.232  11.696
62873W        W29656   4.271   0.295   0.011
62874W        W29657  25.787   6.952  11.182
62875W        W29658  21.231  40.782   4.112
62876W        W29659  43.988  18.024  11.230
62877W        W29660   4.121  34.791   3.790
62878W        W29661  41.798  23.192  11.167
62879W        W29662  43.212   4.434   1.287
62880W        W29663   1.562  31.495   1.804
62881W        W29664   2.185  16.141  12.534
62882W        W29665  37.218  18.208  13.975
62883W        W29666   5.683  32.531   3.886
62884W        W29667  17.757  37.057  13.734
62885W        W29668  40.352  31.074  10.757
62886W        W29669  35.033  22.159  14.875
62887W        W29670  44.893  18.163  11.238
62888W        W29671  24.760  42.048  14.758
62889W        W29672  36.143   5.706   2.772
62890W        W29673  11.281   5.322  14.756
62891W        W29674  36.284  14.338  14.295
62892W        W29675  36.410  30.526   0.463
62893W        W29676  27.698  24.087  10.325
62894W        W29677  13.554  22.518  12.301
62895W        W29678  19.504   9.868   3.713
62896W        W29679  43.878  12.986  10.228
62897W        W29680   0.404  25.079   1.676
62898W        W29681  11.808  27.644   1.870
62899W        W29682  33.982  35.841   3.749
62900W        W29683   9.108  25.193  14.729
62901W        W29684   3.370  37.284   2.379
62902W        W29685  10.497  14.104  12.571
62903W        W29686  12.190  27.729   2.208
62904W        W29687  40.244   1.917  11.221
62905W        W29688  35.068  13.308   1.221
62906W        W29689  25.173  29.695   4.674
62907W        W29690  34.207   2.053   1.440
62908W        W29691   5.202   8.774  11.849
62909W        W29692  39.757   1.711   1.715
62910W        W29693  13.617  23.123  12.952
62911W        W29694  27.670  18.085   1.849
62912W        W29695  24.494  26.198   3.632
62913W        W29696  26.419  33.927  14.473
62914W        W29697  38.920  10.304  13.359
62915W        W29698   3.051  37.580  13.123
62916W        W29699   8.315   8.832   3.746
62917W        W29700  15.152   0.771   4.215
62918W        W29701  32.882  31.581   1.968
62919W        W29702  40.860  12.772  14.501
62920W        W29703  44.039  36.702  11.109
62921W        W29704  44.969  36.567  12.829
62922W        W29705  36.958  24.562   1.333
62923W        W29706  25.495  31.546   2.396
62924W        W29707  22.981   0.312  14.852
62925W        W29708  40.972  15.163   1.804
62926W        W29709  27.389  25.702  12.007
62927W        W29710   5.429  44.421  12.841
62928W        W29711  19.175  38.654   1.888
62929W        W29712  19.686   7.965  12.117
62930W        W29713  27.509   6.858   3.452
62931W        W29714   7.291  14.728   2.435
62932W        W29715  21.424  15.283  10.094
62933W        W29716  26.427   6.358   2.072
62934W        W29717   0.485  16.318   0.271
62935W        W29718  20.962  34.184  13.013
62936W        W29719  35.341  26.702  11.153
62937W        W29720   3.145  42.519  13.873
62938W        W29721  17.828   5.410   2.775
62939W        W29722  32.023  16.590  11.037
62940W        W29723  31.348   5.336   3.783
62941W        W29724  40.737  24.986   1.213
62942W        W29725  28.559  27.949   3.956
62943W        W29726   2.700  26.903  13.405
62944W        W29727  29.659  36.041   4.318
62945W        W29728  37.053  24.766  14.576
62946W        W29729   3.744   7.845   0.729
62947W        W29730  25.739  41.825   3.774
62948W        W29731   6.544  35.140  12.071
62949W        W29732  37.322  14.748  12.050
62950W        W29733  24.981  21.666   1.683
62951W        W29734  34.438  31.588   0.769
62952W        W29735  22.709  40.650   2.721
62953W        W29736  11.751  13.800   4.542
62954W        W29737  21.353   8.481  11.188
62955W        W29738   2.282  28.778   4.304
62956W        W29739  19.965   7.857  14.129
62957W        W29740  26.074   0.252  10.740
62958W        W29741  43.608  14.666  11.345
62959W        W29742  15.568  39.088  13.445
62960W        W29743   9.927   4.728   4.165
62961W        W29744  34.917  19.107  12.468
62962W        W29745  34.429  25.208  14.515
62963W        W29746  10.720  35.847  14.413
62964W        W29747  37.063   7.964   3.373
62965W        W29748  14.742  10.830  10.693
62966W        W29749  40.378   5.204  14.049
62967W        W29750  15.856  14.759  12.035
62968W        W29751   9.918   4.217   4.248
62969W        W29752  44.077   3.355  10.394
62970W        W29753   7.971  19.092   3.098
62971W        W29754   2.287   6.944   1.354
62972W        W29755   9.919  39.375  13.952
62973W        W29756  19.759   7.323  11.594
62974W        W29757   4.482  11.299  13.812
62975W        W29758   4.593  38.606   3.378
62976W        W29759   7.654  21.336  12.793
62977W        W29760  36.598  42.029   3.369
62978W        W29761   0.708  35.075   5.011
62979W        W29762  30.092   3.844  12.062
62980W        W29763  38.449  26.096  10.563
62981W        W29764  15.753  25.705   2.148
62982W        W29765   1.476  37.863  12.489
62983W        W29766   0.668  32.572  11.491
62984W        W29767  29.928  39.405  11.496
62985W        W29768  34.839  11.391  14.686
62986W        W29769   3.839  13.748   2.132
62987W        W29770  21.944  10.375   2.348
62988W        W29771   0.755  41.386   5.025
62989W        W29772  39.776  21.558  11.567
62990W        W29773  17.135  43.934   2.400
62991W        W29774  25.221  23.342   2.401
62992W        W29775  14.777  42.319   3.212
62993W        W29776  16.248  10.597  14.026
62994W        W29777  39.975  29.459  11.999
62995W        W29778   3.969  24.829  12.849
62996W        W29779  28.533  33.351  14.845
62997W        W29780  43.890  36.941  11.683
62998W        W29781   2.915  36.921  10.823
62999W        W29782  14.891  30.038   3.312
63000W        W29783  41.681   8.277   3.558
63001W        W29784  11.154  44.268   1.646
63002W        W29785  27.701  28.237   4.181
63003W        W29786  20.786  36.433   4.518
63004W        W29787  23.445  20.911  14.669
63005W        W29788  31.207   8.610  11.170
63006W        W29789   4.371   7.390   4.085
63007W        W29790  12.118   3.220  13.125
63008W        W29791  35.981   4.364   2.889
63009W        W29792  29.877  22.750   9.844
63010W        W29793  16.562  15.627  11.955
63011W        W29794  22.984  10.332   1.390
63012W        W29795  18.501  25.155   0.714
63013W        W29796  17.560  27.609   0.559
63014W        W29797  11.440   1.379  11.646
63015W        W29798   9.385  33.367  13.294
63016W        W29799  33.653  24.205  12.038
63017W        W29800  34.981   9.987  12.445
63018W        W29801  11.905   4.257  14.409
63019W        W29802  31.051  31.528   2.259
63020W        W29803  20.523  20.276  11.148
63021W        W29804   7.427  10.696  12.047
63022W        W29805  34.318   9.846  10.263
63023W        W29806  29.419  10.755  14.311
63024W        W29807  19.744  31.114   4.133
63025W        W29808  11.824  44.696  11.565
63026W        W29809  34.451  16.103   0.530
63027W        W29810  18.768  33.497  10.751
63028W        W29811  40.504  37.319   4.494
63029W        W29812  15.237   6.290   4.609
63030W        W29813  28.597  41.674  10.633
63031W        W29814  33.029   0.422   3.708
63032W        W29815   1.823  19.134   1.317
63033W        W29816  26.023  41.957  13.969
63034W        W29817  38.775  33.069   2.324
63035W        W29818  38.308  14.065  12.461
63036W        W29819  13.819  19.571   3.105
63037W        W29820  15.161  20.716   0.305
63038W        W29821   3.716  36.386   1.463
63039W        W29822  30.545   2.671   3.100
63040W        W29823  13.044  23.667  10.337
63041W        W29824  39.159  12.646  10.281
63042W        W29825  35.673  20.334   1.738
63043W        W29826  41.451   7.340   0.759
63044W        W29827  30.108  29.863   1.238
63045W        W29828   6.217   2.105   3.399
63046W        W29829  35.139  43.993  11.961
63047W        W29830  39.358  19.201   2.721
63048W        W29831  30.541   9.895   0.718
63049W        W29832  27.445   8.336   2.733
63050W        W29833  28.238  26.752   0.919
63051W        W29834  11.628  12.702  14.032
63052W        W29835  22.250  30.223   1.772
63053W        W29836   1.544  32.038  13.521
63054W        W29837  28.139  25.731   0.805
63055W        W29838   5.336  27.562   4.551
63056W        W29839  26.691  30.998   1.566
63057W        W29840  32.955  17.555  13.561
63058W        W29841  12.981   6.700   3.770
63059W        W29842  10.705  27.822  13.398
63060W        W29843  15.237  42.076   2.038
63061W        W29844  43.523   1.852   5.167
63062W        W29845  35.858  11.809  14.411
63063W        W29846   8.337  43.877   1.795
63064W        W29847   1.499  33.372  14.977
63065W        W29848  11.120  26.050  10.678
63066W        W29849  42.821  36.262   3.727
63067W        W29850  18.305  33.356   4.011
63068W        W29851   6.440  30.902   2.089
63069W        W29852   9.876  32.631  14.234
63070W        W29853  22.794  12.164   0.181
63071W        W29854  34.216  20.679  12.840
63072W        W29855  20.017   5.426  11.517
63073W        W29856  27.090   3.399  13.333
63074W        W29857  17.653  19.260   3.631
63075W        W29858  23.941  22.618  11.922
63076W        W29859   1.693   4.789  12.849
63077W        W29860  25.949  16.248   3.698
63078W        W29861  35.122   9.150  11.869
63079W        W29862  10.620  44.251  13.085
63080W        W29863  28.622  12.584  14.106
63081W        W29864   0.091  36.356   0.002
63082W        W29865   7.426  17.831   2.997
63083W        W29866  21.720  12.599   3.162
63084W        W29867  16.099  18.866   2.381
63085W        W29868   6.698  25.814  13.071
63086W        W29869   7.119  11.333   1.344
63087W        W29870  18.371  33.703   0.929
63088W        W29871  38.862  23.111   1.780
63089W        W29872  10.570   5.341  11.920
63090W        W29873  40.287  12.963   1.367
63091W        W29874   4.903  10.937  12.048
63092W        W29875  37.605  17.891  14.007
63093W        W29876  28.510  24.113   1.428
63094W        W29877   7.000  22.553  12.030
63095W        W29878  28.117  12.234  10.727
63096W        W29879  41.846  34.138   3.157
63097W        W29880  16.635  16.363  10.762
63098W        W29881  22.951  17.749   0.975
63099W        W29882   4.315  14.766  10.711
63100W        W29883  38.883   1.043  11.616
63101W        W29884  39.761  13.519   4.068
63102W        W29885  42.431  15.796  10.761
63103W        W29886  16.066  18.597  13.038
63104W        W29887   1.487   2.903  13.287
63105W        W29888  13.704  17.015  13.032
63106W        W29889  33.406  34.824   2.246
63107W        W29890  12.698  39.790  11.953
63108W        W29891  13.210   5.714   4.655
63109W        W29892  34.429  32.825  11.115
63110W        W29893  20.139  41.612   1.912
63111W        W29894  35.895  10.628  11.600
63112W        W29895  30.098  23.973  14.942
63113W        W29896   1.502  42.481  11.979
63114W        W29897   1.218  26.963  13.893
63115W        W29898  39.857  44.362  13.861
63116W        W29899  26.799  17.464   0.988
63117W        W29900  44.933  23.975   4.659
63118W        W29901  24.302  23.605  11.181
63119W        W29902   4.726  21.066  11.440
63120W        W29903  11.265  44.800   3.322
63121W        W29904  20.353  37.576  14.425
63122W        W29905   8.669  38.813   3.350
63123W        W29906  19.619  19.827  10.503
63124W        W29907   8.322  10.637   1.255
63125W        W29908  20.575   4.232  13.824
63126W        W29909  33.719  11.638   3.243
63127W        W29910  26.236   7.747  14.417
63128W        W29911  17.296  10.360  13.071
63129W        W29912  40.738   8.457   5.231
63130W        W29913   8.747   4.573  11.060
63131W        W29914  10.605  10.386   1.848
63132W        W29915  18.351  39.325  12.910
63133W        W29916  43.454   5.250  12.992
63134W        W29917  24.765  10.159   2.222
63135W        W29918  21.708  22.750   4.155
63136W        W29919   4.818  21.350  11.886
63137W        W29920  41.957  28.470  10.588
63138W        W29921  28.447  29.001  11.471
63139W        W29922  37.303  14.310   0.271
63140W        W29923  44.479  30.256   3.272
63141W        W29924  24.604  18.780   4.702
63142W        W29925  39.562  29.155  10.681
63143W        W29926  35.090   4.171   3.008
63144W        W29927  38.591   8.705   2.355
63145W        W29928  29.145  20.245  11.989
63146W        W29929   6.393  33.810   2.911
63147W        W29930  42.003  27.479   0.960
63148W        W29931  39.615  27.860  12.488
63149W        W29932   9.436  18.050  12.410
63150W        W29933   2.950  23.009   0.269
63151W        W29934  20.328  26.105  11.561
63152W        W29935  22.732  24.461  12.970
63153W        W29936  37.318  32.894   0.983
63154W        W29937  23.034  15.327   1.717
63155W        W29938  29.723  39.976   9.892
63156W        W29939  14.576  22.768   1.750
63157W        W29940  17.362  19.409   3.243
63158W        W29941  40.760  35.102   1.296
63159W        W29942  14.167  11.582   3.256
63160W        W29943   2.954   5.191   2.872
63161W        W29944  39.674  13.848   1.887
63162W        W29945  43.217   4.103   2.209
63163W        W29946  24.706   5.319  14.472
63164W        W29947  20.534  41.335  14.533
63165W        W29948  39.928  40.749  11.315
63166W        W29949  10.913  13.147  12.496
63167W        W29950  41.805  19.991  14.970
63168W        W29951  41.839   0.566   9.927
63169W        W29952   5.908  33.903   4.630
63170W        W29953   7.929  17.671   1.005
63171W        W29954  10.646   3.156   2.187
63172W        W29955  21.536  24.796   9.814
63173W        W29956  30.851  44.037  12.472
63174W        W29957  39.927   7.027  10.658
63175W        W29958  43.799  12.944   1.960
63176W        W29959  29.768   4.071  10.369
63177W        W29960  15.033  39.388   1.256
63178W        W29961   8.340  29.634   4.752
63179W        W29962   3.972   1.053   0.431
63180W        W29963  20.960  41.940   3.291
63181W        W29964  35.518  28.680  10.915
63182W        W29965   9.895  10.358   1.382
63183W        W29966   9.712  29.502  13.106
63184W        W29967  11.536  26.467   1.333
63185W        W29968  10.609   6.767  14.795
63186W        W29969  23.888  38.963  11.858
63187W        W29970  26.535  27.696   3.677
63188W        W29971  25.964  35.580  12.887
63189W        W29972  30.361  20.340   9.784
63190W        W29973  32.112  28.436  11.548
63191W        W29974  40.865  21.106  11.178
63192W        W29975  18.244  41.354  10.931
63193W        W29976   7.558  42.128   1.754
63194W        W29977  22.194  10.251   3.868
63195W        W29978  28.899  43.399  12.922
63196W        W29979   8.290  33.238  10.752
63197W        W29980  13.218   7.185   0.411
63198W        W29981  24.168  40.043   3.284
63199W        W29982  10.567  37.038  14.368
63200W        W29983  24.699  15.485   0.320
63201W        W29984  37.856  29.108   4.639
63202W        W29985   0.250   3.927   0.320
63203W        W29986  39.898   9.108  12.681
63204W        W29987  21.588  15.186  14.236
63205W        W29988  20.998  13.801  10.199
63206W        W29989   2.196  29.110  14.025
63207W        W29990  38.718  40.456  13.999
63208W        W29991   5.169   7.354   3.744
63209W        W29992  21.208   4.332  10.613
63210W        W29993  20.962  12.121  14.526
63211W        W29994   5.703   8.458   4.214
63212W        W29995   6.407  32.975   3.720
63213W        W29996  16.495  44.417  12.043
63214W        W29997  39.350  28.122  10.245
63215W        W29998  40.324  11.145   9.463
63216W        W29999  44.452   0.198  14.305
63217W        W30000  40.883  41.902   0.194
63218W        W30001  21.804  26.515  13.631
63219W        W30002   9.364  13.585  12.959
63220W        W30003  33.210  40.489   3.235
63221W        W30004  33.026  19.236  12.894
63222W        W30005  40.999  35.904  10.928
63223W        W30006  33.068  22.321  13.854
63224W        W30007  23.993  34.999  12.799
63225W        W30008  34.816  14.865  13.904
63226W        W30009  38.606  17.852   4.923
63227W        W30010  19.976  38.006  12.493
63228W        W30011  22.582  29.573   2.369
63229W        W30012  35.479  12.322   2.704
63230W        W30013  26.537  28.459  13.557
63231W        W30014  37.567  11.095  14.007
63232W        W30015  34.921   4.199  10.755
63233W        W30016   2.396  14.335  12.848
63234W        W30017  31.106  38.042  11.624
63235W        W30018  22.594  43.127  12.065
63236W        W30019  39.928  17.303  10.333
63237W        W30020  32.209  41.346  11.255
63238W        W30021  34.473  42.634  13.348
63239W        W30022   7.607  11.711   0.634
63240W        W30023  32.326  24.647  12.032
63241W        W30024  27.034  21.260   1.708
63242W        W30025  20.771  13.428   2.773
63243W        W30026  36.085  30.931  10.948
63244W        W30027  31.932  28.536  13.905
63245W        W30028   9.739  14.568  14.423
63246W        W30029   7.727  11.994   4.132
63247W        W30030  32.704  43.689   0.269
63248W        W30031  35.518  16.487   3.450
63249W        W30032  17.269   9.476   3.579
63250W        W30033  19.111   8.873   0.869
63251W        W30034  44.772   4.627  12.820
63252W        W30035   4.913  39.997  12.406
63253W        W30036   5.671   0.518   2.314
63254W        W30037  15.572   5.295   4.672
63255W        W30038   8.979  22.967  12.188
63256W        W30039  37.045   5.936   3.256
63257W        W30040  15.309  31.514  11.143
63258W        W30041  17.238   2.727   0.817
63259W        W30042  30.044  17.018   4.593
63260W        W30043  20.820  20.030   3.407
63261W        W30044   6.828   3.356   3.250
63262W        W30045  25.651  13.019  14.035
63263W        W30046  15.753  38.604  13.336
63264W        W30047  30.272  18.231  13.103
63265W        W30048  41.759  34.564   1.007
63266W        W30049  29.170  13.330   1.872
63267W        W30050  26.565  22.043   4.710
63268W        W30051  34.162  23.535  10.253
63269W        W30052  33.091  44.838   1.436
63270W        W30053  16.629  39.686   0.380
63271W        W30054  16.128   2.224   1.427
63272W        W30055  18.586  34.933   3.163
63273W        W30056  17.291  33.113  13.519
63274W        W30057  16.364  12.626   4.615
63275W        W30058   5.755  37.360  10.710
63276W        W30059  10.709  23.465   0.034
63277W        W30060  44.942  40.585   3.107
63278W        W30061  38.334  35.009   2.226
63279W        W30062  34.620   7.995   3.126
63280W        W30063  20.992  31.039  14.259
63281W        W30064   1.461  16.363   2.353
63282W        W30065  15.956  30.176  10.752
63283W        W30066  20.553  19.739  11.228
63284W        W30067  30.408  31.692  13.915
63285W        W30068  41.725  44.269   0.877
63286W        W30069  35.082  13.300   3.098
63287W        W30070  31.111  27.070  14.473
63288W        W30071  15.853  26.020   0.868
63289W        W30072  44.223  40.282  11.520
63290W        W30073  25.494   1.858   0.820
63291W        W30074   1.304  17.075  11.126
63292W        W30075  12.566   4.713  12.063
63293W        W30076  35.091  19.849   4.440
63294W        W30077  25.088  34.641  10.697
63295W        W30078   9.347  11.692   3.677
63296W        W30079  10.202  33.231  14.970
63297W        W30080  41.356  36.017   2.411
63298W        W30081  25.732  14.946   1.258
63299W        W30082  17.627  13.525  13.109
63300W        W30083  10.837  17.630  13.509
63301W        W30084   6.143   2.407  13.478
63302W        W30085  16.635  27.051   1.426
63303W        W30086  10.206  31.148  11.988
63304W        W30087   6.914  25.205   1.673
63305W        W30088  10.659  13.642  11.661
63306W        W30089   5.907   5.304  12.696
63307W        W30090  35.675  22.122  11.518
63308W        W30091  36.215  22.236  10.731
63309W        W30092  24.656   3.837  13.988
63310W        W30093  39.382   2.233  12.616
63311W        W30094  26.975  30.915  14.321
63312W        W30095  11.541  15.678  11.420
63313W        W30096   5.862  41.850   1.352
63314W        W30097  22.638  19.737  11.571
63315W        W30098  29.649  27.424   2.184
63316W        W30099  29.053   7.249  12.404
63317W        W30100   5.247  24.729   1.023
63318W        W30101  12.337  39.348   0.496
63319W        W30102  40.691  44.625  12.961
63320W        W30103  15.325   4.875   4.534
63321W        W30104  19.239  30.368   1.193
63322W        W30105  13.390  18.254  14.804
63323W        W30106  18.666  42.332   2.503
63324W        W30107  32.105  27.138   3.914
63325W        W30108  39.824  31.560  10.196
63326W        W30109  23.751  21.474   0.873
63327W        W30110  12.758   0.978  14.200
63328W        W30111  33.320  18.996  10.760
63329W        W30112   2.871   7.562   3.997
63330W        W30113  43.552   3.050  12.136
63331W        W30114  33.578  22.470  13.909
63332W        W30115   7.336  23.791   0.163
63333W        W30116   8.880   9.860  13.843
63334W        W30117   4.629  25.969   0.391
63335W        W30118   7.184   5.326  10.699
63336W        W30119  43.484  30.258  11.997
63337W        W30120  30.030  11.707   3.283
63338W        W30121  43.710  34.417   2.743
63339W        W30122  32.083  41.076  13.481
63340W        W30123  28.933   0.490   2.227
63341W        W30124   1.689  17.259   0.807
63342W        W30125  41.981  27.593   2.596
63343W        W30126   6.731  20.499   4.123
63344W        W30127   9.410  20.316  12.038
63345W        W30128  38.804  14.822   3.126
63346W        W30129  44.649  32.525  12.589
63347W        W30130  12.674  39.636   2.551
63348W        W30131  29.200   9.732  13.882
63349W        W30132   7.035   4.731  14.330
63350W        W30133  33.584  31.543  13.410
63351W        W30134  24.873  33.683  14.854
63352W        W30135  14.152  21.449  13.279
63353W        W30136  38.937  25.874   1.932
63354W        W30137  31.450  43.778   0.787
63355W        W30138  19.253  33.055  14.456
63356W        W30139   2.555   0.576   5.014
63357W        W30140  38.504  41.005   4.203
63358W        W30141  23.048  13.325   3.386
63359W        W30142   7.070  25.049  12.017
63360W        W30143  12.854   0.548   1.155
63361W        W30144  38.090  14.988  12.927
63362W        W30145  44.235   3.739  13.485
63363W        W30146  16.340  42.846   1.290
63364W        W30147  25.608  35.074   1.400
63365W        W30148  23.633   5.437   0.975
63366W        W30149  35.228  36.025  13.532
63367W        W30150   3.379  18.176  12.606
63368W        W30151  24.445  35.180  14.430
63369W        W30152  23.546  41.175   3.614
63370W        W30153  14.785   2.847  13.468
63371W        W30154  43.543  40.388  10.731
63372W        W30155  30.689  18.453   2.747
63373W        W30156  12.355  24.579   4.775
63374W        W30157   9.093  26.937   3.894
63375W        W30158   7.845  27.481  11.859
63376W        W30159  25.647   8.792   0.806
63377W        W30160  41.397   9.252   2.759
63378W        W30161  34.157  38.352   3.775
63379W        W30162  32.481   0.957   4.026
63380W        W30163  20.608  30.253  13.695
63381W        W30164  43.203  23.993   3.233
63382W        W30165  18.316  11.338   3.252
63383W        W30166  21.512   1.428   1.963
63384W        W30167  14.253  21.669  14.288
63385W        W30168  35.768   0.051   1.297
63386W        W30169   9.956  39.015   3.680
63387W        W30170  19.397  37.881   4.578
63388W        W30171  12.173  32.522   1.912
63389W        W30172  27.801  32.950   4.693
63390W        W30173  19.859  14.254   3.179
63391W        W30174  29.375  30.465   1.819
63392W        W30175  18.772  17.328  13.942
63393W        W30176  10.584  19.086  11.164
63394W        W30177  20.554  17.110   4.558
63395W        W30178  11.905  25.430  11.950
63396W        W30179   0.228  37.938  13.192
63397W        W30180  22.195  12.626   0.377
63398W        W30181  29.553  41.868  13.913
63399W        W30182  27.371  11.058   2.150
63400W        W30183  34.627  41.922   2.597
63401W        W30184   1.255   5.939  14.420
63402W        W30185   4.826  23.113  12.068
63403W        W30186  12.843  22.708  11.215
63404W        W30187   4.607  14.158  13.431
63405W        W30188   1.265  44.131  14.293
63406W        W30189  12.127  31.835   2.664
63407W        W30190  34.422  25.061   0.912
63408W        W30191  36.959  21.545  10.559
63409W        W30192  17.843   8.349  11.212
63410W        W30193  16.835   4.346   2.802
63411W        W30194  35.844  15.162   2.243
63412W        W30195  10.021   2.051   1.788
63413W        W30196  42.326  31.093   4.086
63414W        W30197  17.754  26.165   0.815
63415W        W30198  41.580   2.245  13.400
63416W        W30199  16.206   5.433   0.827
63417W        W30200   1.137  34.306   2.339
63418W        W30201  34.494  14.698  14.899
63419W        W30202  19.495   5.081  12.650
63420W        W30203  28.118  41.731   4.274
63421W        W30204   5.728   1.969  10.868
63422W        W30205  12.059   5.910  12.548
63423W        W30206  25.670  27.792   2.841
63424W        W30207  35.210  25.923   0.377
63425W        W30208  16.495  11.256   1.910
63426W        W30209  36.569  18.566   1.515
63427W        W30210  16.684   3.998   4.725
63428W        W30211  19.488   3.806  11.156
63429W        W30212  33.431  37.932   3.671
63430W        W30213  21.789  32.422  10.687
63431W        W30214   4.115   5.169  13.302
63432W        W30215  30.323  34.126   3.673
63433W        W30216  27.495  17.112  11.045
63434W        W30217  34.613  21.420  14.624
63435W        W30218  44.291   1.710   1.639
63436W        W30219  38.471  44.005  13.948
63437W        W30220  35.479  19.669  13.458
63438W        W30221  32.205   4.909   3.764
63439W        W30222   8.665   7.183  10.877
63440W        W30223  20.770  10.099   0.077
63441W        W30224   7.338   1.468   0.421
63442W        W30225  18.917  17.997   9.959
63443W        W30226  38.961   7.513   2.213
63444W        W30227   7.275  23.515  13.885
63445W        W30228  28.103  15.418   4.254
63446W        W30229  20.057  34.551  12.144
63447W        W30230  37.110  31.116  12.513
63448W        W30231   8.030  34.540  13.989
63449W        W30232  31.250  20.195   5.020
63450W        W30233  27.476   0.931  11.970
63451W        W30234  36.119   7.377  12.103
63452W        W30235  20.669  39.988  12.851
63453W        W30236  43.722   4.542   1.333
63454W        W30237  10.277  37.834   0.445
63455W        W30238   1.648  10.667   4.834
63456W        W30239  21.965  36.488  14.427
63457W        W30240  34.173   1.314  11.662
63458W        W30241  14.201  28.010  12.488
63459W        W30242  41.416  40.975   1.753
63460W        W30243  41.130  37.807   4.155
63461W        W30244  11.356  15.857   2.313
63462W        W30245  40.953  17.838   1.739
63463W        W30246  37.185  28.846  10.278
63464W        W30247  28.843  39.974   0.690
63465W        W30248   3.473  28.859   0.401
63466W        W30249  26.982  26.077  14.727
63467W        W30250  33.461  37.088  11.647
63468W        W30251  30.691  25.616   2.256
63469W        W30252  30.027  19.865  10.333
63470W        W30253  23.915  36.822   2.499
63471W        W30254  14.384   0.288   0.160
63472W        W30255  32.614  32.089  11.278
63473W        W30256  11.179  42.928   1.133
63474W        W30257  44.543   6.652   1.339
63475W        W30258  37.420  14.205  12.375
63476W        W30259  35.631  13.081  13.153
63477W        W30260  30.234  33.472   1.242
63478W        W30261  14.482   0.316   4.459
63479W        W30262  27.650  16.049  14.065
63480W        W30263  37.059  37.498   0.476
63481W        W30264  26.111  35.670   0.891
63482W        W30265  34.344   6.296   2.696
63483W        W30266   7.892   7.925   0.219
63484W        W30267   6.640  18.948   4.175
63485W        W30268  37.350  11.733  14.316
63486W        W30269  32.784   1.154   4.393
63487W        W30270   2.824  13.988  10.713
63488W        W30271  16.593  41.117   2.237
63489W        W30272  26.977   2.267   2.261
63490W        W30273  42.470  13.832  11.864
63491W        W30274  16.615  14.785  11.585
63492W        W30275  12.736  39.140  14.370
63493W        W30276  23.702   5.470   3.639
63494W        W30277  29.941  21.976   4.954
63495W        W30278  12.139   2.809   3.825
63496W        W30279  37.315  26.683  13.095
63497W        W30280  29.949  43.087   4.027
63498W        W30281  14.450  14.405  12.065
63499W        W30282   6.580  41.418   1.435
63500W        W30283  18.242  31.117   2.694
63501W        W30284  21.802  19.700  14.878
63502W        W30285   7.267   9.115   0.759
63503W        W30286  16.594  19.339   0.353
63504W        W30287  25.241  25.069   3.765
63505W        W30288  43.836   3.388  14.465
63506W        W30289   2.715  25.391   0.239
63507W        W30290  19.827  17.722  14.189
63508W        W30291  21.384  23.863  10.642
63509W        W30292   5.214  42.612   1.699
63510W        W30293   9.734  42.683   4.895
63511W        W30294  26.013  26.990  10.864
63512W        W30295  10.851  31.988   4.183
63513W        W30296  41.936  40.645   4.648
63514W        W30297  10.433  14.413   4.156
63515W        W30298  36.050  34.375   2.269
63516W        W30299  21.597  17.743   1.527
63517W        W30300  30.028  16.551   1.216
63518W        W30301   6.970  14.555  12.575
63519W        W30302  12.265  24.663  11.559
63520W        W30303  19.317   1.510   4.162
63521W        W30304  30.468  34.968   3.689
63522W        W30305  22.120  27.241   0.428
63523W        W30306  41.300  44.447   4.090
63524W        W30307  35.962  21.158  12.925
63525W        W30308  18.633  29.388  14.446
63526W        W30309  36.411  26.981   2.628
63527W        W30310   6.856  28.571  11.751
63528W        W30311   8.797  27.449  12.692
63529W        W30312  35.490  35.148   4.648
63530W        W30313  19.260  35.008  14.454
63531W        W30314  10.619  27.175  14.470
63532W        W30315  32.801  28.461  10.751
63533W        W30316  31.578   7.798   2.316
63534W        W30317  13.859  26.597   4.127
63535W        W30318   2.479  32.460   4.713
63536W        W30319  25.670  32.452  11.102
63537W        W30320  22.049  32.703  11.561
63538W        W30321  25.444   8.994  11.999
63539W        W30322  32.941  33.592   3.748
63540W        W30323  12.139   9.281   3.230
63541W        W30324  41.491   6.512  12.175
63542W        W30325  18.123  25.856   2.332
63543W        W30326   7.774  40.782  10.744
63544W        W30327  13.837  40.520  12.825
63545W        W30328  23.406  38.999  12.054
63546W        W30329  41.210  10.710  12.654
63547W        W30330  37.084  27.101  14.723
63548W        W30331  44.690  32.907   2.248
63549W        W30332  23.065  20.583   1.105
63550W        W30333  21.091  16.886   0.678
63551W        W30334  23.713  42.126  11.650
63552W        W30335  21.495  30.555  14.114
63553W        W30336  17.344  33.968  14.992
63554W        W30337  27.741  31.168  14.901
63555W        W30338  39.076  33.029  12.517
63556W        W30339  29.354  39.581  12.297
63557W        W30340  19.867   3.469  13.884
63558W        W30341  42.442  28.231   3.189
63559W        W30342   0.940   2.906  11.891
63560W        W30343  24.833  39.574  14.587
63561W        W30344  20.878  36.562  13.542
63562W        W30345  13.521  24.193  12.441
63563W        W30346  28.613  28.978  13.742
63564W        W30347  37.807   7.627  14.831
63565W        W30348  44.584  40.307   2.835
63566W        W30349   2.000  38.348   1.737
63567W        W30350  18.168  15.914  14.663
63568W        W30351  13.784   1.411  10.470
63569W        W30352  33.993  44.561  13.552
63570W        W30353  19.008  44.219  13.838
63571W        W30354  17.773  25.295   0.432
63572W        W30355  20.654  43.903  13.309
63573W        W30356  35.275  35.495   0.547
63574W        W30357  21.081  32.033  12.195
63575W        W30358  37.546   9.572   0.766
63576W        W30359  32.088  19.574  12.932
63577W        W30360  34.072  38.964   4.192
63578W        W30361  21.248  37.786  14.511
63579W        W30362   9.923  44.354   2.176
63580W        W30363  37.647   3.407   2.725
63581W        W30364   3.312  35.443   1.750
63582W        W30365   3.429  19.087   4.847
63583W        W30366  26.830   4.427  12.979
63584W        W30367   6.374  37.466  13.817
63585W        W30368   0.899  25.289  14.913
63586W        W30369  30.145  42.338   2.902
63587W        W30370  28.840  32.630   1.338
63588W        W30371  29.368   2.351  14.150
63589W        W30372  43.957  12.558   4.055
63590W        W30373  21.763  32.497   0.033
63591W        W30374   5.805   3.473   0.675
63592W        W30375  37.920  25.273  12.073
63593W        W30376   2.905  41.062   3.138
63594W        W30377  40.704   6.273  11.690
63595W        W30378  13.986   9.813   0.126
63596W        W30379  43.309   6.736   3.575
63597W        W30380  42.815  27.349  10.694
63598W        W30381  28.399  25.932  13.300
63599W        W30382  27.483  14.248  12.082
63600W        W30383  10.230  25.358  11.004
63601W        W30384  21.120   7.621   2.813
63602W        W30385  20.822  33.929  14.358
63603W        W30386  33.211  22.099   0.043
63604W        W30387  14.399  32.412   2.253
63605W        W30388  31.555   3.190   1.437
63606W        W30389  38.479  41.342  12.523
63607W        W30390  38.372   1.776   2.642
63608W        W30391   2.429  44.716  12.444
63609W        W30392  10.892   9.652  13.994
63610W        W30393  23.542  23.025  11.935
63611W        W30394  25.145  11.195   4.546
63612W        W30395  10.174  30.413   2.482
63613W        W30396  18.851   4.899   2.199
63614W        W30397  12.208  33.493  13.408
63615W        W30398   6.856  15.895  14.446
63616W        W30399  41.498  34.119   0.915
63617W        W30400  30.800  13.883   1.412
63618W        W30401  30.421  37.304   0.731
63619W        W30402  13.415  16.731   0.487
63620W        W30403  19.398  25.041   0.735
63621W        W30404  16.655  24.472  13.971
63622W        W30405  28.678  21.321   1.397
63623W        W30406   0.332   2.035  13.421
63624W        W30407  44.570  24.041  13.449
63625W        W30408  30.027  38.166  12.990
63626W        W30409  40.096  17.216  13.545
63627W        W30410  43.860   7.986  11.615
63628W        W30411  18.822   6.301  14.664
63629W        W30412  44.967   3.315  10.896
63630W        W30413  11.458  38.779   3.640
63631W        W30414   3.329  29.688  14.894
63632W        W30415  36.996  27.437   3.131
63633W        W30416   4.955  16.942   4.172
63634W        W30417  14.579  17.048   2.130
63635W        W30418  40.369   7.685   3.757
63636W        W30419   0.668  33.542   0.242
63637W        W30420  14.103  24.629  12.951
63638W        W30421  18.258  31.499   4.176
63639W        W30422  14.025  26.898   3.725
63640W        W30423  39.734  42.260   1.085
63641W        W30424   7.199  21.080  12.902
63642W        W30425  28.372   1.949  13.349
63643W        W30426  34.495   8.106  12.788
63644W        W30427  21.808  20.079   0.256
63645W        W30428  33.393  19.433  10.043
63646W        W30429  28.022  19.627   0.775
63647W        W30430  28.478  21.204   3.819
63648W        W30431   4.196  28.628   1.754
63649W        W30432  20.030   1.389  10.913
63650W        W30433  20.907  33.472   2.817
63651W        W30434  33.465  36.194  13.975
63652W        W30435  44.044  18.778   0.945
63653W        W30436  18.044  15.297   2.306
63654W        W30437  23.950  44.518  10.593
63655W        W30438  36.844  10.309  12.164
63656W        W30439  31.412   2.857   0.195
63657W        W30440  13.526  26.298  13.151
63658W        W30441  26.792  39.212  13.427
63659W        W30442   1.633   2.540   0.273
63660W        W30443  42.165  13.172   4.374
63661W        W30444   0.605  39.938   1.156
63662W        W30445  29.146  16.768   2.024
63663W        W30446   1.091  24.568   0.387
63664W        W30447   0.488  38.393  12.359
63665W        W30448   4.780  16.211  11.056
63666W        W30449  16.743  19.520  13.501
63667W        W30450  35.581  20.637  14.968
63668W        W30451  35.045  20.263   0.024
63669W        W30452  40.419  25.466  13.459
63670W        W30453  25.984   2.835   3.362
63671W        W30454  32.607  26.180   0.524
63672W        W30455  17.152   7.160  13.816
63673W        W30456  25.303  10.173  12.681
63674W        W30457  16.787   2.696   1.500
63675W        W30458   6.306   8.851  13.461
63676W        W30459  38.945  44.758  14.092
63677W        W30460  19.471   3.526  12.524
63678W        W30461   2.582   0.774  13.244
63679W        W30462  26.088  17.576  13.302
63680W        W30463   7.826   9.768   3.811
63681W        W30464   1.172  41.308  10.732
63682W        W30465  11.859  15.900   4.591
63683W        W30466  22.057  22.707   1.318
63684W        W30467  14.577  30.626  14.862
63685W        W30468   4.891  33.446  11.503
63686W        W30469  28.074  34.548   3.779
63687W        W30470  41.591  26.595   0.798
63688W        W30471   2.402  35.223   0.737
63689W        W30472  29.042  17.666  12.163
63690W        W30473  31.252  10.216  13.574
63691W        W30474  44.696  17.979   3.924
63692W        W30475  39.426   9.547  14.296
63693W        W30476  43.021  15.384  14.117
63694W        W30477  23.815   0.704   3.752
63695W        W30478  24.709  16.307  12.810
63696W        W30479  33.128  31.677  14.888
63697W        W30480  39.589   9.260  14.692
63698W        W30481  10.385  21.567  10.758
63699W        W30482  39.553  33.582  12.037
63700W        W30483  17.081   9.193   3.178
63701W        W30484  32.637  43.017   1.161
63702W        W30485  26.192   7.252   0.736
63703W        W30486  12.141  12.254   0.420
63704W        W30487   8.293  43.766  14.407
63705W        W30488  27.037  15.582  12.980
63706W        W30489  43.647  24.647   4.866
63707W        W30490  26.473  44.940  12.909
63708W        W30491  39.100   5.123  11.134
63709W        W30492  11.599  24.055   3.611
63710W        W30493  37.941   5.362  10.355
63711W        W30494  14.718  23.440   4.302
63712W        W30495   5.045  27.235   0.032
63713W        W30496   0.013  26.003  12.444
63714W        W30497  20.744  15.494   0.716
63715W        W30498   7.224  16.628  14.365
63716W        W30499  27.771  31.686  14.918
63717W        W30500   5.869  34.029  13.422
63718W        W30501  21.898  15.211   4.813
63719W        W30502  33.732  27.933  12.322
63720W        W30503  34.803  13.735   0.969
63721W        W30504  39.989  23.166  13.630
63722W        W30505  43.301  33.849   1.330
63723W        W30506  15.431  42.769   3.669
63724W        W30507  32.034   1.202   3.939
63725W        W30508   2.407  27.714   4.184
63726W        W30509  24.502  25.720   2.212
63727W        W30510  25.895  34.931  12.393
63728W        W30511  21.581   9.451  14.507
63729W        W30512  25.714  17.196   0.934
63730W        W30513   3.737  21.843  10.717
63731W        W30514   6.404   1.384  11.383
63732W        W30515  11.649  35.852   1.223
63733W        W30516  36.306  11.086  13.873
63734W        W30517  39.747  42.443   2.086
63735W        W30518  22.061  43.296  13.331
63736W        W30519  20.303  22.234  12.134
63737W        W30520  34.061  25.140  13.792
63738W        W30521  24.560  41.944   4.165
63739W        W30522  23.155   6.244   1.024
63740W        W30523  34.631  41.922  14.465
63741W        W30524  31.502  28.621  11.596
63742W        W30525  20.582  34.543  11.193
63743W        W30526  23.002  44.170  12.474
63744W        W30527  23.589  39.554  14.349
63745W        W30528  39.900  15.907   2.234
63746W        W30529  17.466  40.727   1.741
63747W        W30530  16.698   7.006  12.428
63748W        W30531  32.442  28.649  13.968
63749W        W30532   1.268  25.035  10.950
63750W        W30533   8.650  33.873  10.769
63751W        W30534  39.464  23.041  12.919
63752W        W30535   3.572   3.079  14.495
63753W        W30536  34.509   5.032   1.283
63754W        W30537  35.150   7.336  13.055
63755W        W30538   9.356  14.726   4.577
63756W        W30539   8.175  17.031  12.890
63757W        W30540  21.266  11.753  14.275
63758W        W30541  26.381   4.742   4.530
63759W        W30542  18.756  36.517   1.725
63760W        W30543  15.133   1.410   2.566
63761W        W30544  34.556   6.812   1.760
63762W        W30545  33.574  30.705   3.292
63763W        W30546  31.598  28.341  12.431
63764W        W30547  19.335  34.428  10.442
63765W        W30548  15.611  30.680  13.934
63766W        W30549  30.777  14.476   3.696
63767W        W30550  42.830   9.962  11.272
63768W        W30551  21.418  35.761   1.487
63769W        W30552  18.141  16.348   4.701
63770W        W30553  10.038  22.571   2.365
63771W        W30554  26.519  26.662   3.617
63772W        W30555  10.238   3.193  10.253
63773W        W30556   3.240   4.514  12.154
63774W        W30557   6.417  20.569   2.253
63775W        W30558  27.459   3.385  10.644
63776W        W30559  26.765  14.874   0.359
63777W        W30560  25.321  19.539  13.348
63778W        W30561   7.198  24.657   3.179
63779W        W30562  39.762  25.589  12.392
63780W        W30563   0.215  24.651  14.513
63781W        W30564   3.790  30.503  11.713
63782W        W30565  16.359  35.916  13.130
63783W        W30566   6.686  13.801  10.847
63784W        W30567  38.939  11.163  13.079
63785W        W30568  23.249   4.208  11.881
63786W        W30569  42.899  25.917  11.612
63787W        W30570  11.927  20.599   1.767
63788W        W30571   6.677  13.487  11.242
63789W        W30572  41.742  27.144  14.419
63790W        W30573  35.026  35.195  11.144
63791W        W30574  25.697  18.766   4.635
63792W        W30575  11.623  40.321  11.496
63793W        W30576  20.021   5.287   1.559
63794W        W30577  26.239   0.646  13.817
63795W        W30578  38.801  22.966   2.686
63796W        W30579  26.723  12.282  12.999
63797W        W30580  13.795  22.190   0.963
63798W        W30581  21.987  20.095  12.168
63799W        W30582   1.929  22.044   1.938
63800W        W30583  44.468  26.429  11.227
63801W        W30584  19.881  29.924  12.377
63802W        W30585   7.765  19.066   2.221
63803W        W30586  24.950  14.354   5.162
63804W        W30587  41.840  18.194  13.134
63805W        W30588  10.686  28.960   3.663
63806W        W30589   7.788  20.267   0.266
63807W        W30590  14.665  34.199  11.899
63808W        W30591  25.120  20.159   3.896
63809W        W30592  32.361  40.887  11.964
63810W        W30593  20.271   5.892   0.492
63811W        W30594  42.382  44.878   1.015
63812W        W30595   6.351  38.937   2.087
63813W        W30596   7.389  32.844   2.818
63814W        W30597  26.503  36.097  12.659
63815W        W30598  19.494  23.956  11.800
63816W        W30599  40.509  22.311  12.496
63817W        W30600  18.119   5.607  13.062
63818W        W30601  16.258  17.699  12.144
63819W        W30602  24.048  10.342  10.387
63820W        W30603  36.002  25.741   2.973
63821W        W30604  18.659  30.235  12.118
63822W        W30605  15.538   7.155   4.550
63823W        W30606  13.104  17.256   1.396
63824W        W30607   6.302  29.999   1.613
63825W        W30608   5.193  25.627   3.239
63826W        W30609  19.161   1.229   0.975
63827W        W30610   5.418  31.087  12.421
63828W        W30611  19.596  44.326  10.712
63829W        W30612  15.814  20.750   0.940
63830W        W30613  14.869   6.952  13.514
63831W        W30614  39.085  34.945   0.904
63832W        W30615   9.323  20.681   2.653
63833W        W30616  15.112  28.478   3.830
63834W        W30617  32.084  31.916  10.398
63835W        W30618   2.952  25.171   1.640
63836W        W30619  42.892  39.917   3.325
63837W        W30620  35.577  34.623   3.950
63838W        W30621  31.012  33.447  14.801
63839W        W30622  41.971  33.515  14.711
63840W        W30623   4.426  11.763   2.226
63841W        W30624   7.775  38.013   4.948
63842W        W30625  21.713  25.448   2.327
63843W        W30626  18.726   8.979   2.256
63844W        W30627  25.604   5.821  12.132
63845W        W30628   7.191  37.344   0.791
63846W        W30629  11.303   9.475  14.241
63847W        W30630  40.635  32.243   1.589
63848W        W30631  12.345  10.093  11.146
63849W        W30632  17.595  19.204  10.482
63850W        W30633  29.616  43.454  10.469
63851W        W30634  43.878  14.782   0.164
63852W        W30635  44.807  11.984  12.587
63853W        W30636  24.006   1.021  14.405
63854W        W30637  10.356   4.517  12.423
63855W        W30638   1.318  25.055  12.410
63856W        W30639  31.024  25.076  10.715
63857W        W30640  28.164  29.927   1.369
63858W        W30641  43.954  41.069   0.899
63859W        W30642   9.486  27.626   1.721
63860W        W30643  17.059   7.382   4.212
63861W        W30644  40.549   2.049   3.107
63862W        W30645  16.351  14.572  13.922
63863W        W30646  12.561   9.002  13.230
63864W        W30647  43.098  34.103  12.373
63865W        W30648  38.815   8.479  13.861
63866W        W30649  19.563  22.704   4.569
63867W        W30650  23.634   1.551  11.482
63868W        W30651  40.947  40.047  12.859
63869W        W30652  14.737  39.937  10.538
63870W        W30653   0.461   1.986   3.069
63871W        W30654  34.367  39.698   2.939
63872W        W30655  14.903  36.841  13.511
63873W        W30656  37.939  40.594   0.226
63874W        W30657  11.586  28.336   4.205
63875W        W30658  24.199   4.659   1.554
63876W        W30659   8.639   6.858   2.256
63877W        W30660  16.248  13.140   0.815
63878W        W30661   5.674   0.525   3.233
63879W        W30662   2.236  26.133  12.547
63880W        W30663  14.496  41.246   4.100
63881W        W30664   8.198  37.732  14.989
63882W        W30665   2.427  31.937  10.855
63883W        W30666   0.889  39.230   2.223
63884W        W30667   7.635  39.945  14.940
63885W        W30668  21.380  15.682  10.720
63886W        W30669  19.593  31.011   2.760
63887W        W30670  44.176  25.573   3.955
63888W        W30671  17.261  29.905  11.393
63889W        W30672  26.674  18.258   4.671
63890W        W30673  25.837   3.707   3.236
63891W        W30674   7.788   3.009   2.378
63892W        W30675  42.656  12.145  10.359
63893W        W30676  42.113  16.775   0.771
63894W        W30677  10.692  25.928   1.490
63895W        W30678  20.689  11.381   1.807
63896W        W30679   4.941  28.509  12.127
63897W        W30680  12.486  11.732  10.947
63898W        W30681  20.650  25.430  10.959
63899W        W30682   1.464  10.197   2.288
63900W        W30683  35.169  11.738   3.108
63901W        W30684  13.350  10.319   1.288
63902W        W30685  40.375  32.008  14.894
63903W        W30686  14.042   3.888   1.441
63904W        W30687   6.507  28.597   3.184
63905W        W30688  20.615  10.872   0.677
63906W        W30689  39.607  26.711  10.552
63907W        W30690   2.343  17.142   1.925
63908W        W30691   0.887   5.341   1.703
63909W        W30692  16.713  27.090   2.875
63910W        W30693  29.174  31.370   3.818
63911W        W30694   3.732  12.654  14.472
63912W        W30695  19.269  37.733  14.717
63913W        W30696  11.328  24.026   3.145
63914W        W30697  20.964  29.147   2.193
63915W        W30698   5.265   7.708  10.656
63916W        W30699  16.039  14.879   3.528
63917W        W30700  42.771   4.923  10.618
63918W        W30701  19.282   0.964   2.792
63919W        W30702   2.835  31.825   0.876
63920W        W30703  40.298  11.841  10.809
63921W        W30704   1.289  39.066  13.031
63922W        W30705  34.537  11.302   0.658
63923W        W30706  18.251  29.140   2.312
63924W        W30707  22.067  13.360  10.593
63925W        W30708  37.319  27.832  11.995
63926W        W30709  40.582  36.815   1.705
63927W        W30710  14.582   8.900  13.316
63928W        W30711   1.009  20.809   1.363
63929W        W30712  21.583  42.037  11.189
63930W        W30713  36.826   4.597  13.524
63931W        W30714  38.377  23.677   2.282
63932W        W30715  41.577  17.033   0.014
63933W        W30716  39.465  22.675   3.178
63934W        W30717  26.230  10.121   4.735
63935W        W30718   3.913  14.931   3.731
63936W        W30719  14.803   9.853   4.169
63937W        W30720  20.125  28.415   2.229
63938W        W30721  44.862  13.638   0.381
63939W        W30722  37.863  20.719  11.218
63940W        W30723  16.309  29.251  10.598
63941W        W30724  23.259  39.575   1.841
63942W        W30725  25.934  32.094   0.005
63943W        W30726  38.022  24.626   0.477
63944W        W30727  19.071  30.507   0.739
63945W        W30728  39.631  34.537   1.763
63946W        W30729  27.680   0.541   4.753
63947W        W30730  16.593  21.634   0.985
63948W        W30731  31.426  38.349  14.213
63949W        W30732   3.968   6.321   0.979
63950W        W30733  20.933  36.135   0.121
63951W        W30734  37.847  16.081   0.220
63952W        W30735  40.603   2.361   4.017
63953W        W30736  24.516  13.356   3.924
63954W        W30737  19.268  31.670   2.189
63955W        W30738  35.565  38.460  13.439
63956W        W30739  44.837  27.979  12.435
63957W        W30740  42.322  43.911  11.621
63958W        W30741  13.824  41.511  12.920
63959W        W30742  28.466  36.539  13.002
63960W        W30743   4.806  30.458   3.866
63961W        W30744   8.334  38.840   0.784
63962W        W30745  33.581  44.778  12.511
63963W        W30746   5.731  16.366   1.343
63964W        W30747  39.944  27.039   2.253
63965W        W30748  28.077  10.009   1.862
63966W        W30749  22.650  29.805   3.697
63967W        W30750  14.034  20.943  13.242
63968W        W30751  32.123   3.930  13.871
63969W        W30752  37.638   2.344   2.275
63970W        W30753  11.819  27.340   3.200
63971W        W30754   9.147  38.103   4.557
63972W        W30755   8.172  25.922  12.299
63973W        W30756  38.450  28.457   2.278
63974W        W30757   5.257  25.053  14.548
63975W        W30758  15.604   1.947   3.155
63976W        W30759  42.438  28.635   1.264
63977W        W30760   8.025  22.509   4.790
63978W        W30761  40.764   2.006  11.317
63979W        W30762  24.641  16.594  13.791
63980W        W30763   7.171  28.101   3.613
63981W        W30764   9.863   7.169   9.784
63982W        W30765  37.079   3.328   1.385
63983W        W30766  13.265   9.802   1.264
63984W        W30767  28.701  15.354  14.949
63985W        W30768  35.087   3.515   0.570
63986W        W30769  43.468  35.999  14.454
63987W        W30770  27.652  23.638   4.231
63988W        W30771  32.110  38.838   2.362
63989W        W30772  30.304  15.435   2.322
63990W        W30773  41.457  20.220  12.698
63991W        W30774  21.337  36.996  10.703
63992W        W30775  24.406  31.305   0.820
63993W        W30776   8.700   5.759   4.011
63994W        W30777   3.158  36.390  13.851
63995W        W30778  24.666  15.578  13.549
63996W        W30779   1.321  27.063   0.665
63997W        W30780  30.437  30.397   3.681
63998W        W30781   0.948  10.604  14.911
63999W        W30782  22.043  38.754  14.381
64000W        W30783  23.449  15.765  12.846
64001W        W30784  33.981   6.654  12.085
64002W        W30785  40.288  11.805  14.646
64003W        W30786  32.711  17.574   2.221
64004W        W30787   2.724  38.380   2.809
64005W        W30788  35.087  19.010   4.080
64006W        W30789  22.916  28.393   2.788
64007W        W30790  44.585  29.600   2.723
64008W        W30791   4.256  43.588   0.295
64009W        W30792   2.026  37.010  14.001
64010W        W30793  24.152  35.827  11.519
64011W        W30794  37.367  29.868  14.882
64012W        W30795  20.575  44.168  11.841
64013W        W30796  16.798  29.981  12.810
64014W        W30797   0.765  39.837  11.415
64015W        W30798   9.191  37.610   3.252
64016W        W30799  39.612  26.736   3.225
64017W        W30800  41.364  27.093   4.078
64018W        W30801  10.573  34.089  12.477
64019W        W30802  20.663  27.931  10.975
64020W        W30803  29.620  37.096   0.228
64021W        W30804  26.447   2.226  14.471
64022W        W30805   0.218  26.074  13.781
64023W        W30806  40.558  28.179   2.728
64024W        W30807   8.275  15.321   5.064
64025W        W30808  13.591   5.385   4.513
64026W        W30809  24.158  19.025   3.875
64027W        W30810   4.762  34.184   2.804
64028W        W30811  32.062  18.231  13.963
64029W        W30812  21.167   1.861   3.696
64030W        W30813  25.543  11.095  11.221
64031W        W30814  13.413  18.730   0.443
64032W        W30815  28.885   0.746   3.309
64033W        W30816  36.912  28.699  12.953
64034W        W30817  18.764  19.591   0.845
64035W        W30818  19.357  15.407   1.231
64036W        W30819   8.584  43.425   1.781
64037W        W30820  38.943  17.918  10.507
64038W        W30821   3.758  23.616   0.034
64039W        W30822  22.903  29.853   3.189
64040W        W30823  39.042   7.697  11.827
64041W        W30824   0.447  23.946   3.775
64042W        W30825  44.402   3.675   4.113
64043W        W30826   3.145   4.884   2.480
64044W        W30827   3.161   4.309  14.910
64045W        W30828  44.878  20.629   1.906
64046W        W30829  13.072  31.508   3.641
64047W        W30830  21.447  34.620   3.267
64048W        W30831   5.348   6.756   3.118
64049W        W30832  44.196   6.180   4.533
64050W        W30833  13.262  25.148   2.098
64051W        W30834  26.723   7.173   3.927
64052W        W30835  26.719   1.479  13.822
64053W        W30836   7.485  13.632   2.602
64054W        W30837  21.178  24.780   4.193
64055W        W30838  27.385  17.651   1.874
64056W        W30839   9.117  37.309  14.910
64057W        W30840  42.044  34.434   3.752
64058W        W30841  36.036  30.124  13.409
64059W        W30842  32.976  36.138  10.795
64060W        W30843  27.645   5.550   4.776
64061W        W30844  40.220  40.829   3.664
64062W        W30845  30.551  31.281   3.565
64063W        W30846  25.262   0.510  13.946
64064W        W30847  33.636  38.607   2.042
64065W        W30848   8.152  43.713   2.265
64066W        W30849  34.499  25.359  13.588
64067W        W30850  28.779   6.003   1.570
64068W        W30851  39.589  37.984  14.022
64069W        W30852  15.059  14.893   2.330
64070W        W30853  17.024  20.353  14.471
64071W        W30854  26.865  22.435  10.739
64072W        W30855  38.118  27.588   1.882
64073W        W30856  26.748  36.942   1.903
64074W        W30857   3.237  24.518  11.518
64075W        W30858  38.756  15.168   3.705
64076W        W30859  18.998  33.258   2.012
64077W        W30860  13.943  10.364  14.874
64078W        W30861  25.149  22.753  10.977
64079W        W30862   7.747  14.759   0.266
64080W        W30863  24.024   9.960  13.715
64081W        W30864  43.860  36.795  14.602
64082W        W30865   9.655   5.726   2.214
64083W        W30866   2.145  36.941   2.770
64084W        W30867   6.367  13.205   0.677
64085W        W30868  44.229  35.850   0.419
64086W        W30869  23.754  11.614  11.189
64087W        W30870  17.239  36.771   3.282
64088W        W30871  22.592  14.901   4.444
64089W        W30872   9.655  14.911  12.201
64090W        W30873  32.995   9.768  13.416
64091W        W30874  27.608  12.019   4.620
64092W        W30875  33.435  13.149  14.864
64093W        W30876  28.148  34.484   1.705
64094W        W30877  32.059  23.987  13.388
64095W        W30878   4.347  23.545   1.289
64096W        W30879  22.240   9.172  11.926
64097W        W30880   6.451  27.651  12.001
64098W        W30881  24.478  21.482   1.810
64099W        W30882   7.750  35.171  11.584
64100W        W30883  40.359  10.261  12.975
64101W        W30884  35.066   4.481   0.821
64102W        W30885   4.491   6.943   3.266
64103W        W30886  42.839   9.827   4.690
64104W        W30887  11.809  22.067  14.056
64105W        W30888  14.321  35.694   5.430
64106W        W30889  11.761  21.443   2.678
64107W        W30890  16.140  26.636   0.249
64108W        W30891   1.719   2.331   2.736
64109W        W30892   1.284  31.591  12.913
64110W        W30893  39.390  44.270   4.103
64111W        W30894  17.772  23.197   4.558
64112W        W30895  22.071  23.662   2.405
64113W        W30896  16.771   0.931   4.095
64114W        W30897  43.345  21.526  14.467
64115W        W30898  33.249   7.444   3.542
64116W        W30899  22.031  35.905   3.195
64117W        W30900   8.739  39.818   4.322
64118W        W30901  43.396   9.882  10.078
64119W        W30902  43.824  20.159   4.004
64120W        W30903  32.277  22.068  12.583
64121W        W30904  11.668  42.453  10.472
64122W        W30905  28.288   8.261   3.311
64123W        W30906  43.676  33.211  11.749
64124W        W30907  31.584  30.880   0.256
64125W        W30908  32.874  33.096  10.811
64126W        W30909  33.502   4.452  10.738
64127W        W30910  19.205  37.819  10.614
64128W        W30911  36.876  40.989  11.601
64129W        W30912   2.534  19.547   3.350
64130W        W30913  31.919  18.735  12.633
64131W        W30914  23.653  12.557   4.107
64132W        W30915  37.341  33.088   4.012
64133W        W30916  36.236  40.542   4.990
64134W        W30917  38.285  17.617  11.036
64135W        W30918   2.739  37.588   1.734
64136W        W30919  43.311   5.302  14.640
64137W        W30920  35.065   4.358   3.689
64138W        W30921   5.176  39.868   0.930
64139W        W30922  18.109  22.282   1.585
64140W        W30923  19.968  12.535   3.289
64141W        W30924  43.023  34.968   0.345
64142W        W30925  40.785   0.525   0.461
64143W        W30926  14.082  30.153   1.031
64144W        W30927   3.954  39.466  11.243
64145W        W30928   7.912  31.599   2.791
64146W        W30929  13.225  34.381  12.827
64147W        W30930  10.714   1.241  13.323
64148W        W30931  10.324  22.437  11.224
64149W        W30932   0.294  29.511  14.961
64150W        W30933   8.902  39.543  13.577
64151W        W30934  14.692   2.261   0.315
64152W        W30935   1.475  18.325  14.001
64153W        W30936  10.328  15.426   1.226
64154W        W30937  10.638  15.419   1.949
64155W        W30938  13.731  20.814  12.838
64156W        W30939   4.684  41.094   2.218
64157W        W30940  27.136  43.640  11.528
64158W        W30941  37.195   1.990   1.514
64159W        W30942  40.844  31.846   4.757
64160W        W30943  37.583  39.861  14.772
64161W        W30944  17.070  10.396  13.545
64162W        W30945  38.190  19.691  12.928
64163W        W30946  35.054  18.619  10.634
64164W        W30947   4.348  43.473   1.163
64165W        W30948   0.399  22.678  14.803
64166W        W30949  37.937   5.076  11.770
64167W        W30950   2.103  30.405  13.071
64168W        W30951  15.909  20.814  10.189
64169W        W30952  42.428  23.423  10.988
64170W        W30953  13.541  26.466  10.562
64171W        W30954  25.502   9.714   4.150
64172W        W30955  34.627   4.190   0.764
64173W        W30956   1.074   3.785   1.885
64174W        W30957   4.901  43.055   0.875
64175W        W30958  28.249  22.733  12.534
64176W        W30959  10.303   9.545   1.467
64177W        W30960  42.939   6.891  13.470
64178W        W30961  13.756  20.029   4.616
64179W        W30962  19.583  43.635  11.927
64180W        W30963  12.640   5.891  10.712
64181W        W30964  37.988   7.860   1.984
64182W        W30965  18.070  22.701   1.890
64183W        W30966  31.017  22.925   3.028
64184W        W30967  34.132   0.456  12.142
64185W        W30968  27.610   5.161  14.360
64186W        W30969  27.559  23.135   4.365
64187W        W30970  38.056  37.908   2.707
64188W        W30971  31.428  20.289  13.438
64189W        W30972   2.846  29.674   4.135
64190W        W30973  23.564  31.699   3.343
64191W        W30974   1.885  24.242   3.221
64192W        W30975  11.973  41.097   2.235
64193W        W30976   4.098  10.667  12.451
64194W        W30977  15.986  34.577   2.765
64195W        W30978  29.437  15.936   5.276
64196W        W30979  36.335   5.248  11.163
64197W        W30980   2.981   1.508  13.694
64198W        W30981  38.332   5.352  10.721
64199W        W30982   3.003  20.510   3.263
64200W        W30983  43.455  16.910  11.411
64201W        W30984  37.173  35.718   1.346
64202W        W30985  25.609  32.516  12.136
64203W        W30986  16.749  12.086   2.189
64204W        W30987  41.307  27.024   5.114
64205W        W30988  32.443   0.185  12.565
64206W        W30989  21.635  38.225  14.985
64207W        W30990  42.651  13.492  13.260
64208W        W30991  20.547  39.799  10.565
64209W        W30992   8.806  23.527   4.471
64210W        W30993  10.789  37.529  13.559
64211W        W30994  28.560   2.457   4.228
64212W        W30995  43.875   0.887  14.026
64213W        W30996  10.371  37.920   3.634
64214W        W30997  32.234  26.568   4.186
64215W        W30998  37.019   7.457  14.740
64216W        W30999  15.266  21.613   4.752
64217W        W31000   0.705  15.180   5.124
64218W        W31001   3.323  38.737   2.330
64219W        W31002  43.798   2.359  10.625
64220W        W31003  19.874  33.953   1.393
64221W        W31004  21.040  29.131   1.351
64222W        W31005  12.074  28.583  13.915
64223W        W31006  15.850  12.306  13.865
64224W        W31007   9.639  18.994  12.419
64225W        W31008  24.773  28.264   4.483
64226W        W31009  41.275   5.986   1.792
64227W        W31010  32.956   8.271   2.327
64228W        W31011  40.790   7.876  11.984
64229W        W31012  36.555  10.264  11.453
64230W        W31013  15.814   6.972  14.105
64231W        W31014  28.953  14.470  12.778
64232W        W31015  27.951   4.878   0.981
64233W        W31016  43.233  23.066  11.166
64234W        W31017  11.373   4.365  13.886
64235W        W31018   4.453  17.571   4.883
64236W        W31019  22.524  43.376  14.393
64237W        W31020  10.212  21.157   1.259
64238W        W31021  20.595  37.938  11.766
64239W        W31022  20.332  42.480   3.026
64240W        W31023  31.665  15.539  10.656
64241W        W31024  16.880  19.428   3.996
64242W        W31025  32.587  21.859   0.724
64243W        W31026  12.002  18.660  12.145
64244W        W31027  43.017  25.360   5.178
64245W        W31028  44.950  25.334  14.993
64246W        W31029  42.698   8.848   3.722
64247W        W31030   8.969  22.115   1.692
64248W        W31031   7.181  23.238   0.806
64249W        W31032  39.321   8.375   4.537
64250W        W31033  21.518   3.652   3.650
64251W        W31034  14.583  10.883  12.006
64252W        W31035   3.892   2.323   0.945
64253W        W31036   2.242  16.287   2.878
64254W        W31037  14.730  34.096  12.753
64255W        W31038  35.825  33.733  14.536
64256W        W31039  29.998  32.947   0.516
64257W        W31040  27.522  30.074  14.503
64258W        W31041  20.562   8.907   1.412
64259W        W31042  33.432  29.409   1.201
64260W        W31043  42.472  32.172   4.179
64261W        W31044  42.393   8.513   0.473
64262W        W31045  27.513  10.727  12.689
64263W        W31046  44.073  24.089  14.695
64264W        W31047   7.403  17.763   0.923
64265W        W31048  24.655  11.645  11.348
64266W        W31049   4.901  38.369   2.696
64267W        W31050  13.403  18.803   9.745
64268W        W31051   3.035   6.663   0.292
64269W        W31052  33.486  30.078   0.050
64270W        W31053   3.617  10.455  12.176
64271W        W31054  13.301  11.340  14.741
64272W        W31055  44.353  25.973  13.706
64273W        W31056   0.859  36.159  11.199
64274W        W31057  15.865  30.227  13.944
64275W        W31058   7.150  18.776  13.550
64276W        W31059  20.055   3.729   3.099
64277W        W31060  21.539  36.490  10.732
64278W        W31061  18.562  10.752  14.753
64279W        W31062  34.062  32.731  12.403
64280W        W31063   5.903  28.148   2.989
64281W        W31064   7.525   7.179  12.556
64282W        W31065  38.913  41.339   3.195
64283W        W31066   3.052   9.540   1.763
64284W        W31067   9.235  19.620   4.178
64285W        W31068  36.347  35.028   4.401
64286W        W31069  26.669  24.288   1.831
64287W        W31070  33.554  18.944   5.135
64288W        W31071  37.892  42.054  12.487
64289W        W31072  26.686   4.304   1.266
64290W        W31073  32.318  43.788  13.405
64291W        W31074   3.327  30.827  11.707
64292W        W31075  42.728  43.751   4.742
64293W        W31076  28.959   5.344  12.893
64294W        W31077  28.498   5.179   1.311
64295W        W31078  18.171  26.349   2.460
64296W        W31079  11.066  31.954  14.259
64297W        W31080  25.466  32.688   2.240
64298W        W31081  34.903  29.650   4.148
64299W        W31082  11.625  31.085   0.816
64300W        W31083   1.387  24.291   4.460
64301W        W31084  17.318   6.361  10.699
64302W        W31085  43.925  33.109   1.789
64303W        W31086  22.923  11.395  11.649
64304W        W31087  23.332   1.384   0.345
64305W        W31088   6.367  36.564   0.892
64306W        W31089  40.517  19.593  13.907
64307W        W31090  26.798  42.045  11.078
64308W        W31091  30.137  32.227  14.359
64309W        W31092  40.010  17.261   3.591
64310W        W31093  20.053  14.033   4.964
64311W        W31094  34.480  34.637  12.408
64312W        W31095  39.476   9.879   1.457
64313W        W31096  37.461   1.638   4.802
64314W        W31097  13.106  43.821   0.056
64315W        W31098  26.960  31.871  13.792
64316W        W31099  31.845  20.766  14.838
64317W        W31100  38.746  41.467   1.537
64318W        W31101   3.961  13.079  14.255
64319W        W31102  31.583  34.464  12.217
64320W        W31103  16.095   6.485   0.310
64321W        W31104  25.709  14.112   3.181
64322W        W31105  26.870  25.156  12.502
64323W        W31106  11.830  39.256   0.371
64324W        W31107  37.556  29.653  11.244
64325W        W31108  14.794  23.000  12.936
64326W        W31109  18.656  37.582  14.107
64327W        W31110  19.210  28.965   2.268
64328W        W31111   7.385  23.302   0.321
64329W        W31112   0.200  18.438   0.238
64330W        W31113  18.663  19.671  11.945
64331W        W31114  18.108  22.754  13.775
64332W        W31115  41.420  37.400  11.860
64333W        W31116  41.003  18.055   2.944
64334W        W31117   1.684  14.855  11.596
64335W        W31118  41.464  37.492   0.715
64336W        W31119   9.391  19.111  13.248
64337W        W31120   8.288  33.375   2.556
64338W        W31121  36.567  38.118  10.696
64339W        W31122  36.961  44.788  14.444
64340W        W31123  22.816  17.842   4.332
64341W        W31124  42.596  30.367   4.373
64342W        W31125  36.621  25.100  13.846
64343W        W31126  34.067  29.966   2.841
64344W        W31127  12.557  27.081   1.466
64345W        W31128  20.245  14.766  11.601
64346W        W31129  31.915  41.842   4.315
64347W        W31130  13.683  40.173   4.933
64348W        W31131  44.971   4.283  12.510
64349W        W31132  22.188   4.494   3.011
64350W        W31133  22.767  19.671   2.840
64351W        W31134  25.168  43.373   0.762
64352W        W31135  21.050  39.018  13.462
64353W        W31136  44.230   8.028   2.188
64354W        W31137   7.685  13.177  14.820
64355W        W31138  18.595  18.824   2.718
64356W        W31139  42.302  41.487   1.279
64357W        W31140   2.451  39.569  13.908
64358W        W31141  26.031   2.714  13.978
64359W        W31142   8.352  24.280  11.118
64360W        W31143   7.508   0.148  13.016
64361W        W31144   6.312  16.767   2.567
64362W        W31145  16.528  13.632   4.562
64363W        W31146  27.648  40.397  14.431
64364W        W31147  19.209  41.509  10.999
64365W        W31148   9.644  10.268   3.696
64366W        W31149  35.507   2.473  11.689
64367W        W31150  11.855  30.583  14.500
64368W        W31151   4.379  17.948   0.637
64369W        W31152   1.913  31.665   2.156
64370W        W31153  37.995  12.716  10.674
64371W        W31154  18.580   5.434  13.277
64372W        W31155  13.129  37.302  13.131
64373W        W31156   0.294  18.935   1.434
64374W        W31157  28.269   3.463  13.956
64375W        W31158   0.810  14.210  12.517
64376W        W31159  39.850  26.073   0.666
64377W        W31160  18.914  25.620   1.349
64378W        W31161  34.997  20.079  14.543
64379W        W31162  13.850  40.297  13.935
64380W        W31163  11.124  33.789   4.072
64381W        W31164  10.259  42.361   2.375
64382W        W31165  29.177  31.581   1.370
64383W        W31166  31.449  29.376  13.764
64384W        W31167  36.832  13.631   4.266
64385W        W31168  21.736  28.480   3.706
64386W        W31169  24.330  14.960   1.917
64387W        W31170  40.283   0.298   2.722
64388W        W31171  43.999  28.843  11.136
64389W        W31172  28.665  20.123  11.872
64390W        W31173  33.240  30.209  12.010
64391W        W31174  17.763   5.563   0.951
64392W        W31175  40.907  12.352  12.455
64393W        W31176  12.168  10.420   3.773
64394W        W31177  35.763   2.258  12.084
64395W        W31178   6.078  44.273   4.663
64396W        W31179   8.720   9.255   3.047
64397W        W31180  37.291  44.927  14.039
64398W        W31181  29.941  31.358  11.645
64399W        W31182  38.366  38.521  14.254
64400W        W31183  27.164  21.691  10.710
64401W        W31184  29.486  43.480  13.492
64402W        W31185  13.096  36.093  12.594
64403W        W31186  37.667  24.853   5.074
64404W        W31187  21.018  30.431   0.815
64405W        W31188  34.329   0.004  14.853
64406W        W31189  34.413  32.797   0.549
64407W        W31190   9.932  31.594  11.553
64408W        W31191  21.539  15.686  13.343
64409W        W31192  43.695  20.246   2.213
64410W        W31193   3.620  43.239   4.549
64411W        W31194   2.854  22.183   4.070
64412W        W31195  35.441  24.686  12.388
64413W        W31196  21.147  43.477  14.428
64414W        W31197  44.689  17.775   0.868
64415W        W31198  18.280   9.708  13.788
64416W        W31199  21.245  42.835  13.199
64417W        W31200  30.077  21.259  10.089
64418W        W31201  27.988  44.165   1.011
64419W        W31202  11.220  26.256  13.736
64420W        W31203  39.297  42.666   3.212
64421W        W31204   7.243  36.436  10.694
64422W        W31205  11.828  13.671  11.477
64423W        W31206   6.871  36.805  10.671
64424W        W31207   2.050  25.648   2.491
64425W        W31208  43.939  12.167  13.151
64426W        W31209   4.840  26.445   0.357
64427W        W31210   7.679   3.822   4.471
64428W        W31211   3.272  22.721   4.523
64429W        W31212   1.008  37.686  10.144
64430W        W31213  11.152  13.223  10.827
64431W        W31214   6.031  41.396  12.886
64432W        W31215  33.111  11.644  12.005
64433W        W31216  13.349   8.336   2.759
64434W        W31217  38.717   1.426  13.533
64435W        W31218   9.800  11.678  12.075
64436W        W31219   6.000  18.517  12.998
64437W        W31220  26.579   2.338  12.197
64438W        W31221  25.914  10.849   3.625
64439W        W31222  24.522  20.260   0.456
64440W        W31223   2.860  12.665  12.074
64441W        W31224   4.905  43.779  13.561
64442W        W31225  29.107   3.108  11.631
64443W        W31226  43.529  40.415  14.874
64444W        W31227  19.911  16.034  14.497
64445W        W31228   5.812   5.923   4.346
64446W        W31229   6.673  11.426  10.786
64447W        W31230  23.098   7.203   0.939
64448W        W31231  44.008  16.247  14.014
64449W        W31232  24.043  37.179  10.715
64450W        W31233  17.181  28.720   0.812
64451W        W31234   7.744  20.809   2.347
64452W        W31235  22.655  17.343  10.515
64453W        W31236  36.950  28.609   2.710
64454W        W31237  21.263   3.445  12.771
64455W        W31238  14.264  15.258   2.824
64456W        W31239  12.837  32.940   0.927
64457W        W31240   3.855   7.314   1.782
64458W        W31241  31.658  40.228   0.071
64459W        W31242  29.070  18.275  11.144
64460W        W31243  14.730   2.299  14.374
64461W        W31244  44.268  34.491  12.756
64462W        W31245  27.576  23.810   3.714
64463W        W31246  20.326  33.253  12.964
64464W        W31247  31.622   1.226  10.907
64465W        W31248  43.044   4.961   0.784
64466W        W31249   2.862   1.406  14.867
64467W        W31250  29.645   3.400  14.574
64468W        W31251  38.847  31.580   4.774
64469W        W31252  22.340   4.058  13.433
64470W        W31253  27.424   4.931   0.835
64471W        W31254   6.788  17.945  10.475
64472W        W31255   7.261  24.521  14.207
64473W        W31256   6.474  26.067  12.255
64474W        W31257  18.142  14.671   2.148
64475W        W31258  18.585  13.005  11.460
64476W        W31259  24.965   2.711   0.372
64477W        W31260   4.395  22.339  14.831
64478W        W31261   1.432  26.038  11.911
64479W        W31262  29.520  39.464   3.190
64480W        W31263  26.480   7.015  12.547
64481W        W31264  42.594  42.072   2.499
64482W        W31265  33.604  31.916  13.950
64483W        W31266  38.508  21.543   4.972
64484W        W31267  27.391  43.327  12.303
64485W        W31268  23.745  41.479   2.131
64486W        W31269  31.376  15.576   0.820
64487W        W31270  19.201  39.572   4.530
64488W        W31271  11.975  17.971  12.556
64489W        W31272   1.782  12.276  12.133
64490W        W31273   5.864   7.394   0.818
64491W        W31274   3.951  42.323  11.413
64492W        W31275  23.939  11.803   4.181
64493W        W31276  19.808  44.434  13.911
64494W        W31277  34.261  31.102  11.543
64495W        W31278   4.340   5.977  11.661
64496W        W31279  28.629  29.541   3.635
64497W        W31280  35.625   9.307  13.830
64498W        W31281  32.865  29.264  14.925
64499W        W31282   1.109   0.814   2.672
64500W        W31283   7.782   2.635   1.773
64501W        W31284  23.584   7.475  12.366
64502W        W31285  40.732  37.458   3.257
64503W        W31286  31.335  15.679   9.875
64504W        W31287  13.661  32.619  10.501
64505W        W31288  35.493  42.820  11.487
64506W        W31289  11.957  11.583   2.710
64507W        W31290  14.549   3.197  10.735
64508W        W31291  15.288  42.724  13.119
64509W        W31292  18.556  18.739  11.476
64510W        W31293  24.581  36.603  14.307
64511W        W31294  41.843  11.642  10.717
64512W        W31295  42.285   2.572  14.454
64513W        W31296  20.669  17.388  11.220
64514W        W31297  35.353   1.872  14.764
64515W        W31298  22.130  25.487  13.654
64516W        W31299  33.098  31.412   0.482
64517W        W31300   6.097  19.704  12.076
64518W        W31301   8.004  40.024  14.568
64519W        W31302  25.073  10.604  11.463
64520W        W31303  17.829  36.614  11.553
64521W        W31304  29.644  43.930   4.521
64522W        W31305  16.612  16.057   0.845
64523W        W31306  26.667   4.000  13.952
64524W        W31307  23.116  28.674   1.379
64525W        W31308  39.392  17.259   1.773
64526W        W31309  41.992  29.002   2.307
64527W        W31310   9.851   5.780   3.040
64528W        W31311  28.937  29.675   0.401
64529W        W31312  14.050  26.721   1.826
64530W        W31313  16.606  34.361  12.442
64531W        W31314  28.014  11.250   3.034
64532W        W31315  36.351  15.027   1.611
64533W        W31316  14.223   3.779  13.349
64534W        W31317  14.756  39.021   5.034
64535W        W31318  43.951  13.972   2.273
64536W        W31319  36.877  32.804  11.113
64537W        W31320   8.407  40.418   2.310
64538W        W31321  17.753   2.719   4.608
64539W        W31322  26.941  11.566  10.275
64540W        W31323   4.246   0.834   0.811
64541W        W31324   5.564  34.051   3.240
64542W        W31325  15.755   8.918  12.018
64543W        W31326  30.575  38.440   4.079
64544W        W31327  32.954  44.157   2.810
64545W        W31328  11.726  19.592   2.860
64546W        W31329  40.135   7.403  13.166
64547W        W31330  28.424  15.217   0.364
64548W        W31331   3.007  15.658   4.045
64549W        W31332   3.295   9.209  13.299
64550W        W31333  18.643   3.048   0.697
64551W        W31334   9.629  26.257   3.777
64552W        W31335  35.023  20.525  14.282
64553W        W31336   1.009  23.646  13.026
64554W        W31337   0.513  41.421  11.270
64555W        W31338  35.940  15.147  14.862
64556W        W31339   4.991  20.770   0.505
64557W        W31340  30.182  37.567  13.799
64558W        W31341  25.849  19.569   2.641
64559W        W31342  14.767   9.072   2.717
64560W        W31343  29.969   2.338   3.751
64561W        W31344  11.751   4.702  14.658
64562W        W31345  14.770  35.185   2.229
64563W        W31346  21.202  13.791  13.974
64564W        W31347   5.378  34.721   2.231
64565W        W31348  19.685  26.875  14.943
64566W        W31349  24.282  16.781   1.790
64567W        W31350  20.031  30.994   3.687
64568W        W31351  31.624  23.885   1.905
64569W        W31352  31.099  24.229  13.908
64570W        W31353  28.948  17.594   1.219
64571W        W31354  30.623   7.199   0.489
64572W        W31355  33.543   1.367   3.305
64573W        W31356  43.450  40.363   3.920
64574W        W31357  22.604   1.711   2.358
64575W        W31358  24.163  19.158  14.008
64576W        W31359  32.739  11.610   4.540
64577W        W31360   7.161  14.341   4.364
64578W        W31361   1.988  39.726  14.122
64579W        W31362  34.711   2.935  11.569
64580W        W31363  25.830  22.032   1.328
64581W        W31364  18.244  29.677   2.354
64582W        W31365  17.496   3.715  11.969
64583W        W31366  43.651  39.258  12.857
64584W        W31367  10.652  40.150  13.512
64585W        W31368  40.745  30.121  13.176
64586W        W31369  15.310  28.521  10.725
64587W        W31370  29.734  20.168  11.691
64588W        W31371  33.654  18.472  14.431
64589W        W31372  26.708  39.172   0.710
64590W        W31373  30.746  44.441  11.781
64591W        W31374   8.103  13.868  14.730
64592W        W31375  13.115  32.013   3.716
64593W        W31376   9.163  35.996  14.376
64594W        W31377  29.641  16.454  11.997
64595W        W31378  33.317   5.509  12.720
64596W        W31379  25.608  35.617  13.512
64597W        W31380  33.048  31.159   4.726
64598W        W31381  26.954   1.089   4.286
64599W        W31382  26.031  22.916   1.247
64600W        W31383  30.573  15.154   3.104
64601W        W31384   3.492  30.391   2.797
64602W        W31385  25.781   2.805   2.208
64603W        W31386  16.669  22.283   1.293
64604W        W31387  18.169  44.279   2.172
64605W        W31388   1.389  37.877   0.826
64606W        W31389  42.803  38.376  14.025
64607W        W31390   7.259   7.653   4.891
64608W        W31391  15.537   0.978  11.204
64609W        W31392  14.191  30.817  10.561
64610W        W31393   2.672  24.741  14.659
64611W        W31394  39.906   2.413   4.640
64612W        W31395  19.043   9.310   1.128
64613W        W31396  20.502  26.975   2.119
64614W        W31397  35.802   4.447  11.395
64615W        W31398   4.441  18.032  10.806
64616W        W31399  26.952  44.399   5.205
64617W        W31400   4.818  18.565   2.417
64618W        W31401   7.381  26.523  14.400
64619W        W31402  32.106  11.213   1.791
64620W        W31403   0.722  31.589  11.061
64621W        W31404  18.608  24.223   1.348
64622W        W31405  20.215  41.149  10.340
64623W        W31406  39.294  15.382  11.630
64624W        W31407  16.993   7.533   0.428
64625W        W31408  36.405  29.546   4.586
64626W        W31409  11.407  28.022   0.915
64627W        W31410   0.044   9.339  11.803
64628W        W31411   9.824  40.273  12.841
64629W        W31412  11.418  14.719  12.808
64630W        W31413  43.442  33.208   4.402
64631W        W31414  32.403  11.033  11.544
64632W        W31415  35.195  37.165  14.404
64633W        W31416  21.181   7.352   4.349
64634W        W31417  13.590  37.558   1.609
64635W        W31418  38.006  31.406  10.603
64636W        W31419  18.524   0.718   0.309
64637W        W31420  38.611  41.794   0.055
64638W        W31421   5.402  30.231   4.144
64639W        W31422  12.211  26.520   3.582
64640W        W31423  20.503   5.769  10.547
64641W        W31424  38.810   8.149   4.183
64642W        W31425   0.394  14.101  12.798
64643W        W31426  22.602  16.913   2.406
64644W        W31427  25.928  28.188  11.556
64645W        W31428  12.786  29.039   2.211
64646W        W31429  12.153  22.603  12.299
64647W        W31430  33.879  27.923   2.154
64648W        W31431  25.232  21.200  11.288
64649W        W31432   0.289  26.138  14.458
64650W        W31433  13.197  42.932  14.328
64651W        W31434  35.779  15.297   1.175
64652W        W31435  15.277   1.142   0.660
64653W        W31436  30.116  24.666  10.668
64654W        W31437  12.734  30.322  14.392
64655W        W31438  16.518  25.861   1.846
64656W        W31439   8.932  36.078   4.775
64657W        W31440   3.211  14.181   3.162
64658W        W31441  26.586   6.799   4.718
64659W        W31442  36.938  32.326  14.036
64660W        W31443  20.145  11.525   3.382
64661W        W31444  26.603  25.736   1.243
64662W        W31445   7.873  32.835   1.388
64663W        W31446  32.271  17.098  11.994
64664W        W31447  40.851  24.966   0.044
64665W        W31448  27.074  44.918  12.209
64666W        W31449  42.485  33.856  13.893
64667W        W31450  22.658  10.996  11.962
64668W        W31451  17.536  13.374   1.001
64669W        W31452  41.901  13.618   3.105
64670W        W31453  44.117   4.403  10.640
64671W        W31454  14.363  23.546  12.397
64672W        W31455   1.856  30.124  12.674
64673W        W31456  42.516  24.071   0.999
64674W        W31457  18.655  21.670  14.133
64675W        W31458  32.573  18.427   0.307
64676W        W31459  22.734  36.890   3.292
64677W        W31460  10.804   8.824   2.116
64678W        W31461  33.976  25.476  13.389
64679W        W31462  20.275   9.934  11.187
64680W        W31463  26.510  11.689  11.022
64681W        W31464  36.553  30.680  13.016
64682W        W31465   1.845  39.722   1.967
64683W        W31466  20.834   3.901   4.992
64684W        W31467  21.082  39.177  12.939
64685W        W31468  30.536  35.510   4.379
64686W        W31469  20.038  38.358   1.524
64687W        W31470  29.458  20.050  13.856
64688W        W31471  42.499  35.918  12.933
64689W        W31472  30.023  14.345  10.678
64690W        W31473  11.710  24.734  10.176
64691W        W31474  25.486   8.597   1.273
64692W        W31475  18.747  16.237   3.578
64693W        W31476  28.939  25.555   1.239
64694W        W31477  42.844  40.321   0.378
64695W        W31478  13.820   2.832  11.225
64696W        W31479   2.677  25.730   3.377
64697W        W31480  17.348  41.566   2.416
64698W        W31481   7.460  13.072  12.707
64699W        W31482  38.115  18.865   4.207
64700W        W31483  25.188  17.350  14.209
64701W        W31484  27.545  26.194   1.352
64702W        W31485  30.925  21.034   0.844
64703W        W31486   8.237   4.615   3.723
64704W        W31487  29.691  36.496  14.801
64705W        W31488  37.133   7.780  11.493
64706W        W31489   2.318  21.599  12.506
64707W        W31490  20.525   3.636   0.018
64708W        W31491  37.551  25.202   3.218
64709W        W31492  26.122  16.580   4.083
64710W        W31493  29.869  41.004   2.261
64711W        W31494  33.912  34.815   2.163
64712W        W31495   8.955   5.977   1.733
64713W        W31496  17.885  10.410  11.641
64714W        W31497  37.378  39.830   0.269
64715W        W31498   8.960  18.224   1.434
64716W        W31499   9.753  36.876  10.686
64717W        W31500  43.891  27.196   4.594
64718W        W31501  28.152  23.412  13.094
64719W        W31502  18.696  16.038  14.807
64720W        W31503   6.746  16.581   4.157
64721W        W31504  39.130  19.793  14.291
64722W        W31505  30.799  11.371  12.977
64723W        W31506  31.823  33.939  14.980
64724W        W31507   2.306  22.255  10.721
64725W        W31508  21.584  14.923  11.059
64726W        W31509  13.976   1.370  11.493
64727W        W31510  18.803  24.754  14.857
64728W        W31511  26.097  41.632   4.079
64729W        W31512   2.195  44.600   2.165
64730W        W31513  19.569   0.667  14.351
64731W        W31514  29.029  29.558  10.809
64732W        W31515  27.892  43.799   1.381
64733W        W31516  13.934   9.753  12.147
64734W        W31517  40.388   7.281   1.523
64735W        W31518   3.600   0.834   1.733
64736W        W31519  11.344   1.783  13.871
64737W        W31520  22.973   1.431  13.537
64738W        W31521  28.510  15.292   2.286
64739W        W31522  37.664  34.521  10.607
64740W        W31523  35.326   9.933  11.532
64741W        W31524  25.693  42.449   2.087
64742W        W31525  19.061  33.005   4.573
64743W        W31526  14.370  31.118   2.632
64744W        W31527  14.650  36.633  14.029
64745W        W31528  34.417  27.683   1.758
64746W        W31529  38.021  10.773   4.109
64747W        W31530   5.926   7.119  12.993
64748W        W31531   7.228  17.634   0.445
64749W        W31532  28.136   8.659   0.360
64750W        W31533  26.077  44.501   2.288
64751W        W31534   1.772  32.511  10.554
64752W        W31535   0.515   3.545  14.417
64753W        W31536  40.881  29.924   4.607
64754W        W31537  15.378  11.132  11.700
64755W        W31538   6.232  41.408   0.407
64756W        W31539  27.191   6.158   3.880
64757W        W31540  30.411  16.213   3.792
64758W        W31541   6.899  13.605  13.891
64759W        W31542  22.020  14.541  11.908
64760W        W31543  41.722   9.392  12.105
64761W        W31544  38.248  33.931   3.722
64762W        W31545  20.226   4.716   3.194
64763W        W31546  13.639   6.071   2.823
64764W        W31547  35.030  13.202   0.709
64765W        W31548   7.163  25.019  12.965
64766W        W31549  39.125  38.922   1.341
64767W        W31550  31.530  29.116  12.994
64768W        W31551  11.797  27.539   4.134
64769W        W31552  18.784  18.574   3.133
64770W        W31553  18.659  37.035   3.339
64771W        W31554  30.086  10.116   0.744
64772W        W31555  10.209  28.074  10.819
64773W        W31556  27.184  28.110  10.704
64774W        W31557  14.623  42.839   2.095
64775W        W31558  36.072   0.151  12.405
64776W        W31559   1.726   9.605   2.070
64777W        W31560   4.450  23.842  13.716
64778W        W31561  41.180   9.841  12.376
64779W        W31562  28.509  19.173   0.283
64780W        W31563  12.442  33.586   0.391
64781W        W31564  34.399  23.854   4.248
64782W        W31565   2.336  18.374   1.307
64783W        W31566  22.611  42.850  11.621
64784W        W31567  37.825   0.947  11.610
64785W        W31568  32.999   5.097  13.560
64786W        W31569  27.641  41.848   4.490
64787W        W31570  43.933   7.401   3.871
64788W        W31571  24.112  38.580   3.289
64789W        W31572  41.994  38.855  12.052
64790W        W31573  23.592  13.755  12.960
64791W        W31574  25.515   0.701  12.977
64792W        W31575   0.403   1.246  12.981
64793W        W31576  40.443  21.936  11.162
64794W        W31577  32.177  36.750  12.966
64795W        W31578  38.859  25.020   1.368
64796W        W31579  11.160  38.093  10.605
64797W        W31580  22.089   1.942  14.144
64798W        W31581  28.991   2.659   1.870
64799W        W31582  36.782  10.788  10.477
64800W        W31583  18.045   0.274  14.538
64801W        W31584  40.866  17.137  13.927
64802W        W31585   0.483   7.387   4.140
64803W        W31586  21.571  31.935  12.072
64804W        W31587  35.469  27.679  12.892
64805W        W31588   4.851   3.463  10.305
64806W        W31589  33.823  23.104   4.565
64807W        W31590  25.563   8.100   1.368
64808W        W31591  13.350  44.829  10.631
64809W        W31592  26.935  42.494   2.386
64810W        W31593   2.567  19.079   2.691
64811W        W31594  26.480  35.473  13.027
64812W        W31595  29.991   9.522  13.438
64813W        W31596  42.886  15.086  11.362
64814W        W31597   4.429  39.747   1.736
64815W        W31598  26.876  24.089  11.626
64816W        W31599   6.848  10.555  14.047
64817W        W31600  26.708  16.275   1.279
64818W        W31601  41.581   8.807   0.020
64819W        W31602  17.090  41.488  14.762
64820W        W31603   4.821  32.654   2.874
64821W        W31604  39.916   0.251  10.400
64822W        W31605  24.578  35.106  14.962
64823W        W31606  10.928  17.328  14.477
64824W        W31607  19.535   8.504   2.158
64825W        W31608   2.812  29.629   0.470
64826W        W31609  26.587   6.761   1.749
64827W        W31610  32.199  35.276   2.622
64828W        W31611  16.851  27.181   4.359
64829W        W31612  10.183  11.208   0.208
64830W        W31613  19.209   7.958   1.373
64831W        W31614  34.441  18.142  12.384
64832W        W31615  22.525  21.749   4.335
64833W        W31616  20.746  15.703   4.745
64834W        W31617  43.420  27.602  13.758
64835W        W31618  39.319  20.021   0.241
64836W        W31619  21.591  43.826   3.380
64837W        W31620  25.668  36.884   2.211
64838W        W31621  13.768   7.702  14.048
64839W        W31622  37.871  23.462   3.523
64840W        W31623  31.196  19.597   2.291
64841W        W31624  37.676  38.933  13.069
64842W        W31625  41.639  32.084  13.627
64843W        W31626  17.763   2.601  14.528
64844W        W31627  12.611  41.015   4.571
64845W        W31628   1.884  40.243  14.206
64846W        W31629  24.736  14.795  13.960
64847W        W31630  27.565  33.291   3.733
64848W        W31631  13.011  16.826  13.337
64849W        W31632  20.137  30.363   1.046
64850W        W31633  34.314   0.472   3.328
64851W        W31634   4.228  40.769  14.957
64852W        W31635   5.827   0.231  10.697
64853W        W31636   7.787   8.680   2.886
64854W        W31637  35.974  17.089  12.375
64855W        W31638  29.937  30.957   4.111
64856W        W31639  17.420  21.285   1.268
64857W        W31640  35.475  15.101  13.617
64858W        W31641   8.274   2.491  13.825
64859W        W31642  20.133  31.961   2.340
64860W        W31643  15.235  25.465   3.186
64861W        W31644  26.498  25.897   2.296
64862W        W31645  33.148  22.807  14.023
64863W        W31646  15.540  27.481  11.977
64864W        W31647  14.306  14.716   3.661
64865W        W31648   3.011  16.703  11.688
64866W        W31649  40.522  39.931   0.855
64867W        W31650  27.585  11.360   3.694
64868W        W31651  13.085   6.827   0.070
64869W        W31652   0.412  34.634  11.937
64870W        W31653   1.631  16.156  13.051
64871W        W31654  14.732   7.254   2.941
64872W        W31655  32.567  35.092   1.284
64873W        W31656  18.147   8.918   3.644
64874W        W31657  34.833  44.499  10.782
64875W        W31658   4.474   6.921  13.943
64876W        W31659  44.637   6.376   1.753
64877W        W31660  23.624  22.471   4.303
64878W        W31661  40.558  43.496  13.652
64879W        W31662   4.372   7.978  11.554
64880W        W31663  19.201  22.407  12.383
64881W        W31664   2.631  22.259   0.917
64882W        W31665  27.143  38.451  12.027
64883W        W31666  22.560  27.251  13.092
64884W        W31667  34.893   6.315   3.383
64885W        W31668  19.275  24.006   0.935
64886W        W31669  10.350  23.290   0.385
64887W        W31670  34.531  35.953  14.435
64888W        W31671  25.987  42.264  11.660
64889W        W31672  16.176  31.141   2.888
64890W        W31673  27.239   0.757  14.583
64891W        W31674  20.576  41.326  10.676
64892W        W31675  25.047  22.490   0.399
64893W        W31676   9.228  17.193   1.992
64894W        W31677  32.981  40.454   1.590
64895W        W31678  40.233  34.339  12.814
64896W        W31679  43.488  12.086  11.655
64897W        W31680  25.480  25.208  12.402
64898W        W31681  28.204  18.237   2.767
64899W        W31682   1.375  30.453   0.178
64900W        W31683  17.630  44.123   2.303
64901W        W31684   6.842   1.708   1.864
64902W        W31685  18.557  10.202   0.463
64903W        W31686  43.285  25.014  11.552
64904W        W31687  12.680   3.480   4.286
64905W        W31688  29.000   9.652  10.591
64906W        W31689   8.172   9.305   3.922
64907W        W31690  35.132  32.499   1.229
64908W        W31691  28.103  11.937   0.804
64909W        W31692  26.123   3.264   4.622
64910W        W31693   8.716  44.963  14.805
64911W        W31694  31.523   4.977  10.476
64912W        W31695  13.355  42.463  12.041
64913W        W31696  23.785  17.603  13.236
64914W        W31697  17.916  11.273   0.043
64915W        W31698   8.616   8.127   2.649
64916W        W31699   2.316  10.613   2.375
64917W        W31700  18.219  32.616  14.385
64918W        W31701  17.270  44.472   2.236
64919W        W31702  32.151  31.776   3.108
64920W        W31703  40.313   6.378  10.990
64921W        W31704  25.197   3.551  11.640
64922W        W31705   2.942  29.204   2.908
64923W        W31706  25.468   7.391   0.440
64924W        W31707   8.891  32.445   0.791
64925W        W31708  34.823  39.777   1.725
64926W        W31709  16.808  17.312   3.554
64927W        W31710   7.180  37.267  11.172
64928W        W31711  35.610  16.256  13.865
64929W        W31712  17.382  21.195  11.531
64930W        W31713  37.848  22.369  10.170
64931W        W31714  31.617  38.018  12.375
64932W        W31715  10.273  12.781  13.346
64933W        W31716  17.561  33.906   3.262
64934W        W31717   2.655  28.454  12.401
64935W        W31718  22.619  30.200  14.837
64936W        W31719   6.881  43.967   1.346
64937W        W31720  20.355   2.401   2.605
64938W        W31721   7.380   9.277  14.820
64939W        W31722   1.491  33.049   3.294
64940W        W31723  26.825  18.415   2.808
64941W        W31724  44.251  13.091  12.831
64942W        W31725  28.402  20.548   4.140
64943W        W31726  43.994   1.550  14.436
64944W        W31727   6.966   2.924   1.161
64945W        W31728  20.256   3.819   0.884
64946W        W31729  44.735   9.975  14.846
64947W        W31730  14.291  22.181   1.452
64948W        W31731  11.660  30.607   0.976
64949W        W31732   8.904  29.694  11.763
64950W        W31733  20.641  25.745  12.420
64951W        W31734   4.136  38.121  14.688
64952W        W31735  22.598  35.496   3.339
64953W        W31736  29.679   7.030  10.508
64954W        W31737  33.763  14.261   0.256
64955W        W31738  12.052  11.074   4.414
64956W        W31739  23.334   3.351   9.800
64957W        W31740   8.969  20.570  11.984
64958W        W31741  27.387  24.514  10.167
64959W        W31742   1.687  42.586  11.103
64960W        W31743  18.527   6.235  12.405
64961W        W31744  10.100   6.279  12.011
64962W        W31745  25.517  15.733  11.575
64963W        W31746  11.108  14.548   1.500
64964W        W31747  21.762   7.254   3.110
64965W        W31748  25.931  19.620  14.920
64966W        W31749  26.884  12.749  13.191
64967W        W31750  29.085  35.354   0.132
64968W        W31751  39.701  31.435   0.333
64969W        W31752  29.986  40.509   2.362
64970W        W31753   9.670  19.578   1.358
64971W        W31754  43.084  33.509  11.192
64972W        W31755   6.186  32.537  12.657
64973W        W31756  22.808  14.525  14.410
64974W        W31757  43.399  36.149   1.306
64975W        W31758  22.211  16.395   0.763
64976W        W31759  13.564  37.956   0.805
64977W        W31760  29.608  30.420  10.690
64978W        W31761  23.983  12.617   4.586
64979W        W31762   0.028  13.194  14.286
64980W        W31763  36.847  14.291   0.541
64981W        W31764  21.494  43.854  13.929
64982W        W31765  11.507  30.913  13.250
64983W        W31766   8.639   7.466   4.487
64984W        W31767  30.978  39.598  10.778
64985W        W31768  25.209  33.778   3.513
64986W        W31769   6.355  10.593   3.542
64987W        W31770  11.348   8.865  13.504
64988W        W31771   6.770  14.760  14.774
64989W        W31772  24.401   0.774   4.513
64990W        W31773  10.144  29.921  12.402
64991W        W31774  40.626  31.851   0.300
64992W        W31775   6.729  36.439   0.508
64993W        W31776   0.344   6.474  12.011
64994W        W31777  13.270  27.243  11.300
64995W        W31778   3.651  39.326  13.460
64996W        W31779  27.551   1.942  11.722
64997W        W31780   2.350   0.372  10.695
64998W        W31781  22.025  10.255  11.008
64999W        W31782  38.782  38.990   3.850
65000W        W31783  20.728   5.854   2.723
65001W        W31784  19.990  10.398  13.869
65002W        W31785  28.675  42.987  13.140
65003W        W31786  23.144  28.600   3.188
65004W        W31787  14.209  15.112   3.352
65005W        W31788  23.128   0.781  11.154
65006W        W31789   4.445   6.237   2.761
65007W        W31790  22.767  43.026   2.814
65008W        W31791  34.506  38.771  12.063
65009W        W31792  44.277  26.659  12.529
65010W        W31793  24.370  34.208   4.961
65011W        W31794  27.504  34.135  14.376
65012W        W31795  16.292   8.922  14.889
65013W        W31796  18.625  17.434  12.607
65014W        W31797   0.739   2.476   1.363
65015W        W31798  20.772  39.496  13.328
65016W        W31799  22.530  27.312  12.138
65017W        W31800   9.300  13.842   4.103
65018W        W31801   1.330  15.848   4.172
65019W        W31802  29.135  36.585  10.576
65020W        W31803  28.189  27.248   5.034
65021W        W31804  18.036  26.711   1.457
65022W        W31805  33.386   3.255   4.077
65023W        W31806  43.234   5.221  13.608
65024W        W31807  19.817  12.251   4.158
65025W        W31808  25.322  44.716  12.990
65026W        W31809  36.936  44.880   4.325
65027W        W31810  28.374  10.828  14.404
65028W        W31811  12.184  21.754  12.734
65029W        W31812  30.953  10.625  14.811
65030W        W31813  17.523  34.857   3.175
65031W        W31814  27.578  34.437  13.963
65032W        W31815   4.333  20.351  13.986
65033W        W31816  43.150  34.866   4.952
65034W        W31817  15.487  36.587   1.570
65035W        W31818  17.323   9.637   3.085
65036W        W31819  19.312   5.483   2.664
65037W        W31820  26.659  24.269   2.830
65038W        W31821  16.529   4.172   2.265
65039W        W31822  12.037   2.689   4.691
65040W        W31823  33.132   8.874  13.009
65041W        W31824  11.447  34.810  12.721
65042W        W31825  43.862  20.241  14.317
65043W        W31826  16.584  27.704  12.081
65044W        W31827  16.051  37.616  14.760
65045W        W31828  24.136  27.327   3.154
65046W        W31829  23.003  15.723   0.787
65047W        W31830  13.250  22.824  10.578
65048W        W31831  27.612  22.539  13.994
65049W        W31832  31.185  37.397   4.700
65050W        W31833  39.302   1.763  12.322
65051W        W31834  35.643  18.646   0.258
65052W        W31835  39.361  17.132  13.092
65053W        W31836  30.998   1.719  13.836
65054W        W31837  13.204  10.612  11.159
65055W        W31838  42.982  40.571   4.043
65056W        W31839  10.156  28.465   0.008
65057W        W31840  21.394  44.246   3.604
65058W        W31841  40.517  13.719  12.079
65059W        W31842   0.714  20.260  14.236
65060W        W31843  24.114  14.201   3.492
65061W        W31844  40.323  14.804   2.653
65062W        W31845  37.077  34.893  11.063
65063W        W31846   6.381  44.123   2.408
65064W        W31847  42.253  23.944  14.970
65065W        W31848  44.469  24.934  12.944
65066W        W31849  33.944   9.049   0.720
65067W        W31850  22.276   6.435  14.053
65068W        W31851  29.714  24.067   1.738
65069W        W31852  25.591  28.189   1.158
65070W        W31853   0.907  28.956  10.216
65071W        W31854  25.682  17.564   1.835
65072W        W31855  39.957  26.744   3.694
65073W        W31856  34.658  34.862  10.758
65074W        W31857  43.368  35.823   1.712
65075W        W31858  36.796  40.228  12.060
65076W        W31859  12.292  22.448   0.337
65077W        W31860   8.881  18.630  12.618
65078W        W31861  43.886   7.214   0.974
65079W        W31862  11.424   9.854   9.869
65080W        W31863  26.247  26.699   4.102
65081W        W31864  36.822  10.498   4.430
65082W        W31865  22.709  38.275  11.286
65083W        W31866   4.924  34.859  13.351
65084W        W31867  38.868  29.244   2.452
65085W        W31868  22.200  41.085  12.561
65086W        W31869  13.282   7.294  13.778
65087W        W31870  39.207  17.547  10.754
65088W        W31871  14.867   4.418  13.086
65089W        W31872  33.407   8.969   4.270
65090W        W31873   7.844  14.665   4.501
65091W        W31874  10.939   9.209   3.642
65092W        W31875   7.255   2.494   0.309
65093W        W31876  19.552  22.045  11.050
65094W        W31877  39.300  42.375  14.811
65095W        W31878   6.667  26.480  13.484
65096W        W31879  25.606   4.954  13.210
65097W        W31880  12.440   5.932  13.528
65098W        W31881  20.636  42.216   1.420
65099W        W31882  29.028  17.630   4.651
65100W        W31883  42.293  40.928   3.722
65101W        W31884  33.914  14.458   2.350
65102W        W31885  34.367  42.396   4.752
65103W        W31886   0.117  31.917   3.753
65104W        W31887  20.427  26.792   0.494
65105W        W31888  17.950  40.716   1.624
65106W        W31889  32.419  38.104  11.132
65107W        W31890  29.406  41.024  13.833
65108W        W31891   8.142  13.890  10.423
65109W        W31892  39.615   8.097  12.895
65110W        W31893  43.342  44.463  10.776
65111W        W31894  43.408   8.899   1.570
65112W        W31895  22.746  19.997  12.692
65113W        W31896   0.484  28.848  13.143
65114W        W31897  12.553  30.980   2.106
65115W        W31898  10.930  37.061  13.400
65116W        W31899   3.799  21.410  12.545
65117W        W31900  38.342  18.133   2.805
65118W        W31901   2.476   4.972  14.844
65119W        W31902  34.846   3.847   4.794
65120W        W31903  29.008  36.406  11.446
65121W        W31904  23.946  15.037  11.963
65122W        W31905   2.860  17.362   2.610
65123W        W31906  21.175  27.590  13.850
65124W        W31907  38.946   6.401   1.196
65125W        W31908  36.831   9.882  12.486
65126W        W31909   1.044  26.678  13.014
65127W        W31910   1.776  14.266   1.800
65128W        W31911  30.866  18.489  12.592
65129W        W31912   1.500  25.765  13.458
65130W        W31913   7.663  43.623  11.743
65131W        W31914   3.540  21.796  11.931
65132W        W31915  10.581  18.181   4.096
65133W        W31916  44.445  32.610   0.162
65134W        W31917  14.269   2.552   0.429
65135W        W31918  42.022  28.640  11.078
65136W        W31919  24.573  34.096  11.176
65137W        W31920  31.902   7.962   1.865
65138W        W31921  32.582  13.639   0.827
65139W        W31922   5.395  13.747  13.587
65140W        W31923  20.695   3.807   3.812
65141W        W31924  23.518  40.082  10.115
65142W        W31925  32.497  15.536  14.837
65143W        W31926   4.314  24.788  13.759
65144W        W31927  25.591  22.183  14.485
65145W        W31928  26.001  28.234  14.029
65146W        W31929   1.758  19.254   3.158
65147W        W31930  25.623  44.336   4.489
65148W        W31931  37.590  21.951  11.083
65149W        W31932  30.242  42.439  11.163
65150W        W31933  29.762  32.287   1.870
65151W        W31934  11.302  33.644  13.808
65152W        W31935  23.478  30.982   4.254
65153W        W31936  34.435  21.930   4.144
65154W        W31937  21.155   3.993  14.352
65155W        W31938  31.849  25.668   3.211
65156W        W31939  15.417  33.998   4.613
65157W        W31940  29.602  26.189  14.997
65158W        W31941  43.304  42.744  12.933
65159W        W31942   9.271  33.765   5.017
65160W        W31943   6.448  36.902   4.146
65161W        W31944  28.599  12.824  12.220
65162W        W31945  34.495  44.898  13.516
65163W        W31946  42.057   4.056  13.041
65164W        W31947  33.435  41.444   3.379
65165W        W31948  44.859   6.001   2.043
65166W        W31949  38.970   7.976  11.308
65167W        W31950  38.673  38.454   4.212
65168W        W31951  26.157  36.729  12.631
65169W        W31952  36.962  21.540  14.236
65170W        W31953  13.545  20.702  11.444
65171W        W31954   7.417   1.238  10.524
65172W        W31955  28.247  15.112  12.210
65173W        W31956   8.119  32.546  11.726
65174W        W31957  11.182  21.272   1.202
65175W        W31958  44.770   2.832  10.978
65176W        W31959  34.525  44.786  14.414
65177W        W31960   5.978  22.614   0.845
65178W        W31961   8.449  30.597  10.482
65179W        W31962  35.970  43.192   2.848
65180W        W31963  33.928  31.829   2.407
65181W        W31964   1.381  26.919  10.579
65182W        W31965  42.472  20.029  13.079
65183W        W31966  16.245  43.592   1.797
65184W        W31967  44.246  44.715  11.014
65185W        W31968   1.343  28.106   4.631
65186W        W31969  43.983  12.544  12.380
65187W        W31970  30.936  43.832   4.146
65188W        W31971  40.641  11.195   3.138
65189W        W31972  25.072  27.865  13.734
65190W        W31973  37.283  32.019   4.670
65191W        W31974   0.391   7.835   2.165
65192W        W31975   9.874   4.797  14.822
65193W        W31976   0.409  13.490   4.444
65194W        W31977  40.824  12.787   4.777
65195W        W31978  10.278  11.079  12.741
65196W        W31979   0.353   0.222  14.878
65197W        W31980  13.065   2.148  11.556
65198W        W31981  44.176   5.029  11.932
65199W        W31982   1.347  10.294  11.451
65200W        W31983  35.389  43.242  12.900
65201W        W31984  24.927   2.404   2.304
65202W        W31985  22.551  17.941  12.058
65203W        W31986  39.848  10.763   2.723
65204W        W31987  25.943  17.297   4.477
65205W        W31988  31.498  19.208  13.491
65206W        W31989  23.601   0.435  14.101
65207W        W31990   9.435   2.752   1.798
65208W        W31991   6.003   2.472   0.821
65209W        W31992   5.515  10.397   4.753
65210W        W31993   4.408   8.335   2.150
65211W        W31994  35.864  28.269  11.649
65212W        W31995  19.677  39.532  14.822
65213W        W31996   8.718  27.086   3.445
65214W        W31997  42.950  39.695  11.209
65215W        W31998  32.068   0.912   0.338
65216W        W31999  32.920   0.917  10.515
65217W        W32000  44.961   4.242  14.385
65218W        W32001  16.944  40.490   4.578
65219W        W32002  11.320  41.360  13.999
65220W        W32003  15.365   8.531   3.176
65221W        W32004   8.850   7.531  13.350
65222W        W32005  38.413  13.837  11.165
65223W        W32006  36.153  23.181   9.672
65224W        W32007   2.509  30.255   4.064
65225W        W32008  38.498   4.430  10.654
65226W        W32009  16.982  23.109  10.851
65227W        W32010  12.166  22.294  14.395
65228W        W32011  17.791   5.695  12.370
65229W        W32012  30.853  19.765  12.843
65230W        W32013  33.887   2.172  14.516
65231W        W32014   3.689  28.113  10.503
65232W        W32015   7.376  24.475   4.531
65233W        W32016  25.713  15.782   3.751
65234W        W32017  44.932  36.233   2.817
65235W        W32018  25.144  20.303  12.616
65236W        W32019  17.156  39.950  12.081
65237W        W32020   4.789  22.447   0.824
65238W        W32021  43.366  36.036   2.677
65239W        W32022  44.402  32.530   2.533
65240W        W32023  17.561  44.965   4.557
65241W        W32024  29.824   9.884   3.552
65242W        W32025  23.732  19.748   4.566
65243W        W32026  20.607  35.493  12.439
65244W        W32027   6.885  15.484  14.050
65245W        W32028  26.119  41.751   0.336
65246W        W32029  40.851   3.709   4.135
65247W        W32030  21.961   5.973   2.084
65248W        W32031  33.027  32.124   3.764
65249W        W32032  26.681  26.236   0.411
65250W        W32033  23.404  31.972   4.936
65251W        W32034  22.691  32.001   0.086
65252W        W32035  32.988  31.212   1.216
65253W        W32036  43.523  38.626   2.843
65254W        W32037  29.694   3.307  13.011
65255W        W32038  14.737   0.439  11.631
65256W        W32039   3.372  38.051   0.182
65257W        W32040  21.983   8.136  13.534
65258W        W32041  35.667  11.174  14.481
65259W        W32042  10.857  10.150   4.455
65260W        W32043  25.523  42.785   3.479
65261W        W32044  25.045  39.094  14.519
65262W        W32045   0.883  19.785  14.047
65263W        W32046  16.707  26.397  11.005
65264W        W32047  21.994  11.773  11.426
65265W        W32048  11.721  12.507  12.300
65266W        W32049   2.945  21.590  14.835
65267W        W32050  35.866  36.074  11.019
65268W        W32051  41.561  35.572  12.520
65269W        W32052  24.048  19.193   0.917
65270W        W32053   6.282   8.336   1.431
65271W        W32054  44.988  19.092   4.873
65272W        W32055  34.460   5.512   3.168
65273W        W32056   2.641  34.015   4.863
65274W        W32057  39.425  16.642  14.462
65275W        W32058  30.428   3.261   4.303
65276W        W32059  34.129  37.893   0.885
65277W        W32060  17.400  29.171  14.315
65278W        W32061   4.920  33.557   1.650
65279W        W32062  18.896   1.233  13.488
65280W        W32063  43.774  39.045  12.066
65281W        W32064   8.482   7.281   3.780
65282W        W32065  15.325  43.005  13.535
65283W        W32066  37.372  23.356  14.482
65284W        W32067  28.535   1.516   0.270
65285W        W32068  21.795  34.318   4.079
65286W        W32069  42.803   2.916  12.843
65287W        W32070  24.377  23.423  14.439
65288W        W32071  25.557   4.240   0.316
65289W        W32072  35.511   9.622   4.270
65290W        W32073  11.687  26.128  13.950
65291W        W32074  16.655  20.954   1.798
65292W        W32075  12.669  40.222  11.686
65293W        W32076  15.113  24.429   1.482
65294W        W32077  29.550  36.327  13.957
65295W        W32078   7.712  10.655   1.995
65296W        W32079  31.227   9.847   1.222
65297W        W32080  21.052  24.253   5.000
65298W        W32081  38.076  39.900   3.506
65299W        W32082  23.510  30.591  13.544
65300W        W32083  17.564  38.302   0.841
65301W        W32084  35.121  26.256  12.046
65302W        W32085   1.357  39.746   2.684
65303W        W32086  40.189  24.640   3.273
65304W        W32087  11.175  18.481  13.059
65305W        W32088  12.389   2.269   4.563
65306W        W32089  40.105  14.396   2.459
65307W        W32090  42.957  31.047  13.003
65308W        W32091  11.371   4.275   4.256
65309W        W32092  10.076  14.148  14.391
65310W        W32093  38.385  16.096  12.457
65311W        W32094  43.903  40.439   3.652
65312W        W32095  15.530  25.096   5.045
65313W        W32096  41.908  38.319   3.921
65314W        W32097  17.075  12.996   1.237
65315W        W32098  25.232  14.708  11.141
65316W        W32099  22.363   7.800   3.781
65317W        W32100  18.765  23.057  12.125
65318W        W32101  28.536  29.420  11.191
65319W        W32102  42.658   5.599  13.096
65320W        W32103   8.415  12.211  12.923
65321W        W32104  34.370   5.685  13.656
65322W        W32105  30.680  34.999   4.153
65323W        W32106  32.996  33.174  14.791
65324W        W32107  14.640   6.314   2.404
65325W        W32108  36.846   1.159   3.700
65326W        W32109  27.096  41.444  11.868
65327W        W32110  11.069  18.398   3.776
65328W        W32111   2.709  37.441   0.302
65329W        W32112  22.700   9.853   1.329
65330W        W32113  14.802  38.325   1.519
65331W        W32114  30.639  29.048  12.900
65332W        W32115  37.480  10.331   1.682
65333W        W32116   2.383   8.580  11.963
65334W        W32117  38.852  10.448   5.129
65335W        W32118  40.282  43.807   3.762
65336W        W32119   0.834  33.963   1.443
65337W        W32120  21.036  29.511   5.012
65338W        W32121  29.860  29.698  10.855
65339W        W32122  28.508  23.643   0.421
65340W        W32123   2.975  17.603   4.377
65341W        W32124  19.615  17.913   2.760
65342W        W32125  12.411  12.157   0.876
65343W        W32126  28.132   3.669  10.787
65344W        W32127  26.504  26.146  14.916
65345W        W32128  33.309  19.780  14.495
65346W        W32129  33.563   5.230  11.247
65347W        W32130  17.387   7.556  10.264
65348W        W32131  11.247  37.869  13.508
65349W        W32132  15.715  40.761   3.052
65350W        W32133   4.243  28.606  10.448
65351W        W32134   0.342  30.132   2.693
65352W        W32135   6.194  28.616   0.463
65353W        W32136  19.309  12.345  13.902
65354W        W32137   2.754   6.323  14.361
65355W        W32138  43.798  17.246   0.928
65356W        W32139  29.807  42.387   3.312
65357W        W32140  30.512  36.192  11.606
65358W        W32141  35.557   0.298   3.096
65359W        W32142  14.146  43.950   2.326
65360W        W32143   8.691  34.193   3.337
65361W        W32144  24.152  21.065   2.751
65362W        W32145  26.547  37.583  14.996
65363W        W32146  11.230  18.455   0.492
65364W        W32147   6.341  22.235  10.861
65365W        W32148  14.765  28.720   0.051
65366W        W32149  13.814  11.635   4.586
65367W        W32150  44.363  16.005  13.124
65368W        W32151  14.088   7.639  14.453
65369W        W32152   0.988  31.801   1.017
65370W        W32153  16.684  38.074   4.592
65371W        W32154   0.102  30.212  12.194
65372W        W32155  30.293  21.274  13.831
65373W        W32156  40.764   9.917   3.581
65374W        W32157  21.154  11.734   2.227
65375W        W32158   0.020  21.935   2.625
65376W        W32159  39.983  39.694   4.118
65377W        W32160  29.356   7.234   4.733
65378W        W32161  35.449   8.597   5.149
65379W        W32162  35.027   2.184   3.239
65380W        W32163   4.098  40.920  13.992
65381W        W32164  13.808  16.858   1.272
65382W        W32165  27.723  43.918   2.214
65383W        W32166  24.818  38.946   2.677
65384W        W32167  37.897  44.199   0.246
65385W        W32168   3.312  23.743   3.636
65386W        W32169  12.194  43.873   3.860
65387W        W32170  36.392   1.359  10.803
65388W        W32171  17.537  18.166  11.107
65389W        W32172  17.789   4.789  13.674
65390W        W32173   7.696  23.613  14.289
65391W        W32174  25.894  23.494  11.947
65392W        W32175  34.946   1.087  11.646
65393W        W32176   5.279  40.068  11.673
65394W        W32177  24.110  39.403   1.770
65395W        W32178   3.021  40.298  14.646
65396W        W32179  39.133  30.445   2.657
65397W        W32180   0.264  11.076  10.275
65398W        W32181  33.511  39.351   1.522
65399W        W32182  10.019  39.961  11.947
65400W        W32183  44.224  14.911   4.561
65401W        W32184  17.748  36.102  14.266
65402W        W32185  26.909  44.938   1.232
65403W        W32186   6.866  22.223   4.532
65404W        W32187   7.786   5.595  12.998
65405W        W32188  19.648  22.766   2.437
65406W        W32189   7.225  26.740  14.850
65407W        W32190   7.842  44.236  11.046
65408W        W32191  39.918   8.830   0.527
65409W        W32192  40.050  44.503   3.609
65410W        W32193  21.181  20.914   1.425
65411W        W32194  37.404   3.965  10.614
65412W        W32195  41.034  16.620  11.059
65413W        W32196   6.150  17.671   0.392
65414W        W32197  38.866  22.725  14.943
65415W        W32198   7.198  30.347   3.631
65416W        W32199  41.946  30.591   4.710
65417W        W32200   5.153  12.727   0.228
65418W        W32201  20.247   2.783  14.394
65419W        W32202  13.642  42.566  13.736
65420W        W32203  12.332  39.514  10.287
65421W        W32204  17.055  30.430   0.890
65422W        W32205   2.923  16.336  13.405
65423W        W32206  34.078  17.594   1.813
65424W        W32207  27.785  17.580  12.861
65425W        W32208   3.880   1.567   4.676
65426W        W32209  23.616  32.989  11.861
65427W        W32210  34.949   7.502  10.357
65428W        W32211  39.827  34.040  12.659
65429W        W32212  24.190   6.912   2.320
65430W        W32213  39.539  19.730   3.951
65431W        W32214  18.190  25.693   4.749
65432W        W32215  29.519  27.933  10.928
65433W        W32216   8.270   3.260  14.975
65434W        W32217  19.605   9.313  13.551
65435W        W32218   6.325  19.084  10.420
65436W        W32219  16.783  43.532   2.528
65437W        W32220  14.744   7.665   2.127
65438W        W32221  23.092  10.555  13.254
65439W        W32222  34.348   2.833   4.051
65440W        W32223  32.328  30.751   2.813
65441W        W32224  35.868  25.090   4.458
65442W        W32225  35.196  44.446   4.771
65443W        W32226  44.214  23.089   1.589
65444W        W32227  26.031  37.478  11.174
65445W        W32228  16.587  12.117  12.094
65446W        W32229  12.325   7.262  13.331
65447W        W32230   3.814  25.697   5.126
65448W        W32231  21.578  39.935   2.861
65449W        W32232  35.372  15.200   4.832
65450W        W32233   0.327  41.313  13.995
65451W        W32234  42.997  35.082  11.508
65452W        W32235  26.770  21.593  11.148
65453W        W32236   4.636  29.628   1.142
65454W        W32237  12.596  23.712   0.367
65455W        W32238   8.834  35.951  12.340
65456W        W32239  30.410  19.553   1.214
65457W        W32240  16.280   3.820  12.610
65458W        W32241  43.299  35.840   0.877
65459W        W32242   1.332  13.275  13.838
65460W        W32243   1.280   4.401   2.082
65461W        W32244   4.098  44.246  13.909
65462W        W32245   0.209   9.355  10.295
65463W        W32246  11.253   6.092  13.369
65464W        W32247   6.422  30.416  13.146
65465W        W32248  18.003  16.830  10.314
65466W        W32249  22.741  37.773  11.191
65467W        W32250  27.890  41.583   3.825
65468W        W32251  41.218  19.107  14.915
65469W        W32252  28.539   2.601  11.266
65470W        W32253  13.432  25.860   3.278
65471W        W32254   7.019  13.152   1.862
65472W        W32255   2.933  39.176  12.459
65473W        W32256   6.729  28.206  11.430
65474W        W32257  21.505  31.041  14.276
65475W        W32258  31.379  16.146   1.746
65476W        W32259  36.500  30.401  13.509
65477W        W32260  42.349  44.681  11.162
65478W        W32261   0.259   1.997  11.432
65479W        W32262  38.034  35.582  12.408
65480W        W32263  25.935  20.320   0.213
65481W        W32264  20.019  41.108   1.873
65482W        W32265  37.439  17.397  14.697
65483W        W32266  38.992  38.118   1.902
65484W        W32267  17.342  33.298  11.944
65485W        W32268  22.678  35.302  12.593
65486W        W32269  18.811  28.254   0.954
65487W        W32270  29.310  22.852  13.452
65488W        W32271  17.083   8.238  11.351
65489W        W32272   6.048  40.960  11.108
65490W        W32273   6.204  35.887  10.971
65491W        W32274   5.891  28.346  13.613
65492W        W32275  29.172  32.644  13.470
65493W        W32276  16.935  23.477   0.297
65494W        W32277  38.434   6.048   4.300
65495W        W32278  23.369  28.373   4.590
65496W        W32279  41.369  34.062  11.657
65497W        W32280  37.083   7.893  12.750
65498W        W32281   9.729  27.184   3.223
65499W        W32282   0.972  33.322   3.080
65500W        W32283  38.412  31.478  12.022
65501W        W32284  21.535   8.895  12.892
65502W        W32285   8.762  15.428   3.643
65503W        W32286  29.715  39.683  13.148
65504W        W32287  26.213   0.697   3.233
65505W        W32288  35.639   7.415   1.769
65506W        W32289  24.082  23.560   3.107
65507W        W32290  28.237   4.510  12.510
65508W        W32291  31.715  41.913   1.132
65509W        W32292   8.674   9.208   3.964
65510W        W32293  37.972  25.601   1.799
65511W        W32294  44.637  42.720  14.465
65512W        W32295  43.829  15.368   0.106
65513W        W32296  20.448  10.579   1.492
65514W        W32297  20.910  24.156  10.768
65515W        W32298  20.987  19.994   2.699
65516W        W32299  17.878  17.196   0.484
65517W        W32300   8.138  11.856   1.918
65518W        W32301  26.316   9.228   3.464
65519W        W32302  40.641  35.481   3.766
65520W        W32303  28.851   5.995   2.412
65521W        W32304  20.759  10.058   2.058
65522W        W32305  16.633   3.617  12.961
65523W        W32306  12.245  35.335   1.735
65524W        W32307  12.807  18.631  11.101
65525W        W32308  22.085   5.933  12.782
65526W        W32309  37.061  26.112   4.973
65527W        W32310  18.540  12.659   4.125
65528W        W32311  21.734  10.269   0.406
65529W        W32312   0.503  30.144   3.702
65530W        W32313  12.333  19.106  14.861
65531W        W32314  37.592   1.463  12.123
65532W        W32315  35.155  37.523   0.309
65533W        W32316  40.091  10.946  13.543
65534W        W32317  25.083  14.938   4.125
65535W        W32318  34.047   5.674   4.284
65536W        W32319  38.301  15.267  13.448
65537W        W32320  40.213   0.806  11.603
65538W        W32321  41.218   9.654   1.886
65539W        W32322  37.146   4.295   2.433
65540W        W32323  18.273   5.622  11.695
65541W        W32324  43.722  24.832   3.814
65542W        W32325  18.623  34.545   1.387
65543W        W32326  26.802   7.670   3.720
65544W        W32327  43.430  36.517  14.469
65545W        W32328  16.721   9.137   0.800
65546W        W32329   7.354   3.317   3.247
65547W        W32330  44.255  34.493   0.334
65548W        W32331   1.441  18.850   3.098
65549W        W32332  15.316   3.243   2.168
65550W        W32333   3.328  36.345   1.810
65551W        W32334   2.069  25.421   1.489
65552W        W32335  17.034  22.247   1.720
65553W        W32336   6.226   0.953   1.033
65554W        W32337  20.408  39.361   9.885
65555W        W32338  43.784  38.042   3.385
65556W        W32339  36.341  21.457   0.923
65557W        W32340  11.115  26.601   1.056
65558W        W32341  29.696  44.502   2.965
65559W        W32342   2.708  27.032   3.038
65560W        W32343   4.706  18.159   4.511
65561W        W32344  28.006  22.191   4.362
65562W        W32345  17.798  27.309   4.128
65563W        W32346  20.242  13.868   0.794
65564W        W32347  10.947  14.730  14.036
65565W        W32348   0.472   4.677   0.986
65566W        W32349  25.359  27.039  12.122
65567W        W32350  15.857  32.395   1.689
65568W        W32351  35.116  29.694  14.208
65569W        W32352  23.922  31.488   0.886
65570W        W32353  28.248   9.742   4.099
65571W        W32354   1.912  36.950   4.565
65572W        W32355   3.221  26.942  12.586
65573W        W32356  43.513  27.877  10.682
65574W        W32357  32.088  29.174  13.170
65575W        W32358  16.850   9.680  12.636
65576W        W32359  36.282   2.961   0.679
65577W        W32360  18.053  21.770  13.438
65578W        W32361  22.904   2.893  11.722
65579W        W32362  44.104  14.563  13.931
65580W        W32363   9.228  31.381   3.293
65581W        W32364  42.527  23.714  13.934
65582W        W32365  34.534  44.717   3.723
65583W        W32366  33.239  36.105   4.183
65584W        W32367  15.867  22.083  13.026
65585W        W32368  33.177  21.476  13.455
65586W        W32369   2.430  30.674  11.646
65587W        W32370  31.697  34.300  11.174
65588W        W32371  20.797  36.445   0.512
65589W        W32372  21.195   7.368   4.867
65590W        W32373  21.664  43.005  13.484
65591W        W32374   2.893  31.882   2.626
65592W        W32375  19.061  22.961   3.720
65593W        W32376  25.580  42.471  12.927
65594W        W32377  25.725   0.494   3.792
65595W        W32378  19.955   0.526  11.103
65596W        W32379  18.864  37.511   5.003
65597W        W32380   7.206  42.287   2.681
65598W        W32381   0.739   7.563   2.435
65599W        W32382   3.647  34.042  12.942
65600W        W32383  33.560  22.883   1.307
65601W        W32384  29.977  41.519  14.900
65602W        W32385  41.500  19.579  14.862
65603W        W32386  24.704  24.873   5.042
65604W        W32387  16.122  16.350  11.391
65605W        W32388  11.023  26.916  12.532
65606W        W32389  31.105  12.738  13.449
65607W        W32390   9.727  29.569   3.225
65608W        W32391  11.610  25.071  10.644
65609W        W32392  11.775  30.014   2.405
65610W        W32393  40.833   8.614  11.527
65611W        W32394  25.264   0.541  12.414
65612W        W32395  38.398  23.696  13.009
65613W        W32396  36.977  35.001  13.947
65614W        W32397  20.150   6.993  12.923
65615W        W32398  32.329  41.325   1.632
65616W        W32399  17.367  43.186  13.213
65617W        W32400  27.410  13.195  14.367
65618W        W32401   2.287  31.992  14.808
65619W        W32402  13.892  32.002  13.119
65620W        W32403  23.090   8.628  12.101
65621W        W32404  26.540  40.466   3.644
65622W        W32405  13.842  22.540   3.693
65623W        W32406  32.285  28.059   0.256
65624W        W32407   1.970  36.276  14.395
65625W        W32408  23.528  12.773  12.060
65626W        W32409  32.880  11.900   0.426
65627W        W32410  22.098  27.040  14.937
65628W        W32411   9.724   8.133   2.463
65629W        W32412  22.956  28.033  14.406
65630W        W32413  14.577  11.396  12.136
65631W        W32414   6.110   9.315  13.588
65632W        W32415  36.844  33.003   4.027
65633W        W32416   0.997   5.236  13.471
65634W        W32417   8.670   1.751   4.424
65635W        W32418   7.298  40.789   3.638
65636W        W32419  11.672  31.003  12.180
65637W        W32420  40.543  10.374   3.679
65638W        W32421   5.526   4.235   4.593
65639W        W32422   2.663  14.481  14.016
65640W        W32423  37.272  10.762  10.618
65641W        W32424  23.196   4.105  11.292
65642W        W32425  33.046  22.771  10.022
65643W        W32426  33.432  19.899   4.472
65644W        W32427  31.789  27.435   3.633
65645W        W32428   7.099  36.176  11.106
65646W        W32429  13.063  43.446  14.460
65647W        W32430  29.721  13.239  12.030
65648W        W32431  35.186  18.350   1.948
65649W        W32432  11.116  41.581  12.489
65650W        W32433  38.890  16.655   1.738
65651W        W32434   3.576   6.162  10.266
65652W        W32435  17.157  43.810   4.403
65653W        W32436  29.398  44.584   3.371
65654W        W32437  11.248  39.010  11.280
65655W        W32438  39.865   1.256  14.945
65656W        W32439  19.279  35.249  11.842
65657W        W32440   8.781  35.172   1.356
65658W        W32441   2.677  39.982  11.201
65659W        W32442  29.764   6.586   0.362
65660W        W32443  28.044   2.992  13.938
65661W        W32444  15.560  32.182   0.585
65662W        W32445  24.540  19.022   3.174
65663W        W32446  39.032  22.115  12.584
65664W        W32447  24.850  27.565   4.943
65665W        W32448  35.688  42.918   0.367
65666W        W32449  30.330  27.794   4.545
65667W        W32450  26.797  18.517  13.773
65668W        W32451  11.303  21.395  10.758
65669W        W32452  30.173   6.916  11.229
65670W        W32453  35.090  43.187   4.152
65671W        W32454  23.014  32.558  11.635
65672W        W32455  35.505  43.418   0.426
65673W        W32456  31.054  15.232  12.120
65674W        W32457  29.082  39.468   2.645
65675W        W32458  28.549   3.232  12.901
65676W        W32459   1.815   6.795   1.486
65677W        W32460  30.878  18.184   2.235
65678W        W32461   1.021  20.047   0.690
65679W        W32462  41.356  26.959   2.605
65680W        W32463  42.350  43.565   4.138
65681W        W32464  34.491  40.468  14.393
65682W        W32465  17.710  35.846  12.831
65683W        W32466  13.552  11.504  11.972
65684W        W32467  39.951  26.970   1.729
65685W        W32468  15.299  12.123  12.979
65686W        W32469  41.384  25.672  13.855
65687W        W32470  40.378  18.346   4.980
65688W        W32471  11.512  18.195   3.941
65689W        W32472   9.311   8.193   3.291
65690W        W32473  39.032  16.120   3.445
65691W        W32474  27.407   9.402   3.105
65692W        W32475  13.032  40.335   3.731
65693W        W32476   0.730  20.182   1.321
65694W        W32477   1.960  11.345   1.255
65695W        W32478  27.491  21.729  12.166
65696W        W32479  29.435  43.378  14.376
65697W        W32480  36.477  18.292   3.635
65698W        W32481   7.281  15.711   2.300
65699W        W32482  14.563  25.995   0.838
65700W        W32483  37.846  19.633  10.209
65701W        W32484  25.024  36.962   3.248
65702W        W32485   4.727  36.507   0.528
65703W        W32486  13.078  38.525   0.203
65704W        W32487  33.469  10.861   0.989
65705W        W32488  14.663  37.029   3.308
65706W        W32489  21.187  41.499  12.800
65707W        W32490  28.018  32.462   3.816
65708W        W32491  32.334  19.353  10.722
65709W        W32492  17.622  42.636   3.200
65710W        W32493  13.444  10.502   5.311
65711W        W32494  23.061  23.642   2.188
65712W        W32495  27.901  35.489  13.391
65713W        W32496   7.932  38.094   0.811
65714W        W32497  31.345   2.227   2.845
65715W        W32498  32.308  26.366   9.817
65716W        W32499  35.286  18.518  14.905
65717W        W32500  11.133  44.245  13.108
65718W        W32501   1.004  38.815   0.769
65719W        W32502  16.168  27.536   0.826
65720W        W32503   4.988  28.610   2.341
65721W        W32504  24.075   9.028  13.775
65722W        W32505  25.231  15.688  12.611
65723W        W32506  13.709  43.972  10.463
65724W        W32507  38.312   2.064   0.225
65725W        W32508  38.399  37.833  13.514
65726W        W32509  33.932   6.121  12.134
65727W        W32510   4.890  14.274  13.831
65728W        W32511  20.993  19.034  12.025
65729W        W32512  25.616   3.813  12.759
65730W        W32513  40.012  42.762  14.764
65731W        W32514   1.572   4.269   2.903
65732W        W32515   7.889  26.663   0.374
65733W        W32516  29.055  25.492  11.567
65734W        W32517  21.068  11.579  11.540
65735W        W32518   5.484  25.613   3.663
65736W        W32519  29.504  14.258  10.687
65737W        W32520  30.501  23.563   1.025
65738W        W32521  13.592  15.098   0.660
65739W        W32522  14.846  15.076  14.124
65740W        W32523  10.689  17.686  13.019
65741W        W32524   2.379   3.466  14.925
65742W        W32525  20.863  20.973  11.768
65743W        W32526  36.261  44.332   4.833
65744W        W32527   9.368  27.052  13.866
65745W        W32528   8.026   0.238   3.663
65746W        W32529   9.008  41.563   2.329
65747W        W32530   8.150   1.722  11.113
65748W        W32531  12.025  37.708  10.574
65749W        W32532  42.508  35.018   3.263
65750W        W32533  28.958   4.332   0.213
65751W        W32534  36.848   8.739   4.264
65752W        W32535  19.716  33.707  11.601
65753W        W32536   3.767  29.382   2.897
65754W        W32537   5.842  11.572  13.591
65755W        W32538  38.380  26.077  12.535
65756W        W32539  26.767  42.688  13.414
65757W        W32540  21.513  11.680  12.540
65758W        W32541   5.924  25.233   1.775
65759W        W32542  35.344  34.545   0.995
65760W        W32543  40.339   9.371   4.947
65761W        W32544   4.009  35.589  13.035
65762W        W32545  14.261  30.530  13.345
65763W        W32546   4.343   8.687  13.310
65764W        W32547   8.782  14.855   3.156
65765W        W32548  19.380   3.278   4.166
65766W        W32549  10.997   5.752   2.037
65767W        W32550  38.418  14.095  14.454
65768W        W32551  15.140  26.534  12.106
65769W        W32552  34.062  41.032   1.371
65770W        W32553  25.151  33.258   3.644
65771W        W32554  42.406  11.072  12.903
65772W        W32555  14.450  18.689  10.723
65773W        W32556  26.192  30.964  11.145
65774W        W32557   8.769  23.070  11.221
65775W        W32558  17.284  18.486  13.876
65776W        W32559   0.309  27.802  12.988
65777W        W32560  43.293  38.868  13.470
65778W        W32561  31.968  10.181  12.173
65779W        W32562  33.649  16.795  12.137
65780W        W32563  28.175  10.922  11.171
65781W        W32564  37.538  10.812   3.889
65782W        W32565   6.092  25.981   2.795
65783W        W32566  43.505  42.350  13.912
65784W        W32567  10.637   3.745  14.166
65785W        W32568  30.819   7.372   4.413
65786W        W32569  44.387   0.801   1.808
65787W        W32570   3.239   5.327  13.508
65788W        W32571  35.366  19.048   3.658
65789W        W32572   1.346  11.545   1.286
65790W        W32573  44.827  21.641  12.964
65791W        W32574  21.492  14.417  11.964
65792W        W32575  13.780  18.229  13.169
65793W        W32576  12.292  27.708  10.713
65794W        W32577   7.697  15.788  14.528
65795W        W32578  33.306   0.074  13.902
65796W        W32579   0.693  10.269  12.643
65797W        W32580  39.595  38.755  12.938
65798W        W32581  31.890   2.033   3.736
65799W        W32582  41.523  27.629  10.448
65800W        W32583  41.104   5.026   3.170
65801W        W32584  15.130  38.525  12.949
65802W        W32585  27.270   3.437   1.701
65803W        W32586  12.528   0.714   3.745
65804W        W32587  15.374  36.140   2.199
65805W        W32588  38.323   2.112   3.033
65806W        W32589  13.109  42.868  12.910
65807W        W32590   6.192  25.949  13.114
65808W        W32591   9.792  22.307  12.070
65809W        W32592   5.693  43.276   2.153
65810W        W32593  20.269   5.201   4.419
65811W        W32594  24.647   8.896  11.706
65812W        W32595  42.096  12.149   4.963
65813W        W32596  39.630  15.735  11.896
65814W        W32597  25.358  26.082  12.658
65815W        W32598  42.346   9.985   4.751
65816W        W32599  16.285  44.403  10.688
65817W        W32600   1.994  13.746  10.764
65818W        W32601  34.241  38.938  12.923
65819W        W32602  24.989  33.633   4.767
65820W        W32603  33.493  24.144   0.531
65821W        W32604  27.740  13.913   0.878
65822W        W32605  11.541  22.265  10.970
65823W        W32606   1.262  41.126  12.976
65824W        W32607  27.493  35.921   2.607
65825W        W32608  25.222   9.758  11.432
65826W        W32609   4.310  33.931   2.776
65827W        W32610  12.555  30.416   1.207
65828W        W32611  24.496  22.737   4.005
65829W        W32612  26.178   8.755  10.917
65830W        W32613  10.818  23.172   3.263
65831W        W32614   2.956  34.024   3.332
65832W        W32615  11.835  10.317   1.461
65833W        W32616  16.108  26.511   1.688
65834W        W32617  40.610  20.290  14.387
65835W        W32618   8.425   9.255   1.351
65836W        W32619   5.627  13.708   0.949
65837W        W32620  26.103  22.306  14.391
65838W        W32621  26.027  26.512   0.478
65839W        W32622  24.501  30.211  11.510
65840W        W32623   2.716  36.782   3.679
65841W        W32624   7.611  37.840  11.571
65842W        W32625  32.414   1.362   0.523
65843W        W32626  31.681   1.322   3.161
65844W        W32627   2.780   1.933   2.304
65845W        W32628  40.801  36.835  12.036
65846W        W32629  28.969  13.600   2.303
65847W        W32630  33.377   6.131   0.047
65848W        W32631  15.480  42.577   1.292
65849W        W32632  12.593  12.211  12.707
65850W        W32633   3.261  10.698   4.412
65851W        W32634  32.913   7.117   0.949
65852W        W32635  24.066  28.883   0.984
65853W        W32636  27.424  29.865  12.560
65854W        W32637   7.923  15.326  12.932
65855W        W32638  40.341  36.921   2.145
65856W        W32639  26.213   0.075  11.576
65857W        W32640  22.259  38.075  11.165
65858W        W32641  31.744  23.955   4.907
65859W        W32642  21.544  37.702  14.966
65860W        W32643  17.734  37.050  14.763
65861W        W32644  30.765  34.520   0.463
65862W        W32645  30.167   1.809   0.844
65863W        W32646  31.129  14.789   0.376
65864W        W32647  28.355  25.115   2.322
65865W        W32648  24.541  22.511  12.557
65866W        W32649  10.694  31.475  12.994
65867W        W32650  15.175  36.865  14.487
65868W        W32651  30.056  32.003   0.945
65869W        W32652  35.156  25.083  13.464
65870W        W32653  10.134   0.397  11.449
65871W        W32654  26.110  27.636   0.747
65872W        W32655  15.254   0.982   1.165
65873W        W32656  22.702  24.928   2.629
65874W        W32657   3.678  10.086   4.066
65875W        W32658  42.822  38.254   1.691
65876W        W32659  36.875   2.188  10.468
65877W        W32660  24.023   4.143  14.263
65878W        W32661  25.344  41.726  11.964
65879W        W32662  10.138   0.805   2.273
65880W        W32663  13.784  31.892   3.291
65881W        W32664  14.575   4.971   2.279
65882W        W32665  37.322  34.831   1.230
65883W        W32666  31.251  15.283   0.408
65884W        W32667  19.982  42.679  11.097
65885W        W32668   8.883   6.084   3.119
65886W        W32669  35.472  14.609   3.693
65887W        W32670  44.759   0.762   3.231
65888W        W32671  33.152   6.785  11.944
65889W        W32672  36.414  27.647  14.877
65890W        W32673   1.146  10.698   3.683
65891W        W32674  33.892  25.396   2.387
65892W        W32675   3.857  29.752  11.266
65893W        W32676  42.513  10.243  12.484
65894W        W32677   6.543  28.927  11.571
65895W        W32678  15.843  41.691   0.960
65896W        W32679  24.136  30.770   3.734
65897W        W32680  23.484   1.217  12.296
65898W        W32681  33.559  37.117  12.897
65899W        W32682  15.683   5.655  10.568
65900W        W32683  18.592   8.187   3.471
65901W        W32684  41.534  20.511  12.230
65902W        W32685  13.264  25.347   0.736
65903W        W32686   5.273  19.003   2.395
65904W        W32687   2.891  43.813  10.745
65905W        W32688  14.161  18.596   5.016
65906W        W32689  19.197  17.805   3.028
65907W        W32690  30.360  17.085   0.278
65908W        W32691   7.746  43.981   0.129
65909W        W32692  24.482  31.720  11.348
65910W        W32693  12.990  38.632  10.715
65911W        W32694   8.484  25.825   2.664
65912W        W32695  20.759  34.923   1.370
65913W        W32696  27.755   2.958   0.564
65914W        W32697  38.718  20.548   3.104
65915W        W32698  29.439  25.472   3.085
65916W        W32699  27.866   4.467   2.454
65917W        W32700  12.415   5.813   3.397
65918W        W32701  26.418  39.515  14.894
65919W        W32702   7.823  16.369  12.121
65920W        W32703  35.615  35.193  10.509
65921W        W32704   6.121  10.712  11.617
65922W        W32705  27.494  18.529  11.554
65923W        W32706  25.661  10.722  11.555
65924W        W32707  35.594  20.414  13.172
65925W        W32708  19.666   9.990   2.217
65926W        W32709   1.286  35.364   3.888
65927W        W32710   8.408  38.335   0.870
65928W        W32711  20.653  29.967  11.928
65929W        W32712  31.949   8.718  11.612
65930W        W32713  37.093  24.493  12.681
65931W        W32714  17.099   8.315  11.858
65932W        W32715  10.921  27.161   1.763
65933W        W32716   0.667  43.282   3.786
65934W        W32717  11.988  25.182  12.420
65935W        W32718   9.771  38.773  14.287
65936W        W32719   7.819   8.297   2.019
65937W        W32720  35.694   7.671   3.595
65938W        W32721  34.018  33.020  11.330
65939W        W32722  23.578  28.404   2.331
65940W        W32723  29.026  12.409   0.326
65941W        W32724   9.138   7.499  10.314
65942W        W32725  28.517  31.450   2.464
65943W        W32726   1.261  31.049   1.933
65944W        W32727  43.496   3.088   1.358
65945W        W32728  17.623  15.205  11.560
65946W        W32729  18.983  37.327  10.578
65947W        W32730  36.817  17.791   0.650
65948W        W32731  19.211  21.645   1.726
65949W        W32732  33.969  31.653  10.748
65950W        W32733   7.907  38.354  13.873
65951W        W32734  44.494   2.886   0.701
65952W        W32735  38.026  28.401  11.539
65953W        W32736  22.593  24.568  12.028
65954W        W32737  36.615  28.409   4.614
65955W        W32738   8.774  11.760   0.538
65956W        W32739   7.471   3.969  10.880
65957W        W32740  17.746  30.401   0.304
65958W        W32741   5.318  30.850   2.739
65959W        W32742  30.645  36.236   2.179
65960W        W32743   5.712  23.381  13.470
65961W        W32744  31.439   0.517   2.341
65962W        W32745   9.307  30.570   4.618
65963W        W32746  34.862  16.002  11.354
65964W        W32747  16.571  38.372   0.038
65965W        W32748  34.343  25.922   1.918
65966W        W32749  22.020  31.953  10.597
65967W        W32750  14.122   8.155  14.506
65968W        W32751  37.998  42.648  11.212
65969W        W32752  40.110  26.985  11.208
65970W        W32753   1.382  11.131  10.943
65971W        W32754   9.175  19.779  10.233
65972W        W32755  37.548  25.036  13.337
65973W        W32756   1.199  39.631  11.592
65974W        W32757  16.543   9.221   3.131
65975W        W32758  44.468   4.019  10.562
65976W        W32759  26.479  41.805   2.415
65977W        W32760  33.359  42.891  11.877
65978W        W32761   3.278  27.776   4.149
65979W        W32762  37.131  19.662  10.579
65980W        W32763  30.041  11.418  11.217
65981W        W32764  18.605  44.267  11.507
65982W        W32765  13.622   5.913  10.811
65983W        W32766  36.849  25.946  10.632
65984W        W32767  40.308  43.018  13.481
65985W        W32768  23.628  12.614   0.424
65986W        W32769  20.440   1.945  14.084
65987W        W32770  35.748  18.285  14.854
65988W        W32771   3.432   2.263  13.789
65989W        W32772  16.428   8.005   2.662
65990W        W32773   6.344  27.876   3.717
65991W        W32774   9.642  26.692   3.434
65992W        W32775   6.879  23.217  12.755
65993W        W32776   5.256  33.923   1.397
65994W        W32777  35.167  13.116   4.618
65995W        W32778  31.199  12.294   1.432
65996W        W32779  33.594   0.915  12.082
65997W        W32780  43.220  41.006  13.411
65998W        W32781   6.728   1.337  14.281
65999W        W32782  39.025  11.062  10.725
66000W        W32783   7.008  12.915  11.922
66001W        W32784  12.734  13.619  14.372
66002W        W32785  42.172  20.179   1.394
66003W        W32786  20.241  28.018  10.125
66004W        W32787  44.852  27.258   0.900
66005W        W32788  44.790  16.416   1.961
66006W        W32789  34.945   1.466  13.873
66007W        W32790  41.747  11.459  13.536
66008W        W32791  20.099   7.675  13.632
66009W        W32792  27.582  42.784  14.206
66010W        W32793  39.529  18.137   1.343
66011W        W32794  42.070  41.980   2.418
66012W        W32795  26.388  42.693   0.844
66013W        W32796  42.955  31.894  11.834
66014W        W32797  16.194  19.278  10.832
66015W        W32798  11.486   8.946   4.535
66016W        W32799   8.376  25.434   2.304
66017W        W32800  20.066  31.159   2.825
66018W        W32801  22.148  40.964   3.894
66019W        W32802  21.776  40.802  12.437
66020W        W32803   9.481  43.638   4.095
66021W        W32804  40.297  10.162  11.861
66022W        W32805  16.141  40.295  14.400
66023W        W32806   8.132  28.904   0.248
66024W        W32807  16.799   3.384   2.836
66025W        W32808  36.639  19.373  10.230
66026W        W32809  17.227  26.519   2.272
66027W        W32810  30.651  42.080   1.899
66028W        W32811  29.213  15.770  14.519
66029W        W32812   9.028   9.924   2.334
66030W        W32813  17.504  38.850  12.465
66031W        W32814  18.060  12.805   4.068
66032W        W32815  34.967  40.790   2.511
66033W        W32816   1.482   6.139  14.883
66034W        W32817   3.198  31.938   1.267
66035W        W32818  11.385  43.399   2.330
66036W        W32819   0.966  12.922  12.904
66037W        W32820   3.000  12.782  13.053
66038W        W32821  30.515  14.597   4.524
66039W        W32822   0.388  35.317   4.434
66040W        W32823   5.488  42.763  14.124
66041W        W32824  31.096  10.608   3.074
66042W        W32825  36.944   2.608   1.716
66043W        W32826   2.356  36.160   1.278
66044W        W32827  24.068   9.785  11.977
66045W        W32828  43.549  41.074   3.347
66046W        W32829  28.041  22.486   0.845
66047W        W32830  40.221   1.964   1.705
66048W        W32831  23.684  16.107  11.582
66049W        W32832  15.513  43.491  11.737
66050W        W32833  43.039  18.555   2.067
66051W        W32834  40.444  21.467   1.452
66052W        W32835  39.825  44.860  14.019
66053W        W32836  29.110   4.037  12.665
66054W        W32837   1.736  42.355   1.952
66055W        W32838   3.262  29.652   0.728
66056W        W32839   3.469  43.053  11.176
66057W        W32840  32.543  41.760   3.749
66058W        W32841  29.771  13.140   3.006
66059W        W32842   0.985  14.347   0.418
66060W        W32843  21.105  29.671  13.303
66061W        W32844  34.689  31.135   0.741
66062W        W32845  11.650  29.855   4.217
66063W        W32846  43.448   7.137  13.048
66064W        W32847  25.259  13.722   1.926
66065W        W32848   7.057   2.741   4.102
66066W        W32849  31.345  28.024  14.891
66067W        W32850   6.930  20.030  10.703
66068W        W32851   8.955  40.517   2.338
66069W        W32852  13.848  29.679   1.227
66070W        W32853  43.558  10.294  12.968
66071W        W32854  11.595   7.435   4.260
66072W        W32855   1.959  42.304  10.768
66073W        W32856  35.524  30.665   0.412
66074W        W32857   9.035  26.410  12.840
66075W        W32858  43.044  34.128  14.438
66076W        W32859  28.632  30.855  14.339
66077W        W32860  12.438  10.688  13.872
66078W        W32861  15.202  37.755  14.770
66079W        W32862  13.486  41.737   1.500
66080W        W32863   7.210  33.066  14.228
66081W        W32864  28.943  44.304   0.310
66082W        W32865  38.993   9.897   2.311
66083W        W32866  40.959  10.377   3.350
66084W        W32867  11.455  28.520   0.897
66085W        W32868  21.994  13.891   3.257
66086W        W32869  30.739  28.029  13.623
66087W        W32870  31.423  32.519   2.114
66088W        W32871  41.679  21.286  12.391
66089W        W32872   8.057  14.858   1.956
66090W        W32873  36.254  27.768   1.942
66091W        W32874  30.246  44.198  14.852
66092W        W32875  29.220  38.010  13.334
66093W        W32876  17.221  20.222   2.117
66094W        W32877  42.576   4.179   3.318
66095W        W32878  14.352   3.745   4.286
66096W        W32879   5.822  40.575   2.171
66097W        W32880   5.718  41.891   0.053
66098W        W32881  35.445  19.774   2.669
66099W        W32882   4.331   3.874   3.412
66100W        W32883   6.386  21.265   3.115
66101W        W32884  24.566   6.014  12.317
66102W        W32885  26.986  34.953  13.543
66103W        W32886  25.174  27.225  14.424
66104W        W32887  31.633  23.630  11.546
66105W        W32888  42.901  44.221  10.624
66106W        W32889   4.163   8.430   3.729
66107W        W32890  43.909  13.662   1.043
66108W        W32891   8.675  33.676   3.294
66109W        W32892  28.496  20.467   0.092
66110W        W32893   7.863  42.835  11.768
66111W        W32894  16.339   7.872  14.695
66112W        W32895  32.632   7.823  14.387
66113W        W32896  32.555  22.708  10.280
66114W        W32897  31.661  34.811  11.196
66115W        W32898  38.207  39.267   1.347
66116W        W32899  31.432   6.659  13.455
66117W        W32900  14.190  38.882  10.290
66118W        W32901  12.458  43.749  12.368
66119W        W32902  38.418  27.137  10.494
66120W        W32903  25.645  11.846   2.917
66121W        W32904  33.997  14.949   3.707
66122W        W32905   1.839   0.635   4.236
66123W        W32906  22.605   4.357  12.517
66124W        W32907  23.683   9.917   0.716
66125W        W32908   5.226  33.379  12.832
66126W        W32909  22.205   2.960   2.141
66127W        W32910   9.722  25.257   2.666
66128W        W32911   1.015   3.360  12.115
66129W        W32912  24.692  32.302  12.993
66130W        W32913   6.691  31.680  12.800
66131W        W32914  42.792  29.520  13.045
66132W        W32915  10.974  36.339   0.312
66133W        W32916  31.045  21.909  12.497
66134W        W32917  10.654  24.223   2.218
66135W        W32918   6.714  36.300  10.762
66136W        W32919  32.558  42.523   1.265
66137W        W32920  20.014  17.688   3.691
66138W        W32921  19.397  36.129  13.750
66139W        W32922  43.515   8.588  14.607
66140W        W32923  36.944  34.426  11.773
66141W        W32924   0.341  15.631   9.855
66142W        W32925   2.312  43.288  13.344
66143W        W32926  33.852  11.702   2.744
66144W        W32927  16.335  10.705   2.787
66145W        W32928  30.705  16.335   4.915
66146W        W32929  26.912  13.830  11.498
66147W        W32930  36.317  28.273   1.923
66148W        W32931  24.629   2.179   3.175
66149W        W32932   8.028  24.518  10.809
66150W        W32933   3.147  28.742   1.757
66151W        W32934   6.839  17.844  12.855
66152W        W32935  27.548   0.677   3.744
66153W        W32936  36.443  17.388   9.770
66154W        W32937  36.591   0.338   1.177
66155W        W32938  23.314  41.552   3.273
66156W        W32939  36.021  26.244   2.884
66157W        W32940   5.940  38.601   2.160
66158W        W32941  34.884   2.181  12.375
66159W        W32942  39.898  23.000  11.578
66160W        W32943  30.181   0.797   0.058
66161W        W32944  36.343  25.241   3.584
66162W        W32945  33.533  30.684   2.785
66163W        W32946  34.864  14.305   3.228
66164W        W32947   5.386  43.659   1.939
66165W        W32948  42.351  37.766   4.689
66166W        W32949  30.970  37.099   3.379
66167W        W32950  10.776  34.958   3.875
66168W        W32951  13.041  43.253  10.812
66169W        W32952  20.779  33.316   3.279
66170W        W32953  13.363   9.357  13.424
66171W        W32954  40.108   0.231   4.721
66172W        W32955  11.157   6.194  12.330
66173W        W32956   2.278  21.229   0.332
66174W        W32957  31.147  38.552   1.370
66175W        W32958  37.807  23.470   1.322
66176W        W32959   4.493   7.624  11.061
66177W        W32960   1.976  35.584  13.041
66178W        W32961   9.086  10.769   3.290
66179W        W32962   5.269  24.315  13.934
66180W        W32963  31.572   2.809   4.596
66181W        W32964  25.050   6.902  10.643
66182W        W32965  25.448  13.287  11.132
66183W        W32966  38.030  18.515   1.238
66184W        W32967  21.216   3.472   2.688
66185W        W32968  22.152  40.255  11.037
66186W        W32969  29.666  15.740  10.308
66187W        W32970  15.752  31.928   4.667
66188W        W32971   9.161  41.904   4.630
66189W        W32972  18.261  30.536   3.275
66190W        W32973   4.415  19.762   0.819
66191W        W32974  35.857  42.621   1.457
66192W        W32975  16.082  19.813  14.481
66193W        W32976  36.509   0.752   4.714
66194W        W32977  24.659  38.458   0.193
66195W        W32978   3.855   4.263  14.308
66196W        W32979   8.451  28.552  14.480
66197W        W32980  37.743  37.331  11.653
66198W        W32981  44.516   1.309   1.916
66199W        W32982  28.603   3.594  10.987
66200W        W32983  26.589   8.019  12.639
66201W        W32984  18.620  18.910   1.824
66202W        W32985  14.054  22.084   3.705
66203W        W32986  39.565  22.670   4.710
66204W        W32987  29.020  40.294  12.969
66205W        W32988  33.562   8.601  12.106
66206W        W32989  15.104  37.373  14.346
66207W        W32990   0.955  11.582   0.823
66208W        W32991  22.199   5.388   0.831
66209W        W32992  25.677   5.708  10.285
66210W        W32993  44.566  35.529  13.872
66211W        W32994  19.226  32.616   0.369
66212W        W32995   1.849  39.239  14.050
66213W        W32996  21.105  44.444  14.319
66214W        W32997   6.351  21.768  11.049
66215W        W32998  19.631   0.957  12.512
66216W        W32999  22.140  20.541   4.153
66217W        W33000  27.702  26.606   2.357
66218W        W33001  25.515   3.704  14.406
66219W        W33002  21.692  33.144  12.756
66220W        W33003  33.988   7.871   2.998
66221W        W33004   5.478  42.466   3.820
66222W        W33005   1.957  22.643  10.615
66223W        W33006  13.674  18.277  14.357
66224W        W33007  33.406  21.064   2.724
66225W        W33008  27.195  38.092  14.358
66226W        W33009   5.337  19.664   3.138
66227W        W33010  32.958  22.476   4.104
66228W        W33011  10.862   4.288   1.457
66229W        W33012  36.007   2.747   2.410
66230W        W33013  37.488   5.880  13.517
66231W        W33014  28.217   0.324  12.047
66232W        W33015   2.557  15.712  12.963
66233W        W33016  18.555  15.339  12.601
66234W        W33017  36.240   8.677   2.172
66235W        W33018  14.516  28.616  11.763
66236W        W33019  44.851  11.431  14.017
66237W        W33020  34.590  19.614   4.515
66238W        W33021  44.470  13.934   2.306
66239W        W33022   3.663  44.036   3.630
66240W        W33023  24.043  43.513   3.709
66241W        W33024  12.761   3.345   3.489
66242W        W33025  15.789  17.760  12.839
66243W        W33026  42.221  42.288  12.620
66244W        W33027   2.926  18.703   3.793
66245W        W33028  12.614  35.479   3.035
66246W        W33029  31.073  33.232  14.329
66247W        W33030  26.607  18.896   2.850
66248W        W33031  42.959  32.121  14.016
66249W        W33032  21.572  42.438   0.377
66250W        W33033  36.070  30.709   3.862
66251W        W33034   7.853  12.911   0.567
66252W        W33035  28.625  42.478  13.127
66253W        W33036   1.356   4.191  12.521
66254W        W33037   7.730  43.329  10.451
66255W        W33038  26.052   8.301  11.190
66256W        W33039  21.133  44.469   3.179
66257W        W33040  19.666   9.798  11.735
66258W        W33041  44.795  37.401  11.641
66259W        W33042  41.108  24.651   4.599
66260W        W33043  16.220  38.484   4.470
66261W        W33044  37.183   9.169  12.010
66262W        W33045  12.345  31.816   0.198
66263W        W33046   4.870  20.696   1.415
66264W        W33047  26.714   0.277  11.553
66265W        W33048  17.118   6.478   0.428
66266W        W33049  11.799  44.782   1.361
66267W        W33050   9.172  32.022  14.458
66268W        W33051   3.915  22.965   1.820
66269W        W33052  17.364   7.747   1.350
66270W        W33053  41.516  25.257  12.720
66271W        W33054  14.225  17.246  14.551
66272W        W33055  33.597  23.146   2.353
66273W        W33056   3.499   3.728  10.668
66274W        W33057  24.673  24.235  14.383
66275W        W33058  11.392  41.897   4.648
66276W        W33059  11.749  12.358   2.206
66277W        W33060  36.950  38.383  11.620
66278W        W33061   3.062   9.262   0.377
66279W        W33062  33.182   2.930   3.748
66280W        W33063  10.583  39.025   4.625
66281W        W33064  29.695   2.090   3.160
66282W        W33065  29.874  38.851  10.458
66283W        W33066   9.272  42.351  14.503
66284W        W33067  15.771  23.225   2.696
66285W        W33068  32.706  33.012   1.358
66286W        W33069  22.290  26.522  14.921
66287W        W33070  23.209  34.110   4.578
66288W        W33071   6.699   0.694   1.885
66289W        W33072  34.523  10.293  10.100
66290W        W33073  36.432  27.768  10.820
66291W        W33074   4.767  44.650  10.666
66292W        W33075  26.349   4.654   4.033
66293W        W33076  29.740  40.249  11.205
66294W        W33077  23.435   3.564   3.106
66295W        W33078  44.354  11.820  10.785
66296W        W33079   6.463   1.984   2.126
66297W        W33080   5.273  19.297  10.644
66298W        W33081  18.607  36.446  10.982
66299W        W33082  19.571  25.773   1.572
66300W        W33083  26.169   0.832  11.222
66301W        W33084  40.758  14.050  11.704
66302W        W33085  23.010  39.313   4.965
66303W        W33086  17.034  40.197  10.284
66304W        W33087  11.738  10.268   9.898
66305W        W33088   4.760  23.294  13.036
66306W        W33089  33.123   3.757  12.902
66307W        W33090  40.735  43.521  11.189
66308W        W33091  36.548  28.687   5.044
66309W        W33092  40.894  26.535   1.777
66310W        W33093   5.895  19.780  11.611
66311W        W33094  38.320  31.838  10.653
66312W        W33095  40.872  24.605   1.560
66313W        W33096   1.937  14.083   1.345
66314W        W33097  26.202  36.569   4.742
66315W        W33098  19.493  11.813  12.997
66316W        W33099  19.387  44.903   4.304
66317W        W33100  20.077   8.327   3.776
66318W        W33101   6.668  25.018   0.348
66319W        W33102  27.851  43.963  12.340
66320W        W33103   6.357  16.727  11.322
66321W        W33104  39.097   3.414   0.638
66322W        W33105  28.896  25.008  11.577
66323W        W33106  24.048  25.623   3.608
66324W        W33107  43.860  37.306  14.438
66325W        W33108   7.230   1.162  14.982
66326W        W33109  19.069  13.190   0.839
66327W        W33110  39.526  32.674   0.063
66328W        W33111  39.079  28.347   1.496
66329W        W33112  20.024  36.975   1.567
66330W        W33113  32.674  41.629  10.637
66331W        W33114  13.355   8.720  14.838
66332W        W33115  31.186   6.280  10.704
66333W        W33116  26.528  25.837  14.458
66334W        W33117   5.472  36.349  14.967
66335W        W33118  16.189  12.661   2.902
66336W        W33119  16.208  28.034   2.125
66337W        W33120  18.979  30.352   2.727
66338W        W33121  37.661  40.922   2.695
66339W        W33122  32.169  26.886   1.666
66340W        W33123  40.034  36.101   3.642
66341W        W33124  18.595  29.205  12.001
66342W        W33125  40.432  17.168   1.891
66343W        W33126  17.840  29.784  10.431
66344W        W33127  10.806  24.172  14.531
66345W        W33128  34.419  14.298  10.635
66346W        W33129  41.174   7.192   4.518
66347W        W33130  27.692  39.060  14.045
66348W        W33131  10.747   6.675   2.341
66349W        W33132  26.739  38.487  11.083
66350W        W33133   3.643   7.054   3.627
66351W        W33134   4.404   2.921   2.734
66352W        W33135  31.151  16.618   1.894
66353W        W33136   5.116  10.787   1.189
66354W        W33137  14.835   2.661   4.735
66355W        W33138  10.169  32.438  12.811
66356W        W33139  23.465  28.081   0.285
66357W        W33140  37.736   5.021  13.389
66358W        W33141  28.561   4.677  11.042
66359W        W33142  19.023   6.939   2.844
66360W        W33143  37.667   6.637   2.385
66361W        W33144  19.110  28.883   1.393
66362W        W33145  16.332  16.747  13.091
66363W        W33146   4.407   9.831   4.089
66364W        W33147   7.949   3.212  10.303
66365W        W33148  35.929  36.015  14.076
66366W        W33149  18.649  37.406   3.694
66367W        W33150  27.430  33.442   0.879
66368W        W33151  16.718   7.743  13.565
66369W        W33152   9.274  11.041   2.889
66370W        W33153   0.208  25.557   1.629
66371W        W33154  36.135  37.682   4.467
66372W        W33155  31.897   8.274  12.203
66373W        W33156  37.877  29.139  11.982
66374W        W33157  24.053  36.865   1.958
66375W        W33158  26.997  29.407  11.261
66376W        W33159   4.470  38.569   0.493
66377W        W33160  32.967  11.380   4.140
66378W        W33161  42.515  26.706  12.856
66379W        W33162  19.156  43.708   3.654
66380W        W33163  40.497   1.747  11.660
66381W        W33164  30.528  36.405  13.637
66382W        W33165  16.811  22.714  11.116
66383W        W33166  21.678   5.165   0.842
66384W        W33167   6.151  19.167  12.948
66385W        W33168  20.078   4.282  11.558
66386W        W33169   8.678   0.232  10.717
66387W        W33170  42.398  29.609  11.510
66388W        W33171  40.522  30.340   2.462
66389W        W33172  42.807  24.061  13.067
66390W        W33173   5.392  14.189  13.990
66391W        W33174   3.331   9.932   1.317
66392W        W33175   7.289  27.554  14.541
66393W        W33176  27.030  20.725  13.395
66394W        W33177  11.310  24.092   0.789
66395W        W33178  12.555  42.286  11.674
66396W        W33179  22.524   4.745  12.166
66397W        W33180  36.103  20.741  15.000
66398W        W33181  25.012  27.614   2.233
66399W        W33182   1.810   4.949  11.992
66400W        W33183  40.966   5.892  13.366
66401W        W33184  30.473  15.754  12.438
66402W        W33185   8.328  32.404   4.015
66403W        W33186  18.367  17.608   1.801
66404W        W33187   5.146  10.536   3.238
66405W        W33188  13.769  39.038   2.126
66406W        W33189   4.868  38.816   2.938
66407W        W33190  41.834  15.766  12.558
66408W        W33191  25.628  33.532  12.932
66409W        W33192   2.811   5.694  13.809
66410W        W33193  27.175  36.851   4.430
66411W        W33194  33.468  31.984   0.783
66412W        W33195  24.114  20.179   4.211
66413W        W33196   2.425  26.211  13.024
66414W        W33197  27.275  21.640  11.225
66415W        W33198   4.695  21.621   4.865
66416W        W33199  36.010  10.358  10.187
66417W        W33200  40.747   7.083  11.410
66418W        W33201  17.008  14.652   2.774
66419W        W33202  39.587  42.491   0.238
66420W        W33203  21.342  10.674  12.929
66421W        W33204  27.550   5.775   1.321
66422W        W33205  18.195  33.999   4.747
66423W        W33206  20.067  44.462   1.748
66424W        W33207  34.009   4.890   3.749
66425W        W33208  22.572  27.532  13.928
66426W        W33209  31.522  43.373   1.558
66427W        W33210  20.098   8.926  11.942
66428W        W33211  26.695  23.421   3.917
66429W        W33212   4.423  18.421   0.875
66430W        W33213   2.202  40.600  13.949
66431W        W33214  41.897  36.298   3.682
66432W        W33215  20.529  37.009  13.839
66433W        W33216  40.416  36.897  12.508
66434W        W33217  11.083  37.114  14.272
66435W        W33218   5.962   8.177  13.018
66436W        W33219  32.444  43.861  11.254
66437W        W33220  33.100  32.340   3.302
66438W        W33221  30.845   6.699   2.745
66439W        W33222  20.413   5.384  10.196
66440W        W33223   2.353  33.666  13.302
66441W        W33224   8.397  31.154   1.428
66442W        W33225  32.689  18.251  11.523
66443W        W33226   4.031  29.850   2.764
66444W        W33227   1.493  37.412  11.204
66445W        W33228   9.057   1.316   4.585
66446W        W33229  12.115  35.385   0.868
66447W        W33230  10.405   2.765   2.444
66448W        W33231  37.272  41.160  11.886
66449W        W33232  33.529  42.855  10.930
66450W        W33233  12.260   2.816   0.830
66451W        W33234  33.076  24.219  12.998
66452W        W33235  27.604  32.331   3.539
66453W        W33236  22.282  22.044   1.056
66454W        W33237   2.604  33.479   2.601
66455W        W33238  40.992  20.999   4.112
66456W        W33239  29.509  26.448   2.377
66457W        W33240  17.996  43.483   4.340
66458W        W33241  38.008  13.603  13.313
66459W        W33242  28.101  39.384   4.120
66460W        W33243   6.760  25.207  14.842
66461W        W33244  43.620  12.018   4.602
66462W        W33245  28.410  19.119  14.418
66463W        W33246  17.251  31.359  11.160
66464W        W33247  30.641   1.909   3.871
66465W        W33248   1.950  29.138   0.387
66466W        W33249  10.071  27.573   3.125
66467W        W33250  41.869  40.796  13.847
66468W        W33251  28.529  34.614   0.303
66469W        W33252   5.140  16.118  12.853
66470W        W33253  27.157  36.400   4.711
66471W        W33254  42.082  41.284  13.904
66472W        W33255  15.788  41.893  14.934
66473W        W33256  22.494  14.681  13.549
66474W        W33257  16.183  25.538   2.874
66475W        W33258  33.955  42.412   1.122
66476W        W33259  24.099  34.501   0.398
66477W        W33260  14.761  41.751   3.186
66478W        W33261  39.304   3.983   4.088
66479W        W33262  19.160   2.831  11.214
66480W        W33263  29.415  44.320   1.709
66481W        W33264   8.153  26.729  11.941
66482W        W33265  31.524  34.977   3.395
66483W        W33266   0.460  22.640  13.457
66484W        W33267  33.438  40.273  14.945
66485W        W33268   9.338  18.318  12.864
66486W        W33269  10.499  20.338  10.736
66487W        W33270  42.848  15.750   1.622
66488W        W33271   8.097  15.621  14.216
66489W        W33272   8.894  36.842   4.185
66490W        W33273  15.201   8.773   2.740
66491W        W33274  41.382  31.585  13.478
66492W        W33275  18.075   4.703  12.479
66493W        W33276   5.166   5.242  14.398
66494W        W33277  13.166  39.549   2.442
66495W        W33278   4.843  41.715   3.703
66496W        W33279   2.719   5.721  12.954
66497W        W33280  44.360  14.415   2.285
66498W        W33281  19.614  10.325   5.135
66499W        W33282  39.596  39.449  13.399
66500W        W33283  12.228   0.753   2.571
66501W        W33284   7.831   7.153  12.141
66502W        W33285  42.425  19.038  12.873
66503W        W33286  20.805  16.345  13.271
66504W        W33287  23.128  41.543   1.335
66505W        W33288   0.934   0.110   4.385
66506W        W33289  19.513   3.811   1.455
66507W        W33290  17.244  36.626  11.095
66508W        W33291  36.278  32.287  10.374
66509W        W33292  33.450  24.715  13.450
66510W        W33293  37.864  21.659  13.058
66511W        W33294   8.877  24.615   3.157
66512W        W33295   7.970   4.922   2.110
66513W        W33296  15.586  15.680  10.258
66514W        W33297  39.989  10.167   3.287
66515W        W33298  39.331  14.092  12.603
66516W        W33299  13.115  26.463  12.380
66517W        W33300  14.288   3.015   3.651
66518W        W33301  38.592   1.291  14.124
66519W        W33302  21.467  44.310  11.480
66520W        W33303   8.149  41.764  14.512
66521W        W33304  34.748   4.493  12.769
66522W        W33305  35.624  16.637  11.678
66523W        W33306  29.641  11.112   2.380
66524W        W33307  40.939   8.941   3.339
66525W        W33308  29.398  18.196  10.749
66526W        W33309  41.868   0.281  11.385
66527W        W33310   2.303  28.110  12.635
66528W        W33311  15.362  31.823  11.578
66529W        W33312   5.005  21.237   4.674
66530W        W33313  12.022   6.792   3.535
66531W        W33314  41.896  44.495   3.704
66532W        W33315  30.167  35.939  14.725
66533W        W33316   8.403  10.304   2.934
66534W        W33317  14.547   4.316  13.481
66535W        W33318   0.384  29.633  11.732
66536W        W33319  19.964  42.484  13.841
66537W        W33320  27.167  19.152  12.621
66538W        W33321   1.304  29.807  11.608
66539W        W33322  33.554  28.946  14.369
66540W        W33323  37.862  35.770  14.109
66541W        W33324  37.856  10.904   1.136
66542W        W33325   3.421   7.774  13.449
66543W        W33326   9.350  31.085   4.594
66544W        W33327  13.235  33.353  11.306
66545W        W33328  20.244  21.006   0.069
66546W        W33329  26.335   5.729   0.690
66547W        W33330  44.651  37.329  10.782
66548W        W33331  18.354   5.110  11.959
66549W        W33332   1.752   9.744   0.372
66550W        W33333   6.405  32.672  14.435
66551W        W33334  13.651  10.702  13.268
66552W        W33335  17.280  27.417  13.833
66553W        W33336  20.846  14.697   4.172
66554W        W33337   9.634  41.929   1.642
66555W        W33338  38.482  28.349   2.796
66556W        W33339   1.085  24.548  14.166
66557W        W33340   5.198  28.709   3.780
66558W        W33341  11.481   3.940   2.248
66559W        W33342  41.151   2.302  11.519
66560W        W33343  34.178  44.906   1.303
66561W        W33344   4.890   0.704   4.559
66562W        W33345  12.836  15.700   1.570
66563W        W33346  20.654  27.075   4.651
66564W        W33347  28.570  17.705  11.056
66565W        W33348  24.727  26.714   5.149
66566W        W33349  25.412  12.731   3.355
66567W        W33350   3.958  24.609   0.338
66568W        W33351   1.808  24.680   3.451
66569W        W33352  41.234  15.319   0.410
66570W        W33353  25.866  43.738   1.996
66571W        W33354  16.167  31.056  13.738
66572W        W33355  41.563   5.944   3.166
66573W        W33356  28.030  40.111  13.422
66574W        W33357   3.303  28.899  10.417
66575W        W33358  34.774   4.076   5.285
66576W        W33359  21.535  27.727   4.849
66577W        W33360  26.506  28.748   2.014
66578W        W33361  13.247  41.461   0.392
66579W        W33362  36.544  15.092  10.783
66580W        W33363  41.355  40.497   2.407
66581W        W33364  34.902   3.683   1.259
66582W        W33365  29.449  24.130  10.737
66583W        W33366  43.744  17.904   3.759
66584W        W33367  40.955  30.673   2.457
66585W        W33368  14.349  15.141  13.969
66586W        W33369   1.566  41.295   3.184
66587W        W33370  27.378  31.779  13.483
66588W        W33371   7.728  18.123   2.253
66589W        W33372   4.359  33.034   3.299
66590W        W33373  27.217  14.348   4.203
66591W        W33374  33.792  44.829  11.576
66592W        W33375   5.374  16.992  14.369
66593W        W33376  33.092  12.358   4.097
66594W        W33377  37.550   6.069  13.983
66595W        W33378  41.251   8.632  11.810
66596W        W33379  19.048  26.158  10.506
66597W        W33380  25.532  32.031   4.067
66598W        W33381  25.874  44.474  10.981
66599W        W33382  39.332  23.577   3.263
66600W        W33383  40.024  43.868  14.845
66601W        W33384  18.258  16.128  11.138
66602W        W33385  22.935  11.716  12.559
66603W        W33386  25.002   6.909   3.691
66604W        W33387  10.696  12.167  12.583
66605W        W33388   1.954  22.266   1.428
66606W        W33389  30.261  32.731   3.785
66607W        W33390   8.593   0.861  14.797
66608W        W33391  29.030  41.676  12.370
66609W        W33392  10.875  17.527   3.411
66610W        W33393  29.396   0.540   3.605
66611W        W33394  19.997  19.116   1.906
66612W        W33395  15.787   6.267  13.959
66613W        W33396  31.425  18.313  14.755
66614W        W33397  27.360  41.342  12.872
66615W        W33398  24.206   2.307   3.582
66616W        W33399  31.926  15.251   1.365
66617W        W33400   8.465   4.948   0.951
66618W        W33401  28.951  34.485   0.561
66619W        W33402  35.110   2.837  14.190
66620W        W33403  20.639   8.411   1.503
66621W        W33404  17.792  24.800   3.042
66622W        W33405  37.894   0.008  14.839
66623W        W33406   7.872  10.031   2.607
66624W        W33407  24.794   6.803  11.080
66625W        W33408  13.249  27.549  13.046
66626W        W33409  36.806   9.764   2.293
66627W        W33410  17.566  28.928  13.089
66628W        W33411  33.417  12.947   2.792
66629W        W33412   4.996   7.443  10.299
66630W        W33413  27.979  27.766   1.867
66631W        W33414  39.973  24.676   0.026
66632W        W33415   7.729  29.086   1.479
66633W        W33416   4.200  37.649  13.943
66634W        W33417  32.908  42.369  14.114
66635W        W33418  10.971  22.727  10.773
66636W        W33419  17.951  44.856   2.865
66637W        W33420  29.167   2.449   2.319
66638W        W33421  13.130   0.280  11.564
66639W        W33422  15.272  17.357  11.116
66640W        W33423  33.111  28.778   3.566
66641W        W33424  10.644   8.008   3.972
66642W        W33425  31.555  34.766  12.929
66643W        W33426   7.766  26.495   4.329
66644W        W33427  41.406  44.848  13.318
66645W        W33428  44.370  42.911  12.056
66646W        W33429   2.737   6.507   3.667
66647W        W33430  39.796  34.456   3.152
66648W        W33431  34.137  36.710  12.505
66649W        W33432  35.448   9.870  12.905
66650W        W33433  35.898   9.857  12.546
66651W        W33434  29.622  41.471  12.205
66652W        W33435  40.872  42.728   0.807
66653W        W33436   7.524  37.101  14.986
66654W        W33437  34.319  27.874   2.796
66655W        W33438  31.455   0.905  13.439
66656W        W33439  16.366  41.576  13.714
66657W        W33440  42.520  25.560  11.796
66658W        W33441  20.081  12.824   4.157
66659W        W33442   2.805  15.146  10.768
66660W        W33443  44.653  37.950   2.020
66661W        W33444  11.617   7.881   2.687
66662W        W33445  38.882  15.246   1.839
66663W        W33446   8.497  23.671  10.606
66664W        W33447  23.527   5.771   1.378
66665W        W33448  19.189   0.708   4.583
66666W        W33449  36.063  26.538  12.180
66667W        W33450  24.425   9.638  12.306
66668W        W33451   7.324  22.059   4.709
66669W        W33452  17.113  10.498  10.669
66670W        W33453  38.843   0.978   3.445
66671W        W33454  43.824  43.278  13.472
66672W        W33455  43.549  17.893  13.395
66673W        W33456  14.204   6.243  12.605
66674W        W33457  27.464  44.496  13.423
66675W        W33458   6.892  19.204  12.177
66676W        W33459   5.920  35.486   1.641
66677W        W33460   9.129   4.275  14.821
66678W        W33461  19.461  31.083   5.076
66679W        W33462   0.735   8.217   3.142
66680W        W33463  15.845  14.728  14.843
66681W        W33464   6.833  14.154  13.891
66682W        W33465  21.760  44.340  11.050
66683W        W33466  32.861  10.948  14.045
66684W        W33467  36.414  23.131  14.005
66685W        W33468  30.911  42.477  12.446
66686W        W33469   8.220  39.337   0.793
66687W        W33470  29.919  43.987   4.081
66688W        W33471  28.276  34.617   4.252
66689W        W33472  18.715  41.272   2.164
66690W        W33473  21.572  38.818  11.137
66691W        W33474  25.480  37.045  11.644
66692W        W33475  15.379   5.704   0.398
66693W        W33476   9.859  36.321   9.990
66694W        W33477  20.314  34.120   0.186
66695W        W33478  33.111   1.215  12.488
66696W        W33479  33.459  35.615  12.489
66697W        W33480   3.680  20.192  10.580
66698W        W33481  11.411  34.057   1.788
66699W        W33482  20.232   2.851   1.288
66700W        W33483  28.429  10.336   2.083
66701W        W33484   0.554  39.313  12.356
66702W        W33485   2.229  25.227   9.647
66703W        W33486  28.043  18.152  14.905
66704W        W33487  16.232  27.500  10.568
66705W        W33488  34.303  14.448  13.785
66706W        W33489  21.951  42.885   3.314
66707W        W33490   5.297  19.969   2.692
66708W        W33491  39.879  12.356  12.539
66709W        W33492  33.336  35.034   1.778
66710W        W33493  10.788  37.064   2.721
66711W        W33494  19.643  12.416  12.059
66712W        W33495  12.031  10.904  10.168
66713W        W33496  20.006   8.906  10.216
66714W        W33497  40.059  12.337   3.835
66715W        W33498  11.663   0.233   4.267
66716W        W33499   6.213  28.735   4.085
66717W        W33500  15.873   5.421  13.234
66718W        W33501  15.028  15.286   0.764
66719W        W33502  27.920  20.831  13.310
66720W        W33503  11.651  11.833   4.133
66721W        W33504  39.474   7.472  14.001
66722W        W33505  29.538  37.379   1.630
66723W        W33506  30.373  27.656   1.992
66724W        W33507  17.691  22.241  13.299
66725W        W33508  20.211  20.624  13.311
66726W        W33509  35.614  28.503  14.539
66727W        W33510   8.838  33.546   2.351
66728W        W33511  41.663  41.646  11.558
66729W        W33512  18.225  17.328   0.954
66730W        W33513  25.815  17.363  12.600
66731W        W33514   8.515  23.087   2.711
66732W        W33515  37.457  37.276   0.247
66733W        W33516   8.092   9.309   2.628
66734W        W33517  37.882  39.807   4.024
66735W        W33518  44.996  26.483   4.142
66736W        W33519   9.348  14.311  13.386
66737W        W33520  29.182  13.902  14.393
66738W        W33521  28.468  17.142   1.953
66739W        W33522   4.154   2.269   2.469
66740W        W33523   3.665  40.634   0.741
66741W        W33524  20.954  31.863   0.675
66742W        W33525  26.832  28.069  13.928
66743W        W33526  10.965   5.477   4.973
66744W        W33527   1.830  23.672   4.682
66745W        W33528  28.640  12.675   0.521
66746W        W33529  15.516  16.709   4.666
66747W        W33530  39.430  25.030  11.593
66748W        W33531   0.523   0.154  12.183
66749W        W33532  38.966  15.762  11.125
66750W        W33533  43.047  28.343  14.947
66751W        W33534  28.970  14.091  10.659
66752W        W33535  36.070  29.405  11.164
66753W        W33536  13.882  18.740   0.251
66754W        W33537   1.788  31.608  12.123
66755W        W33538  12.757  41.794   2.285
66756W        W33539  33.967  30.533   1.659
66757W        W33540  21.200  21.229   4.664
66758W        W33541  27.187  39.073   3.129
66759W        W33542  18.548  44.978  10.048
66760W        W33543  36.979  40.632   3.202
66761W        W33544  39.477  39.030  10.143
66762W        W33545  15.382  27.667   2.646
66763W        W33546  42.964   2.280   4.427
66764W        W33547  34.292  14.940  13.920
66765W        W33548  26.939   4.254   2.848
66766W        W33549  22.261  28.948  13.122
66767W        W33550  36.300  25.462  11.250
66768W        W33551  14.163   3.515   4.711
66769W        W33552  29.964  28.229   3.906
66770W        W33553  42.443  32.091  14.260
66771W        W33554   6.698  32.840   3.309
66772W        W33555   1.405  37.273   4.530
66773W        W33556   5.071  14.037   1.463
66774W        W33557   7.898  29.940   3.210
66775W        W33558  16.269  18.716   3.161
66776W        W33559   6.018  42.835   5.043
66777W        W33560  26.240   6.753   1.338
66778W        W33561   8.817   8.242   0.635
66779W        W33562  25.092  25.174   1.709
66780W        W33563  18.611  42.839   4.878
66781W        W33564  15.905  33.235  10.434
66782W        W33565   5.145  43.542  11.401
66783W        W33566  19.980   4.296   4.784
66784W        W33567  11.338  23.557  10.942
66785W        W33568  36.941   6.236   0.594
66786W        W33569  39.981  41.515  13.099
66787W        W33570  38.849  18.830   0.748
66788W        W33571  12.681  14.654   2.376
66789W        W33572  33.736  15.969  14.247
66790W        W33573  20.113  16.317   0.812
66791W        W33574  42.651   5.404   5.011
66792W        W33575  13.171  26.860   0.700
66793W        W33576  17.547  35.775  12.353
66794W        W33577  15.110  30.992   2.719
66795W        W33578  31.241   3.206   0.982
66796W        W33579   4.426  19.843  13.971
66797W        W33580  18.258  40.023  13.935
66798W        W33581  43.191  33.542   0.463
66799W        W33582  39.939  29.772   0.892
66800W        W33583   0.809  39.273   3.654
66801W        W33584  31.603  44.052  14.059
66802W        W33585   1.083  38.308  13.474
66803W        W33586   0.675  14.827   0.400
66804W        W33587  24.013   1.917   9.793
66805W        W33588  22.800  22.721   0.801
66806W        W33589  41.858  16.834  12.655
66807W        W33590   2.614  11.225   0.623
66808W        W33591  16.765  28.876   1.713
66809W        W33592  13.742  44.737   1.350
66810W        W33593   7.544   3.227  13.913
66811W        W33594   3.079  26.516   0.934
66812W        W33595  40.548  22.631  13.538
66813W        W33596  21.498   1.691  13.036
66814W        W33597  30.731  34.870  12.340
66815W        W33598  18.998  10.442  13.972
66816W        W33599   5.308  30.783  13.780
66817W        W33600  38.543  14.809   0.785
66818W        W33601  19.027  22.654   4.533
66819W        W33602  37.550  27.443   2.379
66820W        W33603  22.772  33.795  11.164
66821W        W33604  20.280   7.172  13.394
66822W        W33605  35.164  23.689   1.897
66823W        W33606  10.769  11.800   0.337
66824W        W33607  22.454  41.884   1.403
66825W        W33608  28.448  20.610  14.591
66826W        W33609  37.434  27.423   3.867
66827W        W33610  12.746  37.902   2.087
66828W        W33611  19.641  32.182   3.475
66829W        W33612   9.647  25.801   0.866
66830W        W33613   7.803   3.353  14.726
66831W        W33614  30.054  39.078   3.712
66832W        W33615   4.364  12.446   1.682
66833W        W33616  30.611  16.573  14.422
66834W        W33617  40.031   0.631   3.725
66835W        W33618   2.971  38.034   1.965
66836W        W33619  26.062  11.668  14.657
66837W        W33620  25.242  11.538  14.951
66838W        W33621  28.298  43.009  11.465
66839W        W33622  12.754  26.929   2.618
66840W        W33623  15.681   0.452  14.926
66841W        W33624  21.094  30.634  13.396
66842W        W33625  36.546   1.454  11.276
66843W        W33626  28.199   7.843   2.615
66844W        W33627  41.861  34.492  11.133
66845W        W33628  35.131  22.630   4.155
66846W        W33629  19.140  18.330  10.789
66847W        W33630  12.727  40.769  12.966
66848W        W33631  13.354   7.603   0.133
66849W        W33632  21.791  19.686  11.736
66850W        W33633   5.059  13.071  10.017
66851W        W33634  37.632   7.148   2.390
66852W        W33635   4.885  19.644   2.652
66853W        W33636   4.889  44.513   3.143
66854W        W33637  23.243   6.346  10.961
66855W        W33638  31.447  25.302  13.391
66856W        W33639  24.602   8.268   3.538
66857W        W33640  16.255  19.377  13.354
66858W        W33641   4.354   1.861  10.472
66859W        W33642  14.303  19.082  12.128
66860W        W33643  34.038  44.860   0.261
66861W        W33644   7.347  18.693   1.734
66862W        W33645  21.787  32.387   3.725
66863W        W33646  10.037   0.320   0.007
66864W        W33647   0.012  22.821  12.213
66865W        W33648  22.224  12.467   0.883
66866W        W33649  15.138   3.470   1.708
66867W        W33650  32.392  17.010  12.493
66868W        W33651  17.139  39.484  10.721
66869W        W33652  42.241  13.364  11.787
66870W        W33653   7.057  24.650  12.415
66871W        W33654  24.633  35.445  12.587
66872W        W33655  40.907  28.659  14.518
66873W        W33656   2.948  15.689  14.380
66874W        W33657   6.182  12.342   4.148
66875W        W33658  41.416  35.972   4.908
66876W        W33659  24.459  13.660   3.105
66877W        W33660  32.670  14.834   3.195
66878W        W33661   7.325   5.848   2.942
66879W        W33662  18.853  29.266   3.180
66880W        W33663  19.554  22.343   4.188
66881W        W33664  43.450  12.628   5.008
66882W        W33665  41.075  11.233   0.760
66883W        W33666  21.972  12.147   2.245
66884W        W33667  33.436   9.240   3.515
66885W        W33668   6.680  38.335   4.224
66886W        W33669  19.084   4.013   2.359
66887W        W33670  33.509  25.726  14.327
66888W        W33671   6.567  12.759  12.176
66889W        W33672  41.503   1.062   0.044
66890W        W33673  28.406  42.528   0.354
66891W        W33674   9.291  39.011  14.296
66892W        W33675  13.042   1.203   4.356
66893W        W33676  18.608  30.532  13.452
66894W        W33677   9.867  23.272  11.908
66895W        W33678   9.028  42.852   9.679
66896W        W33679  25.060  13.708  11.223
66897W        W33680  16.328  32.612  11.458
66898W        W33681  13.516  12.406  12.986
66899W        W33682   0.851  28.980   2.238
66900W        W33683   2.676  10.174  14.461
66901W        W33684  38.232  10.793   0.775
66902W        W33685   2.123  27.229   1.487
66903W        W33686  11.649   6.670  14.823
66904W        W33687  37.834  27.282   3.179
66905W        W33688  20.697   6.280   0.925
66906W        W33689   8.707  37.140   1.377
66907W        W33690  20.679  23.234  14.383
66908W        W33691  16.530  44.790  14.972
66909W        W33692  16.918  34.547  11.581
66910W        W33693  43.726   7.630   0.007
66911W        W33694  27.142  17.513   2.580
66912W        W33695  29.914  40.844   3.264
66913W        W33696   5.125  18.833   4.169
66914W        W33697  33.977   3.322  14.924
66915W        W33698   6.228  41.350   2.770
66916W        W33699  14.141  13.121   3.158
66917W        W33700  40.955  39.886   3.132
66918W        W33701  22.261   2.376  11.432
66919W        W33702  35.176  40.448   2.854
66920W        W33703  42.843  24.813   4.559
66921W        W33704  12.592   1.045   2.848
66922W        W33705  25.439   8.674   4.961
66923W        W33706  43.957   3.773  11.219
66924W        W33707  32.361  17.360  12.863
66925W        W33708   3.071  14.816   2.626
66926W        W33709  32.445   7.847  10.597
66927W        W33710  20.341  14.276   2.651
66928W        W33711  36.478  21.462   4.124
66929W        W33712  17.529  22.234   4.691
66930W        W33713  38.747   0.557  12.436
66931W        W33714  21.607  38.612  13.430
66932W        W33715  29.951  13.846  13.486
66933W        W33716   2.978  20.750   0.925
66934W        W33717  35.833   0.040  10.945
66935W        W33718  19.978   2.465   5.261
66936W        W33719  27.165  42.766  10.642
66937W        W33720   5.930  42.977  13.922
66938W        W33721  37.593   3.409  12.529
66939W        W33722  20.429   3.540  11.005
66940W        W33723   7.788  42.903   0.449
66941W        W33724   2.882  15.224   1.806
66942W        W33725  29.096  29.908  14.970
66943W        W33726   8.288  27.418  12.522
66944W        W33727   2.823  34.862   1.242
66945W        W33728  12.808  23.761  11.213
66946W        W33729  20.246   1.972   1.384
66947W        W33730  11.630  42.813  13.884
66948W        W33731  41.007  34.946  13.566
66949W        W33732  35.314   9.772   4.711
66950W        W33733  38.114   9.779   1.763
66951W        W33734  36.067   9.416  14.774
66952W        W33735  28.108  17.278   4.554
66953W        W33736  39.200  40.341   4.128
66954W        W33737  43.144  34.051  11.882
66955W        W33738  14.576  11.904   3.310
66956W        W33739  13.175  12.420  11.016
66957W        W33740  37.792   7.374   1.937
66958W        W33741  26.554  15.146   0.743
66959W        W33742   8.392  37.340   3.736
66960W        W33743  24.579  20.279  12.983
66961W        W33744  22.470  30.066   0.942
66962W        W33745  11.397  22.220   1.367
66963W        W33746  24.483  26.469  11.526
66964W        W33747   0.870  25.243  12.153
66965W        W33748  25.980  19.066   0.777
66966W        W33749   6.016  33.636   3.266
66967W        W33750   9.759  34.104  13.341
66968W        W33751   8.251  37.643   2.644
66969W        W33752  12.599  32.185  13.545
66970W        W33753  42.771  31.443   2.770
66971W        W33754  16.159  12.386   3.338
66972W        W33755  30.439  19.177   1.611
66973W        W33756  35.046  26.112  13.512
66974W        W33757  28.426  35.947  11.670
66975W        W33758  33.536  24.461  12.987
66976W        W33759  28.073  30.128   3.892
66977W        W33760   4.405  31.470  14.942
66978W        W33761  39.986   1.192   1.938
66979W        W33762  28.515  16.179   4.400
66980W        W33763  16.817  29.093   3.590
66981W        W33764  44.306  24.504   4.374
66982W        W33765  24.639   2.223  12.469
66983W        W33766   3.026  41.511   2.893
66984W        W33767  24.133  28.322  13.865
66985W        W33768  43.257  36.980  10.557
66986W        W33769  34.556   7.815   1.010
66987W        W33770   6.927   2.310  13.994
66988W        W33771   2.973  22.555  13.135
66989W        W33772  16.786  30.700   1.957
66990W        W33773   5.610  18.098  12.024
66991W        W33774  11.594  15.732  13.321
66992W        W33775   1.253   5.840   4.683
66993W        W33776   3.420  41.889   4.592
66994W        W33777  15.705  36.279  12.140
66995W        W33778  44.873   5.228   2.758
66996W        W33779   7.718  39.450   3.734
66997W        W33780  38.622  30.713  10.967
66998W        W33781  19.690  18.753   2.141
66999W        W33782  42.114  34.820  10.637
67000W        W33783  27.590  38.352  13.305
67001W        W33784   5.323  37.318   2.187
67002W        W33785  35.140  20.395   2.601
67003W        W33786  22.668  34.567   2.357
67004W        W33787  32.131  25.031  13.729
67005W        W33788  27.942  10.626  11.558
67006W        W33789  25.640  27.484   4.725
67007W        W33790  22.119  24.638   3.202
67008W        W33791  40.672  42.970   3.333
67009W        W33792   8.988  41.866  12.854
67010W        W33793   3.908  28.198  14.373
67011W        W33794  34.983   7.915  11.792
67012W        W33795   4.911  23.941   3.568
67013W        W33796  36.945  14.367   1.562
67014W        W33797  22.216  10.211   0.237
67015W        W33798  36.338  37.489   1.895
67016W        W33799  28.404  34.114  11.997
67017W        W33800   5.533  31.910  11.147
67018W        W33801  20.539  14.292  14.433
67019W        W33802  13.099  41.084  11.655
67020W        W33803  27.550  13.014   2.483
67021W        W33804  22.227  42.080  14.788
67022W        W33805   4.271  34.767   0.447
67023W        W33806  40.039   3.292  13.427
67024W        W33807  38.565  31.005   4.168
67025W        W33808  36.430  36.534  14.515
67026W        W33809  16.761  22.167   2.799
67027W        W33810  43.164  30.208  11.569
67028W        W33811   9.180   8.538  10.773
67029W        W33812  33.829   1.525  13.936
67030W        W33813  12.598  11.649   0.918
67031W        W33814  25.062  10.445  10.803
67032W        W33815  44.514  15.811  10.670
67033W        W33816  39.051  40.913   2.590
67034W        W33817   6.348  16.658  10.822
67035W        W33818   3.609  32.137  13.639
67036W        W33819  22.992  44.531   3.618
67037W        W33820   6.785  42.997   2.862
67038W        W33821  17.366  34.345  11.770
67039W        W33822  35.481  44.304   3.113
67040W        W33823   0.549  11.698  12.338
67041W        W33824  37.588  43.104  13.390
67042W        W33825  44.522  44.491   1.370
67043W        W33826  35.479  28.028  14.707
67044W        W33827  17.535  10.807  14.700
67045W        W33828  20.891  37.033   0.769
67046W        W33829  30.783  28.876  13.413
67047W        W33830  24.639   5.929   2.722
67048W        W33831   4.405  32.131  10.662
67049W        W33832  37.533  34.646   1.664
67050W        W33833  26.536  22.996  11.104
67051W        W33834   2.435  32.686   2.989
67052W        W33835  11.308  22.087   2.323
67053W        W33836  35.105  34.610  12.022
67054W        W33837  39.088  42.905  14.289
67055W        W33838  15.914  37.406  12.925
67056W        W33839  19.775  16.223  13.769
67057W        W33840  32.522  35.762   0.417
67058W        W33841   5.671  44.353   1.263
67059W        W33842  27.381  43.730   1.493
67060W        W33843  21.754  36.389  11.204
67061W        W33844  21.578  13.920   0.158
67062W        W33845  44.006  24.072   1.182
67063W        W33846  43.050   1.350  14.886
67064W        W33847  19.779  28.830  13.382
67065W        W33848  10.390  43.997   1.880
67066W        W33849   4.553  10.384   1.934
67067W        W33850   8.664  22.088   4.915
67068W        W33851  39.298  43.774   4.221
67069W        W33852  42.435  25.708   2.844
67070W        W33853  18.207  27.102  10.682
67071W        W33854  23.069  13.698  13.752
67072W        W33855  38.908  44.769  13.564
67073W        W33856  28.466  27.446   3.787
67074W        W33857  40.846  24.693   3.779
67075W        W33858  29.648  23.176   4.455
67076W        W33859  31.205  38.985  11.508
67077W        W33860  36.506  35.758   5.061
67078W        W33861  10.439   8.015   2.331
67079W        W33862  19.507   2.457   3.110
67080W        W33863  38.251  12.836  11.095
67081W        W33864  21.284  15.253   1.966
67082W        W33865  26.977  32.148  12.491
67083W        W33866  31.217   4.175   2.521
67084W        W33867   6.758  15.334  10.649
67085W        W33868  30.116  19.465  13.512
67086W        W33869   4.846  12.696   1.403
67087W        W33870   4.677   9.765   3.121
67088W        W33871   1.715  21.946   0.568
67089W        W33872  24.479  22.934   4.465
67090W        W33873   4.286  28.048  13.853
67091W        W33874  26.527  34.345  11.131
67092W        W33875  38.645  29.603   2.154
67093W        W33876   9.772  13.172  11.191
67094W        W33877   3.796  26.843   3.383
67095W        W33878  29.271  29.807   2.726
67096W        W33879  22.602  25.417   1.278
67097W        W33880  42.032   1.101  11.129
67098W        W33881   3.915  25.607  13.368
67099W        W33882  17.734  17.839  13.495
67100W        W33883  18.791  33.692   4.080
67101W        W33884  30.938   4.425   4.605
67102W        W33885   2.788  24.258  14.877
67103W        W33886  34.943   1.614   4.571
67104W        W33887  44.569  14.832  10.399
67105W        W33888   9.794  11.972  12.483
67106W        W33889   2.967  42.834  12.594
67107W        W33890  16.695  34.817  10.315
67108W        W33891  16.360  28.575   3.296
67109W        W33892  29.781  41.395   3.713
67110W        W33893  36.354  36.037   0.770
67111W        W33894  20.743  17.911  11.410
67112W        W33895  11.627   3.197   1.270
67113W        W33896  33.524  28.999   3.318
67114W        W33897  15.213  31.128   0.711
67115W        W33898   2.428  42.795  14.433
67116W        W33899   6.388  20.394  14.151
67117W        W33900   3.377  11.847   4.754
67118W        W33901  32.177  12.092   0.132
67119W        W33902  10.222  34.583  10.143
67120W        W33903  17.645  42.823   0.585
67121W        W33904  38.043  21.418   3.207
67122W        W33905  35.894  36.344   4.700
67123W        W33906  38.936  15.752  14.726
67124W        W33907  20.765  16.551  13.744
67125W        W33908  22.229   6.576   3.411
67126W        W33909  44.592  12.884  10.390
67127W        W33910  31.922  42.584  13.590
67128W        W33911  12.566  34.620  10.707
67129W        W33912  21.620  40.326  12.616
67130W        W33913  33.535  40.230   3.820
67131W        W33914  17.100  33.058  12.320
67132W        W33915  44.558  20.816  14.301
67133W        W33916  23.261  23.057   4.870
67134W        W33917  30.660   8.213  12.411
67135W        W33918   5.481   0.036   2.297
67136W        W33919  33.007  10.290  10.709
67137W        W33920  37.425  21.481  11.164
67138W        W33921   0.561   7.054   5.007
67139W        W33922  29.587  38.544   2.182
67140W        W33923  14.893  22.712   0.201
67141W        W33924  27.566  22.509  11.141
67142W        W33925  36.901  23.600  11.975
67143W        W33926   2.243   9.203  10.609
67144W        W33927  17.773  34.619   4.892
67145W        W33928  44.355  15.620   2.373
67146W        W33929  34.387  11.802   0.514
67147W        W33930  24.304  22.093   4.778
67148W        W33931  10.304   9.102  14.360
67149W        W33932  23.856  13.340   0.777
67150W        W33933  33.135  37.737  12.354
67151W        W33934  16.605  12.229   3.109
67152W        W33935  22.316  11.766   2.974
67153W        W33936  13.007  21.045  14.558
67154W        W33937   4.883  39.261  13.997
67155W        W33938   0.814  13.105  10.282
67156W        W33939  22.259  10.774   4.607
67157W        W33940  33.116  10.165  11.685
67158W        W33941   3.751  30.999   4.118
67159W        W33942  40.073  33.957  13.120
67160W        W33943  24.226  21.675  14.489
67161W        W33944  43.434  26.599   9.967
67162W        W33945  26.149   5.542  10.092
67163W        W33946  22.505  13.589   0.928
67164W        W33947   3.002  37.220  14.908
67165W        W33948  15.189  31.090   3.833
67166W        W33949  28.381  16.280   1.937
67167W        W33950  27.276  36.840  12.975
67168W        W33951  17.556  31.197   0.499
67169W        W33952  36.902   3.449  14.254
67170W        W33953  33.420  34.991   3.666
67171W        W33954  21.070  30.247   3.381
67172W        W33955  42.420  14.122   0.751
67173W        W33956  29.512   4.784  14.663
67174W        W33957  42.758  17.372  12.873
67175W        W33958  35.293   9.128  13.444
67176W        W33959  18.613  35.305   0.270
67177W        W33960  31.938  11.092  10.740
67178W        W33961  27.979   4.205   3.442
67179W        W33962  36.483  28.352  13.566
67180W        W33963  23.094  24.025  10.334
67181W        W33964  24.804   7.392   3.726
67182W        W33965  32.899   7.364  14.799
67183W        W33966  12.093  12.057   3.264
67184W        W33967  36.965  15.809   0.359
67185W        W33968   8.417   2.365   2.408
67186W        W33969  39.350  33.040   0.800
67187W        W33970  43.744  43.776   4.435
67188W        W33971  43.020  39.286   0.291
67189W        W33972  41.422  24.409   2.216
67190W        W33973  43.832  20.130  14.959
67191W        W33974  29.904  27.195   1.799
67192W        W33975  12.655  15.980  13.860
67193W        W33976  36.420  36.170   2.189
67194W        W33977   9.085  21.609  12.100
67195W        W33978  24.727   1.813   1.321
67196W        W33979  31.609  24.981   3.121
67197W        W33980  28.536  41.984   1.312
67198W        W33981  27.560  25.169   4.967
67199W        W33982  31.585   1.802   0.443
67200W        W33983   2.917   9.917  10.676
67201W        W33984  38.511  17.851   1.985
67202W        W33985  44.704  33.148   1.384
67203W        W33986   4.841  41.787   0.433
67204W        W33987  41.010  23.305  12.055
67205W        W33988  35.922  21.686   1.644
67206W        W33989  20.270   5.797   9.679
67207W        W33990  11.535  26.896   0.322
67208W        W33991  18.609   3.534  14.758
67209W        W33992  35.588  40.983   0.868
67210W        W33993  33.584  32.155  10.051
67211W        W33994   4.337   1.856   2.191
67212W        W33995  11.370   6.873   0.220
67213W        W33996   3.121  29.488   3.654
67214W        W33997  20.186  39.241  12.995
67215W        W33998   5.976  42.332   3.210
67216W        W33999  25.436  16.724   4.136
67217W        W34000  12.307  22.048  12.224
67218W        W34001   2.518  25.510  14.783
67219W        W34002  29.091  39.661   4.020
67220W        W34003  10.154  42.216  14.301
67221W        W34004  35.765  25.202   1.374
67222W        W34005  31.616  41.114   2.211
67223W        W34006   3.952  33.075   2.952
67224W        W34007  38.957   0.306   2.207
67225W        W34008  29.118  21.971  12.531
67226W        W34009  21.802   2.846  13.815
67227W        W34010  35.245  32.130  14.117
67228W        W34011  21.042  31.079  12.095
67229W        W34012  21.743  24.189   3.689
67230W        W34013  29.717  21.522   2.043
67231W        W34014   2.856  38.192   3.284
67232W        W34015   3.360  41.811  13.402
67233W        W34016   9.146  32.062  13.525
67234W        W34017  12.314  17.569   4.587
67235W        W34018  19.538  14.145   1.269
67236W        W34019  22.766  14.714  12.511
67237W        W34020  29.582  16.240   4.379
67238W        W34021  39.303  33.017  13.477
67239W        W34022   0.230  38.454  10.677
67240W        W34023  25.560  31.977  11.819
67241W        W34024  28.666  43.035  12.596
67242W        W34025   1.291   9.224  13.441
67243W        W34026   1.679  36.549  11.519
67244W        W34027  43.081  42.004  11.561
67245W        W34028  38.431  39.774   3.844
67246W        W34029  13.910   6.332   3.768
67247W        W34030  26.125  44.496  11.431
67248W        W34031  32.124  22.265   1.399
67249W        W34032   6.289   2.300   4.462
67250W        W34033   5.290  40.627  12.928
67251W        W34034   6.747  13.033  13.039
67252W        W34035   1.841  39.331   0.382
67253W        W34036   7.760  26.029  14.829
67254W        W34037  17.030  13.821   4.109
67255W        W34038  18.841   6.292  11.403
67256W        W34039  27.198  43.629  10.195
67257W        W34040  39.547  24.447   2.642
67258W        W34041  39.023   1.268   1.189
67259W        W34042  38.608  44.952   0.982
67260W        W34043  23.222  29.574   4.034
67261W        W34044  20.685  32.089   4.632
67262W        W34045  44.890  33.375   2.250
67263W        W34046   2.364  15.749   2.376
67264W        W34047  16.019   7.222   1.282
67265W        W34048  13.300  28.946   4.542
67266W        W34049  25.526  29.928   1.671
67267W        W34050  17.891   5.165   1.882
67268W        W34051   7.769  11.787  11.921
67269W        W34052   1.038   0.948  13.461
67270W        W34053  41.791  24.126   3.180
67271W        W34054  16.322  40.538  12.581
67272W        W34055  11.651   4.059  12.932
67273W        W34056  10.122  15.744  11.141
67274W        W34057   5.461  24.049  12.563
67275W        W34058   2.214  12.612  12.571
67276W        W34059  32.477  15.261  10.787
67277W        W34060  43.560  36.327  11.116
67278W        W34061   6.481  11.264   4.673
67279W        W34062   8.639  15.835   4.599
67280W        W34063  24.732  26.046  11.144
67281W        W34064  27.963  20.132   0.780
67282W        W34065  14.378   6.708  11.315
67283W        W34066  36.058   1.845  11.379
67284W        W34067  19.644  28.951   4.158
67285W        W34068  38.505  40.447   3.317
67286W        W34069  30.646  33.504  14.455
67287W        W34070   9.923  42.976  14.263
67288W        W34071  18.843  33.636  11.993
67289W        W34072  23.528  44.801  10.588
67290W        W34073  22.395  16.030  10.550
67291W        W34074  37.509   6.827   3.412
67292W        W34075  23.408   6.520   4.138
67293W        W34076  44.472   0.971  12.502
67294W        W34077   9.764  13.948   2.723
67295W        W34078  21.257  21.116  13.993
67296W        W34079   5.235   0.569   0.089
67297W        W34080  27.281  35.338  13.766
67298W        W34081  12.204   5.221  13.829
67299W        W34082   6.929  24.795  14.565
67300W        W34083   4.238  16.744   4.476
67301W        W34084  42.604  39.551   3.117
67302W        W34085  10.661  34.494   4.544
67303W        W34086  15.742  13.914   2.786
67304W        W34087   7.165   7.739   0.436
67305W        W34088  44.821  24.679  10.772
67306W        W34089  36.375  31.139   1.693
67307W        W34090  37.942  24.393  11.133
67308W        W34091  22.184  36.363  13.348
67309W        W34092  14.677  32.053   3.167
67310W        W34093  33.996  19.708   2.402
67311W        W34094   1.306  27.345   0.243
67312W        W34095  27.439  20.113  11.158
67313W        W34096   9.612  22.934   4.020
67314W        W34097  30.491  37.951   2.926
67315W        W34098  30.069  33.809   4.452
67316W        W34099   4.676  21.213  10.423
67317W        W34100  11.370  11.403  14.841
67318W        W34101  33.949  39.551   1.717
67319W        W34102  13.292  37.954   3.723
67320W        W34103  34.452   3.368  11.504
67321W        W34104  10.250  24.178   3.194
67322W        W34105  21.376   1.395   2.469
67323W        W34106   9.328  14.267  10.484
67324W        W34107  13.205  35.065  11.581
67325W        W34108  23.358  11.391  13.527
67326W        W34109  39.309  24.004   4.872
67327W        W34110  20.315  20.466  12.390
67328W        W34111   9.560  12.661  12.966
67329W        W34112  24.918  16.758   2.948
67330W        W34113  37.124  42.027  13.555
67331W        W34114   8.886  21.636  14.836
67332W        W34115  32.215  31.491  14.934
67333W        W34116  29.580  31.962   5.010
67334W        W34117  11.455   9.619   4.285
67335W        W34118  20.184   7.269  12.475
67336W        W34119  25.166  14.205   0.273
67337W        W34120  35.184   1.728   4.127
67338W        W34121   8.562  38.806   4.554
67339W        W34122  33.485   3.937  14.479
67340W        W34123  15.801  12.233  12.951
67341W        W34124  33.143  18.555  14.418
67342W        W34125   3.490  34.893  11.973
67343W        W34126  26.104  27.701  11.546
67344W        W34127   8.774  28.098   3.124
67345W        W34128  16.716  25.502  11.221
67346W        W34129   1.723  37.287  14.514
67347W        W34130  40.429  29.880   2.736
67348W        W34131  19.190  22.388  11.688
67349W        W34132  42.793  28.937  11.471
67350W        W34133   8.910  42.446  13.619
67351W        W34134   3.982   4.275  13.799
67352W        W34135  18.693   2.332   2.031
67353W        W34136  23.704  21.645  12.205
67354W        W34137  15.003  23.200  11.140
67355W        W34138   1.989  32.060   3.196
67356W        W34139  20.078   9.286   1.320
67357W        W34140   1.255  44.640   2.163
67358W        W34141  10.466   2.894   0.986
67359W        W34142  17.030  28.822  13.853
67360W        W34143  30.206  12.822   0.213
67361W        W34144  28.144  16.823  12.554
67362W        W34145  18.787  29.522  14.915
67363W        W34146  36.877  37.402  13.760
67364W        W34147  34.156  34.538   1.783
67365W        W34148  36.911   8.220   4.256
67366W        W34149  28.163   0.886   2.367
67367W        W34150  28.700  18.074   1.852
67368W        W34151  27.163  11.822   0.113
67369W        W34152  39.862   1.389  12.432
67370W        W34153  17.216   9.742   4.198
67371W        W34154  31.735  16.382  13.024
67372W        W34155  14.317  24.200   4.160
67373W        W34156  25.219  16.686  10.851
67374W        W34157  16.642  27.993   2.668
67375W        W34158  15.250  25.101   3.597
67376W        W34159  21.322   7.812   4.594
67377W        W34160  30.247  44.301  11.795
67378W        W34161  19.840  31.636   0.319
67379W        W34162   5.869  24.178  14.738
67380W        W34163  43.069   9.059   2.777
67381W        W34164  17.598  21.985  14.046
67382W        W34165   7.945   7.280  13.507
67383W        W34166   6.826  44.324   2.161
67384W        W34167  21.164   3.479  14.282
67385W        W34168  43.501  29.945   3.135
67386W        W34169  20.333  19.141  13.910
67387W        W34170  21.864  26.957   1.300
67388W        W34171  36.457  17.165  14.077
67389W        W34172   2.781   2.540   1.858
67390W        W34173   0.321  43.019  11.328
67391W        W34174  24.450  11.258  14.682
67392W        W34175  43.697  28.917  13.269
67393W        W34176  15.162  31.387  12.949
67394W        W34177  29.473   9.724  13.362
67395W        W34178  37.100  27.939  13.497
67396W        W34179  19.192  19.279  10.381
67397W        W34180  11.756  33.194  10.482
67398W        W34181  15.853  36.872   0.327
67399W        W34182  15.599  27.674   4.653
67400W        W34183  35.311  22.078   0.981
67401W        W34184  30.162   3.038  13.547
67402W        W34185  26.470  23.150   3.180
67403W        W34186  42.080  17.156  13.544
67404W        W34187  10.650  40.339  11.638
67405W        W34188  27.198   7.722   2.687
67406W        W34189  30.438  41.810   1.078
67407W        W34190  13.348  26.008  12.371
67408W        W34191  37.336  42.953  11.653
67409W        W34192  21.529  41.608  14.386
67410W        W34193  24.128  22.254  12.411
67411W        W34194   2.360   2.768  13.501
67412W        W34195  15.137  26.239   1.550
67413W        W34196  17.637  12.416  11.232
67414W        W34197  30.504  21.519   2.879
67415W        W34198  32.627  17.913   0.379
67416W        W34199  20.108  40.554   3.658
67417W        W34200  14.312  33.038  14.057
67418W        W34201  33.553   8.202   4.855
67419W        W34202  44.729   7.213   9.924
67420W        W34203  40.419   8.837  11.358
67421W        W34204  10.501  23.243  13.385
67422W        W34205  18.171   1.788  13.483
67423W        W34206  37.912  31.706   4.036
67424W        W34207  40.049  40.213   4.231
67425W        W34208  19.749  26.117  11.169
67426W        W34209  14.189   7.676  11.399
67427W        W34210  23.220   0.698   1.368
67428W        W34211  44.494  12.765  13.624
67429W        W34212   1.908   1.947   1.258
67430W        W34213  40.340   3.795   1.413
67431W        W34214  24.309  32.329  14.828
67432W        W34215   2.334  36.662   1.160
67433W        W34216  42.394  27.222  13.781
67434W        W34217   6.218   4.695  12.627
67435W        W34218  44.436  21.096  14.927
67436W        W34219  32.551   5.310   2.209
67437W        W34220   0.274  36.782  14.056
67438W        W34221  34.091  35.431  13.292
67439W        W34222  19.214  37.592   0.209
67440W        W34223   3.937  25.284  14.929
67441W        W34224  43.016  42.542  12.502
67442W        W34225  30.819   4.447  11.029
67443W        W34226  43.898  34.595  14.449
67444W        W34227  18.576   9.849  12.138
67445W        W34228   4.184   3.386   4.727
67446W        W34229  40.617  17.136  13.482
67447W        W34230   6.293   5.346   4.860
67448W        W34231  44.898   3.174  11.387
67449W        W34232  28.342   2.155  11.588
67450W        W34233  23.128  26.181   1.345
67451W        W34234  39.818  36.497  14.616
67452W        W34235  33.593  11.660   4.305
67453W        W34236   0.383  17.591  12.409
67454W        W34237  29.927  11.985  13.004
67455W        W34238  19.542  22.241   0.548
67456W        W34239  24.508  24.015  13.891
67457W        W34240  37.470  28.570   2.716
67458W        W34241  35.189  36.051   2.139
67459W        W34242  13.412  44.863   3.584
67460W        W34243  33.310   9.673  11.699
67461W        W34244  12.105  31.475  13.309
67462W        W34245   0.864   7.229   1.207
67463W        W34246  28.795  34.515  14.554
67464W        W34247  34.670  21.230  11.866
67465W        W34248  37.949  38.521  10.533
67466W        W34249  31.937  22.111  14.328
67467W        W34250  21.701  16.420   1.485
67468W        W34251  26.517  28.761   2.625
67469W        W34252  41.893   2.752  10.758
67470W        W34253  40.995  21.678  14.270
67471W        W34254  18.083  33.041  12.413
67472W        W34255  37.098  29.467   3.274
67473W        W34256  13.209  30.114   1.878
67474W        W34257  35.436   2.157  11.228
67475W        W34258  14.622  27.261   3.270
67476W        W34259  17.915  39.575   2.372
67477W        W34260  35.187  36.169  14.958
67478W        W34261   7.255  17.030  12.905
67479W        W34262  30.157   1.023  12.713
67480W        W34263  24.999   9.811  13.582
67481W        W34264  40.466  12.717  10.591
67482W        W34265  40.759   9.256   4.143
67483W        W34266  39.721   0.330  14.249
67484W        W34267  16.277  17.660  14.128
67485W        W34268  36.148  12.862  12.616
67486W        W34269  14.794  16.870  13.121
67487W        W34270  15.501  18.267  11.145
67488W        W34271  21.425  24.272   9.879
67489W        W34272  30.124  24.915   4.465
67490W        W34273  11.625  21.572  12.075
67491W        W34274  27.085  43.940  12.860
67492W        W34275  29.674  15.544   4.888
67493W        W34276  14.387  39.578  12.100
67494W        W34277  22.789  10.031  13.324
67495W        W34278  36.234  40.355   2.716
67496W        W34279  25.092  12.823  12.511
67497W        W34280  23.379  42.323   4.029
67498W        W34281  34.077   0.496  14.175
67499W        W34282  36.049  24.047   4.667
67500W        W34283  13.212  42.422   0.704
67501W        W34284  35.089  12.165  14.129
67502W        W34285   7.422   7.713   1.512
67503W        W34286  10.826  34.129   0.018
67504W        W34287  30.210  43.816   0.219
67505W        W34288  27.590  10.146   1.951
67506W        W34289   7.788  31.335   3.220
67507W        W34290  27.483  24.159   0.992
67508W        W34291  14.428  33.104  12.944
67509W        W34292  23.468  43.734   2.134
67510W        W34293  32.207   9.750   1.435
67511W        W34294  13.554  21.797   0.735
67512W        W34295  11.180  17.937  12.115
67513W        W34296  26.248  20.773  11.083
67514W        W34297  22.258  21.408  14.284
67515W        W34298  30.383   1.382  14.526
67516W        W34299  27.105  35.011   1.263
67517W        W34300  20.635  11.704   4.588
67518W        W34301  10.088   9.579  14.479
67519W        W34302   4.305  26.204   4.850
67520W        W34303  35.011  42.483  12.382
67521W        W34304   2.347   5.373   4.172
67522W        W34305  21.104  43.029  12.460
67523W        W34306  16.453   1.377  11.076
67524W        W34307  36.318  14.029  10.643
67525W        W34308  34.261  15.662   4.119
67526W        W34309  30.872  42.811   1.817
67527W        W34310   4.284  21.540   0.517
67528W        W34311  27.303  40.694  12.550
67529W        W34312  31.576  31.228   1.689
67530W        W34313  14.156  39.514   4.093
67531W        W34314  24.219  28.582   4.271
67532W        W34315   6.685   9.173   4.205
67533W        W34316  10.637  38.936   0.934
67534W        W34317  23.901  37.292  13.917
67535W        W34318  37.464  44.957   4.257
67536W        W34319  42.547   0.696   1.849
67537W        W34320  28.583  24.417   0.735
67538W        W34321  29.001  19.564   2.728
67539W        W34322  26.133  32.376   2.579
67540W        W34323  42.559  26.299   0.226
67541W        W34324  41.919   3.735  13.481
67542W        W34325   9.086  29.563   9.810
67543W        W34326  27.729   8.369   1.164
67544W        W34327  18.214  22.045   4.079
67545W        W34328  35.317  34.007   1.705
67546W        W34329  36.850  13.816  12.879
67547W        W34330  22.618  40.223  11.389
67548W        W34331   3.289  26.070   0.796
67549W        W34332  32.241  26.587   3.268
67550W        W34333  13.668   3.588  10.794
67551W        W34334   3.644   6.632  10.548
67552W        W34335  26.528  35.912   1.747
67553W        W34336  22.650  21.306  10.971
67554W        W34337  30.744   2.633  11.995
67555W        W34338  35.361  39.462   4.474
67556W        W34339  15.559   2.911  11.912
67557W        W34340   6.389  12.422   2.474
67558W        W34341  42.535  42.360   0.818
67559W        W34342  19.129  22.845  11.464
67560W        W34343  18.641  16.434   5.452
67561W        W34344  27.633  30.597   0.838
67562W        W34345   0.045   7.840   2.527
67563W        W34346  29.932  27.698  12.079
67564W        W34347  22.160  12.593   2.912
67565W        W34348   6.823   8.844   1.394
67566W        W34349   5.015  32.031   1.771
67567W        W34350  24.135  13.168  12.437
67568W        W34351  17.040   4.405  13.508
67569W        W34352   2.955  14.667  11.172
67570W        W34353  39.560  13.819  13.987
67571W        W34354  11.970  31.384   4.996
67572W        W34355  13.242   2.489   2.262
67573W        W34356  14.594  15.669  12.901
67574W        W34357  37.536  21.318   2.226
67575W        W34358  29.893   6.635   4.090
67576W        W34359  44.788  25.718  11.730
67577W        W34360  25.093   4.961  11.556
67578W        W34361   2.876   8.474   3.677
67579W        W34362   5.659  27.203  13.896
67580W        W34363   5.322  28.079   4.756
67581W        W34364  38.383  29.352  13.576
67582W        W34365  41.952  27.670  11.572
67583W        W34366  27.782  33.032  13.451
67584W        W34367  27.249  28.997   1.776
67585W        W34368  12.564  35.786   4.875
67586W        W34369  22.549  15.574   0.988
67587W        W34370  21.420   1.824  11.402
67588W        W34371  30.627  28.491   0.046
67589W        W34372   6.120  27.600  11.171
67590W        W34373  39.989   7.575   1.387
67591W        W34374   1.867  36.733   4.093
67592W        W34375  41.988   5.191   3.198
67593W        W34376  10.053  30.140   4.149
67594W        W34377   6.197  16.201  10.609
67595W        W34378  18.479  34.906   2.664
67596W        W34379  12.297  30.061   2.460
67597W        W34380  37.795  19.018   2.804
67598W        W34381  39.291   8.277   0.356
67599W        W34382  22.270  40.422  11.696
67600W        W34383  12.771  34.855  12.437
67601W        W34384  32.044   1.110  13.393
67602W        W34385   0.077  11.135   2.333
67603W        W34386  22.520  23.974   2.573
67604W        W34387   9.142   8.094  14.507
67605W        W34388  27.443  27.311   3.618
67606W        W34389  41.357  27.076   4.606
67607W        W34390  42.900  38.309   1.147
67608W        W34391  12.755  35.499  12.012
67609W        W34392  44.403  30.867   2.461
67610W        W34393  23.573  23.343  10.760
67611W        W34394  36.970   1.847   3.273
67612W        W34395   0.996  37.495  12.971
67613W        W34396  19.047  39.748  10.657
67614W        W34397  35.788  25.982   0.942
67615W        W34398  40.799   6.654  14.774
67616W        W34399  43.088  29.424  14.416
67617W        W34400  18.347  42.338   4.979
67618W        W34401   3.777  30.713   2.509
67619W        W34402  38.955   3.241   3.349
67620W        W34403  26.422  37.535  10.843
67621W        W34404  25.212  26.031   0.429
67622W        W34405  21.883  28.601   4.725
67623W        W34406   2.796   9.614  11.543
67624W        W34407  17.293  27.456   2.301
67625W        W34408   3.417  26.866  14.344
67626W        W34409  43.459  24.764   3.249
67627W        W34410  29.343   6.234  13.987
67628W        W34411  32.429  24.910   0.947
67629W        W34412  21.510  41.230  14.027
67630W        W34413  38.513  21.728   1.256
67631W        W34414  40.501  33.354   0.317
67632W        W34415   0.372  43.896   3.554
67633W        W34416  29.434   5.710  14.012
67634W        W34417  32.040  40.761  13.888
67635W        W34418  29.912   2.843  12.939
67636W        W34419  18.551  40.328  12.407
67637W        W34420  43.496   5.754  12.834
67638W        W34421  33.238  20.853   0.720
67639W        W34422  14.673   6.658   4.802
67640W        W34423   2.841  24.264  12.526
67641W        W34424  23.084  36.247   2.422
67642W        W34425  11.899  28.420  12.883
67643W        W34426  40.979   5.333   1.409
67644W        W34427   1.970  31.929  11.707
67645W        W34428  30.568  22.183  13.372
67646W        W34429  21.781  19.890   4.593
67647W        W34430  13.534  22.132   3.769
67648W        W34431  42.368  21.629  12.408
67649W        W34432  32.090  19.189  11.384
67650W        W34433  43.742  33.398   2.663
67651W        W34434  14.846  28.097   4.075
67652W        W34435  26.488   2.568   4.120
67653W        W34436   6.767   9.676   0.340
67654W        W34437  20.465  18.077  13.043
67655W        W34438   7.094  15.947   1.790
67656W        W34439  26.212  42.983   4.157
67657W        W34440   6.373  37.596   2.839
67658W        W34441  28.125  22.439  13.838
67659W        W34442   6.929  26.293  12.035
67660W        W34443   6.281  39.706   3.144
67661W        W34444  14.811  20.253  10.978
67662W        W34445   3.169  41.064  13.787
67663W        W34446  17.139  44.214  11.417
67664W        W34447  21.894  15.138   0.380
67665W        W34448  15.909  27.883  10.224
67666W        W34449   5.775  28.471   1.896
67667W        W34450  11.926  36.052   2.917
67668W        W34451  30.383   7.147   4.568
67669W        W34452  17.217   2.486   0.374
67670W        W34453   6.466  24.884   0.796
67671W        W34454  26.183  39.846  14.495
67672W        W34455  23.574  16.787   4.663
67673W        W34456  16.879   0.434   3.969
67674W        W34457  41.749  44.403   2.684
67675W        W34458  18.724  20.563  13.468
67676W        W34459  40.404  13.584   0.322
67677W        W34460  10.228  37.844   3.135
67678W        W34461  36.478   5.119  10.684
67679W        W34462  14.754  20.567   2.871
67680W        W34463  29.651  23.690   3.566
67681W        W34464  31.906  15.570   0.701
67682W        W34465  38.431   6.230  13.973
67683W        W34466  15.517  27.811   0.071
67684W        W34467  42.875  40.790  14.497
67685W        W34468  35.428  23.607   1.393
67686W        W34469  10.863  43.830   0.849
67687W        W34470  18.473  20.890  12.003
67688W        W34471  10.198  26.272   4.353
67689W        W34472  14.899   1.238  12.036
67690W        W34473  26.726   6.695  11.177
67691W        W34474   3.265  42.451  14.861
67692W        W34475  20.742   9.234  14.953
67693W        W34476  31.877  22.047  11.257
67694W        W34477  28.926  19.214  14.365
67695W        W34478  25.516  34.348   4.518
67696W        W34479   9.651  16.499   4.039
67697W        W34480  14.563  14.793   1.409
67698W        W34481  36.552  33.860  13.513
67699W        W34482  20.754  31.561   3.787
67700W        W34483   2.232  26.462  14.901
67701W        W34484  34.813   6.634   0.022
67702W        W34485  25.493  38.850   9.819
67703W        W34486   2.466  35.498  12.515
67704W        W34487  32.022  20.703   2.806
67705W        W34488  35.698  17.730  12.619
67706W        W34489  22.009   0.924   0.027
67707W        W34490  18.266  30.543  13.036
67708W        W34491  38.458  18.622   0.482
67709W        W34492  40.514  30.000   1.165
67710W        W34493  10.799   2.697  10.631
67711W        W34494  36.089  40.782   1.758
67712W        W34495  36.662   7.191   3.551
67713W        W34496   7.099   5.897   3.917
67714W        W34497   5.433  44.039   2.327
67715W        W34498  28.837  25.562  14.027
67716W        W34499  14.623  38.798   4.565
67717W        W34500   3.494   3.473  11.123
67718W        W34501  39.988   9.384   2.269
67719W        W34502  37.280  13.038  11.099
67720W        W34503  29.435  39.341  12.780
67721W        W34504  42.769   1.920  11.141
67722W        W34505  34.248  26.088   1.443
67723W        W34506  24.153  16.931  12.456
67724W        W34507  29.387  20.348   4.875
67725W        W34508  18.081  42.359   3.232
67726W        W34509   8.971  16.468  11.517
67727W        W34510   9.364  40.959  12.595
67728W        W34511  41.811  39.992  14.443
67729W        W34512  40.569  27.431   2.414
67730W        W34513  34.509   1.427  12.558
67731W        W34514   5.571   8.709   2.667
67732W        W34515  27.567  29.135   0.978
67733W        W34516   9.430  42.838  14.337
67734W        W34517  44.526  24.792   1.614
67735W        W34518  32.548  26.500  13.318
67736W        W34519  28.143  21.534   2.225
67737W        W34520  37.812   0.301   0.347
67738W        W34521  12.145  29.171   0.348
67739W        W34522  43.759  43.361   0.881
67740W        W34523  11.069  23.611   3.358
67741W        W34524   3.899  13.863  11.965
67742W        W34525  41.329  18.209   1.678
67743W        W34526  41.322  25.772  14.465
67744W        W34527  32.023  14.702  12.939
67745W        W34528  18.932  30.842  11.584
67746W        W34529  38.602  11.726  14.496
67747W        W34530  30.644  42.954   1.225
67748W        W34531  30.991  28.530  11.960
67749W        W34532  34.867  16.820  11.124
67750W        W34533   8.845  24.866  11.775
67751W        W34534  42.913  40.790   2.188
67752W        W34535  14.520  37.148   2.427
67753W        W34536  14.772  43.016   4.337
67754W        W34537  31.969   0.003   0.698
67755W        W34538   4.140   2.433  12.118
67756W        W34539  13.510  37.063   1.435
67757W        W34540  38.147  20.070  13.301
67758W        W34541  26.394  30.412  11.635
67759W        W34542  16.242  20.669  12.827
67760W        W34543  16.584   3.409  12.478
67761W        W34544  25.642  29.586   0.706
67762W        W34545  30.120  34.154  13.480
67763W        W34546  41.275  42.099  12.778
67764W        W34547  35.495  12.375   0.448
67765W        W34548  43.687  29.617   1.807
67766W        W34549  23.256   6.787  14.392
67767W        W34550  18.065  18.045   4.172
67768W        W34551  44.358  43.790  10.497
67769W        W34552  43.185  41.350   9.904
67770W        W34553  44.415  26.957   3.856
67771W        W34554   7.723  40.435  14.767
67772W        W34555  23.139  17.825   1.438
67773W        W34556  40.347  43.827  10.979
67774W        W34557  18.855  34.470  13.366
67775W        W34558  22.954   1.673   2.735
67776W        W34559  23.074  30.093   4.143
67777W        W34560  38.842  42.091   3.706
67778W        W34561  32.579   0.930  11.256
67779W        W34562  12.323  15.289  11.128
67780W        W34563   8.605  30.198  13.913
67781W        W34564  15.453  19.757  13.867
67782W        W34565  43.831  22.743  11.582
67783W        W34566  29.355  43.332   4.175
67784W        W34567  28.971   9.167  11.961
67785W        W34568  25.635  41.538   3.352
67786W        W34569  29.532  28.906   4.015
67787W        W34570  32.631   2.837   4.491
67788W        W34571  37.461  19.845   5.115
67789W        W34572  22.152  42.114  13.817
67790W        W34573   7.239  17.374   3.130
67791W        W34574   9.647  30.694  14.479
67792W        W34575  31.879  16.044   3.597
67793W        W34576  36.543  14.120  12.001
67794W        W34577  35.624  29.591  11.931
67795W        W34578   5.827  11.707   2.382
67796W        W34579  38.407  35.315   3.652
67797W        W34580  36.554   3.354  11.711
67798W        W34581  38.118  12.645  13.806
67799W        W34582  21.506   4.371  13.598
67800W        W34583  16.879  33.474  10.154
67801W        W34584  28.655  37.405   1.312
67802W        W34585  34.942  36.239  10.283
67803W        W34586  10.304  37.292   4.465
67804W        W34587   7.849  34.092   4.485
67805W        W34588   1.854  29.485   0.004
67806W        W34589  31.045  15.939   2.908
67807W        W34590  27.229  35.388  10.725
67808W        W34591   7.364  38.929  11.604
67809W        W34592  14.380  12.117   2.064
67810W        W34593  42.494  25.057  11.965
67811W        W34594   7.334   6.700  14.444
67812W        W34595   9.647  14.673   2.802
67813W        W34596   2.329  24.517   3.139
67814W        W34597  27.833  38.164  12.420
67815W        W34598  10.627   8.110   0.004
67816W        W34599  26.701  35.214   2.238
67817W        W34600  10.241  38.303  13.231
67818W        W34601   3.337  29.428   2.632
67819W        W34602  33.036  36.879  13.440
67820W        W34603  28.592  42.068   0.401
67821W        W34604  30.517  37.985  13.052
67822W        W34605  25.619  10.563  12.501
67823W        W34606  15.342  12.741   3.689
67824W        W34607  36.671  14.087   2.634
67825W        W34608  33.222  23.372  11.989
67826W        W34609   4.322   8.440  11.256
67827W        W34610  11.771  33.737   1.431
67828W        W34611  42.298   0.642   5.203
67829W        W34612  29.090  22.680   1.365
67830W        W34613  34.778  29.235  12.025
67831W        W34614  41.545  12.811   0.256
67832W        W34615  14.086   3.553  12.865
67833W        W34616  25.303  28.537  14.424
67834W        W34617  40.403  12.640  13.361
67835W        W34618  17.966  30.096  14.705
67836W        W34619  40.430  37.786   1.909
67837W        W34620  11.253  41.213  12.796
67838W        W34621  42.784  20.367  12.836
67839W        W34622  20.027   0.639  12.382
67840W        W34623  36.422  27.160   0.503
67841W        W34624  23.712  13.410   3.633
67842W        W34625  20.039   7.603  14.925
67843W        W34626   4.242  37.468  12.380
67844W        W34627   7.881   3.020   0.795
67845W        W34628  38.613  11.286   0.805
67846W        W34629   2.852  23.187   3.326
67847W        W34630  17.054  17.009   3.097
67848W        W34631   9.081  40.883  14.093
67849W        W34632  30.241  20.800  13.497
67850W        W34633  22.980  40.098  14.333
67851W        W34634  11.098  39.961  14.183
67852W        W34635   3.154   0.252  14.509
67853W        W34636  36.837  38.297   2.392
67854W        W34637   6.016   1.463  13.313
67855W        W34638   4.780  30.863   2.221
67856W        W34639  17.220  39.118  13.771
67857W        W34640  29.447  11.804  12.876
67858W        W34641  17.616  10.452   4.238
67859W        W34642   6.428  33.267  13.797
67860W        W34643  39.025  33.680  14.478
67861W        W34644  30.163  14.208   4.480
67862W        W34645  31.971  11.260  11.686
67863W        W34646  33.344   3.423  12.536
67864W        W34647  31.149  42.805  11.187
67865W        W34648  34.517  16.785  11.948
67866W        W34649  37.040  23.308  14.868
67867W        W34650  28.278  12.315   4.120
67868W        W34651  22.075  27.928  14.646
67869W        W34652  35.398   9.503   0.457
67870W        W34653  43.952  41.079  12.210
67871W        W34654   4.871  29.719  13.423
67872W        W34655  16.542   1.076   2.515
67873W        W34656  26.595  35.345   4.546
67874W        W34657   3.435  10.471  14.306
67875W        W34658  21.176  29.412   0.929
67876W        W34659  34.398  24.058   2.723
67877W        W34660  24.208  43.927   2.794
67878W        W34661  24.509  20.616   4.526
67879W        W34662  42.775  43.330   1.831
67880W        W34663  30.656  20.839   0.452
67881W        W34664   3.400   1.508   4.415
67882W        W34665   4.446  40.278  13.383
67883W        W34666  39.535  11.305  11.103
67884W        W34667  43.316  24.574  10.724
67885W        W34668  44.966  11.348   1.870
67886W        W34669  34.218  14.706  12.468
67887W        W34670   4.752  38.482  10.704
67888W        W34671  40.812   4.741   0.768
67889W        W34672  34.317   4.809  14.683
67890W        W34673   8.823  44.049   4.548
67891W        W34674   7.976  30.564   1.200
67892W        W34675   1.470  22.539  12.994
67893W        W34676  27.173  21.234  10.936
67894W        W34677  21.111  11.646   4.285
67895W        W34678  12.085  42.312   0.075
67896W        W34679  42.763   0.243   1.733
67897W        W34680  39.108  27.823   1.552
67898W        W34681  32.771  44.847  14.575
67899W        W34682   2.498  40.528   3.743
67900W        W34683  14.349   4.884   2.737
67901W        W34684   6.162   9.882  14.468
67902W        W34685   0.463  17.328   3.141
67903W        W34686  12.914  21.559   1.174
67904W        W34687   3.362  41.883   3.207
67905W        W34688  43.858  26.119  10.591
67906W        W34689  41.718  25.868   1.702
67907W        W34690  43.713   4.779  11.943
67908W        W34691  36.041  26.235   3.811
67909W        W34692  42.402  21.481  14.273
67910W        W34693  16.473  29.679  13.078
67911W        W34694  10.423  13.058  13.773
67912W        W34695  15.261  18.404   0.754
67913W        W34696  39.160  13.903  12.137
67914W        W34697  18.257  33.680  14.642
67915W        W34698  11.317  22.654  11.206
67916W        W34699  29.655  26.611   0.767
67917W        W34700  19.104   1.885   2.711
67918W        W34701  36.409  36.731  13.985
67919W        W34702  38.488  11.105  10.248
67920W        W34703  13.214  34.995   1.851
67921W        W34704  36.996  32.533   2.906
67922W        W34705   4.585  21.132   2.329
67923W        W34706  17.791  39.098  14.355
67924W        W34707  13.314  40.795   2.872
67925W        W34708  16.904   7.400  10.891
67926W        W34709  32.840  10.595  12.604
67927W        W34710  22.898  16.541   1.009
67928W        W34711   7.897  39.402   1.341
67929W        W34712  11.122   3.498  12.629
67930W        W34713  33.964  41.363  11.576
67931W        W34714  13.666   2.472   2.968
67932W        W34715  17.847  32.014   2.818
67933W        W34716  37.462  33.809   0.830
67934W        W34717   2.063  11.228   3.642
67935W        W34718  33.657  27.167  10.716
67936W        W34719  43.429  12.286   1.454
67937W        W34720  35.819  11.434   4.273
67938W        W34721  27.140  32.576  11.604
67939W        W34722  37.055  37.396  10.784
67940W        W34723   1.734   6.407  13.264
67941W        W34724   4.469  33.202  11.650
67942W        W34725   9.186  16.757   4.299
67943W        W34726   5.681  41.091   2.225
67944W        W34727  24.541   1.536  14.119
67945W        W34728  33.792   2.420   0.404
67946W        W34729  18.212   4.158  10.721
67947W        W34730  20.148  28.208   0.813
67948W        W34731  37.052  41.023   0.357
67949W        W34732  22.291  19.045  11.184
67950W        W34733   9.663   4.735  12.166
67951W        W34734  12.713  10.253  13.742
67952W        W34735  39.950  24.772   1.903
67953W        W34736  35.778   7.243  14.847
67954W        W34737   1.484  33.597   3.000
67955W        W34738  19.561  19.655  11.951
67956W        W34739  25.576  13.877   1.392
67957W        W34740  14.868  38.966   0.072
67958W        W34741  10.840   6.829  14.314
67959W        W34742  42.895  37.407   1.031
67960W        W34743  28.467  40.870  10.309
67961W        W34744   0.044   1.980   2.723
67962W        W34745   3.107   5.376  12.471
67963W        W34746  35.837  17.259   3.728
67964W        W34747  21.730  33.011  14.922
67965W        W34748  33.361   0.428  13.544
67966W        W34749  17.047  18.659   2.674
67967W        W34750  26.215  31.717  13.742
67968W        W34751  35.575  24.286   4.716
67969W        W34752  41.615  10.514  14.983
67970W        W34753  24.065  15.336  11.013
67971W        W34754  42.588  25.048  10.213
67972W        W34755   1.916  25.070   0.777
67973W        W34756   3.856   0.296   2.624
67974W        W34757  39.126   0.519   4.285
67975W        W34758  38.945  34.898   3.612
67976W        W34759   4.283  38.526  10.863
67977W        W34760  24.135  18.495   3.807
67978W        W34761  14.748  12.281  10.714
67979W        W34762  36.678  12.635  14.991
67980W        W34763  40.048  14.242  12.152
67981W        W34764  44.971  24.101   0.881
67982W        W34765  28.958   3.349   0.343
67983W        W34766  12.711  24.159   0.615
67984W        W34767  44.636  13.104   5.111
67985W        W34768  42.975   6.620  14.475
67986W        W34769  15.303  17.150   4.869
67987W        W34770  41.312  32.578  11.594
67988W        W34771  35.862  32.340   4.529
67989W        W34772  22.285  28.067  13.234
67990W        W34773  41.218  24.226   0.384
67991W        W34774  19.635  36.529  11.982
67992W        W34775  12.700   2.023  10.995
67993W        W34776  15.272   3.810  11.621
67994W        W34777  33.741   5.904  10.854
67995W        W34778   2.997   0.958  13.017
67996W        W34779  24.866  13.427   0.296
67997W        W34780  36.969  43.806   4.588
67998W        W34781  26.565  19.786  14.522
67999W        W34782  23.974  21.202  13.199
68000W        W34783  30.421  26.291  12.387
68001W        W34784  34.385   9.164   3.729
68002W        W34785  25.888  37.682   4.270
68003W        W34786  16.863  41.516   0.910
68004W        W34787   0.827  18.653   3.609
68005W        W34788   5.225   9.293  14.114
68006W        W34789  31.609  26.462  14.989
68007W        W34790  43.726  31.172  12.077
68008W        W34791  43.491  25.168   5.098
68009W        W34792  18.565  13.304   0.869
68010W        W34793  33.675  39.843   4.204
68011W        W34794  20.028  36.762   3.008
68012W        W34795   3.690  36.837   1.786
68013W        W34796  38.018  17.124   4.469
68014W        W34797   9.326  21.043   1.773
68015W        W34798  16.239  21.950  10.319
68016W        W34799  23.745  15.738   4.235
68017W        W34800   5.398   6.940   2.638
68018W        W34801  36.485  27.422   4.431
68019W        W34802  21.613  18.771   0.804
68020W        W34803  13.976  20.446  10.987
68021W        W34804  43.783  31.572  12.931
68022W        W34805   8.314  10.729   2.651
68023W        W34806  25.707  29.618  13.421
68024W        W34807  18.907  28.961  14.352
68025W        W34808  14.379  14.159  10.633
68026W        W34809  17.319  18.475   0.593
68027W        W34810  35.149  44.816   1.331
68028W        W34811   8.758   6.423   3.484
68029W        W34812   1.226  28.510  11.167
68030W        W34813  26.413  38.879  11.193
68031W        W34814  40.552  31.829   1.244
68032W        W34815  14.047  37.836   2.046
68033W        W34816  20.255  13.795   2.811
68034W        W34817  25.515  18.259   4.645
68035W        W34818  16.781  41.694   1.389
68036W        W34819  17.617  38.695   3.682
68037W        W34820  20.742  36.887   0.251
68038W        W34821   6.803  44.384   4.135
68039W        W34822  32.345  36.920  11.620
68040W        W34823  31.501  20.968  12.991
68041W        W34824  29.613  21.985  12.003
68042W        W34825  19.513   4.425   3.347
68043W        W34826  33.338  28.405  12.161
68044W        W34827   6.393  43.034  12.131
68045W        W34828   6.921   1.643   0.681
68046W        W34829   3.112  26.972   2.708
68047W        W34830   2.713   4.829   4.128
68048W        W34831  43.727  41.162   4.234
68049W        W34832  26.956  42.001   1.315
68050W        W34833  28.397  40.529  12.660
68051W        W34834  37.058  10.770  14.370
68052W        W34835   4.843  27.836  13.129
68053W        W34836  16.585   2.258  10.640
68054W        W34837   3.346  25.652   4.787
68055W        W34838  19.721  11.261   3.587
68056W        W34839  42.427   9.085   2.908
68057W        W34840   6.705   0.227   1.139
68058W        W34841  16.613  29.980   3.549
68059W        W34842  30.360  10.827   1.228
68060W        W34843  25.519   9.470   0.464
68061W        W34844  21.122  19.442  12.956
68062W        W34845   6.316  44.944   0.925
68063W        W34846  15.108  26.234  11.658
68064W        W34847  36.648  13.011  12.537
68065W        W34848   0.827  30.375  12.994
68066W        W34849  44.979  14.460   5.385
68067W        W34850  16.497  18.970  14.278
68068W        W34851  42.387  37.280   4.893
68069W        W34852  29.305  27.058  10.434
68070W        W34853  12.399  27.092   3.289
68071W        W34854  25.522  19.213   4.393
68072W        W34855  14.067   9.507  11.570
68073W        W34856  14.339  10.738   0.391
68074W        W34857  35.521  38.055  12.599
68075W        W34858  25.668  11.704  13.277
68076W        W34859  13.269  40.506  13.053
68077W        W34860  18.341   2.192  14.075
68078W        W34861  10.471  27.633   0.688
68079W        W34862   0.062  28.135  11.036
68080W        W34863  17.547  41.227   1.808
68081W        W34864  41.931  38.863   2.292
68082W        W34865  10.571  21.739   3.258
68083W        W34866  16.844  23.113  14.262
68084W        W34867  12.014  37.493   4.368
68085W        W34868  21.698  14.149   2.125
68086W        W34869  10.924  43.301  12.954
68087W        W34870  17.508  36.638  11.964
68088W        W34871  29.214  27.202  11.109
68089W        W34872  20.910  13.736  11.150
68090W        W34873   1.258  36.084   2.549
68091W        W34874  15.156  17.748   0.057
68092W        W34875  36.311  32.632  13.006
68093W        W34876  26.650  12.071   2.406
68094W        W34877  30.365  39.219   4.995
68095W        W34878  20.288  22.373  13.484
68096W        W34879  10.173  35.785  10.630
68097W        W34880  24.139  20.485   3.553
68098W        W34881  13.751  31.909  11.886
68099W        W34882  29.959  10.727  12.967
68100W        W34883   0.364  31.771   2.864
68101W        W34884  43.290  12.950   2.829
68102W        W34885  17.393  21.866  14.511
68103W        W34886  19.397   5.025  10.246
68104W        W34887  14.411  30.137  13.974
68105W        W34888  34.062  36.820   2.172
68106W        W34889  34.059  20.195  12.884
68107W        W34890  32.937   3.434   2.023
68108W        W34891   2.796  31.982  11.239
68109W        W34892  12.585  20.525   2.763
68110W        W34893   3.888  30.198  14.467
68111W        W34894   2.544  31.123  14.797
68112W        W34895   6.995  17.898  14.436
68113W        W34896   3.219  19.358   4.091
68114W        W34897  36.414  12.399   3.182
68115W        W34898  25.564   9.794   0.872
68116W        W34899   1.018  21.849  13.803
68117W        W34900  38.840  18.349  14.901
68118W        W34901  10.810  31.390  11.140
68119W        W34902  16.999  33.306   2.134
68120W        W34903  25.247   8.653   1.771
68121W        W34904   3.248  36.535  12.503
68122W        W34905   8.299  35.063   1.611
68123W        W34906  28.575  19.378  14.005
68124W        W34907  39.266  36.539   0.510
68125W        W34908   9.239   6.375   1.865
68126W        W34909  43.990  16.227   2.753
68127W        W34910  24.161  25.813  12.462
68128W        W34911  32.565  42.043  12.501
68129W        W34912  14.228  25.649  11.149
68130W        W34913   6.772  27.529   0.285
68131W        W34914  28.216  15.677   0.402
68132W        W34915  28.917  14.164  13.222
68133W        W34916  39.040  44.143  11.109
68134W        W34917  30.916  34.191   1.789
68135W        W34918  14.480   7.931  13.170
68136W        W34919  43.448  14.988   3.582
68137W        W34920  19.884  22.475  11.651
68138W        W34921  18.743  19.837   4.167
68139W        W34922   6.715   5.189   3.608
68140W        W34923  12.799  30.197   0.810
68141W        W34924  31.407  13.791   4.813
68142W        W34925  34.590  19.080   0.067
68143W        W34926  38.847  35.485   3.397
68144W        W34927  18.977  38.006   4.846
68145W        W34928   4.734  11.110   1.345
68146W        W34929  38.213  10.844   2.753
68147W        W34930   7.257  18.384  14.508
68148W        W34931  18.222  40.529  11.522
68149W        W34932  35.578  31.151   3.635
68150W        W34933   9.419  26.145   0.517
68151W        W34934  26.152  29.495   0.746
68152W        W34935  33.361  22.632  13.156
68153W        W34936  44.856  37.956  14.084
68154W        W34937  28.729  35.083   1.885
68155W        W34938   0.676  13.071   1.806
68156W        W34939  36.299  31.512  14.966
68157W        W34940  11.677  10.354   4.050
68158W        W34941  11.401  23.402   2.385
68159W        W34942  38.563  28.726  12.554
68160W        W34943   1.856   4.223   4.390
68161W        W34944  26.058   0.263  12.960
68162W        W34945  22.999  11.911   3.327
68163W        W34946   0.706   2.202  11.570
68164W        W34947  43.801  28.104   3.206
68165W        W34948  17.154  35.392  14.300
68166W        W34949  23.116  21.166   3.444
68167W        W34950  32.315   6.751   2.096
68168W        W34951  20.529  29.063   1.460
68169W        W34952  21.561  43.516  13.530
68170W        W34953  35.626  30.893  14.279
68171W        W34954  42.425   8.921   0.095
68172W        W34955   5.969   9.878   3.097
68173W        W34956  18.515  38.171  14.527
68174W        W34957  18.209   2.201   1.826
68175W        W34958  19.183  11.572   2.043
68176W        W34959   0.683  42.291   0.459
68177W        W34960  16.027  15.410   4.818
68178W        W34961  16.584   2.282   1.772
68179W        W34962   9.668  31.438   3.044
68180W        W34963  30.464  34.416   2.008
68181W        W34964   2.806   5.139   4.936
68182W        W34965  23.988   7.140   2.738
68183W        W34966  17.086  40.503   1.997
68184W        W34967  39.988  29.088   1.246
68185W        W34968  23.055   2.343   1.080
68186W        W34969   8.944  10.703   0.527
68187W        W34970  23.103  38.061  10.956
68188W        W34971  13.341  13.646   0.851
68189W        W34972  19.111  20.600  13.022
68190W        W34973   3.699  39.971   4.477
68191W        W34974  19.251  36.876   1.320
68192W        W34975  41.457  30.914  12.923
68193W        W34976  12.341  30.536   4.046
68194W        W34977  19.051  24.300  10.729
68195W        W34978  22.722  14.049   5.066
68196W        W34979  18.379  16.557  13.950
68197W        W34980  39.756  38.830  11.176
68198W        W34981  16.777  11.709   0.314
68199W        W34982  14.052  44.246  13.515
68200W        W34983  14.000  23.944  14.340
68201W        W34984  44.666  21.922  13.406
68202W        W34985  17.028   0.640  13.970
68203W        W34986   7.368  17.148   0.210
68204W        W34987  39.294  24.966  12.970
68205W        W34988  14.902  23.298  13.367
68206W        W34989  34.083  30.352   3.601
68207W        W34990   5.192  25.726  13.986
68208W        W34991  33.854  20.352  12.428
68209W        W34992  40.403   8.671   0.291
68210W        W34993  15.663  27.939  11.747
68211W        W34994   4.244  12.221  11.914
68212W        W34995   5.387   2.939   4.617
68213W        W34996  33.954  26.522   3.616
68214W        W34997  38.125   4.957   4.077
68215W        W34998  43.044   6.122   3.220
68216W        W34999  38.863   2.445   5.222
68217W        W35000  40.680  36.274   0.332
68218W        W35001   3.286  31.429   2.722
68219W        W35002  24.988   2.492  11.157
68220W        W35003  29.123  29.985   4.845
68221W        W35004  36.444   8.828   2.616
68222W        W35005  16.798  19.814   3.655
68223W        W35006  39.418  25.149   0.437
68224W        W35007   6.169   0.907   3.704
68225W        W35008   5.463   0.364   0.591
68226W        W35009  26.958  12.306  13.454
68227W        W35010  31.171  36.031   1.634
68228W        W35011  18.575  28.033  14.588
68229W        W35012  40.740  23.790   2.282
68230W        W35013   2.264   9.746  12.965
68231W        W35014  31.813  27.487  11.534
68232W        W35015  26.521  34.412  14.350
68233W        W35016  14.457  15.956   5.079
68234W        W35017  22.262  38.732   0.602
68235W        W35018  30.385  26.293  11.884
68236W        W35019   9.435   2.252  12.847
68237W        W35020  43.343  40.079   1.283
68238W        W35021  16.847  38.543   0.422
68239W        W35022  37.426   5.653  12.141
68240W        W35023  12.231  36.393   2.681
68241W        W35024  23.307  38.316   0.862
68242W        W35025  23.217  10.255   2.330
68243W        W35026  13.854  14.819  11.448
68244W        W35027  10.013   6.772   5.494
68245W        W35028  24.554  36.834  11.906
68246W        W35029  43.220   6.434   4.531
68247W        W35030  13.208  31.095  13.933
68248W        W35031  20.427   5.621  11.783
68249W        W35032  44.647  22.559   1.906
68250W        W35033   3.736   8.346  12.977
68251W        W35034  20.091  24.049   1.415
68252W        W35035  41.673   1.502  14.558
68253W        W35036  37.380  28.890  14.932
68254W        W35037  42.293  15.389   3.263
68255W        W35038  41.907  17.596  14.463
68256W        W35039  12.183  26.070   0.223
68257W        W35040  29.829   6.408  14.018
68258W        W35041   0.072  35.513  11.437
68259W        W35042  10.867  16.351   0.204
68260W        W35043  26.612  12.153  11.229
68261W        W35044  27.173  31.427  12.004
68262W        W35045  38.458  11.268  12.895
68263W        W35046  44.980  20.120   1.862
68264W        W35047  19.895   8.178  11.208
68265W        W35048  42.530  16.196   1.310
68266W        W35049  36.626   3.735  14.955
68267W        W35050  15.609  11.231   0.333
68268W        W35051   6.761  36.916   0.708
68269W        W35052  12.271  26.397   1.929
68270W        W35053  21.976  35.786  11.199
68271W        W35054  42.416   6.674  12.487
68272W        W35055  31.218  34.577  11.166
68273W        W35056  22.151   7.640   3.319
68274W        W35057  33.615  18.109   4.220
68275W        W35058  37.698   4.838   4.963
68276W        W35059  23.376  14.651   2.110
68277W        W35060  26.664  26.700   0.683
68278W        W35061  13.703   3.689  13.355
68279W        W35062   3.706  14.115   1.465
68280W        W35063  19.998  21.729  11.487
68281W        W35064  44.459  24.178   4.749
68282W        W35065  35.045   8.214   3.552
68283W        W35066   5.293   7.196  13.543
68284W        W35067   1.251  44.788   0.296
68285W        W35068  25.512  38.843   4.389
68286W        W35069  10.341   2.677   3.950
68287W        W35070  37.184   2.692   3.875
68288W        W35071   4.817  10.749   3.921
68289W        W35072   4.238  31.588   4.619
68290W        W35073   1.835  26.864   3.270
68291W        W35074  36.448  15.837  14.439
68292W        W35075  42.964  15.756   3.570
68293W        W35076  31.036   3.171   3.627
68294W        W35077  39.951  41.570  10.812
68295W        W35078   3.990  18.226  13.989
68296W        W35079  41.067   3.102  11.183
68297W        W35080  28.920  39.614  12.572
68298W        W35081  41.528  32.215   1.240
68299W        W35082  44.910   3.355  12.313
68300W        W35083  39.611  23.762  11.152
68301W        W35084  14.702   1.250  13.443
68302W        W35085  32.562  30.272  11.529
68303W        W35086   9.196  42.251  12.214
68304W        W35087  10.734  34.234  10.850
68305W        W35088  29.870  23.780  12.111
68306W        W35089  30.345  30.182  14.955
68307W        W35090  13.851  11.096  12.499
68308W        W35091  41.111  16.249  13.089
68309W        W35092  12.032   2.919  13.920
68310W        W35093  34.535  29.723   2.852
68311W        W35094  40.004  23.068  12.130
68312W        W35095  24.818  28.191   2.623
68313W        W35096  35.287  44.337   1.666
68314W        W35097  35.391  38.048   4.073
68315W        W35098  38.515  23.675   1.320
68316W        W35099  27.616  30.868  13.522
68317W        W35100   8.304  33.989   3.639
68318W        W35101   6.246   9.352  14.529
68319W        W35102  18.480  26.939  14.848
68320W        W35103  20.589   7.336  12.108
68321W        W35104  15.362   5.706  14.452
68322W        W35105  22.077   2.365  14.555
68323W        W35106  25.198  32.144   1.852
68324W        W35107   9.228  23.289   4.297
68325W        W35108  16.023  29.391   1.763
68326W        W35109  23.120  39.933   0.056
68327W        W35110  41.017  44.019   1.388
68328W        W35111  27.589  13.565   4.238
68329W        W35112  28.952   8.802  14.725
68330W        W35113  10.310   7.439   0.354
68331W        W35114  41.419  12.089   2.226
68332W        W35115  17.070   1.147  14.022
68333W        W35116  32.433  27.237  12.067
68334W        W35117  26.468  31.651   4.529
68335W        W35118  28.907  21.163   5.035
68336W        W35119  36.272   3.898  10.607
68337W        W35120  36.395  11.545  13.357
68338W        W35121  33.061  35.420   3.152
68339W        W35122   0.112   2.766   4.138
68340W        W35123  29.535  41.322   0.694
68341W        W35124  35.191  18.775   3.238
68342W        W35125  28.988   0.189   0.504
68343W        W35126  42.026  37.143  10.818
68344W        W35127  40.530  15.687  12.933
68345W        W35128  14.069   2.347   0.874
68346W        W35129  23.965  32.493  10.931
68347W        W35130   8.816  40.151  14.808
68348W        W35131  42.887  39.302   2.166
68349W        W35132  22.958  15.976  12.719
68350W        W35133  23.755  35.492  10.631
68351W        W35134  30.659   5.816   2.593
68352W        W35135  17.156  30.668  14.428
68353W        W35136   6.641  44.022   2.866
68354W        W35137  26.864  24.046   3.278
68355W        W35138   2.096  34.048  13.498
68356W        W35139   1.688  26.589  11.521
68357W        W35140  25.007  31.882  13.402
68358W        W35141  37.048  23.639  11.502
68359W        W35142  25.124  10.089   1.854
68360W        W35143  42.078  25.695   4.165
68361W        W35144  25.520   2.205   5.025
68362W        W35145   6.701  33.893  14.628
68363W        W35146  13.320  17.703   1.967
68364W        W35147   4.449   9.380  11.704
68365W        W35148  41.259  20.226   3.793
68366W        W35149  20.452   7.107  10.880
68367W        W35150  29.078  43.534   0.685
68368W        W35151  23.281  11.664   1.918
68369W        W35152  36.690  28.856  11.560
68370W        W35153  21.981  31.204  12.561
68371W        W35154  34.482  11.242   4.262
68372W        W35155  21.929  17.592  10.919
68373W        W35156  18.616  39.139  14.868
68374W        W35157  19.197  26.178  14.341
68375W        W35158  22.289  37.334   2.263
68376W        W35159  10.569   3.215   3.619
68377W        W35160  21.956  35.617   0.070
68378W        W35161   4.165  25.402  12.917
68379W        W35162  41.742   1.480  13.891
68380W        W35163   7.803  31.417  12.926
68381W        W35164   9.330  28.684  10.442
68382W        W35165  28.959  25.327   3.239
68383W        W35166  10.628  35.990  10.984
68384W        W35167  22.224   9.494   2.736
68385W        W35168  10.263  19.079   0.625
68386W        W35169   2.652  20.278   4.627
68387W        W35170  40.332  29.478  12.557
68388W        W35171  21.581  12.896  11.886
68389W        W35172  21.186   8.000  11.133
68390W        W35173   4.766  42.317  10.961
68391W        W35174  28.012  13.686   3.138
68392W        W35175  12.149  17.581  12.933
68393W        W35176  32.536   0.946   3.072
68394W        W35177  44.424  35.784  11.944
68395W        W35178   6.617  18.490   0.285
68396W        W35179  40.893  39.935   2.202
68397W        W35180   0.689   0.507  13.459
68398W        W35181   6.229  36.819   3.168
68399W        W35182  18.594  22.762  12.507
68400W        W35183  22.688  10.206   4.585
68401W        W35184  30.824  23.182   1.219
68402W        W35185  32.826   3.057   3.392
68403W        W35186  17.209  41.876   4.300
68404W        W35187   7.219  17.602  14.037
68405W        W35188  38.568  43.234  13.368
68406W        W35189  29.496  27.618  13.594
68407W        W35190  13.534   2.305   0.890
68408W        W35191  29.200  42.320  11.936
68409W        W35192  22.002   4.799   1.335
68410W        W35193  24.259  30.959  14.923
68411W        W35194  41.533  42.835  14.779
68412W        W35195  30.218  22.060   1.769
68413W        W35196   6.311  38.083   2.687
68414W        W35197  12.687   2.341   1.165
68415W        W35198  24.873  41.680  10.679
68416W        W35199  23.445  20.780  14.095
68417W        W35200  30.011  41.841  13.394
68418W        W35201  17.202   8.835  11.552
68419W        W35202  17.076   0.014  12.919
68420W        W35203  17.223   1.016  11.042
68421W        W35204  43.850  23.366  14.337
68422W        W35205  44.177  36.601   0.656
68423W        W35206  22.579  13.288  13.258
68424W        W35207  14.079  14.404   4.498
68425W        W35208   9.545  44.655   4.094
68426W        W35209  13.476  14.841  10.485
68427W        W35210  31.991  27.467  12.019
68428W        W35211  15.209  17.091   3.367
68429W        W35212  38.839   5.965  13.169
68430W        W35213   4.227  13.927   4.765
68431W        W35214   6.983   8.488   1.029
68432W        W35215  36.318  43.792   0.276
68433W        W35216  10.108   3.476  11.559
68434W        W35217  10.189  16.371  10.546
68435W        W35218  26.704   3.757   0.455
68436W        W35219  41.873   4.150  11.383
68437W        W35220   6.286  40.871   4.589
68438W        W35221  30.056  36.750   3.118
68439W        W35222  19.256  14.519   0.514
68440W        W35223  31.882  41.583   1.711
68441W        W35224  11.534  26.633  11.266
68442W        W35225  28.052   4.238   0.343
68443W        W35226   8.945  26.662  11.522
68444W        W35227  16.017  22.979   3.185
68445W        W35228  24.843   0.837  12.467
68446W        W35229  33.982   2.931   1.280
68447W        W35230  24.970  44.465   4.825
68448W        W35231  40.447  13.097  14.462
68449W        W35232  40.379  11.640   3.306
68450W        W35233  29.645   1.806  12.773
68451W        W35234  38.452  16.575   1.400
68452W        W35235  33.985  18.055  12.093
68453W        W35236  19.780  35.825  11.255
68454W        W35237  37.246   1.881  13.117
68455W        W35238  18.042  32.926   4.728
68456W        W35239  28.636   4.171  12.512
68457W        W35240   4.048   9.547   0.056
68458W        W35241  40.849  10.669  13.943
68459W        W35242  27.074  24.913  11.528
68460W        W35243  13.271   4.532  12.543
68461W        W35244  22.351  38.621   2.671
68462W        W35245   9.365   1.820   1.003
68463W        W35246  13.052  42.371  13.077
68464W        W35247  16.037  17.253   3.154
68465W        W35248  40.870  20.740   3.167
68466W        W35249  19.959  36.553   0.744
68467W        W35250  38.447  14.996  11.467
68468W        W35251   3.404  42.810  13.451
68469W        W35252  14.544  19.182  11.665
68470W        W35253  18.495  10.235   0.997
68471W        W35254  21.720   8.135  13.037
68472W        W35255   8.033   1.944   3.361
68473W        W35256  22.126  16.709   2.352
68474W        W35257  30.422   3.635   4.660
68475W        W35258  25.034  16.138   4.883
68476W        W35259  15.429   8.832   0.324
68477W        W35260   8.215   0.522  11.769
68478W        W35261   5.767  18.766   1.928
68479W        W35262  14.359  16.553  10.579
68480W        W35263   5.959  15.747   0.433
68481W        W35264  16.699  41.850   3.581
68482W        W35265  34.320  12.163  10.800
68483W        W35266  28.445  21.040   4.301
68484W        W35267   0.950  30.660   0.449
68485W        W35268  32.315  19.567  12.455
68486W        W35269  34.351  32.493  14.865
68487W        W35270   8.888  15.925   3.743
68488W        W35271  29.300  32.908  11.242
68489W        W35272  40.165   6.475   2.448
68490W        W35273  38.454  20.795   1.307
68491W        W35274   9.953  30.963   3.560
68492W        W35275  38.512  13.143  11.519
68493W        W35276  24.597  27.381  11.910
68494W        W35277  11.890  35.616  10.536
68495W        W35278  28.058   1.796   4.531
68496W        W35279  42.944  44.246   3.315
68497W        W35280  15.695  25.466   2.630
68498W        W35281  20.021  26.452   3.641
68499W        W35282   2.844  28.671   0.706
68500W        W35283  25.032  23.124   1.393
68501W        W35284  17.831  23.808  12.016
68502W        W35285  33.004  27.062  14.677
68503W        W35286  41.079  28.564  12.894
68504W        W35287  28.229  11.409  11.038
68505W        W35288  21.548   8.674  12.414
68506W        W35289  34.013  37.495   4.493
68507W        W35290   3.706   9.840   3.298
68508W        W35291  22.452  19.355  14.434
68509W        W35292  38.300  34.678  11.735
68510W        W35293   9.623  35.529  11.201
68511W        W35294  22.674  33.404   3.470
68512W        W35295  44.059  38.838  14.034
68513W        W35296  34.298   8.381  12.400
68514W        W35297  28.417   5.531  13.382
68515W        W35298  34.371  20.322   1.416
68516W        W35299  13.025  32.919   4.090
68517W        W35300  40.123  31.152   0.226
68518W        W35301  38.795   2.808  10.615
68519W        W35302  37.069  41.989  11.687
68520W        W35303   7.711  12.690  12.462
68521W        W35304  36.035   9.181   4.541
68522W        W35305  29.297  21.463   0.562
68523W        W35306  38.388  35.337   1.774
68524W        W35307   5.333  14.869  13.513
68525W        W35308  22.494   4.004   4.687
68526W        W35309   7.754  26.150  12.602
68527W        W35310  32.010  12.303  13.426
68528W        W35311  15.078  23.332   0.330
68529W        W35312   7.214  29.576  13.593
68530W        W35313   7.232   5.375  12.245
68531W        W35314  16.151  27.479  14.784
68532W        W35315  21.388  11.157  13.129
68533W        W35316  20.375  33.398   4.877
68534W        W35317  14.337  28.948  13.352
68535W        W35318  11.283  42.899  12.150
68536W        W35319  43.989  28.505  12.321
68537W        W35320  35.520  11.067  10.743
68538W        W35321  38.478  34.732  11.213
68539W        W35322  41.326  42.385  14.958
68540W        W35323  29.457  23.649  12.469
68541W        W35324  32.307  27.126   0.245
68542W        W35325  23.653  18.678   4.987
68543W        W35326   2.857   2.342  10.706
68544W        W35327  41.389  18.382  13.333
68545W        W35328  20.398   9.428   4.472
68546W        W35329  12.352  40.251  11.034
68547W        W35330  11.138   4.181   2.547
68548W        W35331  26.684  30.187   3.855
68549W        W35332  42.876  25.259  13.453
68550W        W35333  24.995  26.650   0.433
68551W        W35334  28.950  15.111   3.775
68552W        W35335  34.241  29.256  14.157
68553W        W35336  25.293  34.122  10.751
68554W        W35337  38.916   7.244   4.109
68555W        W35338  22.651  21.294  14.588
68556W        W35339  19.603  35.665  10.437
68557W        W35340  39.051  18.009   2.311
68558W        W35341  16.122  31.286  12.839
68559W        W35342  29.936  41.421   2.763
68560W        W35343  41.050  17.586  11.079
68561W        W35344   9.095   3.444  11.689
68562W        W35345  40.858  30.531  10.740
68563W        W35346  42.926  30.783   4.324
68564W        W35347  14.322  17.421   3.448
68565W        W35348  35.702   0.224   0.708
68566W        W35349  33.396   1.733   4.088
68567W        W35350   7.928   6.860  12.566
68568W        W35351  10.256   0.029   1.785
68569W        W35352  19.018  21.285   1.390
68570W        W35353  28.660  15.724  10.562
68571W        W35354  24.915   5.193   3.236
68572W        W35355  28.437  40.104   9.800
68573W        W35356  15.139  34.001   0.709
68574W        W35357  19.996  19.620   0.285
68575W        W35358  25.318   6.926   4.145
68576W        W35359  16.824  44.454  11.047
68577W        W35360  35.023   9.957  11.063
68578W        W35361  22.643  28.855   4.127
68579W        W35362  13.109   1.422  14.876
68580W        W35363  35.110  12.402  11.167
68581W        W35364  37.058  14.539  12.492
68582W        W35365  31.747  42.941   0.807
68583W        W35366  32.325  19.787  13.335
68584W        W35367  19.657   5.346   0.180
68585W        W35368  42.703   4.938  13.561
68586W        W35369  30.584  31.139   3.046
68587W        W35370  20.479   4.670  10.657
68588W        W35371  26.895  20.992  12.423
68589W        W35372  38.149  17.189   3.959
68590W        W35373   0.922  14.410   2.990
68591W        W35374  43.299  44.085  11.629
68592W        W35375  41.319  19.831  11.379
68593W        W35376  24.699  30.378  11.023
68594W        W35377  13.473  28.540   3.897
68595W        W35378  32.353   2.121  13.710
68596W        W35379  15.066  31.627  11.988
68597W        W35380  14.668  39.019   4.116
68598W        W35381  14.428  12.575   0.769
68599W        W35382  36.069  37.037   1.723
68600W        W35383  13.344  23.100  11.565
68601W        W35384   7.434  41.482  10.453
68602W        W35385   0.404   0.903  12.579
68603W        W35386  38.454  26.349  11.031
68604W        W35387  34.321   9.918   2.172
68605W        W35388   6.567  32.162  13.120
68606W        W35389  26.826  32.998  14.331
68607W        W35390   7.010  36.279   1.995
68608W        W35391   5.889  21.513   1.401
68609W        W35392  11.340  31.858  11.660
68610W        W35393  32.543  14.690   3.697
68611W        W35394  29.948  12.237   1.474
68612W        W35395  19.083  35.511   0.197
68613W        W35396  41.819  44.193  12.611
68614W        W35397   8.806  19.092  14.922
68615W        W35398   4.883   3.427   4.203
68616W        W35399  44.475  16.595  11.351
68617W        W35400   4.880  33.854   0.751
68618W        W35401   6.440  15.569  13.310
68619W        W35402  14.044  35.468   1.489
68620W        W35403   7.280  20.983  11.429
68621W        W35404   6.755  36.840  14.851
68622W        W35405   9.701  12.428   0.368
68623W        W35406  11.249   2.370  13.437
68624W        W35407   4.480   6.136   4.455
68625W        W35408   0.440  16.236  11.096
68626W        W35409  12.155  22.278  13.672
68627W        W35410  23.257  20.654   2.752
68628W        W35411   7.589  30.947  13.136
68629W        W35412  42.361  23.441   1.681
68630W        W35413  16.614  32.841   3.866
68631W        W35414  30.395  19.144   0.839
68632W        W35415  22.712  26.739   2.377
68633W        W35416  40.886  41.281   4.331
68634W        W35417  43.694   9.770   4.959
68635W        W35418  33.557  32.299   4.502
68636W        W35419  17.726  13.279   0.480
68637W        W35420   7.230  26.116  13.932
68638W        W35421   4.472  30.673   1.800
68639W        W35422  32.545  22.680  13.602
68640W        W35423   2.651  29.923  11.236
68641W        W35424   2.105   7.923   2.665
68642W        W35425  20.155  41.809   4.091
68643W        W35426  40.817   8.323   9.937
68644W        W35427  35.327  10.725   4.608
68645W        W35428  33.272  26.712   0.912
68646W        W35429  27.133  34.408  10.559
68647W        W35430   7.955  13.734  13.766
68648W        W35431  33.487  38.723  13.414
68649W        W35432  31.919   5.680   0.482
68650W        W35433  44.480  14.099  12.888
68651W        W35434   0.295   5.909   2.376
68652W        W35435  17.935  37.986  13.937
68653W        W35436  28.906   3.234  10.727
68654W        W35437  30.729   3.209   0.885
68655W        W35438  17.754  27.465  11.529
68656W        W35439   5.224   3.439   2.636
68657W        W35440  31.980  19.035   3.199
68658W        W35441  17.295  28.099  13.243
68659W        W35442  43.358  24.238   1.190
68660W        W35443  36.873  38.818   2.276
68661W        W35444  44.510  36.163   4.644
68662W        W35445   1.704  21.116  13.708
68663W        W35446  12.604  28.520   4.160
68664W        W35447  13.077  26.499   3.395
68665W        W35448  25.192  23.168  10.706
68666W        W35449  30.437  44.968   0.038
68667W        W35450  19.146  10.316   3.370
68668W        W35451  41.950  31.551   4.621
68669W        W35452   2.531  29.580  12.467
68670W        W35453  38.605  23.440  11.015
68671W        W35454  38.354  40.347  12.667
68672W        W35455   3.441   8.783   3.627
68673W        W35456  21.256   0.973   2.220
68674W        W35457  38.356  17.146  12.922
68675W        W35458  15.158  32.505   3.218
68676W        W35459  34.627  17.646  12.443
68677W        W35460  41.576  42.784   0.732
68678W        W35461  27.035   8.277   0.732
68679W        W35462  28.523  41.066  14.069
68680W        W35463  24.259   7.586  11.884
68681W        W35464  12.392   1.391  13.296
68682W        W35465  20.988  30.947   0.746
68683W        W35466  32.868  15.489  13.467
68684W        W35467   4.262  41.030   3.204
68685W        W35468  38.999   6.161  10.244
68686W        W35469  34.442   4.595  11.851
68687W        W35470  31.585  42.031   2.124
68688W        W35471  37.272  39.621   3.303
68689W        W35472  36.286   1.502  11.708
68690W        W35473  17.101   8.388  14.470
68691W        W35474  43.642  32.974   0.831
68692W        W35475  41.882  41.769  14.057
68693W        W35476   0.489  43.514  11.415
68694W        W35477  13.329   4.806   0.915
68695W        W35478  31.220  11.016   1.838
68696W        W35479   4.608  29.929   4.563
68697W        W35480  26.611   5.898   4.684
68698W        W35481  29.522  25.221   0.219
68699W        W35482  14.884  27.215   0.352
68700W        W35483  34.017  37.378  11.856
68701W        W35484   1.208   0.686  11.126
68702W        W35485  30.369   8.171   3.706
68703W        W35486  26.106  13.251   4.979
68704W        W35487  26.004  18.714   1.189
68705W        W35488  12.291   3.744   2.749
68706W        W35489  37.455  12.195   4.501
68707W        W35490  15.748   1.489  13.921
68708W        W35491  30.885  36.423   1.374
68709W        W35492  12.003   2.697  11.304
68710W        W35493   7.156  31.626   1.415
68711W        W35494  13.986  36.887   1.607
68712W        W35495  24.406  13.499   0.944
68713W        W35496   0.294  25.469  12.927
68714W        W35497  31.677  21.779  11.681
68715W        W35498  30.090  38.979  12.625
68716W        W35499  18.858  40.363  13.874
68717W        W35500  23.966  40.240  13.810
68718W        W35501  11.430  32.382  10.552
68719W        W35502  31.169  29.212  10.779
68720W        W35503  14.881  33.968  13.263
68721W        W35504  12.740  32.082  10.680
68722W        W35505  21.919  27.961  12.887
68723W        W35506   9.456  15.206  11.497
68724W        W35507   2.840  25.369  14.293
68725W        W35508  38.429  44.039  12.119
68726W        W35509  36.830  25.108   2.295
68727W        W35510  17.078   1.371  13.495
68728W        W35511  40.498  40.508   2.735
68729W        W35512   2.718   4.752  11.774
68730W        W35513  25.979  32.568   4.055
68731W        W35514  19.441  41.033  13.872
68732W        W35515  11.403  32.947   3.151
68733W        W35516  24.446  29.365   5.086
68734W        W35517  43.869  14.294   0.337
68735W        W35518   6.731  39.540  12.575
68736W        W35519  30.526   4.720   1.818
68737W        W35520  39.081  30.007   2.374
68738W        W35521   1.264  27.999   2.719
68739W        W35522  40.060  39.626  12.166
68740W        W35523   1.953  26.670  10.123
68741W        W35524   2.275  19.316  12.123
68742W        W35525  22.696   0.902  12.510
68743W        W35526  42.928  26.550  10.219
68744W        W35527   2.308  11.364   4.502
68745W        W35528  26.441  40.016  14.926
68746W        W35529   9.665  33.516   4.741
68747W        W35530  39.371  25.241  11.082
68748W        W35531  19.708   0.435  14.792
68749W        W35532  28.625  33.294   2.445
68750W        W35533  15.520  34.510  10.686
68751W        W35534  20.729   9.899  13.706
68752W        W35535  20.569   1.344  14.791
68753W        W35536  26.647  17.676   0.543
68754W        W35537  15.406  27.766  10.190
68755W        W35538  33.975  34.467   4.094
68756W        W35539  31.663  25.431  11.087
68757W        W35540  12.064   7.711  13.302
68758W        W35541  33.681   4.789   5.033
68759W        W35542  15.702  39.964   9.999
68760W        W35543  16.052  27.658   1.800
68761W        W35544   4.729  15.101  13.443
68762W        W35545  20.152  15.968  14.043
68763W        W35546  11.861  38.424   2.864
68764W        W35547  17.553  41.414  12.111
68765W        W35548  39.415   0.310  10.589
68766W        W35549  40.097  18.784   5.106
68767W        W35550  18.064  31.395  10.693
68768W        W35551  43.926  25.973   3.630
68769W        W35552  38.414  37.832   4.082
68770W        W35553  19.753   7.380   3.502
68771W        W35554  30.187  23.128   1.074
68772W        W35555  34.316  35.900  13.422
68773W        W35556  41.699  10.274  11.129
68774W        W35557   8.186  22.504   3.730
68775W        W35558   7.290   6.343  11.265
68776W        W35559  21.347  17.759   4.141
68777W        W35560  13.838   8.071  13.614
68778W        W35561  30.226  13.803  12.972
68779W        W35562  41.852  25.561   5.091
68780W        W35563  11.176  28.616   4.115
68781W        W35564  26.442   3.564   5.487
68782W        W35565  13.560   4.787   1.396
68783W        W35566   5.455  41.378   4.854
68784W        W35567   9.399  35.840   2.931
68785W        W35568  42.003   4.256  13.526
68786W        W35569  38.676  26.928   2.231
68787W        W35570   8.197  34.947   3.507
68788W        W35571  18.729  13.064   0.437
68789W        W35572  28.323  31.688  14.401
68790W        W35573  36.129   7.597  13.073
68791W        W35574  27.284  42.684  13.372
68792W        W35575  30.400  42.260  12.542
68793W        W35576   4.911  19.523   0.293
68794W        W35577  41.214   0.511  12.966
68795W        W35578  43.316  29.917   0.728
68796W        W35579   6.023   2.873   1.718
68797W        W35580  20.506  21.662  14.882
68798W        W35581  14.063   4.833   2.309
68799W        W35582  29.936  19.632  10.809
68800W        W35583  24.688  29.254   3.311
68801W        W35584   5.248  15.014  14.374
68802W        W35585  10.801   5.939   2.887
68803W        W35586  19.704  14.424  12.933
68804W        W35587   0.620  44.839   2.726
68805W        W35588  18.231  43.040  12.088
68806W        W35589   6.719  33.522   4.793
68807W        W35590   2.652   8.514   3.228
68808W        W35591  29.601  14.910   3.066
68809W        W35592  41.954  16.456  13.087
68810W        W35593  37.542  16.574  14.377
68811W        W35594  15.121  17.863  11.088
68812W        W35595   6.975   5.557  13.113
68813W        W35596   1.495  41.018   1.309
68814W        W35597   6.244  32.291   2.216
68815W        W35598  10.652  43.746  12.981
68816W        W35599  43.095  13.034   0.965
68817W        W35600   9.238  20.969   3.680
68818W        W35601  17.210  18.161   1.890
68819W        W35602   6.104  29.153  14.484
68820W        W35603  29.666  10.367   0.923
68821W        W35604  34.506  26.355   3.321
68822W        W35605   8.152  36.385   4.552
68823W        W35606  32.211  29.647   0.385
68824W        W35607   1.055  41.418   3.162
68825W        W35608   8.914  44.780   3.289
68826W        W35609  25.718  24.662   0.233
68827W        W35610  15.264  22.700   3.266
68828W        W35611   6.854  33.832  14.113
68829W        W35612  40.114  21.850  14.686
68830W        W35613  11.805  44.227   4.639
68831W        W35614  32.076   0.292   0.242
68832W        W35615  37.354  20.027   0.005
68833W        W35616  29.468  28.656   4.650
68834W        W35617  30.167  30.565   3.017
68835W        W35618  33.883  13.252   2.804
68836W        W35619   6.919   5.423   1.850
68837W        W35620   8.708  34.574  10.256
68838W        W35621  23.338  40.228  13.977
68839W        W35622   7.108  28.141  13.947
68840W        W35623  30.044  16.266  10.872
68841W        W35624  20.753  29.649  14.907
68842W        W35625  42.327  31.105  10.881
68843W        W35626  44.447  13.421   9.787
68844W        W35627  21.230  24.246  12.511
68845W        W35628  44.649  10.686   1.451
68846W        W35629  13.447  35.977   2.118
68847W        W35630  40.470  29.932   2.121
68848W        W35631  11.983  20.819  10.603
68849W        W35632  20.013  36.333   3.322
68850W        W35633  32.873  44.914   3.663
68851W        W35634  44.405  19.612  13.457
68852W        W35635   7.187  20.187  13.686
68853W        W35636  13.911   0.553   3.870
68854W        W35637  28.605  42.017  12.890
68855W        W35638  34.655   3.829   3.119
68856W        W35639  43.083  14.471   0.671
68857W        W35640   1.190  19.053  13.027
68858W        W35641  29.560  13.501   4.697
68859W        W35642   7.627  21.098   5.278
68860W        W35643  32.417   1.031  13.025
68861W        W35644  34.968   5.348   4.586
68862W        W35645  36.594  41.084   4.349
68863W        W35646  28.440  23.638   1.745
68864W        W35647   0.705   8.792  11.572
68865W        W35648  27.926  28.707   2.400
68866W        W35649  14.645  10.062   2.543
68867W        W35650  18.081  42.396  14.828
68868W        W35651  26.431  24.040  13.041
68869W        W35652  23.266  41.287  14.904
68870W        W35653   2.538  19.716  11.204
68871W        W35654  35.877  11.856  12.707
68872W        W35655  16.164   3.795   2.495
68873W        W35656   0.935  38.305   3.953
68874W        W35657  44.046  23.545   0.404
68875W        W35658  43.508  29.306  10.850
68876W        W35659  20.228   5.156  13.473
68877W        W35660  19.957  37.977  11.039
68878W        W35661  21.253  25.193  13.764
68879W        W35662  21.081  39.513  12.022
68880W        W35663  32.508  33.144  14.930
68881W        W35664  16.289  19.858  13.523
68882W        W35665  39.805  28.642  12.358
68883W        W35666  16.315   1.404   4.693
68884W        W35667   6.185  17.549   1.430
68885W        W35668  26.939  41.423   2.632
68886W        W35669  23.696   9.638   1.206
68887W        W35670  32.308   8.088  12.437
68888W        W35671  10.429  11.853  14.922
68889W        W35672  16.082   1.860  14.770
68890W        W35673  22.098   3.318   2.674
68891W        W35674  13.917   0.052   2.763
68892W        W35675  34.588  33.210  14.561
68893W        W35676  24.589  11.353   3.696
68894W        W35677  15.688   1.487  10.722
68895W        W35678  11.106  24.037   1.317
68896W        W35679  22.326   8.366   1.259
68897W        W35680  23.539   3.167   0.080
68898W        W35681  40.732  30.107  12.075
68899W        W35682  14.054  20.239   3.318
68900W        W35683  17.819   7.796   0.410
68901W        W35684  37.878   3.762   4.869
68902W        W35685  44.465  42.650   3.212
68903W        W35686   2.010  44.770   3.699
68904W        W35687  41.020  24.019   0.830
68905W        W35688   6.310  17.388  10.350
68906W        W35689  35.531  35.467  14.831
68907W        W35690  34.579  25.768  11.439
68908W        W35691  19.723  27.308   4.714
68909W        W35692   6.211  19.219  12.017
68910W        W35693  14.726  32.538  10.691
68911W        W35694  30.048  30.107  13.537
68912W        W35695  32.593  10.149   4.685
68913W        W35696  38.395   5.746  11.432
68914W        W35697  12.567  29.698   4.632
68915W        W35698  17.336  21.356  14.537
68916W        W35699  21.804  25.539   3.244
68917W        W35700  27.511  36.623  11.896
68918W        W35701  40.766   6.995   2.643
68919W        W35702  43.436   8.604  12.057
68920W        W35703   1.523   3.050   2.653
68921W        W35704  17.570  15.524   2.526
68922W        W35705  14.614  21.241   3.609
68923W        W35706  30.341  20.744   3.245
68924W        W35707   4.405   5.055  13.921
68925W        W35708   1.202   3.420   2.838
68926W        W35709  37.942  27.450   1.390
68927W        W35710   4.179  43.852   1.889
68928W        W35711  32.429   9.127   2.313
68929W        W35712  43.303  29.515   0.367
68930W        W35713  31.539  36.995   4.972
68931W        W35714  16.689  19.947  14.455
68932W        W35715   6.311  17.061   4.540
68933W        W35716  19.534  24.448  10.571
68934W        W35717  14.804  32.014  13.912
68935W        W35718   3.429   6.209   2.813
68936W        W35719  30.236   3.288   2.345
68937W        W35720  33.986  25.707  14.829
68938W        W35721  11.277   1.541  14.363
68939W        W35722  25.551   0.382   0.957
68940W        W35723  39.324  23.543  14.636
68941W        W35724  38.371  19.293  14.281
68942W        W35725   0.948  12.795   4.455
68943W        W35726  14.062  12.358  12.285
68944W        W35727  33.450  36.023   2.898
68945W        W35728   0.540  20.578  10.342
68946W        W35729  29.415  38.368   1.734
68947W        W35730  24.960  27.330   0.035
68948W        W35731  15.486  29.291  13.882
68949W        W35732  32.932  13.069   2.038
68950W        W35733  31.244  18.634   3.586
68951W        W35734  34.071  24.191   3.333
68952W        W35735   3.353  36.812   2.163
68953W        W35736  29.924  28.173   4.416
68954W        W35737   1.655  17.038  14.343
68955W        W35738  29.428   2.425   0.471
68956W        W35739  26.117  42.499   4.267
68957W        W35740  19.746  38.862   4.409
68958W        W35741  18.041  11.248   4.699
68959W        W35742  18.745  11.123   1.467
68960W        W35743  44.215  19.198   3.213
68961W        W35744  20.247  23.141   4.285
68962W        W35745   5.268  41.453   3.889
68963W        W35746  17.802  22.675   1.447
68964W        W35747  42.761  19.363   2.419
68965W        W35748  31.640  15.269  11.170
68966W        W35749   8.189   8.781   1.239
68967W        W35750  41.091  44.465  14.511
68968W        W35751  35.664  21.685  12.696
68969W        W35752  35.938  41.412  14.629
68970W        W35753  40.341   3.817  10.594
68971W        W35754  22.749  39.840  12.911
68972W        W35755  17.209  42.901   0.899
68973W        W35756   1.760  17.196  11.734
68974W        W35757  20.643  30.119  12.766
68975W        W35758   0.509  23.090   2.050
68976W        W35759  19.299  39.558   2.441
68977W        W35760  36.034  42.291  14.473
68978W        W35761   4.603   9.929  14.562
68979W        W35762  35.565   5.082   4.055
68980W        W35763  39.915  18.344  14.269
68981W        W35764  31.413  35.607   4.787
68982W        W35765  26.136   8.758   3.654
68983W        W35766  19.340   6.779   1.232
68984W        W35767  16.629   6.717   0.495
68985W        W35768   7.234   1.419  13.991
68986W        W35769  21.061   8.733  11.547
68987W        W35770  43.129  10.697   1.343
68988W        W35771  22.272   4.744  13.584
68989W        W35772  18.172  35.957  10.648
68990W        W35773  21.491  26.528   0.449
68991W        W35774   4.010   3.880   4.669
68992W        W35775  10.677  19.814   0.439
68993W        W35776   9.141   2.999   2.212
68994W        W35777  33.596  19.974   3.448
68995W        W35778  11.133  10.445   1.732
68996W        W35779  44.548  27.526  11.608
68997W        W35780  19.227  25.029  13.283
68998W        W35781  13.875   9.311   4.661
68999W        W35782  25.084  15.485   0.927
69000W        W35783   1.194  22.311   1.229
69001W        W35784   8.811  44.286  11.425
69002W        W35785  11.607  14.197  12.873
69003W        W35786  10.737  23.522   2.000
69004W        W35787  28.290  23.861   3.269
69005W        W35788  27.465  20.460  13.999
69006W        W35789  41.498  27.415   0.920
69007W        W35790  26.613  41.868   3.359
69008W        W35791  37.057  12.549  14.582
69009W        W35792  30.114  36.766  13.375
69010W        W35793  23.697  43.535  12.166
69011W        W35794  17.715  38.395   4.566
69012W        W35795   8.943   6.606   4.322
69013W        W35796  42.579  34.948   4.131
69014W        W35797   1.906   8.544  13.511
69015W        W35798  32.534  34.384  13.409
69016W        W35799   5.302  10.220  14.074
69017W        W35800  35.528  32.941   2.400
69018W        W35801  34.567   9.540   5.487
69019W        W35802  12.250   2.470   1.971
69020W        W35803  41.445  44.030  13.290
69021W        W35804  13.650   0.554  13.623
69022W        W35805  15.561  37.280   0.376
69023W        W35806  37.980  32.970  14.594
69024W        W35807  42.533  18.683   4.557
69025W        W35808  10.375  11.308   4.147
69026W        W35809  24.498  21.591  14.911
69027W        W35810   4.903  15.793   4.005
69028W        W35811  30.064  11.700   0.874
69029W        W35812   1.296  14.507   2.639
69030W        W35813  33.058  21.244   2.338
69031W        W35814  27.707  33.350   2.789
69032W        W35815  35.848  32.112   5.327
69033W        W35816  29.444  36.033  13.560
69034W        W35817  29.069  31.633  12.402
69035W        W35818  15.804  35.757  12.107
69036W        W35819  33.027  39.793   2.190
69037W        W35820  17.042  44.448   3.203
69038W        W35821  41.911  37.844   3.731
69039W        W35822  34.183  28.742  12.381
69040W        W35823  33.515  19.133  11.211
69041W        W35824  19.331  17.813   1.764
69042W        W35825  32.520   1.590   4.602
69043W        W35826  28.465  10.173   1.031
69044W        W35827  30.614  13.625   2.696
69045W        W35828   2.219  28.214  13.118
69046W        W35829  18.040   0.678  10.598
69047W        W35830  27.787  41.770   0.693
69048W        W35831  27.705  35.093  10.962
69049W        W35832  16.429   4.817   3.776
69050W        W35833   3.981  11.405  11.913
69051W        W35834  14.092  41.947   2.186
69052W        W35835   5.455  31.072  14.174
69053W        W35836  16.071  27.625  13.277
69054W        W35837  43.933  41.699  13.620
69055W        W35838  24.258  36.931  12.989
69056W        W35839  21.792  15.666   0.376
69057W        W35840  14.109  14.410  11.212
69058W        W35841  44.908  31.514  12.318
69059W        W35842  22.036  33.352   1.308
69060W        W35843  14.255  17.527   4.806
69061W        W35844   8.019  24.692   2.759
69062W        W35845   5.968  23.674  14.327
69063W        W35846  10.343   0.180   0.397
69064W        W35847  24.739  15.798  12.726
69065W        W35848   1.371   0.173  11.986
69066W        W35849  28.032   7.874  13.388
69067W        W35850  41.336  34.505  11.102
69068W        W35851  13.561  30.365  14.757
69069W        W35852   7.419  11.832  14.894
69070W        W35853  18.502  20.976   3.333
69071W        W35854  39.258  32.088   4.632
69072W        W35855  42.850  29.448  11.945
69073W        W35856  36.613  24.187   1.391
69074W        W35857  34.508  33.333   4.530
69075W        W35858  32.034  35.133  14.921
69076W        W35859  17.833   3.313  11.973
69077W        W35860   7.257   5.263   0.410
69078W        W35861  13.825  39.580  11.034
69079W        W35862   3.839  44.473  10.316
69080W        W35863  28.933  20.062  12.438
69081W        W35864  26.798   3.758  10.725
69082W        W35865  42.795  11.799   4.560
69083W        W35866  25.111  37.663  14.785
69084W        W35867  33.542   1.547   4.648
69085W        W35868   6.218   4.668   2.773
69086W        W35869  31.887  24.698  14.067
69087W        W35870  14.486  42.126   1.352
69088W        W35871  18.609  33.864  12.422
69089W        W35872  38.967  32.351   0.241
69090W        W35873  22.535   8.690   0.915
69091W        W35874  16.233  11.687   0.397
69092W        W35875  19.593  23.030  13.051
69093W        W35876  11.330   6.232   0.703
69094W        W35877   3.380  37.956  14.665
69095W        W35878  26.188  32.350   0.410
69096W        W35879  11.620  10.278   2.662
69097W        W35880  22.741   1.901  12.636
69098W        W35881  38.421   8.341   2.740
69099W        W35882   8.503  22.252   3.381
69100W        W35883  35.353   5.163  11.208
69101W        W35884  25.304  13.874   2.721
69102W        W35885  26.656  40.925   2.749
69103W        W35886   9.118  29.273  12.030
69104W        W35887  25.852  42.862  13.567
69105W        W35888  20.595   8.740  14.994
69106W        W35889  44.326   6.160   2.105
69107W        W35890  40.266  15.679   0.418
69108W        W35891  39.298  22.036   3.693
69109W        W35892  36.192  11.645   3.108
69110W        W35893  29.180  41.991  14.807
69111W        W35894  42.743   6.024  14.374
69112W        W35895  44.293  35.502  10.994
69113W        W35896   3.898  26.580  11.142
69114W        W35897  31.325  13.592  12.514
69115W        W35898  34.664  37.978   0.810
69116W        W35899  42.319   4.388  12.195
69117W        W35900  14.834   9.243   1.332
69118W        W35901  33.087  20.621  11.779
69119W        W35902  19.016   6.280  14.127
69120W        W35903  21.166   0.945   4.109
69121W        W35904   9.857  27.262  13.288
69122W        W35905  10.707  18.066   1.688
69123W        W35906  26.930   3.404   2.679
69124W        W35907  42.269  29.462   2.398
69125W        W35908   4.742  21.735   0.323
69126W        W35909  30.700  44.218  11.309
69127W        W35910   0.167   3.120   4.525
69128W        W35911  35.968  41.582  11.024
69129W        W35912   6.729   6.436   0.423
69130W        W35913  19.726  26.868  12.467
69131W        W35914   7.403   1.435   3.445
69132W        W35915  10.748  44.698   0.782
69133W        W35916  15.784  17.190  13.410
69134W        W35917  36.087  30.022   1.827
69135W        W35918  44.298  27.168  12.873
69136W        W35919  43.053  13.827  11.573
69137W        W35920  27.176  25.598  12.784
69138W        W35921  39.308  18.317  12.537
69139W        W35922  14.923  34.035  10.334
69140W        W35923  29.884  36.619   1.326
69141W        W35924   8.066  40.841  14.331
69142W        W35925   5.479  43.071  10.640
69143W        W35926  40.079  37.772  14.065
69144W        W35927  32.913  40.399   4.266
69145W        W35928  39.388  26.088  10.699
69146W        W35929  23.678   5.683   4.546
69147W        W35930  38.538   9.155  12.313
69148W        W35931  28.377  29.212  12.785
69149W        W35932  17.491  41.947   0.296
69150W        W35933  25.977  38.863   0.354
69151W        W35934  16.606  16.114  14.947
69152W        W35935  26.738   4.739   2.917
69153W        W35936  21.226  22.242   3.104
69154W        W35937   4.194   2.301   1.940
69155W        W35938  26.436   5.378  11.741
69156W        W35939   2.532  43.881  14.766
69157W        W35940  42.719   8.292  14.058
69158W        W35941  28.697  21.909  12.206
69159W        W35942   2.837  35.109  13.377
69160W        W35943  39.573  39.138  13.834
69161W        W35944  21.244   4.425  12.026
69162W        W35945  10.064  23.949   1.362
69163W        W35946  25.074  29.277  13.971
69164W        W35947  42.510  44.551   3.212
69165W        W35948  31.474  19.620   3.544
69166W        W35949  19.783  22.994  10.773
69167W        W35950   6.343  34.608   4.436
69168W        W35951  31.462  35.761  10.938
69169W        W35952  32.677  41.348  11.072
69170W        W35953  28.600  21.012   2.823
69171W        W35954  16.409  24.197   4.222
69172W        W35955  40.352  33.900   2.532
69173W        W35956   0.482  20.167   0.884
69174W        W35957  38.015  13.360   1.374
69175W        W35958  15.888  26.488  14.789
69176W        W35959  30.514  23.622  14.960
69177W        W35960   8.790  28.838  12.409
69178W        W35961  22.658  38.638  12.495
69179W        W35962  11.310  11.517  14.326
69180W        W35963  14.117   0.948  14.403
69181W        W35964   7.962   3.110   1.850
69182W        W35965  23.561  29.503  14.043
69183W        W35966   0.863  44.331  11.354
69184W        W35967  13.257  22.996   4.173
69185W        W35968   8.608  35.559  12.585
69186W        W35969  42.483  30.214   1.217
69187W        W35970  18.690  18.109  10.956
69188W        W35971  10.902  15.599   2.370
69189W        W35972  41.165  36.375   1.707
69190W        W35973  12.229  12.139   2.343
69191W        W35974  32.922  33.850   1.439
69192W        W35975  11.252  12.081   1.277
69193W        W35976   7.805  20.342   5.023
69194W        W35977  20.612  29.544   1.306
69195W        W35978  11.317  36.572  10.625
69196W        W35979  41.809  39.374   0.812
69197W        W35980  35.761  13.093   1.707
69198W        W35981  26.020  14.334   3.712
69199W        W35982  37.514  14.004   4.583
69200W        W35983  41.045   9.381   4.545
69201W        W35984  19.623  29.098  10.145
69202W        W35985  24.212  43.607   0.780
69203W        W35986  33.873  38.353  11.643
69204W        W35987  28.099  18.215   3.888
69205W        W35988  17.343   7.927  14.475
69206W        W35989  13.397  10.383   2.826
69207W        W35990  43.788  28.465  14.910
69208W        W35991   8.214  34.860   4.261
69209W        W35992  13.577  40.312   2.669
69210W        W35993  28.930  16.246  13.537
69211W        W35994  31.691  38.849  11.500
69212W        W35995  13.354  40.367  12.043
69213W        W35996  39.972   5.603   1.399
69214W        W35997  40.428   4.394  14.465
69215W        W35998  15.516  30.975  10.463
69216W        W35999  13.686  24.007   2.736
69217W        W36000  12.917   0.212  13.170
69218W        W36001  38.733   8.865  14.991
69219W        W36002  11.395  44.008   2.774
69220W        W36003  26.293  37.499  13.503
69221W        W36004  25.993  15.275   4.191
69222W        W36005  13.201  29.893  12.166
69223W        W36006  39.094   6.901   3.749
69224W        W36007  10.127   1.216   4.177
69225W        W36008   2.114  16.571   1.261
69226W        W36009  32.903  22.425  13.344
69227W        W36010  43.418  38.072   4.590
69228W        W36011  11.551  22.138   0.882
69229W        W36012  30.155  18.137  13.973
69230W        W36013  29.621  26.729   4.215
69231W        W36014  24.487  30.954  13.592
69232W        W36015  44.735   5.224  14.476
69233W        W36016   9.436  10.700  13.995
69234W        W36017  40.125  20.909   4.551
69235W        W36018   6.605  44.504   2.662
69236W        W36019  17.761  12.906   0.869
69237W        W36020  28.162  17.160   3.621
69238W        W36021  42.812  22.507   3.308
69239W        W36022   7.574  12.686   1.804
69240W        W36023   1.801  36.291  10.497
69241W        W36024   1.572  28.744  13.442
69242W        W36025   0.800   9.658  12.435
69243W        W36026  11.269  35.005  11.943
69244W        W36027  11.391  38.083   1.200
69245W        W36028  42.241  32.416  13.421
69246W        W36029  23.993  40.912   3.695
69247W        W36030  42.105   5.694  13.950
69248W        W36031  38.866  21.625  14.807
69249W        W36032  20.074  34.937   1.779
69250W        W36033  24.953   8.207  14.325
69251W        W36034  42.761  38.830   0.375
69252W        W36035  30.462  22.484  12.050
69253W        W36036   3.387  27.009   4.622
69254W        W36037  15.196  36.795  11.567
69255W        W36038  40.392   9.303  14.458
69256W        W36039  36.467  43.449  12.486
69257W        W36040  15.640  37.669   2.643
69258W        W36041   5.206   0.959  10.285
69259W        W36042   7.959   4.435   1.865
69260W        W36043   5.804  15.095  10.606
69261W        W36044   3.624  18.824   2.532
69262W        W36045  17.836  19.685  10.882
69263W        W36046  42.685  19.090   3.411
69264W        W36047  37.518  24.793   1.219
69265W        W36048  36.060  33.108  10.779
69266W        W36049  38.153  32.028  12.813
69267W        W36050  24.654  15.590   2.687
69268W        W36051  34.622  40.839   0.256
69269W        W36052  29.049  31.913   4.970
69270W        W36053   0.907  15.640   0.783
69271W        W36054  15.152  30.793  11.635
69272W        W36055  10.686   9.128  11.927
69273W        W36056  39.466   8.122   0.800
69274W        W36057  33.337  29.543  13.602
69275W        W36058  23.280  22.835  12.354
69276W        W36059   1.783  25.529  12.987
69277W        W36060   1.459  42.977   4.110
69278W        W36061  16.000  17.901   2.363
69279W        W36062  11.309  40.953   3.191
69280W        W36063  27.205  20.618  12.159
69281W        W36064  36.633  42.096  13.420
69282W        W36065  38.071  18.243  11.892
69283W        W36066  29.469  40.816  11.482
69284W        W36067   1.013  37.509  11.036
69285W        W36068  35.792  10.118  11.628
69286W        W36069  42.037  41.364  10.794
69287W        W36070  10.775  33.569   3.363
69288W        W36071  39.753  37.353  14.124
69289W        W36072   4.926   8.392  10.647
69290W        W36073  29.191  31.676  14.400
69291W        W36074  16.448  16.725  11.232
69292W        W36075  33.630  38.115   4.602
69293W        W36076  14.326   0.844   1.329
69294W        W36077  32.424  13.176  10.735
69295W        W36078  44.327  13.369   1.258
69296W        W36079   5.956  27.076  13.479
69297W        W36080  16.431   8.652   2.122
69298W        W36081  12.328  18.029   3.649
69299W        W36082  14.793  27.034   1.980
69300W        W36083   8.256  40.087   0.341
69301W        W36084  26.559  14.415   4.935
69302W        W36085   6.707  15.598   1.712
69303W        W36086  39.092  17.362  11.234
69304W        W36087  18.307  10.738   2.635
69305W        W36088  24.641  39.939   3.114
69306W        W36089  28.664  14.390   4.211
69307W        W36090  41.340  30.352  14.136
69308W        W36091  27.445  41.462   1.750
69309W        W36092  42.826  36.663  12.897
69310W        W36093  38.925   7.460  11.390
69311W        W36094  37.146   9.270  13.864
69312W        W36095  39.367  16.946  11.157
69313W        W36096  25.023  19.046   3.725
69314W        W36097  32.895   0.843  12.816
69315W        W36098  11.497  31.949  14.522
69316W        W36099  28.187  29.412  14.873
69317W        W36100   5.506  35.394  12.414
69318W        W36101   5.108  23.464  11.392
69319W        W36102  40.661  22.605  14.515
69320W        W36103  10.820  27.552   4.031
69321W        W36104  23.689  39.771  10.495
69322W        W36105  21.648   7.198  14.067
69323W        W36106  41.675  32.611   2.643
69324W        W36107  10.080  40.449   3.247
69325W        W36108  22.689  26.618   2.876
69326W        W36109  27.471  13.244   1.500
69327W        W36110  31.679  24.195  12.545
69328W        W36111   4.853   7.846  12.496
69329W        W36112  37.489   7.750  14.385
69330W        W36113  40.248  35.812  10.691
69331W        W36114   2.767   4.922  14.402
69332W        W36115  40.366  13.690  13.504
69333W        W36116  26.315  42.924   4.655
69334W        W36117   1.434  30.793   1.157
69335W        W36118  14.942  38.908   1.410
69336W        W36119  12.294  32.384  10.635
69337W        W36120  28.475  43.522   4.514
69338W        W36121   3.219   9.781   2.205
69339W        W36122   8.936   0.982  11.841
69340W        W36123   3.018  29.769   2.859
69341W        W36124  44.114  31.368   5.075
69342W        W36125  23.264  26.200   0.299
69343W        W36126   5.335  30.979  11.090
69344W        W36127  19.573   1.178   2.221
69345W        W36128  22.215  41.251  11.293
69346W        W36129  43.845   9.787  11.372
69347W        W36130  18.529  39.297  10.490
69348W        W36131  18.105  30.561  13.528
69349W        W36132  37.165  33.457  12.035
69350W        W36133   5.366  26.511   0.521
69351W        W36134  43.757   6.740   1.931
69352W        W36135  23.078   9.649  12.133
69353W        W36136  17.107  41.530   0.315
69354W        W36137   6.406  11.530   3.820
69355W        W36138   3.264  42.594   1.760
69356W        W36139  21.680  23.772   2.761
69357W        W36140  27.590   3.240  13.291
69358W        W36141  40.027  33.957   3.278
69359W        W36142  15.106  37.820  11.493
69360W        W36143  10.400   6.686  13.416
69361W        W36144  16.175  12.262  11.198
69362W        W36145  44.485  22.778  14.903
69363W        W36146  24.950  41.561  14.561
69364W        W36147  18.419   3.984  12.167
69365W        W36148  22.641  15.865   4.620
69366W        W36149  12.933  37.790  12.024
69367W        W36150  30.072  29.613   2.684
69368W        W36151  12.170  17.161  13.290
69369W        W36152  34.534  23.497  14.980
69370W        W36153   8.883  31.819   2.580
69371W        W36154  26.143  26.679   5.359
69372W        W36155  32.375  43.406  14.996
69373W        W36156   9.150  13.785  14.854
69374W        W36157   2.683  38.216  10.983
69375W        W36158  35.925  15.834  14.484
69376W        W36159   5.149  22.164   1.315
69377W        W36160   3.322  18.853  12.939
69378W        W36161  17.062  12.724   2.569
69379W        W36162  42.096  40.424  13.547
69380W        W36163   1.219   0.877  12.994
69381W        W36164  36.248   2.184  13.335
69382W        W36165  11.183  42.750   3.110
69383W        W36166  29.410  21.115   1.882
69384W        W36167  25.641  35.486   4.246
69385W        W36168  33.765  27.866   4.177
69386W        W36169  28.160  38.859  14.044
69387W        W36170   4.259  16.103   0.872
69388W        W36171  35.692  14.158   2.834
69389W        W36172   9.118   1.713   2.824
69390W        W36173  17.974  28.578  13.531
69391W        W36174  20.653  18.427  11.302
69392W        W36175  22.519   5.784   3.269
69393W        W36176  26.062  25.672  11.248
69394W        W36177   2.449  43.794  13.440
69395W        W36178   2.094  25.570   3.911
69396W        W36179  35.807  37.571  13.866
69397W        W36180  44.773   1.827   1.803
69398W        W36181  36.906  36.389  10.784
69399W        W36182   1.798  39.606   1.445
69400W        W36183  39.335  41.102   1.296
69401W        W36184   3.824  20.441  12.188
69402W        W36185  19.050  26.534   1.624
69403W        W36186   3.740  14.247   2.476
69404W        W36187  20.757  22.782   0.291
69405W        W36188  15.389  33.302   2.781
69406W        W36189  19.705   6.795  13.086
69407W        W36190  34.930  26.236  14.822
69408W        W36191  30.600  39.356   4.110
69409W        W36192  36.358   8.468   0.295
69410W        W36193   6.892  41.831   1.387
69411W        W36194  32.316  23.292  12.436
69412W        W36195  14.167  38.003  12.529
69413W        W36196  36.974  37.840  10.543
69414W        W36197  32.444   4.804  10.795
69415W        W36198  44.717  13.883  12.482
69416W        W36199   4.114   7.613   3.706
69417W        W36200  18.400  21.100  11.530
69418W        W36201  27.476   5.217  13.293
69419W        W36202   3.805   7.369  12.610
69420W        W36203  36.097  41.800  13.406
69421W        W36204   5.430  24.250   4.853
69422W        W36205  17.983  22.821  11.125
69423W        W36206  18.156  14.099   4.084
69424W        W36207  42.243  15.790   4.889
69425W        W36208   3.185  26.469  11.730
69426W        W36209  13.799  34.419   5.133
69427W        W36210  29.641   8.960   1.728
69428W        W36211  27.158  38.647  13.468
69429W        W36212  10.173   0.566  14.515
69430W        W36213   6.341  31.420   1.829
69431W        W36214  13.583  38.840  12.469
69432W        W36215  17.794  10.397  14.999
69433W        W36216  11.857  24.072  10.754
69434W        W36217  23.459   2.736   2.086
69435W        W36218  34.151   5.223   5.485
69436W        W36219   2.938  24.274   0.857
69437W        W36220  38.106  27.040  12.546
69438W        W36221   4.447  10.664  12.080
69439W        W36222  34.970  15.847  10.839
69440W        W36223   1.470  29.442  10.804
69441W        W36224   3.328  16.921   4.505
69442W        W36225  28.040   5.840   2.883
69443W        W36226  37.463  30.003  12.078
69444W        W36227  18.664  37.794   0.430
69445W        W36228  30.668  16.642  10.697
69446W        W36229  33.946   5.123  10.545
69447W        W36230  15.953  21.794   4.189
69448W        W36231  20.900   6.868   3.687
69449W        W36232  30.405  11.297   0.215
69450W        W36233  11.600  23.636  12.255
69451W        W36234  32.573  24.973   4.567
69452W        W36235  41.461   9.304  11.664
69453W        W36236   9.096   1.387   0.893
69454W        W36237  13.297   2.521   4.851
69455W        W36238  27.249  42.779   2.691
69456W        W36239  26.557   1.872  12.502
69457W        W36240  37.524  18.173   4.592
69458W        W36241  10.659  30.774  13.784
69459W        W36242  30.617  12.599   0.442
69460W        W36243  34.968  36.907  11.707
69461W        W36244  44.381  13.352   3.698
69462W        W36245   5.488  14.241   0.357
69463W        W36246  10.865  20.062  14.918
69464W        W36247  31.869  37.826   2.749
69465W        W36248  43.413  20.975  12.785
69466W        W36249  34.427  35.870   2.691
69467W        W36250  20.281  42.503  10.694
69468W        W36251  27.407   7.261   1.424
69469W        W36252  14.811  29.616   1.285
69470W        W36253  34.525  23.980  12.880
69471W        W36254  16.171  23.658  12.620
69472W        W36255   2.645  21.201  14.549
69473W        W36256  26.267  26.911  13.851
69474W        W36257  13.229  33.525  10.836
69475W        W36258  22.098  13.284  12.554
69476W        W36259  11.273  32.434  13.516
69477W        W36260   8.915  19.824   3.428
69478W        W36261  33.156   1.662   3.080
69479W        W36262  22.590  23.226   1.893
69480W        W36263  29.119  19.783  13.532
69481W        W36264  40.868   4.884   0.255
69482W        W36265  33.369  22.666   4.409
69483W        W36266  41.165   6.258  10.334
69484W        W36267  43.417   0.360  10.657
69485W        W36268  42.410  33.012   2.391
69486W        W36269  14.639  40.387   2.029
69487W        W36270  17.727  40.894  12.012
69488W        W36271  37.421  30.637  10.372
69489W        W36272  20.119  38.934  12.579
69490W        W36273  12.968   8.903  10.689
69491W        W36274  12.458  32.599  12.329
69492W        W36275   3.460  14.302  14.526
69493W        W36276  32.673  32.192  12.980
69494W        W36277   2.395  20.757  12.869
69495W        W36278  20.191  13.065  10.550
69496W        W36279  13.830  35.561   9.992
69497W        W36280  26.540  16.437  11.481
69498W        W36281  36.785  20.130   2.375
69499W        W36282  35.832   7.225   3.855
69500W        W36283  37.401  36.607  14.612
69501W        W36284  28.235   4.540  13.528
69502W        W36285  40.266  37.793   4.438
69503W        W36286  35.663  14.513   3.237
69504W        W36287   8.384  27.577  14.493
69505W        W36288  15.658  42.182   4.216
69506W        W36289  22.959  18.244  12.042
69507W        W36290   2.521  35.770   4.989
69508W        W36291  22.502  22.754   2.117
69509W        W36292   0.473  21.466  13.039
69510W        W36293   8.646  39.840  13.917
69511W        W36294  27.875  11.486   0.813
69512W        W36295   6.925   5.699  14.915
69513W        W36296  13.254   3.570   0.692
69514W        W36297  38.978  10.205  11.475
69515W        W36298   4.899  16.953   3.296
69516W        W36299   8.110  27.243  10.966
69517W        W36300  12.256  42.632  11.434
69518W        W36301  36.048  19.658   1.868
69519W        W36302   6.899  20.590   3.548
69520W        W36303  38.088  42.153   4.183
69521W        W36304  14.393  19.282   4.181
69522W        W36305   0.858  13.376  13.676
69523W        W36306  41.254   5.866   0.255
69524W        W36307   7.193  15.023  10.721
69525W        W36308  41.114  16.083   3.698
69526W        W36309  34.586   3.710   4.040
69527W        W36310  43.792   9.634   2.755
69528W        W36311  41.002  24.349   2.929
69529W        W36312  29.751  28.070  13.577
69530W        W36313  28.798  44.213  11.275
69531W        W36314  28.685  13.657   1.882
69532W        W36315  42.824  10.395   2.112
69533W        W36316  19.450  23.190  14.034
69534W        W36317  25.081   7.426  10.629
69535W        W36318  17.410   2.145   2.738
69536W        W36319   3.035  42.862   1.370
69537W        W36320  38.499  18.121  12.198
69538W        W36321  20.018   8.352   2.714
69539W        W36322   5.579  28.615  13.324
69540W        W36323  40.553  21.180   3.200
69541W        W36324  39.267  29.683   5.059
69542W        W36325  27.654  21.655  10.893
69543W        W36326  22.576  42.912  12.991
69544W        W36327  38.754  26.680   0.302
69545W        W36328   0.274  21.185  12.668
69546W        W36329   3.699  36.381  10.633
69547W        W36330  30.890  33.555  12.084
69548W        W36331  25.555  42.358  11.401
69549W        W36332   2.952   6.375   2.656
69550W        W36333  40.752  16.101   0.460
69551W        W36334   5.920  44.412   2.263
69552W        W36335  18.801  34.808   0.270
69553W        W36336   5.733  14.774   4.600
69554W        W36337  41.757  40.446  12.549
69555W        W36338  32.241   2.288   0.290
69556W        W36339   7.432   5.075  14.139
69557W        W36340  33.289  18.002   1.362
69558W        W36341   3.844  27.763   0.179
69559W        W36342  10.614  26.768  14.165
69560W        W36343   7.339  40.074  11.187
69561W        W36344  36.043  23.007   0.835
69562W        W36345  14.249  38.341  12.042
69563W        W36346   0.369  42.988  14.331
69564W        W36347  40.698   6.806  10.953
69565W        W36348  34.724   5.407  10.222
69566W        W36349   0.665  42.973  10.573
69567W        W36350  40.451  18.258   2.772
69568W        W36351  29.699  38.086   0.492
69569W        W36352  18.812  39.359  12.411
69570W        W36353  36.647  38.650  13.052
69571W        W36354  28.546  27.638   4.973
69572W        W36355  32.485  36.777  13.396
69573W        W36356  28.436  27.893   0.378
69574W        W36357  26.438   6.355   4.514
69575W        W36358  11.319   5.878   4.093
69576W        W36359   8.935  35.449  10.658
69577W        W36360  27.621  36.844  10.778
69578W        W36361   1.326  26.744  13.439
69579W        W36362  13.232   5.866  12.645
69580W        W36363  29.320   4.332  14.838
69581W        W36364  12.689  32.662   3.620
69582W        W36365  42.442   4.290   4.914
69583W        W36366   5.747  19.748  12.447
69584W        W36367  41.289  11.714   4.352
69585W        W36368  35.660  12.535   2.239
69586W        W36369  38.828  21.596   0.339
69587W        W36370  31.754  37.036  14.975
69588W        W36371  40.624  31.522  12.247
69589W        W36372  27.503   9.600  14.824
69590W        W36373  18.322  41.333  12.650
69591W        W36374  13.364  19.866   4.915
69592W        W36375  25.542   0.312   2.829
69593W        W36376  37.612  30.933   4.075
69594W        W36377  27.216  27.659  10.438
69595W        W36378   7.182   7.347  14.783
69596W        W36379  24.256  13.813  11.612
69597W        W36380  14.222   7.155  11.053
69598W        W36381  40.234  13.125   2.197
69599W        W36382  15.311   1.128  11.661
69600W        W36383  24.485  26.698  14.519
69601W        W36384  37.977  13.462  14.767
69602W        W36385  40.521  37.082  11.099
69603W        W36386  42.980  40.745  11.183
69604W        W36387  42.832   5.511  14.495
69605W        W36388   5.775  16.783   1.041
69606W        W36389   4.403  21.198  12.149
69607W        W36390   2.330  30.696   3.420
69608W        W36391  17.643  24.951  12.561
69609W        W36392  34.805   6.544  12.073
69610W        W36393  44.007  37.078  12.180
69611W        W36394  22.557  42.856  14.470
69612W        W36395  18.001  41.275  13.059
69613W        W36396  14.182   9.652   4.916
69614W        W36397  11.269  20.413  12.895
69615W        W36398  41.790  26.121  12.563
69616W        W36399  29.894  44.282   0.817
69617W        W36400  34.357   5.607   2.337
69618W        W36401   0.750  43.505  10.572
69619W        W36402  42.389  33.129   0.772
69620W        W36403  14.471  38.731   1.506
69621W        W36404  18.268  15.205  13.428
69622W        W36405  43.922   6.640   3.271
69623W        W36406  25.512  29.383  10.258
69624W        W36407  31.799  39.863  12.788
69625W        W36408  24.263  38.144  12.223
69626W        W36409  12.264  17.721   0.918
69627W        W36410  28.096  20.681   2.780
69628W        W36411  39.084  27.130  13.602
69629W        W36412  35.140   0.014   3.225
69630W        W36413  25.965  16.187   0.028
69631W        W36414  35.372  43.998   2.035
69632W        W36415  22.592  42.200   2.909
69633W        W36416  31.733  41.358  12.163
69634W        W36417  21.549   9.778   0.448
69635W        W36418  29.168  32.121   0.481
69636W        W36419  36.480  18.212   4.456
69637W        W36420  39.087   3.020   2.285
69638W        W36421   3.893   4.825  12.547
69639W        W36422  30.560  26.685  14.324
69640W        W36423  18.612  14.256  14.597
69641W        W36424   4.716   0.214   2.404
69642W        W36425   8.408  33.509  12.119
69643W        W36426  18.579  42.910   3.858
69644W        W36427  26.337  35.336   1.266
69645W        W36428  37.772  32.044   4.503
69646W        W36429  23.109  20.992  12.913
69647W        W36430  25.737  17.515  11.185
69648W        W36431  35.146  11.704   0.021
69649W        W36432  38.651   5.235   1.632
69650W        W36433  28.405  23.237   3.819
69651W        W36434  34.177  26.692   1.943
69652W        W36435  12.550  16.981   1.941
69653W        W36436  35.260  20.990  12.465
69654W        W36437  42.868  21.274  14.354
69655W        W36438  32.029  26.658   3.734
69656W        W36439  14.594  34.348   4.965
69657W        W36440  32.078  16.331   3.210
69658W        W36441  28.001  27.665   0.591
69659W        W36442   0.445  18.676  13.316
69660W        W36443   0.946  21.810   2.234
69661W        W36444  17.268  39.990  10.699
69662W        W36445  20.497  36.754   1.541
69663W        W36446  10.981  11.247  12.299
69664W        W36447   0.155  41.738   1.401
69665W        W36448  17.323   9.183  10.570
69666W        W36449   4.917   9.920   0.867
69667W        W36450   6.923  18.794  14.042
69668W        W36451  40.465  10.835  10.708
69669W        W36452   2.534  33.359  11.032
69670W        W36453  31.704  32.601  11.929
69671W        W36454  21.075  37.107  14.901
69672W        W36455  42.603  27.496   0.936
69673W        W36456  19.308   5.396   3.627
69674W        W36457  33.743  41.196   2.589
69675W        W36458   8.440  35.235   2.220
69676W        W36459  20.949  16.345   2.678
69677W        W36460  33.194  32.104   1.742
69678W        W36461  24.194   0.255   0.348
69679W        W36462  25.972   3.272   3.643
69680W        W36463  37.173   7.270  11.349
69681W        W36464  41.325   8.715   0.958
69682W        W36465  13.848  36.658  12.842
69683W        W36466  43.925  38.105   3.871
69684W        W36467  23.850  18.737  13.820
69685W        W36468  31.622  20.191  12.413
69686W        W36469  31.630  11.732   0.807
69687W        W36470  37.572  11.362  11.205
69688W        W36471  16.595  44.522   0.416
69689W        W36472   6.321   6.571   3.880
69690W        W36473  37.845  25.198   1.326
69691W        W36474  30.506  44.443   3.284
69692W        W36475  37.491  17.084  14.288
69693W        W36476   9.775  14.340   3.430
69694W        W36477  11.291   7.085  14.284
69695W        W36478  31.043  15.323  14.532
69696W        W36479  14.908   7.665   1.205
69697W        W36480   2.861  15.994   3.672
69698W        W36481  20.204  42.972  11.559
69699W        W36482  23.931  15.291   1.871
69700W        W36483  38.192   6.840   4.599
69701W        W36484  16.550  17.175   3.127
69702W        W36485  21.564   6.631   2.713
69703W        W36486  32.825  14.322  11.516
69704W        W36487  31.085  14.751  11.958
69705W        W36488   4.339  23.271  10.698
69706W        W36489   9.869   8.170   0.467
69707W        W36490  21.140  17.418   0.800
69708W        W36491   1.483   4.367   0.394
69709W        W36492  20.466  25.086   3.700
69710W        W36493  28.510  34.265   3.732
69711W        W36494  12.510  37.774   3.062
69712W        W36495  44.943  44.095   0.484
69713W        W36496   6.423   1.506   0.466
69714W        W36497  41.065  44.070  14.123
69715W        W36498   8.241  35.363   4.607
69716W        W36499  42.448   7.754   2.748
69717W        W36500  35.934  24.457   3.618
69718W        W36501  22.560  15.894  11.014
69719W        W36502   8.395  42.901   2.664
69720W        W36503   7.890  25.964  13.511
69721W        W36504  30.923  18.243  12.027
69722W        W36505  38.423  15.727  14.498
69723W        W36506  34.801   7.685   1.877
69724W        W36507  35.028  35.873  12.956
69725W        W36508  34.390  19.395   2.819
69726W        W36509  29.599  22.508  12.083
69727W        W36510  44.365  38.325   4.136
69728W        W36511   5.576  42.055  10.772
69729W        W36512  19.810  16.683   4.243
69730W        W36513   8.110  31.771  13.383
69731W        W36514  17.845  44.411   0.946
69732W        W36515  27.646   8.345   1.670
69733W        W36516  41.879  26.041  13.142
69734W        W36517  15.303  10.050   2.307
69735W        W36518  15.604  20.551   2.744
69736W        W36519  31.320  11.502   1.826
69737W        W36520   6.311  18.780  10.834
69738W        W36521  39.013   4.814  12.300
69739W        W36522  25.110  44.173  14.318
69740W        W36523  41.942  32.873   1.762
69741W        W36524  39.967  39.100  12.986
69742W        W36525  27.960  20.690  10.950
69743W        W36526  10.109  14.765   1.981
69744W        W36527   2.534  24.183  11.098
69745W        W36528   0.800  10.888   2.128
69746W        W36529  14.990  41.650   5.235
69747W        W36530  37.388   5.274   2.818
69748W        W36531  19.698   2.529  13.854
69749W        W36532  19.812  32.947   0.489
69750W        W36533   7.048   3.254  13.805
69751W        W36534  12.227  43.815   3.248
69752W        W36535  36.013  36.410  13.336
69753W        W36536  27.737  27.170   2.340
69754W        W36537  43.096  39.649  13.398
69755W        W36538  22.767  30.643  11.550
69756W        W36539  17.806  25.379   4.044
69757W        W36540   9.218   7.242  14.964
69758W        W36541  29.725  28.093   3.300
69759W        W36542   1.998  24.471  13.886
69760W        W36543  40.418  39.313   1.873
69761W        W36544  38.454   0.209  13.317
69762W        W36545   6.048  12.211  12.298
69763W        W36546  26.665  35.519  12.496
69764W        W36547  44.402  34.202  14.237
69765W        W36548  22.069  32.872   3.207
69766W        W36549  42.925  17.755   5.409
69767W        W36550  36.105  34.414   0.330
69768W        W36551   0.076  17.143   4.992
69769W        W36552  44.887  41.030   0.426
69770W        W36553   0.804  13.833   1.392
69771W        W36554  34.188  34.295  12.102
69772W        W36555  28.629  39.645   2.786
69773W        W36556  36.951   1.165   2.813
69774W        W36557  14.909  25.057   3.165
69775W        W36558   1.490   8.255  11.576
69776W        W36559  31.333   8.207   0.872
69777W        W36560  40.038  35.876  12.428
69778W        W36561   2.395  24.013   3.307
69779W        W36562   3.351  30.053  13.431
69780W        W36563  31.257  43.726   0.315
69781W        W36564  35.420  41.055   3.382
69782W        W36565  12.212  42.392   4.870
69783W        W36566  20.745  16.338  11.920
69784W        W36567  42.461   8.623  12.088
69785W        W36568  37.499  43.323   0.466
69786W        W36569  32.634  38.009   0.792
69787W        W36570   2.483  13.662   2.256
69788W        W36571   6.390  29.479  10.721
69789W        W36572  27.638  25.111   4.165
69790W        W36573   6.737  13.941   5.074
69791W        W36574  19.107  23.506   0.841
69792W        W36575   1.574  28.024   1.356
69793W        W36576   9.354  44.818  14.403
69794W        W36577   9.149   1.782  11.543
69795W        W36578  39.694  21.556   1.878
69796W        W36579  29.811  19.407  11.257
69797W        W36580  29.519  40.869   1.400
69798W        W36581  32.450  39.834  14.955
69799W        W36582  43.324  30.640  13.022
69800W        W36583  32.490  37.943  11.932
69801W        W36584   6.688  10.562  13.439
69802W        W36585  20.541  44.922   1.429
69803W        W36586  25.171  42.835  10.790
69804W        W36587  13.334  43.937   2.916
69805W        W36588   5.822   6.101  12.922
69806W        W36589  11.620   6.451  12.063
69807W        W36590  38.449  43.984   3.196
69808W        W36591  17.581  10.294  13.497
69809W        W36592  12.082  26.234  14.346
69810W        W36593  10.910   5.721  13.538
69811W        W36594  23.563  30.515   3.347
69812W        W36595   9.287  14.107  12.862
69813W        W36596  23.770  14.934   2.889
69814W        W36597  11.231  44.965  13.549
69815W        W36598  18.306  23.707  13.663
69816W        W36599  38.043  33.610   0.824
69817W        W36600  40.008   4.678  14.622
69818W        W36601  42.795  28.865  13.298
69819W        W36602   5.414  39.852   0.485
69820W        W36603  35.284   4.268   4.160
69821W        W36604  29.597  22.560  14.006
69822W        W36605  21.786  20.761  13.410
69823W        W36606  17.290   9.192   2.711
69824W        W36607  16.249   6.121  14.984
69825W        W36608  41.425  34.872   4.808
69826W        W36609  25.017   5.948   0.541
69827W        W36610  30.629   5.473  14.911
69828W        W36611   9.596  18.639  14.932
69829W        W36612  32.529   0.686  10.765
69830W        W36613  17.764  21.542  14.734
69831W        W36614  36.540  11.776  10.483
69832W        W36615  16.560  20.834   3.687
69833W        W36616  13.483  31.019   2.940
69834W        W36617  28.920  10.614   3.843
69835W        W36618  13.867  39.101   1.155
69836W        W36619  19.306  43.297  11.644
69837W        W36620  17.818   4.898  10.318
69838W        W36621  22.122  13.841  11.491
69839W        W36622  39.414  25.026   4.052
69840W        W36623  34.670  13.526   2.343
69841W        W36624  37.485  32.491   4.550
69842W        W36625  31.835  37.486  11.342
69843W        W36626  36.062  25.410   2.393
69844W        W36627  22.331   5.111  10.921
69845W        W36628  43.286  24.264   2.342
69846W        W36629   5.410  38.665  13.047
69847W        W36630  11.707  30.592  10.339
69848W        W36631  12.109   7.570  14.282
69849W        W36632   8.886  40.400  12.034
69850W        W36633  15.162  36.603   1.999
69851W        W36634  38.558  17.143  14.443
69852W        W36635  33.636  12.853  12.825
69853W        W36636  10.652   6.531   3.697
69854W        W36637   3.680  20.076  11.851
69855W        W36638  14.226  18.675   2.184
69856W        W36639  21.305  23.974   2.400
69857W        W36640  44.812  14.732  11.915
69858W        W36641   6.137  20.297   4.646
69859W        W36642  12.318  19.224  14.332
69860W        W36643  22.493  14.047   0.672
69861W        W36644  31.912  15.588  12.444
69862W        W36645  44.088  34.232  13.205
69863W        W36646  24.661  37.290  12.144
69864W        W36647   0.947  14.842   1.186
69865W        W36648  34.298  28.873  11.072
69866W        W36649  38.079  32.166   1.718
69867W        W36650  33.134  16.407  11.015
69868W        W36651  23.663  32.011  14.558
69869W        W36652  16.070  22.791  13.868
69870W        W36653  36.445  35.360   2.750
69871W        W36654  32.060  33.646   1.257
69872W        W36655  39.584  44.260   1.802
69873W        W36656  30.021  31.450  14.785
69874W        W36657  10.688  41.987  13.783
69875W        W36658  28.810  28.744   3.537
69876W        W36659  15.956  21.134  12.992
69877W        W36660  31.494  11.280  10.892
69878W        W36661  34.479  36.051   4.678
69879W        W36662  12.846  25.419   2.269
69880W        W36663  25.581  11.171   2.208
69881W        W36664  18.038  18.448   2.192
69882W        W36665  18.602  23.608   3.859
69883W        W36666  20.064  42.922   3.876
69884W        W36667  12.328  15.096   3.761
69885W        W36668  22.475   1.155  10.170
69886W        W36669  13.331  13.902   4.038
69887W        W36670  10.868  16.264  13.351
69888W        W36671  15.640  30.961  11.528
69889W        W36672  20.519   7.672   4.044
69890W        W36673  17.095   6.653  12.453
69891W        W36674  40.719  18.016   4.775
69892W        W36675  34.963  24.448  14.363
69893W        W36676   0.439  39.377   4.856
69894W        W36677  21.662   0.916   1.868
69895W        W36678   2.250  38.266  11.896
69896W        W36679   4.202  44.912  11.678
69897W        W36680  37.435  20.447  11.198
69898W        W36681  11.061  28.093  10.231
69899W        W36682  35.974  20.750   0.986
69900W        W36683  10.790  23.485   1.495
69901W        W36684  34.421  19.062   0.893
69902W        W36685  28.320  18.459   0.987
69903W        W36686  10.414   7.595  14.553
69904W        W36687   9.619   4.671  11.112
69905W        W36688  37.821  42.454   0.770
69906W        W36689   8.802  19.588  12.890
69907W        W36690   0.694  14.343   9.925
69908W        W36691   4.542  12.554  12.929
69909W        W36692  26.147  32.815  12.983
69910W        W36693  35.470   2.991  11.601
69911W        W36694  15.227  25.100  10.285
69912W        W36695   3.897   3.622   2.959
69913W        W36696   2.242  34.332   2.313
69914W        W36697  27.741  11.859   3.663
69915W        W36698  20.283  44.510  13.735
69916W        W36699  38.830  40.348   3.757
69917W        W36700   3.884  17.556  11.643
69918W        W36701  16.988  18.595  13.449
69919W        W36702  30.534  29.870  13.433
69920W        W36703  29.148   6.214  10.668
69921W        W36704  13.590  35.780   5.034
69922W        W36705  27.906  24.221   3.256
69923W        W36706   8.365  42.783   4.820
69924W        W36707  19.028  30.549  14.384
69925W        W36708   6.844   9.934  14.898
69926W        W36709   8.494   4.293   1.955
69927W        W36710   2.529  31.439  13.943
69928W        W36711  39.910   8.802  13.087
69929W        W36712   9.090   2.200   1.188
69930W        W36713  32.087  37.037  11.169
69931W        W36714   7.430   4.874  10.671
69932W        W36715  36.866  42.015  14.466
69933W        W36716  34.165  32.082  13.095
69934W        W36717   0.249  44.945   0.302
69935W        W36718  35.804  17.527  12.155
69936W        W36719  39.267  15.521  14.379
69937W        W36720  42.503  12.070  12.978
69938W        W36721  35.370  39.891  12.997
69939W        W36722   2.721   4.336   3.834
69940W        W36723   6.306  32.811   2.268
69941W        W36724  16.276  33.178   3.655
69942W        W36725  28.707  12.172   3.861
69943W        W36726  32.045  24.910   4.849
69944W        W36727  30.985   7.729  10.909
69945W        W36728  10.942  14.366   0.239
69946W        W36729   8.797  30.105   4.346
69947W        W36730  15.636  28.493  13.993
69948W        W36731  19.038  39.784   3.712
69949W        W36732   8.863  27.060  14.058
69950W        W36733  27.637  44.076  12.825
69951W        W36734  32.933  20.849  12.206
69952W        W36735   5.407  34.812   1.698
69953W        W36736   9.786   3.197   4.140
69954W        W36737  44.270   4.803   3.256
69955W        W36738   1.716  19.670  11.432
69956W        W36739   3.516  32.378   4.525
69957W        W36740  21.824  15.252  10.687
69958W        W36741  33.911   9.829  14.059
69959W        W36742  27.512  29.600   2.755
69960W        W36743  38.389  41.815   3.804
69961W        W36744  20.079  20.292   0.781
69962W        W36745  21.686  25.728   2.762
69963W        W36746  14.026   4.941  13.893
69964W        W36747  25.484  11.039  12.584
69965W        W36748  34.399  41.453   1.358
69966W        W36749  24.377  32.118  10.150
69967W        W36750  39.411  18.104  13.540
69968W        W36751  43.925   7.309  13.041
69969W        W36752  20.343   1.282   3.124
69970W        W36753  32.081   9.744  14.475
69971W        W36754   3.319  35.158   2.637
69972W        W36755  20.073  19.820   4.054
69973W        W36756  32.847  41.931  13.185
69974W        W36757  28.017  15.386  12.558
69975W        W36758  20.191  21.032   2.236
69976W        W36759  18.871  15.299   1.406
69977W        W36760   1.498  29.732  12.082
69978W        W36761  11.147  12.295   4.762
69979W        W36762  23.147  17.712   1.928
69980W        W36763   1.230  24.407   0.857
69981W        W36764  13.962   2.486  12.663
69982W        W36765  24.102   1.321   2.861
69983W        W36766  11.736   3.461   5.194
69984W        W36767   0.334  14.935   2.717
69985W        W36768  29.159  11.672   1.725
69986W        W36769  24.233   8.408  10.727
69987W        W36770   6.999  40.996   2.680
69988W        W36771  17.779  40.842   0.787
69989W        W36772  18.103   5.685  13.967
69990W        W36773  43.977  37.528   0.277
69991W        W36774  42.391  33.355   3.287
69992W        W36775   1.329  42.442   3.241
69993W        W36776  33.607  20.143  13.100
69994W        W36777   6.580  35.831  10.558
69995W        W36778  42.543  18.010  10.777
69996W        W36779   3.140  42.339   3.393
69997W        W36780  25.633  32.891   0.537
69998W        W36781  18.217   1.187  10.545
69999W        W36782  11.595  24.521   4.242
70000W        W36783  18.662  36.315   4.107
70001W        W36784  24.493   9.752   2.356
70002W        W36785  23.213  43.353  10.762
70003W        W36786  14.158  17.018   3.721
70004W        W36787  13.334  15.281   3.357
70005W        W36788   9.885  13.838  14.011
70006W        W36789   9.693  12.668  11.178
70007W        W36790  39.296  39.708   0.242
70008W        W36791  23.997   6.185  12.886
70009W        W36792  32.898  36.428   1.781
70010W        W36793  11.164  44.686   1.971
70011W        W36794  14.618  17.319  13.291
70012W        W36795  23.467  23.733   4.168
70013W        W36796  21.131  44.541  14.856
70014W        W36797   5.441   4.857   3.714
70015W        W36798  29.039  20.109  12.967
70016W        W36799  38.366  25.248   2.193
70017W        W36800  33.338   0.298   0.482
70018W        W36801   2.407  27.183   4.224
70019W        W36802  39.828  27.348   0.829
70020W        W36803  12.519   7.102   4.918
70021W        W36804  24.920  38.363   1.880
70022W        W36805   2.426  33.420  11.986
70023W        W36806  34.852  25.730  14.852
70024W        W36807  19.663  19.150  12.668
70025W        W36808  13.139   6.169  10.998
70026W        W36809  33.443   0.660   2.175
70027W        W36810   1.823   9.402  10.321
70028W        W36811   7.130  15.107  14.865
70029W        W36812  18.615  24.495  14.028
70030W        W36813  28.237  40.406   1.784
70031W        W36814  38.381  34.925   4.607
70032W        W36815  28.099   4.293   4.440
70033W        W36816  22.301  34.516  12.831
70034W        W36817   7.750   8.161   2.991
70035W        W36818   2.216   0.770  12.868
70036W        W36819  29.364   5.225   1.428
70037W        W36820  25.511  30.389  10.684
70038W        W36821  18.117   9.314   1.398
70039W        W36822  34.917  40.313  11.705
70040W        W36823   5.724  18.277   4.592
70041W        W36824   7.831  16.578  11.632
70042W        W36825   1.526  33.536  11.889
70043W        W36826  14.896   9.328  13.497
70044W        W36827  23.594   0.346  12.525
70045W        W36828  32.341  18.678   0.692
70046W        W36829  20.043   5.465   4.007
70047W        W36830  41.712  36.417   1.286
70048W        W36831  34.699  19.544  10.453
70049W        W36832  36.453  17.069  12.542
70050W        W36833  30.621  33.157  14.997
70051W        W36834  13.097   9.166   2.267
70052W        W36835  25.313   2.040  13.031
70053W        W36836  16.186  11.317   0.006
70054W        W36837  41.732  19.102  14.881
70055W        W36838  28.622  12.197  13.571
70056W        W36839   1.219  16.478   1.003
70057W        W36840  10.927  24.160  11.671
70058W        W36841  39.597  29.008  14.854
70059W        W36842  23.211  10.446  14.096
70060W        W36843   8.333  24.116  13.833
70061W        W36844  18.341  25.604  11.736
70062W        W36845  24.130  29.398   0.212
70063W        W36846  43.982   0.999   0.844
70064W        W36847   8.933  29.371   4.957
70065W        W36848   6.646  40.416   4.136
70066W        W36849  30.006  12.875  13.074
70067W        W36850  23.025  21.487  12.905
70068W        W36851  42.136   0.914  10.662
70069W        W36852  21.055  12.102  13.521
70070W        W36853  33.940   6.045   1.817
70071W        W36854  32.202  16.095  11.067
70072W        W36855  37.940  24.589  13.514
70073W        W36856  14.380  15.552  13.377
70074W        W36857  30.549  12.307  11.129
70075W        W36858   2.744   1.958   0.692
70076W        W36859  37.798  13.135   1.788
70077W        W36860  29.876   3.619  11.653
70078W        W36861  27.605  37.303  13.514
70079W        W36862  36.432  40.998   4.826
70080W        W36863  17.625   9.985  11.637
70081W        W36864   2.646  13.664  11.758
70082W        W36865  42.773  20.081   3.215
70083W        W36866  21.562  10.663   2.663
70084W        W36867  32.106  16.837   0.195
70085W        W36868  35.557  26.035   2.886
70086W        W36869  18.277  26.417   1.051
70087W        W36870  18.070  32.427  13.909
70088W        W36871  36.849  31.630  13.079
70089W        W36872  19.674  18.930   4.271
70090W        W36873  32.638  35.067  13.918
70091W        W36874  17.716  25.935  10.596
70092W        W36875  14.905  21.664   2.851
70093W        W36876   8.158  32.493   3.500
70094W        W36877   4.812  14.815   1.306
70095W        W36878  10.283  42.984  11.290
70096W        W36879   3.217  43.463   2.196
70097W        W36880  16.480  40.908   0.375
70098W        W36881   1.428   6.978   5.072
70099W        W36882   0.287  41.878  11.132
70100W        W36883  22.246  29.953  13.507
70101W        W36884  13.602  43.010  12.932
70102W        W36885  30.637  41.996   2.405
70103W        W36886  37.946   8.662   0.409
70104W        W36887  13.391  32.083   4.141
70105W        W36888   1.168  22.735  11.925
70106W        W36889  30.133  39.330   3.280
70107W        W36890  42.002   9.550  13.870
70108W        W36891  38.784  18.907  11.526
70109W        W36892  21.193   8.136  12.989
70110W        W36893   7.928  36.168  11.702
70111W        W36894   9.555  26.460  11.199
70112W        W36895  33.487  40.507  14.487
70113W        W36896   9.753   1.418   0.303
70114W        W36897  42.849  12.814  13.965
70115W        W36898   6.496  43.749   0.014
70116W        W36899   5.296  24.973  11.670
70117W        W36900  33.151  34.094  12.584
70118W        W36901   8.353  44.849  10.609
70119W        W36902  33.350   0.156   2.193
70120W        W36903  25.631  42.986  10.592
70121W        W36904  10.330  18.192  13.872
70122W        W36905  13.290  18.734   0.939
70123W        W36906  20.566  27.114  12.848
70124W        W36907  38.292  37.090  10.911
70125W        W36908  13.536  28.599  12.644
70126W        W36909   6.433  23.666   0.473
70127W        W36910  35.235   7.751   0.496
70128W        W36911  27.643  42.752  12.982
70129W        W36912  29.009  24.094   1.167
70130W        W36913  24.483   2.742  12.514
70131W        W36914  39.056  41.455  14.431
70132W        W36915  11.384   8.149  12.521
70133W        W36916   7.451  12.442   4.287
70134W        W36917  20.073  29.101  12.029
70135W        W36918  12.252   1.694   4.561
70136W        W36919  19.549  11.181  11.622
70137W        W36920   0.896  12.237  10.336
70138W        W36921  34.126  18.132   4.121
70139W        W36922  34.370  29.613   1.728
70140W        W36923  31.507  18.623   4.022
70141W        W36924   8.120  13.650   0.688
70142W        W36925  31.954   0.880  13.853
70143W        W36926  38.772  10.228   2.698
70144W        W36927  20.807  28.174   3.824
70145W        W36928  24.315  17.036   0.350
70146W        W36929  35.985  44.372   3.888
70147W        W36930   4.740   3.982   1.310
70148W        W36931   8.277  43.035   0.934
70149W        W36932  17.326  17.095  14.087
70150W        W36933  24.469  18.314  12.085
70151W        W36934   6.383  31.427   4.183
70152W        W36935  35.474  12.808  11.281
70153W        W36936  24.353   0.713  12.474
70154W        W36937  23.132  18.821   1.824
70155W        W36938  36.138  36.921   2.632
70156W        W36939  21.296  41.980  14.080
70157W        W36940  39.889  40.871   3.178
70158W        W36941  38.028   4.011   0.965
70159W        W36942  16.780   3.955  13.349
70160W        W36943  15.096  11.265  11.301
70161W        W36944  42.876   5.211   1.468
70162W        W36945   3.902  36.645   4.692
70163W        W36946  43.413  17.981  11.413
70164W        W36947  16.197  38.579   1.649
70165W        W36948   3.699  13.223   1.943
70166W        W36949  15.015  13.841   4.768
70167W        W36950  39.321  18.192   2.734
70168W        W36951  28.950   0.031  14.547
70169W        W36952  42.784  12.528  14.892
70170W        W36953  24.558   9.086   3.914
70171W        W36954  19.652  26.612  11.375
70172W        W36955   2.856  20.215   0.124
70173W        W36956  31.174   5.947   4.961
70174W        W36957  40.859  31.154  11.329
70175W        W36958  37.386  34.981  13.458
70176W        W36959  43.319  29.236   3.958
70177W        W36960   0.332   0.272   3.675
70178W        W36961   3.910  13.888   3.867
70179W        W36962  35.071  24.950  14.446
70180W        W36963  32.976  22.911  14.517
70181W        W36964  38.807  21.299   1.387
70182W        W36965   4.399  41.526   1.218
70183W        W36966  34.910  32.218   4.802
70184W        W36967  27.112   5.530  13.027
70185W        W36968  26.701  22.229  11.741
70186W        W36969  19.996  26.473   4.655
70187W        W36970  14.024   9.348  14.366
70188W        W36971  23.773  13.132  13.355
70189W        W36972  23.207  40.893  11.991
70190W        W36973  38.944   5.286  12.497
70191W        W36974   0.198  31.588  14.819
70192W        W36975  24.193  36.411   1.735
70193W        W36976  10.297  34.312   0.695
70194W        W36977  12.380   0.806  12.404
70195W        W36978  30.405  37.348  11.994
70196W        W36979  32.089   7.863   4.644
70197W        W36980  20.154  16.870  13.625
70198W        W36981  15.861  19.301  14.766
70199W        W36982   6.730  12.893  10.552
70200W        W36983  34.134  23.200   2.406
70201W        W36984  35.655   2.199  14.536
70202W        W36985  19.625  42.842   4.830
70203W        W36986  31.609  26.908  12.540
70204W        W36987  30.861  33.693   3.173
70205W        W36988  41.049  27.222  11.081
70206W        W36989  44.254   5.324   1.708
70207W        W36990  19.330   0.716  11.183
70208W        W36991  35.349   5.904  12.833
70209W        W36992  43.468  26.902  12.287
70210W        W36993  26.469  44.868  13.449
70211W        W36994   0.786  41.835  11.395
70212W        W36995  38.902  14.591  10.313
70213W        W36996   2.927   3.416   0.518
70214W        W36997  18.048  30.603  14.574
70215W        W36998  10.653  44.273   0.493
70216W        W36999  18.999  27.474  11.695
70217W        W37000  10.635  20.724   3.354
70218W        W37001  20.023   6.158   1.693
70219W        W37002   6.591  30.289  10.206
70220W        W37003  12.783  14.057  12.434
70221W        W37004   3.656  38.168  11.971
70222W        W37005  15.146  39.853   4.555
70223W        W37006  38.482  32.284  14.086
70224W        W37007   8.952  30.598   3.664
70225W        W37008  21.192  25.949   2.864
70226W        W37009  13.616  41.820  11.597
70227W        W37010  15.833  33.356  13.518
70228W        W37011  31.056  20.639   4.805
70229W        W37012  43.490  13.260   3.195
70230W        W37013  27.569   6.065  11.156
70231W        W37014   3.027  41.450  12.447
70232W        W37015  44.863  22.711  11.727
70233W        W37016  31.004  43.536   0.769
70234W        W37017  44.745  14.028  11.958
70235W        W37018   6.842  34.337  11.111
70236W        W37019  42.287   9.522   5.013
70237W        W37020  41.541   3.927  12.988
70238W        W37021  30.178  35.949  11.273
70239W        W37022  41.526  38.098  13.930
70240W        W37023  31.505  26.030   2.319
70241W        W37024  27.676  25.840  13.946
70242W        W37025   2.462  18.326  12.073
70243W        W37026  16.194   1.556   5.176
70244W        W37027  10.393   9.390   3.694
70245W        W37028  30.450  30.845  11.111
70246W        W37029  23.363  36.063  12.416
70247W        W37030  27.547  34.497   2.379
70248W        W37031  22.892  42.764  12.388
70249W        W37032  11.351  43.382  11.858
70250W        W37033  27.114   0.417   3.627
70251W        W37034  44.297   7.947  14.353
70252W        W37035  44.700  16.754   1.053
70253W        W37036  42.776  29.914  11.728
70254W        W37037  42.817   0.718  13.779
70255W        W37038  40.759   1.925   4.257
70256W        W37039   2.263   9.741   0.432
70257W        W37040  36.609  40.352   0.195
70258W        W37041  12.110  40.911   4.690
70259W        W37042  32.958  10.313  11.210
70260W        W37043  40.520  20.205  12.571
70261W        W37044  17.787  34.304  11.031
70262W        W37045  33.624  36.825   1.891
70263W        W37046  32.228   7.856   0.762
70264W        W37047  44.485  16.821   3.255
70265W        W37048   6.184  25.211   1.320
70266W        W37049   8.710  40.294   3.284
70267W        W37050  27.547   0.264   9.971
70268W        W37051  34.549  10.849  13.968
70269W        W37052  26.529   5.273  11.257
70270W        W37053   4.237  30.683  11.501
70271W        W37054  43.059  37.806   2.484
70272W        W37055  14.801  17.527  11.456
70273W        W37056  36.352  44.369   3.101
70274W        W37057   9.303   3.745  13.021
70275W        W37058  35.352  28.433   4.109
70276W        W37059  17.732  33.132  11.640
70277W        W37060  24.002  29.381   2.808
70278W        W37061  24.523  11.128  13.092
70279W        W37062   0.689  35.381   0.439
70280W        W37063   3.240  15.915   0.259
70281W        W37064  14.828  33.382  12.080
70282W        W37065  28.406  26.502  14.391
70283W        W37066   7.493  12.517  11.120
70284W        W37067  29.893  34.621  12.792
70285W        W37068  43.905   3.709  14.913
70286W        W37069  12.254  13.547  14.186
70287W        W37070  15.136   1.901   1.370
70288W        W37071  24.146  32.035  11.119
70289W        W37072  13.789  14.685   3.417
70290W        W37073  13.611  14.359  14.019
70291W        W37074   1.660  37.889   0.004
70292W        W37075   2.066  31.773  14.371
70293W        W37076  14.330  34.959   3.501
70294W        W37077  27.746  13.050   0.007
70295W        W37078  26.932  18.750   4.592
70296W        W37079   8.850  16.729  10.660
70297W        W37080  37.904  25.649   2.839
70298W        W37081  29.596  42.075   0.509
70299W        W37082  44.924  39.208   4.546
70300W        W37083  22.526  25.090   9.867
70301W        W37084  41.574  35.170  11.253
70302W        W37085  28.216  37.896  13.109
70303W        W37086  18.703  29.582   1.105
70304W        W37087  17.082  44.353   0.288
70305W        W37088   3.786  21.712   1.415
70306W        W37089   5.885  21.105  10.569
70307W        W37090  37.054  26.430   0.480
70308W        W37091  37.459  44.779  13.033
70309W        W37092   1.163  41.408   1.274
70310W        W37093  22.073  30.585  14.990
70311W        W37094  29.119  40.817  12.040
70312W        W37095  44.520  23.224   2.537
70313W        W37096   0.283  43.979  11.514
70314W        W37097  44.865   1.332  11.229
70315W        W37098  35.510   6.804  14.992
70316W        W37099   8.256   9.172  11.095
70317W        W37100  44.286  28.404  10.557
70318W        W37101  36.506  31.430   2.298
70319W        W37102  17.708  42.065   1.303
70320W        W37103  13.846  39.458   0.762
70321W        W37104  24.555  31.374  10.590
70322W        W37105   8.683  22.063   4.392
70323W        W37106   4.474   0.932  14.565
70324W        W37107   5.440   3.695   0.974
70325W        W37108  37.785  21.172  10.994
70326W        W37109   7.290  11.872  13.486
70327W        W37110  43.027  18.476  11.092
70328W        W37111   0.049   1.918   1.359
70329W        W37112  21.475   0.362   0.005
70330W        W37113  18.975  26.614  10.759
70331W        W37114  35.042  10.570  12.867
70332W        W37115  10.265  17.042  12.018
70333W        W37116  31.493  12.985  13.178
70334W        W37117  21.241  30.939  12.956
70335W        W37118   7.556  30.819   1.391
70336W        W37119   5.921  37.901   4.049
70337W        W37120  23.140  38.053   4.114
70338W        W37121  17.315  37.007   2.824
70339W        W37122  33.224  39.992   4.362
70340W        W37123  15.348  15.205  14.097
70341W        W37124  34.513  19.154   1.402
70342W        W37125   1.755   3.024   0.055
70343W        W37126   1.905  28.758   4.838
70344W        W37127  18.179  37.071  12.423
70345W        W37128  39.892  19.486   2.670
70346W        W37129   6.742  37.581   3.222
70347W        W37130  14.551  34.022   3.316
70348W        W37131  15.307  29.477   1.302
70349W        W37132  21.355   9.311   0.767
70350W        W37133   7.428  43.828   4.596
70351W        W37134  15.791  11.826   2.784
70352W        W37135  15.108   7.155   1.069
70353W        W37136  22.133   3.472   3.618
70354W        W37137  26.292  35.562   2.236
70355W        W37138  24.448  34.887  11.570
70356W        W37139  23.624  31.491   2.219
70357W        W37140  14.604   7.539  10.032
70358W        W37141  16.232  22.960  10.611
70359W        W37142  15.047   7.882  14.391
70360W        W37143  29.366  39.388   1.845
70361W        W37144  16.055  35.798   3.418
70362W        W37145  18.264   7.430  14.333
70363W        W37146  41.520  43.014   3.298
70364W        W37147  14.318  36.307  10.877
70365W        W37148  41.438  13.888   3.057
70366W        W37149  43.020  10.233   1.152
70367W        W37150  20.676  28.559   3.131
70368W        W37151  38.360  36.595  10.713
70369W        W37152  16.650  27.368   0.990
70370W        W37153  34.648  18.168   0.503
70371W        W37154   5.796  30.410   1.218
70372W        W37155  25.447  39.543  11.554
70373W        W37156  32.107   0.671   1.209
70374W        W37157  21.937  37.307  12.950
70375W        W37158  41.080  37.158  12.972
70376W        W37159  12.334  39.893  10.641
70377W        W37160  13.571  26.392  12.618
70378W        W37161  31.876  25.102   4.114
70379W        W37162  24.189   1.501  14.974
70380W        W37163  37.685  12.230  12.066
70381W        W37164  11.696  40.909  11.759
70382W        W37165  40.521  31.084   3.796
70383W        W37166  44.705   3.228   3.768
70384W        W37167  24.378  37.594   1.865
70385W        W37168   3.271  33.472   1.327
70386W        W37169  18.357  11.952   0.304
70387W        W37170  38.810  20.740  13.098
70388W        W37171  27.050  23.755   2.901
70389W        W37172   1.258  43.953  14.813
70390W        W37173  43.806  41.128  11.165
70391W        W37174  39.073   1.572   0.387
70392W        W37175  17.640  18.822   2.331
70393W        W37176  17.175  12.730  10.015
70394W        W37177  16.085  33.170   1.232
70395W        W37178  13.416  42.078   3.371
70396W        W37179  24.714   5.462   0.290
70397W        W37180  30.956  17.458  13.080
70398W        W37181  28.589  14.764  12.109
70399W        W37182   4.272  33.802   0.115
70400W        W37183  38.960  37.169   1.716
70401W        W37184  19.457  38.898   3.594
70402W        W37185  14.682  26.761  13.645
70403W        W37186  31.943  11.112  14.829
70404W        W37187   6.135  43.858  12.891
70405W        W37188  41.001   1.490  12.555
70406W        W37189  21.886  41.822  10.481
70407W        W37190  38.646  26.042  12.965
70408W        W37191   5.333  26.983   1.265
70409W        W37192  19.112  22.139   3.078
70410W        W37193  16.790  28.940  11.706
70411W        W37194  38.021  31.901  11.451
70412W        W37195  12.384  38.481  11.564
70413W        W37196  43.071  19.844  11.193
70414W        W37197  38.847   5.541  11.603
70415W        W37198  15.077  33.339   1.328
70416W        W37199   5.692  11.299   1.793
70417W        W37200   2.824  12.638   1.905
70418W        W37201  39.553  30.468   0.441
70419W        W37202  30.035  22.141   3.463
70420W        W37203   1.037  16.329   1.485
70421W        W37204  31.941  10.539   3.302
70422W        W37205  22.035  11.722   1.928
70423W        W37206  28.384  20.510   3.209
70424W        W37207  36.668   1.784   4.175
70425W        W37208  36.415  41.200  12.479
70426W        W37209  41.503  19.179   0.824
70427W        W37210   8.985  31.128  14.010
70428W        W37211  10.374  29.512   1.982
70429W        W37212  24.445  18.675   1.277
70430W        W37213   7.581  18.027   4.245
70431W        W37214  25.645  41.104  14.856
70432W        W37215   5.618  35.536  10.379
70433W        W37216  32.472  25.660  14.970
70434W        W37217   3.285  22.952   2.090
70435W        W37218  26.044  36.299  10.345
70436W        W37219  22.735  32.852   3.656
70437W        W37220  29.512   5.931  10.926
70438W        W37221  17.698  37.424   0.894
70439W        W37222   2.633  14.040   3.687
70440W        W37223  38.133  36.389   5.179
70441W        W37224  16.114  14.722   4.698
70442W        W37225  37.337  18.019   4.094
70443W        W37226  11.810  36.036   4.256
70444W        W37227  23.941  41.936  13.349
70445W        W37228  27.728  10.435   0.136
70446W        W37229   8.334  40.470   4.600
70447W        W37230  24.263  30.590  10.802
70448W        W37231  23.075   8.921   2.411
70449W        W37232   3.695   8.348   3.417
70450W        W37233   9.566   4.714  13.094
70451W        W37234   3.508  38.457  11.561
70452W        W37235  42.044  28.861  13.391
70453W        W37236  14.278   8.460  14.098
70454W        W37237  35.423  40.793  11.382
70455W        W37238  25.035   5.368  10.645
70456W        W37239   9.150  12.216   2.884
70457W        W37240   0.741  18.630  13.958
70458W        W37241   9.756  40.392  14.075
70459W        W37242  14.668  17.763   3.370
70460W        W37243  31.432  32.953  10.369
70461W        W37244  22.726  27.215  14.309
70462W        W37245  16.143  11.334   4.041
70463W        W37246  16.475  41.468   3.315
70464W        W37247   1.459  44.463  13.028
70465W        W37248  25.520  35.514   1.702
70466W        W37249  33.087  22.773   0.777
70467W        W37250  31.898  12.144   1.777
70468W        W37251   5.982  15.688  13.614
70469W        W37252  12.787  28.687   4.643
70470W        W37253   6.520   4.555   0.264
70471W        W37254  19.810  44.974  11.671
70472W        W37255  23.172  41.350  11.768
70473W        W37256  36.148   6.668  13.840
70474W        W37257  31.876  24.091  11.482
70475W        W37258  37.001  31.896  10.996
70476W        W37259   6.822  21.738  12.889
70477W        W37260  41.892  10.424   0.408
70478W        W37261  15.004   8.429   4.124
70479W        W37262  25.205  39.302   2.653
70480W        W37263  20.081   5.937  13.003
70481W        W37264  10.837  33.086   0.821
70482W        W37265  21.160  14.196  10.480
70483W        W37266  29.775  20.960  12.074
70484W        W37267  24.512  19.454   0.814
70485W        W37268   5.259  10.643   4.198
70486W        W37269  41.537  13.898  13.774
70487W        W37270  13.703  21.718  13.992
70488W        W37271  10.426  26.041   1.906
70489W        W37272  26.426   3.514   2.782
70490W        W37273  37.952  31.246  11.939
70491W        W37274   5.611  14.184   3.487
70492W        W37275  29.926  23.251  10.043
70493W        W37276  13.635  12.324   3.164
70494W        W37277  25.992  32.151  13.511
70495W        W37278  44.592  21.174  10.763
70496W        W37279  14.864  42.096  10.476
70497W        W37280  19.364   7.699   3.266
70498W        W37281   7.657  32.987  11.133
70499W        W37282  40.501  10.766   3.356
70500W        W37283  19.628  38.697   1.288
70501W        W37284  29.857   8.265  11.116
70502W        W37285  22.011  43.264   0.151
70503W        W37286  21.124  18.919  12.895
70504W        W37287  35.133   3.659   2.981
70505W        W37288  11.579  23.610  13.946
70506W        W37289  21.835   9.598   0.917
70507W        W37290  24.687   7.810   0.329
70508W        W37291  27.864  14.088  11.791
70509W        W37292  29.895   1.155  11.117
70510W        W37293  31.862  19.997  13.470
70511W        W37294   8.222  15.739  14.748
70512W        W37295   5.614  32.007   5.177
70513W        W37296  12.150   8.318   3.925
70514W        W37297  37.498  18.667   1.890
70515W        W37298  26.640  19.222  10.688
70516W        W37299   6.265  20.164  13.152
70517W        W37300   5.172  34.906  13.954
70518W        W37301  36.076   5.960   4.217
70519W        W37302  33.596  35.758   2.464
70520W        W37303  24.081  35.081   4.918
70521W        W37304  32.462  41.515  13.826
70522W        W37305  32.502  42.792   3.839
70523W        W37306  25.179  14.257   4.680
70524W        W37307  32.617  25.283   2.184
70525W        W37308  40.071   9.574  11.593
70526W        W37309  19.421  40.872   4.539
70527W        W37310  40.569  21.477  11.980
70528W        W37311  26.104  37.468   3.843
70529W        W37312  17.726  40.828   3.725
70530W        W37313  30.110  42.384  13.373
70531W        W37314  33.033  41.986   0.916
70532W        W37315   6.368  23.621   2.741
70533W        W37316  32.713  18.274  14.438
70534W        W37317   6.218  34.930  12.954
70535W        W37318  21.423  31.456   2.414
70536W        W37319  40.433  14.601   2.128
70537W        W37320  39.708  19.617   0.612
70538W        W37321  40.646  14.008   3.151
70539W        W37322  34.981  41.280  11.875
70540W        W37323  14.478   5.392   2.664
70541W        W37324  31.979  39.831   0.204
70542W        W37325  38.524  41.931   1.450
70543W        W37326   4.488   3.352  12.079
70544W        W37327  36.091   3.873  14.109
70545W        W37328  40.762  17.107   3.383
70546W        W37329   9.816  28.163   2.248
70547W        W37330  25.161   2.484   4.453
70548W        W37331  27.601  21.781   3.709
70549W        W37332   9.951  40.364   4.254
70550W        W37333  34.542   7.723  11.641
70551W        W37334  44.398  33.843  11.566
70552W        W37335  32.346  29.957   0.865
70553W        W37336  16.218  24.495  11.502
70554W        W37337  11.819  33.490  12.664
70555W        W37338  28.966  37.815   1.183
70556W        W37339  35.930  32.257  14.922
70557W        W37340   5.832   8.854   3.105
70558W        W37341  42.521  23.711   2.092
70559W        W37342   8.633  11.231  14.875
70560W        W37343  37.968  37.385   2.641
70561W        W37344  22.991  27.559  13.105
70562W        W37345  28.244  32.778  11.000
70563W        W37346   0.841  21.684   0.530
70564W        W37347  31.832  28.390   1.112
70565W        W37348   0.783  11.271  12.576
70566W        W37349   1.770  20.125   3.072
70567W        W37350  15.701  34.984   1.130
70568W        W37351  32.606  41.007  14.395
70569W        W37352   6.349   5.841  14.305
70570W        W37353  35.068   8.124  13.402
70571W        W37354  42.325  26.496  11.047
70572W        W37355  32.511  20.521   2.732
70573W        W37356  29.214  36.838  13.279
70574W        W37357  39.288  13.038  11.978
70575W        W37358   3.739  15.205   4.156
70576W        W37359  32.630   7.811   4.562
70577W        W37360   8.328  32.011   3.368
70578W        W37361   5.523  35.504  12.943
70579W        W37362   7.375  44.233  13.175
70580W        W37363   4.745  29.677  11.340
70581W        W37364  12.395  19.871   2.207
70582W        W37365   6.373  23.179   0.278
70583W        W37366  44.664  12.325  14.766
70584W        W37367   0.726  36.559   1.671
70585W        W37368   2.969  23.243   1.755
70586W        W37369  35.455  34.213   4.688
70587W        W37370  37.601  42.124  11.720
70588W        W37371  38.574  10.177   1.100
70589W        W37372  15.613  41.415  14.824
70590W        W37373  24.485  20.645  11.642
70591W        W37374  32.052  15.827  14.801
70592W        W37375  11.221  30.216  14.809
70593W        W37376  36.463   7.830  14.435
70594W        W37377  41.229  11.616   3.849
70595W        W37378  10.379  43.776   4.105
70596W        W37379  44.410  31.264  11.102
70597W        W37380  25.919  35.259   3.301
70598W        W37381  24.832   4.304   2.747
70599W        W37382  43.870  25.831  11.430
70600W        W37383   2.617   7.099  13.853
70601W        W37384  13.729  22.092  11.009
70602W        W37385  16.057   6.394  12.227
70603W        W37386  41.684  25.779   1.175
70604W        W37387  10.746   4.795   4.344
70605W        W37388  39.645  42.329  13.057
70606W        W37389  32.904  27.080  13.003
70607W        W37390  38.401  25.310  13.336
70608W        W37391  13.909   1.780   1.354
70609W        W37392  10.426  14.238  10.393
70610W        W37393  36.508  18.894  10.711
70611W        W37394  39.115  16.292  13.136
70612W        W37395  25.207  26.548   3.057
70613W        W37396  14.589  35.623  11.570
70614W        W37397  25.881  24.075   3.210
70615W        W37398  23.637  37.769  13.879
70616W        W37399  31.563  40.008  10.946
70617W        W37400  14.688  10.100  12.551
70618W        W37401  25.839  33.126  14.591
70619W        W37402  21.726  28.392   1.806
70620W        W37403   2.399  25.374  14.014
70621W        W37404  44.350  29.639  14.007
70622W        W37405  24.416   1.319  10.686
70623W        W37406  37.980   4.242  10.711
70624W        W37407   0.869  21.139  14.297
70625W        W37408  24.055  39.805   3.729
70626W        W37409  31.702  42.419  12.136
70627W        W37410  23.749  36.841   3.002
70628W        W37411  19.933   2.788   1.715
70629W        W37412  18.036  39.070  11.130
70630W        W37413  11.577  18.826   0.263
70631W        W37414   1.384  27.192   1.695
70632W        W37415  12.605   3.685   0.216
70633W        W37416  40.420  14.789  12.067
70634W        W37417   6.543  11.354  11.265
70635W        W37418  22.063  31.939   0.747
70636W        W37419  13.185  39.605   4.719
70637W        W37420  30.701  43.379   3.175
70638W        W37421  25.104  38.612  12.074
70639W        W37422  28.106  15.005  11.741
70640W        W37423  35.432   7.185  11.602
70641W        W37424  27.594  29.899   0.418
70642W        W37425  24.466   4.583   4.072
70643W        W37426   4.214  40.629   4.237
70644W        W37427  35.439  18.591  12.725
70645W        W37428  14.535  17.356  11.911
70646W        W37429  18.676  10.601   2.310
70647W        W37430   1.895  10.705  13.594
70648W        W37431   0.678  38.961  14.802
70649W        W37432  26.137  11.098  12.054
70650W        W37433  28.030  25.679  10.476
70651W        W37434  42.745  34.953   0.783
70652W        W37435  19.604   4.970  12.162
70653W        W37436  17.643   9.407  10.935
70654W        W37437  25.363  12.290   0.682
70655W        W37438  32.969  24.503   1.916
70656W        W37439   4.299  12.360   0.338
70657W        W37440  40.267  21.247   4.174
70658W        W37441  34.946  43.840   1.363
70659W        W37442  26.231  38.862  14.000
70660W        W37443  37.536  44.150   4.627
70661W        W37444   5.954  44.288  10.973
70662W        W37445   2.909   6.777  13.006
70663W        W37446  37.364  10.672   2.353
70664W        W37447  19.667   2.853   1.253
70665W        W37448  44.884   9.018   4.956
70666W        W37449  26.870   1.099   0.292
70667W        W37450  29.695  30.889  12.482
70668W        W37451  19.593  28.289   3.602
70669W        W37452  35.103  31.212   2.615
70670W        W37453  24.473  34.183  13.435
70671W        W37454  11.991  15.575   4.173
70672W        W37455  30.246  19.053  13.859
70673W        W37456  35.573  29.103  12.554
70674W        W37457  31.000  19.242  13.484
70675W        W37458   7.028  33.046  13.449
70676W        W37459   7.754  26.957  11.693
70677W        W37460  34.845  15.769  13.753
70678W        W37461  18.624   1.500   4.699
70679W        W37462   6.578   0.595  13.852
70680W        W37463   4.323  29.974  11.205
70681W        W37464  33.931  10.088   3.287
70682W        W37465  30.886   8.986   1.377
70683W        W37466  41.497  31.442  12.413
70684W        W37467  33.159  18.128  12.589
70685W        W37468  30.237  36.032   1.925
70686W        W37469  39.066  10.669   1.379
70687W        W37470  18.490   3.371  11.093
70688W        W37471  19.174  23.655   1.739
70689W        W37472  16.359   0.592   3.385
70690W        W37473  35.352  41.452   4.155
70691W        W37474  20.166  42.723  14.843
70692W        W37475  19.001   2.285   4.581
70693W        W37476  33.457  21.907  11.245
70694W        W37477  26.149   9.152   4.817
70695W        W37478  29.190  42.967  13.104
70696W        W37479  20.442  28.519  14.836
70697W        W37480  32.579   4.678   1.384
70698W        W37481  27.920  39.544  12.736
70699W        W37482  22.178  33.179   0.286
70700W        W37483   9.069  37.888   2.847
70701W        W37484   7.902  15.830   2.647
70702W        W37485  38.814   6.762  13.124
70703W        W37486  24.421   0.306  12.956
70704W        W37487  25.994  19.626   9.999
70705W        W37488  34.906  30.416   0.421
70706W        W37489  11.908  15.781  10.492
70707W        W37490  12.342  44.338   4.573
70708W        W37491  21.066  40.333   3.838
70709W        W37492  42.079  16.748  11.403
70710W        W37493  29.144  37.469   3.583
70711W        W37494  14.118  24.692  11.118
70712W        W37495   1.250  20.504  11.069
70713W        W37496  20.792   0.035   0.458
70714W        W37497  33.225  16.408  13.771
70715W        W37498  44.969  20.338  12.539
70716W        W37499   5.644  43.798   4.086
70717W        W37500  15.342  44.236  14.889
70718W        W37501   2.327   7.237   0.334
70719W        W37502  22.301  20.748  13.480
70720W        W37503  28.562  16.256   3.374
70721W        W37504  17.257  19.426  14.250
70722W        W37505  22.355  37.821  14.593
70723W        W37506  14.152  14.042   4.116
70724W        W37507  14.884  35.284   1.217
70725W        W37508   1.047  12.132  14.089
70726W        W37509  27.598  39.828   3.170
70727W        W37510  35.426   7.326   0.767
70728W        W37511  10.201  39.084  14.289
70729W        W37512  36.330  31.186   0.354
70730W        W37513  29.186   9.680  11.077
70731W        W37514  23.987  18.043  14.916
70732W        W37515  11.744  28.441   1.345
70733W        W37516   3.446  15.027  11.190
70734W        W37517   5.139  36.417   0.958
70735W        W37518  19.484  44.486  12.070
70736W        W37519   9.034   4.759  14.455
70737W        W37520   1.459  14.387  11.605
70738W        W37521  31.139  10.869   2.617
70739W        W37522  24.315  39.430  12.362
70740W        W37523   6.697   7.346   2.883
70741W        W37524  44.521  24.516   0.255
70742W        W37525  40.978   2.729   2.733
70743W        W37526  37.827   5.530  13.392
70744W        W37527  24.282  37.726  11.345
70745W        W37528  28.155  24.412  14.824
70746W        W37529  19.617  14.872  13.291
70747W        W37530  31.935  11.890   1.302
70748W        W37531  24.232  17.285  14.312
70749W        W37532   9.099  43.504  12.553
70750W        W37533  22.150  35.520  14.122
70751W        W37534  16.032  40.001   2.691
70752W        W37535  27.177  24.278   2.868
70753W        W37536  27.831  10.434  13.472
70754W        W37537  21.639  24.502   0.264
70755W        W37538  31.978   9.193  14.882
70756W        W37539  36.993  19.011   3.159
70757W        W37540   4.563  28.415   5.067
70758W        W37541   3.345  17.810  12.229
70759W        W37542  27.118  33.886   3.629
70760W        W37543  37.764  42.013   0.367
70761W        W37544  18.095  40.365   2.858
70762W        W37545  40.940  21.608  11.228
70763W        W37546   1.043  10.266   1.962
70764W        W37547  25.240  28.962   5.121
70765W        W37548  28.416  38.357   2.230
70766W        W37549  25.030  22.938  13.311
70767W        W37550  37.122   3.862   1.222
70768W        W37551  28.118  13.751   4.960
70769W        W37552  22.494  21.168   0.617
70770W        W37553   7.900  15.054   3.561
70771W        W37554   3.944  25.929   2.640
70772W        W37555  40.349  28.888   4.275
70773W        W37556   2.483   0.333  13.001
70774W        W37557  20.475  40.921  11.982
70775W        W37558  23.451  43.739  14.725
70776W        W37559   1.824  30.860  12.930
70777W        W37560  35.473  30.140   4.595
70778W        W37561  19.297   1.149   0.011
70779W        W37562  31.619   6.371   2.105
70780W        W37563  30.826  36.880   1.664
70781W        W37564  13.909  37.096  14.648
70782W        W37565  43.064  23.914  14.437
70783W        W37566  26.524   4.689   3.402
70784W        W37567   9.980  26.024   0.491
70785W        W37568  28.472  38.927   2.903
70786W        W37569  26.058  41.502   1.298
70787W        W37570  13.630  35.025  12.305
70788W        W37571  35.841  31.412  12.811
70789W        W37572  19.478  41.826   2.328
70790W        W37573  31.322  18.542   9.866
70791W        W37574  39.413  30.360  14.397
70792W        W37575  13.433  12.883  11.112
70793W        W37576  35.987  33.233   4.295
70794W        W37577  35.870  27.906   4.152
70795W        W37578  18.703  30.654   0.391
70796W        W37579   8.343   3.023  11.459
70797W        W37580  13.731  25.990  10.712
70798W        W37581  22.541   0.270   3.776
70799W        W37582  12.579  25.115  11.561
70800W        W37583   9.109  31.171  13.008
70801W        W37584  40.784  41.276  13.745
70802W        W37585  40.167  19.240  13.802
70803W        W37586  34.182   4.767   0.349
70804W        W37587  17.583  40.353   0.751
70805W        W37588   7.754  10.552  13.834
70806W        W37589   6.152  41.915   0.364
70807W        W37590  19.659  41.505   1.733
70808W        W37591  20.512  36.210   3.226
70809W        W37592   3.740   0.006  10.276
70810W        W37593  30.247   6.459   2.122
70811W        W37594  27.422  31.339   2.811
70812W        W37595  20.075  35.925   1.990
70813W        W37596  12.431   2.831   4.364
70814W        W37597  32.048  10.299   1.983
70815W        W37598  23.170  13.750  14.247
70816W        W37599  33.273   1.273   4.303
70817W        W37600  27.317  12.156   4.199
70818W        W37601  26.993  11.445  13.342
70819W        W37602  31.554  35.310   0.903
70820W        W37603  22.992  35.707  11.034
70821W        W37604  21.287  30.091   1.733
70822W        W37605  39.000  33.613   0.215
70823W        W37606  28.346  13.041  13.222
70824W        W37607   0.821  16.953   4.640
70825W        W37608   0.045  43.998   4.155
70826W        W37609  26.285  35.845  12.263
70827W        W37610  17.555  28.015   2.793
70828W        W37611  21.227  25.130  11.673
70829W        W37612  30.611  36.810   2.119
70830W        W37613  30.818  29.935  11.478
70831W        W37614  35.245  26.609   0.740
70832W        W37615  15.559  44.221  10.125
70833W        W37616  35.262  40.783   0.492
70834W        W37617  30.275  32.213   1.912
70835W        W37618   4.790  23.904   5.045
70836W        W37619  23.381  40.919   0.292
70837W        W37620  10.280  41.240  10.273
70838W        W37621  41.495  25.020   0.708
70839W        W37622  14.629  39.744   1.286
70840W        W37623  36.638   9.445   0.298
70841W        W37624  28.003   9.397  13.652
70842W        W37625  12.315  23.847  10.804
70843W        W37626   9.255  32.860   2.076
70844W        W37627  40.588  36.573  14.919
70845W        W37628  12.072   2.480   4.208
70846W        W37629  15.638   8.197   0.972
70847W        W37630   2.418   4.788   1.974
70848W        W37631  26.042  38.465  13.723
70849W        W37632   1.692  43.331   4.848
70850W        W37633  36.896  11.751   2.729
70851W        W37634  44.407  32.386  13.899
70852W        W37635  27.752  32.077   0.955
70853W        W37636  28.029  25.889   2.675
70854W        W37637   2.608  41.762  12.458
70855W        W37638   0.451  35.137  12.025
70856W        W37639  39.310   3.060  12.928
70857W        W37640  24.510  21.195   2.330
70858W        W37641   2.232  16.292  11.434
70859W        W37642  22.023  42.969  10.948
70860W        W37643  44.309  37.221  11.468
70861W        W37644  36.380  13.200  10.567
70862W        W37645  10.071   1.677  13.833
70863W        W37646  40.056   7.303   0.470
70864W        W37647  18.174  26.649   1.976
70865W        W37648  29.189  12.055   3.686
70866W        W37649  27.498  37.744   0.319
70867W        W37650   2.720  44.096   1.795
70868W        W37651  18.825  39.879   1.000
70869W        W37652  31.434  12.756   4.850
70870W        W37653  35.361  16.338  12.731
70871W        W37654   0.389  19.948   3.880
70872W        W37655  42.088  17.583   4.918
70873W        W37656  10.331  26.339  10.045
70874W        W37657  37.124  33.321   4.846
70875W        W37658  14.580   4.323  10.452
70876W        W37659  29.203  26.481  14.845
70877W        W37660  34.185  40.905   3.736
70878W        W37661  31.387   6.242  12.848
70879W        W37662  38.429  32.246   4.925
70880W        W37663  33.468   8.838  12.587
70881W        W37664  20.734  20.535   0.658
70882W        W37665   7.870   0.865   0.930
70883W        W37666  18.261  20.132   1.398
70884W        W37667   3.889  24.485  12.009
70885W        W37668  29.463  26.912   2.639
70886W        W37669   0.520  20.403   0.429
70887W        W37670  14.630   6.149   4.899
70888W        W37671   4.385  40.431  12.882
70889W        W37672  29.023  39.653   3.145
70890W        W37673  22.020  35.348  13.084
70891W        W37674   3.661   1.985  13.400
70892W        W37675   2.768   5.785  12.457
70893W        W37676  28.865  21.676  14.634
70894W        W37677  22.940   6.875  12.447
70895W        W37678  15.194   7.038   4.159
70896W        W37679  12.640  16.465   1.918
70897W        W37680   6.788  23.573   2.439
70898W        W37681   3.721  38.352   1.141
70899W        W37682  44.568  33.297  11.603
70900W        W37683  20.219  19.601  13.275
70901W        W37684  34.415  27.501   4.649
70902W        W37685  40.872  28.930   4.421
70903W        W37686  24.440  24.064   4.963
70904W        W37687  30.043  40.744  11.844
70905W        W37688  26.584   3.498  13.021
70906W        W37689  31.908  13.669   4.928
70907W        W37690  27.354  35.898  10.700
70908W        W37691  40.505  12.574   3.692
70909W        W37692  18.642  32.876   1.978
70910W        W37693  24.162  17.121   4.058
70911W        W37694   3.399  44.529   2.218
70912W        W37695  25.787  12.955   4.691
70913W        W37696   5.346  20.279  12.844
70914W        W37697  33.396  15.861   4.711
70915W        W37698  30.935  27.235   4.160
70916W        W37699   0.909  21.491  12.371
70917W        W37700   9.729  15.387  11.951
70918W        W37701  34.187  41.893  13.529
70919W        W37702  36.494   3.197  13.339
70920W        W37703  29.948  30.925  13.934
70921W        W37704  30.038   7.660  10.429
70922W        W37705  17.539   0.372   1.787
70923W        W37706  32.115  17.610  11.047
70924W        W37707  15.584  31.618  11.994
70925W        W37708  33.521  25.233  13.473
70926W        W37709  25.613   8.908   3.693
70927W        W37710   9.646   5.244  13.049
70928W        W37711  32.145  43.005  10.723
70929W        W37712  10.241  25.780  13.380
70930W        W37713   6.795  29.598   3.926
70931W        W37714  31.182  30.166   2.141
70932W        W37715  33.064  26.410   0.533
70933W        W37716  20.484  23.744  12.473
70934W        W37717  33.780  40.566   1.595
70935W        W37718  40.377  24.602   4.202
70936W        W37719  34.125  25.010  11.617
70937W        W37720  28.477  32.655  13.134
70938W        W37721  25.643  18.241   3.630
70939W        W37722  27.132   4.902  14.752
70940W        W37723  21.940   5.804   3.216
70941W        W37724  25.512  35.922   2.037
70942W        W37725  43.263   7.698  14.441
70943W        W37726  38.931  35.126  11.335
70944W        W37727   0.356  11.875   0.203
70945W        W37728   0.737  21.565   1.779
70946W        W37729  36.753  35.371  11.761
70947W        W37730  34.860   5.254  12.436
70948W        W37731   2.943  25.225  14.798
70949W        W37732  28.675  38.555  11.824
70950W        W37733   1.622   9.362  12.466
70951W        W37734  17.654  30.654  14.254
70952W        W37735  41.859  10.947  13.509
70953W        W37736   3.729  31.214   3.111
70954W        W37737  26.931  42.358  13.770
70955W        W37738  22.231  24.799  10.182
70956W        W37739  22.852  10.319  13.765
70957W        W37740   3.831  13.715   1.128
70958W        W37741   5.555  27.095   3.096
70959W        W37742   9.718  12.920  11.659
70960W        W37743   0.376  11.120   0.282
70961W        W37744  30.481   1.499   1.857
70962W        W37745   6.901  25.565  12.332
70963W        W37746  12.786  35.853   3.365
70964W        W37747  18.698  15.307   0.555
70965W        W37748  25.651  26.257  13.511
70966W        W37749  21.153  21.328   1.071
70967W        W37750  33.504  20.912  11.213
70968W        W37751   4.943  21.717  13.546
70969W        W37752  32.441  32.973  10.566
70970W        W37753  10.277  18.545   0.497
70971W        W37754  42.860   9.333   3.662
70972W        W37755   1.655  27.474   1.358
70973W        W37756  20.111  30.036  12.842
70974W        W37757  25.964  13.656   3.298
70975W        W37758   3.878  21.143  13.915
70976W        W37759  32.130  30.174   0.423
70977W        W37760  38.777   9.410  13.474
70978W        W37761  44.498  11.317  10.148
70979W        W37762  22.981  15.236   0.938
70980W        W37763  26.299  27.983   2.210
70981W        W37764  24.688  42.790  12.688
70982W        W37765  25.212  36.555   2.199
70983W        W37766   1.789  35.384  10.787
70984W        W37767  19.681  19.154  11.661
70985W        W37768  26.000  18.360  12.967
70986W        W37769  28.864  26.802  14.380
70987W        W37770  23.402   8.912   3.765
70988W        W37771   2.586   6.375  13.055
70989W        W37772   2.885   5.393  10.645
70990W        W37773  11.744  25.660   3.669
70991W        W37774   8.776   2.245   4.550
70992W        W37775  16.590  38.993  13.383
70993W        W37776   4.944  44.287  13.530
70994W        W37777   4.892  39.431   4.621
70995W        W37778   0.727  43.019  12.172
70996W        W37779  27.947   8.200   2.912
70997W        W37780  12.266  43.542  14.921
70998W        W37781  16.858   1.375   0.697
70999W        W37782  38.475   3.796   4.738
71000W        W37783  27.933   3.781  13.054
71001W        W37784  39.179   6.308  13.360
71002W        W37785  40.130  33.416   3.193
71003W        W37786  15.721  32.902   1.521
71004W        W37787  31.519  43.221  12.513
71005W        W37788  35.532  26.467   3.270
71006W        W37789  40.943  28.195  14.290
71007W        W37790  31.946  22.297   4.571
71008W        W37791  43.819  37.982  12.645
71009W        W37792  14.089  31.413  10.580
71010W        W37793  37.279  13.163   1.824
71011W        W37794  24.627  24.336   3.525
71012W        W37795  14.826  30.533  14.388
71013W        W37796  35.508  41.595  12.762
71014W        W37797   1.242  31.062  13.591
71015W        W37798   3.318  15.359  11.579
71016W        W37799  26.590   9.371  12.918
71017W        W37800  31.076  12.440   0.649
71018W        W37801  25.229   3.440   1.415
71019W        W37802  35.056  23.754  13.308
71020W        W37803  18.165  23.195   3.163
71021W        W37804  27.382  35.821   1.737
71022W        W37805  20.789  44.537  13.597
71023W        W37806  42.741   0.724   1.000
71024W        W37807  22.091   4.302  13.832
71025W        W37808  18.561  42.334   0.011
71026W        W37809  28.957   1.259  11.171
71027W        W37810  44.247  19.854  11.192
71028W        W37811  11.225  13.093  12.075
71029W        W37812   5.855  17.212  12.533
71030W        W37813  32.153  30.096  13.140
71031W        W37814  40.340  42.408   0.904
71032W        W37815  23.927  34.413   0.875
71033W        W37816  43.758   3.282   0.885
71034W        W37817   5.382  39.495  13.899
71035W        W37818  17.087  30.925   3.667
71036W        W37819   0.850  34.482  13.047
71037W        W37820  20.269  37.013   1.078
71038W        W37821   4.339   2.014  12.952
71039W        W37822  21.388  24.061  13.483
71040W        W37823  16.733  34.054   3.727
71041W        W37824  26.979  36.777  12.099
71042W        W37825  23.825  31.058   2.373
71043W        W37826  30.011  42.813   3.102
71044W        W37827   1.435  19.585  11.012
71045W        W37828  41.974  31.055   0.261
71046W        W37829  17.112  15.801   0.396
71047W        W37830  22.236  30.610  11.499
71048W        W37831   8.262   3.856   0.933
71049W        W37832   2.361   4.035  11.104
71050W        W37833  28.528  14.744   2.981
71051W        W37834  21.535  44.315   4.680
71052W        W37835  33.569  30.614   0.793
71053W        W37836  36.366  10.775  10.752
71054W        W37837  33.421  36.119   0.757
71055W        W37838   1.974  29.453   2.008
71056W        W37839  16.974  37.400  14.855
71057W        W37840  15.105   3.225   4.235
71058W        W37841  22.192   5.543   3.613
71059W        W37842  39.008  21.674   4.946
71060W        W37843  31.818  26.946   2.277
71061W        W37844  39.014   2.328   0.569
71062W        W37845   2.983  31.685   0.394
71063W        W37846  44.073  14.849   4.051
71064W        W37847   2.812  14.461   4.582
71065W        W37848  18.590  18.279  12.894
71066W        W37849  44.286  28.112  12.157
71067W        W37850  44.844  12.591   1.370
71068W        W37851  19.210  30.935  11.156
71069W        W37852  27.440  23.047  12.715
71070W        W37853   6.879  38.173  11.177
71071W        W37854  21.757   7.091   2.619
71072W        W37855  19.243  35.208  13.963
71073W        W37856   5.832  26.192   4.484
71074W        W37857  13.176  27.091  12.799
71075W        W37858  25.669  40.874   2.905
71076W        W37859   9.657   1.586   3.502
71077W        W37860   9.162  43.893  11.198
71078W        W37861  41.400  34.932  13.880
71079W        W37862  43.844  21.449   0.247
71080W        W37863  31.471  23.803   0.994
71081W        W37864  16.349  39.361  14.043
71082W        W37865  28.725  11.566  12.109
71083W        W37866  33.133  20.377  12.235
71084W        W37867  43.986  31.005  13.807
71085W        W37868  10.372  42.122   0.469
71086W        W37869  42.740   1.335   2.733
71087W        W37870  41.285   2.409  12.038
71088W        W37871  34.616  14.801  14.383
71089W        W37872  33.864   0.207  12.537
71090W        W37873   4.849  18.593   0.604
71091W        W37874  21.177  39.594   0.776
71092W        W37875  33.082  43.304  13.840
71093W        W37876   0.434  43.932  14.242
71094W        W37877  31.868  10.799  11.515
71095W        W37878  39.474  18.554  11.891
71096W        W37879  21.486  21.572  11.035
71097W        W37880  37.100   3.353   0.293
71098W        W37881  37.850  35.141   2.389
71099W        W37882  40.596  30.066   3.725
71100W        W37883  24.730  21.946   4.498
71101W        W37884  33.991  35.356   2.082
71102W        W37885  31.136  34.427   0.849
71103W        W37886  43.538   6.393  10.628
71104W        W37887  18.136  14.835  14.415
71105W        W37888  23.822  32.390   0.717
71106W        W37889  23.950  26.840   0.764
71107W        W37890  26.511  11.059   2.292
71108W        W37891  20.606  34.568   0.995
71109W        W37892  22.131   3.205   0.679
71110W        W37893   2.836  39.523   4.657
71111W        W37894  25.277  35.699   0.328
71112W        W37895   7.736   4.874  11.103
71113W        W37896  12.528  39.884  12.437
71114W        W37897  16.823  30.690  14.022
71115W        W37898   7.317  34.377   1.720
71116W        W37899   9.034  26.568   4.597
71117W        W37900  17.355  39.469  14.570
71118W        W37901  14.669  43.704   1.526
71119W        W37902  17.538   7.257   4.277
71120W        W37903  35.014  43.344   0.500
71121W        W37904   5.478  10.209   3.445
71122W        W37905   7.507  12.725   2.820
71123W        W37906   0.206  29.732   1.444
71124W        W37907  38.401  24.040  12.407
71125W        W37908   7.802  27.015   3.008
71126W        W37909   8.381  12.140   0.804
71127W        W37910  26.187  34.602   2.754
71128W        W37911   3.450   1.673  10.731
71129W        W37912  31.707  28.025  14.076
71130W        W37913  27.151  37.084  13.427
71131W        W37914  19.148  13.507   1.252
71132W        W37915  13.676  30.145   2.133
71133W        W37916  26.680  37.875   3.763
71134W        W37917  37.897   9.239   1.971
71135W        W37918  28.002  22.892  14.000
71136W        W37919  31.711   2.276   0.275
71137W        W37920  37.653  44.724  10.749
71138W        W37921  14.181  12.218   0.448
71139W        W37922  25.827  22.507  12.050
71140W        W37923  15.396  35.464  12.038
71141W        W37924  18.220   3.949   2.872
71142W        W37925   2.829  33.133   4.348
71143W        W37926  27.640  22.776   3.917
71144W        W37927  12.852  21.226  14.076
71145W        W37928  41.960  38.433  14.782
71146W        W37929  18.479  36.217   9.851
71147W        W37930   7.406   3.431  14.387
71148W        W37931  39.595  39.540  14.263
71149W        W37932   7.776  11.306  13.588
71150W        W37933  12.373  17.064   4.883
71151W        W37934   8.470  10.899   0.298
71152W        W37935  34.401  33.361  11.135
71153W        W37936  39.247  21.141   4.109
71154W        W37937  31.057  17.082  11.751
71155W        W37938   6.678  14.357   4.689
71156W        W37939  20.093  19.220   4.670
71157W        W37940  16.357  16.284  12.312
71158W        W37941  30.173  26.217   3.680
71159W        W37942  24.565  18.456   2.158
71160W        W37943  44.343  40.922  11.911
71161W        W37944  19.017   8.431   3.739
71162W        W37945   5.899  10.241  11.452
71163W        W37946  23.084  13.677   4.924
71164W        W37947   6.646  43.458   2.653
71165W        W37948  41.983  32.351   1.869
71166W        W37949  38.796  14.436  12.924
71167W        W37950  42.721  29.787  14.475
71168W        W37951  29.106  30.415  14.978
71169W        W37952  31.318  24.420   3.993
71170W        W37953  42.570  21.141   3.311
71171W        W37954  34.531  31.979   1.637
71172W        W37955  35.925   3.837  14.594
71173W        W37956   6.430  10.677   2.698
71174W        W37957  24.809  34.974   2.946
71175W        W37958  23.217  26.924  10.805
71176W        W37959  13.933  41.329   9.336
71177W        W37960  15.549  27.277  14.917
71178W        W37961  20.528  21.531   4.535
71179W        W37962  22.220  19.015   0.744
71180W        W37963   3.166  40.962  12.474
71181W        W37964  23.208  32.656  14.713
71182W        W37965  33.117  18.627   5.051
71183W        W37966  35.513  13.075   3.306
71184W        W37967  24.213  39.037   4.154
71185W        W37968  34.008  10.986   0.323
71186W        W37969  11.605   6.967   2.545
71187W        W37970  42.550  41.374  10.790
71188W        W37971  18.654   4.715  12.165
71189W        W37972  42.021  11.287  12.538
71190W        W37973   4.696   0.568  14.850
71191W        W37974  22.571  28.012   3.650
71192W        W37975  33.946  27.727   1.545
71193W        W37976  37.639  43.155   2.263
71194W        W37977  14.640  22.109   4.550
71195W        W37978  15.357  14.301  13.699
71196W        W37979   2.988   8.632  14.401
71197W        W37980  41.795  11.152  12.078
71198W        W37981  22.150   0.571  14.197
71199W        W37982  16.314  22.572  14.846
71200W        W37983  11.781  25.301  14.515
71201W        W37984  41.726  18.642   2.853
71202W        W37985  21.138  44.290   0.333
71203W        W37986  23.532  34.614  12.189
71204W        W37987  32.503  43.301  14.014
71205W        W37988  34.422  13.215   1.981
71206W        W37989  12.337  21.932  14.017
71207W        W37990  21.520  31.369  13.876
71208W        W37991  17.354  11.092  11.822
71209W        W37992  26.432  35.250   0.182
71210W        W37993   7.587  33.845   4.093
71211W        W37994  40.109  42.578  12.994
71212W        W37995  19.013  34.936   2.677
71213W        W37996  12.210   6.751  14.108
71214W        W37997   3.316  23.950  10.777
71215W        W37998   2.280  34.779  11.214
71216W        W37999  27.143  37.780   2.791
71217W        W38000  28.055  20.732  14.939
71218W        W38001  16.146   1.480   1.648
71219W        W38002   0.271  40.857   2.114
71220W        W38003   2.934   9.650   2.615
71221W        W38004  39.639  15.057   4.653
71222W        W38005  26.188  44.809   4.016
71223W        W38006  24.058  38.050  13.710
71224W        W38007   9.604  10.106   0.485
71225W        W38008   2.238  16.096  14.600
71226W        W38009  27.963  23.677   0.381
71227W        W38010  12.360   2.875  11.640
71228W        W38011  43.590  36.284   0.830
71229W        W38012  33.182   2.931  14.451
71230W        W38013   7.170  44.097  10.446
71231W        W38014  31.090  10.227  13.095
71232W        W38015   9.160  24.189   1.178
71233W        W38016  14.851   4.704  14.904
71234W        W38017  43.956   4.192   2.908
71235W        W38018   9.419  41.324   0.918
71236W        W38019  35.098  38.435  11.034
71237W        W38020  27.678  44.394   2.806
71238W        W38021  13.683   4.710  14.184
71239W        W38022   3.184  32.491  14.847
71240W        W38023  33.060  29.165   1.460
71241W        W38024  22.033  15.650  13.558
71242W        W38025  31.960   6.016   4.601
71243W        W38026   7.325  39.026   2.743
71244W        W38027  36.270  17.550  14.375
71245W        W38028  35.479   1.807   0.723
71246W        W38029  19.161  34.669   3.625
71247W        W38030  18.856  13.173  13.521
71248W        W38031  23.170  28.502   0.426
71249W        W38032  25.734  12.575   0.908
71250W        W38033   1.703  41.474   0.485
71251W        W38034  12.644  44.806  14.939
71252W        W38035   9.260  32.158  11.153
71253W        W38036  44.526  43.401  13.896
71254W        W38037  27.101   4.700  14.262
71255W        W38038  35.086  11.672   2.232
71256W        W38039  17.167   4.755   2.650
71257W        W38040  38.627   4.271   2.879
71258W        W38041  11.934   5.342   2.030
71259W        W38042  18.068  33.813  11.889
71260W        W38043  24.017   1.858   4.057
71261W        W38044   1.409  29.209  12.821
71262W        W38045  40.546  39.068  11.638
71263W        W38046   6.749   5.390   0.314
71264W        W38047   8.435   7.770  11.151
71265W        W38048  29.447  18.321   2.402
71266W        W38049  42.483  22.578  11.348
71267W        W38050  32.559  28.051  10.542
71268W        W38051  30.711  27.187  12.372
71269W        W38052  25.768  36.066  12.161
71270W        W38053   2.833   5.130  13.808
71271W        W38054  25.874  26.258   5.484
71272W        W38055   7.077  43.113   1.851
71273W        W38056  43.061  11.131  12.481
71274W        W38057   5.820  19.247  12.355
71275W        W38058  36.369  12.761  13.506
71276W        W38059  30.849  11.878  13.015
71277W        W38060  10.906   1.278  11.764
71278W        W38061  32.884  22.308   0.387
71279W        W38062  39.922  17.802  12.928
71280W        W38063   6.562  40.934  11.131
71281W        W38064   2.902  23.606  11.563
71282W        W38065  35.992  41.975  11.631
71283W        W38066  16.062  16.187  11.896
71284W        W38067  16.390  35.326   1.842
71285W        W38068  32.175   8.414   1.835
71286W        W38069  31.201  25.950   1.361
71287W        W38070  14.740   1.793   2.565
71288W        W38071  10.697  41.469   3.290
71289W        W38072  19.580   9.515   2.385
71290W        W38073  27.229  17.286  12.570
71291W        W38074  29.963  29.599  11.425
71292W        W38075  31.153  29.162  14.294
71293W        W38076  44.020   6.482   2.352
71294W        W38077   6.348   9.503   3.061
71295W        W38078  20.468   7.490  11.227
71296W        W38079  22.116  44.827   5.489
71297W        W38080  34.357  41.269  13.176
71298W        W38081  17.797  29.548  10.883
71299W        W38082  17.678   1.174   1.148
71300W        W38083  40.123  14.650  13.880
71301W        W38084  16.569   8.254  11.166
71302W        W38085  37.335  26.501   0.910
71303W        W38086  22.487  20.126   2.693
71304W        W38087   9.664  26.431   4.350
71305W        W38088  34.318   7.494   2.302
71306W        W38089  13.378  28.217   3.203
71307W        W38090   7.663   7.355   4.760
71308W        W38091  18.022  36.527   0.470
71309W        W38092  25.644  42.680  14.649
71310W        W38093  11.305  20.606  14.415
71311W        W38094  15.193   2.084   0.204
71312W        W38095  28.713  12.261   3.340
71313W        W38096   0.985  24.401   1.945
71314W        W38097  40.044  44.302   0.246
71315W        W38098  37.234  28.087  12.871
71316W        W38099  26.995  19.568   1.681
71317W        W38100  29.967  22.681   0.868
71318W        W38101  32.605  32.080   0.438
71319W        W38102   8.197  23.230   0.879
71320W        W38103  31.921  26.049   0.828
71321W        W38104  20.880  41.379   2.790
71322W        W38105  37.747  12.695  11.160
71323W        W38106  22.600  44.750   3.890
71324W        W38107  44.266  38.155   3.253
71325W        W38108  30.699  44.824  12.153
71326W        W38109   5.633  32.957   3.554
71327W        W38110  38.672   9.962  12.529
71328W        W38111  38.367  30.603   3.837
71329W        W38112  40.948  38.815   4.352
71330W        W38113  11.371  12.951  13.398
71331W        W38114   5.477  35.287  14.838
71332W        W38115   9.919  15.592   3.602
71333W        W38116  14.600  26.754   0.418
71334W        W38117   5.290  13.674   0.528
71335W        W38118  21.386  38.507   4.050
71336W        W38119   2.097  29.734   0.394
71337W        W38120  42.270   3.377   3.604
71338W        W38121   1.490  26.432  13.842
71339W        W38122  27.400  38.280   3.268
71340W        W38123   2.857  43.829   2.283
71341W        W38124  19.595  19.812  14.877
71342W        W38125   9.674  20.024  10.975
71343W        W38126  37.200   7.568   2.658
71344W        W38127  36.477  26.238  12.295
71345W        W38128  33.535  37.875  14.187
71346W        W38129   3.378  10.453   1.291
71347W        W38130  16.177  42.985   1.761
71348W        W38131   3.296   7.346  13.169
71349W        W38132  43.796  13.516  12.556
71350W        W38133   8.859  43.988   0.249
71351W        W38134  10.510  28.117   0.419
71352W        W38135  30.093  21.711  13.653
71353W        W38136  22.879  42.531   1.129
71354W        W38137   6.156  34.060   1.307
71355W        W38138   1.330  19.196  12.112
71356W        W38139  34.544  30.805   0.364
71357W        W38140  40.090  44.077   1.568
71358W        W38141  38.991  44.671  11.189
71359W        W38142  35.850  14.208  14.583
71360W        W38143   7.261  26.640   3.098
71361W        W38144  27.355  12.748  14.045
71362W        W38145  25.082  26.703  11.808
71363W        W38146  23.964  13.071   1.731
71364W        W38147  19.248  31.565  12.148
71365W        W38148  17.547  19.175   0.263
71366W        W38149  26.970  24.777   0.109
71367W        W38150  26.412  20.566   3.238
71368W        W38151  27.732  41.922   2.606
71369W        W38152  19.583   0.693   0.225
71370W        W38153  15.376  42.721  11.408
71371W        W38154  27.657  28.003  13.565
71372W        W38155  16.611  24.178  12.247
71373W        W38156  27.964  10.794  14.088
71374W        W38157  40.989   3.360   2.372
71375W        W38158  28.222  42.617   4.101
71376W        W38159   1.282  11.613  11.866
71377W        W38160  28.968   6.435   0.792
71378W        W38161   6.254  19.409  10.833
71379W        W38162  15.208  44.737  14.942
71380W        W38163  22.045   4.471  11.581
71381W        W38164  38.003   6.981   2.734
71382W        W38165   5.632  12.428  12.576
71383W        W38166  43.435  36.771  14.914
71384W        W38167   3.236  42.404  12.534
71385W        W38168  34.896   5.116  14.720
71386W        W38169  30.981   4.689   1.289
71387W        W38170   9.607  28.182   4.587
71388W        W38171  32.125   9.925  13.973
71389W        W38172  31.918  18.006   2.404
71390W        W38173  25.529  28.703  13.404
71391W        W38174  40.548  10.597  11.618
71392W        W38175  20.440  34.457   3.778
71393W        W38176  39.767   7.418   0.025
71394W        W38177  39.949  43.952   2.041
71395W        W38178  33.591   8.317   0.328
71396W        W38179  10.196  14.125  13.005
71397W        W38180  15.822  14.272   1.542
71398W        W38181  43.065  35.380   0.001
71399W        W38182  10.720   2.919   3.178
71400W        W38183  26.108  10.490  12.751
71401W        W38184  22.088  26.126   2.794
71402W        W38185  10.288  29.356   0.959
71403W        W38186   5.836   6.979   3.179
71404W        W38187   5.819  29.711  13.335
71405W        W38188  29.030  18.056   1.477
71406W        W38189  36.359  18.978  12.613
71407W        W38190  24.129  44.757  12.221
71408W        W38191  17.068  12.782  12.142
71409W        W38192  44.224  39.771   0.414
71410W        W38193  40.852  12.729   3.360
71411W        W38194  15.112  11.855  13.396
71412W        W38195   9.590  16.206  13.864
71413W        W38196  33.215   7.321  14.370
71414W        W38197  38.319  16.042   0.470
71415W        W38198  22.228  41.569  13.833
71416W        W38199  39.680  44.509   0.976
71417W        W38200  13.658   1.726  11.658
71418W        W38201  35.152  24.175   3.908
71419W        W38202  24.112   5.845  12.503
71420W        W38203  34.025  16.782   4.656
71421W        W38204  40.596   5.339  12.925
71422W        W38205  13.067   1.179   0.705
71423W        W38206  34.497  26.516   1.575
71424W        W38207   4.808  40.232   0.187
71425W        W38208   6.688  36.600   3.162
71426W        W38209  24.158  18.589  12.402
71427W        W38210  35.995   1.366  14.349
71428W        W38211  17.740  36.565  14.523
71429W        W38212  42.990   0.926   1.993
71430W        W38213   7.347  39.909   1.796
71431W        W38214  19.569  31.626  11.561
71432W        W38215  42.491  18.951   2.544
71433W        W38216  19.823   6.738   2.364
71434W        W38217  23.494  32.272   0.341
71435W        W38218  12.769  35.600  12.972
71436W        W38219  19.981  17.488   1.384
71437W        W38220   4.699  19.658   2.155
71438W        W38221   5.196  27.959  11.870
71439W        W38222   0.059  18.793  12.571
71440W        W38223  11.811  25.689  13.695
71441W        W38224  35.678   0.238  14.878
71442W        W38225  38.651   9.774   4.431
71443W        W38226  41.264  25.783   0.390
71444W        W38227   7.889   1.325   1.197
71445W        W38228  23.669  15.229   4.178
71446W        W38229  15.489  30.449   2.852
71447W        W38230  20.606  13.062   3.688
71448W        W38231  12.580  27.791   2.788
71449W        W38232  10.881  17.670  11.644
71450W        W38233  44.883  27.976   1.399
71451W        W38234  24.747  22.623   4.798
71452W        W38235  11.253  23.912  14.285
71453W        W38236  16.811  44.612   1.266
71454W        W38237   6.209  44.795  14.082
71455W        W38238  27.592  32.663  12.888
71456W        W38239   5.427  13.973  14.503
71457W        W38240  36.199  26.107  13.047
71458W        W38241  25.616   2.664  11.290
71459W        W38242  21.856  34.659  12.534
71460W        W38243  20.080  19.605   2.274
71461W        W38244  18.794  43.845   2.004
71462W        W38245  32.199  19.522   0.881
71463W        W38246  12.332  11.445  11.342
71464W        W38247  18.003  11.662   1.891
71465W        W38248  38.319  21.759   0.296
71466W        W38249  30.051  22.589  14.784
71467W        W38250  35.166  11.183  11.563
71468W        W38251  15.768  21.611  12.803
71469W        W38252  32.493  16.754  11.212
71470W        W38253  42.073  16.312   4.233
71471W        W38254  28.666  30.125  14.746
71472W        W38255  28.602  42.270   0.868
71473W        W38256  35.914  30.974   4.695
71474W        W38257  39.473  39.294  12.931
71475W        W38258   3.203  36.830  12.927
71476W        W38259  31.832  37.523  14.829
71477W        W38260  14.428  35.433   2.906
71478W        W38261  17.514   4.208   4.159
71479W        W38262   8.270  20.203   4.850
71480W        W38263   0.101  22.024   3.550
71481W        W38264  44.741   0.958   1.475
71482W        W38265  14.285  35.898   2.723
71483W        W38266  13.010   8.173  13.809
71484W        W38267  27.166  19.717   3.153
71485W        W38268  29.305  41.599   1.907
71486W        W38269  18.160  26.670   3.300
71487W        W38270  28.433  27.104   2.754
71488W        W38271  39.181  22.838  10.490
71489W        W38272  26.156  39.364  12.408
71490W        W38273   0.431   7.811   3.252
71491W        W38274  11.165  39.874   2.954
71492W        W38275  38.417  12.868   3.155
71493W        W38276  35.856  35.069   4.251
71494W        W38277  32.074  39.839   9.792
71495W        W38278   0.851  36.420   2.573
71496W        W38279  21.741  31.101  14.717
71497W        W38280  23.533  44.898  11.087
71498W        W38281  42.327   6.042   0.262
71499W        W38282  38.526  30.759   2.829
71500W        W38283  39.339  12.058  10.763
71501W        W38284  43.972  32.376   0.260
71502W        W38285   1.791  11.414  14.866
71503W        W38286  37.527  41.716   2.383
71504W        W38287   5.160  38.085  13.959
71505W        W38288  12.633   4.364  13.300
71506W        W38289  32.527  18.735   1.597
71507W        W38290  36.420  31.697   0.469
71508W        W38291  37.048  26.671   1.883
71509W        W38292  17.120  40.277  14.515
71510W        W38293  26.466  29.489  11.166
71511W        W38294   4.927  21.481  11.173
71512W        W38295  18.167  36.147  14.995
71513W        W38296  14.709  31.519   3.245
71514W        W38297  43.790  37.348   3.284
71515W        W38298  16.664  26.222  10.501
71516W        W38299  34.869  24.122   1.777
71517W        W38300   3.200  19.444   1.365
71518W        W38301  42.162   1.866   4.555
71519W        W38302  15.100  25.589  14.672
71520W        W38303   9.378  24.977  14.350
71521W        W38304   0.765  12.919  13.387
71522W        W38305  16.912  43.413  13.029
71523W        W38306   8.715  17.601   4.589
71524W        W38307  32.423   2.338   3.095
71525W        W38308  32.341  44.381   3.153
71526W        W38309   3.719  24.644   3.392
71527W        W38310  36.956  44.991   1.294
71528W        W38311  35.388  12.317  11.608
71529W        W38312   0.355  40.388   1.880
71530W        W38313  32.430  33.858  12.125
71531W        W38314  19.583   4.387  13.387
71532W        W38315  24.437  39.031  13.476
71533W        W38316  14.245  39.459   0.261
71534W        W38317  39.711   2.145   0.973
71535W        W38318  19.761   5.355  13.530
71536W        W38319  24.034  23.061   0.251
71537W        W38320  37.304  34.429  14.968
71538W        W38321  29.034  11.824   4.136
71539W        W38322  14.095  29.193   3.125
71540W        W38323   5.200  38.393  13.525
71541W        W38324   2.281   8.031   1.476
71542W        W38325   7.314  14.774   1.402
71543W        W38326  33.675  29.014   4.277
71544W        W38327  30.937   2.862  12.915
71545W        W38328  19.339  22.827   4.126
71546W        W38329  11.014  42.543  12.556
71547W        W38330   5.720  38.117   0.336
71548W        W38331  23.666  39.078   1.258
71549W        W38332  39.856  41.857  13.521
71550W        W38333  28.065  27.069   4.517
71551W        W38334  26.683  21.197   1.284
71552W        W38335  35.480  10.417   1.316
71553W        W38336  15.112   0.726  11.931
71554W        W38337  10.094   5.778   3.692
71555W        W38338   5.022  30.979   0.849
71556W        W38339  40.329   5.424  12.499
71557W        W38340  36.420  39.446   4.696
71558W        W38341  14.123  16.700  12.907
71559W        W38342   3.411  26.008  13.970
71560W        W38343   7.822  11.612  14.029
71561W        W38344  22.141  44.983   2.333
71562W        W38345  38.837  36.776  12.090
71563W        W38346  40.881  40.341   1.444
71564W        W38347  13.611  23.580   1.906
71565W        W38348  38.323  33.098  11.083
71566W        W38349  39.953   8.869   2.441
71567W        W38350  27.348   2.701   3.513
71568W        W38351  43.696  10.063   4.545
71569W        W38352  27.748  11.906   1.415
71570W        W38353  37.797  16.642  13.468
71571W        W38354  20.946  14.193   1.437
71572W        W38355  20.553  36.799   2.869
71573W        W38356   0.389  26.584  13.596
71574W        W38357  17.281  38.516  12.870
71575W        W38358   9.757   7.331   0.717
71576W        W38359  20.903  37.651  12.062
71577W        W38360  13.978  18.595  13.502
71578W        W38361  14.180  32.296   3.313
71579W        W38362  40.060  24.610  13.492
71580W        W38363   3.393  29.652  11.074
71581W        W38364  17.115  11.469   1.236
71582W        W38365   5.937  26.111  11.894
71583W        W38366   4.792  34.032   3.716
71584W        W38367  23.977  26.652  14.471
71585W        W38368  37.478  22.502  13.948
71586W        W38369  28.567  33.952  13.359
71587W        W38370  35.493  32.193   2.752
71588W        W38371  25.340  11.602   4.178
71589W        W38372  25.636  23.543  13.802
71590W        W38373  22.199  10.863  11.542
71591W        W38374  23.906  38.468  11.693
71592W        W38375  44.983  10.719  10.708
71593W        W38376  44.505  21.207   2.685
71594W        W38377  12.912  40.216   0.186
71595W        W38378  10.267  27.191  12.926
71596W        W38379  25.604   2.345  10.230
71597W        W38380  19.677  20.265   2.081
71598W        W38381  18.204  41.077  13.500
71599W        W38382  10.865  41.787   4.618
71600W        W38383  26.310   2.242  10.892
71601W        W38384  20.419  16.231  14.435
71602W        W38385  23.477  24.550   9.791
71603W        W38386  24.564  16.258   2.537
71604W        W38387  27.250  36.842  13.915
71605W        W38388  40.402  41.702  12.869
71606W        W38389  11.218  12.916  14.299
71607W        W38390   3.810  18.688  10.751
71608W        W38391   4.337  17.511   4.379
71609W        W38392  43.653  43.402  11.038
71610W        W38393  39.735  17.940   2.827
71611W        W38394  32.611   9.341  12.971
71612W        W38395   5.687  15.236   2.461
71613W        W38396  38.829   7.707  10.386
71614W        W38397  23.589  15.193   2.288
71615W        W38398  36.250   3.087   2.723
71616W        W38399  42.277  27.075   2.006
71617W        W38400  18.653   9.798   0.784
71618W        W38401   3.334  32.567   1.625
71619W        W38402  33.600  33.488  12.014
71620W        W38403   7.310  18.034  13.749
71621W        W38404   7.664  41.853   0.900
71622W        W38405   4.269   8.515  12.235
71623W        W38406  33.052  36.628   4.104
71624W        W38407  15.880  19.258  12.999
71625W        W38408  34.451  30.454  13.574
71626W        W38409   3.423   7.541   2.024
71627W        W38410  43.557  36.411   3.378
71628W        W38411  20.219  36.501  12.401
71629W        W38412  44.845   9.858   3.215
71630W        W38413  34.609  10.586   1.474
71631W        W38414  32.389   6.276   4.577
71632W        W38415  43.954  11.871  11.513
71633W        W38416  22.831  34.442  12.847
71634W        W38417   8.878  33.508   0.037
71635W        W38418  14.380   0.033  13.796
71636W        W38419  25.098  23.524  11.585
71637W        W38420   1.777  40.538   2.266
71638W        W38421   5.437  26.968   0.751
71639W        W38422  32.609  11.104   4.374
71640W        W38423  37.472  31.369   1.826
71641W        W38424  24.938  25.524   3.929
71642W        W38425  38.558  21.649   4.469
71643W        W38426  14.551  34.913  11.212
71644W        W38427  36.523  15.586  13.061
71645W        W38428  36.416  40.052   4.819
71646W        W38429  27.954  19.157  13.048
71647W        W38430   9.177  34.789  14.789
71648W        W38431   8.418  16.268   4.800
71649W        W38432  14.588  20.113   0.050
71650W        W38433  35.531  42.869   3.309
71651W        W38434  34.109   9.664  12.591
71652W        W38435  32.640  11.790   4.053
71653W        W38436  31.082   5.683   2.881
71654W        W38437   3.779  16.212  12.435
71655W        W38438  23.127  30.213   2.062
71656W        W38439  30.699  43.721   2.792
71657W        W38440  43.309  25.082   0.316
71658W        W38441  36.175  35.481   4.149
71659W        W38442  38.949  34.666  13.560
71660W        W38443   6.831   4.863  13.321
71661W        W38444  38.551   3.743   2.743
71662W        W38445  37.862  17.044   3.552
71663W        W38446  38.768  19.894   4.857
71664W        W38447   5.142  15.636  11.667
71665W        W38448   8.870  24.141  14.734
71666W        W38449  23.451  14.262   3.761
71667W        W38450  19.602  19.152   0.378
71668W        W38451  39.840  17.264  14.007
71669W        W38452  27.630  20.168  14.402
71670W        W38453   7.284  28.955   4.143
71671W        W38454  31.602  37.389  13.802
71672W        W38455   3.514  12.671  13.013
71673W        W38456  31.251  42.377  11.452
71674W        W38457   3.816   2.834  13.055
71675W        W38458  17.093  31.436   3.688
71676W        W38459  39.773  13.490   5.016
71677W        W38460  35.575  31.804  11.922
71678W        W38461  20.881  27.211  13.552
71679W        W38462  15.090  39.527  12.895
71680W        W38463   6.888  37.813   3.956
71681W        W38464  40.808  41.410   2.466
71682W        W38465  38.232  27.966  12.915
71683W        W38466   6.741  28.966   4.178
71684W        W38467   0.860  15.509  10.635
71685W        W38468   1.520   3.509  14.319
71686W        W38469  44.495   2.270   1.950
71687W        W38470  21.704  13.714  10.746
71688W        W38471  11.037  13.113   3.749
71689W        W38472  28.284   2.364   1.244
71690W        W38473   1.576  15.734   5.059
71691W        W38474  10.099   3.672   3.666
71692W        W38475   6.621  22.435   3.794
71693W        W38476  34.038  19.251  14.407
71694W        W38477  20.669  21.748   1.729
71695W        W38478  15.342  35.629   4.131
71696W        W38479  19.672  26.284   1.534
71697W        W38480  12.698  22.836   2.012
71698W        W38481  30.135   1.313   0.002
71699W        W38482  37.874  21.540   1.059
71700W        W38483  25.094  16.632  14.979
71701W        W38484  28.677  18.486  12.820
71702W        W38485  25.682  44.162   2.236
71703W        W38486  38.581   2.273  14.837
71704W        W38487  41.961   6.918  11.184
71705W        W38488   0.564  23.662   0.701
71706W        W38489  15.189  24.117  12.348
71707W        W38490  30.176   1.255  14.049
71708W        W38491  16.975   5.855   1.092
71709W        W38492  20.748  32.410  11.163
71710W        W38493  30.635   5.402   0.801
71711W        W38494  38.445  42.048   3.337
71712W        W38495  29.198  25.477  14.888
71713W        W38496  19.199  34.451   4.598
71714W        W38497   3.892   4.899  11.024
71715W        W38498  11.377   5.884  12.010
71716W        W38499   1.811  15.116  12.034
71717W        W38500  21.298  28.636   1.331
71718W        W38501  25.032  34.144   2.625
71719W        W38502  30.885  34.399  12.473
71720W        W38503   5.641  41.852   4.082
71721W        W38504  24.988  24.685  12.398
71722W        W38505   5.773  39.995   2.014
71723W        W38506   7.791  25.949  11.605
71724W        W38507   8.955   2.643   0.422
71725W        W38508  18.372   6.277   4.335
71726W        W38509  15.252  13.773   3.234
71727W        W38510   3.741   1.047  12.029
71728W        W38511  38.548  25.764  12.139
71729W        W38512  19.592  24.315   4.159
71730W        W38513  16.647  19.199  10.386
71731W        W38514  19.598   3.374   1.155
71732W        W38515  13.875  15.844  14.205
71733W        W38516   5.434  20.754  14.741
71734W        W38517  42.952   9.923  10.789
71735W        W38518  36.191   1.989   1.057
71736W        W38519  26.887  24.733  12.776
71737W        W38520  36.826  34.512  12.755
71738W        W38521  39.333  24.631   1.223
71739W        W38522  26.137   0.185   1.683
71740W        W38523  22.026   5.672   1.237
71741W        W38524  15.950  21.604  14.545
71742W        W38525  23.259   7.423   2.145
71743W        W38526  29.184  37.218  11.633
71744W        W38527  25.682  43.524  10.647
71745W        W38528  23.569  13.120   0.361
71746W        W38529   0.961  13.351  14.554
71747W        W38530  14.523  43.899  11.577
71748W        W38531  18.164  25.993  12.140
71749W        W38532  40.321  25.542   4.367
71750W        W38533   5.748  19.569  10.651
71751W        W38534  19.759  27.546   3.107
71752W        W38535   6.333  39.850  13.822
71753W        W38536  35.196   5.437  10.411
71754W        W38537  10.278  21.864   4.091
71755W        W38538  41.294  29.207  11.251
71756W        W38539   1.216   7.342  11.138
71757W        W38540  32.975  31.490  12.547
71758W        W38541   1.760  35.932   3.323
71759W        W38542   2.929  18.104  14.055
71760W        W38543  36.936  38.665   3.290
71761W        W38544  14.601  44.698  13.387
71762W        W38545  22.119   7.748   0.309
71763W        W38546  21.529  27.039  12.473
71764W        W38547  44.113  43.537   1.250
71765W        W38548  15.805  38.509   0.956
71766W        W38549  12.406   4.263  13.758
71767W        W38550  29.522  16.187   3.319
71768W        W38551  16.189   3.529  12.166
71769W        W38552  41.798  22.677  11.147
71770W        W38553   3.382  25.802   1.652
71771W        W38554  27.111  43.482   2.244
71772W        W38555  24.015  28.128   4.077
71773W        W38556  12.095  39.065  13.811
71774W        W38557   5.996  31.656  11.130
71775W        W38558  16.146   2.664   4.806
71776W        W38559   5.772  26.882   1.516
71777W        W38560  44.934  14.632   1.178
71778W        W38561   1.318  34.302  11.073
71779W        W38562  26.983  43.166  13.418
71780W        W38563  33.984   7.717  14.754
71781W        W38564  41.752  41.372  13.496
71782W        W38565  44.284  41.954  13.341
71783W        W38566   5.820  24.222   3.115
71784W        W38567   0.536  20.469  12.925
71785W        W38568  23.639  22.955   9.821
71786W        W38569  22.060   1.261   1.817
71787W        W38570  17.845  12.844  13.583
71788W        W38571  33.147  15.718   3.760
71789W        W38572   3.677  36.152   3.165
71790W        W38573  16.212   9.403   1.386
71791W        W38574  31.230  32.570  12.061
71792W        W38575  32.624  21.266  12.197
71793W        W38576  28.144  35.341   4.928
71794W        W38577  17.047  13.295   1.929
71795W        W38578  10.349  17.707  10.322
71796W        W38579  37.067   0.414  13.906
71797W        W38580  30.955   2.260   4.124
71798W        W38581   2.734  16.300  11.899
71799W        W38582  12.398  38.061  13.336
71800W        W38583   0.530  43.852   4.041
71801W        W38584   5.777  36.498  13.171
71802W        W38585  13.923  38.261   4.298
71803W        W38586   3.398  41.555   9.885
71804W        W38587   4.502  31.058   0.810
71805W        W38588  25.050  37.236  10.125
71806W        W38589  16.386  30.375  13.945
71807W        W38590  19.206  12.225   0.857
71808W        W38591  38.974  28.798  11.665
71809W        W38592  11.915  30.245  11.174
71810W        W38593  37.631  18.696  11.629
71811W        W38594  31.343  39.215  12.009
71812W        W38595  40.273   5.789  12.901
71813W        W38596  13.543  13.281  10.708
71814W        W38597  28.663  16.828   0.705
71815W        W38598  33.113  21.138  11.558
71816W        W38599   5.543  29.197  13.916
71817W        W38600  42.473  13.303  14.667
71818W        W38601  10.319  20.170   4.583
71819W        W38602  44.893   7.377   0.881
71820W        W38603   9.119  26.612   2.657
71821W        W38604  39.055  12.202   0.762
71822W        W38605  33.542  37.430  12.092
71823W        W38606  19.458  35.311  14.841
71824W        W38607  42.388  36.590  13.568
71825W        W38608  31.137  42.241  14.890
71826W        W38609   9.030  39.158  13.872
71827W        W38610  35.134  12.635  12.570
71828W        W38611   5.752   0.961  14.993
71829W        W38612  41.131  38.266   3.478
71830W        W38613  41.459   2.603   2.946
71831W        W38614  28.663  22.130   0.553
71832W        W38615  25.897  34.343  13.007
71833W        W38616  44.321  21.270   4.825
71834W        W38617  33.579   2.612   3.638
71835W        W38618   9.639  15.675   1.777
71836W        W38619  27.979  31.844  14.045
71837W        W38620  40.309  39.024  14.550
71838W        W38621  16.684  33.959   0.581
71839W        W38622  34.590  17.473   4.561
71840W        W38623  27.802  31.028   4.938
71841W        W38624  12.888  22.693   4.897
71842W        W38625   0.350  29.149   2.305
71843W        W38626   8.278   1.481  11.537
71844W        W38627  26.207  15.140   1.435
71845W        W38628  27.939  24.294   2.415
71846W        W38629   7.389  14.373  11.395
71847W        W38630  37.960  22.553  12.883
71848W        W38631  28.633  14.533   0.990
71849W        W38632  23.680  35.556   2.310
71850W        W38633  39.584   3.041  13.945
71851W        W38634  37.458  28.617  12.209
71852W        W38635  37.467   7.284   1.037
71853W        W38636  15.280  18.317  12.849
71854W        W38637  43.158  13.697   1.778
71855W        W38638  15.477  12.139   4.460
71856W        W38639  14.712  16.102  13.654
71857W        W38640  31.587  31.542   1.278
71858W        W38641   6.348   6.803   4.902
71859W        W38642   0.977  27.071  10.865
71860W        W38643  43.479  23.438  12.487
71861W        W38644  33.354  15.231   3.152
71862W        W38645  19.351  14.845  14.744
71863W        W38646  19.260  18.313   1.611
71864W        W38647   6.623  36.364  14.090
71865W        W38648  21.648  26.593   4.036
71866W        W38649  44.461  31.626   2.983
71867W        W38650  33.238  30.782  14.835
71868W        W38651  24.346  38.671  12.995
71869W        W38652  43.852   8.709   1.753
71870W        W38653  19.053  17.372   1.807
71871W        W38654   3.856  24.162   0.047
71872W        W38655   3.225  18.745   0.255
71873W        W38656  42.811  31.357   1.794
71874W        W38657  17.833  40.568   3.265
71875W        W38658  40.866   8.819  14.992
71876W        W38659   7.692  27.924   4.541
71877W        W38660  20.230  25.678   0.864
71878W        W38661  29.386  13.139   1.028
71879W        W38662   1.544  42.799   2.248
71880W        W38663  11.821  38.789  14.598
71881W        W38664  37.033  26.927  11.931
71882W        W38665  33.047   1.868   0.936
71883W        W38666  21.228  29.047  13.535
71884W        W38667  37.530   4.672  13.061
71885W        W38668  12.449  40.009   2.193
71886W        W38669   3.690  38.867  14.998
71887W        W38670   8.836  41.813  13.366
71888W        W38671  28.051  11.383  13.387
71889W        W38672  33.546  24.272   3.237
71890W        W38673  36.279  29.925   3.215
71891W        W38674   0.954  15.952  14.416
71892W        W38675  30.708  39.808   1.522
71893W        W38676  32.032  43.013   3.573
71894W        W38677   1.474  43.836  13.312
71895W        W38678  12.365   9.673   1.005
71896W        W38679  22.954  22.409  12.150
71897W        W38680  13.888   9.225  12.183
71898W        W38681   4.862  35.757  14.879
71899W        W38682  20.394  44.591   4.600
71900W        W38683  25.026  11.004  12.953
71901W        W38684  17.156  38.607  11.896
71902W        W38685  11.345  34.373  14.490
71903W        W38686   6.997  30.232   1.168
71904W        W38687  44.727  28.441  14.828
71905W        W38688   2.541  14.616  14.796
71906W        W38689  29.214  43.524  13.925
71907W        W38690  32.485  35.187   3.837
71908W        W38691  39.925  15.356  11.636
71909W        W38692  15.317  34.682  13.034
71910W        W38693  38.186  19.212   1.175
71911W        W38694  39.515  21.543  13.062
71912W        W38695  44.083  43.058  14.946
71913W        W38696  34.826  31.060   4.058
71914W        W38697  28.475   2.525   3.694
71915W        W38698  13.087  18.585  14.419
71916W        W38699  18.231  19.399  11.056
71917W        W38700  41.028  12.879   9.854
71918W        W38701  15.967  42.555   1.533
71919W        W38702  33.942  24.676   1.476
71920W        W38703  34.873  18.731   3.658
71921W        W38704  23.818   1.787  14.055
71922W        W38705  17.555  15.721  13.396
71923W        W38706   2.099   3.700  11.827
71924W        W38707  33.150  37.448  12.998
71925W        W38708  11.261  18.872  11.715
71926W        W38709  20.472  35.073  13.303
71927W        W38710  41.893  11.596  14.384
71928W        W38711  10.646  35.518  13.482
71929W        W38712  43.646  26.737   4.393
71930W        W38713  39.376  31.354  10.422
71931W        W38714  24.055  15.821   1.831
71932W        W38715  41.440  36.957   3.111
71933W        W38716   3.268  31.524   1.721
71934W        W38717   6.325  40.220   3.145
71935W        W38718  12.108  15.212   0.768
71936W        W38719  13.330  22.673   1.204
71937W        W38720  43.400   4.763  13.181
71938W        W38721  39.295  42.094  12.758
71939W        W38722   1.533  32.827   0.677
71940W        W38723  11.768   4.536   0.947
71941W        W38724  17.282  33.909   4.516
71942W        W38725   8.632   2.964   0.686
71943W        W38726  44.479  40.775   2.619
71944W        W38727   3.214  17.020  14.333
71945W        W38728  23.053   7.965   1.295
71946W        W38729   4.382  29.739   4.105
71947W        W38730  20.654  42.146   4.898
71948W        W38731  35.086   6.850  11.756
71949W        W38732  22.986  44.823   5.045
71950W        W38733  37.858  32.852   0.966
71951W        W38734  27.616  26.976  12.375
71952W        W38735  23.614  41.403  14.497
71953W        W38736  20.804  31.583  13.456
71954W        W38737  39.049  26.174  14.985
71955W        W38738  10.745  19.811  12.142
71956W        W38739  26.034  12.864   2.203
71957W        W38740  27.995  15.846   3.386
71958W        W38741  43.095  33.585   4.203
71959W        W38742  10.271   0.855  14.953
71960W        W38743  38.860  42.363   3.214
71961W        W38744   3.680   2.349   0.441
71962W        W38745  39.261  21.812   1.766
71963W        W38746  10.372  25.030  10.227
71964W        W38747  31.514  22.657   2.367
71965W        W38748   7.607  21.751   0.327
71966W        W38749  32.623  27.703  11.961
71967W        W38750  19.168  14.400   0.032
71968W        W38751  34.395   9.002  11.254
71969W        W38752  31.355   3.876   2.908
71970W        W38753  19.638  41.756  10.757
71971W        W38754  25.823  15.110  12.628
71972W        W38755  30.836  42.444  10.444
71973W        W38756  25.010   6.479   4.881
71974W        W38757  38.882  30.489   3.097
71975W        W38758  15.303  12.447   1.925
71976W        W38759   9.490  14.754  11.239
71977W        W38760  24.958  26.523   1.355
71978W        W38761  39.420  33.522   4.903
71979W        W38762   7.645   7.151   2.836
71980W        W38763  10.269  17.559  11.852
71981W        W38764   3.929   6.142   2.631
71982W        W38765  15.899   4.876   3.775
71983W        W38766  32.206  42.445  10.985
71984W        W38767  29.087  17.154   0.835
71985W        W38768  23.054  11.193   3.914
71986W        W38769  33.961  40.240   4.292
71987W        W38770   9.645  11.653   1.776
71988W        W38771  19.759  17.325  12.965
71989W        W38772   3.990  33.406  14.138
71990W        W38773  40.882  30.652  13.417
71991W        W38774  18.934  30.183  12.573
71992W        W38775  33.509  33.339  12.885
71993W        W38776  12.058  20.597  11.337
71994W        W38777  25.999  14.766   0.429
71995W        W38778  24.977   5.820   1.032
71996W        W38779  40.635  33.529   3.300
71997W        W38780  43.025  16.099   3.007
71998W        W38781  35.087   4.125  13.469
71999W        W38782  22.562  36.030  13.536
72000W        W38783  31.394  27.036  12.998
72001W        W38784  26.150   9.787   1.664
72002W        W38785  10.718  24.515  11.378
72003W        W38786  32.177  13.127   0.432
72004W        W38787   0.058  11.848   2.642
72005W        W38788  44.390  38.786  12.435
72006W        W38789  42.552  21.133   0.802
72007W        W38790  30.428   3.319  14.987
72008W        W38791   8.575  40.828  14.191
72009W        W38792  38.844  22.706  13.915
72010W        W38793  13.531   3.370   1.877
72011W        W38794  40.645  36.488   4.120
72012W        W38795  36.444  43.605  13.908
72013W        W38796  31.081  16.830  14.498
72014W        W38797  19.164   9.586  11.050
72015W        W38798  32.492  12.848  14.013
72016W        W38799   7.353  21.338   3.508
72017W        W38800  26.612  17.171   1.959
72018W        W38801  40.860  12.382  13.429
72019W        W38802   2.290  21.229  10.786
72020W        W38803  33.018  40.068  13.337
72021W        W38804   6.515   7.688   3.199
72022W        W38805  44.577  34.468   3.108
72023W        W38806  15.457  18.570  14.274
72024W        W38807  24.921  19.098  11.901
72025W        W38808  23.232  24.562  10.243
72026W        W38809  17.223   8.874  13.218
72027W        W38810  31.535  24.009   2.763
72028W        W38811  18.212  19.153   4.417
72029W        W38812   6.476  32.120  12.580
72030W        W38813  41.643   6.436  10.543
72031W        W38814   0.874  22.751   0.318
72032W        W38815  42.772  23.561  13.485
72033W        W38816   0.525  35.709   4.051
72034W        W38817  41.105  25.089   1.604
72035W        W38818   1.215  44.213   2.820
72036W        W38819  16.678  14.557  11.126
72037W        W38820  16.085  27.871  12.109
72038W        W38821  29.566   4.962   4.628
72039W        W38822  37.652   9.965  11.114
72040W        W38823  25.155  24.937  14.615
72041W        W38824   1.814  22.885   0.284
72042W        W38825  27.109  15.388  13.467
72043W        W38826   8.668  29.409  14.761
72044W        W38827  34.762   9.260  11.511
72045W        W38828  44.290  27.138  11.851
72046W        W38829  14.339  42.807   2.597
72047W        W38830  31.149  38.436  12.886
72048W        W38831   6.665  18.342   2.106
72049W        W38832  30.938  12.871   4.767
72050W        W38833   3.166  18.674  12.468
72051W        W38834  26.259  14.176   4.147
72052W        W38835  28.679  16.273  10.724
72053W        W38836  36.223  43.433  13.463
72054W        W38837  35.188  30.096   2.010
72055W        W38838  35.582  42.985   2.254
72056W        W38839   8.114  33.325   0.714
72057W        W38840  12.803  23.114  10.454
72058W        W38841  27.374   7.692   2.199
72059W        W38842  40.408  10.426   0.886
72060W        W38843  29.229  34.004   4.498
72061W        W38844  20.514  13.973   3.675
72062W        W38845   0.558  22.187  12.642
72063W        W38846  39.430  32.297   2.417
72064W        W38847  13.309  17.612  11.629
72065W        W38848  10.163   3.709   4.511
72066W        W38849  28.620  17.090  12.452
72067W        W38850  34.176  30.071   1.596
72068W        W38851  41.541   8.206  11.808
72069W        W38852  22.796  23.571  11.063
72070W        W38853   2.990   7.182   3.242
72071W        W38854  22.983  44.704  12.462
72072W        W38855  41.976   3.878  14.955
72073W        W38856   7.717   4.978   2.583
72074W        W38857   9.553   5.788  12.463
72075W        W38858  22.727  34.626   3.262
72076W        W38859   7.267  38.807   4.575
72077W        W38860  43.366  19.598  14.561
72078W        W38861  20.152   9.488  12.927
72079W        W38862   8.199  23.008   4.575
72080W        W38863  37.325  40.693   2.321
72081W        W38864  19.590   6.569  12.010
72082W        W38865  35.252  34.679   4.844
72083W        W38866  17.146  30.388  10.646
72084W        W38867  21.683  27.489  12.214
72085W        W38868   8.722  37.488   2.827
72086W        W38869  20.931   4.736   4.040
72087W        W38870  13.215  17.303   0.789
72088W        W38871  15.286   3.271   2.691
72089W        W38872  28.196  31.327   1.237
72090W        W38873  34.006   1.791  11.736
72091W        W38874  36.155  38.612   4.087
72092W        W38875  37.557  28.926   3.885
72093W        W38876  24.478  39.923  12.397
72094W        W38877  18.482  14.193  12.545
72095W        W38878  40.580  36.490   1.001
72096W        W38879   3.483  20.735   0.999
72097W        W38880  38.291  34.331  14.788
72098W        W38881  29.418  27.582   1.729
72099W        W38882  27.587  32.440   4.667
72100W        W38883  17.752  12.659   4.892
72101W        W38884  19.798  32.980   3.153
72102W        W38885  44.299  25.150   1.298
72103W        W38886  11.371  27.926   0.402
72104W        W38887   5.154  34.526   0.193
72105W        W38888  29.174  19.617   4.431
72106W        W38889   5.307  16.037   2.101
72107W        W38890  25.935  20.563   4.101
72108W        W38891  11.391  16.681   3.633
72109W        W38892  37.334  25.281  12.859
72110W        W38893  12.883   8.555   2.771
72111W        W38894   3.691  35.943  13.272
72112W        W38895  44.438  18.308  10.938
72113W        W38896  10.162  30.348   1.317
72114W        W38897  19.722   9.308   3.828
72115W        W38898   7.733   0.339  13.462
72116W        W38899  14.630  41.524  11.641
72117W        W38900   6.743   6.880  11.669
72118W        W38901  28.112   7.364  13.390
72119W        W38902  10.420  40.879  13.025
72120W        W38903  28.575  43.231   3.500
72121W        W38904   9.854  28.584  11.995
72122W        W38905  31.664   7.842  12.018
72123W        W38906   6.153  35.035  11.095
72124W        W38907  39.903  16.861   4.741
72125W        W38908  16.360  15.649  14.944
72126W        W38909  27.653  31.455   2.329
72127W        W38910   6.387  32.148   0.704
72128W        W38911  31.055   5.346  11.081
72129W        W38912  35.527   4.628  14.527
72130W        W38913   4.739  30.125  12.112
72131W        W38914   9.806  21.158   3.104
72132W        W38915  44.962  30.445  10.688
72133W        W38916   5.483  36.967   4.127
72134W        W38917  42.189  12.293  11.128
72135W        W38918   5.689  12.499   3.273
72136W        W38919  22.460  15.003  14.573
72137W        W38920  15.295   1.478   3.645
72138W        W38921  30.005   5.751  11.002
72139W        W38922  33.900   5.309  13.883
72140W        W38923  19.374   3.232  11.945
72141W        W38924  30.791  32.516   4.637
72142W        W38925  41.381  42.350   2.268
72143W        W38926  15.313  32.415  13.383
72144W        W38927  26.724  18.281  14.229
72145W        W38928  22.686  36.004  14.476
72146W        W38929  36.511   1.810  10.568
72147W        W38930   0.194  30.476   3.927
72148W        W38931  36.513  32.698   0.810
72149W        W38932   8.883  22.779  14.542
72150W        W38933   7.555   7.704  11.242
72151W        W38934  26.928   3.041   4.865
72152W        W38935  12.903   9.232  11.213
72153W        W38936   2.286   1.359   1.681
72154W        W38937  15.554  35.641  12.555
72155W        W38938  40.339  28.211  13.811
72156W        W38939  44.305  24.637   2.967
72157W        W38940  31.437  18.176  11.974
72158W        W38941   3.264  27.418   0.091
72159W        W38942  32.918   9.071   3.579
72160W        W38943  23.794  42.614   0.667
72161W        W38944   0.267   4.892   2.332
72162W        W38945  44.915  40.390  11.302
72163W        W38946  39.371  37.466  10.977
72164W        W38947  26.975  36.054   1.986
72165W        W38948  24.650  38.133  14.368
72166W        W38949  19.184  13.561  14.282
72167W        W38950  11.564  22.535  11.670
72168W        W38951  16.197   4.376   1.817
72169W        W38952  22.025  39.847   0.789
72170W        W38953  16.836  10.875   2.762
72171W        W38954  18.058  28.871  14.835
72172W        W38955  13.291  16.647  13.902
72173W        W38956  28.210   0.161  13.840
72174W        W38957  11.944  13.402   3.605
72175W        W38958  25.570  31.681   1.907
72176W        W38959  24.547  30.720  11.401
72177W        W38960   4.653  40.192  13.862
72178W        W38961  25.759   4.424  14.875
72179W        W38962  38.825  43.030  13.859
72180W        W38963  15.149   9.873  11.205
72181W        W38964  25.676  22.299   0.890
72182W        W38965  17.206   5.651  13.788
72183W        W38966  41.351  15.847  12.300
72184W        W38967  31.835  37.163  12.482
72185W        W38968  18.201  41.898  13.934
72186W        W38969  23.156  26.641   2.117
72187W        W38970  23.602  22.795   0.353
72188W        W38971   7.814  30.832   3.164
72189W        W38972  28.252   3.751   1.634
72190W        W38973   1.936  26.101   2.738
72191W        W38974  37.676  37.111   1.717
72192W        W38975  36.468  39.307   0.406
72193W        W38976  24.107  18.835   3.404
72194W        W38977  18.333  11.221  14.718
72195W        W38978  32.898  24.253  13.917
72196W        W38979  16.336   4.545  12.044
72197W        W38980  19.520   5.698  12.958
72198W        W38981  20.790  39.996   3.493
72199W        W38982   1.355  24.608  11.264
72200W        W38983  38.963  31.029  10.681
72201W        W38984  33.893   8.752   0.298
72202W        W38985  42.532  21.884   0.778
72203W        W38986   7.408  39.033   4.141
72204W        W38987  44.587  11.753   4.516
72205W        W38988  34.926  42.209   0.374
72206W        W38989  39.478  34.480   2.278
72207W        W38990  12.952   4.050   3.335
72208W        W38991  33.887   1.900   2.260
72209W        W38992  31.094  37.913  10.793
72210W        W38993  12.054  19.108   0.317
72211W        W38994  15.296  30.094  13.248
72212W        W38995  15.568  13.648  14.413
72213W        W38996  28.533  35.559   1.820
72214W        W38997  19.891  28.464  13.048
72215W        W38998  33.710  29.219   0.216
72216W        W38999   2.119  15.311   3.632
72217W        W39000  16.338   2.995  12.370
72218W        W39001  35.282  13.318  12.837
72219W        W39002  24.215   6.305   1.129
72220W        W39003  17.688  37.052   3.315
72221W        W39004  14.573  33.698  10.539
72222W        W39005  35.621   3.947   1.736
72223W        W39006  21.019   9.767   0.482
72224W        W39007  14.410  18.682  13.749
72225W        W39008  38.596  19.219  11.964
72226W        W39009  25.097  38.792   4.089
72227W        W39010  32.851  18.502   0.767
72228W        W39011  11.471  29.024   0.992
72229W        W39012   0.548  15.898  10.737
72230W        W39013  38.827  21.984   0.863
72231W        W39014  23.043  32.084   0.987
72232W        W39015  26.277  39.898   4.253
72233W        W39016  15.541  39.987   1.362
72234W        W39017  22.445  24.963   1.535
72235W        W39018   1.431   8.580  12.883
72236W        W39019   6.597  21.362  14.464
72237W        W39020   8.318  27.662  10.729
72238W        W39021  34.175  33.346  14.855
72239W        W39022   7.672  39.483   2.392
72240W        W39023  32.839  24.526   3.696
72241W        W39024  10.117  30.348   1.865
72242W        W39025  22.062   0.976   4.047
72243W        W39026   1.200  14.163  12.030
72244W        W39027   0.960  33.593   1.780
72245W        W39028  41.746  25.222  13.277
72246W        W39029  40.906  12.440   4.364
72247W        W39030  10.137  12.139   0.260
72248W        W39031  25.291   8.716   4.115
72249W        W39032   6.909  42.849   3.757
72250W        W39033  32.534   5.772  13.435
72251W        W39034  42.405  31.622   4.101
72252W        W39035  21.495  13.719  14.700
72253W        W39036  11.752  21.091  12.521
72254W        W39037  18.071  38.348   3.683
72255W        W39038  11.215   3.232  11.359
72256W        W39039  11.571  42.337  14.986
72257W        W39040   0.165  35.648  12.834
72258W        W39041  29.139  12.090   1.345
72259W        W39042  20.614  39.083   4.252
72260W        W39043   1.924  33.223  11.674
72261W        W39044  11.797  27.127   1.987
72262W        W39045  34.129  34.846   0.674
72263W        W39046  11.180   3.921   4.587
72264W        W39047  24.754  19.673   4.982
72265W        W39048  19.630  29.768   3.346
72266W        W39049   3.242  24.767   1.776
72267W        W39050  10.826   2.831   0.165
72268W        W39051  12.847  21.781  13.549
72269W        W39052  13.351   8.273  12.432
72270W        W39053  31.965  39.369  14.903
72271W        W39054  35.329   4.298  11.506
72272W        W39055  19.085  38.977   3.188
72273W        W39056  38.117  41.971  14.982
72274W        W39057   4.845  24.120  10.737
72275W        W39058  11.369  38.523   2.707
72276W        W39059  43.317  42.890  12.210
72277W        W39060  13.023  28.535  14.943
72278W        W39061  15.087   1.938   3.883
72279W        W39062   1.635  15.126   0.405
72280W        W39063  22.608  26.520  12.839
72281W        W39064  16.326  27.023   4.342
72282W        W39065  11.716  36.796  11.235
72283W        W39066   8.026   0.701  10.913
72284W        W39067  15.591  22.759  14.119
72285W        W39068  23.538  39.788  12.374
72286W        W39069  15.538  26.392   2.862
72287W        W39070  30.373  30.914   5.062
72288W        W39071  15.186  24.012   1.823
72289W        W39072  36.559  23.445   9.828
72290W        W39073  16.663  19.591  14.843
72291W        W39074  38.730  42.486   2.598
72292W        W39075  11.695   7.333  14.483
72293W        W39076  12.331  35.304   2.589
72294W        W39077  25.683   3.214   3.177
72295W        W39078   9.139  12.111  14.259
72296W        W39079  18.205  16.399   1.096
72297W        W39080  28.080  34.429   2.729
72298W        W39081  17.143  36.924   0.013
72299W        W39082  34.358  30.543  12.137
72300W        W39083  10.640  43.876   2.332
72301W        W39084  35.487   3.258  13.382
72302W        W39085  32.531   4.407  13.031
72303W        W39086  25.357   1.481   4.708
72304W        W39087  24.275  24.579   5.076
72305W        W39088  19.002   5.215  13.517
72306W        W39089  44.560  27.439   3.069
72307W        W39090  15.609  22.849   0.936
72308W        W39091  34.187  39.767  11.211
72309W        W39092  13.746  17.628  10.887
72310W        W39093  37.360  10.345  13.269
72311W        W39094  42.324  43.475  14.914
72312W        W39095  29.638  26.426  13.196
72313W        W39096  30.699  22.739   4.257
72314W        W39097  12.846  21.190  11.507
72315W        W39098  15.041  21.747   0.430
72316W        W39099  11.404  37.067   5.554
72317W        W39100  14.567  23.202   2.057
72318W        W39101  35.090  14.785   4.474
72319W        W39102  34.101  11.790  14.910
72320W        W39103   5.274  28.624   4.302
72321W        W39104   6.959  36.504   2.728
72322W        W39105  42.163  18.578  13.958
72323W        W39106  36.082  28.916   0.491
72324W        W39107  40.649  25.292  10.094
72325W        W39108  40.305  43.417   0.843
72326W        W39109  13.692  25.653   0.706
72327W        W39110  10.269  15.265   4.632
72328W        W39111  21.456  36.983  12.069
72329W        W39112  21.571  11.899   0.330
72330W        W39113  18.633  30.939  14.960
72331W        W39114  34.352   2.458   1.149
72332W        W39115  36.632  31.618   1.765
72333W        W39116   0.488  12.324  14.470
72334W        W39117  37.027  30.145   2.347
72335W        W39118  41.864  11.043  12.992
72336W        W39119  38.293  37.246  14.975
72337W        W39120  10.677  10.854   2.797
72338W        W39121  18.510  44.655   2.316
72339W        W39122  33.463  43.824   1.925
72340W        W39123   4.662  15.757  10.765
72341W        W39124  10.366  30.285   0.804
72342W        W39125  32.411  29.365   1.733
72343W        W39126  33.946  29.583  12.366
72344W        W39127  39.891  10.107  12.902
72345W        W39128  38.063  35.629   4.143
72346W        W39129  44.972  24.107  11.756
72347W        W39130  10.404  29.703   3.883
72348W        W39131   6.013  14.820  12.378
72349W        W39132  12.252  10.194   4.723
72350W        W39133   5.231  13.076   1.259
72351W        W39134  27.575  19.963  14.992
72352W        W39135  14.519  11.747  11.563
72353W        W39136   8.250  18.058  12.990
72354W        W39137   4.195  13.349   1.905
72355W        W39138   5.423   4.319  13.840
72356W        W39139   8.302  13.158   0.443
72357W        W39140  42.743  36.292  13.825
72358W        W39141  17.747  35.336  11.050
72359W        W39142  31.909  31.067   3.219
72360W        W39143  36.556  22.165  13.465
72361W        W39144  31.366  30.161   0.825
72362W        W39145  29.428   6.304  14.878
72363W        W39146  17.372  13.553  12.018
72364W        W39147  16.543   1.302  13.349
72365W        W39148  12.656  26.766   3.609
72366W        W39149  25.158  33.054  14.492
72367W        W39150  20.520  20.245  13.018
72368W        W39151   6.645   5.680   1.512
72369W        W39152   0.565  24.992   2.727
72370W        W39153  25.793   0.893   1.856
72371W        W39154   8.482  20.647   1.341
72372W        W39155  43.620  16.038  14.325
72373W        W39156  20.560  10.282  12.043
72374W        W39157  14.715   5.351  13.507
72375W        W39158  36.981  35.984   1.821
72376W        W39159  39.621  33.071  12.467
72377W        W39160  16.925   8.319   4.580
72378W        W39161  33.433  40.571   2.431
72379W        W39162  44.088   8.665  12.834
72380W        W39163  15.736  35.271  12.897
72381W        W39164  35.705   4.586   4.101
72382W        W39165  29.013  11.121  10.418
72383W        W39166   1.197  36.500  10.314
72384W        W39167  30.478  38.039   4.666
72385W        W39168  37.491   7.290  14.576
72386W        W39169  21.044  15.075   2.400
72387W        W39170  29.404  29.600   3.318
72388W        W39171  27.977   1.599  13.340
72389W        W39172  36.966  40.529  10.728
72390W        W39173  26.874  11.863   3.336
72391W        W39174  12.684  35.621  11.175
72392W        W39175  22.763  41.466   2.292
72393W        W39176   9.287  19.028   3.587
72394W        W39177  13.267   6.306  14.380
72395W        W39178  28.494  18.681  10.726
72396W        W39179   9.393  16.407   3.581
72397W        W39180  43.542  23.730  14.114
72398W        W39181   9.471  31.520   0.833
72399W        W39182   5.038   7.135  13.081
72400W        W39183  26.506  25.604   3.578
72401W        W39184  44.870  41.692   0.986
72402W        W39185   2.604  25.888   0.193
72403W        W39186  15.701  12.689   0.088
72404W        W39187  29.664  35.385   3.131
72405W        W39188  12.786  20.835   1.570
72406W        W39189  13.959  28.973  10.758
72407W        W39190  18.675  42.537  10.743
72408W        W39191  18.683  36.356  14.355
72409W        W39192  21.182  43.050   0.776
72410W        W39193  36.431  29.324  11.541
72411W        W39194   4.432   0.119   4.032
72412W        W39195   0.692   1.701  11.521
72413W        W39196   1.131  15.307   0.475
72414W        W39197  40.596   8.213   0.816
72415W        W39198  31.118   7.706   3.254
72416W        W39199  16.614  35.060   3.178
72417W        W39200  23.050   2.274   0.575
72418W        W39201  42.854  23.407  14.332
72419W        W39202  41.168  35.100   0.844
72420W        W39203  35.077   4.912   0.363
72421W        W39204  17.803   1.882   1.892
72422W        W39205  38.979   3.889   4.509
72423W        W39206  36.470   3.071   5.079
72424W        W39207  34.940  16.033  14.604
72425W        W39208  24.853   1.724  11.647
72426W        W39209  18.858   7.167   3.290
72427W        W39210  14.279  35.839  12.981
72428W        W39211  16.734   5.889  13.107
72429W        W39212   2.568  22.009  14.925
72430W        W39213  42.455  44.433   1.285
72431W        W39214  33.328   8.175   0.830
72432W        W39215  37.224   5.460   1.167
72433W        W39216   4.354  26.064  11.028
72434W        W39217  12.655  37.609  12.423
72435W        W39218   8.260  38.849   2.225
72436W        W39219   0.996   7.187   2.159
72437W        W39220  18.723  39.444  11.485
72438W        W39221   6.867  19.175   2.262
72439W        W39222  25.542  43.317   4.592
72440W        W39223   4.837   8.950  13.293
72441W        W39224  34.563  27.088  13.801
72442W        W39225  42.679   7.044   5.158
72443W        W39226  30.628  36.876  13.801
72444W        W39227  31.130   5.346   4.318
72445W        W39228  31.209  18.129  12.449
72446W        W39229  31.477  15.872  12.407
72447W        W39230  16.168  21.165  11.129
72448W        W39231  24.125  29.759  13.882
72449W        W39232   5.845  26.665  11.265
72450W        W39233  36.339   8.887  13.777
72451W        W39234  36.979  42.915  10.915
72452W        W39235  36.179  41.017  14.391
72453W        W39236  44.399   7.111  13.049
72454W        W39237  31.267  41.274  11.600
72455W        W39238  11.886  35.521   0.411
72456W        W39239   9.905  39.546   0.865
72457W        W39240  14.200   7.866  10.084
72458W        W39241  31.454  25.535   2.907
72459W        W39242  26.088  23.197  12.765
72460W        W39243  43.798  34.931   1.937
72461W        W39244  17.263  39.815   3.216
72462W        W39245  17.858  44.527  11.058
72463W        W39246   5.388  37.385   1.297
72464W        W39247  32.409   9.807  11.231
72465W        W39248  22.491  16.882  11.220
72466W        W39249   0.865  31.562  12.139
72467W        W39250  21.795   2.584   0.565
72468W        W39251  20.769  41.020   3.184
72469W        W39252   4.891  16.735  13.064
72470W        W39253  39.014   0.854   0.464
72471W        W39254  37.822  40.967  13.489
72472W        W39255  20.765  27.925  13.027
72473W        W39256  25.650  30.484  12.457
72474W        W39257   4.411  28.621   3.187
72475W        W39258  35.327   0.937   1.057
72476W        W39259  16.715  40.447  10.650
72477W        W39260  24.658   7.752  10.555
72478W        W39261  41.986  32.019   1.473
72479W        W39262  32.061  16.029   4.796
72480W        W39263  33.050  13.159   3.606
72481W        W39264   5.428  12.382   3.702
72482W        W39265  11.219  42.922   1.658
72483W        W39266  27.378   4.326  12.870
72484W        W39267  30.228  18.333   0.350
72485W        W39268  14.113   8.686  13.657
72486W        W39269  17.515  40.987  13.022
72487W        W39270  21.657  27.558   9.733
72488W        W39271  44.294  23.726   2.759
72489W        W39272   2.664   7.889  14.932
72490W        W39273  26.343  36.310   0.191
72491W        W39274   8.834  17.141   5.376
72492W        W39275   2.078  42.765  11.552
72493W        W39276  22.272  22.468   1.736
72494W        W39277   6.132  10.767   3.118
72495W        W39278  21.961   7.396  14.932
72496W        W39279  16.984  31.428  10.691
72497W        W39280   0.418   7.703  14.720
72498W        W39281  14.517  43.732   2.039
72499W        W39282  24.533  37.272   3.201
72500W        W39283  40.667  16.691  10.699
72501W        W39284  29.150  43.863  11.567
72502W        W39285  38.099  33.366  10.135
72503W        W39286  33.137  36.959  11.195
72504W        W39287  28.599  16.593  13.340
72505W        W39288  28.434  30.186  10.503
72506W        W39289  12.343  39.038  13.342
72507W        W39290  34.784   5.785   4.245
72508W        W39291  38.127  31.033   3.223
72509W        W39292  31.037  28.529  11.409
72510W        W39293   8.861  23.011   4.031
72511W        W39294  37.309  32.505  14.397
72512W        W39295  20.664  11.067  12.487
72513W        W39296  38.373  19.980   1.724
72514W        W39297  37.842  42.373  12.084
72515W        W39298  26.522  37.378   2.912
72516W        W39299   4.605  14.182   5.023
72517W        W39300   4.462  23.254   0.322
72518W        W39301  25.016  21.612   1.159
72519W        W39302  18.070   8.562  13.515
72520W        W39303  35.566  30.296   0.781
72521W        W39304  14.879  43.031  13.225
72522W        W39305   8.331  15.177  12.097
72523W        W39306  43.056   0.984   2.496
72524W        W39307  22.295  31.443   0.517
72525W        W39308  28.193  19.134   3.663
72526W        W39309  22.318  40.106  12.844
72527W        W39310  10.836  18.020  13.847
72528W        W39311  11.085  14.844   3.183
72529W        W39312  25.002   4.429  12.957
72530W        W39313  39.406  10.190   2.101
72531W        W39314   1.078  12.777  13.759
72532W        W39315   8.817  27.954  14.863
72533W        W39316  13.552  17.216   4.376
72534W        W39317  37.431  16.646   1.406
72535W        W39318  16.472   4.245   4.208
72536W        W39319  13.814   6.218   0.795
72537W        W39320   5.741  22.689  10.506
72538W        W39321   7.633   9.851  14.593
72539W        W39322  34.304  34.577  11.610
72540W        W39323  17.795  39.795  14.912
72541W        W39324   3.512  31.483   1.258
72542W        W39325  30.144   4.315  14.468
72543W        W39326   9.663  15.650  13.071
72544W        W39327   9.146  43.359   3.829
72545W        W39328   7.647  20.055  12.439
72546W        W39329  26.048  13.838  13.760
72547W        W39330  35.022  13.568   1.917
72548W        W39331  25.674   7.387  13.959
72549W        W39332  42.602  34.062  12.986
72550W        W39333  25.961  23.837  10.761
72551W        W39334  25.663  28.163  11.100
72552W        W39335  16.730  20.964  12.020
72553W        W39336  40.232  44.465  10.231
72554W        W39337   3.818  35.771  11.739
72555W        W39338  39.676  13.314   0.758
72556W        W39339  12.896  30.595  11.090
72557W        W39340   6.212  12.613  12.561
72558W        W39341  15.315  40.141  13.067
72559W        W39342  12.463  24.290   2.712
72560W        W39343  31.789  15.746  10.130
72561W        W39344  22.428  16.132  12.326
72562W        W39345  12.639  35.775  14.995
72563W        W39346   4.127   3.123   1.408
72564W        W39347   5.736  29.966   4.552
72565W        W39348  38.428   4.295  11.956
72566W        W39349  14.912  30.179  14.015
72567W        W39350  44.350  31.900   5.182
72568W        W39351  32.048  29.839   4.574
72569W        W39352  23.656  34.972   4.625
72570W        W39353  17.214  28.163  14.463
72571W        W39354  44.455   1.617  11.371
72572W        W39355   5.300   2.846   2.439
72573W        W39356  29.439  22.149   4.937
72574W        W39357  15.808  10.323  13.928
72575W        W39358  22.596  20.053   4.109
72576W        W39359  13.718  12.108   0.218
72577W        W39360  37.543  17.661  11.505
72578W        W39361  22.417   5.836  10.072
72579W        W39362  41.107  41.740   4.824
72580W        W39363  11.247  34.538   1.835
72581W        W39364  32.947   5.842  12.605
72582W        W39365  17.066  21.032   2.138
72583W        W39366  27.742   1.959  14.954
72584W        W39367  36.148  19.989  12.096
72585W        W39368  30.142  11.928   2.387
72586W        W39369  18.615  36.952  14.293
72587W        W39370  15.506  33.530  12.526
72588W        W39371  42.397  22.984   2.796
72589W        W39372  14.591  31.860  11.847
72590W        W39373   5.984   4.826   0.441
72591W        W39374  36.997  42.311   4.891
72592W        W39375   0.789  11.376   1.277
72593W        W39376  22.537  13.165  12.284
72594W        W39377  14.322   1.417  14.074
72595W        W39378  32.786  21.792  10.584
72596W        W39379  30.089  10.075  12.462
72597W        W39380  28.694  32.657   3.136
72598W        W39381  27.422  35.827  11.564
72599W        W39382  43.996  20.307   1.743
72600W        W39383  35.985  20.024   0.368
72601W        W39384  38.012  18.306   3.503
72602W        W39385   5.174  40.857   2.274
72603W        W39386  24.821  42.440  14.403
72604W        W39387  17.699   1.697   0.313
72605W        W39388  38.116  25.740   3.316
72606W        W39389  38.539   0.447   0.804
72607W        W39390   4.789  18.351   4.991
72608W        W39391  29.768  21.396   0.321
72609W        W39392  23.417  41.816  11.962
72610W        W39393  27.521  28.003   1.930
72611W        W39394  20.302  37.654   3.216
72612W        W39395   6.664  43.847   4.158
72613W        W39396   9.367   2.898   4.097
72614W        W39397  15.789   3.030  13.804
72615W        W39398  38.104  23.977   3.568
72616W        W39399  42.742  18.999   2.050
72617W        W39400  36.951  13.290   3.689
72618W        W39401  36.279  35.840  11.194
72619W        W39402  43.148  30.062   4.872
72620W        W39403  22.308  11.501  13.612
72621W        W39404  33.484  11.829   1.978
72622W        W39405   6.128  10.168   2.681
72623W        W39406  36.045   6.953   0.778
72624W        W39407  16.315  44.766   1.464
72625W        W39408   8.207  21.495  12.451
72626W        W39409  11.874  18.113   2.675
72627W        W39410  10.239  40.412  13.281
72628W        W39411  25.497  32.518  11.621
72629W        W39412   9.507   1.739  12.148
72630W        W39413   5.523  34.067  13.030
72631W        W39414  27.589  44.984  11.656
72632W        W39415  20.116  31.713   2.855
72633W        W39416  25.692  44.328  13.728
72634W        W39417  39.675  19.238  13.893
72635W        W39418   2.563  17.159  11.086
72636W        W39419  37.797  34.565  12.826
72637W        W39420  30.174  15.890  14.759
72638W        W39421  14.605  30.516   4.233
72639W        W39422  41.470  12.713  12.203
72640W        W39423   7.857  33.624   2.788
72641W        W39424  44.334  40.573  10.699
72642W        W39425  34.053  37.332   0.758
72643W        W39426  21.275   0.858   0.833
72644W        W39427  44.179  12.690   2.761
72645W        W39428   8.876  13.492   2.818
72646W        W39429   9.168  28.897   0.449
72647W        W39430  30.143  19.373  10.407
72648W        W39431  20.143  36.753  12.908
72649W        W39432  12.846  11.305  12.533
72650W        W39433  17.629  21.325  11.954
72651W        W39434  43.359  35.604   3.876
72652W        W39435  42.458  32.763   0.395
72653W        W39436  11.145  28.624   2.711
72654W        W39437  43.925   8.890   0.437
72655W        W39438  33.647   1.357   0.016
72656W        W39439  22.999  40.082   9.990
72657W        W39440   5.333  26.229  13.110
72658W        W39441  32.104  16.743  12.910
72659W        W39442  20.398  11.256   4.706
72660W        W39443  40.528  14.831  13.423
72661W        W39444  15.258  36.098   2.736
72662W        W39445  28.661  12.485   1.917
72663W        W39446  37.382   4.073   3.875
72664W        W39447  27.710  39.733   4.937
72665W        W39448  42.848  14.239  11.807
72666W        W39449   8.630  16.077  10.604
72667W        W39450  40.519   5.638  13.357
72668W        W39451  11.715  30.986   4.319
72669W        W39452   8.397   8.816   0.003
72670W        W39453  39.088  16.321   4.351
72671W        W39454  33.831  32.384  12.724
72672W        W39455  21.703  19.665   0.816
72673W        W39456  36.973  34.854  10.548
72674W        W39457  18.246   3.514   3.161
72675W        W39458  41.216  32.033   2.161
72676W        W39459  20.974  20.789   3.136
72677W        W39460   9.313  36.729  13.222
72678W        W39461  18.488  12.426  14.482
72679W        W39462   5.728  25.998  12.834
72680W        W39463  40.578  32.330  12.864
72681W        W39464  12.274  31.720  11.462
72682W        W39465  22.424  23.651   3.337
72683W        W39466   6.891  17.374  14.384
72684W        W39467  40.368  44.237  13.030
72685W        W39468  13.928   1.856  14.855
72686W        W39469  10.238   1.184   0.349
72687W        W39470  42.580  26.493  14.732
72688W        W39471  33.405  28.429   4.967
72689W        W39472  33.029  36.734  12.047
72690W        W39473   1.814  16.016  14.321
72691W        W39474  24.049  25.968  14.879
72692W        W39475  28.510  20.353   1.290
72693W        W39476  24.423   4.286   1.840
72694W        W39477  24.609   7.160  10.701
72695W        W39478  16.200   4.746   4.906
72696W        W39479  21.045  23.620   1.150
72697W        W39480  25.238   2.896  12.826
72698W        W39481  27.674   1.611  12.545
72699W        W39482  17.421  38.384   4.122
72700W        W39483   6.167  15.499   3.575
72701W        W39484  29.911  32.552   1.295
72702W        W39485  32.430  14.362   3.264
72703W        W39486  37.505  37.884  13.489
72704W        W39487  43.786  27.143   4.091
72705W        W39488   2.920  12.852  11.548
72706W        W39489  34.007  17.153  12.598
72707W        W39490  22.773  20.492   2.937
72708W        W39491  23.668   9.695   3.375
72709W        W39492  24.787  29.735  13.109
72710W        W39493   9.733  26.659  14.073
72711W        W39494  12.815  16.134  12.985
72712W        W39495  30.066   8.168  12.367
72713W        W39496  24.163  10.937   3.067
72714W        W39497  38.674   1.962  10.664
72715W        W39498  17.326  18.229   2.807
72716W        W39499   2.976   1.682   4.122
72717W        W39500   8.881   6.373   0.050
72718W        W39501  15.780  27.023  11.695
72719W        W39502  23.630  35.935  14.398
72720W        W39503  19.730  42.479   0.120
72721W        W39504  42.065  14.846   4.106
72722W        W39505  44.800  27.919   3.219
72723W        W39506  32.482   7.379   1.284
72724W        W39507  20.498  32.459  11.704
72725W        W39508  36.562  11.626  12.108
72726W        W39509   8.551   6.264  13.112
72727W        W39510  35.414  44.854   0.384
72728W        W39511  19.499  36.359   3.205
72729W        W39512  32.112  23.371  13.500
72730W        W39513  34.914  32.867   4.773
72731W        W39514  42.742  44.297  14.861
72732W        W39515  18.012  15.066  11.024
72733W        W39516  25.047  34.118   1.589
72734W        W39517  13.564  34.393  10.512
72735W        W39518  25.053  33.583   2.163
72736W        W39519  27.657   1.557   1.809
72737W        W39520   0.518  26.568  13.027
72738W        W39521  31.919  12.588  12.142
72739W        W39522  29.161   3.290  12.905
72740W        W39523  16.941  14.835   3.730
72741W        W39524   4.869  31.763   1.343
72742W        W39525  30.956  42.742  14.902
72743W        W39526  31.120  15.645   3.382
72744W        W39527  18.237   8.623   4.075
72745W        W39528  11.761  28.216   2.733
72746W        W39529  16.176   4.750   0.429
72747W        W39530  34.445  13.970  13.897
72748W        W39531  11.135  24.468   2.252
72749W        W39532   2.867  17.924  13.580
72750W        W39533   2.677  13.059  11.104
72751W        W39534   1.433  18.716  12.317
72752W        W39535   4.197  31.128   2.257
72753W        W39536  41.409  29.482   3.616
72754W        W39537   9.377  21.162  11.577
72755W        W39538  32.114  34.872  11.597
72756W        W39539  39.731  33.110   4.120
72757W        W39540   4.732  25.859   3.794
72758W        W39541  14.979  35.857  10.371
72759W        W39542  14.957  25.736   2.593
72760W        W39543  29.082   4.166  11.668
72761W        W39544   2.801  20.379   0.607
72762W        W39545   9.114  22.127  10.487
72763W        W39546  34.911  44.591   3.392
72764W        W39547  10.271  41.408   2.871
72765W        W39548  11.651  35.108   1.858
72766W        W39549  28.636  15.296  13.123
72767W        W39550  23.213   5.341   1.459
72768W        W39551  30.005  34.997   0.980
72769W        W39552  26.549  24.465   4.191
72770W        W39553  37.431   6.595   0.350
72771W        W39554  20.231  31.176   1.954
72772W        W39555  37.937  31.483   3.059
72773W        W39556  30.810  34.425   2.403
72774W        W39557  39.300  24.427   3.385
72775W        W39558  16.115   6.647   2.910
72776W        W39559  37.071  32.555   4.226
72777W        W39560   1.944  15.548  12.506
72778W        W39561  35.203   3.616   1.720
72779W        W39562  44.883  12.690   2.235
72780W        W39563  14.772  15.545  10.759
72781W        W39564  31.526  42.395   1.283
72782W        W39565  30.339  13.727   4.055
72783W        W39566  33.015  38.605   2.821
72784W        W39567  31.707  26.612  12.956
72785W        W39568  33.026  35.070   4.007
72786W        W39569  14.650  16.167   2.680
72787W        W39570  13.768  33.976  14.052
72788W        W39571  15.985  30.195   1.261
72789W        W39572  34.869  24.937   1.152
72790W        W39573   4.680  29.060   3.195
72791W        W39574  43.583  38.375   1.912
72792W        W39575  21.889  44.007  12.710
72793W        W39576  28.162  10.521   3.720
72794W        W39577  23.822  41.392   4.024
72795W        W39578  25.840  34.086  13.532
72796W        W39579  10.333  26.025  13.914
72797W        W39580   4.382  24.606  11.158
72798W        W39581   8.071  41.493  11.619
72799W        W39582   4.681  27.886   2.642
72800W        W39583  42.140  30.113   4.591
72801W        W39584  19.692  11.465   2.169
72802W        W39585  20.713  27.210  12.348
72803W        W39586  13.746  15.110   0.152
72804W        W39587  13.364  30.666   1.192
72805W        W39588  35.431  21.730   2.783
72806W        W39589  40.532  42.399  10.683
72807W        W39590  28.192  24.143   2.833
72808W        W39591  36.914  12.586   3.245
72809W        W39592  25.053  28.641   2.769
72810W        W39593  24.188  12.791  10.365
72811W        W39594  18.240  30.105   4.554
72812W        W39595  32.270  18.211   3.636
72813W        W39596   4.320  14.210  11.767
72814W        W39597   9.657  34.582   3.153
72815W        W39598  42.896  26.554  13.212
72816W        W39599  39.604  16.569  12.951
72817W        W39600  44.150   5.309   0.747
72818W        W39601  21.607   7.390  11.949
72819W        W39602  41.480  40.031  12.732
72820W        W39603  24.148  24.359   4.635
72821W        W39604  44.710  37.528  12.467
72822W        W39605  34.870  39.576  13.522
72823W        W39606   5.794   2.298  10.452
72824W        W39607  40.887  29.633  13.902
72825W        W39608  40.845  24.179  14.239
72826W        W39609   1.330  42.878  10.851
72827W        W39610  35.597   3.586   4.897
72828W        W39611  24.464  28.225  12.972
72829W        W39612   2.871  44.009  14.351
72830W        W39613   8.109  23.029  14.332
72831W        W39614   0.294  34.816   2.442
72832W        W39615  21.310  38.573   0.851
72833W        W39616  28.633  26.216  13.656
72834W        W39617  19.127  16.299   1.414
72835W        W39618  17.102  23.531   3.624
72836W        W39619  30.498   4.487  14.839
72837W        W39620  37.463  31.542   4.808
72838W        W39621   2.456  42.443  11.691
72839W        W39622  34.307  42.901   4.583
72840W        W39623   6.777  26.644   2.366
72841W        W39624  12.356  30.085  13.541
72842W        W39625  34.598  30.039   1.928
72843W        W39626  41.027  35.520  13.070
72844W        W39627   9.610  16.864   2.117
72845W        W39628  43.525   2.324  11.963
72846W        W39629  22.664  44.776   0.306
72847W        W39630  38.248  44.448   3.387
72848W        W39631  24.053  26.252  14.014
72849W        W39632   8.088  36.099  14.340
72850W        W39633  15.181  10.080  10.399
72851W        W39634  38.584  19.151  11.088
72852W        W39635  38.075   8.446   3.824
72853W        W39636   7.678  35.631   1.893
72854W        W39637  21.400   6.144  11.985
72855W        W39638  44.967  14.870   4.090
72856W        W39639   2.216   0.983   1.311
72857W        W39640  34.529  28.062  14.735
72858W        W39641  35.468  10.542  13.740
72859W        W39642   9.773  19.535   4.220
72860W        W39643  28.061  44.923   1.639
72861W        W39644   4.720  13.281  12.041
72862W        W39645  44.508  22.292  11.115
72863W        W39646  30.923  40.775   0.809
72864W        W39647   5.236   4.497   1.492
72865W        W39648  37.100  21.074   1.453
72866W        W39649  25.246  28.520   0.302
72867W        W39650  21.244  41.016   2.213
72868W        W39651  15.785  11.622  13.523
72869W        W39652  24.802   0.802   1.461
72870W        W39653  39.321   8.070   1.535
72871W        W39654  18.226  36.532  12.360
72872W        W39655  20.173  31.893  10.837
72873W        W39656  18.714   1.839  14.003
72874W        W39657   0.225  40.521  10.892
72875W        W39658   4.493  38.891  13.447
72876W        W39659  28.949   5.385   1.176
72877W        W39660  25.566   7.075   1.782
72878W        W39661  16.741  37.991  10.207
72879W        W39662   2.929   8.101  14.307
72880W        W39663  28.972  28.636  11.384
72881W        W39664  15.981  40.485  11.253
72882W        W39665  31.605  25.690   3.814
72883W        W39666   9.444   3.705   2.785
72884W        W39667  10.855   4.863  13.565
72885W        W39668   0.041  21.642  14.476
72886W        W39669   3.263  18.984  13.899
72887W        W39670  26.337   8.621   4.145
72888W        W39671  14.061   7.845   5.455
72889W        W39672   7.864  31.309  13.450
72890W        W39673  33.050  26.492   1.337
72891W        W39674  17.650  29.023  12.194
72892W        W39675  31.948   1.949  14.012
72893W        W39676  31.550   1.682  10.699
72894W        W39677  33.171   2.505  10.552
72895W        W39678  44.969  40.261  13.107
72896W        W39679  16.245  36.356   2.709
72897W        W39680   6.376   7.331   0.520
72898W        W39681  27.944  44.375   4.569
72899W        W39682  14.010  15.836  12.918
72900W        W39683  32.451  19.643  14.224
72901W        W39684   3.965  30.665   1.704
72902W        W39685  25.321  14.805  12.409
72903W        W39686   8.870  30.144   2.320
72904W        W39687  38.061  27.235  11.107
72905W        W39688  34.920  13.094   2.130
72906W        W39689  10.293  29.627   3.344
72907W        W39690  31.382  17.559   1.986
72908W        W39691  38.586  39.908   3.349
72909W        W39692  37.343  10.774  11.621
72910W        W39693  24.938  31.993   0.177
72911W        W39694  37.077  18.164  11.157
72912W        W39695  31.872  19.119  14.763
72913W        W39696  15.858  27.885  13.713
72914W        W39697  34.913   5.407   2.904
72915W        W39698  39.633  27.477   2.249
72916W        W39699  31.949   1.152   1.291
72917W        W39700   2.353  22.342   4.821
72918W        W39701  18.072  37.995   3.264
72919W        W39702   6.772  18.632   0.875
72920W        W39703   2.169  38.604   4.074
72921W        W39704   8.249   2.208  13.367
72922W        W39705  40.104  41.856  14.793
72923W        W39706  26.317  39.259   0.372
72924W        W39707  31.039  38.002   2.195
72925W        W39708  13.129   3.592   3.166
72926W        W39709  18.731  40.545   4.099
72927W        W39710  11.265  21.692   2.010
72928W        W39711  15.307  18.777  11.383
72929W        W39712  27.416  29.096   2.275
72930W        W39713  20.615  33.695   4.499
72931W        W39714  23.197  30.150  12.023
72932W        W39715  23.192   5.774   3.661
72933W        W39716   4.184   6.760  10.524
72934W        W39717  18.089  21.580  11.536
72935W        W39718  26.922  21.303   0.337
72936W        W39719   3.976  33.401   3.798
72937W        W39720  43.044  15.453   5.080
72938W        W39721  11.151   6.601   9.874
72939W        W39722  35.874  13.645   2.792
72940W        W39723  34.630  18.202   4.190
72941W        W39724  44.514  30.510  13.022
72942W        W39725  27.603   7.983  11.790
72943W        W39726  23.089   1.352   3.725
72944W        W39727  16.147   6.607  10.745
72945W        W39728   7.446  29.547  13.133
72946W        W39729  17.269   9.665  13.981
72947W        W39730  41.549  33.662   0.639
72948W        W39731  39.173   1.903  10.577
72949W        W39732  32.687   8.941  11.174
72950W        W39733  13.213   8.006  11.983
72951W        W39734   1.081  31.691   1.866
72952W        W39735  31.073  29.125  12.156
72953W        W39736  21.063  20.464  14.770
72954W        W39737  20.653  27.916   4.239
72955W        W39738  21.733   9.799   3.366
72956W        W39739  34.632  30.614   0.822
72957W        W39740   7.488  31.035  13.669
72958W        W39741  18.853  43.872   3.267
72959W        W39742  28.549  28.919   2.356
72960W        W39743  38.818  36.328   4.590
72961W        W39744   5.654  23.167   0.621
72962W        W39745  21.752   7.159  11.483
72963W        W39746  38.468  23.970   2.721
72964W        W39747  29.076  29.120  14.427
72965W        W39748  15.962  30.787  11.925
72966W        W39749  14.547  44.729  12.504
72967W        W39750   8.858  30.851   4.563
72968W        W39751  26.045  11.463   3.232
72969W        W39752  10.563  16.775   1.957
72970W        W39753  32.382  42.107   4.322
72971W        W39754   5.220  26.148  12.610
72972W        W39755   4.798  21.485  14.875
72973W        W39756  20.122  13.866  10.288
72974W        W39757  11.305  18.844   2.769
72975W        W39758  44.093  16.256  11.522
72976W        W39759  12.835  23.973  14.997
72977W        W39760  37.822  34.981   0.426
72978W        W39761  36.055   4.813  11.147
72979W        W39762  17.098   7.250   1.403
72980W        W39763  33.534  37.911   9.808
72981W        W39764  36.606   8.504   3.878
72982W        W39765  41.940  22.765  14.736
72983W        W39766  12.112  22.248   0.969
72984W        W39767  30.842   5.382   4.799
72985W        W39768   0.717  24.446  14.594
72986W        W39769  27.321   5.341  11.479
72987W        W39770  37.462  29.727   1.177
72988W        W39771  29.342  11.848  12.182
72989W        W39772  10.022  23.213   3.769
72990W        W39773  25.482  35.395  14.342
72991W        W39774  30.469  22.291   3.228
72992W        W39775  25.455  19.036  13.414
72993W        W39776  40.578  11.320   0.823
72994W        W39777   6.372  29.218   3.934
72995W        W39778  12.019  15.218   1.694
72996W        W39779  37.371  28.254  10.719
72997W        W39780  14.679   1.714  12.008
72998W        W39781  42.545   5.748   1.741
72999W        W39782  43.137  12.805  10.700
73000W        W39783  21.081  26.090   0.669
73001W        W39784  11.272  13.684  13.765
73002W        W39785   8.606  36.552  11.139
73003W        W39786  15.386  19.268  11.243
73004W        W39787  44.221  26.489   2.785
73005W        W39788  44.164  43.302  11.247
73006W        W39789  31.991   9.977   3.300
73007W        W39790   5.650  12.209  11.602
73008W        W39791  39.326  26.895  10.963
73009W        W39792  11.221   8.675  13.039
73010W        W39793   8.619  43.985  12.398
73011W        W39794   0.855  37.386   0.415
73012W        W39795  12.621  35.893  12.542
73013W        W39796  25.720  22.273  10.288
73014W        W39797  35.146  35.298   1.927
73015W        W39798   3.388   0.896   3.878
73016W        W39799   2.237   0.256  14.457
73017W        W39800  36.314  11.572  12.561
73018W        W39801  39.945   3.779  13.384
73019W        W39802  33.484  16.193  13.357
73020W        W39803  19.569  20.048  13.571
73021W        W39804  14.221   2.289   1.360
73022W        W39805  25.221  18.263  14.456
73023W        W39806  21.919  22.164   1.956
73024W        W39807  21.944   5.151   0.413
73025W        W39808  43.813  12.993  12.568
73026W        W39809  12.621   9.423   4.863
73027W        W39810  44.824   9.501   4.035
73028W        W39811  38.772  23.526   4.160
73029W        W39812  22.494  28.650  14.865
73030W        W39813  22.531  34.141  11.615
73031W        W39814  10.867  29.511  13.311
73032W        W39815   0.536  12.612   1.633
73033W        W39816  36.509   1.771  12.081
73034W        W39817  40.806   8.970   5.416
73035W        W39818   7.846  27.026   4.313
73036W        W39819   7.417   3.490   0.509
73037W        W39820  39.328   7.636  11.129
73038W        W39821  35.389   5.236  12.538
73039W        W39822  40.253  10.631  12.036
73040W        W39823  44.598  38.948   1.754
73041W        W39824   6.880  32.937   1.579
73042W        W39825  43.237  42.906   2.796
73043W        W39826   0.379   5.892   1.298
73044W        W39827  23.481   2.843   2.610
73045W        W39828  38.047  12.750   0.474
73046W        W39829  33.239  39.044  13.802
73047W        W39830  35.664   2.245   3.744
73048W        W39831   0.098  17.183  11.103
73049W        W39832  41.327  40.894   2.759
73050W        W39833  40.657   1.855  12.498
73051W        W39834  21.789  24.174  11.579
73052W        W39835  17.242  41.997  11.498
73053W        W39836  25.735  37.992   0.916
73054W        W39837  36.977  44.959  11.940
73055W        W39838  39.316  16.048   0.613
73056W        W39839  34.174  41.855  11.593
73057W        W39840  33.722  38.128   1.781
73058W        W39841   9.314  18.728  13.569
73059W        W39842  19.861   2.951  14.896
73060W        W39843  27.984   0.736   1.344
73061W        W39844  30.043  39.034   1.462
73062W        W39845   5.396  33.947   4.648
73063W        W39846  31.542  18.619  10.348
73064W        W39847  26.091  26.731  12.464
73065W        W39848  38.897   4.620  11.193
73066W        W39849   7.895  32.529  14.542
73067W        W39850  21.341  41.393  11.817
73068W        W39851  31.696  13.400   0.348
73069W        W39852  40.073   7.901   4.287
73070W        W39853  41.413   2.267   0.724
73071W        W39854  11.892  22.601  10.772
73072W        W39855  33.957  25.264   4.686
73073W        W39856   6.649  10.704  11.631
73074W        W39857  24.237  40.313   1.001
73075W        W39858  16.822  30.578  10.979
73076W        W39859  13.726   7.634   1.398
73077W        W39860   1.557  39.271  11.762
73078W        W39861  28.574  10.698   1.734
73079W        W39862  36.896  31.120   2.946
73080W        W39863  17.501   1.246   1.621
73081W        W39864  27.146  24.033   0.018
73082W        W39865  34.562  40.308  13.050
73083W        W39866  17.097  24.696   4.753
73084W        W39867  22.925  18.738  14.745
73085W        W39868  36.010  32.888   2.213
73086W        W39869  20.732   5.452   4.448
73087W        W39870  35.016  42.370   4.505
73088W        W39871  25.939  13.196   2.735
73089W        W39872  16.900  28.171  12.827
73090W        W39873  34.864  17.710  14.829
73091W        W39874   3.486  18.050   9.991
73092W        W39875  24.312  16.594   4.397
73093W        W39876  42.531  15.463   5.156
73094W        W39877   0.470  39.355   0.483
73095W        W39878  31.731  14.199   4.543
73096W        W39879  36.663  35.398   0.524
73097W        W39880  44.911  36.447   0.482
73098W        W39881  17.718  16.144   0.815
73099W        W39882  30.624   4.917   4.539
73100W        W39883  33.950  12.779  12.397
73101W        W39884  39.806  32.760  11.177
73102W        W39885  41.547  11.822   1.776
73103W        W39886  10.310  33.566  14.515
73104W        W39887  21.250  31.504  14.314
73105W        W39888   7.151  17.805   4.433
73106W        W39889  36.302  15.277   1.177
73107W        W39890  20.031  33.417  13.379
73108W        W39891   0.192  15.234   5.187
73109W        W39892  43.250   7.693   2.366
73110W        W39893   7.211  23.994   4.385
73111W        W39894  19.597  33.885  13.935
73112W        W39895  28.418  44.530   1.735
73113W        W39896  12.080  39.777   0.364
73114W        W39897   1.284   1.406  13.100
73115W        W39898  26.924   0.733  13.177
73116W        W39899  36.570  11.378  11.493
73117W        W39900  37.437  38.903   3.110
73118W        W39901  15.492  11.945  14.778
73119W        W39902  15.186  14.860   3.682
73120W        W39903  34.864  18.553   2.335
73121W        W39904  36.254  25.139  10.178
73122W        W39905  19.575   6.405   0.907
73123W        W39906  13.646  29.485  10.745
73124W        W39907  17.847  26.161   4.532
73125W        W39908  30.220   6.341   0.417
73126W        W39909  12.827  11.033  12.982
73127W        W39910  36.157  14.348   2.005
73128W        W39911  31.409   8.877  13.362
73129W        W39912  22.756  38.602   2.323
73130W        W39913  17.274  34.928  14.091
73131W        W39914   4.106  13.133   2.389
73132W        W39915   3.910  43.203   1.713
73133W        W39916  30.074  37.121  11.115
73134W        W39917   1.656  40.943  11.150
73135W        W39918  43.452  19.036   4.616
73136W        W39919   9.687  24.358   0.299
73137W        W39920  12.083  43.386  14.379
73138W        W39921  31.483  33.523  14.323
73139W        W39922  20.843  24.202  14.194
73140W        W39923  41.275  24.506  12.925
73141W        W39924  26.771   4.881  10.545
73142W        W39925  40.808  22.736  12.677
73143W        W39926   9.681  39.998  11.044
73144W        W39927   7.109  17.188  11.574
73145W        W39928  19.761  17.837  14.750
73146W        W39929  15.074  10.153   3.825
73147W        W39930  29.384   4.341  12.364
73148W        W39931  23.586   2.203   0.526
73149W        W39932   3.454  18.697  13.462
73150W        W39933  31.943   8.197  11.717
73151W        W39934  11.633  12.764   4.368
73152W        W39935  42.696  18.639  14.051
73153W        W39936  29.131  17.053   3.600
73154W        W39937  24.038  39.548  13.994
73155W        W39938   0.022  39.952  12.125
73156W        W39939  32.920  14.399  10.692
73157W        W39940   6.241  42.042   1.903
73158W        W39941  23.779  10.180   2.438
73159W        W39942  38.056  44.488  11.026
73160W        W39943  31.356  25.117  14.438
73161W        W39944  17.759  32.649  12.545
73162W        W39945  16.743   4.711   4.201
73163W        W39946  42.361  24.725  12.627
73164W        W39947  40.562  44.474  14.445
73165W        W39948   3.995  15.879  11.185
73166W        W39949  17.170  31.667   4.142
73167W        W39950  11.791  11.686   4.953
73168W        W39951  43.964  16.284  13.488
73169W        W39952  41.270  16.069   1.862
73170W        W39953  33.769  44.923  14.819
73171W        W39954  42.503   1.513   3.261
73172W        W39955   8.571  41.592  11.655
73173W        W39956  18.071  33.613   2.407
73174W        W39957  13.348  40.459   0.292
73175W        W39958  20.563   7.622  12.517
73176W        W39959  43.745  36.903  10.738
73177W        W39960  38.982  31.167  12.958
73178W        W39961  36.069  38.381  14.309
73179W        W39962  25.462   6.951   2.770
73180W        W39963  22.238   1.011  12.819
73181W        W39964  30.401  22.501   4.621
73182W        W39965  18.856  24.945  11.198
73183W        W39966   1.393  29.864   2.308
73184W        W39967  18.201  34.831   1.333
73185W        W39968  29.712  16.057   0.906
73186W        W39969  29.539   4.829  12.515
73187W        W39970  30.503  43.756  14.797
73188W        W39971  25.138  22.698   1.832
73189W        W39972  40.585   5.256   3.597
73190W        W39973  12.345  36.619  14.061
73191W        W39974   0.920  20.969  14.781
73192W        W39975  34.116  13.707  10.577
73193W        W39976  28.874   2.086  11.618
73194W        W39977  11.141  14.646   3.654
73195W        W39978   7.926   9.595  12.882
73196W        W39979  36.010  18.861   2.961
73197W        W39980  32.064  11.733  11.550
73198W        W39981  20.680  26.801   1.678
73199W        W39982   3.718  21.149   4.153
73200W        W39983  19.032  42.402   4.381
73201W        W39984  29.580  15.078  13.910
73202W        W39985  41.054  26.435  14.037
73203W        W39986  21.804  23.010  14.831
73204W        W39987   5.382   5.312   4.617
73205W        W39988  43.849   4.968  14.356
73206W        W39989  33.874   2.470   2.283
73207W        W39990  18.996  37.913  13.876
73208W        W39991   6.783  27.663  14.764
73209W        W39992  12.872  36.767  11.932
73210W        W39993  22.752   3.357   2.608
73211W        W39994  21.476  29.419  11.152
73212W        W39995  21.782  24.052   2.266
73213W        W39996  14.278  43.923   1.242
73214W        W39997  24.517   8.848   2.889
73215W        W39998  37.137  43.240  11.283
73216W        W39999  33.010  34.395   4.188
73217W        W40000  28.774  18.023   4.413
73218W        W40001   3.038  26.987  12.081
73219W        W40002   0.012  44.465   1.233
73220W        W40003  17.066  41.489  12.250
73221W        W40004  40.343   6.997  11.743
73222W        W40005  34.017  16.041   0.879
73223W        W40006  16.326   8.817   3.388
73224W        W40007  31.936  42.319   4.517
73225W        W40008  22.662  14.309  12.836
73226W        W40009  27.758  28.247  12.112
73227W        W40010  32.687  27.768   0.003
73228W        W40011  14.176  40.378   4.218
73229W        W40012  33.029   1.436  14.337
73230W        W40013  43.960  13.399  11.657
73231W        W40014  29.337  10.453  10.725
73232W        W40015  25.459  20.586   0.272
73233W        W40016   5.416   6.824   4.509
73234W        W40017  17.974  32.532  11.678
73235W        W40018   8.767   6.973  14.792
73236W        W40019  41.345  37.140   4.084
73237W        W40020  42.243  31.562   2.833
73238W        W40021  19.053   2.770   4.369
73239W        W40022  30.656  34.581  11.915
73240W        W40023   1.511  19.105  14.801
73241W        W40024   1.331  21.484   3.655
73242W        W40025   3.440  12.727  11.574
73243W        W40026  26.121  36.232   1.814
73244W        W40027   2.351  12.816   1.843
73245W        W40028   2.261  29.762   4.983
73246W        W40029   3.730  31.006   2.065
73247W        W40030  17.671  27.464  12.942
73248W        W40031  23.500  16.374   2.289
73249W        W40032  28.561  20.966  12.103
73250W        W40033  35.813  38.617   1.742
73251W        W40034   1.515  36.350   0.831
73252W        W40035  18.555  38.962   3.251
73253W        W40036  33.109   3.289  13.384
73254W        W40037  44.261   7.436   1.294
73255W        W40038  43.716  37.706  11.095
73256W        W40039  30.544  34.461   1.488
73257W        W40040  29.184  44.711   0.484
73258W        W40041  31.386  19.358   1.144
73259W        W40042  39.400  44.971  11.207
73260W        W40043  28.788  23.610  10.934
73261W        W40044  41.579   5.773  13.898
73262W        W40045  16.227  15.101   1.690
73263W        W40046  40.978  15.604   1.178
73264W        W40047  37.943   6.439   2.770
73265W        W40048   6.397  17.127  12.610
73266W        W40049  28.398  14.231   1.353
73267W        W40050  17.540  39.025   4.061
73268W        W40051  12.352   7.754  12.855
73269W        W40052  17.316  10.257  12.439
73270W        W40053  14.315  32.562   4.619
73271W        W40054  41.850  39.244   2.632
73272W        W40055  39.525  44.563  12.078
73273W        W40056  34.397  18.627  13.850
73274W        W40057   6.152  10.933   2.363
73275W        W40058  44.363  13.017   0.406
73276W        W40059   1.170  11.018  13.108
73277W        W40060  19.049  28.902  13.845
73278W        W40061  18.854   8.228  11.945
73279W        W40062  22.803   2.126   3.662
73280W        W40063  26.203  23.621  12.387
73281W        W40064   1.742   0.917  11.095
73282W        W40065  43.771  26.472   3.643
73283W        W40066  18.606   7.856  11.149
73284W        W40067  44.386  38.544   1.501
73285W        W40068   9.453   2.742   0.546
73286W        W40069  42.040  29.287   4.578
73287W        W40070  37.880  14.373   3.830
73288W        W40071  21.525  36.146   5.058
73289W        W40072  21.627  32.047   2.706
73290W        W40073   8.156  34.818   2.080
73291W        W40074  33.408  23.980   2.803
73292W        W40075  20.345  12.892   3.271
73293W        W40076   1.536  44.462  13.932
73294W        W40077  26.665   3.454  13.905
73295W        W40078  23.702  24.580   1.815
73296W        W40079  39.561   0.837  14.302
73297W        W40080   8.094  43.763   1.357
73298W        W40081  22.076  30.060   1.310
73299W        W40082   5.831  42.676   2.852
73300W        W40083   9.189  27.601   1.261
73301W        W40084  13.384  11.688   0.135
73302W        W40085  44.367  12.153  11.408
73303W        W40086  15.820  20.591  13.112
73304W        W40087  31.343  21.240   3.652
73305W        W40088  40.917  10.112  11.601
73306W        W40089  16.246   2.489  12.401
73307W        W40090  36.112  41.809   1.143
73308W        W40091  39.227  10.659   2.820
73309W        W40092  37.490  29.441  12.742
73310W        W40093  18.709  18.385  12.391
73311W        W40094  38.965  16.274   1.365
73312W        W40095   5.214  17.178  11.081
73313W        W40096  11.711  22.123  14.575
73314W        W40097  29.020  14.584  11.877
73315W        W40098  44.983  26.643  13.264
73316W        W40099   4.140   5.216  10.458
73317W        W40100  24.659  28.006  11.259
73318W        W40101  28.976  17.825  12.655
73319W        W40102  19.006  34.043  14.720
73320W        W40103  26.262  38.014  13.914
73321W        W40104   1.087   9.460  14.354
73322W        W40105  32.607  19.157   5.399
73323W        W40106  25.192  29.107  11.115
73324W        W40107  35.288   7.849  13.017
73325W        W40108  11.718  40.908  12.278
73326W        W40109   1.709  44.849   2.689
73327W        W40110  40.848   8.382  11.053
73328W        W40111  38.869  20.094   1.528
73329W        W40112  42.094  29.214  14.530
73330W        W40113  21.300  43.197   4.103
73331W        W40114   9.867   6.911  11.204
73332W        W40115  40.111   5.191   3.804
73333W        W40116  27.850  12.611  13.569
73334W        W40117  15.804  25.678   4.211
73335W        W40118  27.389  40.869   0.196
73336W        W40119   0.974  18.862  11.000
73337W        W40120   0.490  10.736  14.207
73338W        W40121  21.716  40.651   3.162
73339W        W40122  22.766   9.695   4.628
73340W        W40123  36.942  26.983   2.730
73341W        W40124  22.785   6.942   4.730
73342W        W40125  12.639  21.694  11.475
73343W        W40126  12.245  20.163   3.109
73344W        W40127  26.734   5.272   2.878
73345W        W40128   4.662  24.631  13.338
73346W        W40129  15.682  10.928   4.169
73347W        W40130  11.139  10.097  11.620
73348W        W40131  36.914  14.047  12.432
73349W        W40132   9.264   7.287   1.815
73350W        W40133  12.793   1.252  10.733
73351W        W40134  36.864   5.181   1.458
73352W        W40135  16.640  44.967   4.072
73353W        W40136   0.588  41.490  11.751
73354W        W40137  18.690   7.991  10.667
73355W        W40138  40.575   9.126   3.047
73356W        W40139  20.073  39.972  10.641
73357W        W40140  25.000  17.803   2.112
73358W        W40141  39.851  10.546  11.313
73359W        W40142  38.879  41.869  12.495
73360W        W40143  37.466  22.251  11.665
73361W        W40144  29.142  31.623  13.341
73362W        W40145  14.817   0.958  14.796
73363W        W40146   3.442   1.505  12.902
73364W        W40147  21.074   5.001  11.285
73365W        W40148  33.937  40.000   3.126
73366W        W40149  27.524   1.767   0.945
73367W        W40150  15.564  26.111   0.441
73368W        W40151  41.513  16.606   2.865
73369W        W40152  34.396  42.226  12.994
73370W        W40153  43.196   9.899   5.071
73371W        W40154  30.205   1.072   0.499
73372W        W40155  11.826  19.001  13.435
73373W        W40156  35.135   3.510   5.150
73374W        W40157  11.680   3.682   1.382
73375W        W40158  15.085  39.246  13.445
73376W        W40159  44.711  41.379   1.393
73377W        W40160  43.283  29.463  12.678
73378W        W40161  21.256  27.424  11.869
73379W        W40162  23.167  39.554   0.938
73380W        W40163  26.936  39.566   2.471
73381W        W40164  36.586  20.740  12.464
73382W        W40165  29.140  14.273  14.747
73383W        W40166  15.143   0.977   2.247
73384W        W40167  36.607  36.115  14.785
73385W        W40168   1.906  21.744   1.421
73386W        W40169  16.727  32.633   0.646
73387W        W40170  38.595  28.801   3.941
73388W        W40171   7.658  21.254   0.419
73389W        W40172  28.189   1.917  10.152
73390W        W40173   2.264  16.740  11.157
73391W        W40174  39.037  23.990   3.353
73392W        W40175  32.934   9.338   2.283
73393W        W40176  33.990  14.518  10.997
73394W        W40177   2.220   1.244   2.178
73395W        W40178  32.052  33.079  14.698
73396W        W40179  23.075  22.242   3.075
73397W        W40180  42.477  29.052   2.128
73398W        W40181  32.988  29.676   1.328
73399W        W40182  25.031  43.380  11.060
73400W        W40183   5.631  34.235  12.545
73401W        W40184   2.371  33.979  11.560
73402W        W40185  33.642  28.597  11.658
73403W        W40186  22.437  41.886  10.504
73404W        W40187  23.489  23.522  12.077
73405W        W40188  42.541  40.996  14.121
73406W        W40189  13.832  34.179  14.544
73407W        W40190  37.999  15.450  11.236
73408W        W40191  15.348  28.046  14.624
73409W        W40192  24.964  33.947   3.094
73410W        W40193   2.245  13.315   0.076
73411W        W40194  41.376  15.311  11.353
73412W        W40195  41.900  26.873  12.097
73413W        W40196  25.058  11.718   0.685
73414W        W40197   3.241  16.132  14.777
73415W        W40198  19.241  35.844   0.863
73416W        W40199  30.621   5.133  13.199
73417W        W40200  23.168   8.223   4.552
73418W        W40201   2.239  44.586  11.300
73419W        W40202  44.284  30.498  14.004
73420W        W40203  18.061  14.158  12.229
73421W        W40204  26.584  42.851   2.609
73422W        W40205  23.211  24.251  13.024
73423W        W40206  23.876  40.131   4.653
73424W        W40207  24.201  35.997   5.288
73425W        W40208  26.738  24.828   3.758
73426W        W40209   3.984  29.110   1.786
73427W        W40210  30.093  42.922   0.192
73428W        W40211  12.576  14.555   1.851
73429W        W40212  44.757  37.424   2.050
73430W        W40213   8.649  37.159   2.202
73431W        W40214  17.515  26.560   4.592
73432W        W40215  37.667   8.726   1.817
73433W        W40216  40.583  44.250   1.684
73434W        W40217  13.685  29.442   3.351
73435W        W40218  14.819  25.522  14.220
73436W        W40219  14.302  20.781   4.225
73437W        W40220   9.597  13.993   4.538
73438W        W40221  28.070   7.946   4.631
73439W        W40222   9.811  12.908   0.511
73440W        W40223   6.889  30.148  14.840
73441W        W40224  26.512  33.513  10.679
73442W        W40225  27.478   3.111  11.115
73443W        W40226  30.075  33.982   4.937
73444W        W40227  29.713  40.951   2.776
73445W        W40228  17.621   6.164  11.077
73446W        W40229  21.743   5.781   4.475
73447W        W40230  42.063  13.743  10.829
73448W        W40231  39.872  26.115   2.297
73449W        W40232   0.071  38.984   4.093
73450W        W40233  36.891   1.293  14.128
73451W        W40234  12.560  31.094   4.927
73452W        W40235  13.331  27.401  10.785
73453W        W40236  21.814  44.923   2.816
73454W        W40237  21.123   3.034  13.027
73455W        W40238   8.477  19.820  11.611
73456W        W40239  43.319  21.525   0.367
73457W        W40240  37.260  25.015   3.777
73458W        W40241  10.069  27.112   2.304
73459W        W40242  31.384  26.433  12.578
73460W        W40243  18.696  38.768   4.637
73461W        W40244  42.789  37.148  10.437
73462W        W40245  38.430  18.701  14.951
73463W        W40246  12.405   7.146  14.376
73464W        W40247   8.843  23.452   2.620
73465W        W40248   8.824  33.792  11.993
73466W        W40249  33.030   1.177   2.880
73467W        W40250  24.378  31.473  13.588
73468W        W40251  24.195  36.396  14.950
73469W        W40252  22.181  10.738   1.171
73470W        W40253  23.990  26.632  11.650
73471W        W40254  38.496  18.248   4.614
73472W        W40255   3.231  13.601   4.649
73473W        W40256  24.846  27.012  12.150
73474W        W40257  13.661   8.840  11.166
73475W        W40258  25.153   6.492   3.411
73476W        W40259  27.362   2.219   2.794
73477W        W40260  42.420  26.149   2.593
73478W        W40261  30.058  10.250  13.181
73479W        W40262  18.289   8.692   2.364
73480W        W40263  38.206   8.823   1.934
73481W        W40264  23.771  27.951   1.275
73482W        W40265  43.700  22.748  12.108
73483W        W40266  21.423  23.094   2.685
73484W        W40267  35.438   8.726  14.895
73485W        W40268  40.895  37.963   2.699
73486W        W40269  13.135  13.567  14.713
73487W        W40270  28.502  13.269   1.333
73488W        W40271  24.629  33.545  14.055
73489W        W40272  30.429  12.774   3.185
73490W        W40273  24.726  25.055  14.925
73491W        W40274  37.575   3.713  14.725
73492W        W40275   4.730   8.269   0.743
73493W        W40276  33.160   2.158   3.353
73494W        W40277  30.206  20.191   2.561
73495W        W40278  37.033  38.032   4.869
73496W        W40279  43.676  16.694  13.653
73497W        W40280   8.064  31.510  14.803
73498W        W40281  12.820  16.779   1.457
73499W        W40282   7.781  43.237  13.475
73500W        W40283   2.113  41.900  12.436
73501W        W40284  35.509  23.123  12.389
73502W        W40285  39.346  32.952  11.092
73503W        W40286  41.398  38.318  10.772
73504W        W40287  22.141  16.336  14.257
73505W        W40288  14.176  37.703  10.226
73506W        W40289   0.881  42.024   4.141
73507W        W40290  18.059   8.772  10.512
73508W        W40291  39.258  35.879  14.643
73509W        W40292  16.856  25.955   4.325
73510W        W40293   7.952  24.055  14.259
73511W        W40294   4.718   3.960   4.349
73512W        W40295  27.191  37.618   1.427
73513W        W40296  18.170   7.139  11.583
73514W        W40297  12.921  10.873  13.945
73515W        W40298  10.614  11.156   3.691
73516W        W40299   5.221  11.650   0.669
73517W        W40300  29.163  10.174   3.729
73518W        W40301  18.551  21.526  11.299
73519W        W40302  40.701   0.867  11.480
73520W        W40303  36.793  29.647   0.871
73521W        W40304  12.778   8.895  14.245
73522W        W40305  17.976  28.069   4.509
73523W        W40306   0.670   5.942   3.819
73524W        W40307  23.675  25.714   3.243
73525W        W40308   5.927  37.140   0.477
73526W        W40309  23.258  41.760   0.880
73527W        W40310  16.352  28.567   1.305
73528W        W40311  26.737  28.151   0.736
73529W        W40312  29.026  24.903   4.100
73530W        W40313  38.482   5.257   2.196
73531W        W40314   2.265  39.545   4.720
73532W        W40315  21.418  14.860   3.638
73533W        W40316  26.189   9.175   2.917
73534W        W40317  24.659  12.256  13.845
73535W        W40318  30.531  37.680   3.842
73536W        W40319  32.658   7.293   2.677
73537W        W40320  14.897  20.482  10.490
73538W        W40321  24.268   7.423   3.600
73539W        W40322  12.706  36.286   0.030
73540W        W40323   2.421  34.749  12.149
73541W        W40324  17.402  27.490   2.795
73542W        W40325  27.405  30.076  11.500
73543W        W40326  38.184  30.022   5.020
73544W        W40327  41.668  30.402   2.879
73545W        W40328   7.287  19.162   0.908
73546W        W40329  29.891   5.624  13.553
73547W        W40330  15.542  16.677   3.652
73548W        W40331   7.433  40.294   3.744
73549W        W40332   5.889  20.468  14.031
73550W        W40333  33.665  38.524   1.479
73551W        W40334  42.464  23.932   1.503
73552W        W40335  11.031  28.584   3.616
73553W        W40336  29.731  30.484   4.189
73554W        W40337  32.106  44.995  11.572
73555W        W40338  29.586  37.037  11.316
73556W        W40339  38.540  22.220   3.248
73557W        W40340  38.044  33.906  14.614
73558W        W40341  18.013  13.688  11.097
73559W        W40342  16.959  20.383   3.261
73560W        W40343  16.210  32.273   4.547
73561W        W40344   6.817  10.158  13.726
73562W        W40345  18.917   9.358   0.637
73563W        W40346  12.907   7.332   0.802
73564W        W40347   3.967  23.102  12.601
73565W        W40348  43.287  17.279  12.826
73566W        W40349  20.180  11.052   0.424
73567W        W40350   7.759  27.613  13.720
73568W        W40351   4.203   5.675  13.350
73569W        W40352  34.075  34.395  13.746
73570W        W40353  43.801  44.747  12.563
73571W        W40354  30.191  19.218  13.048
73572W        W40355  12.874  25.587   0.320
73573W        W40356  29.930  41.135  11.506
73574W        W40357  32.592  44.715  13.261
73575W        W40358  33.986   5.957  13.434
73576W        W40359  35.008  26.907   2.919
73577W        W40360   3.075  32.241   4.255
73578W        W40361  20.526  34.003   2.615
73579W        W40362  28.119  11.009   1.700
73580W        W40363  21.938  29.422   4.331
73581W        W40364  33.036  12.343  12.485
73582W        W40365  21.213   1.722   4.638
73583W        W40366  41.228   4.979  10.625
73584W        W40367  28.717   6.503  13.495
73585W        W40368   6.502  27.403  12.443
73586W        W40369  10.395  29.253   4.115
73587W        W40370  17.939   7.288  13.586
73588W        W40371  10.785  36.046  11.901
73589W        W40372  36.986  13.818  14.704
73590W        W40373  16.307  17.418   0.538
73591W        W40374  23.234  20.984  11.985
73592W        W40375  22.042  26.218  13.977
73593W        W40376  31.871  24.695  10.657
73594W        W40377  38.271   4.638   2.765
73595W        W40378   1.576  30.602   2.807
73596W        W40379  34.952  23.091   1.388
73597W        W40380  37.034  27.449  13.373
73598W        W40381  41.048  42.373   0.381
73599W        W40382   4.676  34.857   0.101
73600W        W40383   1.407  38.077   3.815
73601W        W40384  26.848  32.365  10.413
73602W        W40385  25.684  11.048  13.922
73603W        W40386   6.059  26.787  10.118
73604W        W40387  42.958  29.559   4.157
73605W        W40388  14.305  25.424   3.680
73606W        W40389   5.816  23.493   1.008
73607W        W40390  38.380  24.550  11.431
73608W        W40391  21.107  40.928  11.953
73609W        W40392  17.569   9.373   4.164
73610W        W40393  12.734  37.046   1.946
73611W        W40394   5.282   1.958  11.594
73612W        W40395  44.034   5.440  12.508
73613W        W40396  41.827  39.468  11.364
73614W        W40397   8.626   6.117  11.166
73615W        W40398   4.316  35.266  14.312
73616W        W40399  38.896  11.925  11.011
73617W        W40400  41.817  33.108   3.281
73618W        W40401  12.601   5.517   0.865
73619W        W40402  25.243  35.560  13.899
73620W        W40403   0.882  25.367   0.934
73621W        W40404  34.204  43.399   4.542
73622W        W40405   9.676  31.152  12.126
73623W        W40406  10.392  17.804   1.252
73624W        W40407  43.913  42.559  14.912
73625W        W40408  10.185  30.036  11.606
73626W        W40409  40.249  21.751   1.871
73627W        W40410  32.163   4.287  14.231
73628W        W40411  35.001  24.589   3.576
73629W        W40412  29.678  37.461   1.126
73630W        W40413  12.069  31.614   1.381
73631W        W40414   2.384  38.008   2.639
73632W        W40415  28.943  42.533  14.064
73633W        W40416  39.612   9.930   5.149
73634W        W40417  26.391  15.187   3.818
73635W        W40418  36.914  26.595  12.457
73636W        W40419   6.845  39.897  10.920
73637W        W40420   7.361  18.965  14.821
73638W        W40421  26.516   5.836   9.863
73639W        W40422   9.322  36.006  12.582
73640W        W40423  13.204  23.822  10.813
73641W        W40424  14.765  43.011  10.032
73642W        W40425  31.014  32.766  13.438
73643W        W40426   9.262  21.401   1.374
73644W        W40427  35.200  30.608  13.792
73645W        W40428  19.133  21.387  12.556
73646W        W40429  16.156  17.163   1.262
73647W        W40430  21.631  22.762  14.395
73648W        W40431  36.851  20.531   3.133
73649W        W40432  18.660  27.627   4.136
73650W        W40433  44.538  43.930  12.988
73651W        W40434  13.749   5.963  12.627
73652W        W40435   5.878  34.422   3.676
73653W        W40436  24.389  29.963   2.283
73654W        W40437  26.803  42.994   9.835
73655W        W40438   3.198  13.883   5.067
73656W        W40439  17.143  38.985   0.394
73657W        W40440  39.976  38.355  13.542
73658W        W40441  35.376  40.936   4.237
73659W        W40442  28.620  10.349   3.504
73660W        W40443  41.422  18.226   1.155
73661W        W40444   0.405  26.194   1.233
73662W        W40445   9.478   0.322   1.164
73663W        W40446  16.873   1.384   5.013
73664W        W40447  14.090  28.030   0.098
73665W        W40448   4.217  39.004   0.643
73666W        W40449  11.420   4.384  14.391
73667W        W40450  37.542  36.937  11.963
73668W        W40451  11.290  22.892   0.199
73669W        W40452   4.790  41.514   0.002
73670W        W40453  17.778   4.311   1.615
73671W        W40454  34.400   5.855  12.154
73672W        W40455  40.242  28.115   3.161
73673W        W40456   2.941  11.632   1.160
73674W        W40457  24.369  44.518   4.001
73675W        W40458  42.406  40.318  13.149
73676W        W40459  34.827  13.118  12.676
73677W        W40460   3.870  31.889  12.428
73678W        W40461  23.967  39.919  14.356
73679W        W40462  41.294   9.176   1.703
73680W        W40463  39.312   1.434   1.642
73681W        W40464   5.926  34.462  12.165
73682W        W40465  32.641  28.086  14.236
73683W        W40466   8.268   3.134   1.431
73684W        W40467  17.361  22.127  12.364
73685W        W40468  38.457  36.817  13.780
73686W        W40469   7.564   4.397  11.259
73687W        W40470  27.637   8.213  13.504
73688W        W40471  21.786  16.148  14.575
73689W        W40472  13.325  21.105  11.699
73690W        W40473   9.547   2.956  11.115
73691W        W40474  33.389  38.465  10.342
73692W        W40475  15.267   8.928   1.285
73693W        W40476  32.179  19.069  12.922
73694W        W40477  33.153  18.246  13.105
73695W        W40478  31.380   5.491   1.470
73696W        W40479  43.779  20.011   1.240
73697W        W40480  29.156  31.401   0.867
73698W        W40481  29.201  23.723  11.229
73699W        W40482  15.138  27.502   3.175
73700W        W40483   3.760  35.910  12.237
73701W        W40484   0.228  32.424   0.184
73702W        W40485   1.403  28.828   4.099
73703W        W40486   2.184  23.584  12.538
73704W        W40487   1.960  29.686  14.313
73705W        W40488  34.478  18.070  13.451
73706W        W40489  28.907  26.664   0.259
73707W        W40490  25.130  31.670  11.985
73708W        W40491   0.160  16.795   0.789
73709W        W40492   2.674  21.398  13.401
73710W        W40493  17.709  18.653   0.864
73711W        W40494   9.601   3.426  11.658
73712W        W40495  32.890   3.818   4.470
73713W        W40496  36.398  23.119   4.555
73714W        W40497  35.318  24.588  13.110
73715W        W40498  24.621   7.752   3.405
73716W        W40499  25.764   9.939   0.340
73717W        W40500  40.822  15.782   3.987
73718W        W40501   9.878  24.948  11.126
73719W        W40502  43.896  31.623   1.926
73720W        W40503  29.142  28.780  11.921
73721W        W40504  24.480  18.948   0.818
73722W        W40505  13.799   8.183  10.118
73723W        W40506  41.026   2.352  10.576
73724W        W40507   2.724   3.532  13.163
73725W        W40508  18.239  38.057  13.512
73726W        W40509  41.327  29.432  14.097
73727W        W40510  36.976  21.796  13.779
73728W        W40511   5.677  10.142   1.248
73729W        W40512  42.016  26.479  12.906
73730W        W40513   2.363  26.719   3.317
73731W        W40514   6.317  42.809   0.564
73732W        W40515  25.060  31.651   2.716
73733W        W40516  40.883  16.191   0.940
73734W        W40517  27.637   4.936  11.859
73735W        W40518  37.015  29.409  14.424
73736W        W40519   4.166  16.282   4.254
73737W        W40520  37.604  32.597   1.823
73738W        W40521  36.433  44.197   4.045
73739W        W40522   9.197   4.212   3.656
73740W        W40523  43.448  28.043   0.109
73741W        W40524  15.414  20.362  14.900
73742W        W40525   4.734  40.327  10.547
73743W        W40526  17.812  42.959  13.050
73744W        W40527   9.241  32.801   0.631
73745W        W40528   8.109   7.607   3.640
73746W        W40529  16.736  28.142  14.271
73747W        W40530   4.831  11.370   2.282
73748W        W40531  10.789  20.437   4.612
73749W        W40532  39.129  34.002  14.911
73750W        W40533  39.842  15.967   1.306
73751W        W40534  36.304   9.327   3.284
73752W        W40535   4.756  32.857   1.081
73753W        W40536  19.664  29.227   2.218
73754W        W40537  23.555   3.637   2.265
73755W        W40538  31.526  41.489  13.012
73756W        W40539  41.518  23.138  12.062
73757W        W40540   4.927  12.920   3.456
73758W        W40541  14.813   9.447   9.809
73759W        W40542  35.357   8.144   5.370
73760W        W40543   4.767  35.111   1.098
73761W        W40544  43.201  13.432  13.313
73762W        W40545  13.255  39.243   1.436
73763W        W40546   9.639  14.048  12.480
73764W        W40547   7.290  20.703   1.714
73765W        W40548  17.645   9.146  14.607
73766W        W40549  37.876  38.829  12.170
73767W        W40550  27.989   8.183  11.513
73768W        W40551  41.508  11.111   3.629
73769W        W40552  18.436  16.090   2.792
73770W        W40553  38.760  37.366  10.288
73771W        W40554  23.132  12.744   0.400
73772W        W40555  29.487  21.978   4.459
73773W        W40556  40.497  10.290  14.507
73774W        W40557  13.030  16.213   3.470
73775W        W40558  20.818   8.386  12.213
73776W        W40559  15.043  21.082   2.118
73777W        W40560  23.044  42.420  12.038
73778W        W40561  32.323  27.974  14.696
73779W        W40562  28.313  36.945  11.725
73780W        W40563   4.802  12.176   0.278
73781W        W40564  41.995   0.925   3.505
73782W        W40565   4.751   0.874  12.004
73783W        W40566   8.896  19.037   3.912
73784W        W40567  14.706  15.175  13.625
73785W        W40568  21.689  27.137   0.699
73786W        W40569  19.564   7.683  12.891
73787W        W40570  31.892  25.611   2.002
73788W        W40571  35.833   3.210   1.208
73789W        W40572   3.409  43.828   4.598
73790W        W40573  15.587  22.337   2.628
73791W        W40574  24.043   3.404   0.705
73792W        W40575  24.018  36.867  12.536
73793W        W40576  18.136  40.540  10.442
73794W        W40577  42.667  41.993  13.760
73795W        W40578  25.414  20.721  11.253
73796W        W40579  32.546  35.397   0.818
73797W        W40580  38.264  19.190  13.057
73798W        W40581  35.443  39.031  10.948
73799W        W40582  42.511   3.343   4.394
73800W        W40583  34.881  26.242  12.974
73801W        W40584  41.751  36.056  12.493
73802W        W40585   7.650  17.814   1.430
73803W        W40586  38.583  28.493  12.086
73804W        W40587   4.965  22.114  10.641
73805W        W40588  35.053  24.651   2.532
73806W        W40589  23.175  15.765   3.560
73807W        W40590  36.118  23.543   1.610
73808W        W40591   4.325  11.711   4.435
73809W        W40592  29.302  23.992  11.693
73810W        W40593  16.514  20.633  14.169
73811W        W40594  42.796  12.308   0.369
73812W        W40595  44.727  21.688   3.402
73813W        W40596  16.206  44.324   0.052
73814W        W40597  24.065  36.942   4.758
73815W        W40598  40.800  42.830  10.694
73816W        W40599   5.955   5.838   0.237
73817W        W40600  27.602   4.131   4.395
73818W        W40601  29.925  39.963   5.169
73819W        W40602  37.615  22.206   1.395
73820W        W40603   3.914  20.787  10.537
73821W        W40604  22.101  11.747   0.343
73822W        W40605  22.731  28.163  10.540
73823W        W40606  19.604  40.040   2.489
73824W        W40607  21.471   6.115   4.169
73825W        W40608  23.464  32.488  13.819
73826W        W40609  20.272  32.535   0.023
73827W        W40610  10.837  33.402  12.990
73828W        W40611  32.203   8.700  14.852
73829W        W40612  30.370  34.935  14.659
73830W        W40613   5.831  28.030   3.968
73831W        W40614  41.003  15.155  14.408
73832W        W40615  34.335  25.850   3.207
73833W        W40616  20.380   8.106  11.383
73834W        W40617  31.862  17.710   1.971
73835W        W40618  22.913  40.751   4.590
73836W        W40619  43.486  14.156   0.019
73837W        W40620  22.705  22.328   5.164
73838W        W40621  28.684  13.151  11.492
73839W        W40622  13.839   9.960  11.695
73840W        W40623  39.541  44.811  10.741
73841W        W40624  43.043  13.038   3.325
73842W        W40625  17.265  23.155   4.743
73843W        W40626  29.452  33.471  11.149
73844W        W40627   1.760  14.227  13.828
73845W        W40628  31.429  10.859  14.734
73846W        W40629   0.490   0.390   4.248
73847W        W40630  35.982  17.061  14.889
73848W        W40631  36.378  12.378  13.127
73849W        W40632  40.265  38.501  14.451
73850W        W40633  13.846  36.043   4.579
73851W        W40634  32.898   1.915  14.560
73852W        W40635  38.375  14.608  14.352
73853W        W40636  27.969  10.847  12.464
73854W        W40637  16.563   1.739  12.144
73855W        W40638   4.097  43.423   2.143
73856W        W40639  16.035  10.159  10.711
73857W        W40640  39.823   8.340  13.498
73858W        W40641   2.060  12.727   1.356
73859W        W40642  25.803   3.933  10.759
73860W        W40643   0.546  12.636  10.168
73861W        W40644   3.988  35.127  12.833
73862W        W40645  12.865   0.644  12.355
73863W        W40646  10.116  35.470  13.513
73864W        W40647   9.812  32.473   3.635
73865W        W40648   1.640  36.497   1.743
73866W        W40649  34.112  32.282   5.078
73867W        W40650  12.291   5.998  13.031
73868W        W40651  27.994  20.965  10.533
73869W        W40652  33.715  40.463   3.301
73870W        W40653  42.574  22.961  14.307
73871W        W40654  38.549  12.120   0.754
73872W        W40655  26.985  20.388  13.795
73873W        W40656  20.093  43.393   1.462
73874W        W40657  10.351  33.189   2.870
73875W        W40658  14.789  10.394  12.127
73876W        W40659   5.725   2.701  11.554
73877W        W40660  31.744  37.331   0.891
73878W        W40661  25.650  32.671   1.741
73879W        W40662  22.700   1.053   5.428
73880W        W40663  22.618  20.952  12.703
73881W        W40664   6.301  41.474   5.023
73882W        W40665  41.998  28.114   2.759
73883W        W40666  31.905  11.924  13.760
73884W        W40667  17.526  22.706  10.329
73885W        W40668  13.902  11.103   4.560
73886W        W40669  31.138  41.803  12.550
73887W        W40670  15.595  32.974  11.821
73888W        W40671  23.291  13.317   1.878
73889W        W40672  39.380  25.705   1.348
73890W        W40673  26.671  38.649   0.835
73891W        W40674  13.398  40.770   1.944
73892W        W40675  41.942  44.059  13.787
73893W        W40676  12.859   8.327   3.603
73894W        W40677  42.818  33.009   1.045
73895W        W40678  29.211  12.125  14.402
73896W        W40679  44.228  15.343   0.436
73897W        W40680   6.832  24.066  11.298
73898W        W40681  31.418  44.873  13.382
73899W        W40682  34.700  41.149   2.757
73900W        W40683  41.803  31.656   3.305
73901W        W40684  23.155  23.505   0.831
73902W        W40685  22.771  12.232   1.592
73903W        W40686  37.423  44.700  11.204
73904W        W40687  21.151  38.039   3.156
73905W        W40688  43.367  20.644   0.885
73906W        W40689   8.386  16.582   2.650
73907W        W40690  44.524  18.098  13.026
73908W        W40691  22.256  28.728   1.424
73909W        W40692  20.253  31.036  12.939
73910W        W40693  13.814  20.416   2.093
73911W        W40694  22.252  41.007   3.389
73912W        W40695  38.478  15.210  11.000
73913W        W40696  42.494  43.674  12.057
73914W        W40697   0.253  28.990   4.184
73915W        W40698  36.375  28.775  12.971
73916W        W40699  16.379  42.279  13.083
73917W        W40700  18.890  14.660   0.823
73918W        W40701   0.433   6.828  13.657
73919W        W40702  27.493   1.969  12.213
73920W        W40703  29.655  23.242  13.383
73921W        W40704  32.185  24.697   4.323
73922W        W40705   0.234  19.596   2.810
73923W        W40706  25.319  20.853  10.756
73924W        W40707  20.311  35.520   3.717
73925W        W40708  39.794   0.730  11.155
73926W        W40709   7.075  29.020  11.581
73927W        W40710  13.362  38.796  14.876
73928W        W40711  40.035  21.446   2.239
73929W        W40712  36.450  40.743  13.235
73930W        W40713   4.290  14.943   0.444
73931W        W40714  28.946  42.434  11.524
73932W        W40715  18.539  17.843   1.303
73933W        W40716   2.302  25.457  11.621
73934W        W40717  18.698   3.670   1.654
73935W        W40718   7.279  16.703   0.516
73936W        W40719  39.402  12.527  12.484
73937W        W40720  34.879  20.820  11.612
73938W        W40721  38.506  40.723   4.707
73939W        W40722  13.068  24.625   3.382
73940W        W40723  35.397   0.077  13.561
73941W        W40724  36.138  28.200   3.750
73942W        W40725   7.130  27.891   0.474
73943W        W40726  28.359  44.995  12.783
73944W        W40727  21.361   8.259  10.713
73945W        W40728  29.344   0.463  10.685
73946W        W40729  19.911   3.824  12.465
73947W        W40730   3.512   9.309   1.725
73948W        W40731  21.903  44.282   3.619
73949W        W40732  37.851   7.370   0.691
73950W        W40733   3.040  24.096  11.241
73951W        W40734   8.657  30.116   3.671
73952W        W40735   9.437   4.405  14.404
73953W        W40736  29.992  29.679   0.765
73954W        W40737  31.215  24.123   4.934
73955W        W40738  41.486  23.239   0.397
73956W        W40739  35.040  23.219  13.301
73957W        W40740  16.609  31.600   1.422
73958W        W40741  44.330  36.716  11.571
73959W        W40742  11.439   8.638   4.130
73960W        W40743  10.959  32.843   1.257
73961W        W40744  37.860   2.925   0.428
73962W        W40745  19.544   5.636   4.041
73963W        W40746  16.368  28.922   2.080
73964W        W40747   6.179  18.820   0.222
73965W        W40748  25.509  34.476  13.374
73966W        W40749  33.024  21.727   1.472
73967W        W40750  25.489  19.845   1.673
73968W        W40751  43.294  24.544   4.508
73969W        W40752   1.236  14.363  13.819
73970W        W40753  36.457  44.434   2.609
73971W        W40754  42.809   6.432   1.102
73972W        W40755  35.418  36.011  10.785
73973W        W40756  12.407   3.584   2.256
73974W        W40757  41.419   6.150   4.450
73975W        W40758   8.199  29.655  12.398
73976W        W40759  14.255  35.299  10.685
73977W        W40760  42.039  29.394   0.011
73978W        W40761  10.194  40.771   0.834
73979W        W40762  21.746  12.163   1.766
73980W        W40763  21.645   7.240   0.933
73981W        W40764  20.999  32.918  12.644
73982W        W40765  18.647  37.271   0.557
73983W        W40766  22.171  27.537  13.620
73984W        W40767   6.590  28.928   2.735
73985W        W40768  31.526  32.589   2.617
73986W        W40769  33.990   1.431   0.419
73987W        W40770  28.919  15.124   0.345
73988W        W40771  19.122  38.806   1.357
73989W        W40772  16.716  13.304   1.009
73990W        W40773  28.149   9.752   1.008
73991W        W40774   8.938  14.062  13.599
73992W        W40775  33.588  38.044   0.751
73993W        W40776  44.338  14.839   0.490
73994W        W40777  23.267  21.212   4.441
73995W        W40778   8.219  26.076   4.140
73996W        W40779  33.071  21.613  14.916
73997W        W40780  41.197  10.259  12.026
73998W        W40781  37.818   2.729  13.010
73999W        W40782  12.033   6.416  11.759
74000W        W40783   1.444  39.655   0.377
74001W        W40784  15.230   0.946  13.431
74002W        W40785  39.559  38.118   3.148
74003W        W40786  29.500   1.449  12.011
74004W        W40787  35.585  10.626  11.014
74005W        W40788  17.690  28.858   1.970
74006W        W40789  38.113   6.326   4.604
74007W        W40790  36.076  12.765   3.663
74008W        W40791  28.219  31.008  12.770
74009W        W40792  39.872  34.237  13.526
74010W        W40793  17.951   9.675  11.878
74011W        W40794   6.808  24.405  13.724
74012W        W40795  13.221  34.929  14.664
74013W        W40796  36.402  38.837   1.363
74014W        W40797   1.766  41.275   4.313
74015W        W40798   8.757  12.023  12.133
74016W        W40799  16.056  44.340   1.403
74017W        W40800  35.012  22.020   3.329
74018W        W40801  34.503  44.385   2.074
74019W        W40802  14.167  41.006   3.211
74020W        W40803  16.984  42.034   0.199
74021W        W40804  37.231  28.283   1.744
74022W        W40805  11.049  19.654   4.826
74023W        W40806  32.992  18.631  10.535
74024W        W40807  41.346  27.092   2.108
74025W        W40808  35.915  39.123   1.630
74026W        W40809  18.082  43.872  13.764
74027W        W40810   9.295  34.336  13.527
74028W        W40811  38.621  44.674   2.498
74029W        W40812   8.411  16.462  10.867
74030W        W40813  29.826  24.102  11.670
74031W        W40814  18.769  44.514   2.789
74032W        W40815  27.175  15.224  13.951
74033W        W40816  22.489  43.245   0.401
74034W        W40817   9.624  29.073   4.493
74035W        W40818  31.189  41.815  13.903
74036W        W40819  22.770   8.445   3.250
74037W        W40820  16.360  39.592  11.446
74038W        W40821  30.124  38.916  13.568
74039W        W40822  33.060  26.414   2.720
74040W        W40823  24.467  33.883  11.615
74041W        W40824  25.878   2.581   0.284
74042W        W40825  23.001  11.157  11.199
74043W        W40826   4.841  41.233   1.086
74044W        W40827  37.033  30.274  11.974
74045W        W40828  30.006   7.846   0.485
74046W        W40829   5.956  23.409  11.270
74047W        W40830  37.388  21.268   3.094
74048W        W40831  28.703  34.889  14.902
74049W        W40832   6.917   7.393  10.735
74050W        W40833  44.625  21.766   3.906
74051W        W40834  16.103  31.374   0.905
74052W        W40835  39.049  39.902  11.958
74053W        W40836  16.717  33.748  13.894
74054W        W40837   4.901  19.001  13.290
74055W        W40838  32.584  19.123  12.610
74056W        W40839   8.600  21.728  13.831
74057W        W40840   2.851  25.598   4.474
74058W        W40841  23.906   5.493   0.105
74059W        W40842  27.773  28.484  12.958
74060W        W40843  13.382  26.674   1.304
74061W        W40844   2.806  33.057   1.345
74062W        W40845  17.753  22.395   2.839
74063W        W40846  20.594   1.783  13.077
74064W        W40847  42.898  12.614   0.774
74065W        W40848  41.021  20.482  14.648
74066W        W40849  36.356  17.207   0.810
74067W        W40850  29.524  13.944  14.807
74068W        W40851  38.128  30.677  11.133
74069W        W40852   3.193  34.418  14.832
74070W        W40853   9.285  11.835   0.762
74071W        W40854  39.875  32.921   4.607
74072W        W40855  35.568  30.578  12.562
74073W        W40856  26.155  17.923  12.083
74074W        W40857   8.001   2.134  14.085
74075W        W40858  35.855  32.990  13.771
74076W        W40859  32.600  43.728  10.791
74077W        W40860   9.944   8.980   2.233
74078W        W40861  22.630   3.226   0.915
74079W        W40862   8.547  14.688  12.974
74080W        W40863  36.326  39.061  13.131
74081W        W40864  12.033  13.625   0.379
74082W        W40865  23.724   0.890   2.735
74083W        W40866   4.541   7.731  14.226
74084W        W40867   9.811  20.897   0.859
74085W        W40868  13.880  17.613   4.463
74086W        W40869  36.669   6.212  10.351
74087W        W40870  40.136  14.764  10.801
74088W        W40871   1.328  30.703  10.635
74089W        W40872  31.438  34.094   1.845
74090W        W40873  34.003  42.448  12.374
74091W        W40874  10.907   9.698   3.764
74092W        W40875   3.282  39.270   2.718
74093W        W40876  12.342  10.954  11.636
74094W        W40877  30.752   9.810  11.722
74095W        W40878  23.106   9.142  12.104
74096W        W40879  17.211  37.588   1.941
74097W        W40880  18.467  41.047  13.044
74098W        W40881  15.555  35.443  13.768
74099W        W40882  15.086  36.042  12.629
74100W        W40883   8.598  21.783   3.565
74101W        W40884  12.654  29.014   1.673
74102W        W40885  12.730  20.741   2.296
74103W        W40886  41.616  43.830   1.262
74104W        W40887  17.186  23.699   2.765
74105W        W40888  18.474  29.244  12.993
74106W        W40889  34.386  43.923   2.774
74107W        W40890  35.502  26.234   4.671
74108W        W40891  25.981  26.641   1.406
74109W        W40892  12.138  23.702   2.201
74110W        W40893  43.157  10.974  13.546
74111W        W40894  35.847   2.949  12.584
74112W        W40895  17.290   7.435   3.300
74113W        W40896  42.233  22.976   1.900
74114W        W40897  39.047   5.956  12.371
74115W        W40898   5.436  31.007   1.186
74116W        W40899  12.177   4.326   2.737
74117W        W40900   3.928  15.655   2.184
74118W        W40901  31.897  26.734   2.926
74119W        W40902  39.313   2.789  10.595
74120W        W40903   3.242  19.798   3.589
74121W        W40904  28.582  16.661   0.218
74122W        W40905  37.533  25.742  12.996
74123W        W40906  38.576  37.652  12.154
74124W        W40907   8.364   4.771   1.810
74125W        W40908  26.094  42.142  10.335
74126W        W40909  43.907   1.506   0.840
74127W        W40910   7.029  23.476  14.890
74128W        W40911   2.478  43.548  12.943
74129W        W40912  33.393  33.592  11.167
74130W        W40913  32.806   5.944   4.449
74131W        W40914  15.416   2.315   2.626
74132W        W40915  25.053   5.970  11.435
74133W        W40916   6.211  25.276  11.691
74134W        W40917  13.096  17.139   4.175
74135W        W40918   2.070   1.246  13.064
74136W        W40919  38.889  26.449  10.065
74137W        W40920  20.105  29.874   3.151
74138W        W40921  39.442  43.370   4.503
74139W        W40922  34.400  22.217   2.789
74140W        W40923  27.090   3.729   0.076
74141W        W40924  29.751  40.419   4.994
74142W        W40925  35.765  21.072  12.457
74143W        W40926  24.591   0.597   3.100
74144W        W40927   7.303  36.620   1.283
74145W        W40928  38.298  22.517  10.410
74146W        W40929  30.859  41.778   0.735
74147W        W40930  32.165  42.231  11.906
74148W        W40931  26.738  10.278   4.945
74149W        W40932  12.547  31.012   2.634
74150W        W40933  11.643  24.263  14.433
74151W        W40934  31.007  23.291   0.398
74152W        W40935  37.008  42.509  13.413
74153W        W40936  25.420  35.306  11.158
74154W        W40937  19.040  44.764   2.360
74155W        W40938  37.996  11.220  10.525
74156W        W40939  14.432  10.535  14.811
74157W        W40940   6.788  38.158  12.505
74158W        W40941   2.323   3.877  13.922
74159W        W40942  10.001  11.213  11.904
74160W        W40943  43.634  10.803  12.210
74161W        W40944   9.747  30.501   3.345
74162W        W40945  23.965  44.395   0.237
74163W        W40946  17.745  27.007  14.382
74164W        W40947   0.419  44.369   3.324
74165W        W40948  36.366  37.928   4.055
74166W        W40949  32.052  32.515   2.510
74167W        W40950   1.773  26.748   4.751
74168W        W40951   9.834  38.243  14.203
74169W        W40952  40.099  36.665   0.956
74170W        W40953  13.665  37.721  11.688
74171W        W40954  24.660   4.987   0.536
74172W        W40955  34.895  42.860   1.180
74173W        W40956  34.312  21.867   4.964
74174W        W40957  22.049   5.010  11.433
74175W        W40958  32.410   9.288   1.342
74176W        W40959   4.179  27.682   2.407
74177W        W40960  14.304   8.399  14.948
74178W        W40961  11.604  23.099  14.723
74179W        W40962  31.453  30.137  10.745
74180W        W40963  19.936  36.526   0.202
74181W        W40964   9.649  10.680  13.508
74182W        W40965  24.615  43.693   3.068
74183W        W40966  21.849  10.789  11.122
74184W        W40967   2.026  24.153   2.743
74185W        W40968  11.838  27.752  14.370
74186W        W40969   4.329   6.772   2.810
74187W        W40970  15.859  29.990  11.625
74188W        W40971   3.406  40.897  11.115
74189W        W40972  10.402  15.266   2.757
74190W        W40973  39.026  23.169  10.877
74191W        W40974  15.137   1.785   4.903
74192W        W40975   9.835   3.495  14.406
74193W        W40976   3.948  27.841  11.516
74194W        W40977  44.308  11.321   2.125
74195W        W40978   8.341   0.423   4.672
74196W        W40979  39.350   9.152  12.133
74197W        W40980  26.711  32.080   0.829
74198W        W40981  41.474  35.059  14.380
74199W        W40982  41.065  38.992  13.937
74200W        W40983  27.727  34.010   0.902
74201W        W40984  40.563  21.009   1.706
74202W        W40985  15.116  37.044  12.969
74203W        W40986  38.254   8.811  14.863
74204W        W40987  33.374   3.610   3.707
74205W        W40988  29.215   2.914   0.507
74206W        W40989   3.275  43.299   3.376
74207W        W40990  42.873   8.039  14.909
74208W        W40991  25.124  34.534  12.449
74209W        W40992  26.953  29.078  14.374
74210W        W40993  17.724  37.017  14.253
74211W        W40994   2.064  19.296   3.595
74212W        W40995  12.339  31.418   2.876
74213W        W40996   0.517   2.231  13.895
74214W        W40997  34.573  19.470  13.825
74215W        W40998   1.539  37.429  12.758
74216W        W40999  43.404   9.708  10.977
74217W        W41000  39.898  41.264   4.112
74218W        W41001  35.995  14.259   4.659
74219W        W41002  41.430   9.417   1.110
74220W        W41003  11.838  38.485  11.515
74221W        W41004  27.944  38.863   2.817
74222W        W41005   5.283  41.495   0.311
74223W        W41006  23.295  30.572  12.780
74224W        W41007   9.740  31.703   0.387
74225W        W41008  31.373   8.102  13.076
74226W        W41009  26.624  30.695   3.890
74227W        W41010  29.639   7.065   3.894
74228W        W41011  18.589  11.792  13.922
74229W        W41012  22.946  30.315  11.072
74230W        W41013  31.547  21.723   3.574
74231W        W41014   1.005  33.452  11.700
74232W        W41015  15.309  25.762  14.237
74233W        W41016   3.016   1.755   2.739
74234W        W41017  38.286  35.776  11.125
74235W        W41018  33.819  19.757  14.388
74236W        W41019  19.376   6.916   3.712
74237W        W41020   2.682  35.086   2.138
74238W        W41021  32.227  42.783   2.611
74239W        W41022  36.565  17.779   3.707
74240W        W41023   6.529  30.549  14.848
74241W        W41024  38.271  30.115   1.391
74242W        W41025  13.482  42.972   3.750
74243W        W41026  10.852  30.975  12.612
74244W        W41027  30.709   3.332  12.939
74245W        W41028  16.626   2.776  13.602
74246W        W41029  18.770  16.747  12.102
74247W        W41030   0.317   8.863  12.461
74248W        W41031   6.100  41.833   0.883
74249W        W41032  38.058  32.361   3.457
74250W        W41033  33.719  42.101  11.579
74251W        W41034  32.789   3.341  14.303
74252W        W41035   1.915   6.927  10.793
74253W        W41036  13.198  36.843   2.234
74254W        W41037  41.337  25.644  12.424
74255W        W41038  34.814  18.699  14.801
74256W        W41039  27.974   6.381  14.754
74257W        W41040   0.669   9.881   2.917
74258W        W41041  31.159  10.144   4.621
74259W        W41042  39.763   1.429   0.861
74260W        W41043  36.372  10.151  12.409
74261W        W41044   7.980  44.612  14.473
74262W        W41045   9.704  31.333   1.260
74263W        W41046  31.925  37.044   0.494
74264W        W41047   6.370  19.655  13.055
74265W        W41048  28.413  39.796  14.859
74266W        W41049  18.944  19.790   0.362
74267W        W41050   8.296   8.279   4.923
74268W        W41051   2.775   5.863   0.974
74269W        W41052  40.294  13.631  14.452
74270W        W41053  21.520  31.099   4.324
74271W        W41054   9.385   7.294   3.390
74272W        W41055   3.209  34.232  10.360
74273W        W41056  15.240  42.069   4.904
74274W        W41057  43.109   6.670  10.750
74275W        W41058  19.166  43.182   1.209
74276W        W41059  41.222   7.884  14.506
74277W        W41060  41.856  35.343  12.004
74278W        W41061  28.315  26.634   4.364
74279W        W41062   3.219  30.418  10.628
74280W        W41063  29.437  21.212  10.756
74281W        W41064  14.908  19.360   4.156
74282W        W41065   0.003   6.224  14.915
74283W        W41066  25.060  44.074   3.084
74284W        W41067   0.813   5.219  13.987
74285W        W41068  40.567  37.292   2.752
74286W        W41069  35.295  31.533   2.239
74287W        W41070  44.507  24.207   2.751
74288W        W41071   0.456  34.081   0.008
74289W        W41072  18.679  20.168   3.749
74290W        W41073  15.975  21.383   5.015
74291W        W41074   6.745  19.412   1.454
74292W        W41075  17.138  15.793   2.417
74293W        W41076  28.950  20.280   4.084
74294W        W41077  29.257  16.670   1.540
74295W        W41078  37.291  14.121   0.756
74296W        W41079  26.733  17.988   4.154
74297W        W41080  34.308  11.279  11.985
74298W        W41081  30.746  34.723  11.419
74299W        W41082  27.673   2.999  12.446
74300W        W41083  38.104   7.301  10.158
74301W        W41084  44.285  36.120  10.399
74302W        W41085  29.893  20.225   3.732
74303W        W41086  41.366   9.548   0.571
74304W        W41087  35.741  27.694   1.168
74305W        W41088  35.458   2.696   0.614
74306W        W41089  30.179  43.940  13.084
74307W        W41090  17.439  37.822   4.078
74308W        W41091  38.980  23.060   4.194
74309W        W41092  26.911  43.357  14.423
74310W        W41093   5.140  16.057  14.218
74311W        W41094  24.167  34.486   2.613
74312W        W41095  25.715  22.686   3.280
74313W        W41096   9.955  30.032   3.269
74314W        W41097  16.600  42.723   3.148
74315W        W41098  20.104  33.524   2.131
74316W        W41099  24.637  23.247   4.088
74317W        W41100  18.865   5.282  14.527
74318W        W41101  25.011  16.121  14.923
74319W        W41102  34.574  16.533  13.951
74320W        W41103  40.962   7.899   2.414
74321W        W41104  29.183   2.952  13.451
74322W        W41105  43.470  31.165   3.103
74323W        W41106  12.627  42.805   0.045
74324W        W41107  41.906  44.779   0.867
74325W        W41108  33.525  27.877  10.212
74326W        W41109  10.681  21.452  11.749
74327W        W41110   4.910  23.111  14.671
74328W        W41111   6.880  36.450   1.006
74329W        W41112  31.973  12.085  12.095
74330W        W41113  33.442  28.904   1.184
74331W        W41114  19.697  25.865   0.110
74332W        W41115  42.003  25.096   3.823
74333W        W41116  18.267   0.871   2.804
74334W        W41117  15.969  30.484   1.697
74335W        W41118  21.531  34.725  12.115
74336W        W41119  43.383  43.330  11.926
74337W        W41120  25.242  34.014  12.379
74338W        W41121  26.752  25.490   0.794
74339W        W41122   2.260   4.299  13.580
74340W        W41123  15.029  39.533   3.512
74341W        W41124  34.632   1.390  14.719
74342W        W41125  43.945  17.422   0.241
74343W        W41126  13.865  10.296   2.509
74344W        W41127  42.004  27.450   4.100
74345W        W41128   6.790  27.171   4.744
74346W        W41129  17.058  40.837   4.167
74347W        W41130   6.909  18.739  11.967
74348W        W41131  13.610  33.520   4.046
74349W        W41132  30.664  16.852   3.091
74350W        W41133  10.177  11.328   0.805
74351W        W41134  11.592  29.268  14.592
74352W        W41135   3.295  44.704   1.258
74353W        W41136   3.299  29.360   0.302
74354W        W41137  29.575  26.456  12.692
74355W        W41138   7.487  18.671  13.117
74356W        W41139  41.285  21.156   3.713
74357W        W41140   2.313  20.864   2.305
74358W        W41141  19.658  10.669  12.330
74359W        W41142  29.577  35.575   4.091
74360W        W41143  25.152  43.924  13.277
74361W        W41144   5.175  14.677  13.973
74362W        W41145  13.305  38.375   1.594
74363W        W41146  25.423  25.175   1.299
74364W        W41147  39.036  35.415   5.019
74365W        W41148  10.126  31.400   2.518
74366W        W41149  38.974  14.591  14.864
74367W        W41150  42.573  20.488  11.701
74368W        W41151  15.418  35.323  11.124
74369W        W41152  10.713  32.899  13.074
74370W        W41153  20.480   2.410   1.200
74371W        W41154  16.410   0.413  12.477
74372W        W41155  24.884  27.086   0.712
74373W        W41156  11.698  24.405   3.271
74374W        W41157  38.606  33.682  11.995
74375W        W41158  23.551  41.775  13.687
74376W        W41159  33.573  11.396  13.281
74377W        W41160  26.866  42.767   3.037
74378W        W41161   2.787  20.030   3.298
74379W        W41162  43.516  15.314   4.453
74380W        W41163  14.000   6.263  11.213
74381W        W41164  14.421  42.844   3.475
74382W        W41165   5.417   5.600   4.171
74383W        W41166   2.740  43.323  12.562
74384W        W41167  34.382  32.330  11.157
74385W        W41168  25.558  23.994  13.041
74386W        W41169  15.611   1.255   1.845
74387W        W41170  10.482  32.520   3.272
74388W        W41171  16.466  29.171   0.378
74389W        W41172   9.859  27.641   2.193
74390W        W41173  43.165  27.521   3.210
74391W        W41174  27.547  19.115  10.817
74392W        W41175  31.829  32.172  11.698
74393W        W41176  24.388  14.990   0.980
74394W        W41177  32.371  38.827   3.716
74395W        W41178  41.905  18.540   3.316
74396W        W41179  28.554  15.387   1.746
74397W        W41180  34.557  24.998  11.914
74398W        W41181  37.232  37.301   4.519
74399W        W41182  35.882  23.774   0.334
74400W        W41183   4.688  35.455   2.153
74401W        W41184  43.749  31.316   0.948
74402W        W41185   1.049  32.287   0.809
74403W        W41186  42.433  22.788  12.811
74404W        W41187   8.360  39.951   4.715
74405W        W41188  38.903  15.273  11.296
74406W        W41189   7.334  29.497  11.767
74407W        W41190   9.028  21.579  13.529
74408W        W41191  10.681  44.814   3.798
74409W        W41192  15.139  25.680  11.917
74410W        W41193  20.800  23.244  10.627
74411W        W41194  11.942  30.101  11.998
74412W        W41195  33.564  26.856   1.327
74413W        W41196  24.903  26.198  12.462
74414W        W41197  43.474  31.560   4.534
74415W        W41198  31.874  17.482   4.234
74416W        W41199  21.573  39.805  12.473
74417W        W41200  35.358  14.304   1.476
74418W        W41201  29.498  12.820   3.648
74419W        W41202  41.350  31.603   2.423
74420W        W41203  15.139  43.820  13.035
74421W        W41204  30.587  22.973   2.448
74422W        W41205  34.566   4.031  12.585
74423W        W41206  35.468  26.693   4.945
74424W        W41207   6.873  19.674   2.376
74425W        W41208  37.628   5.184   0.204
74426W        W41209  28.579  13.075   3.469
74427W        W41210  30.408  19.777  10.637
74428W        W41211   7.428  25.146  10.718
74429W        W41212  17.527   8.436  11.618
74430W        W41213   7.520  35.939   2.804
74431W        W41214  35.025  13.868  13.556
74432W        W41215  17.675   2.728   1.318
74433W        W41216  42.407  40.618   2.295
74434W        W41217  43.040   3.318   4.327
74435W        W41218  37.994   5.248  12.613
74436W        W41219  19.213  11.819   4.367
74437W        W41220  13.759  27.173  13.478
74438W        W41221   9.366   9.266   4.947
74439W        W41222  27.091   7.016  11.322
74440W        W41223  27.566  16.124  12.334
74441W        W41224  42.137  11.734  10.318
74442W        W41225  32.241   0.675   2.675
74443W        W41226  24.209  24.568   1.306
74444W        W41227   8.622  16.675   2.206
74445W        W41228  36.574  22.043  11.977
74446W        W41229  34.857  37.314  12.435
74447W        W41230  12.896  18.117   2.765
74448W        W41231  28.603  41.010   1.410
74449W        W41232   4.739   8.179   3.621
74450W        W41233  10.556   3.907  10.350
74451W        W41234  18.075   4.224   0.681
74452W        W41235  44.358   5.099   1.174
74453W        W41236   1.914  39.812   0.526
74454W        W41237  33.856  34.081   1.705
74455W        W41238  32.452  11.207  10.956
74456W        W41239  10.244   2.338   2.182
74457W        W41240  41.923  12.723   2.106
74458W        W41241  18.514   2.587   1.598
74459W        W41242  14.602  40.744   4.183
74460W        W41243  32.567   3.585  11.119
74461W        W41244  36.368   5.210   1.207
74462W        W41245  25.209  35.856  11.569
74463W        W41246  30.701   7.855   4.201
74464W        W41247  41.895  38.500   4.993
74465W        W41248  29.510  44.149   2.619
74466W        W41249  14.895   5.467  12.500
74467W        W41250  27.507  28.927  12.879
74468W        W41251  36.855  19.035   1.901
74469W        W41252  13.298   3.213   0.233
74470W        W41253  39.924  20.671  12.151
74471W        W41254  13.125  35.396   1.502
74472W        W41255  32.489   8.190  14.818
74473W        W41256  23.640  12.547  11.132
74474W        W41257  17.221  31.349  13.050
74475W        W41258   5.795  32.068   2.076
74476W        W41259  25.180  20.850   4.526
74477W        W41260  33.930   0.337  10.841
74478W        W41261  25.647  18.965   0.414
74479W        W41262  30.137  38.057  10.786
74480W        W41263  26.017  26.936   2.652
74481W        W41264  30.624   0.767   1.190
74482W        W41265  23.960   0.510  14.474
74483W        W41266  30.601  28.039   2.299
74484W        W41267  42.416  29.603   3.803
74485W        W41268  24.956  33.738   1.244
74486W        W41269  24.201  42.502   3.621
74487W        W41270  11.423   5.333   3.499
74488W        W41271   6.113  20.824  13.257
74489W        W41272  36.947  31.457  11.275
74490W        W41273  12.062   4.587  12.062
74491W        W41274  40.497   1.445   4.140
74492W        W41275  39.248  12.341   1.214
74493W        W41276  30.852  19.571   2.719
74494W        W41277  37.747  24.072  13.317
74495W        W41278  35.392  11.430  14.080
74496W        W41279  33.365  10.040   2.140
74497W        W41280  34.049  41.822   3.192
74498W        W41281  40.784  10.685   1.150
74499W        W41282  39.050  27.667  12.973
74500W        W41283   0.721  22.128  13.125
74501W        W41284  43.590  34.050  12.166
74502W        W41285  37.609   8.889   3.195
74503W        W41286   6.840  19.980   4.157
74504W        W41287  39.463  18.615   1.025
74505W        W41288   3.766  27.714  12.028
74506W        W41289  25.304   6.867  11.092
74507W        W41290   2.555  31.976  10.363
74508W        W41291  18.259  43.946  11.998
74509W        W41292  41.298  33.614  14.650
74510W        W41293   5.654   8.745  14.499
74511W        W41294   2.367   5.282  10.758
74512W        W41295  29.403   2.849  12.972
74513W        W41296  11.446  36.927   4.289
74514W        W41297  34.148  24.034   4.699
74515W        W41298  34.437  15.746   3.242
74516W        W41299  30.501  30.001  12.106
74517W        W41300  13.955  25.155  11.994
74518W        W41301  28.207  11.092   4.234
74519W        W41302  41.358  34.865   2.681
74520W        W41303  22.143  21.750   2.147
74521W        W41304   3.916   3.193  11.257
74522W        W41305  21.730   1.500   4.277
74523W        W41306  28.038  11.687   0.303
74524W        W41307   6.314   3.371   3.110
74525W        W41308  20.011  44.611   4.215
74526W        W41309  39.028  13.386  10.638
74527W        W41310   3.784  25.926   3.159
74528W        W41311  33.816   0.090  13.911
74529W        W41312  37.127   4.295   4.753
74530W        W41313  21.973  41.887   4.200
74531W        W41314  24.382  24.576   4.225
74532W        W41315  25.027  11.711  10.513
74533W        W41316   6.401   5.488  14.955
74534W        W41317   1.536  15.699  12.851
74535W        W41318  33.162  18.019  14.476
74536W        W41319  14.233   9.091   4.986
74537W        W41320  42.415  33.439  10.632
74538W        W41321   3.167  18.500  13.851
74539W        W41322   8.867  17.599  10.427
74540W        W41323  28.049  20.049  12.991
74541W        W41324  34.397   6.275   3.592
74542W        W41325   7.242  39.054  10.765
74543W        W41326  40.790  40.111  13.367
74544W        W41327  19.619  25.744  13.621
74545W        W41328  15.138  41.568  11.865
74546W        W41329  20.653  22.965  12.944
74547W        W41330  24.496  20.747  13.553
74548W        W41331  17.226  30.166   4.060
74549W        W41332  42.874  24.041   1.784
74550W        W41333  15.307  26.259  14.436
74551W        W41334   6.776  34.439   1.858
74552W        W41335  22.219   0.580   4.979
74553W        W41336  21.368  36.292  14.905
74554W        W41337   9.902   4.772  11.722
74555W        W41338  27.784  14.746   0.219
74556W        W41339  16.799  37.151   0.321
74557W        W41340  15.227  40.491  14.198
74558W        W41341  38.003  15.835   2.682
74559W        W41342   7.667   7.451  13.926
74560W        W41343   9.850  33.551  14.217
74561W        W41344  27.980   1.310   2.659
74562W        W41345  43.282  24.159  13.985
74563W        W41346  25.588   2.798   1.254
74564W        W41347   9.859  37.887  14.954
74565W        W41348   8.517   7.359   4.997
74566W        W41349   8.723  43.477   3.561
74567W        W41350  33.036  41.727   3.217
74568W        W41351   8.899  30.660   0.406
74569W        W41352  18.401   7.442   1.872
74570W        W41353  23.671  43.722   1.630
74571W        W41354   3.265  23.967   1.428
74572W        W41355  23.229  36.155  14.660
74573W        W41356  41.387  14.681  13.333
74574W        W41357   2.525  20.878  11.881
74575W        W41358   7.041   7.742   3.267
74576W        W41359  16.258  14.883  11.186
74577W        W41360  44.998  13.724   4.607
74578W        W41361  40.919   3.479  13.634
74579W        W41362  39.291   7.641   0.806
74580W        W41363  40.719  37.912  13.401
74581W        W41364  30.987  25.954  13.985
74582W        W41365  14.298  13.552   4.080
74583W        W41366   3.686  44.488   4.916
74584W        W41367  28.395  39.322  11.421
74585W        W41368  27.107  33.441   3.387
74586W        W41369  11.115   8.692   3.288
74587W        W41370  29.537   6.117   0.364
74588W        W41371  28.800  38.259  13.471
74589W        W41372   8.562   7.329  14.437
74590W        W41373  26.496  14.076  11.672
74591W        W41374  21.511   2.281   0.917
74592W        W41375  26.542  28.703  13.092
74593W        W41376   5.005  16.238   4.940
74594W        W41377  19.033   4.888  12.496
74595W        W41378  16.864  22.978  12.552
74596W        W41379  39.066  18.737  12.716
74597W        W41380  36.498  29.711  11.201
74598W        W41381  10.719  21.006   2.926
74599W        W41382  12.174  41.029   4.203
74600W        W41383  36.037  23.783  11.498
74601W        W41384  21.560  18.501   2.804
74602W        W41385  25.052  34.342  11.977
74603W        W41386   9.025   0.587  13.044
74604W        W41387  40.556  31.411   4.197
74605W        W41388  24.682   2.194  10.309
74606W        W41389   5.866   3.838   1.562
74607W        W41390  30.150  25.008   2.663
74608W        W41391  43.253  27.245  10.439
74609W        W41392  13.310  37.143   3.293
74610W        W41393  40.965   1.259  11.705
74611W        W41394  29.363  21.526   4.202
74612W        W41395  36.394  24.192   3.253
74613W        W41396   2.796  30.552   2.302
74614W        W41397   8.143  27.708   1.318
74615W        W41398  17.405  15.679   0.824
74616W        W41399  10.187  33.598   4.719
74617W        W41400  21.949  42.053   0.260
74618W        W41401  36.483  13.553   1.122
74619W        W41402  36.394  38.364   2.729
74620W        W41403  19.447  38.065   0.745
74621W        W41404   2.678  27.520   3.243
74622W        W41405  24.040  40.559   2.358
74623W        W41406  11.854  24.233  11.610
74624W        W41407  35.294  44.748  10.704
74625W        W41408   9.662  17.075  13.335
74626W        W41409  26.492  32.555   0.786
74627W        W41410  22.477  27.720  10.433
74628W        W41411   8.151  18.700   1.442
74629W        W41412  42.792   9.885   2.397
74630W        W41413  20.916  11.272   4.582
74631W        W41414  43.403  38.739  12.918
74632W        W41415  11.191  43.741  12.999
74633W        W41416   3.400  42.965  13.931
74634W        W41417  30.188  21.689   0.912
74635W        W41418  31.200  25.048  11.218
74636W        W41419  30.153   7.386   0.289
74637W        W41420  38.838  26.805  11.552
74638W        W41421  31.431  43.275   0.524
74639W        W41422  10.309   3.361  14.252
74640W        W41423  25.015  10.129  11.747
74641W        W41424  30.744   2.393   1.367
74642W        W41425  13.344   1.232  10.728
74643W        W41426  40.318   3.746  14.354
74644W        W41427  13.862  29.133   1.263
74645W        W41428  39.918   9.318  14.222
74646W        W41429  35.430  19.031   4.523
74647W        W41430  13.076  36.786  13.186
74648W        W41431  44.147  29.499  12.046
74649W        W41432   9.510  28.196  10.269
74650W        W41433  33.566  25.177   3.614
74651W        W41434  11.048  33.956  14.594
74652W        W41435  28.527   1.987   1.912
74653W        W41436   9.107  29.086   2.180
74654W        W41437  29.638  40.291   2.745
74655W        W41438  31.339  12.626  12.821
74656W        W41439   4.166  41.765  12.366
74657W        W41440  34.916  13.129  14.168
74658W        W41441  28.607  26.628  13.944
74659W        W41442  31.999  14.208  13.003
74660W        W41443  37.679   2.817   4.001
74661W        W41444   4.606   6.480  11.291
74662W        W41445  44.359  11.342  13.008
74663W        W41446  38.519   7.138   2.725
74664W        W41447  38.072  24.550   3.770
74665W        W41448  41.549  31.721   1.404
74666W        W41449  20.969  33.792   3.256
74667W        W41450  31.444  12.349  11.524
74668W        W41451   8.706  42.650   4.270
74669W        W41452  21.023  37.409   2.202
74670W        W41453   3.944   1.526  10.681
74671W        W41454   5.894  11.154  13.289
74672W        W41455  32.578   3.195   0.708
74673W        W41456  27.614  26.836   3.716
74674W        W41457  36.765   6.618  13.372
74675W        W41458   0.860  27.715   3.794
74676W        W41459   7.015  14.174   3.062
74677W        W41460  28.670  26.701   9.961
74678W        W41461   4.746  43.610  10.743
74679W        W41462  37.324  31.501  11.629
74680W        W41463  39.866  14.875   0.351
74681W        W41464  29.705  12.075  12.512
74682W        W41465   9.281  11.450   4.973
74683W        W41466  37.331  19.482   0.925
74684W        W41467   3.237  14.072  14.929
74685W        W41468   5.733  19.343   3.154
74686W        W41469  21.116  25.074   1.232
74687W        W41470  10.748   2.401  13.739
74688W        W41471  30.149  23.997  13.879
74689W        W41472  10.201  14.059   3.847
74690W        W41473  33.303  31.354  11.889
74691W        W41474  30.729   2.073   0.221
74692W        W41475  30.002  43.380  13.494
74693W        W41476  38.366  10.549   3.770
74694W        W41477   3.748  34.413  13.476
74695W        W41478  24.189  25.485  12.095
74696W        W41479  11.165  23.397   0.270
74697W        W41480  34.794  36.834  12.608
74698W        W41481   1.967   7.376   3.196
74699W        W41482   8.660   8.248  11.993
74700W        W41483   0.434  31.309  11.974
74701W        W41484   6.768  16.256   0.942
74702W        W41485  42.474  27.661  13.409
74703W        W41486   5.233   1.963  11.034
74704W        W41487  38.463  44.225   0.434
74705W        W41488  24.111   1.469   1.929
74706W        W41489  34.983  42.954  11.433
74707W        W41490  40.441  35.992  11.969
74708W        W41491  33.058  11.595   1.742
74709W        W41492  22.292  11.575  14.866
74710W        W41493  18.268  28.409   3.796
74711W        W41494  24.709  14.402  14.300
74712W        W41495   8.963  41.130   5.188
74713W        W41496  29.770  33.266   5.131
74714W        W41497  31.761  43.390   3.312
74715W        W41498  33.072   1.413  13.425
74716W        W41499  42.466  43.453   2.349
74717W        W41500   4.057  32.510  10.701
74718W        W41501  11.803  11.119   0.462
74719W        W41502  31.502   0.294   1.885
74720W        W41503   0.733   5.138   2.342
74721W        W41504  20.580   8.833  12.164
74722W        W41505  13.091   1.252  12.424
74723W        W41506   7.680   7.319  14.976
74724W        W41507   6.823  40.541  14.478
74725W        W41508   2.929  36.090  11.417
74726W        W41509  23.252  29.467   3.075
74727W        W41510   1.526  29.345   2.330
74728W        W41511  11.244  34.164   0.849
74729W        W41512  38.533   2.881   1.033
74730W        W41513   0.617   0.189   0.832
74731W        W41514   1.071   3.968  11.644
74732W        W41515  33.828  28.355   4.007
74733W        W41516   4.893  23.670   2.276
74734W        W41517  22.526  12.202   2.278
74735W        W41518  41.837  15.636  14.386
74736W        W41519   6.923  32.645  14.406
74737W        W41520  15.237  44.533   0.438
74738W        W41521  41.360  11.964   5.477
74739W        W41522  12.888  34.020   3.761
74740W        W41523   3.234   2.812  14.772
74741W        W41524   6.208  43.451   2.377
74742W        W41525  26.533  41.284  13.131
74743W        W41526  27.641  35.052   0.718
74744W        W41527  26.619   8.935  12.181
74745W        W41528  20.628  22.167   2.777
74746W        W41529  10.092  21.392   4.097
74747W        W41530   6.856  24.152  12.302
74748W        W41531  19.458  31.785   1.692
74749W        W41532  14.181   7.427   4.640
74750W        W41533  21.086  11.224  14.406
74751W        W41534   5.223  25.230   2.395
74752W        W41535  42.912  18.829   0.852
74753W        W41536   7.976   6.489   3.441
74754W        W41537   5.597   4.491   4.124
74755W        W41538  41.800  44.006   3.562
74756W        W41539  15.348  30.242   2.419
74757W        W41540  43.443  38.931  14.897
74758W        W41541  16.090  26.424   5.000
74759W        W41542   6.937  13.375   4.400
74760W        W41543  24.081  23.454  10.726
74761W        W41544  29.868   3.797  13.090
74762W        W41545  12.685  41.791   3.742
74763W        W41546  44.277  10.852  12.870
74764W        W41547  24.657  14.314   4.706
74765W        W41548  41.324  41.824  13.227
74766W        W41549  20.128  31.609  12.055
74767W        W41550  44.353  42.376  13.625
74768W        W41551  37.609   9.586  14.636
74769W        W41552   9.703  33.177  12.605
74770W        W41553  12.097  30.074   1.971
74771W        W41554   1.800  16.070   4.103
74772W        W41555  19.631   2.431   0.856
74773W        W41556  27.082  26.779   4.420
74774W        W41557  12.168  12.775   0.291
74775W        W41558   6.526  18.552  11.655
74776W        W41559  33.038  38.598  10.690
74777W        W41560  26.708  32.105  12.945
74778W        W41561  34.311  16.564   3.432
74779W        W41562  11.235  24.529  12.604
74780W        W41563   7.988  35.188   3.922
74781W        W41564  14.706   1.271  14.375
74782W        W41565  28.091  21.273  12.428
74783W        W41566   5.643  31.022   4.405
74784W        W41567  24.063  25.430  13.397
74785W        W41568   4.368   1.189  13.828
74786W        W41569   0.020   8.683  14.345
74787W        W41570  32.465  37.002  10.355
74788W        W41571  36.894  14.782   4.838
74789W        W41572   1.790  20.932   3.489
74790W        W41573  21.770  35.309   2.733
74791W        W41574  14.525  31.890  11.222
74792W        W41575  33.024   3.736   0.219
74793W        W41576  22.499  40.826   4.248
74794W        W41577  37.711  18.034   1.579
74795W        W41578  28.477  26.046   3.780
74796W        W41579  24.890   0.014  12.926
74797W        W41580  10.935  39.870  11.825
74798W        W41581  43.222  11.993  13.538
74799W        W41582  38.007   5.845  13.785
74800W        W41583  10.157  15.332   3.222
74801W        W41584  14.130  13.343   4.526
74802W        W41585   3.854  37.429   3.167
74803W        W41586  18.680  39.068   1.296
74804W        W41587  25.754  14.324   4.234
74805W        W41588  13.257  30.394  14.308
74806W        W41589  23.030  33.243   0.010
74807W        W41590   2.409  20.102   0.869
74808W        W41591  20.553  21.108  12.146
74809W        W41592  14.395  19.028  11.195
74810W        W41593  18.559  44.019  13.998
74811W        W41594  29.196  25.556   0.774
74812W        W41595  30.697  23.564  11.984
74813W        W41596  18.606  27.808   0.044
74814W        W41597  23.441  11.892   3.622
74815W        W41598  11.822   6.163  14.852
74816W        W41599  22.948  30.728  14.478
74817W        W41600  26.662  33.162   3.663
74818W        W41601  36.340   8.270   5.360
74819W        W41602  13.836  18.494   0.763
74820W        W41603   2.909  37.927  10.618
74821W        W41604  11.500   5.674   4.978
74822W        W41605  44.399  23.297  12.957
74823W        W41606  36.412  25.927  11.447
74824W        W41607   6.978  29.109  12.467
74825W        W41608  17.629  36.192   2.737
74826W        W41609  42.586  35.606   2.841
74827W        W41610   3.679  33.091   0.456
74828W        W41611   9.796  33.579   2.220
74829W        W41612   0.766  32.365  14.635
74830W        W41613  17.525  18.765   3.675
74831W        W41614  17.748  28.986   1.429
74832W        W41615   8.242  27.891  13.256
74833W        W41616  17.307   3.410   1.420
74834W        W41617  27.465  36.341  12.890
74835W        W41618  15.269  17.949   2.905
74836W        W41619  17.379  28.115   4.203
74837W        W41620   9.343  16.533   0.726
74838W        W41621  27.275   0.283  14.293
74839W        W41622   9.279  13.172  11.615
74840W        W41623   8.411  23.003  13.381
74841W        W41624  12.924  44.656   2.706
74842W        W41625  13.533  26.582   0.378
74843W        W41626  17.240   5.747   2.912
74844W        W41627   3.108  40.813   3.592
74845W        W41628  33.844  34.059   3.668
74846W        W41629  37.944  18.522  12.648
74847W        W41630  43.159  11.670   4.165
74848W        W41631   9.788  34.027   1.941
74849W        W41632   2.534   6.864   4.379
74850W        W41633   5.491  13.126  14.292
74851W        W41634  24.792  27.568  14.565
74852W        W41635  40.375  21.703   3.861
74853W        W41636  11.366  32.775   1.782
74854W        W41637   3.877  41.929  13.127
74855W        W41638  28.998  26.717   3.540
74856W        W41639  33.813   9.121  13.494
74857W        W41640  25.053  15.261   2.337
74858W        W41641  31.466  26.422   2.929
74859W        W41642  20.474  26.563   4.871
74860W        W41643  38.101  40.430  13.118
74861W        W41644  27.072  13.007   2.672
74862W        W41645  41.471  16.847   0.748
74863W        W41646  18.926  20.175   2.872
74864W        W41647  12.763  21.746   2.892
74865W        W41648  37.332  43.288  12.051
74866W        W41649  20.493  39.972  13.341
74867W        W41650  37.627   7.270  12.756
74868W        W41651   8.849  15.629   1.209
74869W        W41652  10.596  30.077   4.200
74870W        W41653  38.272  36.590   1.295
74871W        W41654  26.888  14.139  14.906
74872W        W41655   3.665  18.442  11.736
74873W        W41656  16.702   5.446   0.957
74874W        W41657  37.607  26.576   3.304
74875W        W41658   1.300  39.003  12.134
74876W        W41659  21.164  31.831   2.660
74877W        W41660  20.196  22.146  10.755
74878W        W41661  19.626  22.920  11.605
74879W        W41662  24.060  19.196   2.399
74880W        W41663  42.169   5.182   4.936
74881W        W41664  41.016  34.857   3.086
74882W        W41665  44.037  40.761  11.463
74883W        W41666  10.261  18.054   1.932
74884W        W41667  39.043   7.400   5.149
74885W        W41668  22.539  13.701  13.616
74886W        W41669   7.843  33.846  11.011
74887W        W41670  33.311  22.613   0.307
74888W        W41671  22.194  14.784   4.752
74889W        W41672  32.062  16.680   2.347
74890W        W41673  34.835  31.898  11.583
74891W        W41674  39.454  10.370   1.619
74892W        W41675  14.630  44.185   2.331
74893W        W41676   3.133  39.235  13.354
74894W        W41677  24.899  19.505  14.994
74895W        W41678  23.628  12.900   3.672
74896W        W41679  36.395   8.469   4.339
74897W        W41680  42.984  30.077   1.363
74898W        W41681   8.917  16.329  10.990
74899W        W41682  27.107   2.350   0.798
74900W        W41683  28.130  16.277   3.653
74901W        W41684  39.418  22.766   0.701
74902W        W41685  23.333  19.344  10.582
74903W        W41686  33.136  10.758  11.064
74904W        W41687  37.610   8.942   4.149
74905W        W41688  42.525  19.265   3.904
74906W        W41689  41.559  38.783  14.879
74907W        W41690  16.211  40.929  11.200
74908W        W41691  23.551  29.583  12.561
74909W        W41692  26.236  32.098   4.767
74910W        W41693  19.035   7.463  13.917
74911W        W41694  21.051   9.404  14.338
74912W        W41695  22.729   3.692   0.013
74913W        W41696  20.123   8.977   4.399
74914W        W41697  24.284  25.091   2.196
74915W        W41698  32.177  19.511   2.348
74916W        W41699   2.390  12.333  11.975
74917W        W41700  36.144  10.159  14.104
74918W        W41701  42.742   9.443   2.703
74919W        W41702  11.620  40.238  14.850
74920W        W41703  22.288  15.915  11.470
74921W        W41704  33.372  12.276   2.202
74922W        W41705   9.835  21.006  10.810
74923W        W41706   7.684   8.488   4.301
74924W        W41707  44.239  41.249   0.490
74925W        W41708  17.775  15.800   1.204
74926W        W41709  28.495  10.090  11.078
74927W        W41710   1.924  26.606   0.302
74928W        W41711  26.588  31.631  14.509
74929W        W41712   2.864   2.761  13.405
74930W        W41713   0.456  19.177   4.595
74931W        W41714  27.191  36.027   4.348
74932W        W41715  44.596  12.703   1.806
74933W        W41716  17.007  14.276  14.424
74934W        W41717   2.344   6.760   3.901
74935W        W41718  30.016  15.317   3.662
74936W        W41719   1.818  23.669   2.832
74937W        W41720  29.478  22.388  12.966
74938W        W41721  21.921   2.406   0.068
74939W        W41722  24.744  33.996  12.551
74940W        W41723   2.928  42.243  12.981
74941W        W41724  25.890  26.574  13.829
74942W        W41725  37.043   8.439   3.603
74943W        W41726  27.599  10.661   1.913
74944W        W41727  27.473  17.857   2.334
74945W        W41728  34.065  37.363   1.292
74946W        W41729  34.556   1.380   1.151
74947W        W41730  31.849  40.231   0.545
74948W        W41731   2.358   7.200  10.243
74949W        W41732  42.859  23.658   2.478
74950W        W41733  28.936  15.679  13.472
74951W        W41734   1.060   0.792   5.104
74952W        W41735  11.612  10.364  12.745
74953W        W41736  21.801  11.431  12.917
74954W        W41737  23.914  37.541   4.148
74955W        W41738  31.652  11.469   3.219
74956W        W41739  27.511  20.545  13.489
74957W        W41740  38.018  10.860  13.437
74958W        W41741  29.465  42.580  10.730
74959W        W41742  25.162  33.088   0.416
74960W        W41743   6.190  12.172  10.936
74961W        W41744  26.131  28.866   1.153
74962W        W41745  29.386  34.225  14.838
74963W        W41746  37.178  14.529  11.563
74964W        W41747  43.773   6.001  14.420
74965W        W41748  23.572   6.430   3.650
74966W        W41749  35.972  38.940   1.116
74967W        W41750  36.889  28.075   2.688
74968W        W41751  20.452  39.559   5.071
74969W        W41752  42.102  13.030  12.970
74970W        W41753  10.372  44.583  13.384
74971W        W41754   8.693  44.048  10.995
74972W        W41755  43.785  20.784   1.696
74973W        W41756   2.961  12.386   0.756
74974W        W41757   2.379  18.124  13.420
74975W        W41758   8.091  36.486  11.242
74976W        W41759  27.299   3.718   4.309
74977W        W41760   3.155  18.070   1.256
74978W        W41761  17.472  13.788   2.442
74979W        W41762   5.979   0.761  10.615
74980W        W41763  21.706  31.903   3.594
74981W        W41764  14.067  22.239  12.033
74982W        W41765  37.530  29.559   4.728
74983W        W41766  25.982  23.707  12.873
74984W        W41767   1.555  31.114   2.859
74985W        W41768   1.764  20.175   1.204
74986W        W41769  35.615  19.433   0.707
74987W        W41770  28.110  14.589   2.675
74988W        W41771  29.545   7.050   1.451
74989W        W41772  18.660  15.219  13.099
74990W        W41773  40.438  42.326   3.710
74991W        W41774  42.860  32.857   2.573
74992W        W41775  43.921  36.868   4.768
74993W        W41776  15.997  42.572   0.988
74994W        W41777  11.565   1.923   0.783
74995W        W41778  30.948  31.002  12.060
74996W        W41779  14.053  17.735   2.613
74997W        W41780  19.764   9.384  14.832
74998W        W41781   1.253  13.905  14.658
74999W        W41782  40.208  18.236  11.157
75000W        W41783  26.411  18.694   4.579
75001W        W41784  38.658   3.197  10.292
75002W        W41785  27.230  41.316   3.092
75003W        W41786   7.796  19.124   0.156
75004W        W41787   1.503  41.553  11.102
75005W        W41788  14.598  42.453  12.814
75006W        W41789  10.839  24.445   2.666
75007W        W41790  43.643  22.128  11.018
75008W        W41791  34.501  37.269   3.119
75009W        W41792  21.898  16.654   3.702
75010W        W41793  34.559  34.107   0.948
75011W        W41794  19.029  29.792   3.271
75012W        W41795  30.821  26.943   0.527
75013W        W41796  44.561   9.706   3.653
75014W        W41797  35.725   3.944  11.405
75015W        W41798   1.595  35.550   3.021
75016W        W41799   6.989  10.358   2.298
75017W        W41800  24.707   4.439   2.243
75018W        W41801   6.768  42.162  11.325
75019W        W41802  35.620   5.814   3.827
75020W        W41803  15.182   2.854   3.898
75021W        W41804  23.102  36.755  13.510
75022W        W41805  41.743   4.407  14.001
75023W        W41806   1.256   6.078   1.649
75024W        W41807  41.036  26.695   3.322
75025W        W41808  28.258  23.384   0.022
75026W        W41809   5.190  33.101   3.790
75027W        W41810  36.122   9.189  11.935
75028W        W41811   2.725  21.152   1.101
75029W        W41812  25.745  40.670  13.829
75030W        W41813  28.733  16.699  14.367
75031W        W41814   0.058  11.635   3.695
75032W        W41815  18.226  39.501  14.870
75033W        W41816  31.621  17.549   0.840
75034W        W41817   2.460  10.186  10.745
75035W        W41818  24.392  14.951  11.275
75036W        W41819  24.936  11.230  13.401
75037W        W41820   0.007  34.852  14.774
75038W        W41821  35.480  23.822   4.497
75039W        W41822   5.642  17.127  12.994
75040W        W41823  39.146  16.122  10.394
75041W        W41824  24.471  28.059   0.291
75042W        W41825   8.724   4.821   2.751
75043W        W41826  18.140   2.968  14.400
75044W        W41827  38.876  34.928  10.435
75045W        W41828  35.415  36.508   0.941
75046W        W41829  11.727  14.420  10.322
75047W        W41830   5.688   5.392  14.484
75048W        W41831  32.489  24.647  11.133
75049W        W41832  26.039   3.518   1.488
75050W        W41833   8.830  25.158   2.226
75051W        W41834  26.405  39.927   3.741
75052W        W41835  26.622   3.204  13.458
75053W        W41836  34.896  12.722   3.828
75054W        W41837  26.310   3.918  10.713
75055W        W41838  41.918  25.013  14.739
75056W        W41839  35.580  29.561  13.980
75057W        W41840  26.568  14.024   2.312
75058W        W41841  32.106  28.446  14.739
75059W        W41842  24.693  10.200  13.782
75060W        W41843  31.876  43.470   0.743
75061W        W41844   3.993  44.532  11.153
75062W        W41845  36.940   2.660   2.827
75063W        W41846  42.470   8.301  14.505
75064W        W41847  30.601  24.540  11.433
75065W        W41848  19.575  42.342   2.391
75066W        W41849  39.819  34.910  13.761
75067W        W41850  43.830  29.470   2.285
75068W        W41851  43.900  26.071   2.753
75069W        W41852  44.349  36.266   1.327
75070W        W41853  17.699   6.342  12.022
75071W        W41854  22.380  18.359   2.817
75072W        W41855  28.092  39.802   0.272
75073W        W41856   9.507  16.755  14.326
75074W        W41857  22.228   4.033   2.186
75075W        W41858  11.812   6.947   4.421
75076W        W41859  11.291  19.958  13.300
75077W        W41860   9.409  19.139   4.087
75078W        W41861  31.976  36.529  10.919
75079W        W41862  12.906  31.241  13.515
75080W        W41863   9.017  25.011   1.258
75081W        W41864   8.328  40.960  13.332
75082W        W41865  15.164  31.039  13.407
75083W        W41866  25.203  28.961   1.437
75084W        W41867  27.593  30.923   3.163
75085W        W41868  11.032  18.813  11.258
75086W        W41869  16.295  42.074   4.272
75087W        W41870  31.095   7.161   3.282
75088W        W41871  28.729  24.119   0.230
75089W        W41872   1.299   5.356   3.982
75090W        W41873  39.433   7.845  12.496
75091W        W41874   5.960  13.621  12.088
75092W        W41875  41.803  16.368   0.789
75093W        W41876  12.368  36.821  12.027
75094W        W41877  34.989  35.463  13.900
75095W        W41878  44.714  29.203  13.608
75096W        W41879  15.830  24.668   3.858
75097W        W41880  41.418  16.139   0.552
75098W        W41881  36.508  28.670   0.040
75099W        W41882  40.277   0.103  11.104
75100W        W41883  42.456   2.478   0.387
75101W        W41884   3.849  38.056   1.981
75102W        W41885  36.501  33.779  12.068
75103W        W41886  43.385  30.779  12.116
75104W        W41887  19.150  32.003  12.833
75105W        W41888  38.364  41.088  12.097
75106W        W41889   8.795  40.986   1.571
75107W        W41890  37.346  22.827  14.564
75108W        W41891  22.656   7.941   1.676
75109W        W41892  16.186  24.601   1.954
75110W        W41893  14.321  29.878   1.411
75111W        W41894  19.217  40.895  12.522
75112W        W41895  25.936  25.243  12.644
75113W        W41896  36.598  36.638   2.329
75114W        W41897  36.723  31.474  12.599
75115W        W41898   0.799   1.376  13.297
75116W        W41899  44.716  36.745   3.760
75117W        W41900  13.364   4.412   0.315
75118W        W41901  37.959   1.698   4.587
75119W        W41902   1.778  43.309  10.788
75120W        W41903   5.327  12.667   5.192
75121W        W41904  39.275   0.788  11.957
75122W        W41905  23.024  12.310   4.239
75123W        W41906   3.212  23.730  13.396
75124W        W41907  16.860  36.155   1.808
75125W        W41908  22.523  32.136   1.015
75126W        W41909  41.288   8.430  12.291
75127W        W41910  36.424  39.305  13.553
75128W        W41911  23.496  43.322   1.315
75129W        W41912  14.845  42.503  13.343
75130W        W41913  34.668   3.916  13.887
75131W        W41914  26.172  33.722   4.060
75132W        W41915  32.373  23.743  12.163
75133W        W41916   3.967  20.130  13.262
75134W        W41917   1.277  33.850   4.705
75135W        W41918  44.946  27.106   2.725
75136W        W41919   3.747  20.680   3.659
75137W        W41920   9.837   1.822   4.706
75138W        W41921   5.735  34.550   3.194
75139W        W41922  41.404  11.930  11.565
75140W        W41923   9.773   7.605  12.712
75141W        W41924   4.666  15.360  12.927
75142W        W41925  29.573  40.229   2.213
75143W        W41926   2.883  28.369   3.089
75144W        W41927   6.341   6.314   4.712
75145W        W41928  12.296  23.879  12.874
75146W        W41929  17.782  24.303   3.162
75147W        W41930  20.050  14.251   1.149
75148W        W41931  27.104  39.918  13.002
75149W        W41932  41.459  21.209  11.635
75150W        W41933  42.783  12.650  10.350
75151W        W41934  11.517  13.104   3.559
75152W        W41935  14.555   3.818   1.215
75153W        W41936  16.881  15.636  10.294
75154W        W41937  12.096  17.531  10.856
75155W        W41938   9.785  13.035  13.307
75156W        W41939  10.580  20.858  10.627
75157W        W41940   3.448  36.522   2.894
75158W        W41941  21.173  42.441   3.389
75159W        W41942  28.849   9.189  11.194
75160W        W41943   5.351  27.242  12.902
75161W        W41944   2.115  34.768   0.523
75162W        W41945   4.604  35.550  10.206
75163W        W41946  23.794   8.424  12.999
75164W        W41947  42.810  18.980   4.248
75165W        W41948  17.338  27.062  12.893
75166W        W41949   3.346  27.918   0.266
75167W        W41950  22.709  17.269   0.835
75168W        W41951  26.955  14.157  11.900
75169W        W41952  33.803  11.722  10.572
75170W        W41953  29.306  32.959   4.370
75171W        W41954   4.063  10.970   0.273
75172W        W41955  25.676  10.340  12.995
75173W        W41956  42.354  31.121  13.814
75174W        W41957  36.895  10.832  12.530
75175W        W41958   5.458   9.975  11.417
75176W        W41959  41.815  30.406  11.611
75177W        W41960  42.285  11.314   1.196
75178W        W41961  36.053  36.268  14.970
75179W        W41962  23.099  19.151  14.001
75180W        W41963  13.378  39.498   0.531
75181W        W41964  12.017  17.212  11.288
75182W        W41965   9.929  24.360   5.209
75183W        W41966  38.112   9.165  14.014
75184W        W41967  42.271  40.284   1.878
75185W        W41968  28.210   1.192  13.899
75186W        W41969  11.888  31.103   1.285
75187W        W41970  12.740   0.031  13.612
75188W        W41971   3.746  16.691   3.607
75189W        W41972   7.655  37.415  11.239
75190W        W41973  37.098  31.014  14.378
75191W        W41974  21.684   9.880   2.337
75192W        W41975  26.464  20.695  12.553
75193W        W41976  43.409  34.236   3.624
75194W        W41977  38.051  20.613   2.773
75195W        W41978  34.598  15.589   0.487
75196W        W41979  23.436  39.363  10.670
75197W        W41980  25.443  15.505  14.008
75198W        W41981  36.121  20.623   0.492
75199W        W41982  22.561  18.746   1.342
75200W        W41983  34.932  21.157  13.547
75201W        W41984  17.682  22.944  14.769
75202W        W41985  31.644   2.937  13.431
75203W        W41986   2.864  38.211  12.336
75204W        W41987  30.114  21.589   4.620
75205W        W41988  33.760  24.590   0.601
75206W        W41989  44.948  23.727  14.068
75207W        W41990  22.605  22.926  13.982
75208W        W41991  18.828  30.656   1.350
75209W        W41992   4.359  27.146  12.642
75210W        W41993  41.434  37.021   2.207
75211W        W41994   5.886  14.367  14.365
75212W        W41995  44.519  14.890   1.408
75213W        W41996  18.823  44.505   3.612
75214W        W41997  39.419  11.538   0.782
75215W        W41998  29.919  11.217   3.420
75216W        W41999   2.382  34.475  11.599
75217W        W42000  42.527  28.449  12.611
75218W        W42001  33.982   8.914  10.424
75219W        W42002  14.541  34.995  12.854
75220W        W42003  40.049  29.606   3.410
75221W        W42004   2.785  41.455  10.709
75222W        W42005  41.995  22.339  11.497
75223W        W42006  12.412  31.117  13.507
75224W        W42007  22.522  37.086   0.943
75225W        W42008  14.614  42.881  10.940
75226W        W42009  31.863  41.997   0.333
75227W        W42010  30.096   4.950  12.377
75228W        W42011  15.493   3.821   0.252
75229W        W42012  26.753  24.258  10.688
75230W        W42013  39.538  18.877  11.073
75231W        W42014   7.166  21.992   3.154
75232W        W42015  17.369   0.316  13.760
75233W        W42016  32.090  18.442   1.473
75234W        W42017  20.734  36.393   3.667
75235W        W42018  20.567  24.175   2.837
75236W        W42019  30.631   3.829   0.023
75237W        W42020  44.966  33.244  12.985
75238W        W42021  44.790   0.799  11.239
75239W        W42022  20.486  29.925  10.641
75240W        W42023  39.810  16.168   3.259
75241W        W42024  41.960  14.139   0.466
75242W        W42025  10.635  40.750   1.182
75243W        W42026  24.977  24.584  11.869
75244W        W42027  11.620  34.211  14.060
75245W        W42028  17.596   1.734   3.454
75246W        W42029  37.093  44.372  13.806
75247W        W42030  36.159  41.054  12.922
75248W        W42031  16.774  18.316  13.900
75249W        W42032  17.147   9.679  14.960
75250W        W42033  12.023  18.134   1.151
75251W        W42034  39.812  21.524   0.005
75252W        W42035  40.833  32.864  11.141
75253W        W42036  16.138  42.853   0.013
75254W        W42037  13.791  36.027  11.237
75255W        W42038  18.607  13.336  10.160
75256W        W42039   1.910   4.351  14.514
75257W        W42040  41.723   1.278   2.756
75258W        W42041  42.251   2.732   0.788
75259W        W42042  14.613  44.760   3.252
75260W        W42043   4.246   1.005  11.862
75261W        W42044  19.540   9.226  14.379
75262W        W42045  11.149  34.919  10.453
75263W        W42046  31.124  13.326  13.252
75264W        W42047  24.218   7.356   4.914
75265W        W42048   5.109  37.374  11.547
75266W        W42049   2.274  11.818   4.117
75267W        W42050   3.536  19.240   2.835
75268W        W42051  14.515  41.000  11.611
75269W        W42052   4.700  15.847   0.774
75270W        W42053  41.206  41.036  11.988
75271W        W42054  33.620  36.732  13.212
75272W        W42055  13.809  29.700   3.781
75273W        W42056   9.165   7.258   4.383
75274W        W42057  19.789  43.354   3.726
75275W        W42058   5.242   0.824  13.697
75276W        W42059  13.354  39.784   1.769
75277W        W42060  26.487  44.663   4.743
75278W        W42061  22.341  14.077  11.884
75279W        W42062   5.875   1.583  12.259
75280W        W42063   8.328   8.409  12.347
75281W        W42064  10.396  27.187   3.366
75282W        W42065  31.091  39.599   3.670
75283W        W42066   7.250  23.988  12.905
75284W        W42067  12.103   5.380  14.740
75285W        W42068  11.593  23.075  11.077
75286W        W42069   0.269  33.923  10.813
75287W        W42070  41.489  40.760  14.758
75288W        W42071  13.041  20.715  11.496
75289W        W42072  42.222  27.274  14.266
75290W        W42073  19.103   5.325   0.855
75291W        W42074  40.247  18.512   1.861
75292W        W42075  35.056  25.001  12.564
75293W        W42076  31.040  28.409   0.952
75294W        W42077  12.402  17.459  11.516
75295W        W42078  40.899   9.389   3.612
75296W        W42079  10.123  44.230   4.025
75297W        W42080  42.556  30.660  14.680
75298W        W42081  10.631  17.535  14.010
75299W        W42082  39.429  33.463   1.079
75300W        W42083  33.460   0.946  11.175
75301W        W42084  17.721  24.466   4.051
75302W        W42085  40.360  25.970  12.052
75303W        W42086   7.627  13.713  14.866
75304W        W42087  11.075  22.434  14.243
75305W        W42088  11.279  31.707   1.656
75306W        W42089  44.094   4.836   4.271
75307W        W42090  15.305  32.453  11.412
75308W        W42091   2.347  10.964  12.521
75309W        W42092  10.074  10.655   3.070
75310W        W42093  23.474   5.894  14.528
75311W        W42094   8.906  15.748  13.068
75312W        W42095  43.001  27.826  15.000
75313W        W42096   1.066  15.509   4.984
75314W        W42097  26.513   8.606   0.106
75315W        W42098   1.340  10.814  11.362
75316W        W42099  36.331  36.813   4.590
75317W        W42100  24.748   8.690   2.014
75318W        W42101  29.440  17.687  13.530
75319W        W42102  36.236  16.235   0.478
75320W        W42103  28.004  32.962   5.225
75321W        W42104  30.822  15.928   3.690
75322W        W42105  23.879   2.013  11.588
75323W        W42106  31.110  39.895  12.569
75324W        W42107  41.471  11.278  14.308
75325W        W42108  11.717   1.623   4.367
75326W        W42109   2.444  43.021   3.391
75327W        W42110  43.930   7.954   3.872
75328W        W42111  22.106  39.284   0.808
75329W        W42112  25.985  38.917  12.629
75330W        W42113   8.527  39.560   2.542
75331W        W42114   4.938   7.699  13.858
75332W        W42115  18.025   1.263  13.878
75333W        W42116  35.413  30.652  12.091
75334W        W42117  33.345  35.382   0.231
75335W        W42118  24.578  28.498  11.108
75336W        W42119  25.066  31.883   2.269
75337W        W42120  31.373  24.958  11.685
75338W        W42121  15.344  25.793   1.328
75339W        W42122   6.664  34.904   4.157
75340W        W42123  15.228  44.865   1.917
75341W        W42124  37.379  35.047  11.584
75342W        W42125  23.482  21.268  13.115
75343W        W42126  41.880  28.240  14.486
75344W        W42127  24.248  31.710   4.075
75345W        W42128  32.451   2.286   1.552
75346W        W42129  14.438  14.290   2.690
75347W        W42130  42.428  35.836   1.117
75348W        W42131  28.173  17.561   1.254
75349W        W42132  18.883  20.788   1.195
75350W        W42133  14.005  43.896   1.801
75351W        W42134  23.851  37.279   2.759
75352W        W42135  13.085  18.636   1.408
75353W        W42136   5.946  23.944  11.140
75354W        W42137   6.332   4.634   1.850
75355W        W42138  15.732   3.440  13.499
75356W        W42139   7.854  34.267  12.070
75357W        W42140   4.260  11.751  14.743
75358W        W42141  19.411  13.254  11.845
75359W        W42142  27.734   4.676   0.501
75360W        W42143  36.994  12.197  12.629
75361W        W42144  15.220  34.870  14.413
75362W        W42145  32.058   3.025   1.416
75363W        W42146  37.877  30.237  11.113
75364W        W42147  29.216   7.956  14.269
75365W        W42148  21.115  20.630  12.061
75366W        W42149  29.880  28.351   1.389
75367W        W42150  25.002  34.023  14.061
75368W        W42151  23.663  11.099   1.333
75369W        W42152  10.059  33.160   1.468
75370W        W42153  16.096  43.584   0.751
75371W        W42154  33.485  29.902   4.535
75372W        W42155  10.817  14.297   0.723
75373W        W42156   1.324  43.380   4.463
75374W        W42157  42.370  17.841   1.805
75375W        W42158  26.142   5.367  13.755
75376W        W42159  25.870   7.823  11.188
75377W        W42160  33.878  41.943   1.916
75378W        W42161  43.295   9.629  12.042
75379W        W42162  17.104   7.192   2.831
75380W        W42163  34.341  17.990   3.676
75381W        W42164   5.458  36.882  12.462
75382W        W42165  11.393  22.385   0.224
75383W        W42166  36.846  33.614  12.405
75384W        W42167  17.757   3.932  10.642
75385W        W42168  19.113   4.697   3.136
75386W        W42169  30.038  27.537   3.302
75387W        W42170  18.116  27.292  11.172
75388W        W42171   8.306  30.314   1.650
75389W        W42172  41.736  17.509   2.734
75390W        W42173  22.082  44.519  14.367
75391W        W42174  26.302  27.048   1.345
75392W        W42175  29.027  29.704  11.789
75393W        W42176  23.044  35.633   2.578
75394W        W42177   3.243   2.226   2.766
75395W        W42178   4.433  29.525  13.152
75396W        W42179  28.225  41.695  14.783
75397W        W42180  30.117  34.188  14.228
75398W        W42181   1.560   7.317   1.976
75399W        W42182  16.815  17.091  13.405
75400W        W42183  19.804  35.512  13.489
75401W        W42184  44.321  33.173   3.806
75402W        W42185  40.957   2.399   4.379
75403W        W42186  15.838  31.854  10.249
75404W        W42187   3.424  19.836   4.071
75405W        W42188  13.737  13.781  10.562
75406W        W42189  17.292  35.059  13.008
75407W        W42190  15.257  38.804  11.649
75408W        W42191  28.385   1.151   4.095
75409W        W42192  15.804  28.059  14.258
75410W        W42193   9.168  14.821   4.108
75411W        W42194  22.577  24.095  14.736
75412W        W42195  24.172  24.484   3.310
75413W        W42196  26.147  17.276   2.234
75414W        W42197  26.694  42.402   1.156
75415W        W42198  34.229  37.506   1.898
75416W        W42199  25.238  39.572  12.068
75417W        W42200  15.511  10.213   3.138
75418W        W42201  34.369  24.126   0.877
75419W        W42202  32.554   5.228  12.084
75420W        W42203   2.227   6.261  14.393
75421W        W42204  17.506  20.616  13.814
75422W        W42205  20.785  39.846   0.348
75423W        W42206  17.180  39.524   3.625
75424W        W42207  11.822   1.994  13.763
75425W        W42208  37.192  31.630  12.462
75426W        W42209  10.236  28.922   0.266
75427W        W42210   7.141  18.292  11.052
75428W        W42211  23.232  23.503   4.583
75429W        W42212  18.579  14.864   2.349
75430W        W42213  43.907  13.426  13.054
75431W        W42214   6.411  14.288   1.896
75432W        W42215   4.477   7.334   0.255
75433W        W42216   8.777   1.087   1.712
75434W        W42217  17.340  13.767  14.365
75435W        W42218  24.691  12.187  11.006
75436W        W42219  17.729  32.078   0.957
75437W        W42220   5.744  34.816  14.018
75438W        W42221  34.261  30.425  13.095
75439W        W42222  41.749  41.954  11.955
75440W        W42223  28.159  13.174   3.158
75441W        W42224  18.028  35.506  13.119
75442W        W42225  37.460  18.670  10.551
75443W        W42226  31.130  32.938  11.198
75444W        W42227  36.028  33.878   0.254
75445W        W42228  20.510   0.787   1.423
75446W        W42229  19.499  10.679  10.554
75447W        W42230  41.764   9.535   4.998
75448W        W42231  30.599  28.190   3.225
75449W        W42232  17.850   3.581  14.502
75450W        W42233  17.360  35.137   4.199
75451W        W42234  18.621  23.538  10.401
75452W        W42235  37.480  33.989   2.737
75453W        W42236   2.217   0.393  11.684
75454W        W42237   9.251  36.051   0.479
75455W        W42238  27.661  30.692   1.593
75456W        W42239  39.008  36.479  13.616
75457W        W42240  24.199   7.148  11.646
75458W        W42241  42.823  34.012   4.042
75459W        W42242  30.422   1.911   2.643
75460W        W42243  38.481  41.785  11.209
75461W        W42244  30.067  31.170  13.497
75462W        W42245   3.447   5.969   4.152
75463W        W42246   3.201  37.877  12.027
75464W        W42247   4.857  22.545   4.471
75465W        W42248  23.811  14.733  14.275
75466W        W42249  27.356  28.001   3.260
75467W        W42250  27.094  21.609   3.689
75468W        W42251   6.470  42.302  14.215
75469W        W42252   1.779  22.742  13.443
75470W        W42253   7.446  28.903  12.488
75471W        W42254  19.020  10.836  10.691
75472W        W42255  11.786  29.456   1.456
75473W        W42256  24.353  27.110  12.293
75474W        W42257  41.617  17.377  13.471
75475W        W42258   8.817  16.365  12.264
75476W        W42259  24.445   6.922   2.826
75477W        W42260  20.179  40.008   0.750
75478W        W42261  22.750  40.860  10.636
75479W        W42262   2.881  34.119  11.585
75480W        W42263   4.230   9.130   2.622
75481W        W42264  26.189   0.251   0.192
75482W        W42265   7.657   1.238  12.047
75483W        W42266  22.796  16.847   4.142
75484W        W42267  38.776  10.256   4.590
75485W        W42268  35.793  19.071   2.504
75486W        W42269  38.546  34.456  10.767
75487W        W42270  29.367  33.424   3.438
75488W        W42271  41.843  25.951  10.704
75489W        W42272  15.490   4.266   3.134
75490W        W42273  15.852  39.955  12.279
75491W        W42274  12.368  23.463  11.124
75492W        W42275   8.286  29.516  11.093
75493W        W42276  23.929   6.234  12.133
75494W        W42277  22.946  32.550  13.862
75495W        W42278  10.674   5.874   5.217
75496W        W42279  37.880  35.581   3.247
75497W        W42280  17.027  34.482   3.674
75498W        W42281  29.080  32.934   2.839
75499W        W42282  43.363  34.972  13.973
75500W        W42283   5.751  23.299   3.637
75501W        W42284   1.430  38.920  14.034
75502W        W42285  25.127   5.933   4.414
75503W        W42286  27.608  26.197   2.739
75504W        W42287  44.334  11.340   2.669
75505W        W42288  25.189  32.185   4.547
75506W        W42289   8.357  14.787  11.542
75507W        W42290  10.377  22.248   3.267
75508W        W42291  25.105  20.157   1.889
75509W        W42292  42.394  26.628  13.363
75510W        W42293   2.271  22.826   4.563
75511W        W42294   5.483  25.588   0.459
75512W        W42295  27.686  19.163  12.601
75513W        W42296  19.462  18.745  11.888
75514W        W42297  15.184  27.639   0.428
75515W        W42298  38.858  10.770  14.086
75516W        W42299  16.752  44.468   2.603
75517W        W42300   2.492  39.522  10.989
75518W        W42301  38.963  21.237  11.967
75519W        W42302  11.789  44.031   4.157
75520W        W42303   9.098  27.503   2.660
75521W        W42304  16.161  19.354   4.748
75522W        W42305   5.073  10.845  10.743
75523W        W42306   8.546  25.743  13.862
75524W        W42307  12.534  21.042   4.773
75525W        W42308  17.671  31.575  10.389
75526W        W42309  38.010  43.859  12.912
75527W        W42310  16.287  27.191  12.987
75528W        W42311  24.975   1.265  12.210
75529W        W42312  11.149  13.594   1.188
75530W        W42313  36.428  36.287  12.051
75531W        W42314  25.739  19.186   1.202
75532W        W42315  19.193  14.699  13.537
75533W        W42316  23.750  41.371  13.955
75534W        W42317  41.780  25.687   4.578
75535W        W42318  30.842  30.342  14.965
75536W        W42319  12.842  28.918  13.052
75537W        W42320  23.010   4.382  13.992
75538W        W42321   8.322  27.600   4.084
75539W        W42322  36.372  39.351  12.392
75540W        W42323   9.354  24.104  13.448
75541W        W42324  17.823   4.787  14.917
75542W        W42325  26.926  21.634   4.190
75543W        W42326  12.618  19.035  13.766
75544W        W42327  34.435  32.877   3.585
75545W        W42328   6.298  40.375  13.117
75546W        W42329  26.994   4.015  12.729
75547W        W42330  27.678  33.089   4.206
75548W        W42331  12.176   2.739  12.998
75549W        W42332  21.466  27.206   1.504
75550W        W42333  42.796  29.440   2.257
75551W        W42334   5.529   9.718   2.802
75552W        W42335  24.979  33.164  14.030
75553W        W42336  12.617  29.394   3.319
75554W        W42337   9.719  34.046   2.455
75555W        W42338   9.410   4.893  10.694
75556W        W42339   0.436  35.853  11.040
75557W        W42340   0.418  23.588   0.214
75558W        W42341  16.662  31.025  11.516
75559W        W42342  37.342   7.491  10.684
75560W        W42343  39.573  20.333   2.705
75561W        W42344  13.204  34.853  13.063
75562W        W42345  28.701  41.856   3.980
75563W        W42346  42.539  10.998  10.782
75564W        W42347   6.728  20.999  10.739
75565W        W42348  39.279  42.560   2.337
75566W        W42349  22.777  17.734  14.895
75567W        W42350  36.903  38.794  11.914
75568W        W42351  40.494  41.435   1.914
75569W        W42352  20.120   2.266  14.429
75570W        W42353  30.315  38.635   3.664
75571W        W42354  26.655  31.104  12.880
75572W        W42355  32.737  19.610   0.007
75573W        W42356   0.453  12.408  10.641
75574W        W42357  36.513  24.967  11.556
75575W        W42358  17.634  14.595   2.131
75576W        W42359  19.169  30.421   0.249
75577W        W42360   0.823  38.819  12.978
75578W        W42361   4.993  35.834   9.880
75579W        W42362   0.922  40.238  14.874
75580W        W42363   3.454  17.606   3.747
75581W        W42364   2.979   2.026  13.727
75582W        W42365  16.191  30.541  14.701
75583W        W42366  22.880  37.447   1.768
75584W        W42367  23.404   7.881   3.831
75585W        W42368  32.900  25.061   2.584
75586W        W42369  13.628  18.976   2.559
75587W        W42370  16.658  23.304  14.869
75588W        W42371  42.547  39.309  14.522
75589W        W42372   3.851  20.624  13.908
75590W        W42373  18.725  42.551   0.474
75591W        W42374  27.826  38.348   2.987
75592W        W42375  28.362   1.791  12.409
75593W        W42376  13.288  25.665  12.007
75594W        W42377  37.731  10.617   0.719
75595W        W42378  16.759  36.166  12.928
75596W        W42379  19.041  40.410  12.541
75597W        W42380   9.827  10.881   0.354
75598W        W42381  14.767  16.202  11.387
75599W        W42382  10.918  19.058  14.912
75600W        W42383   7.381  35.111   3.078
75601W        W42384  39.901  41.787   4.150
75602W        W42385  44.895  20.722  10.561
75603W        W42386  34.097  33.112  10.797
75604W        W42387  32.363  32.627   1.333
75605W        W42388  29.099  26.633  12.489
75606W        W42389   4.815  26.090  14.007
75607W        W42390  23.767   1.243  14.796
75608W        W42391  36.627   0.357  11.129
75609W        W42392  14.230  33.190   1.898
75610W        W42393  11.183  26.034   4.407
75611W        W42394   6.182  38.595   0.284
75612W        W42395  38.526   7.219   2.215
75613W        W42396  40.578  33.653  11.921
75614W        W42397  31.509  15.914  13.940
75615W        W42398   8.901  34.313   1.789
75616W        W42399   4.317  33.753  10.748
75617W        W42400  20.738   4.953  10.293
75618W        W42401  20.748  22.205   1.388
75619W        W42402  13.374  42.827  13.360
75620W        W42403  39.070  36.114  11.095
75621W        W42404  42.460  30.430   0.748
75622W        W42405  19.106  34.404   1.290
75623W        W42406  34.044  28.273  12.564
75624W        W42407   6.521  35.889  12.819
75625W        W42408  26.459  19.625   3.380
75626W        W42409  26.954   7.714   4.932
75627W        W42410   4.736  16.419   2.575
75628W        W42411  21.147  43.963   3.165
75629W        W42412  35.294  29.193  12.113
75630W        W42413  11.644  33.616  14.941
75631W        W42414   4.730  10.290   0.319
75632W        W42415  18.577  35.587  12.122
75633W        W42416  16.085  28.247  12.495
75634W        W42417  22.580  41.253   4.527
75635W        W42418  34.554  33.467  12.938
75636W        W42419   3.206   1.781  13.322
75637W        W42420  42.939  21.729  11.644
75638W        W42421  21.549  14.395  11.177
75639W        W42422   8.362  31.578   1.727
75640W        W42423  11.348  39.101   2.458
75641W        W42424  32.865  15.374   4.026
75642W        W42425  18.108  19.423  13.513
75643W        W42426   0.738  20.532   1.715
75644W        W42427  10.836  26.676  12.102
75645W        W42428  27.021  32.431  12.068
75646W        W42429  19.561  11.929  10.323
75647W        W42430   7.251  16.087   0.933
75648W        W42431  37.981  35.852  10.693
75649W        W42432  20.759  38.562  11.084
75650W        W42433  20.896  15.735   5.248
75651W        W42434  22.946   2.890   2.755
75652W        W42435   9.124   0.667   1.299
75653W        W42436  19.271  10.742   4.115
75654W        W42437  27.909   3.250   2.254
75655W        W42438  39.994  23.335   4.648
75656W        W42439  34.339  22.619  11.168
75657W        W42440  33.555   8.734   3.307
75658W        W42441   7.739  18.172  14.949
75659W        W42442   7.740  11.342  12.689
75660W        W42443  12.717  17.272  14.050
75661W        W42444  16.376   4.811  14.956
75662W        W42445   3.971  31.541   1.473
75663W        W42446  19.523   7.437  12.042
75664W        W42447  25.164  17.126   0.086
75665W        W42448  14.768   9.590  11.436
75666W        W42449  30.429   4.781  14.404
75667W        W42450  21.777   3.218   2.243
75668W        W42451  18.183  40.073  12.150
75669W        W42452  36.285   4.301  13.887
75670W        W42453  15.384  18.552  10.360
75671W        W42454  21.761  20.686   2.820
75672W        W42455   7.981  40.988  12.947
75673W        W42456  43.372  16.764   1.557
75674W        W42457  40.594  20.057   4.966
75675W        W42458  33.056  41.684   1.340
75676W        W42459  36.032  33.875  12.276
75677W        W42460  30.231  15.268   0.451
75678W        W42461  29.649  41.008  14.333
75679W        W42462   7.713  15.006  10.698
75680W        W42463  43.962  13.606   3.867
75681W        W42464  35.033  17.823   1.875
75682W        W42465  35.057   0.719   0.661
75683W        W42466  34.358  38.552   0.264
75684W        W42467  27.473  26.280  14.836
75685W        W42468  20.055  15.741  14.943
75686W        W42469  25.088  10.745   4.876
75687W        W42470  22.098  42.037   4.685
75688W        W42471  42.559   6.078   1.356
75689W        W42472  31.343  31.182   2.577
75690W        W42473  17.222  25.614   4.808
75691W        W42474  33.182  36.112  14.801
75692W        W42475  34.138  34.490   3.612
75693W        W42476  12.816  13.226   0.432
75694W        W42477  39.484  42.514  10.652
75695W        W42478   9.210  27.889   3.888
75696W        W42479  17.595   5.938  10.594
75697W        W42480  41.080  29.918   1.292
75698W        W42481   6.073  30.940   3.316
75699W        W42482  21.533   7.243  14.576
75700W        W42483  31.333  18.644   4.511
75701W        W42484  12.571  14.137  13.498
75702W        W42485  42.835  27.351  14.999
75703W        W42486  13.634   7.775   0.913
75704W        W42487  38.910  24.980   0.432
75705W        W42488  34.159   6.823   2.763
75706W        W42489  22.330  19.578  14.882
75707W        W42490  22.991   4.740  10.420
75708W        W42491   2.146  44.947   0.254
75709W        W42492  33.782  19.020   1.658
75710W        W42493  40.859  24.412   4.220
75711W        W42494   9.854  36.388   4.596
75712W        W42495  29.466   9.047  14.044
75713W        W42496  39.248  28.231   3.274
75714W        W42497  20.895  26.454  12.068
75715W        W42498   8.191  23.932   4.937
75716W        W42499  23.834   9.623   2.495
75717W        W42500  42.017  27.850  13.539
75718W        W42501  26.155  35.946   1.350
75719W        W42502   1.816  31.584   3.075
75720W        W42503   0.045   6.775   1.375
75721W        W42504  30.358  30.654  12.068
75722W        W42505  32.074  26.289  13.943
75723W        W42506   5.746  13.642  11.620
75724W        W42507  35.487  15.924   2.484
75725W        W42508  16.836  40.138   2.299
75726W        W42509   8.544  24.579   1.775
75727W        W42510  11.266  42.813  11.221
75728W        W42511   9.267   0.850  11.288
75729W        W42512  34.477  13.241  14.961
75730W        W42513   1.311  39.366  13.447
75731W        W42514  22.217   3.989  10.340
75732W        W42515   4.762  13.749   0.666
75733W        W42516   5.772  24.696   3.909
75734W        W42517  18.444  24.253  11.565
75735W        W42518  19.603  35.347  11.428
75736W        W42519  30.015  25.036  12.588
75737W        W42520   6.939  38.881   0.177
75738W        W42521  20.632  35.576  13.036
75739W        W42522  13.310   3.812   4.112
75740W        W42523  35.879   7.840  11.923
75741W        W42524  23.062  17.331   1.241
75742W        W42525  39.434  16.541   3.334
75743W        W42526   0.131  25.916   2.035
75744W        W42527   6.435  34.809  12.495
75745W        W42528  14.127  43.666   2.794
75746W        W42529   8.296  28.943  11.237
75747W        W42530  10.214   5.501   3.283
75748W        W42531  36.455   8.910   3.583
75749W        W42532  38.511  15.362  10.511
75750W        W42533   2.449   1.986  13.810
75751W        W42534   4.754   6.727  14.908
75752W        W42535  44.604  28.251  11.168
75753W        W42536  44.355  13.870   3.629
75754W        W42537   2.758  24.711   3.907
75755W        W42538  34.633  19.489  10.978
75756W        W42539  33.797   4.480  13.008
75757W        W42540  30.563  27.178   3.365
75758W        W42541  43.912  10.650  10.527
75759W        W42542  18.220  25.849  10.757
75760W        W42543  29.606  38.367  13.292
75761W        W42544  16.819  11.019   4.047
75762W        W42545   4.204  36.499  12.335
75763W        W42546  26.476   3.279  14.346
75764W        W42547  29.392  27.445   2.637
75765W        W42548  42.298   8.448  12.585
75766W        W42549  42.482  42.698   9.926
75767W        W42550  19.314  16.718  12.111
75768W        W42551   9.777   4.206  10.984
75769W        W42552  23.413  20.284  12.911
75770W        W42553  18.736   9.916  13.920
75771W        W42554   6.265  34.543   1.988
75772W        W42555  28.797  14.177   0.110
75773W        W42556  31.404  39.540  12.948
75774W        W42557  34.362  28.298  12.153
75775W        W42558  24.239  18.217  10.673
75776W        W42559  38.260   8.284  10.797
75777W        W42560   3.147  37.109  13.364
75778W        W42561  40.587  26.562   4.207
75779W        W42562  34.827   3.924   0.347
75780W        W42563  29.466   4.793  11.603
75781W        W42564  31.205   4.961   2.315
75782W        W42565   0.228  20.060   4.386
75783W        W42566  42.879  22.685  13.065
75784W        W42567  24.100  17.888  11.517
75785W        W42568   5.347  11.741  11.179
75786W        W42569  17.826  27.999   1.854
75787W        W42570  23.737   5.314   1.468
75788W        W42571  26.196   6.357   0.683
75789W        W42572  26.193   2.165   4.587
75790W        W42573  44.378  18.332  13.539
75791W        W42574  11.864  28.477   4.618
75792W        W42575  21.210  15.848  12.967
75793W        W42576  37.953  23.307   1.803
75794W        W42577  17.767  16.696   4.581
75795W        W42578   4.968  24.529   1.929
75796W        W42579  12.137  14.367  11.099
75797W        W42580  16.229  34.994  12.866
75798W        W42581  12.979  37.348  14.434
75799W        W42582  35.240  33.549   2.969
75800W        W42583   3.770  33.498   1.142
75801W        W42584  38.435  32.993  12.826
75802W        W42585  35.895   1.045  13.950
75803W        W42586   5.452  21.309   2.586
75804W        W42587  44.663  24.505   3.953
75805W        W42588  21.682  44.713   2.226
75806W        W42589  30.613  25.444  12.069
75807W        W42590   2.259   5.958  13.033
75808W        W42591   2.507  28.893  12.201
75809W        W42592  17.030  21.283   2.996
75810W        W42593  29.546  44.494  11.183
75811W        W42594  28.039  13.739  11.485
75812W        W42595  16.192  25.094  12.344
75813W        W42596  44.404  28.453   0.422
75814W        W42597   1.742   9.865  11.214
75815W        W42598   0.840  33.573  13.539
75816W        W42599  27.623  29.263  11.918
75817W        W42600   7.252   0.329   4.143
75818W        W42601  11.605  40.072   2.732
75819W        W42602  38.924   1.371  12.977
75820W        W42603  32.327  21.043   2.600
75821W        W42604  23.674  14.606  13.775
75822W        W42605   1.727   0.848  12.980
75823W        W42606  12.651   7.457  12.489
75824W        W42607  30.924   6.398  11.755
75825W        W42608  21.622   6.100   2.791
75826W        W42609  42.569  16.861  10.696
75827W        W42610  11.804  16.371   3.696
75828W        W42611  38.599  11.296  13.952
75829W        W42612   8.687  32.462  10.550
75830W        W42613  30.096   0.475   2.758
75831W        W42614  10.441  32.122  14.025
75832W        W42615  29.860  30.434   1.613
75833W        W42616  19.863   9.880  13.554
75834W        W42617  39.161   1.922   3.280
75835W        W42618  33.792  37.036  14.431
75836W        W42619  39.668  44.946   1.230
75837W        W42620  13.887   1.271  11.982
75838W        W42621   0.202   6.917  14.103
75839W        W42622  13.068  19.078   3.220
75840W        W42623  41.260   5.895   9.834
75841W        W42624  11.100   8.436   1.879
75842W        W42625  19.563  26.607  13.517
75843W        W42626  26.598   1.467   4.267
75844W        W42627  30.006  11.094  13.916
75845W        W42628  42.761  11.444   0.372
75846W        W42629  25.480  44.105  10.275
75847W        W42630  13.708  36.055   9.840
75848W        W42631  26.309  40.327  12.567
75849W        W42632  40.265  28.473   0.140
75850W        W42633   2.442  29.445  14.673
75851W        W42634   5.493  38.807  13.636
75852W        W42635  27.511  11.324  13.449
75853W        W42636  10.963  27.178  10.926
75854W        W42637  21.947   9.888   4.199
75855W        W42638  11.379   3.125   2.642
75856W        W42639  26.791  43.534   1.814
75857W        W42640  32.568  24.177   0.313
75858W        W42641  11.392  24.085  12.445
75859W        W42642   4.259  20.666   3.597
75860W        W42643  17.826  24.966   1.847
75861W        W42644  15.861  15.644   1.641
75862W        W42645  20.103   2.552   0.365
75863W        W42646  19.868  39.798   3.243
75864W        W42647  24.675   8.276  10.423
75865W        W42648   3.281  21.637  10.590
75866W        W42649  27.975  11.030   3.782
75867W        W42650  14.104   1.045  11.142
75868W        W42651  21.724  13.921   2.718
75869W        W42652  19.071  35.386   1.117
75870W        W42653  22.588  21.248   0.099
75871W        W42654  11.723  13.150   0.002
75872W        W42655  21.250  42.892   2.473
75873W        W42656  31.191  38.840   0.031
75874W        W42657  10.621  12.040  14.462
75875W        W42658  13.613  34.031   1.362
75876W        W42659   2.430  26.956   3.766
75877W        W42660  42.792  16.887  13.040
75878W        W42661   1.685  36.972   3.662
75879W        W42662  25.373  14.263  13.443
75880W        W42663   7.290  38.564  14.442
75881W        W42664  28.583   2.209  10.694
75882W        W42665  11.824  12.185  14.771
75883W        W42666  19.599  16.719   2.192
75884W        W42667   4.563  34.122   5.048
75885W        W42668  33.385  22.241  13.469
75886W        W42669  39.250   5.611   2.760
75887W        W42670  13.525   2.249  12.826
75888W        W42671  17.103   9.312   4.548
75889W        W42672  24.073  21.318   0.011
75890W        W42673  32.064  16.583  11.916
75891W        W42674  42.304  29.188   4.116
75892W        W42675  21.910   1.448  11.040
75893W        W42676   0.352  13.284   2.842
75894W        W42677  13.874  31.830   4.171
75895W        W42678  14.292  30.896   4.150
75896W        W42679   8.044  26.983   2.213
75897W        W42680  18.350  23.619   1.750
75898W        W42681  40.565   9.497  10.810
75899W        W42682  22.765  36.385  14.867
75900W        W42683  37.290  37.616  14.891
75901W        W42684  44.012   7.013   4.229
75902W        W42685  32.951  25.842   4.054
75903W        W42686  11.210  41.313   2.803
75904W        W42687  23.717  34.860   0.999
75905W        W42688  38.939   5.473  13.019
75906W        W42689  20.975  43.027  14.209
75907W        W42690   4.118  27.446   4.118
75908W        W42691  34.530  17.233  10.635
75909W        W42692  34.538  27.837  12.020
75910W        W42693  44.006  26.704  13.491
75911W        W42694  36.534  25.690  14.814
75912W        W42695  32.577  31.506   3.281
75913W        W42696  19.032   9.291   4.602
75914W        W42697  19.739  12.631  12.512
75915W        W42698   8.444  26.027  14.495
75916W        W42699  33.556   9.772   3.451
75917W        W42700  14.625  15.221   1.715
75918W        W42701  29.976  44.405   3.777
75919W        W42702  39.018  14.675  13.372
75920W        W42703  24.583  32.428   3.490
75921W        W42704  13.170  33.391   4.302
75922W        W42705  32.532   5.072  13.791
75923W        W42706  27.545  30.199   1.730
75924W        W42707  34.050   8.987  14.335
75925W        W42708  11.735  41.493  10.071
75926W        W42709  40.463  19.085  12.832
75927W        W42710   4.204  25.365  13.715
75928W        W42711  18.052  40.088  11.672
75929W        W42712  16.280  41.665  11.457
75930W        W42713   7.470   5.712  10.525
75931W        W42714  10.305  10.840   0.583
75932W        W42715  27.546  24.630   4.926
75933W        W42716   4.905   0.700  10.615
75934W        W42717   1.479  16.325   3.263
75935W        W42718  38.032  42.427   0.285
75936W        W42719  40.867  18.211   2.462
75937W        W42720   2.240  10.422  14.330
75938W        W42721  23.069  23.177  14.037
75939W        W42722  37.946   0.149   4.170
75940W        W42723   6.204   3.234  12.439
75941W        W42724  41.856   2.320  14.287
75942W        W42725  15.978  14.894  13.799
75943W        W42726  24.086  24.856  14.220
75944W        W42727  33.560  39.817  13.356
75945W        W42728  35.552   2.679   4.550
75946W        W42729  21.530  28.148   0.960
75947W        W42730  14.761  36.520  11.123
75948W        W42731  23.921   8.922   2.253
75949W        W42732  44.008  24.202   2.827
75950W        W42733  36.066   1.081  14.799
75951W        W42734   0.355  21.657  14.893
75952W        W42735  18.711  18.622  10.961
75953W        W42736  26.849  38.589   1.312
75954W        W42737   0.218  23.664   1.084
75955W        W42738  41.241  42.965  13.865
75956W        W42739   3.421   8.426   0.212
75957W        W42740   0.391  24.622  14.990
75958W        W42741  41.311  13.584  14.583
75959W        W42742  42.885   0.276  10.646
75960W        W42743  27.445   9.918  13.317
75961W        W42744  43.941  28.058   3.706
75962W        W42745  39.914  17.217   1.828
75963W        W42746  43.813   3.292  13.933
75964W        W42747  32.585   1.828  13.354
75965W        W42748  38.121  15.774  12.130
75966W        W42749  32.447  14.645   0.798
75967W        W42750   3.290  23.981  11.682
75968W        W42751  34.424  37.494  14.169
75969W        W42752  27.520  29.833  10.668
75970W        W42753   0.943   6.262   1.229
75971W        W42754   8.863   6.307  11.632
75972W        W42755   2.257  26.921   2.820
75973W        W42756  20.759  40.091  10.946
75974W        W42757  20.849  14.415   3.738
75975W        W42758  36.293   9.806   1.444
75976W        W42759   2.765  22.039   2.432
75977W        W42760  11.754  38.387   3.417
75978W        W42761  44.742  28.995  11.592
75979W        W42762  23.252   7.765  12.993
75980W        W42763  16.279  42.794  13.981
75981W        W42764  43.130  26.138  11.996
75982W        W42765   9.284  36.005  10.659
75983W        W42766  13.724  30.924   3.369
75984W        W42767  25.015   8.368   1.398
75985W        W42768  16.181   0.348   2.858
75986W        W42769  19.353  36.069   3.592
75987W        W42770  26.162  30.989  14.776
75988W        W42771  19.699   4.734  13.016
75989W        W42772   7.986  17.238  13.820
75990W        W42773  17.743  30.870   0.103
75991W        W42774  16.598  21.293   1.398
75992W        W42775  12.190  37.029  14.794
75993W        W42776  17.490   7.310   0.450
75994W        W42777   4.858  23.546  13.801
75995W        W42778  35.008  40.137   0.875
75996W        W42779  20.271   7.569  14.439
75997W        W42780  22.679  41.367  11.536
75998W        W42781  18.357  13.119   3.220
75999W        W42782  30.244  42.818   0.682
76000W        W42783  18.167  32.985  11.902
76001W        W42784  22.444  10.789   1.762
76002W        W42785  16.151   6.417   3.392
76003W        W42786  27.562   6.649   0.781
76004W        W42787  40.434  12.360   0.939
76005W        W42788  40.371  14.630  12.969
76006W        W42789  25.091  31.845   0.991
76007W        W42790  14.683  22.698  14.182
76008W        W42791  17.203  26.263  11.033
76009W        W42792   9.117  21.327   2.152
76010W        W42793   1.257   0.194  12.494
76011W        W42794  25.741  44.024  10.745
76012W        W42795  18.153  10.270   2.405
76013W        W42796  11.470   1.892  13.378
76014W        W42797  15.055  11.313  10.782
76015W        W42798  20.891  27.326   2.192
76016W        W42799  29.043  15.445   1.932
76017W        W42800   3.404  12.416  14.942
76018W        W42801  14.506   6.758  14.311
76019W        W42802  11.465   7.755  13.494
76020W        W42803  43.487  39.650  11.173
76021W        W42804  33.377  21.019  14.074
76022W        W42805  15.335  24.127   3.218
76023W        W42806  35.003  16.559  12.014
76024W        W42807  43.050  27.131   3.647
76025W        W42808  12.536   6.447  11.590
76026W        W42809   7.852   1.171  10.824
76027W        W42810  37.486  22.626  10.457
76028W        W42811  39.880  33.594   1.300
76029W        W42812  43.690  40.140  12.106
76030W        W42813  21.427  29.125  13.055
76031W        W42814  30.367   1.685  13.253
76032W        W42815  27.077  39.427   0.977
76033W        W42816  19.002  32.576   3.231
76034W        W42817  21.714  18.216  14.238
76035W        W42818  18.932  35.075  14.845
76036W        W42819   5.661  27.839   1.238
76037W        W42820   3.795  32.449   1.817
76038W        W42821  13.770   9.005   1.876
76039W        W42822  10.336   0.203   4.059
76040W        W42823  32.360  10.472  12.432
76041W        W42824  34.322  29.636  11.750
76042W        W42825   9.917  22.300  13.854
76043W        W42826  15.310  24.120  11.374
76044W        W42827  35.138  17.226   3.219
76045W        W42828  17.580  44.991  11.079
76046W        W42829   6.244  39.981   2.271
76047W        W42830   3.961  31.162   1.130
76048W        W42831  11.635  43.536   2.779
76049W        W42832  18.286  10.106   3.167
76050W        W42833  29.614  41.040  11.931
76051W        W42834  17.982  40.107  14.396
76052W        W42835   3.005  26.138   3.506
76053W        W42836  34.946  22.670  14.270
76054W        W42837  30.700   2.431  12.816
76055W        W42838  22.836  27.709   2.369
76056W        W42839  42.320   5.463  11.694
76057W        W42840  12.639   1.186  14.995
76058W        W42841  36.636   0.839  10.298
76059W        W42842  34.333   9.169  13.485
76060W        W42843  33.541  14.821   0.743
76061W        W42844  18.141  38.074   4.566
76062W        W42845   0.080  40.697   4.108
76063W        W42846   7.862   0.330   3.137
76064W        W42847  11.334  38.659   9.816
76065W        W42848  44.984  11.532  10.134
76066W        W42849  10.840   4.452   2.860
76067W        W42850  21.727  28.989  10.929
76068W        W42851   1.891   3.179   5.100
76069W        W42852   1.854   9.908   2.495
76070W        W42853  30.461  35.457   0.481
76071W        W42854   3.420  44.459   0.669
76072W        W42855  38.069  43.290  13.493
76073W        W42856  29.794  32.613  12.139
76074W        W42857  23.700   4.976   4.981
76075W        W42858  33.245  23.967  14.734
76076W        W42859  42.511  41.101   2.046
76077W        W42860  28.524  18.065  12.589
76078W        W42861  32.076  17.970   4.319
76079W        W42862  14.788  16.809  10.721
76080W        W42863  40.071  27.450   1.909
76081W        W42864  34.672  20.793  12.624
76082W        W42865  23.617   1.410   1.783
76083W        W42866  17.832  11.726   4.702
76084W        W42867  16.360  38.852  13.864
76085W        W42868  24.757  36.656   3.820
76086W        W42869  27.005  21.733  12.907
76087W        W42870  29.349  19.262   0.730
76088W        W42871   1.885  18.297   1.962
76089W        W42872  20.118  21.533   2.358
76090W        W42873  23.802  38.018  11.491
76091W        W42874  18.997  27.865  13.796
76092W        W42875  18.112  27.683   4.877
76093W        W42876   1.230   1.380  10.625
76094W        W42877  27.709  18.805  12.058
76095W        W42878  19.719  16.080  10.889
76096W        W42879  33.363  17.123  10.571
76097W        W42880  25.998  22.244  11.115
76098W        W42881  20.557  10.361  13.440
76099W        W42882  38.912  14.101  11.655
76100W        W42883  24.800  43.373  14.027
76101W        W42884  21.868  19.115  10.398
76102W        W42885  17.545  33.055   3.649
76103W        W42886  32.541  22.205   1.732
76104W        W42887  24.769   0.208   5.557
76105W        W42888  12.953  44.396  10.563
76106W        W42889   6.327   9.233   2.599
76107W        W42890  32.774  20.661  14.769
76108W        W42891   5.946  17.653  11.164
76109W        W42892   7.479  10.276   2.308
76110W        W42893  38.629  39.318  14.283
76111W        W42894   0.513   0.991  13.469
76112W        W42895   4.880  20.705   2.415
76113W        W42896  36.890   2.534  14.376
76114W        W42897  36.101  14.570  13.253
76115W        W42898   1.300  37.452  14.236
76116W        W42899  15.411  14.226   4.352
76117W        W42900   6.629  19.736   0.593
76118W        W42901  13.947   0.073   1.919
76119W        W42902  19.271  36.532  12.399
76120W        W42903  44.057  30.208   1.946
76121W        W42904  40.857  39.039  12.513
76122W        W42905   9.625  35.553  12.522
76123W        W42906  10.785  19.331  14.484
76124W        W42907   8.673  36.897   0.513
76125W        W42908  41.798   6.104   1.933
76126W        W42909  38.591  40.112  11.781
76127W        W42910   0.110  18.106   3.632
76128W        W42911  41.794   5.380   0.000
76129W        W42912  15.856  35.202  11.992
76130W        W42913  10.997  16.753  13.300
76131W        W42914  39.409   5.050  12.523
76132W        W42915  12.235  16.019   4.133
76133W        W42916  30.373  28.491   1.331
76134W        W42917  27.632   3.373   4.523
76135W        W42918  29.599  39.855   1.866
76136W        W42919  25.205   7.416   0.955
76137W        W42920  39.446   6.369  11.503
76138W        W42921  33.304  10.899  13.332
76139W        W42922  40.926  42.046  11.504
76140W        W42923   8.091  33.745   9.927
76141W        W42924  18.433  32.173  14.721
76142W        W42925   7.790  44.886   0.236
76143W        W42926   3.176  24.086  14.043
76144W        W42927  25.861  35.676  14.552
76145W        W42928   3.818  30.650  14.725
76146W        W42929  30.369  25.463   4.528
76147W        W42930  22.636  37.585  12.043
76148W        W42931  31.426  24.649   3.519
76149W        W42932  12.130  38.090   2.250
76150W        W42933  44.438   0.700  14.116
76151W        W42934  33.206  23.475  12.510
76152W        W42935  32.401   1.358   2.713
76153W        W42936  15.887  39.578   2.388
76154W        W42937  25.906  43.058   3.266
76155W        W42938  33.072  42.949  14.921
76156W        W42939  26.482   7.147  14.388
76157W        W42940   9.490  27.196   1.437
76158W        W42941   3.324  29.142  13.320
76159W        W42942  33.725  38.898  14.730
76160W        W42943  10.719  27.974  11.537
76161W        W42944   6.620   2.231  12.019
76162W        W42945  20.799  14.728  12.519
76163W        W42946  12.012  32.903  14.399
76164W        W42947   2.484   4.199  12.560
76165W        W42948  33.124   3.904   1.771
76166W        W42949  16.203  39.854   4.759
76167W        W42950  27.305  10.397  13.460
76168W        W42951  14.180  22.505   0.814
76169W        W42952  16.366  33.357  13.961
76170W        W42953  33.348  11.212  11.148
76171W        W42954  12.286  10.516   1.268
76172W        W42955  14.433  19.605  13.839
76173W        W42956  13.159  12.817   0.416
76174W        W42957  38.889  25.170   3.740
76175W        W42958  24.616   3.805  13.071
76176W        W42959   0.352  41.506   1.825
76177W        W42960  10.188  34.913   0.354
76178W        W42961   0.522  28.014  10.835
76179W        W42962  17.885  13.635  11.955
76180W        W42963  43.905  25.758  14.474
76181W        W42964  13.240   5.494   1.966
76182W        W42965  36.024  17.148   3.251
76183W        W42966  36.314   8.548  10.745
76184W        W42967  37.594  10.877  12.069
76185W        W42968   8.973  12.507  13.510
76186W        W42969  15.857  10.431  14.781
76187W        W42970   4.405   0.510  10.609
76188W        W42971  16.977  43.223   1.278
76189W        W42972  18.549  16.305  12.944
76190W        W42973   5.393  39.971  12.617
76191W        W42974  34.379  12.551   4.691
76192W        W42975  41.924  14.884  14.727
76193W        W42976  28.387   7.107  10.866
76194W        W42977  38.164   9.844  10.636
76195W        W42978  12.088  14.075  11.925
76196W        W42979  29.556  26.603  12.200
76197W        W42980  11.636  26.138  13.410
76198W        W42981   2.717  43.805  13.894
76199W        W42982  36.640  37.003   2.684
76200W        W42983  10.247  20.194  12.578
76201W        W42984  39.872  18.657  13.576
76202W        W42985  23.058   9.630  14.444
76203W        W42986  37.101  27.193   1.755
76204W        W42987  39.301  23.420   2.444
76205W        W42988  30.486  10.539  13.251
76206W        W42989   1.203  22.782  11.092
76207W        W42990   0.772  13.312   1.330
76208W        W42991   1.255  43.360  10.615
76209W        W42992  13.894  39.447  12.034
76210W        W42993  28.852   5.357   1.665
76211W        W42994  11.039  25.232   2.854
76212W        W42995  17.582  16.733  14.335
76213W        W42996  34.460  17.825  11.974
76214W        W42997   6.888   9.336  11.516
76215W        W42998   4.891  16.821   0.500
76216W        W42999  30.972   6.285   0.951
76217W        W43000  34.306  25.764   0.371
76218W        W43001  25.740  35.027   5.041
76219W        W43002  19.666  28.705   0.450
76220W        W43003  11.550  33.532   2.447
76221W        W43004   5.934  30.353  12.067
76222W        W43005  17.548  23.723  13.373
76223W        W43006  21.209  31.986  11.688
76224W        W43007  24.762  28.749   1.896
76225W        W43008  14.488  31.477   3.717
76226W        W43009  20.841  14.566  10.281
76227W        W43010  13.030  20.261   4.539
76228W        W43011  22.026  44.357  12.355
76229W        W43012  32.752  16.654   0.700
76230W        W43013  32.654  18.509   3.048
76231W        W43014  33.905  43.341   1.234
76232W        W43015  32.932  39.976   0.190
76233W        W43016   1.238   7.739   2.708
76234W        W43017  12.604  23.486  11.596
76235W        W43018  18.686  23.644   4.892
76236W        W43019  37.856  30.552   3.314
76237W        W43020   2.680   7.049   3.641
76238W        W43021  17.552  31.761   1.990
76239W        W43022  23.070  18.674   1.333
76240W        W43023   3.466  16.379   0.222
76241W        W43024  14.918  42.952  14.383
76242W        W43025  40.802  10.841  10.309
76243W        W43026  40.545  44.099   4.970
76244W        W43027  22.730   5.641  12.384
76245W        W43028  11.155  19.041   4.183
76246W        W43029   0.452  16.643  11.395
76247W        W43030   7.252  15.615   4.748
76248W        W43031  17.028  24.065  11.631
76249W        W43032   9.893   6.671   1.678
76250W        W43033  40.209  14.911   4.571
76251W        W43034  13.272  14.863  14.395
76252W        W43035  35.744  38.005  13.604
76253W        W43036  38.219  24.351   1.800
76254W        W43037  15.061  34.684   5.066
76255W        W43038   4.118  10.054  11.185
76256W        W43039  40.954   3.708  14.694
76257W        W43040  10.384  33.519  13.257
76258W        W43041  44.927  26.264  12.894
76259W        W43042  34.887   5.015   0.921
76260W        W43043  37.309   0.994   2.473
76261W        W43044  14.638  24.836   0.104
76262W        W43045  27.468   1.685   2.757
76263W        W43046  40.116  37.435  13.679
76264W        W43047  41.746   6.916   0.613
76265W        W43048   1.047  23.270   3.293
76266W        W43049  17.203  19.787  13.315
76267W        W43050  11.037  11.238   2.786
76268W        W43051  22.220  25.138  14.628
76269W        W43052  26.027  29.972   4.531
76270W        W43053  14.162   6.876  13.927
76271W        W43054  15.153  16.078  13.951
76272W        W43055  16.125  19.948   4.675
76273W        W43056  35.609  23.243   2.607
76274W        W43057  29.754   4.881   3.177
76275W        W43058  42.707   2.744  11.972
76276W        W43059   8.173  17.840   1.416
76277W        W43060  37.354   0.050   0.414
76278W        W43061  14.340  16.238  12.847
76279W        W43062  14.605  29.001  12.088
76280W        W43063   0.837  33.408  14.383
76281W        W43064  14.022   4.188  13.532
76282W        W43065  27.859  26.678  11.319
76283W        W43066  41.861  24.190   2.411
76284W        W43067  12.949  13.278  13.903
76285W        W43068  33.437  29.498  10.776
76286W        W43069  22.455  34.921   4.069
76287W        W43070   0.959  42.695   0.699
76288W        W43071  30.689  21.752  11.572
76289W        W43072   1.023  21.806  10.408
76290W        W43073  13.800   5.643   4.139
76291W        W43074  22.095  29.070   4.696
76292W        W43075   3.852   4.050   4.196
76293W        W43076   7.913  15.028  13.391
76294W        W43077  22.283  30.811  12.925
76295W        W43078  23.540  27.619   4.355
76296W        W43079   5.280  36.313  12.415
76297W        W43080  18.560  43.545  10.557
76298W        W43081   5.912   9.741  14.927
76299W        W43082  36.455  30.262  11.192
76300W        W43083  40.331  28.867   0.471
76301W        W43084   0.084  36.454  12.343
76302W        W43085  12.375  29.892   3.440
76303W        W43086  32.786   5.924   0.325
76304W        W43087  12.316  16.622   1.456
76305W        W43088  15.561   1.870   4.588
76306W        W43089   1.331  31.581  11.892
76307W        W43090  21.718  12.517  12.224
76308W        W43091  20.058  34.407   3.265
76309W        W43092   8.248   6.381  11.679
76310W        W43093  23.058  39.722   3.696
76311W        W43094  26.928  32.680   2.327
76312W        W43095   2.393   6.890  12.955
76313W        W43096  42.009   6.921   0.142
76314W        W43097   6.670  31.539   0.127
76315W        W43098  29.569  20.616   2.665
76316W        W43099  20.349  16.344  10.367
76317W        W43100   4.281  25.619  14.684
76318W        W43101  10.752  10.232  14.345
76319W        W43102  14.828  21.925  12.039
76320W        W43103   8.507  37.864   3.743
76321W        W43104  32.061   1.165  11.177
76322W        W43105  44.031  22.482  11.139
76323W        W43106   3.686  31.052  10.445
76324W        W43107  29.369  34.892   2.264
76325W        W43108   5.333   7.944   2.408
76326W        W43109  26.619  29.030  12.588
76327W        W43110  19.780   3.838   4.881
76328W        W43111  39.766  36.880  13.309
76329W        W43112  43.356   1.540   3.363
76330W        W43113   4.765  33.888   0.247
76331W        W43114  15.462  22.830   2.671
76332W        W43115  19.427  34.873  11.547
76333W        W43116   2.734  43.314  14.093
76334W        W43117  39.216  37.504   3.066
76335W        W43118   4.335  10.694   4.133
76336W        W43119   8.849   1.773  14.644
76337W        W43120  31.633  25.174   3.612
76338W        W43121  39.732  23.267  11.181
76339W        W43122  19.257   7.114  10.545
76340W        W43123  36.840   9.007   0.821
76341W        W43124  14.025  41.437   0.724
76342W        W43125  17.552  41.512   0.018
76343W        W43126  11.360  27.549  11.682
76344W        W43127  16.828  28.213  12.153
76345W        W43128  16.193   0.038  14.126
76346W        W43129   2.705  22.162  12.931
76347W        W43130  14.635   0.528   1.646
76348W        W43131   0.456  16.227   2.560
76349W        W43132   8.572  20.738   0.215
76350W        W43133   0.287   7.325   0.078
76351W        W43134   0.774  30.963   0.015
76352W        W43135  36.801  29.613  10.696
76353W        W43136  32.875  24.892  10.722
76354W        W43137  21.658   8.955   1.426
76355W        W43138  16.803  41.757   3.032
76356W        W43139   2.499  17.648   2.150
76357W        W43140  26.364   0.397  13.360
76358W        W43141  32.825  23.275   4.584
76359W        W43142  23.337   8.625  11.237
76360W        W43143  33.836  19.978  13.533
76361W        W43144  22.799   9.963  10.536
76362W        W43145  23.550  28.018   0.798
76363W        W43146  12.269  35.316  12.035
76364W        W43147   6.636  36.373  12.992
76365W        W43148   1.945  37.785  13.631
76366W        W43149  39.821   6.901   9.859
76367W        W43150  40.816  43.190   3.820
76368W        W43151  35.579  42.026   3.422
76369W        W43152  17.211   6.565  11.154
76370W        W43153  15.400  12.824   0.494
76371W        W43154   1.704   4.833   0.257
76372W        W43155  12.286  40.567   3.334
76373W        W43156  36.596  19.715   5.403
76374W        W43157  13.614  42.819   2.351
76375W        W43158   5.973  25.938  14.449
76376W        W43159  26.743   2.514   1.799
76377W        W43160  12.810  23.003  14.403
76378W        W43161  18.600  37.537   4.552
76379W        W43162  38.163  22.671   3.304
76380W        W43163  17.611  12.068  13.198
76381W        W43164  37.822  12.351   3.358
76382W        W43165  39.801  23.412   4.165
76383W        W43166   8.419  19.129   1.396
76384W        W43167  21.415  22.344  10.137
76385W        W43168   8.644  42.194   0.877
76386W        W43169   4.782  38.612   1.238
76387W        W43170  21.954  20.029  13.960
76388W        W43171   4.162   8.244  14.877
76389W        W43172  15.086  13.821  14.406
76390W        W43173  22.752  42.423  13.936
76391W        W43174  20.366   9.707  14.388
76392W        W43175  33.206  26.244  12.532
76393W        W43176  27.609   1.828  11.239
76394W        W43177   1.196  19.622   1.404
76395W        W43178  10.188   0.763  10.727
76396W        W43179  43.939  36.545   1.128
76397W        W43180  36.561   7.830  13.936
76398W        W43181  13.535   0.379   1.865
76399W        W43182  12.631  24.755  12.875
76400W        W43183   5.699   2.984   4.191
76401W        W43184  31.878   5.736   4.177
76402W        W43185  30.914  14.626  13.945
76403W        W43186  17.044  32.875  11.848
76404W        W43187  39.353  32.487   1.946
76405W        W43188  33.573  16.307  12.848
76406W        W43189  22.734  31.991  12.057
76407W        W43190  44.370   3.661  11.542
76408W        W43191  18.014   7.188   2.286
76409W        W43192   3.483  25.645   2.137
76410W        W43193  44.586  44.308  12.646
76411W        W43194  18.646   7.252   1.447
76412W        W43195  11.885   6.178   0.804
76413W        W43196   1.948  42.361   4.431
76414W        W43197  27.925  28.698   3.186
76415W        W43198  44.497  14.875  12.363
76416W        W43199  20.466   4.627   4.196
76417W        W43200  13.596   1.253  12.423
76418W        W43201  23.886  35.777   0.293
76419W        W43202  17.924   6.775   0.487
76420W        W43203  24.574   4.763  14.494
76421W        W43204  26.577  25.537  12.644
76422W        W43205  32.942  13.199  14.038
76423W        W43206  21.262   7.228  11.585
76424W        W43207  32.457  18.661   9.711
76425W        W43208  11.147  16.679   4.622
76426W        W43209  35.050   7.757   3.273
76427W        W43210  20.723   7.859  12.948
76428W        W43211  16.918   4.985   3.684
76429W        W43212   6.116  10.284  11.920
76430W        W43213  34.950  13.413  11.012
76431W        W43214  25.290  17.254   2.724
76432W        W43215  38.280   0.894  14.032
76433W        W43216  33.833  36.429  12.148
76434W        W43217   6.140  19.171  14.503
76435W        W43218   1.204  30.014  13.867
76436W        W43219  17.616  10.336   2.485
76437W        W43220   5.082  33.786  14.448
76438W        W43221  36.637  33.487  10.374
76439W        W43222  19.162  30.471  12.919
76440W        W43223  35.112   9.439  13.847
76441W        W43224  17.319  30.904  13.947
76442W        W43225  26.962  40.429   3.340
76443W        W43226  14.636  22.196  13.324
76444W        W43227   7.287   2.531   3.640
76445W        W43228  27.428  33.535   4.176
76446W        W43229  21.040  25.805   4.237
76447W        W43230  33.352  42.001  11.163
76448W        W43231   2.321  41.818  14.176
76449W        W43232   2.414  12.392  14.787
76450W        W43233  20.809   3.412   0.390
76451W        W43234  24.103   4.433  12.345
76452W        W43235  33.937  37.925   3.622
76453W        W43236  30.980  27.432  10.574
76454W        W43237  12.883   3.960  14.839
76455W        W43238   4.982  43.431  13.147
76456W        W43239   1.232  18.008   3.235
76457W        W43240  39.102   9.401  13.910
76458W        W43241  22.770  25.573  14.939
76459W        W43242  43.265  14.605  14.288
76460W        W43243  29.699  22.019   2.879
76461W        W43244  26.661  32.333   2.643
76462W        W43245  30.664  38.868  14.954
76463W        W43246   7.116  14.743  11.154
76464W        W43247  17.835  27.161  13.347
76465W        W43248   3.338  30.876   4.414
76466W        W43249  11.413  21.128   4.612
76467W        W43250  27.940  25.585   0.304
76468W        W43251  26.055  22.042  13.553
76469W        W43252   9.409  29.550   2.035
76470W        W43253  24.794  15.696   4.728
76471W        W43254  41.342  39.516   1.839
76472W        W43255  23.727  21.182   1.335
76473W        W43256  33.510  24.400  14.801
76474W        W43257   6.340  10.373  13.794
76475W        W43258  41.069  44.457   4.543
76476W        W43259  41.304  24.995  13.112
76477W        W43260  19.719  19.254   2.397
76478W        W43261  35.298  36.848  10.666
76479W        W43262  19.314   7.933  12.506
76480W        W43263   9.127  31.131   3.759
76481W        W43264  13.650   8.273   3.189
76482W        W43265   9.631  17.912  13.816
76483W        W43266  43.033  15.131  12.587
76484W        W43267  10.822  36.754  10.671
76485W        W43268  34.913   6.084   1.000
76486W        W43269  41.692  42.299  12.516
76487W        W43270  31.643   8.943  11.978
76488W        W43271  29.491  15.190   0.764
76489W        W43272  29.244  35.974  13.098
76490W        W43273  25.155   1.045   2.334
76491W        W43274  22.566  32.476   1.399
76492W        W43275  14.806  19.852   3.963
76493W        W43276  38.552  18.941  13.411
76494W        W43277  13.757  44.802   2.309
76495W        W43278  20.117  21.622  10.517
76496W        W43279  39.607  39.385  11.924
76497W        W43280  31.894   3.199   1.884
76498W        W43281  37.420   9.220   4.545
76499W        W43282  14.067  34.300  10.614
76500W        W43283  16.310  22.560   4.754
76501W        W43284  20.550  28.165   2.102
76502W        W43285  13.677  23.485   2.814
76503W        W43286  44.355  32.961   0.533
76504W        W43287   2.108  36.816  11.395
76505W        W43288   6.440  41.389  14.532
76506W        W43289  19.755   2.394  10.223
76507W        W43290   2.848  34.822  14.668
76508W        W43291  22.521  33.370  14.055
76509W        W43292  39.495  16.164  12.172
76510W        W43293  15.759  24.125   0.484
76511W        W43294   1.302  29.165  13.325
76512W        W43295  43.919  40.889  12.687
76513W        W43296  15.293  37.355  12.132
76514W        W43297  22.226   0.533   1.381
76515W        W43298  31.990  44.395   3.629
76516W        W43299  20.024   6.717   4.607
76517W        W43300  44.780  16.657   4.354
76518W        W43301   1.717   3.345   0.753
76519W        W43302  13.714   5.416   3.660
76520W        W43303  34.208  40.437   3.133
76521W        W43304  24.488  34.018  13.944
76522W        W43305  30.610   1.839  11.562
76523W        W43306  11.099  29.044   4.785
76524W        W43307  24.637  23.848   2.839
76525W        W43308   2.503  21.159   2.687
76526W        W43309   4.448  21.657  13.458
76527W        W43310  33.164  43.782   0.043
76528W        W43311  28.251   8.084   4.155
76529W        W43312  14.512  29.945  14.458
76530W        W43313  15.259  33.328  14.277
76531W        W43314  26.181   8.940  12.962
76532W        W43315  29.521  18.738  12.658
76533W        W43316  43.755  40.245   0.321
76534W        W43317  17.235  12.732   5.164
76535W        W43318   0.889  27.173   1.821
76536W        W43319  42.000   9.361   3.046
76537W        W43320  15.679   4.160   1.891
76538W        W43321  11.838  28.920  12.963
76539W        W43322  24.706  44.805  11.535
76540W        W43323   8.498  38.769  14.911
76541W        W43324  16.606  37.908  13.719
76542W        W43325   1.860  15.607   0.240
76543W        W43326  11.262  27.443  12.230
76544W        W43327  44.727   5.288   3.244
76545W        W43328  21.690  21.691   1.897
76546W        W43329  25.230  21.993   4.365
76547W        W43330   4.142   1.931   0.691
76548W        W43331   7.620  11.376   1.345
76549W        W43332   4.966  19.129   2.806
76550W        W43333  11.649   6.379   3.613
76551W        W43334  29.953  20.387   3.259
76552W        W43335   4.829  13.535  10.803
76553W        W43336  14.329  40.888   4.623
76554W        W43337  17.065   3.793   2.212
76555W        W43338  22.412  20.366  12.029
76556W        W43339   8.282  22.565  12.829
76557W        W43340  39.009   0.411   1.710
76558W        W43341  38.835  18.474  12.349
76559W        W43342  18.487  41.842   2.382
76560W        W43343  12.217   8.760  13.555
76561W        W43344  24.440  44.572  11.156
76562W        W43345   1.450  11.916   1.648
76563W        W43346  13.670  38.041   1.770
76564W        W43347  12.251  15.575  12.092
76565W        W43348  36.900  44.248  14.436
76566W        W43349  27.167   6.196   1.403
76567W        W43350  43.470  31.273  14.699
76568W        W43351  19.437  31.091   4.544
76569W        W43352  42.298  18.586  13.421
76570W        W43353   5.870  29.690  11.590
76571W        W43354  26.417  16.728  10.326
76572W        W43355  23.614   7.415  13.355
76573W        W43356  21.048   7.405  14.670
76574W        W43357  26.243  31.949   3.337
76575W        W43358  19.757  33.378   4.062
76576W        W43359  25.660  23.487   2.195
76577W        W43360  27.090  35.529   4.492
76578W        W43361  12.322  19.789  12.487
76579W        W43362   8.268  29.902  11.445
76580W        W43363  37.539  23.733   1.674
76581W        W43364  36.404  14.238   0.856
76582W        W43365  30.029  25.808  13.361
76583W        W43366  30.352  10.421  12.771
76584W        W43367  34.774  42.875   3.517
76585W        W43368   8.204  15.968  10.890
76586W        W43369  25.222  33.592  13.854
76587W        W43370   8.338  12.194   4.461
76588W        W43371  28.588  31.285  12.087
76589W        W43372  16.939  37.801   3.234
76590W        W43373   1.707  16.028  10.330
76591W        W43374   0.583  36.760   0.821
76592W        W43375  41.927  12.357  12.562
76593W        W43376  37.296  15.046   4.639
76594W        W43377  22.236   5.264   1.472
76595W        W43378  15.217   6.717  11.685
76596W        W43379  24.547  44.030  12.039
76597W        W43380  16.557  24.360  14.494
76598W        W43381  34.465  29.020   4.534
76599W        W43382  13.182  31.602   4.165
76600W        W43383  34.629  13.799  14.449
76601W        W43384  15.288   1.521   1.037
76602W        W43385  33.112   4.922  12.142
76603W        W43386  23.273  19.798   4.243
76604W        W43387  10.831   6.132   0.558
76605W        W43388  42.676  28.726  14.966
76606W        W43389  42.536  35.455  13.152
76607W        W43390  16.727  22.540  12.309
76608W        W43391  28.562  36.726   3.257
76609W        W43392  37.773  35.851  11.152
76610W        W43393   8.215  39.366  11.880
76611W        W43394  33.798  11.509   0.252
76612W        W43395  23.574  23.333   0.341
76613W        W43396  35.134  27.658   0.283
76614W        W43397  34.773  21.682  12.884
76615W        W43398  18.168  21.078   1.026
76616W        W43399   4.984  16.175  14.715
76617W        W43400  26.971  44.296  10.775
76618W        W43401  22.551  41.604  10.087
76619W        W43402  27.958  16.320  11.452
76620W        W43403   8.951  31.532   0.783
76621W        W43404  43.562  21.495  12.059
76622W        W43405  27.007  28.839  12.942
76623W        W43406  30.724  11.402  11.254
76624W        W43407  10.854  36.616  14.439
76625W        W43408   2.961   9.576  13.439
76626W        W43409  10.788  10.730  10.990
76627W        W43410  42.550  17.107   0.676
76628W        W43411   8.096  32.090   2.901
76629W        W43412  31.076  37.664   5.171
76630W        W43413  35.055  18.388  14.462
76631W        W43414  18.271  31.065   1.775
76632W        W43415  31.397  35.248  14.474
76633W        W43416  11.280  10.804  12.327
76634W        W43417  39.383  30.542   4.404
76635W        W43418  17.588  15.046   2.345
76636W        W43419  13.577  35.141  11.158
76637W        W43420  13.304  16.177   3.911
76638W        W43421  13.293  22.663   4.586
76639W        W43422   6.294  37.977   3.198
76640W        W43423   8.342  28.118  14.718
76641W        W43424  17.069   9.272   4.030
76642W        W43425  37.249  20.504  14.728
76643W        W43426   6.720  34.646   3.165
76644W        W43427  30.495   2.218  10.705
76645W        W43428  17.832   4.220   4.571
76646W        W43429  11.675  21.584  12.634
76647W        W43430   4.728  34.974   0.593
76648W        W43431  10.485   2.271  12.884
76649W        W43432  15.237  25.455   4.708
76650W        W43433  29.571  19.639   3.488
76651W        W43434   5.824   9.567  11.583
76652W        W43435  10.197  20.070   0.462
76653W        W43436  12.450  37.172   3.174
76654W        W43437  36.951  14.958  11.748
76655W        W43438  38.569  35.683   3.989
76656W        W43439  23.731  39.653  11.029
76657W        W43440  32.073  11.056  13.414
76658W        W43441  40.291   3.220   1.959
76659W        W43442  13.954  24.062  10.704
76660W        W43443  12.186  34.457   5.626
76661W        W43444  14.212  20.214  12.710
76662W        W43445  16.643  33.697  11.517
76663W        W43446   8.152  10.268  13.993
76664W        W43447  33.009  17.130   2.766
76665W        W43448  26.106  22.911   4.245
76666W        W43449  28.078  26.212   3.167
76667W        W43450  38.812  14.215   1.635
76668W        W43451  36.023   4.243   1.897
76669W        W43452  32.240  10.913   0.288
76670W        W43453   3.864  15.063   3.175
76671W        W43454   7.900  11.749   3.340
76672W        W43455   2.019  14.092  11.170
76673W        W43456   5.656  11.373   0.755
76674W        W43457  15.122  37.548   2.559
76675W        W43458  26.952   9.250   3.404
76676W        W43459   0.399  39.973   2.672
76677W        W43460  20.587   1.963   4.566
76678W        W43461  17.917  36.419  12.768
76679W        W43462  17.246  13.994   3.261
76680W        W43463  36.143  15.567  12.156
76681W        W43464  33.147  26.794   9.983
76682W        W43465   1.313  37.363   0.733
76683W        W43466  10.589  23.747   2.433
76684W        W43467   6.717   5.534  14.464
76685W        W43468  26.463  28.624   1.480
76686W        W43469  25.602  31.309  14.372
76687W        W43470   2.986  40.848   1.352
76688W        W43471  22.485   4.365   4.088
76689W        W43472  35.345  39.499  13.343
76690W        W43473   1.872  23.646   1.203
76691W        W43474  41.076  12.551  13.878
76692W        W43475  43.438  17.689   5.452
76693W        W43476  14.602  37.539  13.648
76694W        W43477  22.002  21.558   1.204
76695W        W43478  24.552  30.263   1.856
76696W        W43479  33.607  30.739  10.144
76697W        W43480  13.935   2.035   2.909
76698W        W43481  19.305  41.969  13.491
76699W        W43482  33.035  24.530   2.436
76700W        W43483  14.964  14.624   2.741
76701W        W43484  42.878  42.864   1.542
76702W        W43485  44.080   0.459   4.790
76703W        W43486  29.627  36.870  12.950
76704W        W43487  32.444  23.379  10.895
76705W        W43488   8.538  29.758   1.439
76706W        W43489  20.790  36.699  11.130
76707W        W43490  25.759  18.542   2.762
76708W        W43491   0.417   7.857   3.759
76709W        W43492  23.602  37.945  11.021
76710W        W43493   8.176  29.508   3.153
76711W        W43494  40.238  34.953   5.033
76712W        W43495  24.436  38.154   4.198
76713W        W43496  28.092  15.132   1.950
76714W        W43497  16.275  41.996   0.098
76715W        W43498  43.282   6.297  11.095
76716W        W43499  42.679  38.971   1.839
76717W        W43500  19.219  44.259  13.019
76718W        W43501  12.774  29.663  12.004
76719W        W43502  43.921  13.779   3.370
76720W        W43503   0.169  41.755   2.270
76721W        W43504  15.310  36.623   0.679
76722W        W43505   3.228   1.258   1.758
76723W        W43506   0.269  19.414  12.101
76724W        W43507  17.113  19.928   1.176
76725W        W43508   3.374  42.895   0.953
76726W        W43509  26.740  28.904   4.109
76727W        W43510  25.112  40.012  12.603
76728W        W43511  44.359  41.537   3.265
76729W        W43512  12.702  30.171   4.733
76730W        W43513  10.153  28.052  11.641
76731W        W43514  30.107  17.404   0.641
76732W        W43515  30.897  12.171   1.822
76733W        W43516   3.531  21.136   2.314
76734W        W43517   5.695  26.179  13.845
76735W        W43518  30.608  44.958   3.306
76736W        W43519  32.839  28.537  12.179
76737W        W43520  39.857   0.420  13.513
76738W        W43521  10.107  38.369  13.744
76739W        W43522  10.425  16.240  13.661
76740W        W43523  22.735  30.453   0.312
76741W        W43524  27.250   4.423   4.111
76742W        W43525  30.273   9.839   4.559
76743W        W43526  11.710   3.951   4.540
76744W        W43527  36.626  13.676  13.340
76745W        W43528   2.178   5.207   3.712
76746W        W43529  42.062  34.019  12.982
76747W        W43530  21.788  22.254   4.301
76748W        W43531  21.442  32.667  12.699
76749W        W43532   2.984  14.709   1.758
76750W        W43533   7.140   9.272  11.981
76751W        W43534  27.183   2.877  13.385
76752W        W43535  24.611   8.617   1.000
76753W        W43536   8.422  31.617   2.752
76754W        W43537  20.720  21.190   0.019
76755W        W43538   2.706  32.571   3.405
76756W        W43539  38.075  13.072   0.909
76757W        W43540  20.587  40.515   2.370
76758W        W43541  44.780  27.540  10.582
76759W        W43542  10.657   0.341   1.784
76760W        W43543  26.293   9.884   0.251
76761W        W43544   3.694  39.903  11.196
76762W        W43545  21.585   3.321  14.911
76763W        W43546   9.444  44.356  12.306
76764W        W43547  29.206  39.503   1.265
76765W        W43548  33.471  44.655  10.757
76766W        W43549  43.075  30.442   1.741
76767W        W43550  42.370  26.147  10.662
76768W        W43551  32.857  27.524  12.413
76769W        W43552  27.225   4.254  13.345
76770W        W43553   4.970  43.317   0.433
76771W        W43554  30.879  10.213  12.642
76772W        W43555  28.478  26.026   1.285
76773W        W43556  15.505   5.972  10.972
76774W        W43557   8.942  18.097  12.631
76775W        W43558  17.161   1.498  12.644
76776W        W43559   4.375  13.245   4.204
76777W        W43560  28.506  37.519   1.810
76778W        W43561  39.287  19.837  10.745
76779W        W43562  35.981  10.191   2.909
76780W        W43563  25.421  20.918  13.415
76781W        W43564   2.943  10.961  10.668
76782W        W43565   3.158  26.554   4.723
76783W        W43566  36.624  20.227  13.398
76784W        W43567  39.491  37.819  11.328
76785W        W43568  26.438  24.058  13.577
76786W        W43569  39.586  27.138  13.435
76787W        W43570  39.098  25.673  10.903
76788W        W43571   4.193  23.261  11.541
76789W        W43572  41.253  25.853  11.597
76790W        W43573  21.305  35.355  13.590
76791W        W43574  28.496  23.291   4.319
76792W        W43575  29.952   1.540   0.435
76793W        W43576  23.296  19.718   2.835
76794W        W43577  14.812  12.604  14.682
76795W        W43578  18.640  38.478   0.669
76796W        W43579  21.022  33.938  11.669
76797W        W43580   1.881  20.935  12.867
76798W        W43581  32.636  38.057  14.699
76799W        W43582  22.792  15.801   4.117
76800W        W43583  10.844  18.799  12.079
76801W        W43584  39.332  42.160   3.369
76802W        W43585  42.085  29.873  13.601
76803W        W43586  12.811  15.489   3.869
76804W        W43587  13.283  38.544   5.024
76805W        W43588  34.951  33.827  13.822
76806W        W43589  27.716  36.375   3.854
76807W        W43590  16.911  10.175  14.970
76808W        W43591   5.313   3.660   0.145
76809W        W43592  44.247  28.480   2.678
76810W        W43593  24.744   3.533   1.256
76811W        W43594  18.261  17.545   4.228
76812W        W43595  28.081  31.146   2.338
76813W        W43596   7.633  27.294  11.282
76814W        W43597  44.236  13.219   1.830
76815W        W43598  44.333   5.625   2.146
76816W        W43599  30.558  21.657  12.471
76817W        W43600  18.188   9.538   0.008
76818W        W43601  23.710  16.623  13.548
76819W        W43602  37.254  20.189  10.768
76820W        W43603  18.127  21.576   0.872
76821W        W43604   9.090  30.023  13.967
76822W        W43605  12.257   3.000  10.493
76823W        W43606  25.248  36.139   5.033
76824W        W43607   6.227  21.018  14.375
76825W        W43608   3.079  40.495  11.193
76826W        W43609  39.975   8.740   3.329
76827W        W43610   5.218  31.774   2.400
76828W        W43611   8.248   1.701  14.824
76829W        W43612  16.245  34.178   3.577
76830W        W43613  44.755  42.013   2.482
76831W        W43614  23.003   4.764   4.273
76832W        W43615  29.427  44.774  14.548
76833W        W43616  23.500  38.391  11.253
76834W        W43617  28.897   9.230   2.748
76835W        W43618  10.239   2.417  14.382
76836W        W43619  40.768  15.744   3.483
76837W        W43620  29.938  37.131   1.398
76838W        W43621  39.397  16.028  14.415
76839W        W43622   9.337   1.762  12.668
76840W        W43623  10.267  34.183   3.751
76841W        W43624  30.433  24.548   1.546
76842W        W43625  15.788   6.241   4.625
76843W        W43626  18.085  17.698   0.338
76844W        W43627   1.412  24.874   0.087
76845W        W43628  12.285   6.640   4.468
76846W        W43629  35.043  37.756   1.878
76847W        W43630  12.776  23.253   1.731
76848W        W43631  18.663  38.220  12.098
76849W        W43632   8.645  31.646   0.352
76850W        W43633  35.090  15.941   4.383
76851W        W43634   3.808  20.683   2.325
76852W        W43635   7.127   7.161  14.302
76853W        W43636  24.602  17.952  14.808
76854W        W43637  23.698  24.681   2.744
76855W        W43638  44.126  40.227   4.853
76856W        W43639   6.257   7.029   3.702
76857W        W43640  10.788  41.467  13.938
76858W        W43641  16.784  25.682   2.276
76859W        W43642   9.027  38.599   4.447
76860W        W43643   7.261  40.373  13.930
76861W        W43644  22.624  29.086  13.905
76862W        W43645   9.253  11.184  14.033
76863W        W43646  19.781  36.975  14.384
76864W        W43647   0.203  19.499  11.316
76865W        W43648  37.313  40.245  14.537
76866W        W43649  28.041  26.741   1.811
76867W        W43650  24.151  35.001  11.963
76868W        W43651   1.112   4.150  10.516
76869W        W43652   2.411   2.462  14.792
76870W        W43653   5.241  34.065   0.410
76871W        W43654  13.044  18.969   4.090
76872W        W43655  32.957   6.695   3.138
76873W        W43656  27.535   5.343  10.466
76874W        W43657  21.019  31.364  13.865
76875W        W43658  29.852  36.556  12.039
76876W        W43659  12.653  11.318   0.464
76877W        W43660  39.410  33.962   0.982
76878W        W43661  12.806  39.377   0.697
76879W        W43662  22.168  15.279  12.991
76880W        W43663   4.414  15.591  11.181
76881W        W43664  17.287   4.765  13.775
76882W        W43665  39.027  44.223   0.425
76883W        W43666  39.607  12.793   2.382
76884W        W43667  24.695   5.787  14.741
76885W        W43668  20.155  23.130  14.888
76886W        W43669  27.880  24.925  13.058
76887W        W43670   7.889  40.492  11.984
76888W        W43671   4.321  26.974   4.122
76889W        W43672  27.911   1.367   3.962
76890W        W43673  41.167   3.959  13.820
76891W        W43674   8.638  13.016   3.447
76892W        W43675  42.928  11.109   4.958
76893W        W43676  43.776  25.265   4.072
76894W        W43677   7.746   6.981   4.422
76895W        W43678  18.519   1.339   3.659
76896W        W43679  32.922   8.600  13.480
76897W        W43680  11.185  33.347  12.347
76898W        W43681  24.082  10.435  10.910
76899W        W43682  21.139   9.133   3.786
76900W        W43683   1.882   7.732  12.189
76901W        W43684   5.447  13.638  12.045
76902W        W43685  36.274  35.447  12.959
76903W        W43686   7.764   9.343  11.181
76904W        W43687  40.244  24.039  14.352
76905W        W43688  40.762  33.617   2.289
76906W        W43689  22.054  35.999   4.368
76907W        W43690  38.110  15.635   0.183
76908W        W43691   8.350  28.733  12.720
76909W        W43692  37.677  16.086   2.222
76910W        W43693   8.450  24.788  10.706
76911W        W43694  15.390  13.868  10.244
76912W        W43695   6.220  11.430   2.213
76913W        W43696  41.730  20.965  11.233
76914W        W43697  10.303  35.979  13.565
76915W        W43698   0.618  37.580  12.405
76916W        W43699  22.567  42.613  13.481
76917W        W43700  36.043  21.906  14.817
76918W        W43701   1.937  19.922   0.798
76919W        W43702  32.904  24.635   2.906
76920W        W43703   2.896  27.385  12.360
76921W        W43704  29.670   4.266  13.306
76922W        W43705   4.567   1.504   1.417
76923W        W43706  26.322  21.972   1.525
76924W        W43707  22.574   4.183   3.216
76925W        W43708  21.546  40.196   3.317
76926W        W43709  24.636  19.636   4.034
76927W        W43710  25.638  23.060  13.573
76928W        W43711  15.096  38.812   1.890
76929W        W43712   8.287   3.376  12.829
76930W        W43713   8.978  43.809   4.084
76931W        W43714   8.694  24.278   0.244
76932W        W43715  17.953  28.794   3.099
76933W        W43716  43.323  15.285   3.181
76934W        W43717  20.808  10.189   1.530
76935W        W43718   3.730  43.844  14.055
76936W        W43719  20.067  33.754  14.347
76937W        W43720  29.899  27.803   0.744
76938W        W43721   0.983  10.258  10.632
76939W        W43722  23.729   2.318   3.243
76940W        W43723  17.859  27.354  12.444
76941W        W43724  13.103  36.147  10.095
76942W        W43725  33.200  22.789   4.886
76943W        W43726   4.434  23.448   0.794
76944W        W43727  43.288  31.510  12.049
76945W        W43728  27.525  24.021  14.602
76946W        W43729  18.833  36.133  13.898
76947W        W43730  16.173  18.103  12.920
76948W        W43731  39.659  30.561  13.990
76949W        W43732  26.334   3.855   3.183
76950W        W43733  44.352   2.772   1.792
76951W        W43734  27.582  17.006   0.269
76952W        W43735  27.655   4.781   2.832
76953W        W43736   2.566   7.889  13.013
76954W        W43737  20.365  21.118  11.658
76955W        W43738  25.563   6.023  11.265
76956W        W43739  36.016   2.973  14.084
76957W        W43740  14.298   1.311   3.297
76958W        W43741  16.153  44.807  14.604
76959W        W43742  10.260   8.217  14.669
76960W        W43743  22.986   0.320   2.866
76961W        W43744  17.709  39.135   1.152
76962W        W43745  22.596  15.502   1.913
76963W        W43746  32.405  34.007   1.442
76964W        W43747   5.835  12.023  13.831
76965W        W43748  22.635  18.119  14.442
76966W        W43749  30.240   2.487  12.044
76967W        W43750  42.387  20.994   1.302
76968W        W43751  27.295   7.756   1.303
76969W        W43752  11.749  19.559  11.131
76970W        W43753   6.390  44.602   2.202
76971W        W43754  39.982  21.523   0.504
76972W        W43755  16.348  23.594   4.588
76973W        W43756  14.680   3.113  12.196
76974W        W43757  18.929   2.755   1.828
76975W        W43758  21.163  40.077  12.655
76976W        W43759  15.292  24.222  14.046
76977W        W43760  29.956  44.878   3.970
76978W        W43761  22.676  12.656  12.399
76979W        W43762  12.369  43.693   1.889
76980W        W43763  15.696   2.023  13.920
76981W        W43764  39.379  26.036  12.204
76982W        W43765  25.118  40.324  11.354
76983W        W43766   8.355   5.916  11.946
76984W        W43767  15.744   1.480   3.379
76985W        W43768  23.617   6.600  10.653
76986W        W43769  13.135  19.137   2.366
76987W        W43770  39.096   0.762  14.979
76988W        W43771   9.149   1.858   4.583
76989W        W43772  11.253  35.941  11.189
76990W        W43773  18.703  40.032   1.473
76991W        W43774  21.203  34.673   2.365
76992W        W43775  30.220   7.585   4.244
76993W        W43776  19.927  22.130   1.600
76994W        W43777  17.240  25.746  12.614
76995W        W43778  36.474  42.162  14.797
76996W        W43779  10.668  10.601  13.558
76997W        W43780  22.722   6.851   3.394
76998W        W43781   6.234  35.577  14.433
76999W        W43782  30.848  44.316  10.822
77000W        W43783  33.134  12.684   2.403
77001W        W43784  37.555  10.843   4.392
77002W        W43785  10.266  33.081   4.699
77003W        W43786  11.105   6.837  11.698
77004W        W43787  26.605   9.328   2.597
77005W        W43788  27.680   9.650   1.796
77006W        W43789  25.202   7.769  14.352
77007W        W43790  42.748  17.896  12.827
77008W        W43791   9.354  36.177  11.652
77009W        W43792  31.230  37.900   4.157
77010W        W43793  28.865  43.743  14.814
77011W        W43794  31.289  40.620   3.611
77012W        W43795  33.668   8.970   1.145
77013W        W43796   5.522  26.456   1.307
77014W        W43797  15.729   5.158  12.341
77015W        W43798   6.146  25.264  12.229
77016W        W43799  23.828   6.125   2.154
77017W        W43800  38.747  42.517  13.929
77018W        W43801  27.174  16.399  12.653
77019W        W43802  43.821  33.764   1.220
77020W        W43803  16.581   0.849  12.707
77021W        W43804  44.051  35.629   0.969
77022W        W43805  27.206   8.861  10.563
77023W        W43806  31.446  14.321   2.374
77024W        W43807   9.703  19.480  11.101
77025W        W43808  44.812  16.280  14.820
77026W        W43809  43.204  31.047  13.434
77027W        W43810  32.871  20.472  14.256
77028W        W43811  27.577  27.779   2.843
77029W        W43812  16.817   2.902  11.710
77030W        W43813  43.547  41.583  10.988
77031W        W43814  28.211  38.586   3.208
77032W        W43815  27.155  41.511   0.535
77033W        W43816   0.708  23.933   4.961
77034W        W43817  25.974   3.558  12.045
77035W        W43818  15.228  19.966  12.466
77036W        W43819  41.940   2.418   0.448
77037W        W43820  39.533  32.929  11.606
77038W        W43821   1.361  38.978  10.667
77039W        W43822  13.583  10.332  14.496
77040W        W43823  40.853  27.953   1.285
77041W        W43824  11.888   6.778   0.283
77042W        W43825   2.175  18.128   3.847
77043W        W43826  43.226   7.201  12.287
77044W        W43827   7.297  21.111  12.402
77045W        W43828   5.277  17.433   4.149
77046W        W43829  39.322  21.055   3.565
77047W        W43830  23.330  14.264   0.672
77048W        W43831  36.424  20.526   1.129
77049W        W43832  25.671  22.204   4.590
77050W        W43833   7.506  42.842   2.266
77051W        W43834  20.849  42.834   3.291
77052W        W43835  11.264   7.619  14.360
77053W        W43836  29.500  25.159   4.043
77054W        W43837   4.385  34.915   1.422
77055W        W43838   4.670  17.987   3.217
77056W        W43839   2.230  28.019   2.848
77057W        W43840  37.486  21.630  12.114
77058W        W43841  34.900  36.958   3.269
77059W        W43842  31.815  34.645  13.924
77060W        W43843  31.204  13.180  12.211
77061W        W43844   7.737  16.323  13.878
77062W        W43845  24.877  29.562  14.394
77063W        W43846  17.353  41.282  12.631
77064W        W43847  15.754  40.962  14.065
77065W        W43848  37.604  11.870  12.872
77066W        W43849  26.883  25.109   2.925
77067W        W43850  20.702  22.026   3.824
77068W        W43851  25.946  39.488  11.494
77069W        W43852  22.711   4.414  13.565
77070W        W43853  31.912  30.833  12.538
77071W        W43854  32.114   4.610   0.598
77072W        W43855   2.259   5.629  12.627
77073W        W43856  15.476  23.695   0.381
77074W        W43857  41.008  19.583   1.258
77075W        W43858   3.942  33.995   3.482
77076W        W43859   1.948  33.179   0.737
77077W        W43860  38.843  34.940   4.968
77078W        W43861   1.755  28.053  11.591
77079W        W43862  31.214  44.242  13.757
77080W        W43863  17.044   7.020   0.455
77081W        W43864   9.667  24.819   0.530
77082W        W43865  31.493  38.932   3.080
77083W        W43866   2.281   7.189   0.872
77084W        W43867  26.134   8.744  10.399
77085W        W43868  42.494  33.152   3.799
77086W        W43869  24.870  36.355   4.246
77087W        W43870  16.579  36.164   2.231
77088W        W43871  18.912  12.403  11.038
77089W        W43872   4.581  16.361  11.830
77090W        W43873  13.624  13.657  14.531
77091W        W43874   3.829  32.669  12.051
77092W        W43875  30.049  40.417  12.268
77093W        W43876  27.064  43.768   4.629
77094W        W43877  11.640   6.232  12.517
77095W        W43878  38.052   1.228   0.455
77096W        W43879   7.862  32.151  11.214
77097W        W43880  10.739  36.656   4.855
77098W        W43881  43.300   4.336  11.059
77099W        W43882  10.222   0.991   3.687
77100W        W43883  17.315   9.767   4.765
77101W        W43884  39.798  15.184   1.722
77102W        W43885  34.622  10.996   3.808
77103W        W43886  31.946  13.774   4.389
77104W        W43887  10.646  15.752  11.203
77105W        W43888  44.471  32.194   4.080
77106W        W43889  27.712  34.427   4.132
77107W        W43890   2.346  30.552   0.530
77108W        W43891  20.836  32.574   3.687
77109W        W43892  44.183   0.977  14.473
77110W        W43893   1.974  31.866   1.676
77111W        W43894  23.806  11.552  11.714
77112W        W43895  26.652  14.071   0.751
77113W        W43896   1.338  14.219   4.008
77114W        W43897   0.118  21.655  13.431
77115W        W43898  31.028  43.718  14.848
77116W        W43899  35.071   8.491   4.835
77117W        W43900  23.065  27.922   2.918
77118W        W43901  28.049  33.390  13.169
77119W        W43902  37.246  30.392  12.430
77120W        W43903  34.854   9.008   5.394
77121W        W43904  17.772  23.124   0.766
77122W        W43905  35.184   6.571  11.306
77123W        W43906  31.056  20.716   1.236
77124W        W43907   6.763   4.674  14.776
77125W        W43908   4.728   0.500  14.305
77126W        W43909  14.530  27.200  11.909
77127W        W43910  25.256   8.747  10.967
77128W        W43911   0.774  37.147  12.643
77129W        W43912  32.443   6.729  13.409
77130W        W43913  19.620   5.913   2.734
77131W        W43914  17.103   0.731  11.449
77132W        W43915  31.012   1.653   3.617
77133W        W43916  11.684  29.191  11.211
77134W        W43917  34.827   6.158   3.869
77135W        W43918  16.670  29.937  14.185
77136W        W43919  11.797  34.283   4.537
77137W        W43920  31.112   9.285   1.726
77138W        W43921  11.300  32.867   4.067
77139W        W43922  41.448  32.065  12.135
77140W        W43923  24.088  21.691  11.865
77141W        W43924  17.235  11.846   4.271
77142W        W43925  19.365  13.682   0.228
77143W        W43926   0.719  23.754  13.916
77144W        W43927  10.080  22.155   4.477
77145W        W43928   7.746  37.790   2.879
77146W        W43929  38.014   3.751  12.950
77147W        W43930  19.746  27.929   3.996
77148W        W43931  26.506   6.838  11.614
77149W        W43932  24.778  44.507  14.845
77150W        W43933  44.287  34.911   1.802
77151W        W43934  40.682   5.363   1.849
77152W        W43935   2.884  35.554   1.999
77153W        W43936  10.147  18.826   4.634
77154W        W43937  44.446  31.391  11.626
77155W        W43938  25.590  16.900  10.554
77156W        W43939  21.465   8.096  13.481
77157W        W43940  41.707  24.537   0.525
77158W        W43941  27.550   8.754  12.297
77159W        W43942  16.213   2.978  14.555
77160W        W43943  10.667   9.690  13.517
77161W        W43944   4.428  18.818   0.002
77162W        W43945  27.977  28.918  12.601
77163W        W43946  17.254  29.658  13.568
77164W        W43947  13.077  22.128  13.093
77165W        W43948  19.773   7.013  12.199
77166W        W43949  40.325  12.018   1.424
77167W        W43950   3.826  18.251  12.852
77168W        W43951  18.165  29.788  13.687
77169W        W43952   6.730   0.336   4.138
77170W        W43953   3.538  27.878   1.434
77171W        W43954  34.869   1.971  10.752
77172W        W43955  44.565  25.634  13.402
77173W        W43956  31.836  34.981   1.807
77174W        W43957  31.495  40.743  14.996
77175W        W43958  21.904  11.237   4.226
77176W        W43959  20.598  20.202   1.957
77177W        W43960  14.572  39.642   3.819
77178W        W43961  42.960  36.822   2.377
77179W        W43962  30.576   5.680  13.182
77180W        W43963  23.741   1.896  13.009
77181W        W43964  20.036   8.372  14.208
77182W        W43965  34.149  26.651   5.207
77183W        W43966   8.464  16.108   1.860
77184W        W43967  11.312  21.622   2.523
77185W        W43968  37.381  41.503   1.926
77186W        W43969  37.347   2.813  14.714
77187W        W43970  23.303  19.561  14.255
77188W        W43971  28.222  25.053   3.792
77189W        W43972  34.285  11.251  13.794
77190W        W43973  19.684  37.261   3.420
77191W        W43974  13.524  39.761  11.475
77192W        W43975  33.749   4.186   2.917
77193W        W43976  10.228  16.236   3.968
77194W        W43977  30.587  42.476   4.118
77195W        W43978   6.611  34.513  13.595
77196W        W43979  32.825  21.084  12.641
77197W        W43980  24.126  22.301  11.525
77198W        W43981  31.861  28.588   4.062
77199W        W43982  13.945  25.505  10.718
77200W        W43983  32.933  34.094   4.593
77201W        W43984   4.702  30.375   3.343
77202W        W43985   2.304  18.911   1.424
77203W        W43986   7.961  32.270   4.986
77204W        W43987  31.151   5.969  14.353
77205W        W43988   0.287   5.583  10.943
77206W        W43989  30.169  23.040  10.569
77207W        W43990  18.021  17.913   2.212
77208W        W43991  26.898  32.910   1.266
77209W        W43992  41.336  30.520  13.656
77210W        W43993  16.374  29.123  11.434
77211W        W43994  19.444  26.489   2.787
77212W        W43995  27.274  31.711  11.584
77213W        W43996   5.851   5.089   4.706
77214W        W43997   8.949  20.584   3.317
77215W        W43998  24.613  21.839   3.775
77216W        W43999   0.480  27.201  10.803
77217W        W44000  34.482  19.808  12.095
77218W        W44001  44.268   3.909  12.957
77219W        W44002  14.917  44.290  13.136
77220W        W44003  30.163  40.805   0.367
77221W        W44004  19.837   9.684  12.567
77222W        W44005  28.133  40.435  12.217
77223W        W44006  27.539  15.384   0.762
77224W        W44007  33.972  35.651  12.414
77225W        W44008  16.134  28.925   2.970
77226W        W44009   1.843  27.687  13.878
77227W        W44010  15.072  34.894   1.929
77228W        W44011  28.165  27.439   1.463
77229W        W44012  40.867  17.180   2.858
77230W        W44013  31.914  33.877  11.705
77231W        W44014  28.587  39.296  14.809
77232W        W44015   1.017   3.376  14.380
77233W        W44016  39.649  14.745   0.805
77234W        W44017  41.951  28.519   0.369
77235W        W44018   4.086   2.268  11.180
77236W        W44019  30.156  28.101   2.557
77237W        W44020   8.383  38.361  14.064
77238W        W44021  11.578  14.568   1.709
77239W        W44022  38.073  38.108   1.900
77240W        W44023  33.523  44.909   1.742
77241W        W44024  29.026  35.014  12.468
77242W        W44025  28.618  11.234   2.384
77243W        W44026  21.340   9.607   2.690
77244W        W44027  20.099  13.629   4.353
77245W        W44028   0.058  23.707   0.566
77246W        W44029  12.051  26.737  10.614
77247W        W44030  32.736  20.738   0.710
77248W        W44031  20.803  36.991  14.328
77249W        W44032  40.240  36.453   2.821
77250W        W44033  41.620  13.106  14.379
77251W        W44034  23.027  17.265  12.695
77252W        W44035   7.393  22.472   2.249
77253W        W44036  30.015  28.656  10.577
77254W        W44037  35.999  23.654  10.614
77255W        W44038   8.157  23.751   0.991
77256W        W44039  34.078  44.211  13.140
77257W        W44040  11.101  22.086   4.556
77258W        W44041  21.746   9.761  14.916
77259W        W44042  43.891  28.557   3.944
77260W        W44043  22.076  33.625  13.989
77261W        W44044   3.902  38.369   0.133
77262W        W44045  23.082  29.438  10.471
77263W        W44046  17.023  18.625   3.601
77264W        W44047  26.567  19.187   1.663
77265W        W44048  30.595  13.496  12.139
77266W        W44049  35.038  15.135  14.393
77267W        W44050  32.096  19.729   2.843
77268W        W44051  32.893  12.802  14.765
77269W        W44052  31.317  33.015   2.854
77270W        W44053  37.731   7.012   0.316
77271W        W44054  35.275  10.209  10.221
77272W        W44055   4.689  42.446   4.704
77273W        W44056  17.879  22.318   3.784
77274W        W44057  18.387  43.683   3.285
77275W        W44058  40.735  27.184   0.692
77276W        W44059  27.245  18.808  13.693
77277W        W44060  11.839  17.543  13.462
77278W        W44061  18.827  11.557  11.234
77279W        W44062  35.463   7.354   0.247
77280W        W44063  25.783  15.950   1.844
77281W        W44064  15.542  43.859  10.599
77282W        W44065  35.307  14.642  11.223
77283W        W44066   5.215  20.204   4.049
77284W        W44067  33.308   6.353  10.077
77285W        W44068  41.747  22.028   1.817
77286W        W44069   4.757  40.135   3.382
77287W        W44070  20.496  13.219   4.513
77288W        W44071  43.475  12.321   4.207
77289W        W44072   7.679   1.372  14.770
77290W        W44073  23.964  40.911  11.089
77291W        W44074  11.295   9.633   1.297
77292W        W44075  29.172  30.376   0.926
77293W        W44076  18.456  29.956   1.786
77294W        W44077  32.888  13.568  11.141
77295W        W44078  11.091  37.513   1.362
77296W        W44079  22.412   7.020   5.614
77297W        W44080  27.636  43.914   3.056
77298W        W44081   1.392  32.810  12.455
77299W        W44082  20.591  28.018  14.837
77300W        W44083  26.762  38.150   0.953
77301W        W44084  44.804  13.616   3.521
77302W        W44085   1.355  33.362   9.972
77303W        W44086  33.527   5.456  10.652
77304W        W44087   4.049  33.091   4.273
77305W        W44088  11.132  16.220  14.076
77306W        W44089  33.422  27.169  13.873
77307W        W44090  23.095   8.447   2.219
77308W        W44091  42.343  37.328   4.311
77309W        W44092  26.483  23.816  10.689
77310W        W44093  30.096  36.240  13.393
77311W        W44094   9.246  43.310  12.081
77312W        W44095  44.403  11.155  13.975
77313W        W44096  40.195   1.211   1.017
77314W        W44097  27.019  21.696   3.188
77315W        W44098  29.902  30.478  12.233
77316W        W44099  10.584  27.508   3.012
77317W        W44100  21.553  14.621  13.164
77318W        W44101   1.011  42.933   2.719
77319W        W44102  37.134   1.449   2.247
77320W        W44103  42.659  27.373   3.344
77321W        W44104  24.086   1.545  14.447
77322W        W44105  24.767  33.600  11.299
77323W        W44106  22.305  42.800  10.476
77324W        W44107  37.414  39.358   2.861
77325W        W44108  35.844  25.035   2.686
77326W        W44109  26.937  30.095  10.742
77327W        W44110  34.677   7.484  11.217
77328W        W44111  21.467  43.829  14.975
77329W        W44112  44.853  20.655  13.869
77330W        W44113  26.002   4.811   1.254
77331W        W44114  37.337   5.867  14.393
77332W        W44115  36.119  27.094  13.268
77333W        W44116   4.233  11.147  12.334
77334W        W44117  17.243  24.083  13.985
77335W        W44118  15.599  19.346   4.194
77336W        W44119  42.844   9.876   0.020
77337W        W44120  18.782  37.767   2.290
77338W        W44121  35.630  32.435   3.198
77339W        W44122  21.166  10.147   4.969
77340W        W44123  19.358  25.867   4.915
77341W        W44124  18.425  33.674   4.425
77342W        W44125  10.316  18.772  10.779
77343W        W44126  31.690  23.054   1.358
77344W        W44127   8.303  30.804   1.826
77345W        W44128  22.327  30.280  11.888
77346W        W44129  27.623  24.264  10.794
77347W        W44130  16.979  43.246  13.527
77348W        W44131  40.929  20.207   0.427
77349W        W44132  25.734  31.501  13.675
77350W        W44133  19.556  26.057   1.067
77351W        W44134  16.558   0.749  13.209
77352W        W44135  31.133  42.832   0.422
77353W        W44136   3.352  37.679   5.297
77354W        W44137  32.579  30.792   1.997
77355W        W44138  39.925  30.614   2.095
77356W        W44139  21.787   9.297   0.485
77357W        W44140  41.309  26.671   0.342
77358W        W44141  22.031  17.117  12.545
77359W        W44142  28.862   6.947   3.214
77360W        W44143  17.971  13.590   0.079
77361W        W44144  38.020  29.522   4.949
77362W        W44145  21.816  10.916  12.914
77363W        W44146  15.361  40.166   4.215
77364W        W44147  40.310  34.817   1.163
77365W        W44148  28.413   8.828   1.202
77366W        W44149  30.097   0.764   1.291
77367W        W44150  23.435  35.885  10.707
77368W        W44151  41.986  36.256   1.697
77369W        W44152   4.520   3.938   4.865
77370W        W44153  14.837   6.355  14.456
77371W        W44154  42.923   8.017   3.297
77372W        W44155  12.725  35.817   4.381
77373W        W44156   0.961  36.258  13.558
77374W        W44157  25.481  26.459  11.538
77375W        W44158  22.208   4.486   4.497
77376W        W44159  21.479   5.385   0.411
77377W        W44160   2.426  40.843   3.143
77378W        W44161  22.046   0.276  12.278
77379W        W44162   6.837   7.656  12.906
77380W        W44163  23.294  37.409  14.632
77381W        W44164  11.422  13.557  11.176
77382W        W44165  25.105  35.465   4.099
77383W        W44166  37.832  31.899   3.555
77384W        W44167  17.354  34.493  13.373
77385W        W44168  10.570  22.020  11.046
77386W        W44169   6.754   3.397  11.531
77387W        W44170  40.887  20.494   4.151
77388W        W44171  39.505   5.905   4.593
77389W        W44172  20.729  26.922  10.499
77390W        W44173   6.910  15.853   1.280
77391W        W44174  28.941   9.368   3.630
77392W        W44175   2.052   9.911  13.583
77393W        W44176  31.959  24.796   2.740
77394W        W44177  39.801  37.990   3.585
77395W        W44178  17.633   7.765  14.899
77396W        W44179  41.910   5.387   3.961
77397W        W44180  18.170  16.094  13.904
77398W        W44181  36.869  33.512   2.297
77399W        W44182  27.669  40.365   1.335
77400W        W44183  41.026  36.627  12.952
77401W        W44184  14.810   7.788   4.727
77402W        W44185  15.351   3.846  14.756
77403W        W44186  23.429  24.589  14.878
77404W        W44187   7.595  24.665  12.401
77405W        W44188  29.946  24.780   1.344
77406W        W44189  37.583  36.983  14.295
77407W        W44190  32.966  36.615  14.793
77408W        W44191   3.303  36.447   3.370
77409W        W44192  39.411  19.170   0.667
77410W        W44193  32.909  38.504  13.805
77411W        W44194  21.189  27.524   1.791
77412W        W44195  24.781   8.564  13.023
77413W        W44196  12.030  38.815   4.495
77414W        W44197  21.231  10.272  14.189
77415W        W44198  35.406  15.652  14.490
77416W        W44199  36.026   4.913  12.959
77417W        W44200   1.916  32.556   2.270
77418W        W44201  27.952  18.098   2.283
77419W        W44202  13.557  27.665  12.027
77420W        W44203   0.468   3.292  14.925
77421W        W44204  25.242  10.653   3.308
77422W        W44205  42.540  31.607  14.499
77423W        W44206  10.582  27.021   2.341
77424W        W44207  36.616  35.156  14.759
77425W        W44208   4.615   0.991   2.678
77426W        W44209  15.239  10.907   0.496
77427W        W44210   7.399  30.497   4.647
77428W        W44211   4.694  24.670  11.607
77429W        W44212  29.412  27.473  10.708
77430W        W44213  13.576   2.261  11.519
77431W        W44214  13.579  22.089  11.940
77432W        W44215   5.885   1.271  11.416
77433W        W44216   0.384  12.949  11.492
77434W        W44217  31.963  29.080   1.783
77435W        W44218  43.935  30.583  13.036
77436W        W44219  14.137   3.872  14.313
77437W        W44220   9.434  20.830  12.095
77438W        W44221   1.928  32.368   1.789
77439W        W44222  17.248  37.855   1.505
77440W        W44223  37.835  39.221  13.994
77441W        W44224  29.694  40.409  14.530
77442W        W44225  33.554  22.700  11.595
77443W        W44226  27.711  12.106   1.885
77444W        W44227   6.923  10.255  11.531
77445W        W44228   5.848  44.749  11.171
77446W        W44229  30.586  15.254  12.452
77447W        W44230   2.243   5.697   1.947
77448W        W44231  42.300  42.998   0.116
77449W        W44232  23.444  11.584   3.205
77450W        W44233  35.156  18.247  11.183
77451W        W44234  10.083  21.219   5.053
77452W        W44235   2.187   2.368   4.251
77453W        W44236  40.046  39.191   4.001
77454W        W44237  37.970  40.029  12.784
77455W        W44238  40.874   0.076   3.676
77456W        W44239   7.170  20.256   1.423
77457W        W44240  12.082  13.599   4.915
77458W        W44241  25.723  15.760   0.252
77459W        W44242  24.499  35.924  13.854
77460W        W44243  21.233  23.359  14.024
77461W        W44244   0.379  21.460   4.131
77462W        W44245  12.373  43.343   1.477
77463W        W44246  19.673  38.873   0.426
77464W        W44247  39.536  44.249   0.391
77465W        W44248  41.820  39.298   4.181
77466W        W44249  12.305   2.254  14.186
77467W        W44250   7.378   6.885  12.135
77468W        W44251  33.377  31.231   1.716
77469W        W44252  14.153  26.368   3.758
77470W        W44253   0.452  42.547  13.456
77471W        W44254  28.486  28.149   5.038
77472W        W44255  18.088   8.090   3.211
77473W        W44256   4.309  16.830  12.055
77474W        W44257  37.991  28.369  14.299
77475W        W44258   6.508  33.541  10.458
77476W        W44259   5.857   1.788   1.268
77477W        W44260  43.566  10.229  11.541
77478W        W44261   4.765  18.671  14.239
77479W        W44262  44.326  34.234  11.237
77480W        W44263   0.814  37.860   2.746
77481W        W44264  44.426  16.758  14.471
77482W        W44265   5.345  23.926  11.653
77483W        W44266  23.192  18.987   0.957
77484W        W44267  18.277  28.204   0.272
77485W        W44268  13.875   2.391  13.173
77486W        W44269   5.814  35.831   4.709
77487W        W44270   6.517  34.513  13.038
77488W        W44271  34.583  13.916   4.539
77489W        W44272  31.512  44.739  12.476
77490W        W44273   1.513  12.357  14.707
77491W        W44274  28.096  16.376  12.286
77492W        W44275  17.075  27.873   2.911
77493W        W44276  20.970  40.822   3.658
77494W        W44277  17.321   0.437   1.282
77495W        W44278  17.701  37.154   2.301
77496W        W44279   2.430  35.967   4.518
77497W        W44280  19.578  19.547  10.926
77498W        W44281  21.975  19.559  14.422
77499W        W44282  31.584  30.752   1.863
77500W        W44283  38.614  29.798  11.077
77501W        W44284   2.598  12.051  10.106
77502W        W44285   3.227   9.336  13.813
77503W        W44286  16.091  15.372   3.340
77504W        W44287  22.619   8.283   4.694
77505W        W44288   9.064  14.961   0.878
77506W        W44289   0.725  16.577   1.138
77507W        W44290   6.408  27.105  12.934
77508W        W44291   2.239  17.064   1.427
77509W        W44292  27.647  37.156   2.170
77510W        W44293  23.857  29.793  14.407
77511W        W44294  32.531   2.155  14.875
77512W        W44295  33.413  15.646  11.028
77513W        W44296  19.122  23.591  13.969
77514W        W44297   5.491  16.332  12.544
77515W        W44298  31.580  34.584  13.424
77516W        W44299  19.266  37.617   2.144
77517W        W44300  22.774  32.455  10.425
77518W        W44301  36.090  44.649  12.322
77519W        W44302  15.554  20.853  11.632
77520W        W44303  42.472  16.261  11.052
77521W        W44304  20.941  17.001  14.343
77522W        W44305  40.863  26.913  10.685
77523W        W44306  38.860  17.999   2.802
77524W        W44307  13.251  24.025   0.622
77525W        W44308  16.651   8.719  10.660
77526W        W44309  20.933  28.596  14.746
77527W        W44310   2.631  36.500  10.679
77528W        W44311  28.824  39.948  12.150
77529W        W44312  41.730  11.480  11.625
77530W        W44313  19.461  27.496  11.178
77531W        W44314   6.722   1.464   2.306
77532W        W44315   4.872   5.838   0.452
77533W        W44316   5.890   5.414   3.348
77534W        W44317  39.924  38.790  13.997
77535W        W44318  24.698  14.803   2.283
77536W        W44319  32.052  16.830  13.810
77537W        W44320  19.896  23.330   3.953
77538W        W44321  13.560  34.381  13.246
77539W        W44322  36.464   9.840   3.257
77540W        W44323  31.054  40.348   3.181
77541W        W44324  41.567  40.120  12.215
77542W        W44325  31.055  41.094   1.249
77543W        W44326  36.395  16.269   4.389
77544W        W44327  34.424  12.172   4.315
77545W        W44328  16.531  17.587   2.784
77546W        W44329  43.844  40.963   3.768
77547W        W44330  16.659   3.715  11.072
77548W        W44331   2.746  35.817   1.293
77549W        W44332  12.956  18.509   4.808
77550W        W44333  13.776  10.309   1.572
77551W        W44334  33.177  37.105  14.014
77552W        W44335  31.247  29.792  13.969
77553W        W44336  21.368  33.512   3.053
77554W        W44337  30.795  36.773  11.502
77555W        W44338  10.345  24.735  14.773
77556W        W44339  11.598  16.584  11.206
77557W        W44340  18.359  30.419   1.387
77558W        W44341  28.448   5.299  12.911
77559W        W44342  12.556  29.012  14.410
77560W        W44343  37.906  20.784  14.113
77561W        W44344  26.711   2.533  13.051
77562W        W44345  41.972  21.736  14.203
77563W        W44346  40.914  23.798  13.857
77564W        W44347  10.498  36.493  11.065
77565W        W44348  41.998  13.154  10.847
77566W        W44349  16.722   6.434   1.700
77567W        W44350   6.496   1.819   0.885
77568W        W44351   2.751  14.608   2.237
77569W        W44352  33.883  30.096  12.559
77570W        W44353  28.515  19.628   1.488
77571W        W44354  27.962  43.326   4.605
77572W        W44355  17.784  30.894   1.782
77573W        W44356   1.274  25.035  10.442
77574W        W44357  38.951  26.643   0.845
77575W        W44358  33.771   0.556  11.268
77576W        W44359  14.721  42.279   0.895
77577W        W44360  26.089   6.604   4.796
77578W        W44361  31.197   2.280  12.886
77579W        W44362  15.509  10.563   0.875
77580W        W44363   6.333   0.507  13.418
77581W        W44364  41.776  12.599  10.341
77582W        W44365  26.209  18.221   3.863
77583W        W44366  25.050  23.654  10.719
77584W        W44367  19.954  17.958   2.306
77585W        W44368  17.676  10.853   0.192
77586W        W44369  30.649  44.477   1.389
77587W        W44370  19.070   9.412   1.639
77588W        W44371  23.818  37.198  13.068
77589W        W44372  20.093  39.911   2.327
77590W        W44373  39.469  26.253   4.131
77591W        W44374  11.299   6.617  13.388
77592W        W44375  41.482   4.393  11.695
77593W        W44376   4.272   5.881   3.136
77594W        W44377  41.759  20.915   3.710
77595W        W44378   2.942  19.173   0.054
77596W        W44379  29.987  22.171   1.316
77597W        W44380  36.934  11.234   3.387
77598W        W44381   6.776  24.482   0.887
77599W        W44382  20.669  10.928   1.185
77600W        W44383  27.264  10.073  10.974
77601W        W44384  41.018  44.773   0.824
77602W        W44385  35.932  11.721   0.353
77603W        W44386  11.013  40.638   2.268
77604W        W44387  17.479  44.824   2.656
77605W        W44388  17.237  12.626  13.061
77606W        W44389  10.919  13.031   3.248
77607W        W44390  20.468  17.766  10.113
77608W        W44391  24.713  40.930  13.024
77609W        W44392  44.892  15.406  13.172
77610W        W44393  22.686  10.617   4.925
77611W        W44394  40.287  17.020   3.205
77612W        W44395  26.404   1.398  12.169
77613W        W44396  22.892   7.059  14.664
77614W        W44397  44.934  19.828  11.745
77615W        W44398  15.190  23.965   3.692
77616W        W44399   8.137  29.945  13.258
77617W        W44400  36.123  22.256  14.422
77618W        W44401  31.016  28.294   4.047
77619W        W44402   3.924   1.969   0.225
77620W        W44403  41.214  22.096   1.848
77621W        W44404   9.042   9.583  11.510
77622W        W44405   7.139  24.084  10.450
77623W        W44406  28.010  26.964  12.059
77624W        W44407  31.052  14.802  11.459
77625W        W44408   7.662  40.738  13.920
77626W        W44409  11.695  38.825  11.122
77627W        W44410  30.447  17.544  12.409
77628W        W44411  41.788  14.636   3.703
77629W        W44412   5.824   9.870  13.515
77630W        W44413   5.243  27.502   3.243
77631W        W44414  42.453  16.904  12.233
77632W        W44415  15.574   8.456  10.224
77633W        W44416  27.249  29.514  13.628
77634W        W44417   4.444   2.801  12.341
77635W        W44418  25.239  29.152   2.808
77636W        W44419  34.606  42.292  12.100
77637W        W44420  34.890   2.167   4.167
77638W        W44421  24.829   0.808  11.645
77639W        W44422   3.796  25.248   1.388
77640W        W44423   7.007  35.908   4.683
77641W        W44424  32.736  34.904  12.414
77642W        W44425  22.084   6.090  10.984
77643W        W44426  44.019   4.333   3.411
77644W        W44427   5.272  10.334   0.951
77645W        W44428  33.662   8.440  10.283
77646W        W44429  22.667   2.731  12.928
77647W        W44430  34.021  41.841  14.024
77648W        W44431  34.928  10.737  11.572
77649W        W44432   2.454  14.387  11.949
77650W        W44433  23.097   8.182   3.554
77651W        W44434  43.791  24.951  11.658
77652W        W44435  36.346  23.656  14.080
77653W        W44436  10.507  34.982   2.407
77654W        W44437   9.805  19.838  11.427
77655W        W44438  20.487  42.661   4.935
77656W        W44439  31.238   6.709  11.053
77657W        W44440  17.641  18.084  13.990
77658W        W44441  20.272  24.711   0.830
77659W        W44442  13.152  19.468   4.077
77660W        W44443   2.672  17.007  14.294
77661W        W44444   3.946  15.801   1.648
77662W        W44445  28.573  18.989  12.386
77663W        W44446  18.800  28.442  10.705
77664W        W44447   4.954  28.873   2.799
77665W        W44448  25.198  15.596   3.411
77666W        W44449  30.649   6.017  12.316
77667W        W44450   0.987  31.001   4.616
77668W        W44451  13.601  35.487   1.030
77669W        W44452  40.772  29.434   4.485
77670W        W44453  43.944   1.204  14.885
77671W        W44454   8.927  26.062   4.534
77672W        W44455  40.193  14.537   4.050
77673W        W44456  11.412   2.519  12.546
77674W        W44457  20.439   5.036   0.415
77675W        W44458   5.871  21.138  14.050
77676W        W44459   2.706  44.057   2.718
77677W        W44460  39.634  42.511   4.131
77678W        W44461  32.576  36.977  14.714
77679W        W44462  40.350  39.225  12.412
77680W        W44463  41.806  43.981  11.567
77681W        W44464  40.302  28.966  14.233
77682W        W44465  39.939  20.347   3.109
77683W        W44466  37.110  33.074  11.524
77684W        W44467   7.889  19.567   2.185
77685W        W44468  10.720  42.688   0.952
77686W        W44469  11.999  31.989  14.521
77687W        W44470  33.562  14.739  11.424
77688W        W44471  14.247  33.355  14.470
77689W        W44472  30.052  12.756  10.630
77690W        W44473   6.687  38.616   3.717
77691W        W44474  23.232  15.759  14.136
77692W        W44475  42.145   6.501  13.756
77693W        W44476  44.968  24.002   2.773
77694W        W44477   7.251  16.539  13.025
77695W        W44478  29.171  24.742  11.926
77696W        W44479  37.227  26.509  11.622
77697W        W44480  26.568  32.179  12.072
77698W        W44481  25.906   6.346   1.122
77699W        W44482  36.105  28.478  14.784
77700W        W44483  17.870   4.938   3.620
77701W        W44484  22.260   3.400  12.387
77702W        W44485  41.789  14.264  13.504
77703W        W44486  14.196   2.495   3.745
77704W        W44487  31.116  25.340   5.014
77705W        W44488  11.401  31.951  10.806
77706W        W44489  23.659   9.885  13.281
77707W        W44490  38.392  31.133  11.140
77708W        W44491   2.298  20.108   3.178
77709W        W44492  12.565  33.370  12.839
77710W        W44493  37.495  39.489   2.362
77711W        W44494   7.091  19.271  13.392
77712W        W44495  20.667  14.655  13.914
77713W        W44496  32.169  29.853  12.669
77714W        W44497  12.302  42.068   1.237
77715W        W44498  20.606  17.305  13.441
77716W        W44499  19.882  26.326  14.877
77717W        W44500  11.070   9.857  14.512
77718W        W44501  16.482  13.217  13.445
77719W        W44502   7.761  22.740   0.230
77720W        W44503  27.275  32.110   4.976
77721W        W44504  28.189  29.931  12.176
77722W        W44505  37.060  35.567   0.834
77723W        W44506  34.961  26.926  14.091
77724W        W44507  34.523  33.398   0.370
77725W        W44508   9.350  44.931   1.811
77726W        W44509  40.525  14.923  14.766
77727W        W44510   4.797  37.879   5.110
77728W        W44511  14.869   4.689   0.770
77729W        W44512  27.917  41.724  11.276
77730W        W44513  17.042  32.837  13.070
77731W        W44514  14.862  16.618   2.833
77732W        W44515   4.561  24.011  11.152
77733W        W44516  26.125   1.145  13.919
77734W        W44517   2.475  39.439  14.443
77735W        W44518  42.211  30.476   2.883
77736W        W44519  35.604  39.457  14.320
77737W        W44520  33.188   5.853  10.065
77738W        W44521  44.676   3.684  12.683
77739W        W44522  16.465   7.436   3.687
77740W        W44523  41.303  33.022   4.192
77741W        W44524  37.426  11.284  11.684
77742W        W44525  19.547  25.839  14.147
77743W        W44526   3.287  36.032  12.463
77744W        W44527   6.381   3.181  10.375
77745W        W44528  40.441  31.321   2.040
77746W        W44529  23.303  22.273   2.259
77747W        W44530  20.707  29.197   4.748
77748W        W44531  44.908   7.313  13.920
77749W        W44532  27.308  34.875  13.990
77750W        W44533  32.021  24.558   0.938
77751W        W44534  25.174  43.604  11.512
77752W        W44535  43.306   6.262  14.301
77753W        W44536  29.118  20.759  14.562
77754W        W44537  24.991  31.494   0.006
77755W        W44538  35.771   4.960  10.746
77756W        W44539  10.251  11.817  10.514
77757W        W44540  17.777   1.700  12.093
77758W        W44541  16.471  27.397  11.223
77759W        W44542  34.308  16.815  14.876
77760W        W44543  33.052  44.533  12.014
77761W        W44544   4.369  29.501  10.729
77762W        W44545  23.260  38.830   2.300
77763W        W44546  42.991  27.574   2.287
77764W        W44547   0.112  10.799  12.009
77765W        W44548  44.484  10.167  13.974
77766W        W44549   2.892  36.493  11.131
77767W        W44550  32.797  16.567  14.899
77768W        W44551  25.650  28.366   4.693
77769W        W44552  23.587  10.279  11.690
77770W        W44553  20.936  19.698   4.642
77771W        W44554  14.701  39.061  14.580
77772W        W44555  31.229   2.359   2.337
77773W        W44556   0.498  37.629  14.438
77774W        W44557  17.838  42.233  11.168
77775W        W44558   2.953   3.907   0.221
77776W        W44559  27.195  13.201   3.123
77777W        W44560  42.309  12.525  12.877
77778W        W44561  40.880   6.319   3.666
77779W        W44562  12.365  34.599   1.279
77780W        W44563  34.081  16.888   4.091
77781W        W44564   2.691  43.914   3.857
77782W        W44565  41.305  12.408   1.816
77783W        W44566  40.098   2.885   3.376
77784W        W44567   4.226  12.585  14.283
77785W        W44568  33.635  33.675   1.457
77786W        W44569   2.226   1.467   4.095
77787W        W44570  41.001  21.377  10.757
77788W        W44571  13.975  17.175  12.131
77789W        W44572  16.710   4.141  10.795
77790W        W44573   1.796  31.430   3.861
77791W        W44574   4.582   1.401  11.155
77792W        W44575  20.785  41.898  14.001
77793W        W44576  39.441   2.395   3.264
77794W        W44577  22.682  14.114   4.195
77795W        W44578  29.565  10.226  10.262
77796W        W44579  33.290  33.167   2.096
77797W        W44580  42.968   2.899   3.841
77798W        W44581  33.104  14.570  13.405
77799W        W44582  32.799  30.939   0.762
77800W        W44583  12.107  34.599   4.819
77801W        W44584  27.628  38.628   0.800
77802W        W44585  38.751  17.852  14.405
77803W        W44586  16.914   1.245   2.835
77804W        W44587  36.110  20.562  11.255
77805W        W44588  35.162  27.968  12.621
77806W        W44589  13.319  15.731  12.527
77807W        W44590  34.883  25.233  13.023
77808W        W44591   6.328  28.960   1.797
77809W        W44592  43.347  21.782  13.995
77810W        W44593  11.316  13.841   2.297
77811W        W44594  37.608  11.712   4.332
77812W        W44595  20.494  16.662   4.328
77813W        W44596  28.960  41.103  14.672
77814W        W44597  27.166  32.855   0.321
77815W        W44598  14.499   5.361   0.495
77816W        W44599   8.223  14.297  12.891
77817W        W44600  25.767  42.113   4.201
77818W        W44601  36.238  26.955   3.197
77819W        W44602  11.953  32.225  13.065
77820W        W44603  28.267  21.170  11.535
77821W        W44604  25.618  28.736   1.174
77822W        W44605  24.125  20.757  12.067
77823W        W44606   4.723  41.924   2.824
77824W        W44607  34.920  13.093  14.698
77825W        W44608   9.714   4.100  11.830
77826W        W44609  39.745  18.674   1.917
77827W        W44610  20.325  36.530  13.715
77828W        W44611   3.751  13.547  14.399
77829W        W44612  29.418  15.061  11.535
77830W        W44613  26.135  13.775  13.234
77831W        W44614  27.848  26.540  11.815
77832W        W44615  19.966  29.893  10.601
77833W        W44616  42.660   6.861  13.027
77834W        W44617  32.603  14.714   4.738
77835W        W44618  42.818  42.843  12.120
77836W        W44619  31.641  42.961  12.920
77837W        W44620   4.983  25.544   0.301
77838W        W44621   1.316  11.692   0.379
77839W        W44622  24.814  38.529   3.739
77840W        W44623  40.885  40.967   0.857
77841W        W44624  21.565   1.986  13.444
77842W        W44625  43.340  41.734  11.958
77843W        W44626  10.238  13.585   0.287
77844W        W44627  32.862  34.378  12.246
77845W        W44628   0.834  12.082   0.845
77846W        W44629  24.335  38.404   0.593
77847W        W44630   6.578  36.587   1.968
77848W        W44631  17.164   7.193  12.478
77849W        W44632  44.997  27.725   0.558
77850W        W44633  38.003  41.766  12.952
77851W        W44634  34.376  31.651  10.412
77852W        W44635  33.504  39.491  12.964
77853W        W44636  30.753  42.958  14.438
77854W        W44637   0.068  38.732   2.197
77855W        W44638  16.719  22.059  13.618
77856W        W44639  22.697  31.821   3.597
77857W        W44640  20.787   8.111   1.118
77858W        W44641   3.304  13.279   5.044
77859W        W44642  32.640  16.008   0.492
77860W        W44643  23.521  17.224  11.048
77861W        W44644  12.292  26.961   4.537
77862W        W44645  35.106   3.284   3.336
77863W        W44646  28.526  27.649  10.620
77864W        W44647  17.664  12.802   9.816
77865W        W44648  34.839   7.295  13.525
77866W        W44649  33.367   5.661   2.360
77867W        W44650  18.097  35.188  11.871
77868W        W44651  39.539  19.258   4.163
77869W        W44652  31.635  39.354   3.368
77870W        W44653  31.714  42.945  12.130
77871W        W44654   8.900   7.858   0.284
77872W        W44655  15.629   0.758   0.434
77873W        W44656  36.325  21.835   3.240
77874W        W44657  10.012  38.320   4.489
77875W        W44658  17.196   6.915   3.910
77876W        W44659   6.835  34.096   3.689
77877W        W44660  29.885  14.803   3.652
77878W        W44661  12.915  34.016   2.826
77879W        W44662   0.834  20.036  11.623
77880W        W44663  25.675  10.301   0.706
77881W        W44664  40.900  36.269  12.064
77882W        W44665  28.131  43.928  11.915
77883W        W44666  10.362   1.922   1.420
77884W        W44667   1.367  31.553  13.426
77885W        W44668  33.465   8.792   1.607
77886W        W44669  19.571  37.568  13.012
77887W        W44670  20.259  41.304   0.006
77888W        W44671  26.155   3.636   4.959
77889W        W44672  27.071  18.900  10.788
77890W        W44673  37.634  20.536   0.891
77891W        W44674   0.295  25.428   2.597
77892W        W44675   0.843  11.655  13.955
77893W        W44676  39.679  24.279  11.048
77894W        W44677   0.530   9.179  14.120
77895W        W44678   3.186   1.037   0.847
77896W        W44679  26.243   8.881  13.497
77897W        W44680  39.858   7.299   2.303
77898W        W44681  37.724  24.325   3.425
77899W        W44682  14.277  20.022  10.860
77900W        W44683   8.769  30.179  13.007
77901W        W44684  19.518  35.536   2.469
77902W        W44685  17.777  13.845   2.877
77903W        W44686  43.987  36.020  11.170
77904W        W44687  16.553  21.285  14.521
77905W        W44688  26.702  18.251   3.658
77906W        W44689  32.408  23.170   3.160
77907W        W44690  35.656  43.939  11.935
77908W        W44691  26.672  18.170   2.097
77909W        W44692  28.734  37.942  13.056
77910W        W44693  21.017  39.977  13.459
77911W        W44694  33.743  43.201   3.300
77912W        W44695  12.141  34.883   3.492
77913W        W44696   9.429  12.711   1.330
77914W        W44697  19.281   2.351  13.058
77915W        W44698  16.738  19.097   0.826
77916W        W44699  35.592  40.495   4.408
77917W        W44700  16.056  17.181  12.887
77918W        W44701  25.746  11.357   3.678
77919W        W44702  11.840  41.649   4.608
77920W        W44703  34.621   4.751  13.586
77921W        W44704  41.465  13.422   3.303
77922W        W44705  34.000  29.565   2.546
77923W        W44706  32.313  18.163   0.737
77924W        W44707  36.466  35.193   3.401
77925W        W44708   4.757  37.054   0.475
77926W        W44709  34.292   1.310  13.819
77927W        W44710  37.007   6.888  13.864
77928W        W44711  18.707  16.939   5.597
77929W        W44712  12.278  33.381   2.790
77930W        W44713  17.112  16.698  12.421
77931W        W44714  17.734  19.285  11.812
77932W        W44715  41.428  24.958  11.333
77933W        W44716  35.554  38.949  12.533
77934W        W44717   2.677  10.129   4.232
77935W        W44718  32.793  36.279  12.017
77936W        W44719  11.662   0.836  12.887
77937W        W44720   1.997  44.779   1.710
77938W        W44721  26.258  42.532  13.432
77939W        W44722  37.597  24.691   4.077
77940W        W44723  27.511  29.018  13.421
77941W        W44724  26.233  26.684   0.946
77942W        W44725  22.453  28.891   1.869
77943W        W44726  22.650  38.375   1.857
77944W        W44727   9.134  44.458   0.791
77945W        W44728  43.460  19.690  13.056
77946W        W44729  25.497   4.213  14.468
77947W        W44730  26.108  31.953   2.834
77948W        W44731  24.104  33.585   4.554
77949W        W44732  22.369  14.347  14.152
77950W        W44733  30.139   5.234   3.273
77951W        W44734   3.841  37.869  11.595
77952W        W44735  34.505  34.021  10.933
77953W        W44736   1.525  18.829   4.324
77954W        W44737   2.003  21.460  11.162
77955W        W44738   4.066   1.893   5.034
77956W        W44739  32.095  38.332  13.137
77957W        W44740  35.161  30.022  13.349
77958W        W44741  16.290  21.265  13.508
77959W        W44742  10.733  37.880   3.266
77960W        W44743  32.253  17.486  10.016
77961W        W44744  36.342  16.363   3.364
77962W        W44745   2.020   0.416  13.872
77963W        W44746  20.225  42.027   1.640
77964W        W44747  20.244  25.431  12.242
77965W        W44748  24.590  31.682  12.373
77966W        W44749  36.378  34.521  11.671
77967W        W44750  10.952  39.371   0.932
77968W        W44751  38.928  40.358  13.502
77969W        W44752   9.149   5.252  14.249
77970W        W44753   0.637   4.681   3.144
77971W        W44754  43.454  20.272   3.634
77972W        W44755  44.508  34.520  13.205
77973W        W44756  16.629  19.774  13.933
77974W        W44757  27.699  38.714   3.819
77975W        W44758  32.546  37.559  13.829
77976W        W44759  31.193  11.353   4.760
77977W        W44760  35.915  44.370  13.614
77978W        W44761  38.472  13.357  12.027
77979W        W44762  21.574  19.375  11.172
77980W        W44763   6.835  26.015  12.610
77981W        W44764  42.337  36.430  14.112
77982W        W44765  13.505   9.213  12.557
77983W        W44766  27.169  10.113   2.864
77984W        W44767   8.808  10.547   1.023
77985W        W44768  30.903  20.040   0.041
77986W        W44769   9.287  35.824   3.931
77987W        W44770   6.644  25.143  13.171
77988W        W44771  39.128  30.976  11.643
77989W        W44772  34.904  41.598   2.932
77990W        W44773  44.038  33.286   2.266
77991W        W44774  13.748  28.901  13.073
77992W        W44775   3.549  30.637  10.942
77993W        W44776  28.896  24.159  13.001
77994W        W44777   4.429  21.573  11.104
77995W        W44778  24.210  12.201  14.861
77996W        W44779  30.405  17.288   2.324
77997W        W44780  40.054  32.965  11.586
77998W        W44781  41.285  41.532  14.996
77999W        W44782  39.633  24.694   3.097
78000W        W44783  38.223  26.155  13.804
78001W        W44784   9.102  37.629  12.061
78002W        W44785   3.431  17.631  13.561
78003W        W44786  15.184  10.559  10.594
78004W        W44787  19.346  32.976  11.985
78005W        W44788  20.139  37.874   2.362
78006W        W44789  18.351  26.646   9.833
78007W        W44790  23.841  33.634  12.001
78008W        W44791  10.043  17.038   0.371
78009W        W44792  19.105  44.379   1.727
78010W        W44793  26.756  30.642  11.385
78011W        W44794   5.323  39.380  11.054
78012W        W44795   1.533  20.211  13.859
78013W        W44796   1.671   1.945  11.084
78014W        W44797   0.466  23.967  10.655
78015W        W44798  28.062   3.514   2.692
78016W        W44799   9.039  24.528  12.763
78017W        W44800  10.870  32.154   3.301
78018W        W44801   3.740  39.558  12.605
78019W        W44802  20.590  40.005  14.864
78020W        W44803  15.835  20.186  11.119
78021W        W44804   3.777  31.013   3.603
78022W        W44805  27.371  34.480  13.142
78023W        W44806  35.692  22.180  12.528
78024W        W44807  25.947  39.339  10.687
78025W        W44808   9.310  37.110  12.875
78026W        W44809  42.933  33.317  10.738
78027W        W44810  19.270  18.547   3.309
78028W        W44811  17.561  37.492  11.576
78029W        W44812  35.916   5.699   2.261
78030W        W44813   3.682  23.087  11.468
78031W        W44814  22.530  36.220  12.054
78032W        W44815  23.194  21.644   0.227
78033W        W44816  23.566  21.041  13.576
78034W        W44817  30.990  34.934   3.666
78035W        W44818  24.604   1.246   4.623
78036W        W44819   5.736   1.081   0.888
78037W        W44820  42.271  15.661  13.656
78038W        W44821  32.506  15.685  11.104
78039W        W44822  34.307  36.939  14.370
78040W        W44823  24.159   9.670   3.624
78041W        W44824  41.667  31.770   3.808
78042W        W44825  11.418  24.602  14.098
78043W        W44826  28.895  39.507  11.487
78044W        W44827  38.112  43.466  11.107
78045W        W44828   8.371  41.454   4.410
78046W        W44829  26.667  38.022  11.559
78047W        W44830  20.474  37.873   2.769
78048W        W44831  18.709  25.112   0.211
78049W        W44832  10.844  34.392   0.497
78050W        W44833  36.425   2.863  14.689
78051W        W44834   0.470  20.062   2.782
78052W        W44835   2.657  38.548  13.304
78053W        W44836  24.496   5.812  11.289
78054W        W44837   2.931   0.722  14.019
78055W        W44838  19.076  44.322   1.209
78056W        W44839   1.361  10.549   2.700
78057W        W44840  40.333  10.838   3.849
78058W        W44841  32.527  39.298  11.537
78059W        W44842   1.218  20.078  12.620
78060W        W44843  22.175  21.350  10.796
78061W        W44844  16.205  38.037   3.688
78062W        W44845  42.341   2.482   1.248
78063W        W44846  31.937  14.193   3.241
78064W        W44847   5.823  43.184   3.541
78065W        W44848  31.174  33.333   1.401
78066W        W44849  22.620  38.079  10.783
78067W        W44850  29.659  28.560   0.691
78068W        W44851   4.360  10.798  14.885
78069W        W44852  43.648  42.027   3.335
78070W        W44853  10.266  34.357  10.666
78071W        W44854  10.669   5.829   0.977
78072W        W44855  13.580  15.722  13.755
78073W        W44856  39.920  12.721  14.352
78074W        W44857  42.480  24.557   4.300
78075W        W44858   2.166  11.907  11.459
78076W        W44859  19.590  36.802  11.209
78077W        W44860   0.238   2.033  10.920
78078W        W44861  35.509  25.617   1.223
78079W        W44862  13.791   8.504  13.303
78080W        W44863  25.736  44.260   1.353
78081W        W44864   7.657  22.634   1.850
78082W        W44865   5.554   6.185  10.394
78083W        W44866  25.929   7.693   0.917
78084W        W44867  33.856  10.708   4.432
78085W        W44868  15.146   3.295  11.969
78086W        W44869  28.717  24.530  11.690
78087W        W44870  25.991  32.405   3.560
78088W        W44871  39.412  31.707   9.896
78089W        W44872  39.741  18.269  12.820
78090W        W44873  41.918  36.285  11.953
78091W        W44874   8.409  19.212  13.785
78092W        W44875   0.749  17.062  12.941
78093W        W44876  26.886  10.832   0.354
78094W        W44877  14.790  16.119  12.592
78095W        W44878   7.308   7.527  10.385
78096W        W44879  12.290  17.448  14.270
78097W        W44880  21.754  40.775  14.279
78098W        W44881   1.194  30.282   2.578
78099W        W44882  31.168   8.570  12.956
78100W        W44883   5.678  38.340   3.877
78101W        W44884  15.716   8.357  12.886
78102W        W44885  18.062   0.879   3.303
78103W        W44886  25.287  31.235   4.543
78104W        W44887  27.047  44.068   4.204
78105W        W44888  30.334  25.232   4.061
78106W        W44889  26.513  22.663  12.517
78107W        W44890  31.486  36.346   2.724
78108W        W44891  33.756  28.435   2.164
78109W        W44892  32.900   2.817  13.469
78110W        W44893  36.815  29.966  12.330
78111W        W44894  24.429  17.361  12.211
78112W        W44895  39.374  25.972   3.668
78113W        W44896   7.206  20.724   4.158
78114W        W44897   9.647  39.528  10.767
78115W        W44898  37.892   1.884   2.826
78116W        W44899  33.860  14.452  14.765
78117W        W44900   6.679  16.861   3.707
78118W        W44901  28.311  43.074  10.740
78119W        W44902  26.224   3.442  12.459
78120W        W44903   2.453   0.103  12.061
78121W        W44904   1.630  19.642  12.776
78122W        W44905  40.472  33.945   3.031
78123W        W44906  29.549  27.452   0.865
78124W        W44907  39.164  34.045   2.371
78125W        W44908  30.450  43.488  11.536
78126W        W44909  11.591  39.116  13.835
78127W        W44910  34.590  20.755   0.521
78128W        W44911   0.954  17.109   3.223
78129W        W44912  26.260  22.217   3.399
78130W        W44913  37.044  15.213   4.206
78131W        W44914  12.676  40.969   4.076
78132W        W44915  15.316  15.556   2.828
78133W        W44916  31.183  41.625   4.937
78134W        W44917  15.151  33.004  14.684
78135W        W44918  34.056   0.174   1.761
78136W        W44919  30.396  38.939  14.507
78137W        W44920  13.482  38.851  11.452
78138W        W44921  14.234   7.264   3.828
78139W        W44922   7.946  25.657   1.791
78140W        W44923   0.976  20.064   2.672
78141W        W44924   1.333  21.797   4.164
78142W        W44925   4.894  29.525  12.921
78143W        W44926  34.210   2.913  11.658
78144W        W44927  17.713  22.884   0.305
78145W        W44928  31.099  40.515  14.398
78146W        W44929  32.549  19.182   1.322
78147W        W44930  21.442  20.195  14.035
78148W        W44931  42.824  12.155  12.173
78149W        W44932   1.020  16.656   2.359
78150W        W44933  42.429   3.437   2.189
78151W        W44934  30.518   4.778  13.583
78152W        W44935  12.677  10.174   2.741
78153W        W44936   0.971  26.117  12.141
78154W        W44937  29.593  39.966   4.798
78155W        W44938  25.633  42.621   4.122
78156W        W44939  17.312  24.648  14.735
78157W        W44940  34.486  15.764  14.499
78158W        W44941  28.953  25.047  13.963
78159W        W44942  19.561  42.417  11.214
78160W        W44943  30.710  18.030   4.730
78161W        W44944  18.252  30.970   4.093
78162W        W44945   8.822  15.277  12.822
78163W        W44946  23.036  27.427  11.995
78164W        W44947  10.100  29.034   1.443
78165W        W44948  40.396  42.925   0.962
78166W        W44949  30.220  36.514   2.261
78167W        W44950  13.207   3.128  13.877
78168W        W44951  11.331  20.264  11.527
78169W        W44952  25.838  29.046   0.768
78170W        W44953  36.624  41.924   4.308
78171W        W44954   5.408  16.776   3.291
78172W        W44955  20.693  22.044  10.672
78173W        W44956  22.950   4.465  11.565
78174W        W44957  39.437  19.786  12.467
78175W        W44958  42.971  37.962   3.377
78176W        W44959  30.911  16.605   4.431
78177W        W44960  14.128  14.073   2.239
78178W        W44961  40.778  24.041   0.116
78179W        W44962   7.744  38.323  14.399
78180W        W44963  35.376  11.156   4.226
78181W        W44964   7.987  23.175   2.799
78182W        W44965  20.705   0.724   4.241
78183W        W44966  19.654  41.873  12.027
78184W        W44967   4.265  19.525  14.342
78185W        W44968  44.172  19.594   3.589
78186W        W44969  30.473  43.419  14.408
78187W        W44970   4.294  43.578  11.022
78188W        W44971   9.736  18.530   4.240
78189W        W44972  14.350   0.754  14.850
78190W        W44973  34.578  16.382  11.125
78191W        W44974   6.763  34.401  12.560
78192W        W44975  37.897  18.963  10.380
78193W        W44976  14.322   4.912  12.114
78194W        W44977  33.075  41.511   4.715
78195W        W44978  23.191   0.307  13.806
78196W        W44979  44.230  27.085  14.888
78197W        W44980  39.379  44.619  13.862
78198W        W44981  21.239   8.662  13.864
78199W        W44982  36.807  14.771  11.273
78200W        W44983   6.156  25.461   2.265
78201W        W44984  40.775  23.552   0.721
78202W        W44985   7.507  15.385  11.558
78203W        W44986  23.979  41.996  10.798
78204W        W44987  24.735   6.372   2.345
78205W        W44988  42.975  38.159   4.253
78206W        W44989  11.614   5.041  12.111
78207W        W44990  19.813  27.856  10.905
78208W        W44991   9.217  42.318   3.821
78209W        W44992   6.397  41.439   2.276
78210W        W44993   9.170  28.129   0.885
78211W        W44994   6.869   6.508   2.713
78212W        W44995  11.737  31.211  11.168
78213W        W44996  41.089  29.621   3.198
78214W        W44997   3.574  44.309  13.881
78215W        W44998  41.004  22.285  11.767
78216W        W44999  17.496  34.493  12.342
78217W        W45000  40.873  42.590   1.496
78218W        W45001  32.043  43.242   2.768
78219W        W45002  26.466   7.197   1.175
78220W        W45003  17.631  10.227   4.796
78221W        W45004   5.248  16.970  10.300
78222W        W45005  32.488  44.268   3.633
78223W        W45006   6.980  42.957  12.388
78224W        W45007   5.264  31.506   0.970
78225W        W45008  29.851  42.998  10.606
78226W        W45009  44.269  17.734  14.303
78227W        W45010  17.292   7.362   4.715
78228W        W45011  43.517  32.415  14.812
78229W        W45012  35.038  28.843   2.311
78230W        W45013   9.698  30.179  11.542
78231W        W45014  42.077  11.844   1.690
78232W        W45015  20.718  16.084   1.381
78233W        W45016  14.236  33.611   1.000
78234W        W45017  34.568  12.773   3.081
78235W        W45018  42.742   1.487   0.758
78236W        W45019  25.418  19.186  12.056
78237W        W45020  19.138   7.865   4.619
78238W        W45021  30.338   1.299   2.428
78239W        W45022  44.019  29.974   4.566
78240W        W45023  40.146  11.117   1.832
78241W        W45024  26.717   7.251  11.067
78242W        W45025   5.919  14.743   2.343
78243W        W45026  31.013   4.921  14.400
78244W        W45027  20.346  33.036   2.247
78245W        W45028  14.748   0.981  12.982
78246W        W45029  41.854  23.329   1.607
78247W        W45030  10.160  11.625   3.268
78248W        W45031  30.228  40.419  13.626
78249W        W45032  19.344  25.095  11.334
78250W        W45033  19.381  16.239  13.240
78251W        W45034  35.792  29.081  13.914
78252W        W45035  21.705  33.905   0.437
78253W        W45036   7.913  13.284  10.500
78254W        W45037   1.872  17.762  14.787
78255W        W45038  11.510  35.352   2.353
78256W        W45039   5.869  25.117   3.067
78257W        W45040   4.276  14.205   0.877
78258W        W45041  12.765  25.239   1.240
78259W        W45042  19.571   2.169   2.246
78260W        W45043  13.262  20.153   2.154
78261W        W45044  27.194  40.702  14.725
78262W        W45045  22.017   2.066  13.664
78263W        W45046   4.529  43.310   3.527
78264W        W45047   9.400  25.665   4.720
78265W        W45048  24.253   6.394  12.482
78266W        W45049  37.969  16.860  11.553
78267W        W45050  27.875  22.714  13.457
78268W        W45051  32.783  11.191  11.893
78269W        W45052  12.904   3.744   2.686
78270W        W45053  42.880  32.680  12.333
78271W        W45054  24.588  39.578   1.907
78272W        W45055  35.928   0.008   2.792
78273W        W45056  31.456  44.790  14.310
78274W        W45057  13.391  12.814  13.509
78275W        W45058  12.208  39.950  12.055
78276W        W45059  11.625  23.212   3.650
78277W        W45060  44.957  23.216   3.289
78278W        W45061  25.611  29.442   4.541
78279W        W45062  24.588  22.010  13.384
78280W        W45063  15.969  14.994   5.145
78281W        W45064  41.902  28.944  12.923
78282W        W45065  40.965  18.295  11.662
78283W        W45066  43.290  25.466   3.914
78284W        W45067  43.746   1.292   3.619
78285W        W45068   1.965  23.146  10.402
78286W        W45069   8.159  22.427   1.790
78287W        W45070  35.533  39.363   0.517
78288W        W45071  25.393  10.042  11.000
78289W        W45072  15.145   7.398  13.526
78290W        W45073  25.013  25.627  13.444
78291W        W45074  42.454  38.448   3.422
78292W        W45075  32.227  10.717   2.892
78293W        W45076  10.372  36.028  14.914
78294W        W45077  27.199  16.050   1.255
78295W        W45078   0.462  22.752   4.488
78296W        W45079  23.544   3.907   2.716
78297W        W45080  39.963   8.603  11.382
78298W        W45081  22.464  23.131  11.094
78299W        W45082  23.941  30.211  13.522
78300W        W45083  13.277  22.859  12.035
78301W        W45084  18.613  25.074   5.136
78302W        W45085  36.296   9.232   2.338
78303W        W45086  44.458  34.337   0.772
78304W        W45087  37.069  11.237   5.005
78305W        W45088  40.540   9.335  13.944
78306W        W45089  34.178  26.907  14.996
78307W        W45090  18.552  35.539  13.044
78308W        W45091  33.016  33.907   1.967
78309W        W45092  27.647  34.343   1.816
78310W        W45093  24.738  12.824  14.692
78311W        W45094   9.345   5.164   4.897
78312W        W45095  21.028  22.654   3.549
78313W        W45096  26.313   4.484   0.870
78314W        W45097   7.058   8.270  14.232
78315W        W45098  36.465  12.617   1.558
78316W        W45099  35.305  33.608  13.506
78317W        W45100   5.778   5.898   3.840
78318W        W45101   2.366  44.186  14.376
78319W        W45102  15.529  37.608  10.826
78320W        W45103  29.426  31.640   2.885
78321W        W45104  24.385  14.072  11.150
78322W        W45105  44.780  22.273  10.261
78323W        W45106   9.591  35.054   0.974
78324W        W45107  44.136  35.299   3.991
78325W        W45108   5.103  11.653   4.421
78326W        W45109  11.460  17.818   1.714
78327W        W45110  25.182  18.772  10.998
78328W        W45111  25.452  37.484  13.882
78329W        W45112  16.824  36.594  13.846
78330W        W45113  30.305   9.721   3.672
78331W        W45114   0.120  14.134   1.857
78332W        W45115  33.842   1.388  12.043
78333W        W45116  24.233  22.060   1.325
78334W        W45117   0.747  19.615   2.820
78335W        W45118  29.725  44.244  14.867
78336W        W45119   9.725  31.680  14.102
78337W        W45120  10.707  33.364   4.727
78338W        W45121   9.371  43.783   2.685
78339W        W45122  43.279  11.265   3.607
78340W        W45123   5.393  18.584  11.938
78341W        W45124  22.058  24.724   1.270
78342W        W45125  44.876   3.018  11.940
78343W        W45126  19.993  36.292   4.195
78344W        W45127  32.012   0.261   3.520
78345W        W45128  20.421   1.992   3.585
78346W        W45129   2.806  37.703   3.442
78347W        W45130   9.989   6.771  13.075
78348W        W45131  19.706   7.974   4.166
78349W        W45132  22.542  20.218   4.911
78350W        W45133  26.488  24.768   2.886
78351W        W45134  19.230  20.302  14.438
78352W        W45135  31.702  19.164   0.307
78353W        W45136   8.250  23.038   2.292
78354W        W45137  34.290  33.233   0.809
78355W        W45138  30.393   2.279   0.751
78356W        W45139  14.468  23.350  11.185
78357W        W45140  33.611  38.988  14.228
78358W        W45141  32.040  36.291   0.763
78359W        W45142  10.533  22.749   3.239
78360W        W45143  26.910  40.926   2.297
78361W        W45144  21.884   9.116   1.864
78362W        W45145  41.102   7.805   4.166
78363W        W45146  34.456  32.907   1.686
78364W        W45147  18.535  15.654   4.052
78365W        W45148   7.790  12.629  14.072
78366W        W45149  43.355   9.940  13.432
78367W        W45150  24.145  31.561  12.077
78368W        W45151  10.825  18.066   1.146
78369W        W45152  40.179  40.425  14.521
78370W        W45153  10.811   2.812  12.789
78371W        W45154   4.050  42.299   1.477
78372W        W45155  44.282  43.454   2.129
78373W        W45156   7.741  14.098   3.669
78374W        W45157  13.092  26.944   1.632
78375W        W45158  24.768  12.047  12.936
78376W        W45159  16.802   5.706   3.207
78377W        W45160   7.467   3.319   1.811
78378W        W45161  27.750  31.474  10.678
78379W        W45162  11.186  28.165  13.996
78380W        W45163  18.513  17.786  13.844
78381W        W45164  27.669  19.140   3.553
78382W        W45165  26.716   4.234  13.500
78383W        W45166  18.470  38.608  11.699
78384W        W45167  18.302  41.915  14.780
78385W        W45168  34.581   3.270   2.302
78386W        W45169  34.440  17.706   4.114
78387W        W45170  23.925  33.840   4.141
78388W        W45171  27.005   6.261   1.962
78389W        W45172  10.163  43.743   4.731
78390W        W45173  40.015  35.096   2.543
78391W        W45174  41.102  38.495   0.740
78392W        W45175  41.288  15.231   3.135
78393W        W45176  42.776  40.168   4.274
78394W        W45177  38.565   9.751   1.441
78395W        W45178  38.304  20.059  11.455
78396W        W45179   4.549  16.714  12.625
78397W        W45180  37.361  27.972  14.004
78398W        W45181   2.417  19.839  12.162
78399W        W45182  29.293  18.211   1.896
78400W        W45183  41.951  27.788  11.064
78401W        W45184  39.337  27.555  11.630
78402W        W45185   4.193  37.961  12.043
78403W        W45186   0.794  27.582  12.039
78404W        W45187  16.714  31.003   4.975
78405W        W45188  36.950  17.781  13.426
78406W        W45189  41.556  25.782  12.853
78407W        W45190  43.017  18.901  10.745
78408W        W45191  11.242   1.987   2.413
78409W        W45192  19.582  39.973  11.975
78410W        W45193  43.410  33.592  10.793
78411W        W45194   4.773   2.894  14.913
78412W        W45195  44.364  22.547   5.056
78413W        W45196  23.324  32.769  14.220
78414W        W45197   0.828  16.056  11.940
78415W        W45198  12.863   5.422  11.622
78416W        W45199  40.917  33.336   0.916
78417W        W45200  35.968  12.093   2.242
78418W        W45201  24.842  20.702   4.115
78419W        W45202  25.415  15.584   1.669
78420W        W45203  28.496  31.026  10.703
78421W        W45204  22.490  22.248  14.244
78422W        W45205  13.255  38.256  12.884
78423W        W45206  21.178  36.096  10.621
78424W        W45207  11.405  28.067   1.449
78425W        W45208  35.131  17.647  11.555
78426W        W45209  35.824  40.958  11.655
78427W        W45210  30.686  35.375   3.372
78428W        W45211   9.259   9.897  12.400
78429W        W45212  43.933  12.698   3.553
78430W        W45213   8.263  30.976   4.094
78431W        W45214  37.049  12.698   1.840
78432W        W45215  22.769  10.659   3.130
78433W        W45216  37.564  21.687   1.473
78434W        W45217  19.347  29.418   3.104
78435W        W45218  21.780  38.029  13.724
78436W        W45219  15.090  27.564  14.892
78437W        W45220  24.989  22.900   2.277
78438W        W45221  31.348  44.583  14.925
78439W        W45222  28.132  39.902   4.103
78440W        W45223  12.377  34.152  11.266
78441W        W45224  21.580   0.979  11.935
78442W        W45225  42.486   8.268  13.059
78443W        W45226   8.174   0.011   2.314
78444W        W45227  17.415  31.706  10.817
78445W        W45228  15.249  40.336   4.706
78446W        W45229  21.321  15.681   3.186
78447W        W45230  36.893   1.287  12.513
78448W        W45231  29.393  11.513   2.552
78449W        W45232   2.802  23.739   0.774
78450W        W45233  10.864   6.813   0.250
78451W        W45234  29.737   3.184   2.338
78452W        W45235   1.796  38.591  11.923
78453W        W45236  27.542  19.018   0.396
78454W        W45237   0.304  20.846   9.939
78455W        W45238  21.778  39.520  13.561
78456W        W45239  24.209  10.774   2.159
78457W        W45240  41.063  36.866   2.758
78458W        W45241  37.243  39.623   1.199
78459W        W45242  24.795  43.078   3.773
78460W        W45243  36.498  28.950   4.442
78461W        W45244  32.287   6.343   9.901
78462W        W45245  41.940   4.722   1.818
78463W        W45246  16.387  28.730  10.669
78464W        W45247  11.818  37.122  14.440
78465W        W45248  30.647  13.482  13.741
78466W        W45249  15.539  16.252  11.958
78467W        W45250  41.512  22.544  14.009
78468W        W45251  36.585  18.213   0.436
78469W        W45252  40.917  33.637  11.005
78470W        W45253  14.213  29.613  14.784
78471W        W45254  24.463  21.224  13.348
78472W        W45255  39.342  38.220  14.427
78473W        W45256  15.559  26.917   4.721
78474W        W45257   2.246  13.645  14.360
78475W        W45258  34.395  26.824   2.403
78476W        W45259  11.067  27.639   2.927
78477W        W45260  18.111  11.325  10.812
78478W        W45261   5.678  26.811   3.910
78479W        W45262  12.711   6.517  10.712
78480W        W45263  42.117  31.560  11.125
78481W        W45264  31.655  16.258   4.032
78482W        W45265   3.296  15.993  13.275
78483W        W45266  31.779  17.492   1.343
78484W        W45267  29.373  14.394   2.419
78485W        W45268  42.214   5.230   2.749
78486W        W45269  12.101  30.641   1.250
78487W        W45270   7.798  18.682  14.875
78488W        W45271   6.459  38.425  13.024
78489W        W45272  32.876   5.660  14.876
78490W        W45273   5.401   6.180   1.153
78491W        W45274  11.126  43.881   1.315
78492W        W45275  12.722  35.817  10.314
78493W        W45276  38.613  12.225  13.323
78494W        W45277   4.965  29.802   0.278
78495W        W45278  44.210  40.415  12.014
78496W        W45279  22.950   4.478   2.215
78497W        W45280  23.957  17.050  13.873
78498W        W45281  10.239  31.161   1.136
78499W        W45282  43.964  20.276  11.590
78500W        W45283   2.707  26.571  14.356
78501W        W45284  25.933  31.704  11.553
78502W        W45285   2.421  36.014  14.945
78503W        W45286  31.205  14.231  12.668
78504W        W45287  44.217  21.272  11.140
78505W        W45288  17.060  24.279   1.777
78506W        W45289  21.554  44.850  14.933
78507W        W45290  21.753   0.284  14.043
78508W        W45291  40.381  33.503  14.837
78509W        W45292  34.054  22.964   1.477
78510W        W45293   3.126  11.084   2.681
78511W        W45294  32.098  40.980   1.313
78512W        W45295  18.514  27.242  12.098
78513W        W45296   1.018  32.342   2.289
78514W        W45297  33.109   5.364   2.763
78515W        W45298  27.598  15.756  10.686
78516W        W45299   3.428  43.994   2.327
78517W        W45300  24.422  14.760   4.571
78518W        W45301  23.507   1.819   4.085
78519W        W45302  38.569  39.473   1.756
78520W        W45303  32.250  15.628   1.200
78521W        W45304   8.843   3.003   2.819
78522W        W45305   2.413  22.394   2.254
78523W        W45306  32.336  32.661  14.830
78524W        W45307  29.573   0.921   4.555
78525W        W45308   6.804   1.194   1.860
78526W        W45309  12.867  15.387  14.932
78527W        W45310  41.006  25.406  14.075
78528W        W45311   3.492  38.433  14.812
78529W        W45312  43.536  16.048   1.066
78530W        W45313  32.047   4.558  13.008
78531W        W45314  10.659   5.915   4.686
78532W        W45315   9.073   2.814  11.154
78533W        W45316  36.220  37.880  13.479
78534W        W45317  24.788  10.212   4.038
78535W        W45318   4.466  33.258   1.845
78536W        W45319  10.298   1.908   2.932
78537W        W45320  34.646  42.375  14.819
78538W        W45321  36.040  36.768  14.843
78539W        W45322  31.870  30.474   2.843
78540W        W45323  24.893  20.936   0.136
78541W        W45324  28.412  10.855  10.718
78542W        W45325  17.344  44.256  14.239
78543W        W45326   6.960  33.834  11.064
78544W        W45327   8.417  17.051  12.102
78545W        W45328  16.167  44.866  13.500
78546W        W45329  43.903  37.863  13.949
78547W        W45330  31.434   8.418  14.487
78548W        W45331  23.109   4.698   0.724
78549W        W45332  23.011  40.897   0.661
78550W        W45333  33.705  10.428   0.776
78551W        W45334  26.095  13.747   4.768
78552W        W45335  24.344  14.173   3.007
78553W        W45336  44.832  36.313  10.754
78554W        W45337  25.066  37.753  12.556
78555W        W45338  38.570  42.963   4.646
78556W        W45339  18.052  44.796   4.718
78557W        W45340  11.318  36.063   9.729
78558W        W45341   4.054  20.640  12.607
78559W        W45342  16.151  32.035  13.580
78560W        W45343   5.648   9.414   3.903
78561W        W45344  10.258  19.790  11.616
78562W        W45345  21.376  24.801  14.839
78563W        W45346  20.525  41.015  11.500
78564W        W45347   0.594   3.363   3.738
78565W        W45348  29.521  43.448   4.699
78566W        W45349  20.134  28.777   4.049
78567W        W45350  33.509   1.892  13.766
78568W        W45351   2.401   0.393   2.686
78569W        W45352  42.603  30.842  11.235
78570W        W45353   6.410  12.495  11.258
78571W        W45354  12.845  36.153   0.955
78572W        W45355  19.711  31.180   1.228
78573W        W45356   2.518   3.387   2.704
78574W        W45357  13.323   1.948  11.959
78575W        W45358  25.733   5.799   3.185
78576W        W45359   8.776  39.011   1.282
78577W        W45360   6.633   1.909  13.742
78578W        W45361   8.571  33.566   1.557
78579W        W45362  18.638  32.008   0.788
78580W        W45363   2.294   4.305   1.764
78581W        W45364  42.539   2.405  11.132
78582W        W45365  19.860  38.546   3.174
78583W        W45366  22.459  26.374  10.739
78584W        W45367  24.038  41.977  12.517
78585W        W45368   1.265  10.680   2.211
78586W        W45369   6.970  29.296   2.712
78587W        W45370  18.003  44.930   3.893
78588W        W45371  29.867  17.222   2.850
78589W        W45372  26.430  24.531  12.894
78590W        W45373  20.504  31.540   4.235
78591W        W45374   8.138   4.364   3.262
78592W        W45375  26.153  11.772   3.771
78593W        W45376  36.854  12.797   4.223
78594W        W45377   5.145  36.623  14.223
78595W        W45378  12.467  32.813   4.615
78596W        W45379  12.359  42.537  14.675
78597W        W45380  44.588  21.190  12.236
78598W        W45381  33.933  30.131   4.435
78599W        W45382  14.644  28.638   4.158
78600W        W45383  10.547   8.883   3.556
78601W        W45384   6.636  36.362  11.261
78602W        W45385  22.868  13.390   2.191
78603W        W45386  24.749  37.630   4.967
78604W        W45387  31.937  42.615   2.200
78605W        W45388  23.095  24.503  11.562
78606W        W45389  18.995   0.349  11.182
78607W        W45390  31.170  14.283  14.513
78608W        W45391  21.951   4.309   4.046
78609W        W45392   7.757  12.313   2.656
78610W        W45393  37.279   8.704   0.800
78611W        W45394  35.829  20.048  13.507
78612W        W45395  43.760  18.603   2.818
78613W        W45396   1.056  23.026   3.749
78614W        W45397  40.955  12.725   3.883
78615W        W45398  21.235   5.425  12.819
78616W        W45399  23.060  24.979  14.819
78617W        W45400   8.950  20.446  10.511
78618W        W45401  36.198  24.234  11.692
78619W        W45402  13.215  39.997   3.274
78620W        W45403  31.905  31.112  12.979
78621W        W45404  41.966   3.905   1.747
78622W        W45405   3.373  12.233  11.370
78623W        W45406  24.240   1.765  13.762
78624W        W45407  13.041  43.237  11.635
78625W        W45408  11.244  31.012   2.539
78626W        W45409  29.376   5.363  12.004
78627W        W45410  15.600   2.251  13.417
78628W        W45411  43.909  14.753  13.452
78629W        W45412  10.445  27.830  13.879
78630W        W45413   3.319  22.708  12.202
78631W        W45414  42.759  14.648   0.269
78632W        W45415  42.170  39.169  11.097
78633W        W45416  28.446  37.146   5.054
78634W        W45417   3.696  44.844  13.379
78635W        W45418  16.802   5.713   4.096
78636W        W45419  27.225  16.620   0.346
78637W        W45420  35.944   5.632  13.976
78638W        W45421  30.797  29.698   0.055
78639W        W45422  35.872  27.024   4.170
78640W        W45423  41.364  19.216   4.796
78641W        W45424  20.744  11.257   0.353
78642W        W45425  19.226  10.080  11.128
78643W        W45426  19.469   9.721  12.198
78644W        W45427   6.425  27.914  12.484
78645W        W45428  17.389   3.952   3.263
78646W        W45429  35.617   5.295  11.634
78647W        W45430  16.708  36.936   3.119
78648W        W45431  18.288  13.353   0.421
78649W        W45432   1.787   7.740   1.044
78650W        W45433  19.678   3.953   0.909
78651W        W45434  10.156  10.875   1.084
78652W        W45435  18.141  14.885   0.358
78653W        W45436  25.086  15.848  13.950
78654W        W45437  11.622  22.113   1.878
78655W        W45438  40.956   7.129   0.770
78656W        W45439   0.768   7.324   0.271
78657W        W45440  28.249  41.503   1.326
78658W        W45441  19.424  14.844  12.822
78659W        W45442  42.122  16.663  10.902
78660W        W45443  25.438  41.900  14.418
78661W        W45444  41.051  31.554   1.255
78662W        W45445   8.906  25.219  14.247
78663W        W45446  11.964  18.530  12.638
78664W        W45447  14.360   2.152  11.964
78665W        W45448  42.339  28.930   0.836
78666W        W45449  42.864  39.495   0.791
78667W        W45450  12.162  10.272  14.813
78668W        W45451   9.205  23.537   2.285
78669W        W45452  37.029  31.943   0.797
78670W        W45453   8.307  16.090   2.805
78671W        W45454  15.780  23.599   2.291
78672W        W45455  30.171   5.754   3.337
78673W        W45456   3.958  19.580   1.778
78674W        W45457   8.385  34.184   1.290
78675W        W45458  23.127  39.328  13.128
78676W        W45459  34.864  34.547   0.250
78677W        W45460  13.837  17.637  12.380
78678W        W45461  20.521  41.279   1.863
78679W        W45462  16.078  19.631   0.484
78680W        W45463  31.824   4.017  11.776
78681W        W45464   2.839  22.686   3.201
78682W        W45465  30.230  36.008   2.893
78683W        W45466  33.515  35.219   4.140
78684W        W45467   5.888  12.552  11.089
78685W        W45468  22.518  39.896  12.373
78686W        W45469   7.385  36.310   0.854
78687W        W45470  23.731   9.814   4.560
78688W        W45471  10.645  27.981  10.577
78689W        W45472  28.189   0.442  12.972
78690W        W45473  33.688   2.619  10.500
78691W        W45474  32.386  31.486  14.087
78692W        W45475  13.746  20.359  14.347
78693W        W45476  39.463  24.053   3.040
78694W        W45477  34.499  23.354   4.170
78695W        W45478  10.628  36.442   4.366
78696W        W45479  42.489  18.720   1.682
78697W        W45480  26.372  15.840   2.176
78698W        W45481  29.951   2.392   1.845
78699W        W45482  28.902  44.421   4.516
78700W        W45483  37.786   6.204   0.320
78701W        W45484  26.040  28.982  11.958
78702W        W45485  32.112  23.089  13.050
78703W        W45486  17.842  36.952  12.859
78704W        W45487   7.690  35.150   3.499
78705W        W45488  23.933   3.952  12.424
78706W        W45489  28.112  27.990   2.306
78707W        W45490  12.067  14.070   0.632
78708W        W45491  38.862   6.386   2.667
78709W        W45492  35.694  15.254   0.318
78710W        W45493  37.637  23.182  10.645
78711W        W45494  43.274  38.556   3.675
78712W        W45495   9.538  21.381   0.526
78713W        W45496  17.127  37.266   4.569
78714W        W45497  34.483  37.665  12.501
78715W        W45498   7.851  41.815   4.953
78716W        W45499   2.270   0.707   2.304
78717W        W45500  42.766  25.482   0.257
78718W        W45501  40.436  41.921  12.386
78719W        W45502  40.834  31.580   3.798
78720W        W45503  38.320   4.548   4.663
78721W        W45504   1.184  18.841   1.825
78722W        W45505  15.323  35.950  12.179
78723W        W45506  38.946   2.697  13.392
78724W        W45507  12.963  34.601  11.970
78725W        W45508  13.172  42.808   4.132
78726W        W45509  26.990   7.523   4.198
78727W        W45510  12.136  26.329  13.463
78728W        W45511  27.031   8.622  12.064
78729W        W45512  30.788   2.115   4.936
78730W        W45513  19.729  44.123   3.475
78731W        W45514  14.142   9.561   3.104
78732W        W45515   8.798  17.132   1.229
78733W        W45516  16.281  21.715   1.452
78734W        W45517   0.301  40.732  12.198
78735W        W45518  29.512  30.101   3.514
78736W        W45519  40.425  39.285   3.665
78737W        W45520  27.957  30.595   4.086
78738W        W45521  23.144   3.665   0.775
78739W        W45522  18.815  20.111   1.436
78740W        W45523  39.286  24.151   0.368
78741W        W45524  18.566   4.165   2.540
78742W        W45525   9.631  22.646  12.560
78743W        W45526  41.264  16.626   0.099
78744W        W45527  12.428  36.439  10.812
78745W        W45528  24.767  21.327   3.720
78746W        W45529  41.505  14.756   3.281
78747W        W45530   9.367   4.388   0.282
78748W        W45531   1.402  12.845   4.158
78749W        W45532  43.512  38.849  13.971
78750W        W45533  13.152  28.937  12.087
78751W        W45534  40.899  33.983  14.464
78752W        W45535  42.829  34.821  13.442
78753W        W45536  42.403  42.937   1.849
78754W        W45537  40.766   7.416   4.889
78755W        W45538  17.912  23.674   2.060
78756W        W45539  18.353  44.233  14.427
78757W        W45540  40.438  42.650  11.931
78758W        W45541  27.231  18.039  10.817
78759W        W45542  28.645  30.064   3.132
78760W        W45543   0.262  12.712  14.216
78761W        W45544  28.945  15.302  12.407
78762W        W45545  35.652  42.878  13.168
78763W        W45546   3.779  31.483  11.564
78764W        W45547   8.869  26.934   0.105
78765W        W45548  37.277  11.505  13.828
78766W        W45549  42.674  12.619   5.444
78767W        W45550  42.557  14.016  13.380
78768W        W45551   3.815  33.874   3.971
78769W        W45552   7.105  31.365  11.965
78770W        W45553  20.052  12.768   1.832
78771W        W45554  40.244  31.668  12.583
78772W        W45555   6.189   3.643   3.552
78773W        W45556   1.754   7.033   2.866
78774W        W45557  13.367   2.336   3.347
78775W        W45558  34.144   1.964  11.256
78776W        W45559  26.051  28.618   4.427
78777W        W45560  21.313  24.174  14.407
78778W        W45561  35.393   2.372   1.325
78779W        W45562  10.208   0.561   1.814
78780W        W45563  19.590   3.038  12.432
78781W        W45564   8.270  38.917   4.131
78782W        W45565   1.443  21.161   4.601
78783W        W45566   4.940  13.195  13.382
78784W        W45567  27.164  12.322   3.299
78785W        W45568  42.914   7.255   0.610
78786W        W45569  36.481  17.028   0.000
78787W        W45570  43.751  32.750  12.550
78788W        W45571  13.188   8.188   1.876
78789W        W45572   4.231  40.518   2.801
78790W        W45573  21.689  23.533  10.912
78791W        W45574   4.843  36.321   1.884
78792W        W45575   0.003  33.643  13.888
78793W        W45576  35.109  37.791   3.694
78794W        W45577  37.814  36.496  12.087
78795W        W45578  26.536   9.790   4.982
78796W        W45579   9.464  21.713   0.918
78797W        W45580  35.877   3.604   4.468
78798W        W45581  13.327  38.999   3.394
78799W        W45582   7.770  11.250   0.832
78800W        W45583   0.375   5.569   0.776
78801W        W45584  16.576  22.503  13.336
78802W        W45585  19.559  34.532  12.229
78803W        W45586  26.425  31.388   1.762
78804W        W45587  15.728  21.813  14.029
78805W        W45588  41.278   3.326  14.836
78806W        W45589   2.277  21.248   0.836
78807W        W45590  39.900  36.084   0.298
78808W        W45591  36.900  31.579   1.207
78809W        W45592  20.010  33.135   1.804
78810W        W45593  40.128  44.904  11.572
78811W        W45594  14.684  38.504   5.434
78812W        W45595  22.451   2.949   2.591
78813W        W45596  34.119  13.627  13.234
78814W        W45597  25.581  40.072   3.533
78815W        W45598  24.196  12.351  11.776
78816W        W45599  21.067   0.297  12.014
78817W        W45600  35.621  35.876  12.130
78818W        W45601  13.735  26.603  11.032
78819W        W45602  43.055  23.804   1.327
78820W        W45603  11.251  12.525  12.099
78821W        W45604  15.319  28.177  12.958
78822W        W45605  17.577  36.290   2.205
78823W        W45606  28.528   3.743   2.828
78824W        W45607  38.517  27.759  12.536
78825W        W45608   3.015  43.805  12.608
78826W        W45609  20.655  41.509  11.564
78827W        W45610  10.780   9.333  12.383
78828W        W45611  41.772  39.132   3.683
78829W        W45612  11.584   5.847  10.702
78830W        W45613  33.409   0.198  11.615
78831W        W45614   2.394   4.532  11.233
78832W        W45615   5.490  26.780  10.324
78833W        W45616  42.078   5.785  14.857
78834W        W45617  34.096  35.101   2.954
78835W        W45618   7.653  30.616  13.960
78836W        W45619  19.840  26.304   2.507
78837W        W45620  19.067  40.909  13.527
78838W        W45621  16.267   5.942   3.596
78839W        W45622  34.077  22.406  14.951
78840W        W45623  21.673  35.666   1.045
78841W        W45624  17.718  27.534   3.662
78842W        W45625  42.843  21.727  14.104
78843W        W45626   3.475  35.947  14.714
78844W        W45627  12.869  31.386   1.245
78845W        W45628  34.893  41.455   4.595
78846W        W45629  11.234  16.592  14.917
78847W        W45630  24.474  26.005   0.975
78848W        W45631  40.573  21.194   0.918
78849W        W45632  12.686  37.906  13.784
78850W        W45633  20.593  12.833  14.687
78851W        W45634  26.006  40.732   3.260
78852W        W45635   8.093  10.316  10.799
78853W        W45636  36.611  39.287  11.946
78854W        W45637  35.855  28.958  12.974
78855W        W45638  38.766  15.381  14.327
78856W        W45639  23.173   6.857  10.802
78857W        W45640  15.060  16.554  12.409
78858W        W45641  16.641  29.097  10.953
78859W        W45642  20.585   6.703  10.395
78860W        W45643   1.939  28.006  12.110
78861W        W45644  17.203  18.593   1.601
78862W        W45645  31.665  38.977   4.823
78863W        W45646   3.847  34.984  14.739
78864W        W45647   1.719  16.287   2.805
78865W        W45648  12.004  35.488  11.127
78866W        W45649  40.814  30.530  14.927
78867W        W45650   9.333  17.052   2.519
78868W        W45651   3.881  29.735  10.745
78869W        W45652  39.785  27.237  11.577
78870W        W45653  14.273  32.573  14.978
78871W        W45654  38.358   0.886   1.029
78872W        W45655  11.465  34.085   2.740
78873W        W45656  19.752  43.428   4.246
78874W        W45657  20.510  15.465  14.919
78875W        W45658  34.950  28.129   9.873
78876W        W45659   8.926  10.789  13.881
78877W        W45660  12.814   9.053   2.691
78878W        W45661  14.837  22.147  14.069
78879W        W45662  14.455   3.861  10.728
78880W        W45663   5.061   3.080   3.291
78881W        W45664  39.371  34.406   4.115
78882W        W45665  14.539  33.389  12.509
78883W        W45666  27.120  27.661   4.728
78884W        W45667  15.260  21.653  12.168
78885W        W45668  23.981   0.068  13.157
78886W        W45669  17.262  13.087   9.636
78887W        W45670   5.372  24.769   4.824
78888W        W45671   1.284  14.876  13.043
78889W        W45672  12.377  42.520   0.447
78890W        W45673  35.317  42.411   3.183
78891W        W45674  15.883  26.670   1.210
78892W        W45675  12.655  32.079  11.516
78893W        W45676  15.774   7.642  12.535
78894W        W45677   6.080  34.556  13.474
78895W        W45678  19.607  15.513   0.770
78896W        W45679  25.648  17.369   3.683
78897W        W45680  27.462  12.728   0.793
78898W        W45681  11.503  36.417  13.867
78899W        W45682  35.030   0.194  14.479
78900W        W45683  35.209  20.546  11.969
78901W        W45684   5.308   4.219   3.770
78902W        W45685  12.911  10.705   3.678
78903W        W45686  10.892  41.748  11.658
78904W        W45687  31.059  35.683   4.428
78905W        W45688  13.621   4.333   2.590
78906W        W45689   9.396  37.551   0.306
78907W        W45690  29.299  16.179  14.949
78908W        W45691  14.150   9.800   0.602
78909W        W45692  29.921  40.799  10.558
78910W        W45693  23.674  44.647  13.280
78911W        W45694  17.180  42.848  11.887
78912W        W45695   2.919  11.511  13.305
78913W        W45696  19.565  25.243   1.669
78914W        W45697  44.260  21.091  13.458
78915W        W45698   3.853  35.015  14.227
78916W        W45699  31.988   3.411  13.940
78917W        W45700  24.949  41.957  14.233
78918W        W45701  37.408  21.480   5.054
78919W        W45702   0.416  25.103  14.799
78920W        W45703  26.962   2.800   3.173
78921W        W45704   4.308  35.099   4.237
78922W        W45705  29.368  11.115  12.360
78923W        W45706   8.359   3.352   5.028
78924W        W45707   0.559  25.849  14.793
78925W        W45708  10.741  30.631   4.635
78926W        W45709  37.890  10.085  13.965
78927W        W45710  39.301   9.399  11.679
78928W        W45711  40.903  42.542   2.296
78929W        W45712  18.181   3.197   1.847
78930W        W45713  35.883  25.584  13.617
78931W        W45714  10.429  36.931  13.502
78932W        W45715   9.567  27.482  11.954
78933W        W45716  39.558  36.771   4.531
78934W        W45717   4.382  29.077   3.600
78935W        W45718  40.052  19.685   2.235
78936W        W45719  35.586  12.230   3.748
78937W        W45720  37.730  36.704   1.390
78938W        W45721  13.429   2.051   5.024
78939W        W45722  32.051  30.907   4.563
78940W        W45723  40.011  15.119   2.920
78941W        W45724  37.477  42.808  11.179
78942W        W45725   4.325  35.927  11.650
78943W        W45726  41.905   6.222   4.193
78944W        W45727   4.933   4.730   2.489
78945W        W45728  10.056  17.240  14.862
78946W        W45729  14.237  13.352   5.019
78947W        W45730  25.884  21.329   0.396
78948W        W45731  27.129  14.073   1.719
78949W        W45732  11.353  23.396  14.373
78950W        W45733  30.357  17.330  11.026
78951W        W45734  35.916   5.702   0.278
78952W        W45735  41.084  14.129  12.101
78953W        W45736  33.956  23.032   0.622
78954W        W45737   4.631  23.659  11.499
78955W        W45738   2.492  32.661   1.508
78956W        W45739  22.749   6.416   1.340
78957W        W45740  21.994  34.117  11.651
78958W        W45741  23.123  14.035   2.863
78959W        W45742  24.266  10.270   2.269
78960W        W45743  25.018  31.502   3.203
78961W        W45744  20.560  35.700  11.244
78962W        W45745  33.367   2.941   0.312
78963W        W45746  43.585  25.492   1.201
78964W        W45747  35.949  25.338   0.347
78965W        W45748  34.695  40.991   3.693
78966W        W45749  35.966  17.956   1.061
78967W        W45750  12.336  30.721  12.320
78968W        W45751  24.085  16.306   2.801
78969W        W45752  20.947  44.242   1.290
78970W        W45753  15.027   1.575  11.640
78971W        W45754  22.495   4.747  11.581
78972W        W45755   7.360   1.029  13.340
78973W        W45756  29.682  14.400   4.309
78974W        W45757  44.893  10.335  13.069
78975W        W45758   1.833  18.139   4.358
78976W        W45759  28.153  24.710   0.693
78977W        W45760  10.257  19.293  12.850
78978W        W45761  30.256  14.405   3.638
78979W        W45762  44.294  37.058   3.697
78980W        W45763   8.864  14.042  10.336
78981W        W45764  39.260   4.721   0.910
78982W        W45765   4.343  16.153  10.764
78983W        W45766  16.730  25.562   2.811
78984W        W45767   2.347  15.398  11.420
78985W        W45768  32.986  42.236   0.475
78986W        W45769  26.025  44.110  13.148
78987W        W45770  28.406  17.572  13.827
78988W        W45771  44.090  21.135  10.660
78989W        W45772  24.034   4.920   3.103
78990W        W45773   4.821  28.201  11.214
78991W        W45774  12.585   6.393  12.450
78992W        W45775  13.245   4.946   1.886
78993W        W45776  42.611  34.573   2.463
78994W        W45777  43.777  25.035   1.322
78995W        W45778  18.484   2.033   5.057
78996W        W45779  29.860  10.736   1.244
78997W        W45780  28.306  19.648   4.168
78998W        W45781  13.736  35.147   2.097
78999W        W45782  43.543  22.612   4.296
79000W        W45783  11.356  38.024   2.564
79001W        W45784  41.439  42.561  12.928
79002W        W45785   3.501  11.464  14.041
79003W        W45786  21.354  14.466   1.273
79004W        W45787  38.850  28.738   2.482
79005W        W45788  29.314  20.828  11.074
79006W        W45789  14.556  19.569  12.001
79007W        W45790  14.280  35.898  11.238
79008W        W45791  11.946  26.566   0.287
79009W        W45792  16.764  13.213   2.391
79010W        W45793  39.957   2.562  11.842
79011W        W45794  20.893  38.697  13.083
79012W        W45795  43.050  14.634   1.152
79013W        W45796  24.318  15.168  14.926
79014W        W45797   5.356  39.080   2.900
79015W        W45798  30.651  26.708  12.110
79016W        W45799  43.707  26.210   3.215
79017W        W45800   1.812   0.430   2.282
79018W        W45801  41.954  36.510  14.475
79019W        W45802  32.764  17.778  12.567
79020W        W45803  12.600  13.635   4.707
79021W        W45804  25.477  18.811   3.721
79022W        W45805   4.315  18.457   4.721
79023W        W45806  16.384  13.070  11.571
79024W        W45807  17.649  32.578   4.899
79025W        W45808  21.945  42.463   1.796
79026W        W45809   9.300  43.718   0.113
79027W        W45810  19.813  44.449  12.486
79028W        W45811  21.683  32.969   4.744
79029W        W45812   1.070  21.751  10.949
79030W        W45813   5.985  42.870  12.387
79031W        W45814   1.116  39.908   1.265
79032W        W45815  37.011  29.125   2.408
79033W        W45816  24.643  19.476   1.819
79034W        W45817   3.416  29.404  12.184
79035W        W45818  29.590  28.389  13.212
79036W        W45819  15.739  17.971  11.514
79037W        W45820  14.505  18.266  14.041
79038W        W45821  44.433   5.452  14.876
79039W        W45822  44.209  10.502  14.255
79040W        W45823  36.290   9.758   2.394
79041W        W45824  29.009  41.450   0.512
79042W        W45825  36.319  28.984  11.919
79043W        W45826   0.256  29.664   4.789
79044W        W45827  26.907  19.737   3.648
79045W        W45828  34.365  12.217   0.075
79046W        W45829  26.386  28.474   3.253
79047W        W45830  29.692  11.068   4.300
79048W        W45831  10.820  34.992   2.849
79049W        W45832  23.446  44.002   0.717
79050W        W45833   7.390  13.845  14.368
79051W        W45834   7.769  13.544  11.624
79052W        W45835   2.053  18.174   2.872
79053W        W45836   6.107  25.445  14.380
79054W        W45837  19.995   7.557   4.245
79055W        W45838  23.069  29.423  12.105
79056W        W45839  41.438  13.216  12.521
79057W        W45840  27.181   7.449  11.012
79058W        W45841   2.144  16.558  14.784
79059W        W45842  35.423  19.200  14.385
79060W        W45843  38.168  39.094  13.057
79061W        W45844  41.850  18.757   0.850
79062W        W45845  22.513   7.206  14.335
79063W        W45846   4.900  33.811  11.875
79064W        W45847  26.633   2.393   3.284
79065W        W45848   9.375  40.455  12.505
79066W        W45849  29.499   3.627  11.281
79067W        W45850  26.858  15.752  14.840
79068W        W45851   5.656  22.226   3.652
79069W        W45852  32.051  31.015  12.074
79070W        W45853  30.477  42.187   0.712
79071W        W45854  26.608   3.303  10.918
79072W        W45855  42.526  18.825  11.912
79073W        W45856  31.051  15.186  12.642
79074W        W45857  37.525   5.750   3.140
79075W        W45858  38.844  40.459  12.644
79076W        W45859   3.826   8.660  11.542
79077W        W45860  36.069  13.444   1.440
79078W        W45861  40.130  30.216   5.088
79079W        W45862   4.698   8.358   3.117
79080W        W45863  24.013  37.604  11.769
79081W        W45864  35.076  43.026   3.086
79082W        W45865   4.445  10.118  13.836
79083W        W45866  11.330  16.568   4.119
79084W        W45867  38.074   4.974   2.373
79085W        W45868  26.745  10.817  10.704
79086W        W45869  20.269   5.227   3.609
79087W        W45870  11.135  40.993  13.433
79088W        W45871   8.143  15.895   3.301
79089W        W45872  34.463  26.643  14.055
79090W        W45873  12.563  18.815  11.548
79091W        W45874  35.193   4.755   1.776
79092W        W45875  27.604  15.921  14.569
79093W        W45876  18.299  41.756  10.630
79094W        W45877  27.097  44.590   4.192
79095W        W45878  22.076  31.962  14.264
79096W        W45879   1.472  35.135  12.075
79097W        W45880   9.870   7.139   0.251
79098W        W45881  10.955  44.855   2.924
79099W        W45882   3.341  44.280   3.294
79100W        W45883  38.067  15.495  13.019
79101W        W45884   7.533   8.290  13.399
79102W        W45885   5.438   6.703  11.131
79103W        W45886  23.963  26.766  13.970
79104W        W45887  29.118  13.323  12.748
79105W        W45888   4.234   9.208   3.527
79106W        W45889  29.660  34.772   1.345
79107W        W45890  30.103   2.400   3.231
79108W        W45891   6.797   9.407   3.309
79109W        W45892  19.276  26.101   1.856
79110W        W45893   3.457  20.722  11.268
79111W        W45894  26.401  40.255   1.864
79112W        W45895  11.967  26.716  11.563
79113W        W45896   7.322  36.369   3.405
79114W        W45897   0.799  33.311   2.189
79115W        W45898  24.002   0.267  13.777
79116W        W45899  36.642  31.167  13.058
79117W        W45900   0.463  36.407  10.971
79118W        W45901  38.772  42.810  12.475
79119W        W45902  28.465   9.327   0.964
79120W        W45903  19.604  30.651   4.782
79121W        W45904  32.393  33.079   1.822
79122W        W45905  14.061  27.967   3.638
79123W        W45906  29.498   3.505  12.106
79124W        W45907   2.294  36.386   0.319
79125W        W45908  26.696   1.177   3.837
79126W        W45909   8.628  17.979  14.408
79127W        W45910  28.455  18.002  12.072
79128W        W45911  36.618  35.099  10.823
79129W        W45912  14.927  12.256   2.254
79130W        W45913  38.412  37.067   2.497
79131W        W45914   9.154  28.083  11.601
79132W        W45915  30.507  33.849  13.060
79133W        W45916  26.993  10.651  11.790
79134W        W45917   3.195   0.336   3.841
79135W        W45918  28.542  39.756   1.735
79136W        W45919   1.171  25.917   2.927
79137W        W45920   8.735  43.938  14.622
79138W        W45921  31.740  10.113  13.673
79139W        W45922   2.356   2.087   1.047
79140W        W45923   8.136  32.820   2.489
79141W        W45924  26.946   6.297   4.657
79142W        W45925   3.948   4.303  12.596
79143W        W45926   1.930   2.831   3.370
79144W        W45927  13.899   8.732  14.982
79145W        W45928  18.647  29.720  11.968
79146W        W45929   1.337  33.599  13.350
79147W        W45930  22.554  36.633   1.178
79148W        W45931  42.327  17.363  11.931
79149W        W45932  41.950  37.920   1.305
79150W        W45933  21.110  18.092  10.623
79151W        W45934   4.799  44.791   1.371
79152W        W45935  23.056   7.710   3.310
79153W        W45936   9.726  24.910  13.121
79154W        W45937  16.816  34.154   4.578
79155W        W45938  20.335  23.171   1.780
79156W        W45939  30.443  33.643  14.913
79157W        W45940  42.020  12.638  10.782
79158W        W45941   2.782  36.635  14.271
79159W        W45942  28.507   8.938   0.048
79160W        W45943  33.006   3.248  10.448
79161W        W45944  18.082  41.285   3.151
79162W        W45945  34.158  29.642  14.771
79163W        W45946   8.896  16.128   4.238
79164W        W45947  17.348   1.226   0.756
79165W        W45948  17.885  28.196   1.379
79166W        W45949   3.846   1.280  11.576
79167W        W45950  19.600   9.851   4.220
79168W        W45951  10.091  15.642   4.981
79169W        W45952  43.651  14.502  12.546
79170W        W45953   1.202   5.142   0.783
79171W        W45954  17.147  40.749  14.287
79172W        W45955  35.482  21.012   3.489
79173W        W45956  38.912  15.694   2.644
79174W        W45957  19.624  43.319  10.519
79175W        W45958  24.262  41.323  14.976
79176W        W45959  10.060   0.287  10.469
79177W        W45960  21.707  25.522   1.096
79178W        W45961  12.262  18.589   1.016
79179W        W45962  15.526  40.376  11.477
79180W        W45963  25.675  36.570  14.867
79181W        W45964  32.815  16.153   2.721
79182W        W45965  44.893  27.473   1.394
79183W        W45966  37.767  40.331  12.029
79184W        W45967  14.083   1.780  13.784
79185W        W45968  22.718   0.442   0.773
79186W        W45969   7.716  21.532  10.772
79187W        W45970  39.386  36.014   0.668
79188W        W45971  21.545  26.968   3.690
79189W        W45972  28.161   0.645   0.080
79190W        W45973  25.205   0.422   0.302
79191W        W45974  25.830  11.274   0.255
79192W        W45975  19.361   6.595  10.482
79193W        W45976  39.517  40.431   1.814
79194W        W45977   0.443  35.664   0.102
79195W        W45978  27.984  27.489  10.321
79196W        W45979   6.561  20.652  14.548
79197W        W45980  11.369  13.392  12.480
79198W        W45981   4.800   7.439  13.414
79199W        W45982   5.301   6.995   1.793
79200W        W45983  24.047  36.108  12.017
79201W        W45984  14.769  44.600   1.793
79202W        W45985  31.806  40.931  11.883
79203W        W45986  40.047  20.996  10.323
79204W        W45987   2.374  43.389   1.087
79205W        W45988  17.036  38.771  13.260
79206W        W45989  27.213  13.658   1.352
79207W        W45990  19.544  44.557  11.571
79208W        W45991   5.449  39.905  14.571
79209W        W45992  34.644  26.935  10.760
79210W        W45993  13.088  30.193  13.013
79211W        W45994  13.998  26.112   4.210
79212W        W45995   9.878  13.311  14.027
79213W        W45996  25.575  16.084  12.518
79214W        W45997  43.018  39.482  10.741
79215W        W45998  17.621  18.168   4.451
79216W        W45999  22.660  22.060   3.332
79217W        W46000  13.320  18.280  12.925
79218W        W46001  40.391   6.050   5.096
79219W        W46002  23.715  11.347   1.822
79220W        W46003  22.452  36.875   2.448
79221W        W46004  24.831  26.221   4.368
79222W        W46005  35.484  35.803  12.640
79223W        W46006   0.834  10.880   0.343
79224W        W46007   3.474  29.692  12.604
79225W        W46008  20.479   2.276  10.677
79226W        W46009  19.486  29.612  12.333
79227W        W46010  10.692  17.681  12.146
79228W        W46011  31.877  20.136   1.796
79229W        W46012   8.143   4.900   1.372
79230W        W46013  42.249  35.143  12.393
79231W        W46014  18.275  33.121   3.145
79232W        W46015  34.310  18.681   1.221
79233W        W46016  35.442  25.748   4.800
79234W        W46017   7.945  43.419  13.928
79235W        W46018  38.601  30.950   0.848
79236W        W46019  26.614  44.512  10.481
79237W        W46020  40.114  10.386   9.994
79238W        W46021  13.660  23.591  13.995
79239W        W46022  14.177  37.939   3.584
79240W        W46023  10.211  44.514  11.527
79241W        W46024  30.352  38.315  12.189
79242W        W46025  18.725  23.745   0.583
79243W        W46026   1.032  18.180   2.762
79244W        W46027  35.891  24.739   4.073
79245W        W46028   2.868  11.183  12.397
79246W        W46029  26.140   3.761   3.656
79247W        W46030  41.198  10.528   2.916
79248W        W46031  39.340  18.169   0.813
79249W        W46032   5.451  33.020   1.223
79250W        W46033  29.252   2.757   3.830
79251W        W46034  14.637   9.381   4.021
79252W        W46035  22.911  24.142  12.560
79253W        W46036  12.184  17.231   3.241
79254W        W46037   4.140  39.866   0.858
79255W        W46038   9.739  29.932   1.927
79256W        W46039  15.040  30.783   4.318
79257W        W46040  39.498  23.956   3.578
79258W        W46041  18.929  11.783   1.017
79259W        W46042   9.469  26.759  11.607
79260W        W46043  44.368   1.112  11.264
79261W        W46044   8.150  28.777   1.469
79262W        W46045  26.721  33.080   0.566
79263W        W46046   4.807  19.214   4.482
79264W        W46047  21.296  24.746   1.606
79265W        W46048   2.513   1.288  13.375
79266W        W46049  27.945  15.684   0.863
79267W        W46050  16.124  44.814  11.002
79268W        W46051  23.582  15.411   1.348
79269W        W46052  38.418  37.309   1.831
79270W        W46053  19.427  19.790  13.118
79271W        W46054  43.244  36.985  13.368
79272W        W46055  24.481   3.906  11.717
79273W        W46056  39.214  40.420  14.150
79274W        W46057  30.029  17.768  12.910
79275W        W46058   7.213  38.459  12.476
79276W        W46059  44.993  24.203  14.372
79277W        W46060  40.114   2.028  13.456
79278W        W46061  37.951  28.664   4.376
79279W        W46062  34.633   6.125  13.861
79280W        W46063  34.003  40.894   3.268
79281W        W46064  23.586   7.107   2.379
79282W        W46065  15.100   1.004  12.452
79283W        W46066  24.557  21.505   4.735
79284W        W46067   0.820  22.111  11.200
79285W        W46068  10.661  17.140  13.616
79286W        W46069   7.123  43.372   2.846
79287W        W46070   2.590   9.313   1.790
79288W        W46071  38.026  13.397   2.674
79289W        W46072  29.441   9.951  10.700
79290W        W46073  14.138   5.959   4.923
79291W        W46074  12.844  44.556  14.308
79292W        W46075   9.584   9.741  14.534
79293W        W46076  31.370  21.935   4.048
79294W        W46077  16.207  35.499  12.891
79295W        W46078  34.504  19.029  11.172
79296W        W46079  42.304   0.874  13.579
79297W        W46080  24.102  35.454  12.571
79298W        W46081  13.614  19.312   2.167
79299W        W46082  17.728  36.602  13.493
79300W        W46083  34.600  16.162  10.670
79301W        W46084  22.271  37.552  11.107
79302W        W46085  37.574  38.032   0.845
79303W        W46086   0.525  23.091  14.459
79304W        W46087  25.396  42.828  13.310
79305W        W46088  39.763  10.138   4.716
79306W        W46089  23.212  27.173   1.347
79307W        W46090  15.182   9.681  10.710
79308W        W46091   3.238  10.271  11.864
79309W        W46092  13.389   9.584  12.944
79310W        W46093  41.929  39.733  14.005
79311W        W46094  13.110  23.011  12.880
79312W        W46095  30.134  33.337   4.261
79313W        W46096  14.851   9.355  11.898
79314W        W46097  34.321  27.452   1.292
79315W        W46098  40.054   7.191  12.685
79316W        W46099  21.044   7.785   4.105
79317W        W46100  27.762   0.037  14.100
79318W        W46101   6.945  12.156   1.846
79319W        W46102  28.925  22.038   2.141
79320W        W46103  27.755  15.202  12.065
79321W        W46104  27.968  43.967   2.661
79322W        W46105  11.591  18.108   0.260
79323W        W46106  16.733   3.315  11.396
79324W        W46107   7.674  32.558  11.486
79325W        W46108  11.679  38.354   2.307
79326W        W46109  15.803  20.139   3.627
79327W        W46110  32.766  10.817   0.000
79328W        W46111  34.035  20.767  14.003
79329W        W46112   5.320   9.643  11.794
79330W        W46113   6.416  38.633   1.219
79331W        W46114  44.988  12.279  14.369
79332W        W46115  14.287  39.551  10.768
79333W        W46116  22.043  33.022   0.801
79334W        W46117   7.307  42.623  13.968
79335W        W46118   1.506  26.497  12.131
79336W        W46119  35.389  28.470   2.206
79337W        W46120   3.219  28.010  13.909
79338W        W46121  36.369  19.144  14.482
79339W        W46122  44.462   5.862   1.723
79340W        W46123  25.105  11.766  11.586
79341W        W46124  24.504  28.910   0.706
79342W        W46125  44.417   0.470  12.288
79343W        W46126  14.209   0.928   3.642
79344W        W46127  32.389  34.462   0.182
79345W        W46128  40.515  14.368   0.846
79346W        W46129  28.023   5.798  13.953
79347W        W46130   0.032  30.576  13.689
79348W        W46131   4.764  10.785   2.315
79349W        W46132  37.474  25.498   4.535
79350W        W46133   7.127  14.223   4.871
79351W        W46134  37.994  16.965   3.067
79352W        W46135  28.575  31.996  11.539
79353W        W46136   8.644   3.836  13.916
79354W        W46137   2.248  24.522  14.883
79355W        W46138  22.168   4.940   2.302
79356W        W46139   8.804  22.064  13.514
79357W        W46140  13.137  17.155  10.354
79358W        W46141   0.264  26.012   3.986
79359W        W46142  35.377  32.065  13.627
79360W        W46143  31.348  43.276  11.208
79361W        W46144  32.507  42.926  12.474
79362W        W46145  33.825  12.134  10.941
79363W        W46146  36.009   1.831  12.508
79364W        W46147   6.205  11.211   1.201
79365W        W46148  10.065  14.765  14.874
79366W        W46149   2.427  26.056  13.512
79367W        W46150  26.640  26.340  14.461
79368W        W46151  36.179  17.505  12.605
79369W        W46152  10.051   6.610  11.620
79370W        W46153  19.130  30.134   4.572
79371W        W46154  33.441   3.693  13.314
79372W        W46155   3.988  11.584  12.428
79373W        W46156  10.804   3.211  14.213
79374W        W46157  20.917   1.379  10.924
79375W        W46158   9.522  29.443   4.100
79376W        W46159  13.642   1.105   2.747
79377W        W46160   3.974  15.448   3.727
79378W        W46161   2.920  21.961  10.785
79379W        W46162  25.571  28.583   4.247
79380W        W46163   5.163   5.304   3.816
79381W        W46164  44.946  34.868  14.270
79382W        W46165  25.599  35.549   0.730
79383W        W46166  44.671  32.715   1.780
79384W        W46167  27.273  18.961   2.070
79385W        W46168  41.439  33.054   3.670
79386W        W46169  35.694  19.469  11.533
79387W        W46170  22.742  32.947  14.682
79388W        W46171  38.651  37.466   2.245
79389W        W46172  14.128  42.002   0.486
79390W        W46173   2.185  39.807  11.296
79391W        W46174  13.387   7.811  13.714
79392W        W46175  27.361  28.720  14.270
79393W        W46176   1.911  29.891   3.700
79394W        W46177  31.134  39.055   1.339
79395W        W46178  21.681  18.678  11.573
79396W        W46179  44.700  17.241   0.856
79397W        W46180  28.537  40.075  10.680
79398W        W46181   0.249  25.266   1.185
79399W        W46182  20.817  19.613  10.243
79400W        W46183  41.803  34.447  14.483
79401W        W46184  40.372  17.022  14.916
79402W        W46185  12.789  32.906   2.277
79403W        W46186  19.050  41.975  14.526
79404W        W46187  40.160  40.049  14.005
79405W        W46188  14.762  38.022  14.735
79406W        W46189  26.116  10.575  12.230
79407W        W46190  27.627  28.082  12.617
79408W        W46191  42.444   5.185  14.326
79409W        W46192  42.002  33.904   0.873
79410W        W46193  23.098  36.752   2.315
79411W        W46194   5.896  25.503   2.708
79412W        W46195   4.968   6.244   0.805
79413W        W46196  15.453  14.339  12.887
79414W        W46197  40.044   6.185  13.138
79415W        W46198   2.528   7.758   4.346
79416W        W46199  20.551  36.810  12.042
79417W        W46200  33.135   4.879   3.882
79418W        W46201  42.788  30.188  12.535
79419W        W46202  26.988  38.580   0.344
79420W        W46203  17.936  39.807  12.936
79421W        W46204  44.453  35.470   2.399
79422W        W46205  38.595  33.458   1.696
79423W        W46206  28.442  41.614   4.709
79424W        W46207  14.614  27.382  11.029
79425W        W46208  15.004  26.119  13.030
79426W        W46209   7.366  32.907   0.129
79427W        W46210  19.240   9.060   0.332
79428W        W46211  39.735  22.184   4.070
79429W        W46212  38.994  21.838  11.381
79430W        W46213   1.525  35.355  12.909
79431W        W46214  43.034   2.723   2.377
79432W        W46215   3.885  40.808   3.900
79433W        W46216  23.236  16.803  12.489
79434W        W46217  36.306  34.529   0.813
79435W        W46218  19.816  28.097  10.448
79436W        W46219  31.336   4.072  11.618
79437W        W46220   4.889  17.477  14.832
79438W        W46221  41.397  39.568   4.014
79439W        W46222   2.804   0.756   0.648
79440W        W46223  42.466  44.003   1.603
79441W        W46224  21.671   3.408  13.514
79442W        W46225   1.927  38.606  11.060
79443W        W46226  31.455  16.371  14.841
79444W        W46227  30.351  27.112  12.011
79445W        W46228  33.571  14.913   4.341
79446W        W46229  39.568  30.164   3.677
79447W        W46230   3.747   1.040  14.974
79448W        W46231  41.361  35.110   2.223
79449W        W46232  11.615  14.279  14.478
79450W        W46233   1.250   4.973  12.433
79451W        W46234  29.015  43.875   2.632
79452W        W46235   7.621  14.566  13.395
79453W        W46236  25.081   2.168  14.691
79454W        W46237   1.019  26.471   3.026
79455W        W46238  17.567  42.052   2.355
79456W        W46239  31.373   7.633  13.929
79457W        W46240  20.281  41.215   0.508
79458W        W46241   8.784  31.581  13.106
79459W        W46242  29.831  11.210   4.784
79460W        W46243  31.058  32.349   4.224
79461W        W46244  40.494  36.385  12.384
79462W        W46245   2.544  33.140  14.893
79463W        W46246   6.731  41.281   0.502
79464W        W46247  44.959  26.183  11.060
79465W        W46248   1.079  16.539  10.592
79466W        W46249   5.140   8.200  11.877
79467W        W46250  38.986  19.288   0.945
79468W        W46251   4.034  34.928   1.861
79469W        W46252   4.844   1.725  10.706
79470W        W46253   2.031  27.529   0.524
79471W        W46254  18.610   1.876   2.507
79472W        W46255  26.589  42.486  11.239
79473W        W46256   4.287   9.844  11.990
79474W        W46257  41.793  24.925   2.898
79475W        W46258  37.321  13.790   4.149
79476W        W46259  33.947  13.242  14.883
79477W        W46260   4.724  11.108   2.718
79478W        W46261  35.043  33.600  12.045
79479W        W46262   4.417   1.070   1.231
79480W        W46263  41.091   3.708  12.840
79481W        W46264  21.287  10.335   0.717
79482W        W46265  18.616  24.068   4.142
79483W        W46266  14.289  39.039  13.563
79484W        W46267  44.811  12.360   0.910
79485W        W46268  40.969  38.220  14.408
79486W        W46269  18.509  37.036   1.614
79487W        W46270   2.999   8.586  11.194
79488W        W46271  34.084  17.375   0.446
79489W        W46272   1.941  39.790   4.389
79490W        W46273  13.698   1.398  14.938
79491W        W46274  27.538   8.631  14.704
79492W        W46275   4.033  27.577  10.657
79493W        W46276  15.688  22.851  12.164
79494W        W46277  34.074  11.214   2.760
79495W        W46278  38.841   4.612  11.848
79496W        W46279  11.897  22.600  14.063
79497W        W46280  33.396  37.138   3.802
79498W        W46281  29.324  33.150  14.411
79499W        W46282   7.032   2.632  11.168
79500W        W46283  44.500  21.346   0.373
79501W        W46284  18.030  12.721  10.593
79502W        W46285  35.947  31.612   0.671
79503W        W46286  37.119  16.134   0.727
79504W        W46287  13.270  44.536   1.382
79505W        W46288  17.095  44.313  12.350
79506W        W46289  15.266  20.684   4.076
79507W        W46290  40.464  25.539   3.869
79508W        W46291  27.587  38.673   1.874
79509W        W46292  38.801   7.573   3.220
79510W        W46293  13.717   8.479  14.540
79511W        W46294   8.962  24.876   2.680
79512W        W46295  34.921   3.695  12.012
79513W        W46296  38.100  12.360  13.373
79514W        W46297  15.625  31.967  13.565
79515W        W46298  20.499  34.176   0.670
79516W        W46299   3.183   2.315  13.320
79517W        W46300  34.262  43.855   0.400
79518W        W46301   2.257  37.851  12.165
79519W        W46302  28.657  11.682  12.836
79520W        W46303  27.624   3.773  14.988
79521W        W46304  28.529  43.552   0.719
79522W        W46305   2.271  39.110   2.627
79523W        W46306   8.205  16.688   4.499
79524W        W46307  11.682   3.803  14.605
79525W        W46308   7.024   0.210   4.621
79526W        W46309  19.856  13.300  13.868
79527W        W46310  38.243  37.080   1.417
79528W        W46311  25.669   8.702  10.668
79529W        W46312  18.845  15.581   1.941
79530W        W46313  28.080  30.136  14.417
79531W        W46314  26.836  35.422   1.411
79532W        W46315  35.840  17.941   2.753
79533W        W46316  35.866  22.581   2.116
79534W        W46317  42.377   8.943  12.479
79535W        W46318  20.253  11.724   3.841
79536W        W46319  42.606   1.501  12.526
79537W        W46320  34.055  36.449  14.220
79538W        W46321   4.286  26.953  11.170
79539W        W46322  39.988  39.301  10.943
79540W        W46323  44.456  31.563   1.350
79541W        W46324  13.236  13.590  14.197
79542W        W46325  22.088   0.085   5.049
79543W        W46326  31.103  32.797  12.534
79544W        W46327   5.376  21.887   3.351
79545W        W46328  22.140   1.820   3.624
79546W        W46329  36.037  37.095  13.874
79547W        W46330  11.978   2.662  10.801
79548W        W46331  34.785  10.200   1.823
79549W        W46332  36.466   1.923  11.085
79550W        W46333  33.258  39.509  11.101
79551W        W46334   7.030   7.871   2.301
79552W        W46335   3.682  17.771  12.653
79553W        W46336   2.102  41.828   3.845
79554W        W46337  18.358  37.445   2.150
79555W        W46338   8.095  25.945   2.267
79556W        W46339  31.921  33.926   4.755
79557W        W46340   5.884   8.499  12.063
79558W        W46341  31.580   9.917  11.559
79559W        W46342  37.120  28.681   3.805
79560W        W46343  16.128  42.052  13.543
79561W        W46344  20.009  40.028   3.685
79562W        W46345  30.513  43.692  12.150
79563W        W46346  18.570  30.498   0.904
79564W        W46347  29.955  44.320   4.658
79565W        W46348   1.218  16.734   0.429
79566W        W46349   3.060  20.770   0.407
79567W        W46350  13.905  29.557  11.173
79568W        W46351  35.292  43.193  13.425
79569W        W46352   5.203   6.980  14.275
79570W        W46353  44.681  30.859  11.874
79571W        W46354   9.282  39.448  14.581
79572W        W46355  34.972  39.320  13.973
79573W        W46356  11.396  36.884  13.250
79574W        W46357  40.551  22.207   4.554
79575W        W46358  43.695  23.938   2.203
79576W        W46359   7.460  42.975  11.134
79577W        W46360  25.619  27.098  14.703
79578W        W46361  13.924  19.167  14.954
79579W        W46362  36.521   3.434   2.418
79580W        W46363  14.821  34.374  13.918
79581W        W46364  21.593  25.055  12.065
79582W        W46365  41.807  35.644   4.823
79583W        W46366  34.042  40.106   0.687
79584W        W46367  13.295  42.981   4.599
79585W        W46368  16.050   6.684   4.711
79586W        W46369  41.216  41.955  11.938
79587W        W46370  42.981   5.884   1.953
79588W        W46371  13.257  26.984   0.206
79589W        W46372  44.411  17.372  10.321
79590W        W46373  31.996  14.492  11.569
79591W        W46374  15.181  12.350   1.416
79592W        W46375  18.452  26.643  10.684
79593W        W46376  35.952   1.470   1.792
79594W        W46377  36.103  43.349   4.487
79595W        W46378  19.723   2.789  12.890
79596W        W46379  21.013  40.071   0.810
79597W        W46380  33.443  23.150  13.455
79598W        W46381  19.930  31.700   3.350
79599W        W46382  20.109  41.515   0.890
79600W        W46383  32.455   5.940   1.678
79601W        W46384   5.116  27.897   2.896
79602W        W46385  13.336   1.004   1.128
79603W        W46386  24.607  17.562   2.370
79604W        W46387   1.965   0.101  13.473
79605W        W46388   7.695  28.079  13.976
79606W        W46389   9.388  11.326   2.109
79607W        W46390   1.203  14.579  11.144
79608W        W46391  12.386  30.080  10.634
79609W        W46392   8.300  12.375  13.977
79610W        W46393  35.886  23.502   3.776
79611W        W46394  32.886   0.835   4.843
79612W        W46395  20.236   8.480  14.690
79613W        W46396   7.079   3.022  10.837
79614W        W46397  21.250   4.792   1.923
79615W        W46398  13.754  39.589  12.942
79616W        W46399   8.713  44.550   4.472
79617W        W46400  12.787   7.074   4.071
79618W        W46401  31.342   4.447   4.194
79619W        W46402   3.034   8.444  12.457
79620W        W46403  43.237  29.923  14.513
79621W        W46404  25.225  26.588   1.798
79622W        W46405   5.299  37.959  11.773
79623W        W46406   3.077  25.761   0.363
79624W        W46407  15.027  16.507  13.440
79625W        W46408  39.291  41.636  13.976
79626W        W46409  19.849  18.733  11.330
79627W        W46410  25.155  13.566   1.426
79628W        W46411  38.855  29.190   1.900
79629W        W46412  17.596  30.748   2.252
79630W        W46413  35.248  12.819   2.654
79631W        W46414  35.960  14.171   0.579
79632W        W46415  13.999  19.648   1.328
79633W        W46416   2.478   6.630  11.477
79634W        W46417  32.365  24.712   3.786
79635W        W46418  25.698  36.994  10.757
79636W        W46419  16.716  29.637   2.812
79637W        W46420  34.535   0.943  14.217
79638W        W46421  28.574  33.443  13.475
79639W        W46422  13.076  13.868  12.836
79640W        W46423  37.096   3.437  12.562
79641W        W46424  12.845  13.798  11.040
79642W        W46425  12.328   5.467  14.284
79643W        W46426  15.060   7.833  12.608
79644W        W46427  12.510   3.812  13.959
79645W        W46428  37.359  39.345   0.492
79646W        W46429   1.834  39.229  10.503
79647W        W46430  15.262  17.506  12.527
79648W        W46431  32.305  17.269  14.280
79649W        W46432  32.553  19.151  10.292
79650W        W46433  12.832  44.878  10.706
79651W        W46434  33.059  37.335   0.344
79652W        W46435  13.154  12.864  13.034
79653W        W46436  40.286  10.654   0.430
79654W        W46437  42.735   6.234   5.030
79655W        W46438  28.716  28.670   1.829
79656W        W46439  15.090  15.203   3.209
79657W        W46440  30.648  18.682   0.042
79658W        W46441  38.752  43.803   0.273
79659W        W46442  29.006   3.983   2.702
79660W        W46443  22.001  34.571   0.729
79661W        W46444  43.002  36.433   1.457
79662W        W46445  44.738  11.554   2.324
79663W        W46446  26.674  22.968   3.651
79664W        W46447   5.095  37.092  12.056
79665W        W46448   8.271  11.897  13.281
79666W        W46449  12.778  12.120   2.713
79667W        W46450  16.303   8.695   0.802
79668W        W46451  11.154  36.288   2.658
79669W        W46452  31.421  43.668   4.201
79670W        W46453  41.487  12.837   1.218
79671W        W46454  14.046  30.883  14.146
79672W        W46455  25.503  29.314  13.060
79673W        W46456  25.551  35.806  11.142
79674W        W46457  38.006   6.565   1.829
79675W        W46458   5.814  25.065   4.263
79676W        W46459  37.400  24.650   0.741
79677W        W46460  42.296  16.573  12.594
79678W        W46461  25.556  37.008   3.195
79679W        W46462  25.114   8.225   4.204
79680W        W46463  42.903  20.562   3.074
79681W        W46464  28.648  22.886   2.229
79682W        W46465  37.631  39.285  11.919
79683W        W46466  44.701   3.702   1.278
79684W        W46467  38.104  36.980  12.817
79685W        W46468  26.505  18.409  10.290
79686W        W46469  40.266  20.202   0.750
79687W        W46470   8.883   4.592  13.021
79688W        W46471  24.754   9.693  11.211
79689W        W46472  37.990  29.098  13.335
79690W        W46473  24.185  24.575  12.966
79691W        W46474  19.534  32.105  14.502
79692W        W46475   3.589   7.001  12.924
79693W        W46476  15.302  22.161  11.997
79694W        W46477  39.117  18.129   0.336
79695W        W46478  15.445  28.958  10.490
79696W        W46479   9.843  43.490   2.253
79697W        W46480   5.014   7.813   4.539
79698W        W46481   5.420  20.197   1.791
79699W        W46482   9.297  13.389  12.094
79700W        W46483  17.248  12.028  14.817
79701W        W46484   6.751   4.717   2.836
79702W        W46485  40.414   9.237   3.567
79703W        W46486   0.547  18.748   4.250
79704W        W46487  17.314  18.089   5.056
79705W        W46488  39.945  18.815  14.062
79706W        W46489  24.045  14.262  12.468
79707W        W46490   9.185  34.653  10.508
79708W        W46491  32.933  13.421   1.576
79709W        W46492  17.790  11.342  12.057
79710W        W46493  28.984   6.983   0.789
79711W        W46494   7.275  10.162  14.348
79712W        W46495  27.404  37.062  12.132
79713W        W46496   7.893  30.727  11.583
79714W        W46497  18.295  39.241  14.438
79715W        W46498  33.631  44.427  11.306
79716W        W46499   6.661  19.015  13.637
79717W        W46500  31.401  14.076   3.234
79718W        W46501   0.823  27.594   2.368
79719W        W46502  43.293  25.602   2.578
79720W        W46503   6.843  20.965   1.825
79721W        W46504   0.967   8.234   3.771
79722W        W46505  34.794  30.430  14.047
79723W        W46506  20.572  33.827  13.089
79724W        W46507  40.962  39.357   4.296
79725W        W46508  10.706  42.946   3.196
79726W        W46509  39.096  28.492   4.752
79727W        W46510  24.709  20.508   1.804
79728W        W46511   1.282   6.418   0.314
79729W        W46512  10.928  30.092  12.988
79730W        W46513   7.068  20.684  14.431
79731W        W46514  44.813  31.109  10.802
79732W        W46515  18.961  23.682  13.042
79733W        W46516  29.509  12.333  12.923
79734W        W46517  12.813  17.064  14.989
79735W        W46518  19.634  34.720   4.566
79736W        W46519  12.147  12.193  10.401
79737W        W46520  37.649  23.287   4.537
79738W        W46521  16.619   0.801  12.198
79739W        W46522   5.773  18.878  12.708
79740W        W46523  38.869   6.990  14.010
79741W        W46524   7.460  22.620  14.499
79742W        W46525  19.240  39.145  14.447
79743W        W46526   7.642  30.905  10.718
79744W        W46527  36.548  12.506   3.661
79745W        W46528  25.426  25.264  13.453
79746W        W46529  34.278  19.284  13.007
79747W        W46530  23.068   7.836  12.507
79748W        W46531   2.227   4.645  11.696
79749W        W46532  14.296   4.017   3.846
79750W        W46533  33.651  17.982  14.593
79751W        W46534  36.337  40.883  11.661
79752W        W46535  30.231  41.604   5.189
79753W        W46536  40.091  37.965   2.266
79754W        W46537  12.241  29.289  12.891
79755W        W46538  44.195  40.284   4.053
79756W        W46539  15.793  40.464  12.361
79757W        W46540  22.718  39.437   1.185
79758W        W46541   6.288   8.278  14.283
79759W        W46542  35.626  37.085  11.436
79760W        W46543  24.909  25.093  10.755
79761W        W46544  15.424   5.888   1.189
79762W        W46545  35.957  40.731  13.402
79763W        W46546  22.702  20.229  14.307
79764W        W46547  21.796   0.598  12.673
79765W        W46548  18.179  31.897   4.573
79766W        W46549  15.380  29.162   0.886
79767W        W46550  39.289  20.509  14.337
79768W        W46551  13.768  11.158   3.206
79769W        W46552  16.857   9.798  11.323
79770W        W46553  30.149   4.247  13.091
79771W        W46554  43.708   4.971   9.771
79772W        W46555   8.411  11.146  14.415
79773W        W46556  13.148   5.992  13.213
79774W        W46557  29.071  41.552   4.266
79775W        W46558  27.032  17.152  10.772
79776W        W46559  35.918  32.646  14.567
79777W        W46560   0.350  24.471  12.991
79778W        W46561  22.744  42.311  10.622
79779W        W46562  17.180  26.576   4.204
79780W        W46563  38.633  32.287  10.706
79781W        W46564  13.592  15.132  12.653
79782W        W46565  27.670  12.618   1.792
79783W        W46566   4.596  41.260   3.546
79784W        W46567  21.603  31.027   3.665
79785W        W46568  36.345  31.509   1.344
79786W        W46569   9.167  42.419  10.928
79787W        W46570   3.820  38.546   3.704
79788W        W46571  21.525  22.135  10.906
79789W        W46572  32.184  27.594   0.054
79790W        W46573  30.310  35.301   2.487
79791W        W46574   2.951  24.383   0.343
79792W        W46575  16.985   4.862  10.892
79793W        W46576  39.581  16.713  11.549
79794W        W46577  11.884  11.166  12.618
79795W        W46578  22.598  16.063  11.843
79796W        W46579  34.641  37.941  14.380
79797W        W46580  24.998  43.269  12.208
79798W        W46581  19.663  23.155  13.554
79799W        W46582  44.413  12.730  11.874
79800W        W46583   9.450  30.043   3.265
79801W        W46584  31.736  42.912  14.286
79802W        W46585  30.359  20.065   4.004
79803W        W46586  35.642  21.549  13.884
79804W        W46587   6.087  40.262  14.008
79805W        W46588  15.734  29.598   4.397
79806W        W46589   8.310   8.680  10.934
79807W        W46590   1.661   5.228   1.000
79808W        W46591  19.724   5.578  10.958
79809W        W46592  12.790  13.143   2.849
79810W        W46593  15.072  23.677  11.647
79811W        W46594  22.802  31.012   2.255
79812W        W46595  24.461   2.745   0.273
79813W        W46596  11.740   5.793   1.861
79814W        W46597  21.701  18.138   0.568
79815W        W46598   1.484  13.344   3.523
79816W        W46599  16.341  15.906   4.568
79817W        W46600  38.257  38.343   2.960
79818W        W46601  32.382  26.551  12.427
79819W        W46602  12.778  17.771   3.672
79820W        W46603  29.944   8.996  13.406
79821W        W46604  28.971  17.241   1.837
79822W        W46605   3.378  24.475  12.011
79823W        W46606  23.390  21.366  14.409
79824W        W46607   1.012  26.562   1.749
79825W        W46608  25.906  32.202  11.516
79826W        W46609  34.448  41.517  14.150
79827W        W46610  21.503  19.630   0.319
79828W        W46611  17.043  22.726   2.680
79829W        W46612  13.906   9.512   1.967
79830W        W46613  32.603   4.080  13.964
79831W        W46614  33.989  16.331   1.303
79832W        W46615  24.233  34.594   2.106
79833W        W46616  25.079  14.613   1.981
79834W        W46617   9.261   5.183  13.763
79835W        W46618  27.026  35.750   2.824
79836W        W46619   6.136   0.897  13.827
79837W        W46620  21.172   2.930   2.821
79838W        W46621  28.216  13.864   0.610
79839W        W46622  13.552  17.281   1.723
79840W        W46623  17.569  18.112   0.919
79841W        W46624  42.003  17.291  14.870
79842W        W46625  21.291  32.454   2.767
79843W        W46626  30.656  20.124  11.319
79844W        W46627  30.416   7.364  11.098
79845W        W46628  32.967  43.284  12.530
79846W        W46629   2.769  24.781   2.387
79847W        W46630   6.442  40.918   4.089
79848W        W46631  21.738  16.380   2.307
79849W        W46632  38.035  34.862  14.071
79850W        W46633  14.252  35.813   3.713
79851W        W46634   9.758  30.402  14.928
79852W        W46635  24.022  44.275  11.071
79853W        W46636  33.131  21.052   3.673
79854W        W46637  34.160  17.622  13.310
79855W        W46638  30.921   8.180   3.105
79856W        W46639  28.390   9.813   4.835
79857W        W46640  15.530   7.629  11.662
79858W        W46641  44.473  35.944   2.736
79859W        W46642  36.803   5.233   0.946
79860W        W46643   4.789  30.769   0.388
79861W        W46644  10.399  32.046   4.465
79862W        W46645  15.343  34.492   4.673
79863W        W46646  33.682  42.604  13.907
79864W        W46647  36.718  30.382   5.112
79865W        W46648  39.736   9.293  13.305
79866W        W46649  24.653  32.901   0.337
79867W        W46650  27.914  34.886   2.318
79868W        W46651  29.151   3.230   4.560
79869W        W46652  38.227  19.494   1.597
79870W        W46653   8.430  14.283  10.657
79871W        W46654  35.999  11.666   3.589
79872W        W46655   9.640  29.179   3.601
79873W        W46656   5.656   4.065  11.103
79874W        W46657  14.320   9.311   1.281
79875W        W46658  34.898  43.435  13.698
79876W        W46659  34.041  40.858  11.435
79877W        W46660  31.365  22.618   0.368
79878W        W46661  22.599  21.813   2.388
79879W        W46662  17.993   7.593   3.154
79880W        W46663  26.862   0.423  11.030
79881W        W46664  44.297  38.063   1.651
79882W        W46665  25.428  20.691   3.294
79883W        W46666  40.425  41.700  10.249
79884W        W46667  27.561  36.319  12.361
79885W        W46668  23.233  22.307  12.575
79886W        W46669  23.505   0.871  14.467
79887W        W46670  22.047  43.412   0.658
79888W        W46671  22.991   3.388  14.262
79889W        W46672  16.557  44.752   3.092
79890W        W46673  26.869  19.643   4.525
79891W        W46674  26.701  29.013  11.130
79892W        W46675  24.815  20.490   2.760
79893W        W46676  18.188  16.080   1.526
79894W        W46677  32.245  33.172  10.093
79895W        W46678  23.492  41.015   1.880
79896W        W46679   0.376  17.072  14.324
79897W        W46680  39.822  35.312   1.815
79898W        W46681  13.560   3.352   4.117
79899W        W46682  21.687  28.109   0.008
79900W        W46683  15.115  34.466   3.681
79901W        W46684   9.705   8.060  13.625
79902W        W46685  32.347  21.037  14.808
79903W        W46686  28.246  28.723  12.986
79904W        W46687  25.043  24.165   4.791
79905W        W46688  15.272   1.206  13.884
79906W        W46689  26.766  20.559   2.883
79907W        W46690  12.850  28.646   0.834
79908W        W46691   3.941  37.794  13.349
79909W        W46692   4.284   9.486   2.224
79910W        W46693  24.112  34.994   1.725
79911W        W46694  32.970  44.445  13.509
79912W        W46695  33.043  18.975   2.240
79913W        W46696  39.679  29.787   4.583
79914W        W46697  12.877  41.445  10.640
79915W        W46698  12.283  19.057   1.856
79916W        W46699  24.210  28.673  13.048
79917W        W46700  43.862  14.950  11.686
79918W        W46701  21.996  23.262   4.533
79919W        W46702  38.531  38.699   2.653
79920W        W46703  13.298   4.423   3.264
79921W        W46704  26.563  13.377   1.501
79922W        W46705  22.694  36.906  12.608
79923W        W46706  34.275  43.482  14.985
79924W        W46707  35.292  14.347  11.968
79925W        W46708   9.414  13.699   5.001
79926W        W46709  36.551  43.952  10.766
79927W        W46710  13.908  12.202   4.515
79928W        W46711  18.916  38.478  14.377
79929W        W46712   5.170  10.728  13.553
79930W        W46713  10.894  22.176   3.275
79931W        W46714  15.646  16.249  13.674
79932W        W46715  17.272  38.210   3.237
79933W        W46716  34.158   4.376   1.638
79934W        W46717  11.310  39.138   4.908
79935W        W46718   8.808  19.078   1.045
79936W        W46719  29.448   0.739  14.457
79937W        W46720  22.130  19.195  13.659
79938W        W46721  25.322   9.638  13.953
79939W        W46722  16.662   5.530  12.151
79940W        W46723  27.100  13.198  13.963
79941W        W46724   4.254  15.145   4.117
79942W        W46725  13.282  16.733  10.641
79943W        W46726  10.952  39.822  10.497
79944W        W46727   0.434  42.449  10.660
79945W        W46728  42.786  15.151  11.864
79946W        W46729  37.254  41.900   4.714
79947W        W46730  18.587   6.161  10.983
79948W        W46731  24.144   9.618  14.501
79949W        W46732  12.178  34.821   1.722
79950W        W46733   0.910   4.429  12.408
79951W        W46734  27.360   8.641  11.008
79952W        W46735  17.225  28.146  11.486
79953W        W46736  43.787  43.083  12.127
79954W        W46737  42.320  32.218   1.128
79955W        W46738  11.055   5.745   9.827
79956W        W46739  15.065   0.640   4.994
79957W        W46740  36.324  14.165  14.812
79958W        W46741  37.151  12.836   0.002
79959W        W46742  33.240  44.790  13.066
79960W        W46743   0.570  10.650  13.651
79961W        W46744  21.898  42.269   2.294
79962W        W46745  35.458   7.882   2.733
79963W        W46746  33.315   8.040  10.304
79964W        W46747  35.939  23.589  13.425
79965W        W46748   5.945   6.439  12.076
79966W        W46749  14.048  35.700  13.411
79967W        W46750  35.583  25.955  13.922
79968W        W46751  15.845  13.405   1.057
79969W        W46752  37.930  39.155  12.605
79970W        W46753  31.447  29.147   3.116
79971W        W46754  41.044  19.326   3.098
79972W        W46755   1.188  35.353   2.400
79973W        W46756  33.120  10.178  12.652
79974W        W46757   7.802  23.210  11.151
79975W        W46758  20.494  38.281   1.295
79976W        W46759   7.147  41.828   1.825
79977W        W46760  26.642  39.705  13.606
79978W        W46761  25.215   4.430   1.398
79979W        W46762   5.670  25.899  10.775
79980W        W46763  22.572  11.357   3.801
79981W        W46764  17.391  35.064   0.110
79982W        W46765  44.681  40.820  14.456
79983W        W46766  10.084  26.798   3.209
79984W        W46767  18.547  33.571   2.614
79985W        W46768  27.859  42.665   0.756
79986W        W46769   5.924   0.449   3.694
79987W        W46770  32.110   3.168  13.479
79988W        W46771   7.825  34.513   1.058
79989W        W46772  29.894  25.346   4.314
79990W        W46773  29.175  39.769   5.017
79991W        W46774   3.717   4.776  14.216
79992W        W46775  40.276  15.897  13.694
79993W        W46776   8.734  17.705  12.389
79994W        W46777  32.429  14.376  13.858
79995W        W46778  37.587  35.543  11.500
79996W        W46779  19.674  37.358  12.562
79997W        W46780  40.610  24.543   4.670
79998W        W46781  31.350  37.056  12.522
79999W        W46782   3.476  25.194   4.981
80000W        W46783  13.088  15.002  12.034
80001W        W46784  20.537  26.629  13.119
80002W        W46785  26.097  20.148   0.665
80003W        W46786   1.510  26.452   3.144
80004W        W46787  15.670  28.563  12.537
80005W        W46788  12.368  42.306   1.676
80006W        W46789  20.928  14.981   5.485
80007W        W46790  25.659   3.197   1.578
80008W        W46791  43.865  32.223  12.227
80009W        W46792   2.691  43.071  13.018
80010W        W46793  35.392  44.765  11.680
80011W        W46794  19.361  26.575   1.201
80012W        W46795  27.541  14.632   1.404
80013W        W46796   1.344  37.337   1.674
80014W        W46797  40.757  18.805  11.596
80015W        W46798  32.337  40.878  11.058
80016W        W46799   8.863  39.121  14.684
80017W        W46800   5.747  20.278   2.690
80018W        W46801  20.722  15.527   1.370
80019W        W46802  10.717  22.266  10.605
80020W        W46803   5.333  33.164  11.466
80021W        W46804   6.536  21.050  13.542
80022W        W46805   1.697   7.732   2.296
80023W        W46806   1.797  27.035  12.166
80024W        W46807  36.175  21.178   1.756
80025W        W46808  25.937  36.423  12.981
80026W        W46809  11.208  35.616  12.603
80027W        W46810   7.929  42.091  11.116
80028W        W46811  42.537  41.402   0.802
80029W        W46812   4.485  32.002  12.003
80030W        W46813  26.271  15.176  13.022
80031W        W46814  23.637  38.901  14.771
80032W        W46815   5.219   2.732   3.663
80033W        W46816  15.863  32.559   2.622
80034W        W46817  44.305  44.858   0.215
80035W        W46818  35.888  40.285   2.340
80036W        W46819  17.247  12.222   2.308
80037W        W46820   1.854  44.308  10.535
80038W        W46821   6.583   0.908   5.040
80039W        W46822  42.481  41.547   1.761
80040W        W46823   1.346  11.100   4.711
80041W        W46824  21.602  16.099   4.396
80042W        W46825  44.975  26.108   2.525
80043W        W46826  12.336  29.515  14.239
80044W        W46827  31.762  33.395  11.571
80045W        W46828  25.233  18.148   0.323
80046W        W46829  35.368  37.272  13.844
80047W        W46830  30.427  35.782   2.344
80048W        W46831  14.623  14.552   2.255
80049W        W46832  36.505   9.298  14.437
80050W        W46833  30.484  29.410   0.343
80051W        W46834  14.702  21.321   1.803
80052W        W46835  36.570  23.242   1.689
80053W        W46836  39.898  12.702  10.956
80054W        W46837  32.053  12.874  11.213
80055W        W46838  35.408   0.768   3.856
80056W        W46839  14.818  40.158  11.327
80057W        W46840   4.435  25.625  13.322
80058W        W46841   5.213  35.106   0.723
80059W        W46842  25.483  35.092   2.418
80060W        W46843   5.619  35.159   0.378
80061W        W46844  26.574   5.696  13.033
80062W        W46845   6.750   8.642  12.020
80063W        W46846   6.625   9.261  13.577
80064W        W46847  26.998  17.633  10.574
80065W        W46848  34.148   7.177  12.928
80066W        W46849  37.514  21.979  13.488
80067W        W46850  35.282   8.738  10.782
80068W        W46851  43.480  33.469  14.898
80069W        W46852  20.152  44.994   0.481
80070W        W46853  25.771   8.281   2.996
80071W        W46854  26.180  22.126   3.920
80072W        W46855  37.557  10.762   0.065
80073W        W46856  13.243  21.144   0.026
80074W        W46857  25.743  33.625   1.839
80075W        W46858  21.366  26.749   1.297
80076W        W46859  37.811  12.304   0.269
80077W        W46860  17.533  38.865  13.379
80078W        W46861  14.866  34.918   3.789
80079W        W46862  18.099  40.419  14.963
80080W        W46863  19.688  43.171  14.371
80081W        W46864  37.483  41.794   1.463
80082W        W46865   2.269  15.853  11.153
80083W        W46866  37.869  23.582  13.084
80084W        W46867  41.381  39.650  12.105
80085W        W46868  42.419  36.827  10.701
80086W        W46869  35.416  26.839   0.299
80087W        W46870  29.136  10.191   4.745
80088W        W46871  35.972  34.913   4.751
80089W        W46872  24.309  11.783  12.962
80090W        W46873  42.386  40.935   0.517
80091W        W46874  13.706   9.693   0.922
80092W        W46875   0.278  24.588  12.027
80093W        W46876  31.086  22.181   3.691
80094W        W46877  29.652  39.271   0.724
80095W        W46878  19.537  27.574   4.315
80096W        W46879  10.687  35.468   2.644
80097W        W46880  24.556  30.416  14.258
80098W        W46881   6.974  36.267   0.052
80099W        W46882   8.837  20.165   1.210
80100W        W46883   9.879  42.888   2.702
80101W        W46884  28.479   9.110   3.641
80102W        W46885  43.722   2.200   2.679
80103W        W46886   0.450  23.205   1.072
80104W        W46887  30.426  31.519  10.873
80105W        W46888  28.149   2.006  11.114
80106W        W46889  10.871  44.968  11.574
80107W        W46890  27.912   3.419   0.743
80108W        W46891  43.370  33.402   3.415
80109W        W46892   4.926   3.728   0.891
80110W        W46893  15.851   5.584  14.565
80111W        W46894  13.197  24.223   3.659
80112W        W46895  20.758  32.655  14.817
80113W        W46896  22.678   9.160   2.186
80114W        W46897  15.030  14.577  10.809
80115W        W46898  44.947  22.493  11.284
80116W        W46899  22.726   2.490  13.863
80117W        W46900  14.145  15.208  14.810
80118W        W46901   3.215   2.225   1.795
80119W        W46902  38.968  12.871   1.169
80120W        W46903  37.355  25.828   0.754
80121W        W46904   9.736  28.639  13.462
80122W        W46905   9.347  12.673   4.664
80123W        W46906   9.078  37.527  10.853
80124W        W46907   2.184  18.723   0.247
80125W        W46908  28.481  22.602   0.560
80126W        W46909  13.507  12.274  14.320
80127W        W46910  31.948  40.510   4.364
80128W        W46911  27.875  21.308   2.631
80129W        W46912  15.606   9.715  14.617
80130W        W46913  16.062  16.332   1.539
80131W        W46914   7.322  43.106  10.668
80132W        W46915  13.328  38.968  13.577
80133W        W46916  21.277  10.731  14.426
80134W        W46917  15.338  24.659  12.422
80135W        W46918  22.154   6.835  11.456
80136W        W46919  15.090   6.293   2.699
80137W        W46920  27.133  15.908   4.348
80138W        W46921   4.224  25.136  14.516
80139W        W46922   5.914  15.230   0.362
80140W        W46923  22.650  14.205   3.076
80141W        W46924  35.392  25.773  11.499
80142W        W46925  16.765  15.837   3.642
80143W        W46926  18.839  39.305   0.394
80144W        W46927  44.658  38.158  11.094
80145W        W46928  21.188  20.493   2.755
80146W        W46929  40.056  12.188  12.085
80147W        W46930  28.242  30.623  11.612
80148W        W46931  24.024  33.061   3.180
80149W        W46932  21.787  34.379   2.641
80150W        W46933  20.144  27.619   4.701
80151W        W46934  44.278  43.488   2.653
80152W        W46935   8.819   6.353  10.746
80153W        W46936   3.248  20.394  14.575
80154W        W46937  12.879   8.300   0.944
80155W        W46938   8.740  42.860  11.794
80156W        W46939  31.398  12.530  14.694
80157W        W46940   1.317  39.578  12.950
80158W        W46941  39.579  27.901   1.315
80159W        W46942  43.943  12.277   3.197
80160W        W46943  14.139   0.747   0.326
80161W        W46944  27.614  41.907  13.327
80162W        W46945  20.493  27.254   2.555
80163W        W46946  43.041  18.196  11.802
80164W        W46947  38.395  30.954  12.057
80165W        W46948  33.878  35.956   1.651
80166W        W46949   0.928  40.868  10.543
80167W        W46950  29.202   0.454  13.862
80168W        W46951  24.034   5.327  13.480
80169W        W46952  33.585  24.896   4.083
80170W        W46953  30.358   9.150  14.928
80171W        W46954   3.041  31.485  14.106
80172W        W46955  29.271  33.220  11.688
80173W        W46956  38.462  11.218   1.725
80174W        W46957  23.972  23.090   2.888
80175W        W46958  25.476   2.515  12.193
80176W        W46959  13.945  26.495  12.955
80177W        W46960  20.914   9.346   4.634
80178W        W46961  28.931  32.403  12.520
80179W        W46962   1.513   3.756  14.789
80180W        W46963  29.972  23.487  13.723
80181W        W46964  14.863  43.412  12.887
80182W        W46965   0.074   5.570  13.147
80183W        W46966  39.173  35.914   3.330
80184W        W46967   5.729  22.754   3.530
80185W        W46968   3.496  24.022   4.843
80186W        W46969  37.635  18.655  13.445
80187W        W46970  19.587  11.218   2.632
80188W        W46971   2.692  17.724   2.953
80189W        W46972  13.175  31.095   3.363
80190W        W46973  22.370  17.684   4.134
80191W        W46974   5.692   8.370   3.334
80192W        W46975  24.462  30.220   4.136
80193W        W46976  25.549  32.491   4.323
80194W        W46977  14.079   4.304   0.794
80195W        W46978  38.212  43.318   3.778
80196W        W46979  23.960  39.620  13.031
80197W        W46980   4.422  14.858   4.517
80198W        W46981  41.940   4.895   1.325
80199W        W46982  13.138   5.307   4.326
80200W        W46983  40.142  24.937  14.288
80201W        W46984  27.172  32.205   1.801
80202W        W46985  39.892  17.921   4.773
80203W        W46986  17.840  35.599  13.682
80204W        W46987   4.184  27.000   1.754
80205W        W46988   0.243   7.252   1.500
80206W        W46989  18.417  38.853  10.740
80207W        W46990  23.102   0.628  10.626
80208W        W46991  29.801  14.666  13.656
80209W        W46992  36.812  18.121  13.075
80210W        W46993  11.767  16.098   0.826
80211W        W46994  17.286  20.178   1.615
80212W        W46995   1.690   3.419   3.744
80213W        W46996  17.627  14.364   1.173
80214W        W46997   5.216  39.949   0.027
80215W        W46998  17.772  18.507   3.311
80216W        W46999  10.503   3.312   4.550
80217W        W47000   0.035  22.936  13.439
80218W        W47001  16.682  38.811   0.811
80219W        W47002   0.887   8.652  12.021
80220W        W47003   7.144   7.494  12.466
80221W        W47004  41.056   2.096   3.870
80222W        W47005  22.718   4.799  14.406
80223W        W47006  20.664  30.535   3.266
80224W        W47007   5.212   2.254  12.143
80225W        W47008  22.087  15.125   4.319
80226W        W47009  28.092  12.964   3.642
80227W        W47010  20.625  19.339   3.954
80228W        W47011  43.220  13.299   0.030
80229W        W47012  23.019   5.881  11.132
80230W        W47013  19.852  33.399   0.261
80231W        W47014  25.701  15.532  11.123
80232W        W47015  13.039  15.203   1.579
80233W        W47016  39.385  36.327   1.409
80234W        W47017  22.172  20.647   1.119
80235W        W47018  25.615   0.166   1.419
80236W        W47019  16.668  40.788  11.453
80237W        W47020  14.602  32.957   0.689
80238W        W47021   7.083  36.691  11.149
80239W        W47022  42.929  31.627  14.120
80240W        W47023  33.691  23.329   1.555
80241W        W47024  42.789   8.687   0.844
80242W        W47025   8.125   3.108   3.808
80243W        W47026   0.680   2.716  11.507
80244W        W47027  34.552  43.435  12.368
80245W        W47028  34.019  43.974   1.094
80246W        W47029  11.130  10.924  10.309
80247W        W47030  21.142  39.929   1.653
80248W        W47031  43.191  36.006   4.585
80249W        W47032  42.721  37.220   1.462
80250W        W47033  11.713  28.053  14.759
80251W        W47034  39.483  34.600  13.403
80252W        W47035  12.887  34.548   0.386
80253W        W47036  12.808  19.397  14.395
80254W        W47037   3.884  17.390  13.566
80255W        W47038  27.296  22.861  14.739
80256W        W47039   3.963  14.206  11.386
80257W        W47040  11.345  14.210  14.940
80258W        W47041  14.297  38.005   4.542
80259W        W47042   3.995  39.099  12.590
80260W        W47043  12.013  33.014  11.472
80261W        W47044  12.555  18.279  10.758
80262W        W47045   5.487  26.152  12.134
80263W        W47046  41.046  25.300   0.456
80264W        W47047  21.587  27.026  11.961
80265W        W47048  32.982  32.152   0.800
80266W        W47049  26.935   3.006  11.180
80267W        W47050  10.796  11.591  14.243
80268W        W47051  31.443   5.202  12.852
80269W        W47052  25.522  32.328  14.772
80270W        W47053   4.365  29.223   4.091
80271W        W47054   5.672   4.372  13.378
80272W        W47055  44.105   9.298  11.644
80273W        W47056  42.971  28.670  12.412
80274W        W47057  41.512  17.835   0.369
80275W        W47058   4.699  12.143   2.766
80276W        W47059  16.628  20.436   1.947
80277W        W47060  20.562  23.639   1.936
80278W        W47061  16.334  10.808   0.021
80279W        W47062   3.192  27.840  14.786
80280W        W47063  42.562  11.334   1.636
80281W        W47064  20.105  38.534   1.054
80282W        W47065  14.268  18.056  13.615
80283W        W47066  33.961  14.629  11.730
80284W        W47067  44.689  14.019   5.378
80285W        W47068   9.791  44.563   1.235
80286W        W47069  41.160   4.338   3.589
80287W        W47070  44.968  33.702   4.095
80288W        W47071   3.693  34.222   4.944
80289W        W47072  15.518  33.046   0.049
80290W        W47073   9.075   6.045   0.481
80291W        W47074  21.093  42.097  10.556
80292W        W47075  31.141  29.534   3.242
80293W        W47076  30.324  18.892   2.090
80294W        W47077  37.378  38.813  12.099
80295W        W47078  38.861   4.001  11.865
80296W        W47079  22.090  11.122   3.183
80297W        W47080  38.961  39.850   3.729
80298W        W47081  40.014   4.957  11.977
80299W        W47082  32.180  43.951  14.267
80300W        W47083  42.890  16.673  12.084
80301W        W47084  22.513  37.356   0.322
80302W        W47085  19.330  37.090   2.218
80303W        W47086  30.094  31.475  12.148
80304W        W47087   1.283  35.097   1.962
80305W        W47088  43.075   2.207   2.214
80306W        W47089  38.893  32.694  13.497
80307W        W47090  27.209  40.576  13.436
80308W        W47091  12.121  42.937   2.347
80309W        W47092   7.658   7.722   0.622
80310W        W47093   1.375  42.019   4.474
80311W        W47094   1.395  37.044  10.306
80312W        W47095  44.314  13.879   1.374
80313W        W47096  38.535  39.376   4.628
80314W        W47097  40.157   0.255  13.908
80315W        W47098  41.190  36.508   3.161
80316W        W47099  24.425  44.798  13.121
80317W        W47100  20.118  32.943   3.743
80318W        W47101  42.098  33.418  13.396
80319W        W47102   3.181   6.081   0.745
80320W        W47103   0.808   7.460   0.754
80321W        W47104   9.103  14.330  11.856
80322W        W47105   3.456   2.298   1.339
80323W        W47106  40.762  28.601   0.012
80324W        W47107  21.389  12.168  14.900
80325W        W47108   2.147  21.718   0.414
80326W        W47109  33.916  41.423   1.743
80327W        W47110  16.423  20.498   3.303
80328W        W47111  12.633  11.815   4.206
80329W        W47112  36.381   9.897   0.277
80330W        W47113   8.349  15.783   1.262
80331W        W47114  28.682  16.351   0.931
80332W        W47115  25.152  16.305   0.410
80333W        W47116   4.473   1.143   0.413
80334W        W47117  29.180   3.650   1.642
80335W        W47118   1.400  13.144  14.325
80336W        W47119   2.376   8.320   3.644
80337W        W47120  17.769  10.900   4.440
80338W        W47121  14.175  37.157  12.550
80339W        W47122  31.355  35.645   1.302
80340W        W47123  30.643   5.357   2.831
80341W        W47124  42.950  34.392   4.857
80342W        W47125  20.195   1.464  11.964
80343W        W47126  32.388  34.505  12.429
80344W        W47127   2.250  15.610  14.866
80345W        W47128  12.861  42.715   0.477
80346W        W47129  15.422  11.405  12.402
80347W        W47130  11.529  28.650   3.739
80348W        W47131  25.475  18.645   2.353
80349W        W47132  28.925   8.738   1.206
80350W        W47133   4.716  39.231   4.179
80351W        W47134  34.063  32.512  11.505
80352W        W47135  14.399  36.016   2.239
80353W        W47136   9.126  16.584  13.857
80354W        W47137  19.292   8.202  13.337
80355W        W47138   8.132   0.771   2.858
80356W        W47139  20.225  27.113   3.817
80357W        W47140   0.884   5.784   1.422
80358W        W47141  44.831  31.412  12.976
80359W        W47142  41.552  32.605   2.033
80360W        W47143  37.033  11.393   1.420
80361W        W47144  20.226  44.354  12.770
80362W        W47145  10.532  12.080  11.166
80363W        W47146  42.747   4.347   0.448
80364W        W47147  24.829  15.075   1.861
80365W        W47148  19.145   8.945  11.574
80366W        W47149  14.754  25.582  11.137
80367W        W47150  20.642  36.119  14.693
80368W        W47151  44.961  37.308   2.869
80369W        W47152  25.133  13.062   1.327
80370W        W47153   4.954  20.550   0.013
80371W        W47154  33.469   1.262   1.397
80372W        W47155  44.808   0.400   2.767
80373W        W47156  18.221  17.017  11.411
80374W        W47157  34.832  21.669  14.237
80375W        W47158  12.829   1.674   3.697
80376W        W47159  18.172  18.648   1.702
80377W        W47160  29.626  29.929  14.336
80378W        W47161  27.660  39.525  10.772
80379W        W47162  14.117  27.749   4.183
80380W        W47163  32.422   8.125  11.540
80381W        W47164  23.779  28.059   4.546
80382W        W47165  36.652  10.143  14.070
80383W        W47166  28.556   6.159  14.402
80384W        W47167  23.107  37.264  13.474
80385W        W47168  44.461   5.748   4.783
80386W        W47169  12.133  10.751  10.701
80387W        W47170  39.567  29.196   3.368
80388W        W47171  40.134  36.177   4.991
80389W        W47172   1.571  21.458  14.358
80390W        W47173  31.448  25.996   3.244
80391W        W47174   1.522  12.779   1.242
80392W        W47175  33.304  14.103   4.551
80393W        W47176  26.781   2.257  10.681
80394W        W47177   7.593  43.815  13.382
80395W        W47178   2.418  28.257   4.221
80396W        W47179   4.958  36.896  12.586
80397W        W47180  24.535  16.664   3.540
80398W        W47181  24.237  29.057   3.150
80399W        W47182  31.570  18.744   0.020
80400W        W47183   5.161  24.720   2.384
80401W        W47184   6.306  19.848   3.434
80402W        W47185  31.565  39.940  11.472
80403W        W47186  16.321  33.618  14.857
80404W        W47187  39.179  26.949   3.429
80405W        W47188  31.688   1.402   4.305
80406W        W47189  33.013  32.427   0.350
80407W        W47190  32.807  24.136   4.958
80408W        W47191  15.518  15.726  11.158
80409W        W47192  43.770  11.296   2.184
80410W        W47193   8.276  39.534   5.085
80411W        W47194  30.087  37.358   0.193
80412W        W47195  26.095  16.214  11.638
80413W        W47196  10.215  23.811   4.627
80414W        W47197  34.084  28.436  11.195
80415W        W47198  23.491  34.923  14.522
80416W        W47199  43.860  35.315  10.733
80417W        W47200   6.367  26.412   2.704
80418W        W47201   2.159  30.164   1.363
80419W        W47202  14.219  22.004  13.877
80420W        W47203   7.195  18.511  12.748
80421W        W47204  38.324  43.905  11.331
80422W        W47205  18.551   0.330  11.977
80423W        W47206  34.577  15.331   4.917
80424W        W47207  26.083  18.932   2.778
80425W        W47208  36.293  30.442   3.089
80426W        W47209   9.325  25.195  13.870
80427W        W47210  20.746  24.457  12.949
80428W        W47211  43.210  31.078   0.107
80429W        W47212  19.557  44.228   1.041
80430W        W47213  17.095  28.521  11.830
80431W        W47214   1.376   4.364   1.227
80432W        W47215   5.366  21.606  12.545
80433W        W47216   6.243   6.920  10.711
80434W        W47217  13.992   7.296   3.149
80435W        W47218  19.240   9.582   0.279
80436W        W47219  25.519  41.787  12.463
80437W        W47220  17.056  20.137   4.030
80438W        W47221  23.620  32.190   3.880
80439W        W47222  12.696  22.944  12.267
80440W        W47223  28.256  18.621  14.065
80441W        W47224  30.127  42.411  14.798
80442W        W47225  43.988  12.119   1.669
80443W        W47226  31.846  31.005   2.703
80444W        W47227  20.010  27.178   2.271
80445W        W47228   7.782   5.928  14.994
80446W        W47229  11.245  41.495   1.740
80447W        W47230   1.056   2.225   3.223
80448W        W47231  32.500  39.519  12.007
80449W        W47232  32.640  17.321  10.353
80450W        W47233  32.613  42.904   0.156
80451W        W47234  44.272  29.530   4.742
80452W        W47235  40.528  18.610   2.311
80453W        W47236  14.932  13.670  12.948
80454W        W47237   6.332  43.302   4.260
80455W        W47238  14.154   4.665  13.464
80456W        W47239  31.356  12.753  11.839
80457W        W47240  13.367  30.599   1.716
80458W        W47241  36.419  43.127  14.789
80459W        W47242  19.814  35.590  14.388
80460W        W47243  31.097  44.441   4.537
80461W        W47244   2.441   4.755   3.686
80462W        W47245  16.351  28.309  12.072
80463W        W47246  11.331  11.215   3.197
80464W        W47247  38.874  23.480  14.349
80465W        W47248  19.964   2.194  10.648
80466W        W47249  26.557  32.771  10.284
80467W        W47250  21.212   7.607  10.756
80468W        W47251  32.681   1.457   3.130
80469W        W47252   5.413   8.333  12.729
80470W        W47253   6.682   7.889  11.572
80471W        W47254  33.890  35.830  11.238
80472W        W47255  35.826  38.766   4.493
80473W        W47256   0.333   9.593   4.127
80474W        W47257  28.937  28.245   4.799
80475W        W47258  10.244  13.319  11.018
80476W        W47259  36.900  42.318   4.190
80477W        W47260  39.839   6.597  10.908
80478W        W47261  27.675  31.357   3.807
80479W        W47262   9.525  22.525   3.327
80480W        W47263  34.538  20.518  13.556
80481W        W47264  26.528   0.275   2.016
80482W        W47265   4.350  38.210   2.434
80483W        W47266  29.027  40.493  11.614
80484W        W47267  20.773  20.554   4.338
80485W        W47268  42.705  16.424   4.234
80486W        W47269  25.332  31.205   1.801
80487W        W47270  35.867  34.762  12.493
80488W        W47271  31.139  18.891  10.227
80489W        W47272  40.032  30.846  11.975
80490W        W47273  10.928  44.324   2.434
80491W        W47274  19.953  41.687  12.890
80492W        W47275  29.755  37.859  12.595
80493W        W47276  19.522  42.903  12.574
80494W        W47277  36.839  21.176   2.449
80495W        W47278  20.129   4.991  12.134
80496W        W47279   0.322  24.433  11.545
80497W        W47280  30.421   2.220  12.438
80498W        W47281   8.229  12.907  14.025
80499W        W47282   4.190  44.228  12.423
80500W        W47283  33.962   9.240  10.872
80501W        W47284  42.089  37.646   1.863
80502W        W47285   6.324   5.507  11.863
80503W        W47286  38.071  15.131   0.064
80504W        W47287   6.331  17.221   0.188
80505W        W47288  28.528  25.348  11.400
80506W        W47289  34.671   8.726   0.997
80507W        W47290  44.713  16.761   0.036
80508W        W47291  29.844  11.895  11.186
80509W        W47292  35.172  22.682   1.690
80510W        W47293  44.248   6.641  14.049
80511W        W47294  37.644  23.628   0.786
80512W        W47295   8.580   0.073  13.846
80513W        W47296  16.055  20.566   1.376
80514W        W47297  11.737  42.451  11.472
80515W        W47298   2.961  43.836  11.655
80516W        W47299   0.945  35.848  11.604
80517W        W47300  28.652  27.270   1.441
80518W        W47301  31.199  26.020   3.702
80519W        W47302   3.864  40.770   1.248
80520W        W47303  40.743  42.861   1.907
80521W        W47304  23.991  37.935   1.795
80522W        W47305  20.493  26.242  12.343
80523W        W47306  27.446   4.721  13.495
80524W        W47307   2.321   5.428  13.109
80525W        W47308   5.448  15.220  11.580
80526W        W47309  42.185  30.285  13.992
80527W        W47310  41.343  15.646   3.935
80528W        W47311  40.471  37.852  11.616
80529W        W47312  12.126  35.550   4.735
80530W        W47313  35.134  35.451   3.360
80531W        W47314  40.493   6.638  11.401
80532W        W47315  38.612  35.055   3.237
80533W        W47316  34.156  11.250  11.485
80534W        W47317  31.564   6.409   4.631
80535W        W47318  39.480  16.797  12.483
80536W        W47319  35.573  24.983   0.487
80537W        W47320  38.901   4.341   2.444
80538W        W47321  15.657  28.488  14.509
80539W        W47322  39.755   4.718   2.770
80540W        W47323  13.796  34.383  12.001
80541W        W47324  36.604  37.888   0.251
80542W        W47325  33.867  14.678   2.849
80543W        W47326  40.611  24.248   1.901
80544W        W47327  26.107  41.381  14.920
80545W        W47328  13.027  26.555   3.903
80546W        W47329   3.453  14.216  11.493
80547W        W47330  31.511  36.527   4.705
80548W        W47331  29.267  20.215  11.464
80549W        W47332  36.307   6.415  12.064
80550W        W47333  19.320  13.158   2.312
80551W        W47334  25.048  36.599   0.226
80552W        W47335   8.754  37.759   4.611
80553W        W47336  34.470  41.227   1.844
80554W        W47337  35.707  22.067   4.597
80555W        W47338   9.092  19.525  13.305
80556W        W47339  25.233  38.150  11.212
80557W        W47340  12.716   7.823   0.761
80558W        W47341  38.999  10.311   3.610
80559W        W47342  15.243  38.299  11.745
80560W        W47343  40.570  37.619  13.905
80561W        W47344  23.625  24.160   2.801
80562W        W47345  16.641  44.451  12.527
80563W        W47346  26.751  23.630   1.099
80564W        W47347  41.864  39.963  11.083
80565W        W47348  13.120  29.110   3.591
80566W        W47349  22.060  20.451   3.637
80567W        W47350  18.827  13.714   2.816
80568W        W47351  22.958  31.804   2.725
80569W        W47352  25.446  39.497   2.168
80570W        W47353  35.763   3.942  12.658
80571W        W47354  26.999   3.642   4.746
80572W        W47355   0.929  34.464  13.579
80573W        W47356  14.304  17.370  11.152
80574W        W47357  24.735   2.529  14.883
80575W        W47358  12.875  22.755   0.369
80576W        W47359  29.694   2.264   1.402
80577W        W47360  28.193  19.076  14.883
80578W        W47361  24.257   1.969  12.907
80579W        W47362   9.694  17.311   0.709
80580W        W47363  33.483  19.985  12.214
80581W        W47364  33.418  20.150   2.460
80582W        W47365  28.006  23.145  11.234
80583W        W47366  26.555  36.129   0.654
80584W        W47367  22.663  19.226  11.621
80585W        W47368   0.840  14.053   0.899
80586W        W47369  17.253  30.549  13.068
80587W        W47370   6.105  42.840   3.285
80588W        W47371   4.336  33.068  14.361
80589W        W47372  26.001  19.557   3.987
80590W        W47373  31.586  18.416   1.391
80591W        W47374  43.067  20.010   1.844
80592W        W47375  23.431   8.952   4.575
80593W        W47376   2.231  11.576  11.086
80594W        W47377  23.154  40.414   2.464
80595W        W47378  21.552  35.094   2.279
80596W        W47379   5.744  40.105  12.005
80597W        W47380  12.680  10.311  12.449
80598W        W47381  26.923  36.559   0.707
80599W        W47382   4.347   0.577   1.279
80600W        W47383  31.220   3.714  11.185
80601W        W47384  34.802  22.132   0.954
80602W        W47385  25.490  20.033   0.306
80603W        W47386  16.544  40.356  13.771
80604W        W47387   0.058   3.336  14.548
80605W        W47388  25.588  28.394  10.558
80606W        W47389  38.832  12.658   0.669
80607W        W47390   3.931   6.725   3.889
80608W        W47391  42.849   2.456   3.560
80609W        W47392  12.103  20.531  11.885
80610W        W47393  41.943   1.268  13.455
80611W        W47394  29.182  25.221  11.158
80612W        W47395  28.044  26.556  12.820
80613W        W47396  44.153  13.149  12.082
80614W        W47397  37.979  21.389   0.169
80615W        W47398  39.376  16.354  11.239
80616W        W47399  23.614  24.368   3.549
80617W        W47400   6.672   9.943   2.179
80618W        W47401   7.294  33.597   4.427
80619W        W47402  21.530  27.563  10.799
80620W        W47403   8.377  36.541  14.332
80621W        W47404   3.233   8.842  13.999
80622W        W47405  12.169   0.338  14.405
80623W        W47406   3.581  16.688  11.664
80624W        W47407  24.650  29.133  11.412
80625W        W47408  29.186  33.710  11.568
80626W        W47409  16.480  35.807  14.100
80627W        W47410  31.373  44.165   1.409
80628W        W47411  42.402   0.036   2.884
80629W        W47412  21.656  20.268  13.514
80630W        W47413  29.428  25.038  11.575
80631W        W47414  42.923   6.861  12.026
80632W        W47415  43.252  43.468   0.945
80633W        W47416  23.716  40.136   3.498
80634W        W47417   4.768  31.932  11.561
80635W        W47418  39.098  27.709   4.262
80636W        W47419   1.285  23.660  10.920
80637W        W47420  43.383  44.627  12.857
80638W        W47421  20.698  43.474  14.113
80639W        W47422  24.623  11.776   2.701
80640W        W47423   2.207  28.543  11.418
80641W        W47424   2.232  42.517   1.126
80642W        W47425  31.126  44.874   4.243
80643W        W47426   6.987  35.734   1.719
80644W        W47427  42.413  39.800  14.703
80645W        W47428  23.637  30.334   1.971
80646W        W47429  41.855   5.163  13.626
80647W        W47430   1.844  23.104   4.740
80648W        W47431  25.481  25.016  12.985
80649W        W47432   9.250  42.953  11.656
80650W        W47433  12.160  10.368  12.470
80651W        W47434  24.592  15.949   1.751
80652W        W47435   1.726  35.375  14.454
80653W        W47436   1.550  37.535   3.745
80654W        W47437  30.015   2.004  10.744
80655W        W47438  36.833  15.715   2.031
80656W        W47439   3.152   4.841  13.288
80657W        W47440  25.958  36.930  11.191
80658W        W47441  10.111  27.514  13.666
80659W        W47442  24.897   8.724  12.119
80660W        W47443   8.561  18.238   4.051
80661W        W47444  20.070  27.620   1.716
80662W        W47445  25.757  37.525   0.352
80663W        W47446  44.092  38.696  10.434
80664W        W47447  31.070   0.245  13.968
80665W        W47448  28.414  40.341  14.828
80666W        W47449  17.729   4.068  14.393
80667W        W47450   2.977   2.543  12.902
80668W        W47451  36.999  23.753   1.960
80669W        W47452   6.239  15.683   4.471
80670W        W47453  37.416  22.011  14.910
80671W        W47454  30.656  23.838   3.467
80672W        W47455  14.847  43.860  13.448
80673W        W47456  39.606  19.744  11.195
80674W        W47457  25.069  40.462  12.368
80675W        W47458  34.937  10.855  14.872
80676W        W47459  40.866  24.521  11.672
80677W        W47460  39.555   5.817   3.149
80678W        W47461   7.781   7.523   4.266
80679W        W47462  17.208  36.308  10.677
80680W        W47463   6.898   4.317   3.598
80681W        W47464   4.893  27.599   0.926
80682W        W47465  10.790  31.045  10.718
80683W        W47466  37.489  36.103  10.812
80684W        W47467  34.296   8.168  11.617
80685W        W47468  10.346  37.327  11.557
80686W        W47469  35.193   2.192   0.878
80687W        W47470  14.839  41.786   0.761
80688W        W47471   1.816  37.757  13.122
80689W        W47472  40.821   1.088  11.030
80690W        W47473  10.703  17.326  14.965
80691W        W47474  22.563  40.309   3.097
80692W        W47475  34.777  13.179   1.632
80693W        W47476  19.586  40.454   3.578
80694W        W47477  43.354  38.524   2.362
80695W        W47478  17.991   2.240  14.891
80696W        W47479  17.101   5.989   0.187
80697W        W47480  44.753  13.969   3.155
80698W        W47481  19.695  44.700   0.377
80699W        W47482  25.540  34.181   1.433
80700W        W47483  15.722   3.191  14.507
80701W        W47484  16.094   4.174  11.606
80702W        W47485  26.514  41.752  12.447
80703W        W47486  20.906  19.554  12.066
80704W        W47487  30.164  28.578  14.452
80705W        W47488  41.982  36.170  13.388
80706W        W47489   9.089  22.239  12.899
80707W        W47490  31.685  29.016  13.478
80708W        W47491   2.864  24.581  11.170
80709W        W47492  36.647  15.161  13.947
80710W        W47493  21.942  28.868   1.852
80711W        W47494   7.383  20.671  13.150
80712W        W47495  35.982  22.231   2.467
80713W        W47496   0.892  31.630   2.820
80714W        W47497  35.000  25.488  11.618
80715W        W47498  22.323  18.205   1.018
80716W        W47499  24.890  14.219  11.062
80717W        W47500  25.949  17.849  12.552
80718W        W47501  18.670  44.065   5.205
80719W        W47502  28.454  10.340  13.096
80720W        W47503  35.497  12.777  11.802
80721W        W47504  12.158  25.968   4.649
80722W        W47505  43.838   5.915  10.674
80723W        W47506  39.190   8.872  10.825
80724W        W47507  20.736  30.888  13.076
80725W        W47508  19.019  43.847  12.469
80726W        W47509  30.682  10.316  11.818
80727W        W47510  38.612  27.263   0.778
80728W        W47511  21.609  10.719  13.357
80729W        W47512  21.015  13.552  14.621
80730W        W47513  18.546   0.525  12.438
80731W        W47514  19.047  14.270   3.786
80732W        W47515  29.420  40.850  14.832
80733W        W47516  31.165  10.497  11.977
80734W        W47517  29.039  28.115   1.179
80735W        W47518  16.988  38.168   1.827
80736W        W47519  34.811  33.021  12.865
80737W        W47520  24.564  29.903  10.657
80738W        W47521  25.603  27.508  11.618
80739W        W47522   2.777   1.018  11.102
80740W        W47523  43.969  33.167  12.175
80741W        W47524   3.278   8.362   4.225
80742W        W47525  24.943  43.011  13.115
80743W        W47526  11.663  16.312   2.265
80744W        W47527  43.213  30.633   3.127
80745W        W47528  35.700   1.874   1.206
80746W        W47529  34.465  32.827   4.487
80747W        W47530  18.145  22.225   0.201
80748W        W47531  32.046  37.542   0.359
80749W        W47532  14.176   5.841  12.929
80750W        W47533   2.089  42.841   1.528
80751W        W47534  38.415   1.885  12.136
80752W        W47535  11.767  13.162  11.144
80753W        W47536   8.136   9.364   4.426
80754W        W47537  18.083  30.578   2.338
80755W        W47538  25.461   7.504  10.285
80756W        W47539  23.642  14.622   4.122
80757W        W47540  18.756  24.649   2.875
80758W        W47541  16.408  43.797  14.287
80759W        W47542  36.390  15.298   3.440
80760W        W47543  14.071  30.339   2.860
80761W        W47544   2.880  21.848   4.947
80762W        W47545  15.032  40.471   0.550
80763W        W47546  37.807   2.255  10.775
80764W        W47547  35.674  18.294  10.048
80765W        W47548  40.083   4.972   2.275
80766W        W47549  30.428  11.247   3.634
80767W        W47550   9.380   3.865  10.949
80768W        W47551  11.770  10.215   3.552
80769W        W47552   0.881   3.456   4.156
80770W        W47553   6.328  44.421  12.378
80771W        W47554  11.374  21.113  12.168
80772W        W47555  40.291  11.732  12.116
80773W        W47556  29.233   5.709  11.632
80774W        W47557  35.913  31.219  14.677
80775W        W47558  35.093   8.790   3.633
80776W        W47559  23.094  13.362   4.305
80777W        W47560  11.110  31.529   2.853
80778W        W47561  23.499   9.973   3.770
80779W        W47562  30.431   9.966  14.541
80780W        W47563  32.701   1.112   1.793
80781W        W47564  21.571  18.622   1.300
80782W        W47565  22.489  29.102  11.992
80783W        W47566  19.359  10.276   1.917
80784W        W47567   8.783   7.345   1.531
80785W        W47568  20.270  17.520   3.288
80786W        W47569  35.868  18.626  11.015
80787W        W47570   9.081  16.960  11.510
80788W        W47571  14.877   5.401   2.330
80789W        W47572  34.903  20.773   2.882
80790W        W47573  20.490  16.202   0.435
80791W        W47574  11.209  12.141  11.738
80792W        W47575   0.681  17.517  13.244
80793W        W47576  31.609  29.079   2.633
80794W        W47577   6.380  21.323  13.977
80795W        W47578  42.557   6.248   3.170
80796W        W47579   8.012  15.095   4.715
80797W        W47580  12.840  24.096  13.066
80798W        W47581  11.733  35.916   3.373
80799W        W47582  33.712   1.846   1.376
80800W        W47583  43.321  22.407  11.630
80801W        W47584  43.399   5.910  11.932
80802W        W47585  12.036  17.013  10.814
80803W        W47586  40.888   2.350  14.865
80804W        W47587  40.895  44.392  12.553
80805W        W47588  30.080  20.851  14.478
80806W        W47589  12.694   1.474  14.037
80807W        W47590  29.801   1.023   1.627
80808W        W47591   8.633   2.207   0.484
80809W        W47592  24.595   0.063   3.116
80810W        W47593  36.734  14.840   1.269
80811W        W47594  37.865  37.786  10.497
80812W        W47595  17.751   7.689  11.059
80813W        W47596   2.236  23.489  14.989
80814W        W47597  10.514  22.656  11.656
80815W        W47598  27.737  22.038   0.819
80816W        W47599  19.672  32.661  12.414
80817W        W47600  40.598  25.260   0.724
80818W        W47601  35.143   8.327   1.733
80819W        W47602  23.878  20.164  13.771
80820W        W47603  21.416  19.185  10.709
80821W        W47604  39.674  34.893  12.454
80822W        W47605  20.128  19.138  12.977
80823W        W47606  18.045  40.276  12.601
80824W        W47607  11.733  22.744   4.833
80825W        W47608  19.128  23.596   0.313
80826W        W47609  14.636   9.149  10.218
80827W        W47610  13.954  35.208   0.627
80828W        W47611   8.745   5.275  11.677
80829W        W47612   6.664  38.292   1.506
80830W        W47613  40.875  12.701   2.776
80831W        W47614  26.379  12.339  12.176
80832W        W47615   9.816  16.315  11.846
80833W        W47616  25.434  10.836   1.505
80834W        W47617  42.441  38.103   1.363
80835W        W47618   8.640  15.083  11.108
80836W        W47619   7.875  16.590  13.432
80837W        W47620  40.638   8.711   9.615
80838W        W47621  43.292  12.923  13.714
80839W        W47622  36.074   1.436   1.286
80840W        W47623   5.358  39.729   1.754
80841W        W47624  33.129  31.804  12.090
80842W        W47625  24.171  34.141   4.483
80843W        W47626  13.028  40.001  12.318
80844W        W47627   9.804  25.173  14.088
80845W        W47628   8.397  34.596  12.941
80846W        W47629  44.562  24.056   4.247
80847W        W47630  12.399  25.506   1.463
80848W        W47631   0.879   5.845   1.948
80849W        W47632  22.535  14.394   4.609
80850W        W47633  16.004  25.602  14.996
80851W        W47634  21.128  42.454   4.829
80852W        W47635   1.679  22.065  12.997
80853W        W47636  19.685   8.977  11.588
80854W        W47637   1.968  24.162  14.586
80855W        W47638   4.674  21.733  11.551
80856W        W47639  13.716  31.076  10.749
80857W        W47640  42.775   0.310  14.697
80858W        W47641  16.727  34.330   3.223
80859W        W47642  21.641   4.164   1.055
80860W        W47643   7.392  29.312   4.529
80861W        W47644  14.630  32.948  14.839
80862W        W47645  16.210  36.743   3.123
80863W        W47646  10.670  32.441   1.321
80864W        W47647  40.774  32.810   1.739
80865W        W47648  20.297  29.459   4.570
80866W        W47649  16.512  16.853   3.549
80867W        W47650  32.914  21.511   1.931
80868W        W47651  24.695   7.407  14.975
80869W        W47652  10.311  17.965   3.733
80870W        W47653  22.021   1.324   0.815
80871W        W47654  36.874  39.996   0.480
80872W        W47655   4.647   2.290   2.190
80873W        W47656  22.946  13.113   2.607
80874W        W47657  26.669  12.090  12.518
80875W        W47658  41.492  16.543  12.882
80876W        W47659  14.790  20.426   0.493
80877W        W47660  25.975  34.224   3.085
80878W        W47661  16.777  22.070  13.094
80879W        W47662  32.538  17.500   2.717
80880W        W47663  32.610  24.140   4.482
80881W        W47664  25.838  27.582  14.786
80882W        W47665   0.011  14.132   0.326
80883W        W47666  17.653   1.174   0.332
80884W        W47667   3.851   1.259  14.507
80885W        W47668  11.099  37.401   0.012
80886W        W47669  28.067  21.006  11.986
80887W        W47670   5.142  44.441   2.667
80888W        W47671  36.644  25.179  14.808
80889W        W47672   3.691  10.205  14.671
80890W        W47673   5.453  36.152   4.496
80891W        W47674  20.690   9.834   4.637
80892W        W47675   0.925   3.259   1.995
80893W        W47676  36.930   4.466  14.435
80894W        W47677  18.473  14.536   4.487
80895W        W47678  11.339  11.316   0.655
80896W        W47679   9.447  28.074   1.348
80897W        W47680  28.911   5.657  12.018
80898W        W47681  15.750  20.495  11.938
80899W        W47682  14.664  40.769   3.302
80900W        W47683  32.372  33.412   2.256
80901W        W47684  28.747  36.990  13.075
80902W        W47685  24.620  34.589  12.537
80903W        W47686  26.149  34.524  13.461
80904W        W47687   1.266  19.604   1.914
80905W        W47688  20.781  40.095  10.150
80906W        W47689  38.114  26.135   4.723
80907W        W47690  35.869  11.878   4.025
80908W        W47691  12.658   5.469  14.875
80909W        W47692   9.408  41.314  13.792
80910W        W47693  27.657  15.230   2.272
80911W        W47694  13.341  19.231  13.343
80912W        W47695   4.804  20.534   0.936
80913W        W47696   7.138  39.802  14.838
80914W        W47697  28.270   2.474  13.451
80915W        W47698  39.470  29.977  12.544
80916W        W47699  23.964  21.808  14.951
80917W        W47700  16.729  15.092  11.152
80918W        W47701  39.035  41.761   2.723
80919W        W47702  16.126  24.093   4.631
80920W        W47703  44.331  44.971   3.688
80921W        W47704   9.212  12.196   3.896
80922W        W47705   9.017  33.022   0.206
80923W        W47706   5.299   0.430  12.799
80924W        W47707  35.871  27.501   0.695
80925W        W47708  33.651  18.945   9.828
80926W        W47709  32.867  37.539  11.062
80927W        W47710  25.688   2.837   0.748
80928W        W47711  16.511  29.506   4.827
80929W        W47712  15.781   3.773  10.903
80930W        W47713  34.135  43.447   3.537
80931W        W47714  43.240  25.042  13.810
80932W        W47715  40.012  42.010  11.178
80933W        W47716  36.590  16.766  11.500
80934W        W47717  36.793   3.847  12.441
80935W        W47718  35.783  34.136   3.288
80936W        W47719   8.160  34.016  14.527
80937W        W47720  28.064   7.886  11.107
80938W        W47721   9.572   8.917  10.628
80939W        W47722  18.660  19.262  12.914
80940W        W47723   7.367  38.272   3.159
80941W        W47724  38.094  22.128  10.961
80942W        W47725  24.225  34.347  11.553
80943W        W47726  25.795   2.109   0.486
80944W        W47727  30.698  12.337   3.183
80945W        W47728   4.751  21.126  12.899
80946W        W47729   9.361  11.082  10.674
80947W        W47730  22.179  33.108   4.579
80948W        W47731   1.427  16.043   3.711
80949W        W47732  21.866   7.876  12.009
80950W        W47733   3.930  42.363  10.904
80951W        W47734  37.451  30.316  13.417
80952W        W47735  27.245  39.002  11.563
80953W        W47736  15.641  19.207   4.708
80954W        W47737  24.782   6.427   3.781
80955W        W47738   0.883  40.377  12.836
80956W        W47739  29.703  40.027   0.089
80957W        W47740   7.316   8.430   2.812
80958W        W47741  44.744  27.100  13.142
80959W        W47742  15.952  27.227  13.922
80960W        W47743  22.589  19.583   2.366
80961W        W47744   2.242  43.341  11.065
80962W        W47745  29.528  11.593   0.220
80963W        W47746  19.641  30.185   4.520
80964W        W47747  30.503  17.350  14.834
80965W        W47748  25.992  35.132   0.932
80966W        W47749  26.954  24.036   2.451
80967W        W47750  32.954  28.841  12.580
80968W        W47751   3.041  12.949   4.247
80969W        W47752  17.293  18.613   3.159
80970W        W47753  30.020   8.415   4.586
80971W        W47754  18.385  20.591   1.078
80972W        W47755  40.758  37.787   4.559
80973W        W47756  30.521  37.838  12.093
80974W        W47757  30.543  38.435   2.671
80975W        W47758  44.428   9.396   4.374
80976W        W47759   2.295  17.566   1.654
80977W        W47760  14.970  17.357   2.228
80978W        W47761  40.257  18.195  12.901
80979W        W47762  39.252  41.566   1.498
80980W        W47763  33.986  14.558   0.936
80981W        W47764  32.662  28.917   1.752
80982W        W47765   2.312  32.606  11.523
80983W        W47766  37.785  25.937   4.324
80984W        W47767  44.250  10.753   1.899
80985W        W47768   8.269  21.088   3.712
80986W        W47769  22.969  40.127   0.530
80987W        W47770   6.352  18.217  10.365
80988W        W47771   9.329  13.809   1.277
80989W        W47772  29.044  10.738  12.553
80990W        W47773   1.287  38.600   0.389
80991W        W47774  25.984  35.217   1.714
80992W        W47775  28.185  28.985   0.175
80993W        W47776  32.421  41.532  14.339
80994W        W47777  15.769  28.268   2.389
80995W        W47778  22.959   8.867  11.488
80996W        W47779  37.032  12.394  14.037
80997W        W47780  30.584  29.350  13.450
80998W        W47781  23.202  12.945   2.206
80999W        W47782  27.632   4.189  11.115
81000W        W47783   5.032  16.461   3.423
81001W        W47784  35.867  40.085  14.349
81002W        W47785  30.436  42.972   3.316
81003W        W47786  24.217  16.223   1.025
81004W        W47787  13.573   6.243   0.244
81005W        W47788  42.076  18.737   2.244
81006W        W47789  25.030   5.405  14.885
81007W        W47790  34.186   7.839   0.646
81008W        W47791   3.042  36.902  13.896
81009W        W47792  17.728   4.301   0.322
81010W        W47793  15.781  41.434   4.672
81011W        W47794   0.777  27.961   1.382
81012W        W47795  38.429   1.486   1.759
81013W        W47796  15.466   5.437   2.738
81014W        W47797  43.434   6.788  12.057
81015W        W47798  42.189  27.995   2.272
81016W        W47799  33.016  37.206   1.272
81017W        W47800  29.004   6.943  11.662
81018W        W47801  11.615  16.707  14.269
81019W        W47802  27.172   4.405  13.835
81020W        W47803  39.091  33.410   9.957
81021W        W47804  27.405  10.810   4.418
81022W        W47805   7.250  33.446   0.390
81023W        W47806  34.298  14.772  11.350
81024W        W47807  11.243   5.814   3.241
81025W        W47808  42.307   6.178   4.761
81026W        W47809  11.281  31.437  14.348
81027W        W47810  40.295   9.805  13.858
81028W        W47811   8.744  30.495   1.905
81029W        W47812  13.703   3.235  12.976
81030W        W47813  37.142  33.022  10.712
81031W        W47814  27.160   1.685  11.438
81032W        W47815  12.961  13.411  11.983
81033W        W47816  16.859  35.931   0.877
81034W        W47817  44.219  42.865   4.611
81035W        W47818  14.789  22.488  12.947
81036W        W47819  41.566  37.423  14.749
81037W        W47820   6.418  18.724  14.356
81038W        W47821  42.113  41.064   2.361
81039W        W47822   6.377   4.909   4.602
81040W        W47823  20.258  40.837   4.068
81041W        W47824  39.881  15.370   2.170
81042W        W47825  42.288  25.249  13.353
81043W        W47826  41.727  30.200  13.786
81044W        W47827  27.706  34.624  10.706
81045W        W47828  32.620   3.292  13.541
81046W        W47829  26.035  17.757  10.776
81047W        W47830   5.021  34.734  14.732
81048W        W47831  23.390   7.223  11.134
81049W        W47832  38.032  37.207   0.454
81050W        W47833  18.312  17.989  10.620
81051W        W47834   0.480   7.218  12.397
81052W        W47835  20.995   5.423   3.207
81053W        W47836  41.247  10.772   0.925
81054W        W47837  10.140  34.422   3.300
81055W        W47838  34.202  41.551  12.510
81056W        W47839  14.733  40.331  10.862
81057W        W47840  36.869  36.532   2.775
81058W        W47841  17.381   2.274  11.111
81059W        W47842  39.360  38.772  14.206
81060W        W47843  13.473  26.337   3.101
81061W        W47844  25.864  33.112  12.628
81062W        W47845  24.956  19.179   0.732
81063W        W47846  37.836  12.181   1.864
81064W        W47847  30.057   8.255   2.732
81065W        W47848  15.494  12.359  12.111
81066W        W47849  27.633   2.434   4.079
81067W        W47850   1.414  42.210   2.795
81068W        W47851  31.073  23.600   4.204
81069W        W47852  13.389  20.437   3.254
81070W        W47853  40.282   7.319  14.989
81071W        W47854  40.767  41.550   3.896
81072W        W47855  13.592  26.341   5.069
81073W        W47856  30.468  35.895   3.354
81074W        W47857   3.928  18.721   0.199
81075W        W47858  39.483  10.779   3.255
81076W        W47859  35.099  43.849  13.969
81077W        W47860  19.279  21.154  10.716
81078W        W47861  21.674  26.058   0.306
81079W        W47862  15.059  33.125   4.165
81080W        W47863   9.135  36.631   3.636
81081W        W47864  39.851  25.752   0.203
81082W        W47865  37.116   9.421   3.699
81083W        W47866   8.862  31.390   1.669
81084W        W47867  11.725  28.412   0.334
81085W        W47868  26.474   3.291   0.568
81086W        W47869   1.506  44.183  11.146
81087W        W47870  44.076  11.745   4.564
81088W        W47871  11.571  37.487  10.630
81089W        W47872   2.361  26.072   4.923
81090W        W47873  29.593  16.609  13.398
81091W        W47874  20.291   4.625  14.363
81092W        W47875  30.111  19.386   9.695
81093W        W47876   8.738   8.732  14.146
81094W        W47877  16.926   0.461  14.442
81095W        W47878   6.229  28.217   4.237
81096W        W47879  11.638  43.467  13.464
81097W        W47880  10.562  16.299   1.273
81098W        W47881  25.973  31.580   0.853
81099W        W47882  43.876  16.140  13.007
81100W        W47883   1.500  11.363  14.437
81101W        W47884  18.705   1.418  12.426
81102W        W47885  30.172   8.605   4.115
81103W        W47886   6.172  33.514   1.154
81104W        W47887  32.571  29.794   1.969
81105W        W47888   1.739  26.259  12.581
81106W        W47889   8.858  35.081  12.540
81107W        W47890  42.091  43.976  13.288
81108W        W47891  22.231  32.827  14.868
81109W        W47892  10.787   0.078   3.356
81110W        W47893   7.743   3.670  11.792
81111W        W47894  22.794  15.148  13.635
81112W        W47895  18.170  43.058  13.422
81113W        W47896  12.789  24.698   2.731
81114W        W47897  34.597   0.006   3.288
81115W        W47898  23.514  14.119  11.039
81116W        W47899  20.500  10.298  13.965
81117W        W47900  17.609   0.539   3.900
81118W        W47901  19.749  22.463  10.821
81119W        W47902  17.795  20.976   4.065
81120W        W47903   3.882  35.426   1.025
81121W        W47904  13.694   0.243   1.390
81122W        W47905  23.608  11.387  14.008
81123W        W47906   8.457   0.991  11.651
81124W        W47907   9.948   4.501  12.808
81125W        W47908   0.527   0.711   0.818
81126W        W47909  20.150  32.945   4.649
81127W        W47910  27.301  33.126  13.384
81128W        W47911  27.246   9.939   1.632
81129W        W47912   0.777  30.593  12.456
81130W        W47913  22.558  24.743   4.934
81131W        W47914  38.270   3.174  11.167
81132W        W47915  22.140  17.883   1.771
81133W        W47916  24.931  10.399   0.562
81134W        W47917  38.789   0.506  14.617
81135W        W47918  32.001   7.407  14.951
81136W        W47919  40.983  43.453   2.681
81137W        W47920  24.429  33.812   4.170
81138W        W47921  29.434   7.247  12.968
81139W        W47922  17.861   7.197  11.159
81140W        W47923  11.535  33.293   9.968
81141W        W47924  12.141  30.020   4.715
81142W        W47925  40.273  27.485   0.550
81143W        W47926   4.925  18.579  13.754
81144W        W47927  21.245  36.432  13.899
81145W        W47928  12.861  12.191  14.035
81146W        W47929  44.660  43.888  12.323
81147W        W47930  43.150   8.014  14.048
81148W        W47931  10.892  36.293  10.449
81149W        W47932  20.604  16.253  11.058
81150W        W47933  12.187   5.386   1.219
81151W        W47934  26.977   9.374   3.914
81152W        W47935   2.258  42.498   3.672
81153W        W47936  42.586   8.468  14.969
81154W        W47937  38.943  29.271  10.222
81155W        W47938  40.506  31.078  11.721
81156W        W47939   8.847  40.533  12.535
81157W        W47940  27.258  22.578  12.540
81158W        W47941  29.197  19.375   3.172
81159W        W47942  30.228  28.780  12.659
81160W        W47943  24.245  42.311  13.509
81161W        W47944  17.183   9.732  11.729
81162W        W47945   5.566   2.283  11.269
81163W        W47946  22.465   3.273   3.025
81164W        W47947   3.250  32.520   2.625
81165W        W47948  36.849   1.465   4.565
81166W        W47949  28.693   7.906  10.535
81167W        W47950  30.902   3.881   4.730
81168W        W47951   9.732  34.487   1.709
81169W        W47952  36.470  26.471   1.364
81170W        W47953  27.656  35.078   1.246
81171W        W47954  43.583  36.462   3.900
81172W        W47955  10.525  34.031   3.278
81173W        W47956  43.699   5.790  12.334
81174W        W47957  21.747  29.886  11.138
81175W        W47958  20.762  19.064   1.187
81176W        W47959   4.332  33.425   2.888
81177W        W47960   1.752   1.494   4.324
81178W        W47961  16.127  29.693  14.916
81179W        W47962  20.891  38.512   2.101
81180W        W47963   1.828  44.923  14.393
81181W        W47964   2.498  28.493  14.715
81182W        W47965   3.404  11.095   4.117
81183W        W47966  40.465   5.958   0.732
81184W        W47967  22.296  17.381   0.519
81185W        W47968   7.322  12.946   3.690
81186W        W47969  38.309   4.699  13.920
81187W        W47970  22.561   6.898  11.126
81188W        W47971  33.128  41.884   4.367
81189W        W47972  21.548   5.941   1.243
81190W        W47973   4.316   0.066   2.699
81191W        W47974  34.441  31.858   0.291
81192W        W47975  27.520  37.317  12.564
81193W        W47976  24.004  14.289   2.653
81194W        W47977  10.047  43.468   2.743
81195W        W47978  40.966  29.890   2.759
81196W        W47979  17.585   1.796   2.396
81197W        W47980   3.669  41.001  12.284
81198W        W47981   2.897  14.158  13.692
81199W        W47982  39.769  39.298   2.676
81200W        W47983  28.062  29.220   3.691
81201W        W47984  37.346  16.601   2.319
81202W        W47985  28.741  40.465  12.276
81203W        W47986   7.167   6.001  13.354
81204W        W47987  23.979   2.184  12.115
81205W        W47988  37.099   2.081  13.588
81206W        W47989  32.400   5.922  12.931
81207W        W47990  28.118  40.895  11.920
81208W        W47991  20.362  21.085   1.342
81209W        W47992  16.313  38.756   1.181
81210W        W47993  34.870  23.943   0.317
81211W        W47994  23.541  41.611   4.474
81212W        W47995  34.502  21.835   0.563
81213W        W47996  22.491  17.164  11.640
81214W        W47997  36.128  36.927  14.370
81215W        W47998  26.623   4.807  12.573
81216W        W47999   3.409  12.570   0.927
81217W        W48000  41.970  10.911   4.562
81218W        W48001  10.954   9.259   2.356
81219W        W48002  25.206   4.365  13.539
81220W        W48003  26.075  19.354   4.982
81221W        W48004   6.894  27.432   2.930
81222W        W48005  19.802  27.282  14.302
81223W        W48006  29.054  10.701   4.838
81224W        W48007  29.311  29.113   3.137
81225W        W48008  22.624  41.091  14.428
81226W        W48009  31.968  29.880   1.277
81227W        W48010  17.850   4.271  13.939
81228W        W48011  17.093  10.441  10.153
81229W        W48012   0.713  19.248  13.091
81230W        W48013  14.086   2.206  14.067
81231W        W48014  23.272  16.357   1.448
81232W        W48015  40.513  42.435  12.397
81233W        W48016  37.844  19.584  11.994
81234W        W48017   0.625  30.652   4.892
81235W        W48018  32.509  12.789   1.276
81236W        W48019  18.329  16.253   2.024
81237W        W48020  31.928  42.543  13.088
81238W        W48021  41.735   6.668  14.775
81239W        W48022  41.921   7.364   2.062
81240W        W48023  21.343  38.953  11.588
81241W        W48024  21.007  38.787  12.565
81242W        W48025  41.553  21.449  10.671
81243W        W48026   0.334  35.959   2.610
81244W        W48027  25.887  27.514  13.036
81245W        W48028  39.742  33.730  13.455
81246W        W48029  20.720  32.839  11.452
81247W        W48030  13.219  13.576  12.405
81248W        W48031  40.349   3.360  11.066
81249W        W48032  41.234  13.314   1.242
81250W        W48033  36.536   8.858   1.262
81251W        W48034  31.528  28.010  12.986
81252W        W48035  40.396  40.058   2.271
81253W        W48036   4.278  15.780   2.844
81254W        W48037  12.208  24.248   0.805
81255W        W48038  43.944   5.741   4.647
81256W        W48039  39.511  21.467   3.836
81257W        W48040  30.609  42.271  13.463
81258W        W48041  28.568   9.624  12.357
81259W        W48042   8.287  32.841  12.722
81260W        W48043  13.644  30.196  12.181
81261W        W48044  19.300  24.060  14.549
81262W        W48045  30.876  14.186   3.269
81263W        W48046  42.029  19.472  11.993
81264W        W48047   7.896  39.269   4.179
81265W        W48048  20.601  30.115   0.906
81266W        W48049  17.617  38.601  14.312
81267W        W48050  25.575  34.461  14.591
81268W        W48051  24.479  44.068   4.291
81269W        W48052  14.161  22.472  11.570
81270W        W48053  34.273  15.943   5.101
81271W        W48054   0.903  10.081   3.353
81272W        W48055  13.620  23.225   3.303
81273W        W48056  41.045  17.999  13.381
81274W        W48057  21.973   2.993  12.649
81275W        W48058  43.574  22.306  14.907
81276W        W48059   1.728  40.401  13.250
81277W        W48060   0.878  39.741   1.857
81278W        W48061   3.399  28.790  14.419
81279W        W48062  41.295  36.013  11.826
81280W        W48063  11.792  40.187   3.281
81281W        W48064  19.069  32.585  14.577
81282W        W48065  42.633   8.755   2.587
81283W        W48066  19.188  38.114  12.067
81284W        W48067   3.563  15.154   2.727
81285W        W48068  25.409  40.346  13.570
81286W        W48069  10.324  32.661   2.779
81287W        W48070  43.623  25.821  14.890
81288W        W48071  26.824  33.827   3.196
81289W        W48072   0.872  15.022  10.484
81290W        W48073  41.362  41.938   0.344
81291W        W48074  24.448  39.328  14.894
81292W        W48075  26.043  38.741  10.262
81293W        W48076  25.048  12.402   3.586
81294W        W48077   6.984  28.492  10.725
81295W        W48078  41.632  39.589   3.500
81296W        W48079  39.035   5.885  14.975
81297W        W48080  23.172  23.921   1.762
81298W        W48081   8.604   0.412   0.055
81299W        W48082  12.970  42.480   3.237
81300W        W48083  22.473  23.036   4.538
81301W        W48084   0.708  42.904   1.169
81302W        W48085   3.007   5.401   2.395
81303W        W48086   6.852  39.892  10.397
81304W        W48087  16.614  44.941  12.640
81305W        W48088  22.298  21.009  13.928
81306W        W48089   8.903  15.076  10.636
81307W        W48090  34.046   2.774  12.612
81308W        W48091  31.520  32.461   0.745
81309W        W48092  39.931  17.388   3.109
81310W        W48093   6.895  28.318  13.459
81311W        W48094  22.695  32.384  10.921
81312W        W48095  20.195  11.612  14.430
81313W        W48096  29.517  36.639  14.357
81314W        W48097   5.932  31.358  10.668
81315W        W48098  10.026  35.497  11.603
81316W        W48099   8.156  39.554  14.456
81317W        W48100  24.815  15.087  14.998
81318W        W48101   9.885  11.114   4.103
81319W        W48102   2.776  10.734   0.719
81320W        W48103  20.315  19.576  12.751
81321W        W48104  17.350  32.065   1.325
81322W        W48105  20.482   1.476  13.811
81323W        W48106  23.202  19.406   1.883
81324W        W48107  35.899  30.196  12.574
81325W        W48108  41.149  28.970  10.811
81326W        W48109  11.258  41.464   4.974
81327W        W48110   9.643   2.314   3.609
81328W        W48111  39.818  30.978  14.384
81329W        W48112  14.731   1.980   0.760
81330W        W48113  25.800  44.875   2.697
81331W        W48114   3.938  40.289   1.076
81332W        W48115  16.547   8.240   4.236
81333W        W48116  15.225  34.897   1.328
81334W        W48117  31.498  29.572   1.324
81335W        W48118  26.176   8.734  11.443
81336W        W48119  38.454  17.959  12.672
81337W        W48120  19.655  10.125  10.759
81338W        W48121   4.707  35.103   2.540
81339W        W48122   2.366  28.086  10.834
81340W        W48123  43.540   9.184  13.925
81341W        W48124  32.640  43.499   4.592
81342W        W48125   2.221   0.776  14.279
81343W        W48126  28.029  10.710   2.829
81344W        W48127  22.793  31.123  12.094
81345W        W48128  30.535  40.253   3.229
81346W        W48129  34.829  12.460  13.175
81347W        W48130  10.518   8.353   1.929
81348W        W48131  42.490  37.282  14.397
81349W        W48132  24.969  25.155  13.670
81350W        W48133  36.406   8.220   0.778
81351W        W48134  24.156   5.919   5.096
81352W        W48135  11.343  25.106   4.905
81353W        W48136  17.448  20.167   4.409
81354W        W48137  41.670   2.329  11.448
81355W        W48138  44.516  40.374  14.984
81356W        W48139  34.197   4.510   3.123
81357W        W48140  28.360  22.563   1.786
81358W        W48141  12.313  31.925  10.365
81359W        W48142   9.299  24.459  14.400
81360W        W48143  41.331  40.122  13.221
81361W        W48144  32.857   6.473   4.551
81362W        W48145  14.852  26.603   4.216
81363W        W48146  42.705  21.034   3.806
81364W        W48147  17.162   6.006  14.654
81365W        W48148  44.240  39.104  11.166
81366W        W48149  27.174   3.252  14.887
81367W        W48150  13.080  35.245  13.416
81368W        W48151   0.342   7.716   4.513
81369W        W48152  33.725  42.113  13.692
81370W        W48153   3.092  15.050  11.977
81371W        W48154  32.893  32.633   3.713
81372W        W48155  10.662  43.253  14.397
81373W        W48156  40.589  28.681   1.403
81374W        W48157   3.274  29.876  12.070
81375W        W48158  21.721  44.167  10.544
81376W        W48159  29.087   1.835  12.015
81377W        W48160  26.509  44.503  10.997
81378W        W48161   9.199  10.832   1.468
81379W        W48162  38.046  44.951   2.107
81380W        W48163  32.994  14.395   2.805
81381W        W48164  18.327  33.165   1.677
81382W        W48165  41.000  34.636   3.882
81383W        W48166  16.539  20.125  11.822
81384W        W48167  40.456  22.676   2.245
81385W        W48168  22.924   0.399  11.926
81386W        W48169  34.589  13.856   1.926
81387W        W48170  39.010  25.945   4.123
81388W        W48171   0.900  10.810   2.744
81389W        W48172  41.075  33.056   1.336
81390W        W48173  39.373   8.516  14.247
81391W        W48174  20.185  34.555   0.472
81392W        W48175   3.342   7.114   1.729
81393W        W48176  31.721  25.095  12.542
81394W        W48177   4.734  37.029  11.153
81395W        W48178   2.178  31.475  14.793
81396W        W48179  19.030  18.360  13.240
81397W        W48180  31.398  24.151  12.050
81398W        W48181  17.183  43.977   4.887
81399W        W48182   8.134  22.782   0.611
81400W        W48183  16.329   1.276  12.876
81401W        W48184  20.590  40.106   4.425
81402W        W48185   5.327   4.174   0.092
81403W        W48186  37.675  39.331   1.409
81404W        W48187  41.177  18.618   4.027
81405W        W48188  44.596  39.043   3.254
81406W        W48189  24.007  17.189   1.322
81407W        W48190  12.300  12.398  14.926
81408W        W48191  24.192   5.366  11.139
81409W        W48192  42.599  27.113  14.611
81410W        W48193  22.206  14.613   4.249
81411W        W48194   3.778  11.934  11.166
81412W        W48195  26.947  37.615  11.727
81413W        W48196  27.583  19.564   0.448
81414W        W48197  26.727  40.021   2.278
81415W        W48198  36.460   7.990   2.622
81416W        W48199  26.195   7.795  11.608
81417W        W48200  30.880  17.797   0.477
81418W        W48201  38.348  25.671   4.614
81419W        W48202  20.056  43.526  13.345
81420W        W48203   7.481  25.516   4.115
81421W        W48204  38.304  37.087  10.374
81422W        W48205  15.318  19.416   0.961
81423W        W48206  42.001  34.567   1.475
81424W        W48207  39.893  35.164   4.685
81425W        W48208  41.872   4.806   3.755
81426W        W48209   6.365  10.218  14.817
81427W        W48210  20.803  12.130  14.026
81428W        W48211  37.831  28.740   3.369
81429W        W48212  15.332  19.743  11.478
81430W        W48213  22.510  12.015   4.977
81431W        W48214  12.744   6.271   4.578
81432W        W48215  18.012  44.398   3.198
81433W        W48216  20.608  34.254   4.723
81434W        W48217  40.369  12.843  11.075
81435W        W48218  38.909  31.108  11.189
81436W        W48219  26.137  28.082  13.303
81437W        W48220  26.512   9.761   0.817
81438W        W48221  18.366   9.564  11.523
81439W        W48222   9.930   6.268  12.966
81440W        W48223  36.286  29.611  10.738
81441W        W48224  27.214  37.851   4.120
81442W        W48225  19.561  40.597  11.649
81443W        W48226  24.515   7.698  13.610
81444W        W48227  22.521  10.780  12.455
81445W        W48228  12.612  12.926   0.036
81446W        W48229  42.154  32.985  14.832
81447W        W48230  41.563  10.088   3.690
81448W        W48231  33.174  42.457  10.977
81449W        W48232  34.982  18.338  13.558
81450W        W48233  19.500  11.161  12.294
81451W        W48234  23.589   4.903  12.982
81452W        W48235  31.613   2.696   2.084
81453W        W48236  20.088   6.452  12.058
81454W        W48237  28.468  29.943   0.946
81455W        W48238  12.220  18.846   4.326
81456W        W48239   7.819  43.908  13.827
81457W        W48240  18.110  38.864   1.943
81458W        W48241  40.744  26.167  14.520
81459W        W48242  40.974  18.860  14.161
81460W        W48243  10.541  12.596  11.083
81461W        W48244  37.425  42.797  10.671
81462W        W48245  41.506   4.431  12.754
81463W        W48246  42.281  14.550   0.486
81464W        W48247  30.121  42.033   4.214
81465W        W48248  10.125  25.071   0.530
81466W        W48249  25.586  24.060  14.549
81467W        W48250  13.004  20.831   2.759
81468W        W48251  39.456  15.699   3.949
81469W        W48252  34.597  11.152  12.382
81470W        W48253  14.254  12.570  11.436
81471W        W48254   5.383  13.554  10.744
81472W        W48255  25.459  40.973   1.856
81473W        W48256  18.249  28.154  12.393
81474W        W48257  38.323   6.061   5.319
81475W        W48258  13.652  27.883   4.399
81476W        W48259  34.947  23.148   2.760
81477W        W48260   0.583  41.606  13.323
81478W        W48261  15.801  31.121  14.138
81479W        W48262  34.809  29.242  12.918
81480W        W48263  43.557  37.583   2.632
81481W        W48264  37.544   0.431  14.059
81482W        W48265  39.980  11.063  11.119
81483W        W48266   9.659  25.688   1.905
81484W        W48267   8.073  23.979  13.392
81485W        W48268  44.260  41.461   4.821
81486W        W48269   3.102   0.948   2.619
81487W        W48270  32.477  14.305   2.339
81488W        W48271   1.301   0.742   4.640
81489W        W48272  10.369  32.012   3.152
81490W        W48273  28.975  24.264  14.408
81491W        W48274  26.928  16.613   0.969
81492W        W48275  23.416   5.185  13.976
81493W        W48276   0.922  32.827  11.931
81494W        W48277  36.082  25.834  14.019
81495W        W48278  22.786  18.634   2.215
81496W        W48279  17.044  20.497   4.504
81497W        W48280  34.408  17.259   2.765
81498W        W48281   0.169  30.162  11.671
81499W        W48282   7.226   7.907  13.188
81500W        W48283  28.600  42.374   2.701
81501W        W48284  41.970  25.472  12.855
81502W        W48285   9.955   6.490   2.448
81503W        W48286  13.590   6.138   1.309
81504W        W48287  30.597  31.900   2.190
81505W        W48288  25.256  26.920   5.357
81506W        W48289  39.827  21.446  12.637
81507W        W48290  24.083   3.235  12.034
81508W        W48291  15.594  12.731   2.276
81509W        W48292   9.453  42.315   1.912
81510W        W48293  40.109  14.867  11.602
81511W        W48294   9.126  25.269  11.547
81512W        W48295  44.930  21.067   0.749
81513W        W48296  15.913  24.578   2.561
81514W        W48297  16.447   1.910   2.768
81515W        W48298  16.871  15.836  11.576
81516W        W48299  30.140  27.461  14.428
81517W        W48300  20.675   0.064   4.642
81518W        W48301  36.010  17.124  14.347
81519W        W48302  25.607  34.578  10.662
81520W        W48303  26.894  35.305  12.055
81521W        W48304  14.226   5.374   3.664
81522W        W48305  37.256   2.835   1.218
81523W        W48306  39.506  31.636   1.318
81524W        W48307  40.696  20.445  13.853
81525W        W48308  28.932  23.022  11.704
81526W        W48309   2.372  34.513   1.431
81527W        W48310  16.999   8.173   0.802
81528W        W48311  23.679  33.635   2.406
81529W        W48312   0.959  23.295   4.179
81530W        W48313  38.517   1.294   1.288
81531W        W48314  14.504  25.514   1.162
81532W        W48315   9.388  12.284  13.282
81533W        W48316  33.027   9.336  12.086
81534W        W48317  29.176  24.066  12.574
81535W        W48318  43.367  28.645  13.998
81536W        W48319  30.408  21.707  11.139
81537W        W48320  33.902  15.674  11.635
81538W        W48321   8.263   3.090  12.230
81539W        W48322   9.357   1.293   2.263
81540W        W48323  10.466  23.802  10.779
81541W        W48324  18.098  12.733  11.532
81542W        W48325   4.732  15.155   2.263
81543W        W48326   9.970  31.418   0.775
81544W        W48327  23.122  32.639   0.240
81545W        W48328  11.856  32.588   3.334
81546W        W48329   5.232  19.260  14.981
81547W        W48330  37.464  44.029   0.471
81548W        W48331  17.633   1.962  12.515
81549W        W48332  23.116  13.858   4.160
81550W        W48333   9.781  17.377  13.764
81551W        W48334  36.492  35.091   1.023
81552W        W48335  13.265   9.382   2.722
81553W        W48336   2.287   6.413   3.381
81554W        W48337  44.473  25.532  10.423
81555W        W48338  13.705  18.480   4.785
81556W        W48339  38.912  29.678   1.710
81557W        W48340  18.823   5.125  11.085
81558W        W48341  21.546  33.929   2.786
81559W        W48342  23.001  20.778  12.408
81560W        W48343  15.535  32.898  11.242
81561W        W48344  32.678  25.089   3.579
81562W        W48345  23.202  38.536  13.824
81563W        W48346   9.806  13.812  13.091
81564W        W48347  24.650  22.520   1.928
81565W        W48348  25.944  18.439   0.776
81566W        W48349   4.148  16.029  14.430
81567W        W48350   5.942  13.829   3.238
81568W        W48351   7.888  18.070  11.559
81569W        W48352   3.223  15.627  11.068
81570W        W48353   1.954   8.856  10.350
81571W        W48354  15.029  12.904   4.577
81572W        W48355  37.106  40.107   1.257
81573W        W48356  32.858  22.745   4.519
81574W        W48357  25.854  13.697  14.231
81575W        W48358  13.571  24.281  14.278
81576W        W48359  18.673  25.428  13.857
81577W        W48360  25.977   6.793   0.881
81578W        W48361  18.527   7.348  13.877
81579W        W48362   3.361   1.298  14.741
81580W        W48363  40.826  16.648  14.269
81581W        W48364  24.178   5.911  14.880
81582W        W48365  32.282  32.068   4.091
81583W        W48366  28.765  33.382  11.619
81584W        W48367  41.840  24.142  14.755
81585W        W48368  32.343  37.532  11.213
81586W        W48369  44.866   0.530   3.713
81587W        W48370   6.433  34.339   2.853
81588W        W48371   7.998   2.050  10.759
81589W        W48372  15.272   4.650   2.162
81590W        W48373  26.149  23.263  11.442
81591W        W48374  28.681  42.867   2.544
81592W        W48375  44.548   2.247  10.271
81593W        W48376  22.200  23.729   2.890
81594W        W48377  21.775   1.695  14.445
81595W        W48378  30.974  20.516   0.205
81596W        W48379  15.753  34.987   2.540
81597W        W48380   8.817   3.218  12.463
81598W        W48381  38.144  34.149   2.384
81599W        W48382   0.188  19.399  14.372
81600W        W48383  11.790  37.244   3.539
81601W        W48384  32.917   5.421   0.324
81602W        W48385  30.043  23.720   2.465
81603W        W48386   1.792   0.451   3.307
81604W        W48387  42.198  42.484   1.668
81605W        W48388  39.454  17.234   4.372
81606W        W48389  32.861  18.086  11.068
81607W        W48390  18.247   3.486   1.398
81608W        W48391  39.987  41.888   1.331
81609W        W48392  31.006  36.242   2.969
81610W        W48393  32.186  24.757  12.984
81611W        W48394   8.602  25.607  12.790
81612W        W48395  44.521  15.119   4.943
81613W        W48396  31.158   4.721  13.920
81614W        W48397  21.499   2.337  14.791
81615W        W48398  21.110  23.502  14.490
81616W        W48399  11.090  10.255   2.680
81617W        W48400   7.137  35.084   1.160
81618W        W48401  15.540   2.761   2.895
81619W        W48402  24.556  30.523  14.758
81620W        W48403  17.211  10.479   2.818
81621W        W48404  28.709  29.891  13.928
81622W        W48405  30.944  20.754  13.629
81623W        W48406  43.208  21.952  13.526
81624W        W48407  13.493  35.427   3.593
81625W        W48408  26.093  41.746   1.741
81626W        W48409  34.896   0.561  11.685
81627W        W48410   5.142   4.174  10.818
81628W        W48411  19.117  30.382   4.113
81629W        W48412   0.214  33.593  14.353
81630W        W48413  29.298   6.791   0.383
81631W        W48414  30.495  26.249   0.962
81632W        W48415  22.636  43.819  11.273
81633W        W48416  41.582  35.315   4.076
81634W        W48417   2.292  28.466   3.775
81635W        W48418  25.646  31.418  13.070
81636W        W48419  22.223  30.122   3.713
81637W        W48420  27.766  13.345   2.822
81638W        W48421  32.430  14.008  13.231
81639W        W48422  21.504   8.673   1.024
81640W        W48423   3.230   9.682  12.027
81641W        W48424  22.493  44.323   3.606
81642W        W48425  19.242  24.799   3.326
81643W        W48426   7.180  16.084  10.868
81644W        W48427  28.680  37.856   4.505
81645W        W48428  33.406   6.585   2.333
81646W        W48429  39.777  13.764   3.253
81647W        W48430  35.359  14.190  13.811
81648W        W48431  14.063   1.434   0.935
81649W        W48432  15.149  34.624   4.176
81650W        W48433  12.945  18.167  12.019
81651W        W48434   4.598   1.778   3.615
81652W        W48435  34.015  16.565  13.003
81653W        W48436  42.241  34.337  10.828
81654W        W48437  32.358   5.647  14.743
81655W        W48438  14.174  35.348  12.965
81656W        W48439   1.796  10.609  11.553
81657W        W48440  34.610  43.935  12.460
81658W        W48441  38.417  44.456   2.905
81659W        W48442  17.616  34.119  13.690
81660W        W48443  17.482  16.106   3.149
81661W        W48444   2.499  18.255   0.265
81662W        W48445   6.255  39.451   2.152
81663W        W48446  13.613  27.090   1.497
81664W        W48447  43.695  37.648  14.856
81665W        W48448  42.332   6.277  11.664
81666W        W48449   4.689  44.248  11.410
81667W        W48450   0.771  24.251   3.291
81668W        W48451  23.901   8.691   0.379
81669W        W48452  34.115  18.435  13.446
81670W        W48453  11.726  28.831   4.215
81671W        W48454  42.538  29.417   0.826
81672W        W48455  27.208  36.143  14.413
81673W        W48456  37.527  22.768   2.281
81674W        W48457  38.482  13.283   2.866
81675W        W48458   7.356  26.202  10.816
81676W        W48459   9.796  30.287   4.621
81677W        W48460   0.353  39.304   3.337
81678W        W48461  30.775  34.292  11.128
81679W        W48462  25.568   5.024   1.962
81680W        W48463  26.042  37.277  10.193
81681W        W48464  23.685  12.166  12.881
81682W        W48465  31.372  25.471  11.527
81683W        W48466   6.860   9.941   4.654
81684W        W48467  26.940  18.795   3.621
81685W        W48468  26.251  38.885  14.916
81686W        W48469  23.668   9.212  14.918
81687W        W48470  15.663  23.325  11.942
81688W        W48471  35.146  40.485  10.794
81689W        W48472  23.278  33.457  11.201
81690W        W48473  14.754  33.775   4.140
81691W        W48474  21.250  41.721   3.657
81692W        W48475  36.895  15.233  12.919
81693W        W48476   9.582   1.400  12.977
81694W        W48477   7.615  37.297  14.510
81695W        W48478  23.493  20.723   1.362
81696W        W48479  38.026   4.416  12.365
81697W        W48480  26.957  15.013   1.068
81698W        W48481  41.946  38.111  14.374
81699W        W48482  23.729  19.748  13.429
81700W        W48483  15.124  31.233  10.721
81701W        W48484  30.372  18.836   2.608
81702W        W48485  17.135   8.292   3.151
81703W        W48486  34.125   4.015  10.927
81704W        W48487  30.459  22.652   0.100
81705W        W48488  22.115  42.297  10.471
81706W        W48489  25.722  20.442   2.446
81707W        W48490  38.549  28.925  14.800
81708W        W48491   4.361   5.191   3.470
81709W        W48492  23.738  17.103   0.782
81710W        W48493  25.092  18.300   2.266
81711W        W48494   8.280   9.401  10.224
81712W        W48495  27.134  15.236  14.805
81713W        W48496  12.958   7.291   2.113
81714W        W48497  42.534  14.610  13.922
81715W        W48498  22.475  27.513   4.566
81716W        W48499  33.527  12.436  12.386
81717W        W48500  19.455  28.943   1.802
81718W        W48501  43.489   0.769   0.767
81719W        W48502  36.764   2.894   1.327
81720W        W48503   8.886  13.768   2.369
81721W        W48504  30.611  19.212  12.137
81722W        W48505  43.204  17.531   4.941
81723W        W48506  19.664  31.380   3.704
81724W        W48507  20.003  40.080   2.805
81725W        W48508  10.326  23.767   0.174
81726W        W48509   9.315  32.514  13.308
81727W        W48510  36.607   2.400  14.857
81728W        W48511  36.612  22.398  14.401
81729W        W48512  25.442   9.739  12.450
81730W        W48513   6.777  19.783   1.109
81731W        W48514  25.218  37.053   0.446
81732W        W48515  17.950   0.383   3.544
81733W        W48516  41.198  43.870  12.446
81734W        W48517  36.509  35.338  11.250
81735W        W48518  14.163  24.804   2.870
81736W        W48519  10.751   7.240   0.509
81737W        W48520  32.606   4.139  14.909
81738W        W48521  26.739  11.590   4.631
81739W        W48522  17.657   7.121  12.396
81740W        W48523  19.631  25.365  14.001
81741W        W48524  27.954  28.605   1.531
81742W        W48525  29.997  36.485   1.805
81743W        W48526  21.880  21.621   3.249
81744W        W48527   5.720   1.099   4.058
81745W        W48528   3.343   1.527   0.909
81746W        W48529  16.773  25.184   1.306
81747W        W48530  12.354  24.708   2.388
81748W        W48531  12.590  37.867  12.887
81749W        W48532  29.229  39.613   0.740
81750W        W48533   9.186  26.441   4.128
81751W        W48534  30.068  28.280   0.885
81752W        W48535   2.305  37.280  13.295
81753W        W48536  39.130  12.258   4.115
81754W        W48537  41.219  21.790  11.792
81755W        W48538  27.583  13.802  13.002
81756W        W48539  31.287  33.970   3.860
81757W        W48540   8.762  42.650   5.143
81758W        W48541  30.495  11.877   4.469
81759W        W48542   8.499  35.913   1.946
81760W        W48543  38.316  21.105  14.269
81761W        W48544   3.490   7.412  11.649
81762W        W48545  33.863  25.747  11.212
81763W        W48546  32.446  33.562   3.889
81764W        W48547  24.798  23.466  11.141
81765W        W48548   3.324  11.773  12.054
81766W        W48549  11.786  39.844  11.305
81767W        W48550  16.527  28.063  11.307
81768W        W48551  24.721  35.524   2.221
81769W        W48552  35.525  33.467   4.223
81770W        W48553   8.346  32.890   3.775
81771W        W48554  14.143  19.530  11.083
81772W        W48555  10.623  19.328   3.037
81773W        W48556   3.154   8.710   4.573
81774W        W48557  25.199  42.287   2.192
81775W        W48558  17.040  14.207   1.927
81776W        W48559  32.626  37.095  11.211
81777W        W48560  38.415  22.974  11.182
81778W        W48561  44.296   1.398   5.272
81779W        W48562  36.733   3.374  13.773
81780W        W48563  13.836  27.448  10.690
81781W        W48564  32.584  26.507   3.830
81782W        W48565  25.272  39.113  12.882
81783W        W48566  15.861  44.329   2.283
81784W        W48567  33.095  25.044   1.668
81785W        W48568  38.850   6.843  12.594
81786W        W48569  14.780   7.922  13.602
81787W        W48570  31.167   8.341  10.728
81788W        W48571  30.423  40.935   3.145
81789W        W48572  10.676  20.319  12.203
81790W        W48573  33.510  19.865  13.924
81791W        W48574   6.356  41.341  10.862
81792W        W48575   8.395   3.419   0.459
81793W        W48576  23.670   7.094  10.727
81794W        W48577  40.001  44.270  12.086
81795W        W48578  22.133  29.950  14.002
81796W        W48579   7.195   7.384   2.797
81797W        W48580  38.356  26.590   2.497
81798W        W48581  23.918  28.948   3.983
81799W        W48582  18.667  26.145   0.773
81800W        W48583  22.691  15.226  13.137
81801W        W48584  18.205  34.487   4.547
81802W        W48585  37.300  17.538   3.234
81803W        W48586  28.874  35.875   2.601
81804W        W48587  16.790  18.012  10.639
81805W        W48588  28.539  34.829  12.438
81806W        W48589  25.697  10.331  10.686
81807W        W48590  14.117  19.143   1.916
81808W        W48591  16.673  43.068  11.980
81809W        W48592  25.992  34.042  12.253
81810W        W48593  32.512  40.960   1.950
81811W        W48594  29.439  44.031  12.457
81812W        W48595  33.336  26.063   4.308
81813W        W48596  38.926   6.084   1.845
81814W        W48597  32.588  15.320  10.271
81815W        W48598  37.585   7.263   3.698
81816W        W48599   4.045  26.425  12.920
81817W        W48600  15.259  29.639   3.515
81818W        W48601  37.191  44.837   3.829
81819W        W48602  24.660  24.154   0.770
81820W        W48603  26.699   7.903  11.639
81821W        W48604  15.770  36.165   1.724
81822W        W48605  43.261  39.096   2.810
81823W        W48606   8.674   9.272   1.825
81824W        W48607  42.379  30.954  12.581
81825W        W48608  23.605  31.173   3.784
81826W        W48609  28.959  10.837   3.313
81827W        W48610  19.980  15.733   1.748
81828W        W48611  20.673  35.435   1.247
81829W        W48612  43.388  37.787   4.155
81830W        W48613  35.396  37.767  12.170
81831W        W48614  12.341  17.173  14.693
81832W        W48615  18.326  38.376   1.838
81833W        W48616  39.022  26.506  13.961
81834W        W48617  14.943  38.044   2.020
81835W        W48618  15.069  37.525   1.166
81836W        W48619  24.501   5.551  13.438
81837W        W48620  27.713  20.283  11.591
81838W        W48621  13.034  21.166   2.382
81839W        W48622  17.560   6.912   4.718
81840W        W48623  21.067  36.356   4.087
81841W        W48624  39.867  36.353   4.582
81842W        W48625  38.987  31.946  14.868
81843W        W48626   0.030  32.629  13.930
81844W        W48627  11.653  21.964   0.397
81845W        W48628  38.529   9.819  11.151
81846W        W48629  29.230  16.230   0.840
81847W        W48630  11.919  31.145   0.403
81848W        W48631   0.188  39.402   2.833
81849W        W48632   3.574  41.352   4.579
81850W        W48633  43.248  29.896  11.184
81851W        W48634  21.216  40.794  11.074
81852W        W48635  18.627  37.330  12.446
81853W        W48636  44.846  20.653   4.130
81854W        W48637  32.879  30.256   3.602
81855W        W48638   9.385   9.629   2.551
81856W        W48639   3.874  19.645  13.998
81857W        W48640  11.156  41.556   2.274
81858W        W48641  36.480  28.139   0.063
81859W        W48642   0.979  25.737  13.443
81860W        W48643   9.207  20.266   2.966
81861W        W48644   7.837  15.275  14.506
81862W        W48645  20.143  30.076  11.966
81863W        W48646  12.693  27.826   1.933
81864W        W48647  20.994  23.671  11.688
81865W        W48648  27.862   8.405  11.978
81866W        W48649   6.605  28.764   0.742
81867W        W48650  34.953  29.431  12.474
81868W        W48651  15.822  35.091   3.873
81869W        W48652  14.704  29.703  14.015
81870W        W48653  38.122  15.372   2.866
81871W        W48654  39.293  12.716   1.975
81872W        W48655  42.360   2.222   1.699
81873W        W48656  24.565  15.753   3.736
81874W        W48657  19.196  29.594   4.589
81875W        W48658  28.420  25.514   1.200
81876W        W48659  43.412  10.316   0.832
81877W        W48660  10.232  42.414  11.611
81878W        W48661  44.322   2.942   2.720
81879W        W48662  16.597  12.327   1.150
81880W        W48663  30.610  28.746   1.843
81881W        W48664  13.280  29.519  14.278
81882W        W48665  33.579  31.104   0.422
81883W        W48666   3.568  11.734  11.594
81884W        W48667  26.485  13.683   3.260
81885W        W48668   9.501  41.915  11.979
81886W        W48669  43.807  20.579  14.710
81887W        W48670  44.123  36.400  14.855
81888W        W48671  40.447  44.253   2.817
81889W        W48672  40.000  10.609   1.250
81890W        W48673  27.029   8.889   1.927
81891W        W48674  28.921  22.590   3.350
81892W        W48675   6.839  22.633   4.213
81893W        W48676  21.244  39.323   3.689
81894W        W48677  33.057   5.478  10.438
81895W        W48678  19.977  22.018   0.355
81896W        W48679   7.368   7.415   9.824
81897W        W48680  19.051  11.298   4.366
81898W        W48681  22.479   7.100  12.442
81899W        W48682  18.191  25.616   3.203
81900W        W48683  20.175  35.091   0.418
81901W        W48684  40.615  34.341   2.452
81902W        W48685  12.829  30.396   4.245
81903W        W48686  12.231  30.620  12.821
81904W        W48687   9.153  13.112   3.542
81905W        W48688   5.944  21.500  11.183
81906W        W48689  18.836  27.266  13.590
81907W        W48690  40.475  37.495   1.421
81908W        W48691   3.851  26.986   3.908
81909W        W48692  16.156  16.204  12.760
81910W        W48693  10.066   4.482  13.354
81911W        W48694  15.259  25.939  13.443
81912W        W48695   6.017  36.741  13.584
81913W        W48696  13.651  12.633   0.326
81914W        W48697  24.534   4.791   3.131
81915W        W48698   5.716  17.677   1.279
81916W        W48699  36.463  33.998  12.543
81917W        W48700  32.517  33.017  13.160
81918W        W48701  30.494   7.679   4.672
81919W        W48702   5.424   3.164   0.891
81920W        W48703  20.747  37.429   2.687
81921W        W48704  39.093  24.459   2.406
81922W        W48705  26.279  34.046  12.691
81923W        W48706  35.569  14.867  11.592
81924W        W48707  33.062  15.041  12.031
81925W        W48708  40.565  37.929   0.238
81926W        W48709  22.394   6.696   1.613
81927W        W48710  34.407  38.003   0.349
81928W        W48711  10.456  19.519  14.834
81929W        W48712  43.332  16.918  11.929
81930W        W48713  34.815  37.063   0.344
81931W        W48714  20.979   8.701   3.542
81932W        W48715  23.569  24.397  11.363
81933W        W48716  39.095  20.979  11.105
81934W        W48717  37.094   9.061   0.350
81935W        W48718  14.712  21.178   4.122
81936W        W48719  35.999  24.018   0.781
81937W        W48720  22.290  38.662   1.591
81938W        W48721  14.989  43.945   2.807
81939W        W48722  26.144  39.540  11.951
81940W        W48723  25.042  15.547  14.922
81941W        W48724  41.250  11.867   2.907
81942W        W48725  13.599  30.157   3.674
81943W        W48726  38.362   1.650  11.170
81944W        W48727  28.613  34.444  11.502
81945W        W48728   8.899  35.831   2.781
81946W        W48729  33.549  19.045   4.288
81947W        W48730  25.193  42.777   3.904
81948W        W48731  40.447  21.192  10.613
81949W        W48732  21.079  44.785  12.105
81950W        W48733  38.501   8.266  10.347
81951W        W48734  20.636   7.596   1.182
81952W        W48735  37.409  33.661  13.048
81953W        W48736  23.808  20.099   1.823
81954W        W48737  44.008  19.815   2.274
81955W        W48738  43.818   3.349  12.460
81956W        W48739  32.496   5.297   3.564
81957W        W48740  40.602  23.513  11.009
81958W        W48741  38.819   6.894  12.045
81959W        W48742  39.342  30.114  11.004
81960W        W48743  18.323  22.798   2.323
81961W        W48744  44.450  26.995  10.905
81962W        W48745  23.618  27.555  11.738
81963W        W48746  17.631  16.616  12.211
81964W        W48747  30.256   2.783   4.897
81965W        W48748  19.636  25.483   4.679
81966W        W48749  40.926  44.270   2.262
81967W        W48750  42.781   7.790  12.128
81968W        W48751  28.659   4.936   4.191
81969W        W48752   6.952   3.939   3.956
81970W        W48753  38.730  10.894  11.115
81971W        W48754   9.583  40.861  13.965
81972W        W48755  15.334  21.054  13.574
81973W        W48756  34.159  27.555  13.065
81974W        W48757   6.026   8.421  13.477
81975W        W48758  27.450  22.062  14.138
81976W        W48759  30.733   2.928   2.707
81977W        W48760  43.072  30.583  11.221
81978W        W48761  36.046   5.382  10.689
81979W        W48762  43.816  32.052  11.725
81980W        W48763  25.730   0.810  13.891
81981W        W48764  17.174  16.680  13.399
81982W        W48765  20.012  29.531  11.133
81983W        W48766  39.068  27.876  12.505
81984W        W48767  40.877  30.221   4.128
81985W        W48768  40.199  10.503   4.206
81986W        W48769  40.835  24.122  11.969
81987W        W48770  28.638  43.355  11.665
81988W        W48771  23.187  41.679  14.534
81989W        W48772  40.923  42.807   4.148
81990W        W48773  31.889  20.498  13.472
81991W        W48774  26.748  39.279  11.144
81992W        W48775  12.763  21.140  12.370
81993W        W48776  24.116  33.377   1.741
81994W        W48777   1.805  35.122   1.761
81995W        W48778  43.341  27.929  11.813
81996W        W48779  10.876   4.335   1.961
81997W        W48780  20.581   1.793   0.063
81998W        W48781  12.872  17.570   1.744
81999W        W48782  38.691  28.064   1.307
82000W        W48783   8.005  16.279  11.244
82001W        W48784  38.836   9.414   2.540
82002W        W48785  38.410  11.594   2.943
82003W        W48786  26.594  35.769   1.089
82004W        W48787  40.023  29.193  11.555
82005W        W48788  16.257  19.297   2.099
82006W        W48789  25.096  29.168  10.531
82007W        W48790   9.645  39.920   4.182
82008W        W48791  18.813  21.772   4.069
82009W        W48792  22.067   5.579  14.526
82010W        W48793  20.342  27.392  12.045
82011W        W48794  39.289  42.874  12.453
82012W        W48795  43.900  36.335  10.737
82013W        W48796   6.701  38.852  13.711
82014W        W48797  11.130   6.774  13.863
82015W        W48798  10.528  20.372   2.412
82016W        W48799  12.633   8.411  14.090
82017W        W48800  33.930  38.279   0.390
82018W        W48801  19.649   0.663  13.525
82019W        W48802  37.369  26.105  14.468
82020W        W48803  20.908  19.177   2.688
82021W        W48804  14.052  32.480  14.093
82022W        W48805  20.712  26.785   2.635
82023W        W48806  11.341   8.335  13.459
82024W        W48807   4.246  13.615  10.650
82025W        W48808  38.944  35.500  11.683
82026W        W48809   4.958  41.226  13.933
82027W        W48810  44.452  38.875  10.768
82028W        W48811  23.052  44.276   1.067
82029W        W48812  37.307  11.401   2.687
82030W        W48813  14.149  34.622  13.375
82031W        W48814  12.807  22.130  12.421
82032W        W48815  19.120  13.143  12.984
82033W        W48816  38.800  12.191  11.466
82034W        W48817  37.916  15.774   0.643
82035W        W48818  15.356  37.556   0.749
82036W        W48819  31.057  12.609   5.217
82037W        W48820  44.168   2.759   0.100
82038W        W48821  36.619  22.245  11.504
82039W        W48822  43.252  32.840  12.638
82040W        W48823  11.243   8.711   2.372
82041W        W48824  25.053  17.129   1.340
82042W        W48825   0.913  20.015   3.733
82043W        W48826   3.165   6.595   0.784
82044W        W48827  22.618  11.122   4.770
82045W        W48828  38.363  21.504  13.902
82046W        W48829   2.487  35.731   0.837
82047W        W48830  39.229  43.079   3.583
82048W        W48831  36.893   0.931  11.773
82049W        W48832  15.709  38.484  14.547
82050W        W48833  29.209  38.579  13.573
82051W        W48834  25.110  23.940  11.205
82052W        W48835  27.092   4.548   3.229
82053W        W48836  18.439  37.747  12.086
82054W        W48837   2.456  25.168   3.762
82055W        W48838  40.742  34.384   2.949
82056W        W48839  36.061  38.453   1.286
82057W        W48840   5.802  22.515   1.757
82058W        W48841  39.361  25.893   0.698
82059W        W48842  21.995  13.848  13.401
82060W        W48843  34.948  41.437   1.283
82061W        W48844  12.731  11.305  10.049
82062W        W48845  43.945  24.089   1.702
82063W        W48846  18.214  13.342  11.384
82064W        W48847  31.491  14.603  11.661
82065W        W48848  40.817  43.134  13.421
82066W        W48849   0.848   8.160   1.448
82067W        W48850  20.701  24.214  12.488
82068W        W48851   4.428  30.201  14.380
82069W        W48852  13.143  32.938  11.589
82070W        W48853  31.490  15.832   2.140
82071W        W48854  18.906   0.587   2.402
82072W        W48855  32.964  22.534   1.930
82073W        W48856  18.514  37.175  13.805
82074W        W48857  25.818  42.014   4.704
82075W        W48858  40.881  32.002  10.951
82076W        W48859  22.985   1.743   4.078
82077W        W48860   4.601   7.170   1.213
82078W        W48861  18.180  42.634   4.591
82079W        W48862  27.642  39.353   4.585
82080W        W48863  37.542   9.988   4.083
82081W        W48864   3.092  13.646  12.602
82082W        W48865   3.404  36.426   4.750
82083W        W48866  34.527  37.450   1.492
82084W        W48867  24.091   5.872  13.878
82085W        W48868  40.599   0.365  14.194
82086W        W48869  28.242   4.712   0.417
82087W        W48870   4.716  29.730  14.346
82088W        W48871  24.742   0.885  14.817
82089W        W48872   1.290  15.586  11.034
82090W        W48873  42.041  24.435   2.846
82091W        W48874  22.239   8.271  12.839
82092W        W48875   3.272  11.797  11.137
82093W        W48876  16.776  27.560  13.829
82094W        W48877  32.867  24.726  12.060
82095W        W48878  14.891  33.862  13.784
82096W        W48879   4.734  15.619  13.525
82097W        W48880  19.578  13.198   4.569
82098W        W48881  19.168   1.332   3.189
82099W        W48882  19.498  37.839  12.379
82100W        W48883  36.516  21.616  13.918
82101W        W48884   9.331  21.404   0.027
82102W        W48885  26.572   6.512  12.502
82103W        W48886  23.418  29.979   3.221
82104W        W48887  24.888  23.983   3.253
82105W        W48888  25.286  29.569  12.321
82106W        W48889  22.678  20.952   2.678
82107W        W48890  31.588  27.184  13.496
82108W        W48891   3.279  37.268  10.925
82109W        W48892  32.019  37.441   1.316
82110W        W48893  35.413  12.359  12.110
82111W        W48894  38.572  43.274  12.548
82112W        W48895   3.432  34.675   3.913
82113W        W48896  39.261  20.717   1.932
82114W        W48897  17.205  18.442   4.592
82115W        W48898   2.168   4.405  14.959
82116W        W48899  24.528  15.992   2.975
82117W        W48900   3.350  34.879   4.382
82118W        W48901   4.356  34.294  13.936
82119W        W48902  38.448  37.545   2.708
82120W        W48903  16.420  44.256  13.007
82121W        W48904   2.457  20.714   0.833
82122W        W48905  32.955  20.175  11.347
82123W        W48906  31.017  16.595  11.930
82124W        W48907   6.621  23.691   1.439
82125W        W48908  42.237  30.909   1.733
82126W        W48909   8.247   6.831   3.155
82127W        W48910  22.451   5.366   1.941
82128W        W48911  43.432  28.987   0.465
82129W        W48912   3.959  12.734   3.262
82130W        W48913   6.244  24.522   3.813
82131W        W48914  42.313   2.453  10.665
82132W        W48915   9.914  35.013   1.386
82133W        W48916  10.890  23.262   2.415
82134W        W48917  42.897  24.991   3.306
82135W        W48918   1.038  32.548  11.147
82136W        W48919  14.203   5.356  14.886
82137W        W48920   1.603  27.107   4.117
82138W        W48921  26.897  29.149   2.139
82139W        W48922   4.302  17.009  14.405
82140W        W48923  39.827   1.147  11.444
82141W        W48924  30.152   0.957   4.561
82142W        W48925  28.480  15.381  10.998
82143W        W48926  22.038   6.181   1.275
82144W        W48927   6.951   6.179   0.832
82145W        W48928  22.522  41.429   3.588
82146W        W48929   9.835   9.468  14.939
82147W        W48930  25.619  43.821  12.424
82148W        W48931   7.676  30.943   0.915
82149W        W48932  34.013  22.184  14.043
82150W        W48933   0.418   8.240  13.601
82151W        W48934  25.889  24.891  12.253
82152W        W48935  34.062  41.989  14.514
82153W        W48936   7.288  12.401  14.879
82154W        W48937  40.694  23.794  12.536
82155W        W48938  18.557  12.757   2.339
82156W        W48939  11.529  13.165   1.828
82157W        W48940  35.505  28.894   1.860
82158W        W48941  17.337  23.355  11.295
82159W        W48942  15.946  26.562  11.531
82160W        W48943  34.977  18.831   2.751
82161W        W48944  24.742   5.876   2.217
82162W        W48945  25.922  40.498  13.364
82163W        W48946  25.022  15.197   4.756
82164W        W48947  23.488  41.484  10.525
82165W        W48948  19.252  39.411   2.939
82166W        W48949  31.094  27.438  13.675
82167W        W48950  31.194   3.620   2.374
82168W        W48951  12.853   7.185  14.040
82169W        W48952  26.013  26.837   3.671
82170W        W48953  18.701  44.858  12.099
82171W        W48954  21.699  28.051  13.955
82172W        W48955  39.377   0.540  13.343
82173W        W48956  23.438  42.326   1.710
82174W        W48957  19.883  18.676   0.360
82175W        W48958  12.609  44.841  12.915
82176W        W48959   0.154  39.424   0.956
82177W        W48960  15.584  37.866  12.708
82178W        W48961  17.552  43.894  10.611
82179W        W48962   8.220  43.435  10.663
82180W        W48963  38.885  13.588   2.206
82181W        W48964  10.972  23.658  14.629
82182W        W48965  39.376  34.419   1.322
82183W        W48966  39.073   9.853   1.796
82184W        W48967  32.559  30.775  11.487
82185W        W48968  14.711   2.249   4.432
82186W        W48969  12.147   2.361   1.075
82187W        W48970  10.122  43.480  11.249
82188W        W48971  40.581   3.668  12.766
82189W        W48972   8.141   3.223  13.315
82190W        W48973  43.149  20.650   3.806
82191W        W48974  28.188  35.428   1.403
82192W        W48975  43.686  26.289   4.110
82193W        W48976  29.144  25.245  11.995
82194W        W48977  19.503  34.977   3.104
82195W        W48978  34.919  15.974   5.260
82196W        W48979  26.021  15.622  12.946
82197W        W48980  22.170  42.338  11.838
82198W        W48981  42.070   1.004   4.010
82199W        W48982  25.114   7.885  12.529
82200W        W48983  39.060  37.048   0.334
82201W        W48984  30.083  41.543   1.383
82202W        W48985   9.284  37.856   4.118
82203W        W48986  38.864  16.629   4.680
82204W        W48987   8.491  26.734   1.841
82205W        W48988  27.754  29.126  11.031
82206W        W48989  27.152  24.648   2.151
82207W        W48990  25.737   1.282   4.400
82208W        W48991  28.574  27.289  11.635
82209W        W48992  32.951  38.851   0.565
82210W        W48993  15.049  36.376  14.303
82211W        W48994   2.865  16.739   4.671
82212W        W48995  22.354  40.075  10.598
82213W        W48996   0.346  37.054   2.644
82214W        W48997  20.039  20.079  14.813
82215W        W48998   4.224   0.811   0.006
82216W        W48999   1.813  17.091  11.234
82217W        W49000  19.827   0.079   4.092
82218W        W49001   2.239  16.105  10.336
82219W        W49002  34.649  23.227   2.349
82220W        W49003  27.010  11.430   1.625
82221W        W49004  42.876  37.708  10.272
82222W        W49005  17.726  16.681   0.504
82223W        W49006  14.186  27.543   0.907
82224W        W49007  37.995   2.988  13.429
82225W        W49008   5.610  30.674   3.360
82226W        W49009  43.998  11.332  14.286
82227W        W49010   6.327  38.137  14.462
82228W        W49011  30.511  32.231   0.748
82229W        W49012   4.768  13.974  12.485
82230W        W49013  15.728   3.238   0.874
82231W        W49014   2.827  33.006   3.795
82232W        W49015  26.078   0.327   2.881
82233W        W49016   5.417  23.757   2.266
82234W        W49017  38.308  34.517  12.900
82235W        W49018  31.631  42.799   3.843
82236W        W49019  44.904  42.213  14.351
82237W        W49020  15.037  22.060   2.193
82238W        W49021  31.348  28.883  13.909
82239W        W49022  44.860  29.458   1.195
82240W        W49023  21.941  30.765  11.102
82241W        W49024  32.625   5.159   2.727
82242W        W49025  19.011  10.162  13.519
82243W        W49026  27.973  13.275   1.265
82244W        W49027  27.172  43.361  13.927
82245W        W49028  40.161  32.166  13.118
82246W        W49029  10.860   4.550  11.640
82247W        W49030  10.753  19.154  12.964
82248W        W49031   1.384  24.265   1.388
82249W        W49032  13.338  32.050   0.255
82250W        W49033  20.160  24.978   1.338
82251W        W49034  23.751  37.537  14.850
82252W        W49035  31.143  30.638   0.904
82253W        W49036  22.174  24.253  13.828
82254W        W49037  36.036  25.898  12.569
82255W        W49038  33.922  25.412   0.253
82256W        W49039  32.802  14.759  12.454
82257W        W49040  30.155  32.838   4.331
82258W        W49041  35.335  21.615   3.324
82259W        W49042  27.686  33.068   2.227
82260W        W49043  30.691  17.775   3.871
82261W        W49044  21.029  23.154  12.416
82262W        W49045  36.526   7.347   1.809
82263W        W49046  12.120  43.214   1.908
82264W        W49047  26.629  38.284  12.010
82265W        W49048  16.514   0.285  12.997
82266W        W49049  36.917  24.043  12.334
82267W        W49050   4.914  36.389   0.045
82268W        W49051   3.965  14.870  11.941
82269W        W49052  42.897   9.904  12.222
82270W        W49053  31.982  10.545   0.573
82271W        W49054  37.288  34.906  12.496
82272W        W49055  26.865  26.660  13.570
82273W        W49056  39.749  15.498  12.373
82274W        W49057  12.182   4.322   0.689
82275W        W49058  13.691   6.723   4.051
82276W        W49059  24.883  28.963   2.366
82277W        W49060  17.232  28.546  12.980
82278W        W49061  21.091  24.871   3.348
82279W        W49062  25.351   7.934   2.244
82280W        W49063   9.939  35.984   3.656
82281W        W49064  12.768  33.129  10.688
82282W        W49065  25.697   4.314   4.848
82283W        W49066  31.716  18.182  10.546
82284W        W49067  18.320  32.200   2.820
82285W        W49068  44.923  32.425  14.777
82286W        W49069   4.022  34.994  11.958
82287W        W49070   9.132  22.614   1.743
82288W        W49071  12.213   7.163   2.737
82289W        W49072  39.362   5.322   3.178
82290W        W49073  41.289  39.451   3.134
82291W        W49074  37.558   1.098  14.408
82292W        W49075  35.912  24.740   3.126
82293W        W49076  19.752   9.695   2.865
82294W        W49077  24.449   7.317   0.421
82295W        W49078  22.956  28.127   4.403
82296W        W49079  37.155  23.912   2.789
82297W        W49080   6.966  14.902  12.958
82298W        W49081  33.845   0.338   0.405
82299W        W49082   6.918  30.076   0.407
82300W        W49083  38.460  25.059  14.768
82301W        W49084   3.435  29.158   3.882
82302W        W49085   8.997   7.234   3.704
82303W        W49086   0.712  41.361  10.459
82304W        W49087  36.876  36.847   0.379
82305W        W49088  36.319   6.256  12.581
82306W        W49089   4.436  30.247   4.204
82307W        W49090   0.835  39.717  14.820
82308W        W49091  30.200  42.031   1.612
82309W        W49092  30.088  29.447   2.209
82310W        W49093  10.543   8.465  11.187
82311W        W49094  23.450  10.376  12.542
82312W        W49095  20.880   5.634  14.012
82313W        W49096  27.589  16.438  14.438
82314W        W49097   4.331  37.615   3.076
82315W        W49098  17.593  26.778   3.210
82316W        W49099   0.926  16.021   4.920
82317W        W49100  19.044  43.533  11.199
82318W        W49101  34.403  38.482  11.596
82319W        W49102   1.258  41.233   0.280
82320W        W49103  41.008   1.002   0.517
82321W        W49104  13.363  33.549   0.436
82322W        W49105  10.099   6.781  12.560
82323W        W49106  23.076  13.353   1.411
82324W        W49107  17.338  17.606  14.810
82325W        W49108  36.600  24.926  14.351
82326W        W49109  29.820  16.157   0.041
82327W        W49110  25.604  24.303  13.479
82328W        W49111  14.303  35.583  10.272
82329W        W49112  39.938  14.121   2.842
82330W        W49113  41.917  44.940  13.197
82331W        W49114  15.750  34.021  11.529
82332W        W49115  21.721  44.400  13.923
82333W        W49116  39.235  42.394   1.178
82334W        W49117   9.224  39.013   1.041
82335W        W49118  35.908  20.002  14.481
82336W        W49119  36.369   8.630  14.783
82337W        W49120  28.406   6.022  14.866
82338W        W49121  17.765   6.849   3.724
82339W        W49122  37.309  20.961   0.943
82340W        W49123  38.453  25.710   1.926
82341W        W49124   7.760   9.758   1.829
82342W        W49125  33.908  42.925   0.936
82343W        W49126   5.653  44.319   1.787
82344W        W49127  41.801  13.872   2.668
82345W        W49128  35.037  12.310  13.618
82346W        W49129  40.354  44.315  10.755
82347W        W49130  29.185  33.475   4.461
82348W        W49131  43.072  41.217   3.489
82349W        W49132  41.865  24.947   1.958
82350W        W49133  11.796  39.244   4.721
82351W        W49134  43.467  29.039  14.402
82352W        W49135  21.258  11.153   0.443
82353W        W49136   5.585  41.398   1.810
82354W        W49137  26.400  21.204  12.442
82355W        W49138  36.458  15.327  14.409
82356W        W49139  27.666  26.930  13.904
82357W        W49140  44.987  40.969  12.518
82358W        W49141  42.273   2.860  11.143
82359W        W49142  27.703  36.593  13.872
82360W        W49143  25.022  11.293   0.349
82361W        W49144  42.445   0.992   3.242
82362W        W49145   8.066  24.020  10.747
82363W        W49146  39.426  43.971   2.235
82364W        W49147  10.368  14.304  14.859
82365W        W49148  19.713   1.746  10.684
82366W        W49149  41.790  34.046  10.716
82367W        W49150  43.882  30.871   1.326
82368W        W49151  11.374   3.380  12.193
82369W        W49152  17.765  11.854   4.173
82370W        W49153  33.439   5.650   5.062
82371W        W49154  24.123  35.309  11.567
82372W        W49155   9.290  18.903  10.751
82373W        W49156  26.154  20.077   1.164
82374W        W49157   6.334   4.050  14.364
82375W        W49158  41.116  26.550   2.355
82376W        W49159  25.264  27.154   4.492
82377W        W49160  12.802  18.335  12.980
82378W        W49161  38.815  13.716  14.792
82379W        W49162  11.308  38.549   3.207
82380W        W49163  34.084  16.016  12.081
82381W        W49164  24.162  34.518   3.134
82382W        W49165  36.982   6.872   3.280
82383W        W49166  13.137   7.873   1.084
82384W        W49167   8.490  13.097   1.782
82385W        W49168   0.949   0.392   2.403
82386W        W49169  37.344  37.910  13.009
82387W        W49170  31.068  23.455  14.283
82388W        W49171  39.031  34.984  13.168
82389W        W49172  39.797  28.067  12.051
82390W        W49173  42.018  12.219  13.859
82391W        W49174  34.380  34.079   4.433
82392W        W49175   2.177  36.033   3.038
82393W        W49176  39.026  35.988  13.342
82394W        W49177   9.679  22.198   0.157
82395W        W49178   8.227  17.824  12.517
82396W        W49179  18.207  18.924  14.782
82397W        W49180  35.866  35.157  11.649
82398W        W49181  31.996   5.386  14.436
82399W        W49182  30.106  11.718  11.643
82400W        W49183  12.861   2.850  11.843
82401W        W49184  35.906  39.790   0.739
82402W        W49185  31.753  15.273   0.296
82403W        W49186  16.617  41.957  14.293
82404W        W49187  16.235  25.085   2.082
82405W        W49188   0.256  11.356   1.306
82406W        W49189   9.628  35.300   2.244
82407W        W49190  26.751  38.062  13.132
82408W        W49191  43.502   7.690  13.883
82409W        W49192  13.992  40.263  11.591
82410W        W49193  29.863  38.326   3.613
82411W        W49194  32.408  18.699   5.010
82412W        W49195  36.978  43.102   3.195
82413W        W49196  44.415  15.114   0.963
82414W        W49197   6.357  10.390   2.255
82415W        W49198  32.041  16.842   1.822
82416W        W49199  34.961  20.702   2.219
82417W        W49200  43.265  32.900   3.485
82418W        W49201  28.989  44.509  14.423
82419W        W49202  38.431  10.436  12.538
82420W        W49203  33.327  20.545   2.821
82421W        W49204   3.823   0.414  13.231
82422W        W49205  40.735   5.648   2.747
82423W        W49206  15.609  32.419  10.995
82424W        W49207  36.167  12.577   2.372
82425W        W49208  22.449  30.447   1.307
82426W        W49209   5.893  38.649  14.333
82427W        W49210  39.129  10.692  13.096
82428W        W49211  19.884  22.589   0.398
82429W        W49212  33.597  23.536  11.649
82430W        W49213   9.859  44.753  14.354
82431W        W49214   4.392  26.545  14.765
82432W        W49215  11.230  43.207  10.464
82433W        W49216   2.653  38.851  10.695
82434W        W49217   3.148  12.606   4.600
82435W        W49218  22.808  10.672  14.749
82436W        W49219  24.239  14.648  10.895
82437W        W49220  14.928  39.822   2.129
82438W        W49221  21.267  16.110   5.194
82439W        W49222  38.872  37.485  10.779
82440W        W49223  18.760  16.803   2.710
82441W        W49224  31.712  26.984   1.311
82442W        W49225  33.732  24.133   3.741
82443W        W49226   0.604  42.767  14.732
82444W        W49227  11.602  28.404  13.796
82445W        W49228  34.878  36.294   3.854
82446W        W49229   8.681  29.552   3.157
82447W        W49230  12.643   5.285  12.956
82448W        W49231  10.724   1.920  11.255
82449W        W49232  43.868  28.056  12.529
82450W        W49233  33.856  29.630   1.596
82451W        W49234  17.950  42.059  12.546
82452W        W49235   8.864   2.268  14.515
82453W        W49236  10.835  25.941  13.899
82454W        W49237   1.031  37.916   1.671
82455W        W49238  26.866  34.030  13.548
82456W        W49239  41.952  12.257   2.383
82457W        W49240  30.183  25.170   3.576
82458W        W49241  22.155   2.648  13.017
82459W        W49242   4.220  12.739   0.712
82460W        W49243  15.726  14.443  12.415
82461W        W49244   5.167  27.563   4.048
82462W        W49245  34.521  24.577   3.776
82463W        W49246  29.174   9.200   3.205
82464W        W49247   2.582  17.135   3.423
82465W        W49248  12.141  44.375  10.520
82466W        W49249   0.798  31.989   4.550
82467W        W49250  32.548  24.353  14.364
82468W        W49251   2.925  14.980   4.609
82469W        W49252  28.487  20.117  13.272
82470W        W49253  11.148   0.478  13.544
82471W        W49254  26.982  37.289   4.666
82472W        W49255  36.826  19.711  13.453
82473W        W49256  16.603  44.000  10.738
82474W        W49257  41.153  39.261  13.495
82475W        W49258   7.368  25.518  12.110
82476W        W49259  44.779   9.752  11.649
82477W        W49260  41.446   4.843  13.095
82478W        W49261   3.608   6.367   0.571
82479W        W49262  39.647  35.898   4.587
82480W        W49263  37.605  25.456   4.060
82481W        W49264  30.132  37.024   2.187
82482W        W49265  36.542  13.228   2.890
82483W        W49266  40.700  32.103   2.061
82484W        W49267  11.724  27.661  11.023
82485W        W49268   5.069   4.770   4.123
82486W        W49269  41.843  28.012   3.261
82487W        W49270   0.834  37.913   0.311
82488W        W49271  36.308   2.705  13.328
82489W        W49272   6.779   1.357   4.088
82490W        W49273   5.587  40.537   4.238
82491W        W49274  34.385  31.160  10.629
82492W        W49275  35.092  38.208  14.247
82493W        W49276  28.164   5.732  12.962
82494W        W49277  40.587   6.434   4.813
82495W        W49278  31.081  12.182   2.802
82496W        W49279  22.362  36.908   2.959
82497W        W49280  27.240  22.548   3.149
82498W        W49281   1.586  30.397  12.998
82499W        W49282   6.666  10.217   2.663
82500W        W49283  24.580   4.349  10.500
82501W        W49284   2.783  10.635  13.103
82502W        W49285  33.917  17.688   4.274
82503W        W49286  33.263  30.687  12.917
82504W        W49287  43.414  43.370   2.647
82505W        W49288  34.802  16.822  14.721
82506W        W49289  14.593  23.648   0.271
82507W        W49290   6.254  30.530   4.692
82508W        W49291  32.211  40.514   4.863
82509W        W49292  38.547  38.113  13.047
82510W        W49293  21.808   9.798   2.849
82511W        W49294  28.984  34.459  14.015
82512W        W49295   6.497  18.984  14.828
82513W        W49296   6.418  10.325   3.097
82514W        W49297   1.287  26.924   4.506
82515W        W49298  10.287  44.506   3.641
82516W        W49299  13.329   9.952  11.930
82517W        W49300  34.100   1.238   0.894
82518W        W49301   6.572  31.540  11.962
82519W        W49302  41.369  14.231   1.672
82520W        W49303  13.660  30.235  11.022
82521W        W49304  17.285  19.499  12.911
82522W        W49305  40.075  38.410  11.971
82523W        W49306  31.977  27.531  13.555
82524W        W49307  38.527  27.035  12.854
82525W        W49308  15.301  42.411   0.241
82526W        W49309   5.312  28.911  14.314
82527W        W49310  35.149  28.526  13.333
82528W        W49311  33.649  25.074   2.027
82529W        W49312   9.597   3.987   1.573
82530W        W49313  11.195   6.119   3.652
82531W        W49314   3.581   2.266  11.206
82532W        W49315  32.024  19.966  12.613
82533W        W49316  15.116  24.556  11.106
82534W        W49317  23.841  35.871  12.417
82535W        W49318  21.540  36.487  12.155
82536W        W49319  37.334  27.108  13.781
82537W        W49320  18.349  30.111  13.334
82538W        W49321  13.279  17.850  11.086
82539W        W49322  25.151  24.261  13.243
82540W        W49323  25.968  12.982  12.361
82541W        W49324  36.748  14.332  14.528
82542W        W49325  29.152  43.361   1.173
82543W        W49326  37.632  33.140  11.468
82544W        W49327   3.434  40.408   0.171
82545W        W49328  25.060  28.225  14.088
82546W        W49329  26.045  22.560   4.721
82547W        W49330  25.261  28.129   2.915
82548W        W49331   0.728  44.385   1.064
82549W        W49332  12.267  43.369   3.709
82550W        W49333  28.367  37.063   3.572
82551W        W49334  44.329  44.743  10.498
82552W        W49335  36.046  34.739  14.584
82553W        W49336  19.169  24.305  12.085
82554W        W49337  34.041  42.272   4.165
82555W        W49338  11.007  29.947   2.638
82556W        W49339  14.580  43.691   0.284
82557W        W49340  26.440  22.550   3.813
82558W        W49341  22.640  10.863   3.932
82559W        W49342  30.410  14.311   0.932
82560W        W49343  27.896  37.776   2.263
82561W        W49344  39.380  43.082  13.203
82562W        W49345  42.507  27.857   4.635
82563W        W49346  20.633  23.287   0.220
82564W        W49347  13.754  24.437   0.038
82565W        W49348  29.136  13.838   1.604
82566W        W49349  10.609  33.532   0.901
82567W        W49350   5.631   3.438  13.368
82568W        W49351  21.697   1.935  10.981
82569W        W49352   7.352   8.312   1.757
82570W        W49353  10.441   4.687  14.470
82571W        W49354  28.491  21.979  11.272
82572W        W49355  27.159  44.459  14.886
82573W        W49356  18.515  36.018   4.549
82574W        W49357  11.783  43.827  13.116
82575W        W49358  10.826   1.291  14.251
82576W        W49359  43.568   5.465   0.074
82577W        W49360  40.604   0.343   4.896
82578W        W49361   2.306  31.512   2.936
82579W        W49362  38.950   5.416   4.637
82580W        W49363  17.489   8.829   0.494
82581W        W49364  44.452  21.218  13.945
82582W        W49365  42.753  20.694   2.598
82583W        W49366  27.795  22.853   4.953
82584W        W49367  34.302  44.939  11.675
82585W        W49368  18.875  37.877   4.320
82586W        W49369  38.041  40.273   4.226
82587W        W49370   1.937  19.601  14.092
82588W        W49371   8.216  20.646  10.772
82589W        W49372  29.542  23.372   0.273
82590W        W49373   3.165  37.875  13.692
82591W        W49374   1.669  17.774   0.737
82592W        W49375  18.161  37.334  10.051
82593W        W49376  32.994  15.267  10.588
82594W        W49377  36.498  12.877  13.018
82595W        W49378  42.977  29.173  12.354
82596W        W49379  32.606  32.489  13.469
82597W        W49380  21.992  23.225  11.221
82598W        W49381   4.116  41.294  12.541
82599W        W49382  17.542  13.064   4.552
82600W        W49383  26.558  36.833   1.374
82601W        W49384  21.665  24.528  11.163
82602W        W49385  12.646  20.249  14.350
82603W        W49386  22.952  32.762  11.149
82604W        W49387  29.084  29.953  12.221
82605W        W49388  33.885  33.618  13.453
82606W        W49389  41.290  43.523   4.096
82607W        W49390  28.002  19.295   0.334
82608W        W49391   1.018  22.733  10.571
82609W        W49392  28.829   8.311  11.208
82610W        W49393  30.663  29.100   3.624
82611W        W49394  27.098  14.875  13.446
82612W        W49395   8.595  43.369  14.533
82613W        W49396  23.862   2.289  14.462
82614W        W49397   4.967   7.157   0.277
82615W        W49398  18.842  34.457  10.675
82616W        W49399  44.535  38.898  11.585
82617W        W49400  21.690  22.009  10.440
82618W        W49401  24.226   6.193   3.700
82619W        W49402  36.424  31.972   2.591
82620W        W49403  21.150  16.016  13.458
82621W        W49404  19.082  16.819  14.330
82622W        W49405  19.777  12.390   2.040
82623W        W49406   5.644  28.048  12.468
82624W        W49407  19.319   4.112   3.726
82625W        W49408   9.260  27.043   1.005
82626W        W49409  21.623  41.587   0.228
82627W        W49410  39.946  21.320  10.735
82628W        W49411  14.365   6.734   2.011
82629W        W49412  16.979   4.378   5.004
82630W        W49413  28.506   7.695   2.030
82631W        W49414   6.705   1.001   3.698
82632W        W49415  37.392   2.947  12.817
82633W        W49416  39.883   5.185  12.417
82634W        W49417  23.648   4.861   0.696
82635W        W49418   2.621  17.922  14.410
82636W        W49419  38.892  19.957   4.337
82637W        W49420  40.838  10.611   1.649
82638W        W49421  16.009   5.709  11.590
82639W        W49422  35.033   7.832   0.010
82640W        W49423  29.378  20.323  10.976
82641W        W49424  31.136  38.039   1.343
82642W        W49425  23.463  35.541  11.093
82643W        W49426  27.222  19.069   1.040
82644W        W49427  13.960   2.360  11.136
82645W        W49428  34.455   6.953   0.883
82646W        W49429  23.763  16.677   2.619
82647W        W49430  27.195  23.458   4.102
82648W        W49431  37.606   5.864   4.038
82649W        W49432   8.592  35.478   4.253
82650W        W49433   8.084  35.707   4.987
82651W        W49434   4.685   2.714   3.620
82652W        W49435  24.475   3.307  12.959
82653W        W49436   6.416  28.076  12.979
82654W        W49437  36.832  34.091  14.651
82655W        W49438   7.375  41.835  12.916
82656W        W49439   6.802  15.786  12.481
82657W        W49440  16.900   0.432  12.665
82658W        W49441   8.763  12.338   0.497
82659W        W49442  37.765   7.855   0.924
82660W        W49443  24.277  41.567   3.111
82661W        W49444  37.635   2.378  14.793
82662W        W49445   2.043   6.101  14.971
82663W        W49446  41.239  16.518  14.575
82664W        W49447  34.810  21.976  13.810
82665W        W49448  22.484   4.369   0.275
82666W        W49449  15.092  26.116   3.686
82667W        W49450  15.975   7.188  13.438
82668W        W49451  42.383  22.311  13.023
82669W        W49452   3.443  15.641  14.277
82670W        W49453  23.093   3.018   2.286
82671W        W49454  17.411  19.085   1.766
82672W        W49455  21.800  33.734   3.225
82673W        W49456   6.279  26.561   5.249
82674W        W49457  13.014  20.638  12.866
82675W        W49458  30.959  34.860   2.738
82676W        W49459  20.669  32.082   3.752
82677W        W49460  29.967  22.009  10.700
82678W        W49461  20.775   1.000  11.252
82679W        W49462  44.083  26.666  14.619
82680W        W49463  31.243  43.782   1.773
82681W        W49464  40.110  40.786   4.173
82682W        W49465  37.546  34.826   4.123
82683W        W49466  15.532  15.273   0.885
82684W        W49467  44.600   9.920  12.099
82685W        W49468  22.248   4.475   3.644
82686W        W49469  32.865  38.106   2.808
82687W        W49470  28.161  32.166  14.437
82688W        W49471  40.479  38.035  14.304
82689W        W49472   9.136   3.710  13.860
82690W        W49473  27.412  37.406  13.051
82691W        W49474  23.657  33.171  13.812
82692W        W49475  43.379  32.518  13.055
82693W        W49476  26.149  30.575   4.646
82694W        W49477  44.206  10.558  13.672
82695W        W49478  14.399  43.446  12.043
82696W        W49479  15.843   9.151  14.668
82697W        W49480  29.467  42.377  14.203
82698W        W49481  33.933  33.099  12.735
82699W        W49482  10.764   2.651  13.271
82700W        W49483  28.500  17.591   4.605
82701W        W49484  44.581  15.410   1.470
82702W        W49485  35.924  19.831   0.857
82703W        W49486  40.450  17.113   0.451
82704W        W49487  31.003   0.290   3.467
82705W        W49488  21.258  12.401  11.137
82706W        W49489   5.895  22.147  10.562
82707W        W49490  20.622  31.914  11.085
82708W        W49491  27.608   1.781  14.468
82709W        W49492  32.228   4.225   2.783
82710W        W49493   4.485   1.263  12.469
82711W        W49494   7.183  23.263  11.549
82712W        W49495  30.926   3.987   3.310
82713W        W49496  11.916   0.527   0.727
82714W        W49497  35.082  21.329  11.550
82715W        W49498  38.586   2.833   4.005
82716W        W49499   3.825  42.687   2.673
82717W        W49500  17.809  17.368   4.017
82718W        W49501  19.848  12.145  10.692
82719W        W49502  18.268  40.898  14.847
82720W        W49503   8.372  35.389  14.898
82721W        W49504  13.053  14.321  13.491
82722W        W49505  41.951  44.505   0.387
82723W        W49506  17.221  35.887  10.387
82724W        W49507   0.888  32.878  14.495
82725W        W49508  21.640   5.910  10.684
82726W        W49509  35.868   5.814   0.845
82727W        W49510  40.567  35.853  12.447
82728W        W49511  39.357  27.204   3.014
82729W        W49512   6.516   2.657   4.112
82730W        W49513   9.702   1.291  13.818
82731W        W49514  42.183  20.186  11.593
82732W        W49515  16.068   0.301   3.756
82733W        W49516  12.203  35.998   0.213
82734W        W49517  20.120  37.803  14.831
82735W        W49518  16.648  17.495   1.693
82736W        W49519   3.213  12.247   3.226
82737W        W49520  11.886  41.620  10.579
82738W        W49521  41.737  38.737   2.749
82739W        W49522  12.583  25.103   4.129
82740W        W49523  23.269  32.019   1.464
82741W        W49524  44.909  14.673  10.775
82742W        W49525  41.535  11.217   3.113
82743W        W49526  38.972  26.020  10.364
82744W        W49527   6.257  35.048  14.476
82745W        W49528   4.504  39.581  13.095
82746W        W49529  24.664  19.109  10.597
82747W        W49530   4.960  21.201   2.691
82748W        W49531  24.215  44.329   2.350
82749W        W49532   1.294  29.082   3.655
82750W        W49533  36.333  37.377   4.097
82751W        W49534   5.477  33.089  11.953
82752W        W49535  19.102  42.327   2.222
82753W        W49536  39.534   6.271   4.206
82754W        W49537   9.663  26.183   3.261
82755W        W49538  30.582  27.699   1.199
82756W        W49539  28.936  28.633   1.172
82757W        W49540  40.706  37.584   5.129
82758W        W49541  41.983  19.785   5.036
82759W        W49542  16.115  44.646   4.697
82760W        W49543  33.671  42.964  14.283
82761W        W49544  21.806  23.519   0.028
82762W        W49545  17.508  38.359   2.773
82763W        W49546  43.671  22.494  14.428
82764W        W49547  13.055  14.037   3.597
82765W        W49548  13.165  10.653  13.044
82766W        W49549  10.158  13.638   2.601
82767W        W49550   7.664  31.132   2.739
82768W        W49551   6.717  14.827  10.752
82769W        W49552  12.360   8.650   2.753
82770W        W49553  31.589  12.990   1.857
82771W        W49554  21.147   9.575   4.096
82772W        W49555  35.386  24.664  11.457
82773W        W49556  30.027  30.728  10.818
82774W        W49557  15.526   4.397   4.521
82775W        W49558  24.543  16.304   3.961
82776W        W49559  26.994  11.334  11.580
82777W        W49560  29.423  20.109   4.326
82778W        W49561  23.676  33.918  12.877
82779W        W49562   6.259   4.458  10.937
82780W        W49563  25.402  21.214  12.137
82781W        W49564  19.403  22.645   0.209
82782W        W49565  26.281  35.207  14.691
82783W        W49566  43.388  37.216  12.409
82784W        W49567  35.609  23.053   3.479
82785W        W49568   3.759   8.180   2.920
82786W        W49569  34.346  28.257   4.064
82787W        W49570  36.141  32.399   2.155
82788W        W49571  27.109  40.410   2.313
82789W        W49572  14.386  23.584   2.357
82790W        W49573  16.120  28.538  14.253
82791W        W49574  32.449  14.900  13.836
82792W        W49575  13.761  21.323   0.751
82793W        W49576  14.098  35.898   5.014
82794W        W49577  30.620   6.264   4.393
82795W        W49578   3.945  21.622   0.082
82796W        W49579   9.403  28.306   3.199
82797W        W49580  14.760  17.919   4.174
82798W        W49581  37.440   6.759  10.856
82799W        W49582   2.935  32.457  11.394
82800W        W49583   4.935   1.603  12.425
82801W        W49584  25.608  18.267  10.235
82802W        W49585  44.414  43.720  14.287
82803W        W49586   7.191  10.757   3.195
82804W        W49587   7.447  42.893   3.701
82805W        W49588   9.261  35.966   2.406
82806W        W49589  16.642  26.152   1.395
82807W        W49590  29.668  26.396   4.610
82808W        W49591  34.039  42.358  13.335
82809W        W49592  37.895  40.596   1.735
82810W        W49593   3.318   8.234   3.728
82811W        W49594  36.100  38.847   3.625
82812W        W49595  36.518  39.958   1.794
82813W        W49596  31.585  42.442  10.587
82814W        W49597  27.492  19.282  14.468
82815W        W49598  11.053  38.505  10.236
82816W        W49599  29.495  29.012   1.942
82817W        W49600  38.344  30.556  11.588
82818W        W49601  40.472   5.427   1.391
82819W        W49602  18.364  19.352   1.755
82820W        W49603  34.083  29.191   1.793
82821W        W49604  34.357   8.915  10.766
82822W        W49605  17.274  19.625   3.714
82823W        W49606   6.263   2.642  14.341
82824W        W49607   1.604  31.347  14.961
82825W        W49608   4.115  15.575  11.586
82826W        W49609  40.626  27.058  11.314
82827W        W49610  19.278  38.327  14.044
82828W        W49611   1.671  31.176  14.473
82829W        W49612  30.017  30.193   3.345
82830W        W49613   9.762  17.593  12.434
82831W        W49614  24.692  11.666  13.307
82832W        W49615  33.851  28.938   0.827
82833W        W49616  14.644  13.577  14.515
82834W        W49617  34.695  26.610  10.367
82835W        W49618  35.247  11.705   0.903
82836W        W49619  33.459  42.507   3.680
82837W        W49620  28.956  10.092  10.865
82838W        W49621  33.521   3.129  14.819
82839W        W49622  20.188  44.397  14.256
82840W        W49623  41.235   8.312  11.401
82841W        W49624  38.376  36.082   2.168
82842W        W49625  40.120  14.685  12.487
82843W        W49626   4.156  29.101   3.139
82844W        W49627   4.271  27.774  12.391
82845W        W49628  17.788   0.212   1.340
82846W        W49629  13.247  15.271   0.293
82847W        W49630   6.998  15.851  12.010
82848W        W49631  19.628  33.014  10.694
82849W        W49632   8.018  18.670  11.048
82850W        W49633  36.397  26.172   0.080
82851W        W49634   4.092  21.095   1.468
82852W        W49635   7.324  41.041  10.728
82853W        W49636   2.153  25.340   5.132
82854W        W49637  26.558  26.240   0.917
82855W        W49638  29.330  21.587  14.412
82856W        W49639  23.468  30.196   0.724
82857W        W49640   4.550   9.562  12.682
82858W        W49641  18.747  14.080   0.076
82859W        W49642  29.156  27.222  13.493
82860W        W49643  32.347  34.479  12.938
82861W        W49644  16.581  16.072  10.307
82862W        W49645   0.079  21.181  10.460
82863W        W49646   8.692  34.933   0.916
82864W        W49647  23.472  24.745   2.286
82865W        W49648  28.985  12.652  14.848
82866W        W49649   0.737  12.281   9.814
82867W        W49650  15.084  23.854   0.048
82868W        W49651  20.716   2.331  13.854
82869W        W49652  21.624   0.135  12.532
82870W        W49653   3.133  26.921   1.265
82871W        W49654  13.946  24.460   3.862
82872W        W49655  30.630  24.583  14.455
82873W        W49656   9.691  17.273  14.276
82874W        W49657  33.724  38.998   2.587
82875W        W49658  32.841   6.212   0.762
82876W        W49659  10.144  35.552  12.634
82877W        W49660   7.764  34.530  12.512
82878W        W49661   9.249  43.964  13.160
82879W        W49662  34.874  42.185   4.033
82880W        W49663   7.111  41.349  11.366
82881W        W49664  11.782  35.320  14.067
82882W        W49665  14.729   0.404   0.695
82883W        W49666  29.017  37.155  14.829
82884W        W49667   5.261  39.078   4.527
82885W        W49668  31.952  43.508  12.003
82886W        W49669  15.449  27.224  12.596
82887W        W49670  28.485   8.248   4.672
82888W        W49671  27.655  38.909  13.262
82889W        W49672  17.321  32.982   4.187
82890W        W49673  38.546  24.580   4.544
82891W        W49674  14.660  15.536   3.748
82892W        W49675  21.740  37.713   3.342
82893W        W49676  43.588   8.158  10.475
82894W        W49677   8.520  35.897   3.724
82895W        W49678  20.518  40.398  14.526
82896W        W49679   8.941  28.635   1.938
82897W        W49680   3.516  32.466   4.034
82898W        W49681  28.101   4.772  11.619
82899W        W49682   5.121  13.607   1.021
82900W        W49683  29.199  34.131   0.853
82901W        W49684   7.756  36.108  12.552
82902W        W49685  16.414  10.338  12.000
82903W        W49686  25.649   2.174  11.481
82904W        W49687  34.090  10.180  12.733
82905W        W49688  17.876   8.986   4.047
82906W        W49689  15.748  35.797   2.071
82907W        W49690  29.559  41.799  10.299
82908W        W49691  44.026  35.268  10.243
82909W        W49692  14.374   9.530  11.991
82910W        W49693  11.554  44.734   4.135
82911W        W49694  41.297  15.783  13.651
82912W        W49695  27.786  28.954  10.018
82913W        W49696  34.227   9.594   2.593
82914W        W49697  20.313   9.835   2.952
82915W        W49698  43.771  18.281   3.236
82916W        W49699  26.519  10.540   4.557
82917W        W49700   4.739  32.978  13.777
82918W        W49701  24.974  13.631  14.570
82919W        W49702   3.426   7.120  14.409
82920W        W49703  24.264  13.374   2.697
82921W        W49704  11.153   3.973  12.782
82922W        W49705  25.664  29.837  12.038
82923W        W49706  32.085  43.946   0.850
82924W        W49707  38.957  31.888  13.890
82925W        W49708  29.541  30.422  14.332
82926W        W49709  17.980  31.941   0.076
82927W        W49710  41.287  23.980   3.192
82928W        W49711  21.725  36.128   0.719
82929W        W49712  26.916  28.314   3.272
82930W        W49713  25.171  32.884   0.906
82931W        W49714   0.842  39.090   4.653
82932W        W49715  33.502   4.198  13.372
82933W        W49716  37.060  28.004   1.283
82934W        W49717  19.225  41.482  14.301
82935W        W49718  16.950  39.925   1.385
82936W        W49719  43.959  35.852  12.180
82937W        W49720  15.889  42.088  13.053
82938W        W49721  35.326   6.831   0.940
82939W        W49722  34.566   4.400  10.276
82940W        W49723  21.525   1.831   0.023
82941W        W49724  31.150  44.015  11.608
82942W        W49725  38.309  26.034   4.225
82943W        W49726  41.977  43.205   4.881
82944W        W49727  26.697  22.094   3.101
82945W        W49728  29.085  21.556   2.302
82946W        W49729   9.375  17.637  10.697
82947W        W49730  27.971   1.519   0.824
82948W        W49731  10.477  38.260  14.083
82949W        W49732  33.944  39.515  13.583
82950W        W49733  27.423  30.079   0.864
82951W        W49734  29.306  21.959  14.776
82952W        W49735  40.594  28.888  10.767
82953W        W49736  34.081   0.065   3.172
82954W        W49737  30.020  34.610   2.617
82955W        W49738  26.235  35.670  10.851
82956W        W49739  36.555  10.386  13.181
82957W        W49740  41.630  21.251  14.945
82958W        W49741  13.799  11.950  12.080
82959W        W49742  39.982  10.652  10.798
82960W        W49743  43.593  23.100   2.232
82961W        W49744   9.980  37.619  10.980
82962W        W49745  10.890   7.185  10.901
82963W        W49746  38.365   8.334   3.272
82964W        W49747  10.522  24.507  13.957
82965W        W49748   7.299  40.095  13.497
82966W        W49749  36.861  25.988   0.240
82967W        W49750   8.745  18.210  11.088
82968W        W49751  11.343   9.042  14.501
82969W        W49752  20.204   2.988  12.968
82970W        W49753  34.324  37.293  11.062
82971W        W49754  42.462  16.197   2.565
82972W        W49755  18.751   2.368  13.148
82973W        W49756   0.339  35.928  12.417
82974W        W49757  23.151  43.243   0.907
82975W        W49758  23.561  42.966  14.000
82976W        W49759   1.621  39.262   1.789
82977W        W49760   1.954  39.961   4.881
82978W        W49761   6.882  11.150  11.595
82979W        W49762  14.143  27.195  11.477
82980W        W49763  20.206  25.087   4.996
82981W        W49764  41.351  10.690  14.075
82982W        W49765  14.647   6.816  12.681
82983W        W49766  40.788  26.393  12.742
82984W        W49767  20.015  44.738   4.948
82985W        W49768  32.851  13.669  13.841
82986W        W49769  35.285  30.915  11.638
82987W        W49770   5.366  44.831  11.441
82988W        W49771  25.651  33.355   1.403
82989W        W49772   0.302  28.526  10.814
82990W        W49773  19.846  10.269   1.791
82991W        W49774  35.078  17.250  14.750
82992W        W49775  42.442   3.831   4.600
82993W        W49776  28.683  38.783   3.886
82994W        W49777   4.018  17.664  11.135
82995W        W49778  41.246   2.622  13.628
82996W        W49779  44.317  37.683   5.007
82997W        W49780  13.233   0.080   0.525
82998W        W49781  19.085   9.931   1.667
82999W        W49782  15.695  43.386  12.294
83000W        W49783  10.304  43.955  11.194
83001W        W49784   2.688  36.062  10.953
83002W        W49785  14.621   4.797   4.086
83003W        W49786  42.543  19.036  11.447
83004W        W49787  31.968  25.994   5.002
83005W        W49788  12.228   4.892   1.408
83006W        W49789  39.455   6.366  10.630
83007W        W49790   6.239  30.954  14.016
83008W        W49791  21.944   5.497   4.067
83009W        W49792  26.660   2.021  12.987
83010W        W49793  21.745  37.902   0.440
83011W        W49794  28.173   8.763   2.775
83012W        W49795  25.901  19.164   2.355
83013W        W49796  24.260  18.337   3.341
83014W        W49797  15.543  21.159  12.631
83015W        W49798  44.293  43.732   4.519
83016W        W49799   5.508  14.198   1.789
83017W        W49800  14.561  36.996  12.272
83018W        W49801  14.622  19.708  11.068
83019W        W49802  36.753  22.722   0.420
83020W        W49803   2.908  13.736   1.940
83021W        W49804  42.953  37.801   3.879
83022W        W49805  12.084  19.530  14.714
83023W        W49806  22.550  43.133  13.480
83024W        W49807   0.538  31.537   4.436
83025W        W49808   6.858  25.937   1.429
83026W        W49809  24.095  44.266  12.047
83027W        W49810  29.401   5.195   2.346
83028W        W49811  31.080  12.252  13.316
83029W        W49812  29.481  23.422   4.926
83030W        W49813  12.130  13.422  13.675
83031W        W49814  32.566  25.138  11.102
83032W        W49815  36.949   7.712  14.283
83033W        W49816  24.664  17.154   3.668
83034W        W49817  15.793   4.349   0.881
83035W        W49818  38.766  41.587  14.006
83036W        W49819   4.844  24.131  14.909
83037W        W49820  33.493   4.302   4.982
83038W        W49821  21.083  36.505  12.944
83039W        W49822  22.023  31.085  10.703
83040W        W49823  23.049   1.480   2.208
83041W        W49824   8.105  33.283   1.668
83042W        W49825  35.261  29.697  12.852
83043W        W49826  36.897  13.316  13.888
83044W        W49827  24.274  10.384  13.528
83045W        W49828  21.155  16.026  11.863
83046W        W49829  34.628  30.487  14.987
83047W        W49830  20.699  21.192   2.315
83048W        W49831  24.553  22.109  14.426
83049W        W49832  33.941   3.812   0.073
83050W        W49833  12.387  44.448   2.627
83051W        W49834  27.058   9.124  12.946
83052W        W49835  18.135  24.478   1.395
83053W        W49836  29.957   2.765  11.428
83054W        W49837  14.838  34.931   5.727
83055W        W49838  10.624  22.701  13.452
83056W        W49839   0.541  20.669   1.210
83057W        W49840  23.281   8.283  12.984
83058W        W49841  12.258  27.657  13.611
83059W        W49842  10.183  37.807  11.418
83060W        W49843  11.666  38.218   3.895
83061W        W49844  15.456  26.252  11.162
83062W        W49845  19.708  25.485  10.556
83063W        W49846  36.004  29.036  10.791
83064W        W49847  39.278  44.641   0.627
83065W        W49848  26.226  19.203   3.658
83066W        W49849  22.776  38.322  14.049
83067W        W49850  32.845   4.759  13.211
83068W        W49851  40.824  20.518  11.131
83069W        W49852   6.389  19.943  11.674
83070W        W49853  18.807  10.828   4.357
83071W        W49854  13.132  21.454  10.852
83072W        W49855  31.889  39.538   4.121
83073W        W49856  13.728  27.972  10.710
83074W        W49857  14.979  17.944   9.953
83075W        W49858  17.530   8.408  12.153
83076W        W49859  26.045  19.082  14.227
83077W        W49860  24.197  17.462   3.622
83078W        W49861  21.091  12.750   0.464
83079W        W49862  24.368  29.894   0.919
83080W        W49863  23.788  28.436   1.868
83081W        W49864  30.224   9.675  14.034
83082W        W49865  19.143  43.772  11.638
83083W        W49866  39.984  21.746  14.187
83084W        W49867  36.593  22.704   1.754
83085W        W49868  15.165   6.862  12.629
83086W        W49869   5.437  12.887   3.503
83087W        W49870  14.112  40.247   2.761
83088W        W49871  21.575  24.513   1.205
83089W        W49872   4.180  15.120  11.167
83090W        W49873   8.654  33.406  11.595
83091W        W49874  36.568  40.515   4.584
83092W        W49875  25.155  41.265   2.170
83093W        W49876  38.449  36.834  12.447
83094W        W49877   8.775  32.677   4.096
83095W        W49878  14.142  18.187   2.330
83096W        W49879  10.201  33.361   1.963
83097W        W49880  27.121  29.236  12.655
83098W        W49881  21.574  23.257  14.420
83099W        W49882  18.547  39.168   1.851
83100W        W49883  11.006  13.555   3.458
83101W        W49884  16.388  38.959   4.596
83102W        W49885  35.674   8.237   3.705
83103W        W49886  14.022  14.787  12.016
83104W        W49887  31.495  39.513  10.738
83105W        W49888   7.096  16.654  12.522
83106W        W49889   4.200  30.568   3.310
83107W        W49890  22.083  31.512  11.623
83108W        W49891  26.019   3.200   1.958
83109W        W49892  31.666  11.418  13.484
83110W        W49893   3.172  10.963   2.172
83111W        W49894   1.399   0.908   4.163
83112W        W49895  35.564  40.329  12.807
83113W        W49896  36.462  15.489  10.416
83114W        W49897   9.928   6.474  13.498
83115W        W49898  40.246  32.988  13.392
83116W        W49899  22.770   2.819  14.953
83117W        W49900  28.569   3.907   2.343
83118W        W49901  37.750  43.559   3.681
83119W        W49902   5.848   6.677  11.617
83120W        W49903  32.864  18.574  14.897
83121W        W49904   5.630   1.740  13.097
83122W        W49905  28.424  30.046   1.853
83123W        W49906  29.175  35.735  14.411
83124W        W49907   1.043  12.662  10.024
83125W        W49908  35.988  32.332   1.358
83126W        W49909  43.367   3.383   3.097
83127W        W49910  18.569  13.027   4.484
83128W        W49911   2.744  18.614   2.850
83129W        W49912  14.639   7.394  11.587
83130W        W49913  19.354  24.170   4.766
83131W        W49914   1.364  10.450   4.109
83132W        W49915  37.767  16.618  11.968
83133W        W49916  10.318  19.499  12.029
83134W        W49917  29.653  18.179  13.731
83135W        W49918  15.091  32.879  13.487
83136W        W49919   1.553  31.673  11.424
83137W        W49920   4.247  21.663   2.883
83138W        W49921  26.748  37.315  13.657
83139W        W49922  10.037  27.196  12.453
83140W        W49923  24.090  21.274  12.182
83141W        W49924  31.216   4.233   0.362
83142W        W49925  10.333  18.334   1.436
83143W        W49926  17.065  43.440   4.775
83144W        W49927  29.418   7.871   1.800
83145W        W49928   3.296  27.500   3.702
83146W        W49929  20.908  30.694   3.695
83147W        W49930  34.890   2.745  12.361
83148W        W49931  24.678   0.098   1.768
83149W        W49932  20.971  15.073  10.247
83150W        W49933  40.836   5.700   1.003
83151W        W49934   4.848  44.334  14.519
83152W        W49935  24.161  16.636   3.885
83153W        W49936   2.758   9.812   4.608
83154W        W49937   9.801  18.338   4.710
83155W        W49938  14.030   6.628  14.532
83156W        W49939  36.707   6.370  11.752
83157W        W49940   3.690  35.018   3.606
83158W        W49941  15.447  22.872  11.146
83159W        W49942  22.744  15.161   0.024
83160W        W49943  14.922  18.786   1.643
83161W        W49944  36.381  24.085  12.396
83162W        W49945   9.430  27.511   0.794
83163W        W49946  44.307   1.947  10.996
83164W        W49947  10.413   9.861   2.741
83165W        W49948  32.747  36.552  10.522
83166W        W49949  19.268  44.956   0.474
83167W        W49950   5.938  10.913   0.885
83168W        W49951  26.621  36.349  13.435
83169W        W49952  37.060   4.829  12.905
83170W        W49953  22.902  16.906  10.304
83171W        W49954  40.597  13.774  14.003
83172W        W49955  31.292   2.976  12.515
83173W        W49956  39.252  26.056  11.716
83174W        W49957  14.248  36.418   1.107
83175W        W49958  19.786  10.126   4.625
83176W        W49959  36.784   2.984   0.470
83177W        W49960  33.704  23.584  13.451
83178W        W49961   0.325  33.911  11.334
83179W        W49962  13.130   5.848  11.631
83180W        W49963  43.571  44.294  12.488
83181W        W49964  20.419  31.655  14.852
83182W        W49965  10.251   3.260   3.193
83183W        W49966  14.242   9.528  14.794
83184W        W49967  23.466  14.692   3.271
83185W        W49968   4.471  32.503   0.504
83186W        W49969  20.528  33.549  13.551
83187W        W49970   3.795  12.775  13.420
83188W        W49971  43.716   5.493  14.326
83189W        W49972  43.562   2.490   2.277
83190W        W49973  29.483  17.797   1.596
83191W        W49974  18.436  16.237  14.360
83192W        W49975  43.045  18.705   4.637
83193W        W49976  14.099  33.774   3.308
83194W        W49977  44.519  35.897   0.897
83195W        W49978  13.244   2.035   4.540
83196W        W49979  13.407   4.841  11.095
83197W        W49980  16.124  33.304  14.500
83198W        W49981  44.202  21.567   1.289
83199W        W49982  33.539  34.041   9.896
83200W        W49983  22.228   3.513   2.205
83201W        W49984  19.898  34.515  12.640
83202W        W49985   0.551  29.166  11.606
83203W        W49986  41.066  26.411   4.107
83204W        W49987  17.309   7.763   3.984
83205W        W49988  17.247  30.914  12.182
83206W        W49989  13.403  35.450   0.503
83207W        W49990  37.610   7.493  12.046
83208W        W49991   3.515  13.111   4.043
83209W        W49992   4.781  23.742  13.307
83210W        W49993   9.813  24.717   1.483
83211W        W49994  18.646  14.883   3.269
83212W        W49995  11.419  26.843   4.149
83213W        W49996  35.632  16.204   2.084
83214W        W49997  18.652  44.495   4.596
83215W        W49998  44.371  26.973   3.357
83216W        W49999  35.061  23.601  14.979
83217W        W50000  18.715  41.874  12.083
83218W        W50001   2.308  22.676   0.954
83219W        W50002  35.352   9.162   2.218
83220W        W50003  31.131   9.793  13.856
83221W        W50004  16.445  16.988   0.836
83222W        W50005  31.900  39.306  13.949
83223W        W50006  29.207  28.376   3.301
83224W        W50007  13.794  42.688   3.374
83225W        W50008  41.738  19.360  13.423
83226W        W50009   0.345  40.419   3.429
83227W        W50010   3.870  40.762   3.392
83228W        W50011  22.081   7.607  13.554
83229W        W50012  34.013   7.140  11.846
83230W        W50013  44.521  39.268  12.391
83231W        W50014  34.544   1.484  14.238
83232W        W50015  38.738  24.773  12.605
83233W        W50016   4.826   0.218   4.407
83234W        W50017  40.795  15.409   2.228
83235W        W50018  42.485  19.104  13.903
83236W        W50019  16.277  32.488  12.749
83237W        W50020   1.513  29.686  12.605
83238W        W50021  28.211  39.977  10.293
83239W        W50022  20.445  18.850   1.958
83240W        W50023  29.503  26.107   1.977
83241W        W50024   4.317   5.772   2.586
83242W        W50025   6.956  33.690  13.021
83243W        W50026   8.679  38.152  12.873
83244W        W50027  14.943  27.139  13.951
83245W        W50028  15.078  16.070   4.401
83246W        W50029  32.768  34.007  10.618
83247W        W50030  16.149  16.765  10.814
83248W        W50031  42.431  39.652  14.165
83249W        W50032   2.696  16.526   2.776
83250W        W50033  15.612  41.264   3.165
83251W        W50034   9.941   0.621  13.243
83252W        W50035  34.605   5.291  12.899
83253W        W50036  31.499  12.306  12.023
83254W        W50037   3.429  39.155   0.900
83255W        W50038  25.468   2.064  10.658
83256W        W50039   9.980  44.728   3.245
83257W        W50040  34.418   5.977   1.033
83258W        W50041  21.964  32.500  14.053
83259W        W50042  32.040  13.312   3.085
83260W        W50043  27.593   6.489   1.493
83261W        W50044  30.019  30.135   0.356
83262W        W50045  41.871   3.858   2.363
83263W        W50046  10.547   9.289  12.840
83264W        W50047  41.335  16.836  10.707
83265W        W50048  32.508  23.006   5.431
83266W        W50049  29.384  18.709   1.771
83267W        W50050  22.696  21.092   2.194
83268W        W50051  20.028   0.937  10.659
83269W        W50052  32.484  23.707  13.571
83270W        W50053  19.725  21.285  10.468
83271W        W50054  12.351  39.994   2.722
83272W        W50055  26.584   8.756  10.122
83273W        W50056  41.893  10.445  13.424
83274W        W50057  19.854  31.252  14.159
83275W        W50058  40.391  44.794   2.796
83276W        W50059   0.479  38.857  12.590
83277W        W50060  30.630  23.134   0.745
83278W        W50061  39.070   8.424  11.055
83279W        W50062  26.618  13.179   0.842
83280W        W50063  16.780  43.323   3.763
83281W        W50064  14.583   2.600  12.085
83282W        W50065  13.269   1.811  13.452
83283W        W50066  16.055  10.734  13.103
83284W        W50067  43.017  23.601  13.017
83285W        W50068  25.735   2.398   4.593
83286W        W50069  39.995  35.554   2.283
83287W        W50070  19.162  23.934  13.550
83288W        W50071  37.335  32.825  14.933
83289W        W50072  24.412   6.174   1.947
83290W        W50073  17.325  20.101   0.269
83291W        W50074   0.887  20.164  14.703
83292W        W50075  29.947  31.958  13.897
83293W        W50076  12.338   1.920   0.906
83294W        W50077   1.241   9.694  13.825
83295W        W50078  22.518  34.721  13.775
83296W        W50079  35.567  36.730  12.409
83297W        W50080  12.765  15.803  13.384
83298W        W50081  29.626  32.187  12.939
83299W        W50082  22.833  38.920  12.951
83300W        W50083  24.992  15.765   1.395
83301W        W50084  15.272  32.405  14.554
83302W        W50085  41.746  28.576  14.881
83303W        W50086  23.207  25.998  13.625
83304W        W50087  20.678  41.398  13.071
83305W        W50088   7.426   5.355  13.289
83306W        W50089  33.134  35.983   1.585
83307W        W50090  13.318  13.216  11.537
83308W        W50091  22.012  27.992  11.505
83309W        W50092  40.730  13.249   2.170
83310W        W50093  14.199  28.947   2.200
83311W        W50094  22.668  14.675  14.917
83312W        W50095  27.654  42.367  11.179
83313W        W50096  23.831  35.732   1.200
83314W        W50097  43.016  25.211  14.896
83315W        W50098  14.616  16.101   4.614
83316W        W50099   0.017  38.402  13.136
83317W        W50100  26.352  29.732  10.721
83318W        W50101  32.799   5.546   1.686
83319W        W50102  43.217   4.483  11.966
83320W        W50103  18.795  20.328   4.238
83321W        W50104  11.956  33.958  12.505
83322W        W50105  34.423  32.841  12.035
83323W        W50106   8.207   2.259   1.948
83324W        W50107  22.166  42.013   0.974
83325W        W50108  11.320  39.551  14.982
83326W        W50109  42.850  15.801   5.408
83327W        W50110  34.018  43.987  12.064
83328W        W50111  18.677  40.512   3.567
83329W        W50112  27.776  29.155   2.661
83330W        W50113  26.513  42.993  12.927
83331W        W50114  16.541  12.140   4.630
83332W        W50115  18.305  41.593  13.504
83333W        W50116  13.262  16.269  14.808
83334W        W50117   3.871  39.779  11.656
83335W        W50118  29.961  31.434  13.057
83336W        W50119  41.411  10.790   1.431
83337W        W50120  19.359  19.276   3.552
83338W        W50121  11.775  17.551   3.268
83339W        W50122  44.018  41.567   2.173
83340W        W50123  22.974   5.469   0.385
83341W        W50124   8.930  10.831   0.023
83342W        W50125   0.502   7.789   0.225
83343W        W50126  14.266   0.785  12.880
83344W        W50127   9.154  24.297  13.926
83345W        W50128   7.690  39.792  10.925
83346W        W50129  37.790  22.985  11.100
83347W        W50130  28.079  22.705   0.259
83348W        W50131  24.493  44.791   2.222
83349W        W50132  28.909  23.172   1.325
83350W        W50133  44.904  28.465   1.298
83351W        W50134  15.072  37.285  11.679
83352W        W50135  34.016  13.753  13.729
83353W        W50136  27.095  17.839   0.309
83354W        W50137  16.816  41.210  12.621
83355W        W50138  30.110  16.400  14.668
83356W        W50139  20.701  36.677   1.082
83357W        W50140   1.915   3.904  14.257
83358W        W50141  41.022  40.512  13.073
83359W        W50142  17.652  39.001   0.260
83360W        W50143  36.938   2.854   4.757
83361W        W50144   0.307  12.805   2.613
83362W        W50145  28.595  29.168   1.906
83363W        W50146  21.284   2.915  14.729
83364W        W50147  26.689  16.603   4.178
83365W        W50148   8.439  37.448  11.644
83366W        W50149   1.398   3.682  12.490
83367W        W50150  15.250  41.420  14.455
83368W        W50151  13.549  25.879   4.762
83369W        W50152   2.824  44.368   3.601
83370W        W50153   3.910  38.787  11.663
83371W        W50154  19.287  20.525   3.589
83372W        W50155  14.230   2.251   4.228
83373W        W50156  32.646  37.617   4.557
83374W        W50157  26.668  25.290  11.566
83375W        W50158   2.822  35.178  11.587
83376W        W50159  28.415  28.417  14.430
83377W        W50160  13.725  11.788  14.295
83378W        W50161   6.841  40.021   1.659
83379W        W50162   9.322  44.260   4.515
83380W        W50163  34.651   6.724   2.673
83381W        W50164  32.144   0.725   3.708
83382W        W50165  21.978  39.010  11.999
83383W        W50166   1.058   9.573   2.806
83384W        W50167  28.039  43.844   4.460
83385W        W50168  13.416   3.999  11.595
83386W        W50169  18.407  32.015   5.052
83387W        W50170  17.502  11.228   2.350
83388W        W50171   8.267  16.091  14.363
83389W        W50172  21.742  40.790  14.836
83390W        W50173  34.596  23.524  12.610
83391W        W50174  20.322   6.271  10.531
83392W        W50175  28.709  44.560  11.722
83393W        W50176  14.230  38.065  10.595
83394W        W50177  14.328   7.879  14.913
83395W        W50178  23.312  40.081   0.965
83396W        W50179   8.367  39.972  13.049
83397W        W50180  21.014  10.677   0.397
83398W        W50181  27.148  15.336   4.296
83399W        W50182  26.692   2.700  13.529
83400W        W50183  41.493  17.799   2.364
83401W        W50184  35.065  19.159   1.522
83402W        W50185  21.421  25.070   3.856
83403W        W50186  19.288  29.663  14.713
83404W        W50187  17.151  38.611   0.835
83405W        W50188  16.203  26.080  12.479
83406W        W50189  15.400   5.721   2.321
83407W        W50190  42.207   6.356   1.117
83408W        W50191  32.049  40.245  13.790
83409W        W50192  37.183  30.644   2.234
83410W        W50193  20.554   0.825   5.146
83411W        W50194  32.098  24.294   3.611
83412W        W50195  21.541  39.467  12.868
83413W        W50196  34.554  30.842  13.265
83414W        W50197  12.731  30.457   2.866
83415W        W50198  33.326   5.875   3.237
83416W        W50199  27.071  23.082   4.568
83417W        W50200   6.916  32.972  12.435
83418W        W50201  34.803  42.710   0.295
83419W        W50202  23.235  11.597  11.104
83420W        W50203   3.836   1.911  13.880
83421W        W50204  17.260  37.897   2.824
83422W        W50205  14.854  19.263  11.235
83423W        W50206  18.526  14.764  13.332
83424W        W50207  37.872   6.618   0.641
83425W        W50208   8.612  28.553   2.897
83426W        W50209  13.767  16.973  14.834
83427W        W50210  34.832   7.420   1.410
83428W        W50211  20.003  15.244   2.318
83429W        W50212   5.593  26.961  12.513
83430W        W50213  18.960  34.469   2.323
83431W        W50214  23.172  34.147   4.034
83432W        W50215  30.395   0.399   0.354
83433W        W50216  25.535  44.298  13.253
83434W        W50217  37.436  23.478  11.778
83435W        W50218   4.523  35.637  13.087
83436W        W50219  17.653  28.517  12.546
83437W        W50220  39.278  28.467   2.278
83438W        W50221  34.314  33.026  13.077
83439W        W50222  42.338  11.475   2.946
83440W        W50223  12.714  23.892  11.865
83441W        W50224  29.083  12.626   1.284
83442W        W50225  24.004   8.411  12.060
83443W        W50226  25.493  21.563   1.891
83444W        W50227  43.606   4.960   2.286
83445W        W50228  11.215  14.320   1.055
83446W        W50229   3.693  14.125  13.287
83447W        W50230  17.735  39.916   2.009
83448W        W50231   4.469  44.795   2.222
83449W        W50232  24.209  32.541   4.394
83450W        W50233   7.314  40.264   2.204
83451W        W50234  35.451   2.214   0.389
83452W        W50235  33.773  30.586  12.885
83453W        W50236   1.984  42.562  13.535
83454W        W50237  27.945   5.381  13.516
83455W        W50238   2.494  37.661   5.132
83456W        W50239  20.686  42.209   0.866
83457W        W50240  11.807   6.739   1.431
83458W        W50241  12.514  25.963  14.443
83459W        W50242   8.732   3.374   1.460
83460W        W50243   0.851  22.311  13.596
83461W        W50244  14.518  14.147  10.131
83462W        W50245   6.275  17.515   4.317
83463W        W50246   9.721  23.158  11.421
83464W        W50247   0.846  33.360  13.060
83465W        W50248  20.549  10.828   0.142
83466W        W50249  37.996  10.344   1.689
83467W        W50250  27.923   6.861  13.307
83468W        W50251  23.255  39.995   3.303
83469W        W50252  11.571  42.897  11.721
83470W        W50253  21.807  28.795  12.955
83471W        W50254  20.650  11.271  10.647
83472W        W50255   6.852   7.255   3.367
83473W        W50256  21.119  33.162  14.011
83474W        W50257  27.603  31.368  13.812
83475W        W50258  30.428  39.952   2.369
83476W        W50259   8.817  20.929   1.062
83477W        W50260  40.805   3.349  10.821
83478W        W50261  27.993  21.694   1.756
83479W        W50262   4.788  32.377   0.889
83480W        W50263   8.531  16.698  11.695
83481W        W50264  13.115  11.987   4.106
83482W        W50265  18.561  29.129  13.976
83483W        W50266   4.435  23.253   3.175
83484W        W50267  18.672  31.694  11.986
83485W        W50268  40.895   1.602   0.636
83486W        W50269  34.093  39.883   2.103
83487W        W50270  37.372  20.957  11.231
83488W        W50271  30.552  29.459  10.602
83489W        W50272   3.282  11.314  10.802
83490W        W50273  12.295  36.107  14.720
83491W        W50274   7.776  14.080  11.600
83492W        W50275  19.060  43.513  12.070
83493W        W50276  10.798  30.602   0.167
83494W        W50277  18.633  15.634   2.775
83495W        W50278  37.572   0.019   2.392
83496W        W50279  20.475  12.746  11.078
83497W        W50280  36.065  38.910  12.422
83498W        W50281  36.876  15.629  12.543
83499W        W50282  20.037  40.248   1.573
83500W        W50283  42.732  21.146  11.034
83501W        W50284   5.094  11.606  13.365
83502W        W50285  31.064  34.162   3.201
83503W        W50286  16.073  11.234   4.546
83504W        W50287  11.139  34.602   2.688
83505W        W50288  15.640  35.827   3.099
83506W        W50289  39.534   8.653  11.129
83507W        W50290  44.949   8.035   1.891
83508W        W50291  30.170  20.294   1.262
83509W        W50292  23.838  38.410   0.752
83510W        W50293   9.950   4.771   1.286
83511W        W50294  17.068  42.350  10.686
83512W        W50295   4.849  20.020   0.859
83513W        W50296  41.815   2.978   0.681
83514W        W50297  10.150  27.104  11.482
83515W        W50298  33.100  37.412  11.489
83516W        W50299   3.970  32.854  13.442
83517W        W50300  36.966  24.055   1.010
83518W        W50301  17.630   5.862   2.546
83519W        W50302  32.710   7.294  14.294
83520W        W50303  26.259  21.255   2.689
83521W        W50304  31.427  26.130   4.157
83522W        W50305  18.142  36.614   2.811
83523W        W50306  29.605  11.894  13.812
83524W        W50307  16.648  21.624  13.339
83525W        W50308   9.138  20.525  13.935
83526W        W50309  14.676  38.028  13.776
83527W        W50310   7.415  33.878  12.806
83528W        W50311  24.233  35.504   3.181
83529W        W50312   4.565  44.447  13.843
83530W        W50313  36.688  19.030  12.192
83531W        W50314  37.575  44.265  12.150
83532W        W50315  31.009  41.343  14.767
83533W        W50316  43.767  42.889   3.692
83534W        W50317  27.451   1.472  12.070
83535W        W50318  22.185   8.407   4.434
83536W        W50319  31.560  22.605  13.484
83537W        W50320  38.578   8.468   1.833
83538W        W50321   2.403  36.756   2.342
83539W        W50322  22.296  25.020   4.439
83540W        W50323   1.886  32.581  12.315
83541W        W50324  12.770  24.087  10.702
83542W        W50325   9.120  29.064   3.608
83543W        W50326  34.584  42.977   2.194
83544W        W50327  35.371  29.621   2.002
83545W        W50328  33.155  38.816   4.697
83546W        W50329   1.843   1.108   3.954
83547W        W50330  19.276  21.031   3.746
83548W        W50331   6.283  12.302   0.756
83549W        W50332  35.694  19.571   2.257
83550W        W50333  16.056  31.903  12.640
83551W        W50334  37.859  42.327  13.821
83552W        W50335   4.416  32.706  11.546
83553W        W50336  30.891  16.923  13.084
83554W        W50337  38.133   9.482   1.301
83555W        W50338  10.763  38.348  12.511
83556W        W50339   6.780  25.393   3.635
83557W        W50340   0.555  13.431  11.568
83558W        W50341  20.780  35.980  11.627
83559W        W50342  19.079  23.485   3.663
83560W        W50343  29.150   8.995   1.962
83561W        W50344  10.277   0.846   1.347
83562W        W50345  32.301   0.308   1.851
83563W        W50346   5.990  32.040  12.452
83564W        W50347  25.075  44.951  13.406
83565W        W50348  32.729   8.483   3.165
83566W        W50349  16.809  22.867  11.921
83567W        W50350   2.441   2.692  11.708
83568W        W50351  17.336  35.688   0.909
83569W        W50352  36.963  20.961   0.543
83570W        W50353   4.800  16.138   0.225
83571W        W50354  37.951  18.586   0.716
83572W        W50355  12.234  40.608  14.553
83573W        W50356  28.659  10.405  14.555
83574W        W50357  16.148  27.953   2.626
83575W        W50358  20.488  31.893  14.382
83576W        W50359  44.017  44.976  11.969
83577W        W50360  38.359  14.792   2.647
83578W        W50361  34.910   7.012  11.302
83579W        W50362  16.933   2.637   3.558
83580W        W50363   6.912  25.139   0.810
83581W        W50364  33.489  15.799  12.914
83582W        W50365  15.784  14.741   3.089
83583W        W50366   8.652   9.249   4.486
83584W        W50367  43.016  43.969  14.472
83585W        W50368   3.138   0.854  12.533
83586W        W50369  15.751  16.534  10.530
83587W        W50370   6.306  11.125  12.242
83588W        W50371   0.804  15.745  13.509
83589W        W50372   2.936  39.145   3.667
83590W        W50373  43.106  31.634  11.212
83591W        W50374  32.399  11.719  13.001
83592W        W50375   5.686   7.206  12.536
83593W        W50376  12.561   4.797  14.549
83594W        W50377  16.574  32.506   4.258
83595W        W50378  12.236  38.936  14.299
83596W        W50379  41.791  17.164   3.128
83597W        W50380  29.301  43.979  11.075
83598W        W50381  10.360  30.405  14.340
83599W        W50382  23.465  25.508  11.720
83600W        W50383  17.119  23.045  10.353
83601W        W50384   3.287  32.189  11.101
83602W        W50385   6.835  43.494  11.464
83603W        W50386  13.421  44.957   2.690
83604W        W50387  16.984   6.745   0.887
83605W        W50388  27.403  39.482  12.931
83606W        W50389  35.842  41.859  13.839
83607W        W50390  32.535  27.582   0.458
83608W        W50391  40.324  10.698  11.177
83609W        W50392  13.647  33.532   4.572
83610W        W50393  34.013  30.933   2.850
83611W        W50394  16.780  23.989   0.383
83612W        W50395  32.033   2.417   3.454
83613W        W50396  37.145  32.649   3.735
83614W        W50397  21.649  25.050   1.367
83615W        W50398  35.767  12.766   2.695
83616W        W50399  27.942   7.382  10.994
83617W        W50400  21.905  36.204  12.401
83618W        W50401  11.744   1.731  10.285
83619W        W50402   9.410  39.350   3.829
83620W        W50403  31.485   6.117   0.780
83621W        W50404  25.738  37.516   2.989
83622W        W50405  26.361  42.086  14.374
83623W        W50406  39.327   6.731  13.101
83624W        W50407   3.435  29.270  14.602
83625W        W50408  21.066  36.328   2.317
83626W        W50409  44.363  33.826  12.409
83627W        W50410  37.287  41.580   1.022
83628W        W50411   0.308   6.426  13.342
83629W        W50412  12.734  32.756  14.430
83630W        W50413   3.978  34.546  14.467
83631W        W50414  25.216  17.275  10.489
83632W        W50415  31.024  37.957  12.174
83633W        W50416   4.383  34.941   3.344
83634W        W50417  39.413  18.001   3.230
83635W        W50418  17.040  32.579   4.044
83636W        W50419  26.717  13.655   3.746
83637W        W50420  34.680  39.744   0.843
83638W        W50421   2.039  30.838   2.924
83639W        W50422  14.301  44.792  12.058
83640W        W50423  12.278  40.426   1.914
83641W        W50424  10.769   2.281  14.273
83642W        W50425  20.153  12.753   2.339
83643W        W50426  35.335  17.138   0.693
83644W        W50427  40.060  21.319   3.114
83645W        W50428   4.872   2.623  12.504
83646W        W50429  34.803   5.830   5.494
83647W        W50430  21.567  41.324   4.925
83648W        W50431  28.630  14.771  13.179
83649W        W50432  10.211   3.359  14.782
83650W        W50433  12.636  40.302   0.599
83651W        W50434  19.079  30.934  10.661
83652W        W50435  14.457  32.288  11.535
83653W        W50436  33.391   3.300   5.072
83654W        W50437  28.744  38.921  11.431
83655W        W50438  34.501  17.107  12.443
83656W        W50439  39.571  19.510  14.330
83657W        W50440  38.439  31.602   3.535
83658W        W50441  25.291  40.468   0.877
83659W        W50442  16.697   0.330  11.059
83660W        W50443   9.661   3.738   0.364
83661W        W50444  32.600  33.487   2.816
83662W        W50445  26.929   3.862  13.199
83663W        W50446  44.898   2.797   1.521
83664W        W50447  12.719  27.631   0.746
83665W        W50448  34.819   9.049  13.648
83666W        W50449  33.184  18.476  10.996
83667W        W50450  25.524  16.456  12.856
83668W        W50451  11.246  36.119  11.661
83669W        W50452  26.166  17.292   3.574
83670W        W50453  41.727  17.803  14.891
83671W        W50454  44.123  12.567   1.911
83672W        W50455  15.819  38.993  14.755
83673W        W50456  36.631   4.815   3.179
83674W        W50457  23.529  13.782   0.758
83675W        W50458  21.159  44.713   1.208
83676W        W50459  29.319  18.281   0.092
83677W        W50460  25.837  36.828  13.819
83678W        W50461  33.692  24.416  10.642
83679W        W50462  28.605  41.093   0.469
83680W        W50463  24.632  13.073  11.484
83681W        W50464   5.925  22.511  10.939
83682W        W50465  30.708   5.159   0.335
83683W        W50466   5.532  21.834  11.899
83684W        W50467  19.500  30.456   2.719
83685W        W50468  18.930  19.715  13.039
83686W        W50469   5.455   3.721   3.666
83687W        W50470  33.309   4.519  11.632
83688W        W50471  15.239   2.782   2.446
83689W        W50472  26.441   7.672   0.934
83690W        W50473   5.666  11.515   3.264
83691W        W50474  39.937  33.751  14.781
83692W        W50475   1.259  40.012   3.133
83693W        W50476  37.378   3.410  13.016
83694W        W50477   1.833  29.017  10.743
83695W        W50478  40.637  14.655  12.523
83696W        W50479   3.152   0.234   3.328
83697W        W50480  31.965   5.083   4.813
83698W        W50481  14.678  24.428   4.516
83699W        W50482   5.318  39.863   2.247
83700W        W50483  34.894   4.933   3.678
83701W        W50484  20.684  34.152  14.816
83702W        W50485   3.376  12.236  10.860
83703W        W50486  25.137  16.809   2.504
83704W        W50487  10.977   1.300   4.345
83705W        W50488  44.767  21.266  11.605
83706W        W50489   7.246  20.689  13.638
83707W        W50490   4.989  38.795   4.188
83708W        W50491  18.038   6.244   4.756
83709W        W50492  36.611   5.025  12.021
83710W        W50493   0.356  43.737   4.519
83711W        W50494  14.078  15.087  12.481
83712W        W50495  39.450  41.844   2.408
83713W        W50496  41.093  23.953   4.190
83714W        W50497   1.982  40.969  14.440
83715W        W50498  23.501  38.201   0.371
83716W        W50499   4.291   5.365   4.365
83717W        W50500  36.097  26.052   0.526
83718W        W50501  34.476   0.667  13.012
83719W        W50502  18.339  26.138  11.653
83720W        W50503  26.948  19.579  14.244
83721W        W50504   1.033  22.726   3.286
83722W        W50505  39.976  25.184  13.457
83723W        W50506  28.640  34.968  11.531
83724W        W50507  14.339  13.622  13.739
83725W        W50508  25.874  40.169  13.768
83726W        W50509   6.849  11.267   2.911
83727W        W50510  19.183   4.685  12.049
83728W        W50511  25.688  16.485  11.007
83729W        W50512   8.757  25.675   3.127
83730W        W50513  16.195  11.406  11.026
83731W        W50514  27.222  10.080   1.103
83732W        W50515  36.442   2.420   1.254
83733W        W50516   3.405  32.122  14.555
83734W        W50517  25.242   3.992   3.748
83735W        W50518  20.420   4.082  10.810
83736W        W50519   6.902   0.960   1.388
83737W        W50520  19.930  17.657  11.442
83738W        W50521  37.980  36.875   4.549
83739W        W50522   8.880  21.109   1.542
83740W        W50523  14.296  22.996  10.441
83741W        W50524  13.825  24.494   2.405
83742W        W50525  36.548  37.596  10.702
83743W        W50526  15.739  39.363   4.117
83744W        W50527  34.505  18.504   4.594
83745W        W50528  18.826  13.686  14.655
83746W        W50529   2.472  16.294  10.958
83747W        W50530  32.162  44.002   3.959
83748W        W50531  34.192  14.078   0.052
83749W        W50532  30.862  33.468  13.044
83750W        W50533  26.485  27.103   2.781
83751W        W50534  14.369  26.718   4.069
83752W        W50535  14.896  36.307   3.719
83753W        W50536   3.267  42.770  12.138
83754W        W50537   1.925   1.285   0.842
83755W        W50538  24.616  17.932   0.800
83756W        W50539  12.968  35.033  13.885
83757W        W50540  12.796  30.722  13.463
83758W        W50541  34.442  18.196   2.369
83759W        W50542  26.555  37.586  13.065
83760W        W50543  41.719  10.244  11.998
83761W        W50544  30.480  11.410  12.566
83762W        W50545  20.959  26.564   0.414
83763W        W50546  37.863  10.353  13.432
83764W        W50547  24.981   9.456   0.424
83765W        W50548  28.351  29.485   4.071
83766W        W50549  28.284  41.816   1.752
83767W        W50550  23.611  35.123  11.354
83768W        W50551  35.501   1.225  11.916
83769W        W50552   4.637  36.132  13.004
83770W        W50553   0.708  42.742  11.081
83771W        W50554  26.612  11.375   3.290
83772W        W50555  31.429   0.609  11.547
83773W        W50556  27.676  37.866   1.662
83774W        W50557  15.037  13.305   1.623
83775W        W50558  42.065  21.454   2.759
83776W        W50559  43.325  11.343  12.082
83777W        W50560  33.168  25.061  12.373
83778W        W50561  21.767  44.057  14.306
83779W        W50562  20.815  42.338   3.008
83780W        W50563  25.013  28.077   0.438
83781W        W50564  14.397   2.216  12.499
83782W        W50565  11.329  31.204  12.501
83783W        W50566  32.599  39.948  10.659
83784W        W50567  22.647  36.091   4.833
83785W        W50568  32.930  27.782   4.097
83786W        W50569   8.591  36.086   1.452
83787W        W50570   5.179  42.242   4.783
83788W        W50571  11.461  32.884   1.259
83789W        W50572  40.961   3.292   0.775
83790W        W50573  16.071   1.505  13.311
83791W        W50574  22.985  19.837   3.799
83792W        W50575  33.792  35.443  12.854
83793W        W50576  10.896  17.642   1.473
83794W        W50577  15.505  42.090   2.475
83795W        W50578  32.569  23.478   1.828
83796W        W50579  21.621  43.542   1.451
83797W        W50580  26.664  13.228  13.191
83798W        W50581   2.626  25.197   5.080
83799W        W50582  19.020  27.156  11.082
83800W        W50583  30.230   9.783   1.118
83801W        W50584  34.149  35.251   3.493
83802W        W50585   5.157  41.129  12.993
83803W        W50586  31.875   2.873   3.669
83804W        W50587  10.737  17.163  12.108
83805W        W50588   6.538  14.897  12.521
83806W        W50589   0.792  37.267   2.828
83807W        W50590  36.445  37.589  14.612
83808W        W50591  18.634   9.163  12.439
83809W        W50592  27.471   8.842   5.034
83810W        W50593  42.918   6.620   3.246
83811W        W50594   8.283  39.086   1.233
83812W        W50595  11.724  15.379   4.558
83813W        W50596   0.838  13.073  11.306
83814W        W50597  35.458   4.490  13.559
83815W        W50598   6.258  32.578  11.210
83816W        W50599  32.091  20.212  13.061
83817W        W50600   9.305  34.971   3.251
83818W        W50601  31.137  29.306   1.028
83819W        W50602   0.017  40.874  14.057
83820W        W50603  41.871   0.007   0.418
83821W        W50604  42.502   8.314  13.583
83822W        W50605  39.419  15.227   1.022
83823W        W50606  15.603  34.329   4.262
83824W        W50607  25.026   6.987  11.515
83825W        W50608  13.288  19.638  11.553
83826W        W50609  12.482   5.868  14.598
83827W        W50610  12.520   0.321  13.988
83828W        W50611  14.967  37.343   9.655
83829W        W50612  43.849  27.632  13.408
83830W        W50613  35.389   5.337  13.872
83831W        W50614  24.022  43.990  13.893
83832W        W50615  33.675  12.689  11.974
83833W        W50616  13.091  42.132   3.779
83834W        W50617  17.616   0.773  13.063
83835W        W50618  19.275  22.004   2.585
83836W        W50619  37.193  36.352   0.424
83837W        W50620  39.867  35.915   0.820
83838W        W50621  23.303  24.715   1.500
83839W        W50622  44.492  19.034   0.893
83840W        W50623  23.996  39.339  13.484
83841W        W50624  39.332  41.956  14.396
83842W        W50625  29.602  11.976  10.721
83843W        W50626  15.657  41.766  13.424
83844W        W50627  30.562  43.241  10.560
83845W        W50628  41.953  13.280   3.492
83846W        W50629  15.433  21.506  10.652
83847W        W50630  36.883  39.557  11.604
83848W        W50631  13.662  20.935   1.673
83849W        W50632   4.937  26.286  14.458
83850W        W50633  25.120  30.606   3.300
83851W        W50634  13.625   5.912   3.725
83852W        W50635  43.902  30.865   4.713
83853W        W50636  19.804  34.657   2.845
83854W        W50637  14.836   9.182   3.580
83855W        W50638   4.713  41.814  10.886
83856W        W50639  40.063  20.543  14.726
83857W        W50640  10.684   8.762  13.926
83858W        W50641  21.294   4.498  14.378
83859W        W50642  11.339  36.352   1.768
83860W        W50643  14.148  19.204   0.413
83861W        W50644  21.751  19.198   0.562
83862W        W50645  29.479  21.082   2.892
83863W        W50646  25.583  12.635  10.330
83864W        W50647  42.499  25.987   2.097
83865W        W50648  43.434  36.015   4.144
83866W        W50649   4.390  32.918   2.716
83867W        W50650  14.031   4.833  14.551
83868W        W50651  36.800  34.995   0.216
83869W        W50652  27.715   6.687  12.033
83870W        W50653  12.789  24.133   1.863
83871W        W50654   1.688  28.712  12.493
83872W        W50655  31.493  18.178  13.335
83873W        W50656   5.120   6.140  14.059
83874W        W50657  31.869  17.202   2.169
83875W        W50658  32.610  30.452   4.831
83876W        W50659  30.448  39.061   0.441
83877W        W50660   3.929   8.798   3.405
83878W        W50661  34.982  44.873  13.088
83879W        W50662  14.134  34.587   2.740
83880W        W50663  36.583  33.193   3.625
83881W        W50664  13.761  21.563   4.820
83882W        W50665   5.910  33.120  14.843
83883W        W50666  43.883   6.746   2.774
83884W        W50667  19.331  25.557   2.783
83885W        W50668   3.683   0.439  11.168
83886W        W50669  27.340  32.959  14.322
83887W        W50670   9.787  20.674   1.367
83888W        W50671  17.534  36.260  10.196
83889W        W50672  23.654  32.015  14.031
83890W        W50673  36.445  30.775  12.083
83891W        W50674  10.655   5.424  11.076
83892W        W50675  27.444   1.409   3.210
83893W        W50676  41.760  43.824  12.931
83894W        W50677  40.148  18.447   0.375
83895W        W50678   8.388  25.878  11.572
83896W        W50679  16.600  21.110   0.924
83897W        W50680  18.596   0.298   4.118
83898W        W50681  33.564   9.609  12.124
83899W        W50682  13.839  37.051   3.971
83900W        W50683  31.388  18.069  13.856
83901W        W50684   3.973  30.499  13.889
83902W        W50685  32.054   3.701   1.919
83903W        W50686  44.493  26.558  11.740
83904W        W50687  27.516  30.146   2.734
83905W        W50688  35.327   6.301   3.689
83906W        W50689  38.860  42.032   0.448
83907W        W50690  42.541  32.445  10.818
83908W        W50691  39.805  41.221  14.992
83909W        W50692  42.570  40.232  14.945
83910W        W50693   0.022  32.556   2.369
83911W        W50694   4.295  22.208   1.643
83912W        W50695  40.386  12.788   5.123
83913W        W50696  24.048  42.772  11.131
83914W        W50697  39.816  28.885   4.211
83915W        W50698  41.545  13.170   0.814
83916W        W50699  11.123  23.804  13.773
83917W        W50700  38.981  37.299  12.090
83918W        W50701  29.372  38.455  14.199
83919W        W50702  18.571   3.474   3.581
83920W        W50703  40.038  17.505  12.523
83921W        W50704  26.577  21.002  13.463
83922W        W50705  24.648  22.991  12.679
83923W        W50706  43.815   4.538   0.325
83924W        W50707  16.522  26.198  12.880
83925W        W50708   6.021  41.435   3.272
83926W        W50709  35.338   7.463  10.711
83927W        W50710   1.375  23.629  13.461
83928W        W50711  34.907  15.292   2.204
83929W        W50712  20.074   2.931   5.043
83930W        W50713   8.445  17.983   0.352
83931W        W50714  10.886  15.125  14.920
83932W        W50715  35.226  20.043   3.960
83933W        W50716  34.594   3.236   3.830
83934W        W50717  28.872   0.694   0.502
83935W        W50718   8.403  24.660  11.932
83936W        W50719  41.323   8.904  13.512
83937W        W50720   7.375  34.306   2.520
83938W        W50721  27.712  40.808  11.621
83939W        W50722  17.301  43.799  14.496
83940W        W50723  12.078  29.072  12.462
83941W        W50724  27.717  26.682   0.042
83942W        W50725  11.249  38.704   5.854
83943W        W50726   5.394  39.209   1.718
83944W        W50727  30.126   7.407  11.558
83945W        W50728  15.601  19.376  11.721
83946W        W50729  21.819  25.381   3.749
83947W        W50730  17.593  22.937   1.863
83948W        W50731  36.273  41.175  13.456
83949W        W50732  19.759  31.730   4.805
83950W        W50733  12.751  37.559   1.691
83951W        W50734   6.688  20.506   2.705
83952W        W50735  12.762  25.190   1.794
83953W        W50736  25.942   8.418   0.432
83954W        W50737  41.544  14.119   0.769
83955W        W50738  20.926  29.362   4.163
83956W        W50739  26.404  18.551  14.960
83957W        W50740  37.453  34.139  12.132
83958W        W50741   7.829   9.079  14.997
83959W        W50742  20.986  42.390  14.978
83960W        W50743  34.387  40.976  11.881
83961W        W50744  35.606  24.711   0.936
83962W        W50745  29.076  17.335  12.571
83963W        W50746  16.495  33.052   0.420
83964W        W50747   6.984   9.182  12.841
83965W        W50748  44.387  44.542   3.427
83966W        W50749  17.133  39.929   0.353
83967W        W50750  23.353  41.847   2.285
83968W        W50751  17.825  12.131  14.102
83969W        W50752  32.661  25.166  14.929
83970W        W50753  34.122  34.608  14.380
83971W        W50754  35.796  34.875   2.318
83972W        W50755   9.799  14.464   4.690
83973W        W50756  24.709   7.853  12.246
83974W        W50757  17.104  42.483  14.971
83975W        W50758  13.700  41.731   0.378
83976W        W50759  32.089  29.436   4.924
83977W        W50760  20.532  15.865   3.598
83978W        W50761  24.730  36.993   4.211
83979W        W50762   5.018  31.930   0.760
83980W        W50763  35.342  25.984   4.211
83981W        W50764  30.665  43.032   3.752
83982W        W50765  30.488   9.158  11.185
83983W        W50766  10.913  22.729   2.391
83984W        W50767  44.513  40.478  12.991
83985W        W50768   5.524   2.437   0.015
83986W        W50769  12.069  18.656   0.075
83987W        W50770  36.109  39.609  12.014
83988W        W50771  39.134  30.814   9.924
83989W        W50772  39.118  22.950   4.848
83990W        W50773  40.211   5.929  14.334
83991W        W50774  39.795  36.826   2.167
83992W        W50775   5.234  38.279  12.164
83993W        W50776  15.444  13.819  12.878
83994W        W50777  38.891  22.664   3.864
83995W        W50778  17.139  20.561   2.805
83996W        W50779  31.009   6.196   2.752
83997W        W50780  14.204  30.962  13.650
83998W        W50781  16.685  24.532   0.305
83999W        W50782  41.581  29.770  12.085
84000W        W50783  22.643   3.806   2.377
84001W        W50784  12.205  28.097   3.004
84002W        W50785  35.853  11.303  11.053
84003W        W50786  10.935  39.412  11.139
84004W        W50787  44.267  11.707  12.502
84005W        W50788   4.499  41.264  10.251
84006W        W50789   5.363  38.354   2.462
84007W        W50790   8.265  42.960  10.883
84008W        W50791  11.763  27.726   0.688
84009W        W50792  13.388  29.477   2.541
84010W        W50793  10.967  27.565  14.346
84011W        W50794  35.965   0.518   2.877
84012W        W50795  14.756   7.663  12.148
84013W        W50796   2.629  19.787  14.236
84014W        W50797  33.707  19.401  14.021
84015W        W50798  20.254  16.266  12.117
84016W        W50799  21.116  43.782   3.650
84017W        W50800  31.372  36.553  11.209
84018W        W50801  39.113  25.748   2.401
84019W        W50802  32.325  34.814   1.690
84020W        W50803   7.705  17.684  13.845
84021W        W50804  20.442  16.302   2.722
84022W        W50805  13.223  21.047   1.921
84023W        W50806  25.739   0.802  12.511
84024W        W50807  21.887  39.341   4.263
84025W        W50808  22.209  10.192  12.005
84026W        W50809  23.002   6.409   0.496
84027W        W50810  31.334  33.861   2.868
84028W        W50811  34.600  29.263   0.466
84029W        W50812   5.662  43.423  13.893
84030W        W50813  27.387  26.562  11.476
84031W        W50814  30.678  38.833   1.409
84032W        W50815  16.186  17.605  13.136
84033W        W50816  43.421  27.656  14.768
84034W        W50817  13.396   2.771   2.647
84035W        W50818   1.880  17.512  14.348
84036W        W50819  39.337  33.705   2.727
84037W        W50820   7.790  22.530   0.925
84038W        W50821  32.574  37.716  14.312
84039W        W50822  16.337  32.907   4.496
84040W        W50823  32.689  43.927  14.349
84041W        W50824  12.663  35.978  10.800
84042W        W50825  15.284  41.048   1.851
84043W        W50826  17.093  19.969  10.761
84044W        W50827  32.219  13.030  11.817
84045W        W50828   7.174  21.066  14.787
84046W        W50829  12.588  41.874  13.857
84047W        W50830   3.790  18.033  11.416
84048W        W50831  14.193  33.497  14.995
84049W        W50832   7.350  42.541   3.351
84050W        W50833  39.966  20.472  12.627
84051W        W50834  17.548  32.787  13.019
84052W        W50835   6.955  25.367  10.786
84053W        W50836  31.505  23.043   2.717
84054W        W50837  22.126  42.435   2.732
84055W        W50838   8.595  19.551  13.438
84056W        W50839  10.761  16.723  11.573
84057W        W50840  32.052   1.441   1.912
84058W        W50841   6.309   1.727  12.677
84059W        W50842  41.775   3.450   1.542
84060W        W50843  42.337  10.182  14.548
84061W        W50844   8.161  30.473  13.878
84062W        W50845  36.786  10.887   0.683
84063W        W50846  42.758  27.005   4.527
84064W        W50847  40.196  33.106   4.975
84065W        W50848   5.677  12.305   4.665
84066W        W50849  21.993   7.914   2.898
84067W        W50850  29.256  19.735  12.157
84068W        W50851  24.217   8.693   5.024
84069W        W50852   3.735  31.132   4.629
84070W        W50853  23.704  16.548   3.658
84071W        W50854  41.726   7.652   1.238
84072W        W50855  39.850  15.778   3.619
84073W        W50856   2.389  12.825   3.349
84074W        W50857  18.118   2.239   4.695
84075W        W50858  10.643  21.242   2.488
84076W        W50859  25.603  16.404  14.246
84077W        W50860  38.542   3.369  14.318
84078W        W50861  32.808  14.131  13.592
84079W        W50862  27.971  30.051   0.784
84080W        W50863  20.027  37.756  12.946
84081W        W50864  27.417  24.548  14.278
84082W        W50865   7.434  37.055  13.644
84083W        W50866  33.930  36.446  12.921
84084W        W50867  29.848  22.421   1.777
84085W        W50868   9.082  24.230   3.746
84086W        W50869   4.304  35.596   0.754
84087W        W50870  15.322  24.290  12.802
84088W        W50871  13.177  42.951  10.423
84089W        W50872  38.091  18.299   0.290
84090W        W50873  13.059  40.047  11.346
84091W        W50874  30.719  20.907  11.199
84092W        W50875  43.136   2.169   4.973
84093W        W50876  34.675  36.027   2.253
84094W        W50877  11.618  39.728   3.144
84095W        W50878  34.851  26.873   4.228
84096W        W50879   0.867  40.069  12.407
84097W        W50880   6.652  44.810  13.030
84098W        W50881  33.555  33.413   3.635
84099W        W50882  41.883   0.768  11.503
84100W        W50883  10.370  13.114  12.912
84101W        W50884  44.765  28.339  12.081
84102W        W50885   8.906  15.331  14.506
84103W        W50886  10.263  20.548  12.006
84104W        W50887  31.662  36.916   1.199
84105W        W50888   8.343  11.386  12.474
84106W        W50889   3.517  38.562  10.473
84107W        W50890  29.652   3.819   1.438
84108W        W50891  28.348  17.745  14.833
84109W        W50892   7.404  22.049  12.575
84110W        W50893  13.049  25.584  13.088
84111W        W50894   5.497  36.410   3.844
84112W        W50895  40.866  37.604   0.511
84113W        W50896   1.286  38.780  14.519
84114W        W50897   3.642   3.817  11.982
84115W        W50898  15.027  38.525   0.330
84116W        W50899  33.682  35.837  12.013
84117W        W50900  40.821  30.427   2.887
84118W        W50901  10.765   2.537  11.904
84119W        W50902  19.301  32.284   1.760
84120W        W50903  30.419  27.043  13.959
84121W        W50904  36.847  10.641  11.650
84122W        W50905  40.515   1.366   1.395
84123W        W50906   1.050  12.618   0.015
84124W        W50907  35.453  28.633   3.644
84125W        W50908  25.198  22.808  12.800
84126W        W50909   9.635  17.613  13.325
84127W        W50910  25.558  40.374  12.544
84128W        W50911  10.682   0.412  14.400
84129W        W50912  31.938  32.561   2.003
84130W        W50913  34.337  24.732   0.474
84131W        W50914  19.125  41.764   0.456
84132W        W50915  29.514  32.895   2.274
84133W        W50916   4.418  17.232   2.742
84134W        W50917  33.414  13.856  12.948
84135W        W50918  17.066  11.307   0.431
84136W        W50919  13.855  34.238   1.755
84137W        W50920  30.091  27.291   4.504
84138W        W50921  32.049  18.636   0.252
84139W        W50922  13.688  32.692   3.717
84140W        W50923  43.359   1.317  10.673
84141W        W50924   0.812   2.277  13.463
84142W        W50925  37.849  23.866   4.425
84143W        W50926  24.012  22.171   2.863
84144W        W50927  38.286  11.594  10.299
84145W        W50928  36.432  29.835   1.184
84146W        W50929  37.832   2.339  11.294
84147W        W50930   5.149  13.598   4.573
84148W        W50931   8.913  10.607  12.062
84149W        W50932   7.114  30.896  10.695
84150W        W50933   4.887  43.570   0.951
84151W        W50934  44.730  31.145   2.765
84152W        W50935  17.538  28.559  11.502
84153W        W50936  43.099  41.351  10.747
84154W        W50937  27.445  14.254   0.370
84155W        W50938  27.684   0.765  13.449
84156W        W50939   8.658  37.497  11.160
84157W        W50940  14.820  33.069   3.252
84158W        W50941  40.543  32.950   2.884
84159W        W50942  26.987  28.570   1.466
84160W        W50943   4.484  43.189  10.548
84161W        W50944  21.629   5.831  14.489
84162W        W50945  43.386   5.127   2.764
84163W        W50946  41.911   0.434   3.342
84164W        W50947  36.591   6.297   5.418
84165W        W50948  37.397  32.686  12.917
84166W        W50949  21.997   6.381   1.761
84167W        W50950  19.491  19.199   1.941
84168W        W50951  40.425   4.689  14.046
84169W        W50952  11.505  38.483   1.810
84170W        W50953   6.362  43.695  11.483
84171W        W50954   8.184  18.758  12.455
84172W        W50955  33.881  42.831   1.990
84173W        W50956  34.289  20.083  13.321
84174W        W50957  42.379  38.468   0.351
84175W        W50958  38.418  31.114   3.691
84176W        W50959   4.060  21.166   2.265
84177W        W50960  22.502   1.430   0.525
84178W        W50961   9.007  29.591   1.698
84179W        W50962  10.572  39.644  13.606
84180W        W50963  38.506  25.058  11.463
84181W        W50964  39.137  36.892  12.927
84182W        W50965  14.413  35.020   2.596
84183W        W50966  36.464  23.224   2.664
84184W        W50967  22.104   7.026   4.685
84185W        W50968  29.868  43.731  12.548
84186W        W50969  37.396  13.382   2.321
84187W        W50970  34.789  28.739   1.356
84188W        W50971  13.453  26.187   4.098
84189W        W50972  16.485  22.817  10.104
84190W        W50973  26.584  31.404  13.509
84191W        W50974  34.380   6.057   4.464
84192W        W50975  26.746  27.367   2.403
84193W        W50976   2.849  14.054  12.035
84194W        W50977  34.162  29.520   0.271
84195W        W50978  18.317  38.816   0.944
84196W        W50979  42.336  11.588  12.886
84197W        W50980  10.637  16.660  12.073
84198W        W50981  10.750  27.728  12.373
84199W        W50982  37.252  36.383   4.642
84200W        W50983  36.610   3.704  13.396
84201W        W50984  12.138  26.826   4.053
84202W        W50985  15.024   7.942  13.150
84203W        W50986  27.131  15.349  12.513
84204W        W50987   7.119   9.274  13.331
84205W        W50988  33.587  34.913  12.141
84206W        W50989  42.774  33.027   3.403
84207W        W50990   9.415  21.259  11.022
84208W        W50991  30.666  37.897   3.386
84209W        W50992  40.014  16.347   4.204
84210W        W50993  37.023  30.695  12.797
84211W        W50994   3.818  32.299  11.116
84212W        W50995  20.167  18.791   4.356
84213W        W50996  24.633  32.475   1.675
84214W        W50997  29.360  11.824   0.693
84215W        W50998   8.622   7.437  12.455
84216W        W50999  38.879  30.608   4.539
84217W        W51000   6.478  44.301  14.402
84218W        W51001  43.084   0.438   0.706
84219W        W51002   6.495  43.810   0.529
84220W        W51003   8.485  28.646  10.851
84221W        W51004  19.681  18.592   5.091
84222W        W51005  29.317  29.886   1.809
84223W        W51006  12.350  40.739  12.528
84224W        W51007  14.646  17.703   0.880
84225W        W51008  25.994  21.586   4.100
84226W        W51009  29.448  34.383  12.424
84227W        W51010  19.228  27.057   2.646
84228W        W51011  33.002   9.396  14.926
84229W        W51012   9.516  24.675  13.962
84230W        W51013   5.228   2.694  13.681
84231W        W51014   5.550  11.851   2.785
84232W        W51015  31.800  31.906   4.053
84233W        W51016  22.490  20.015  13.885
84234W        W51017  10.255  38.736  11.677
84235W        W51018  42.393  31.864   4.585
84236W        W51019  43.927   9.426  12.105
84237W        W51020  14.916  23.183   1.693
84238W        W51021  30.207   0.636   0.804
84239W        W51022   2.422  23.435   3.431
84240W        W51023  28.986   7.237   2.755
84241W        W51024  25.742  32.294  13.069
84242W        W51025   1.221   4.656  10.634
84243W        W51026  22.496   6.890  13.878
84244W        W51027  24.591  31.657  11.842
84245W        W51028  13.861  24.484   1.480
84246W        W51029  39.824  28.112  12.922
84247W        W51030  39.040  17.134  13.502
84248W        W51031   5.591  11.461   4.190
84249W        W51032   2.471  29.457  12.963
84250W        W51033  13.301  21.060  12.679
84251W        W51034   3.685   8.601  14.015
84252W        W51035  13.099  28.231   3.640
84253W        W51036  36.793  27.105  12.532
84254W        W51037  15.364  18.899   0.860
84255W        W51038   7.869  36.850  13.336
84256W        W51039   5.751  19.239   4.094
84257W        W51040  17.726   5.399   0.466
84258W        W51041   3.434  14.782  14.774
84259W        W51042  24.565   9.320   2.646
84260W        W51043   2.013  19.217   0.167
84261W        W51044   0.296  22.740   2.408
84262W        W51045  27.030  21.931  13.888
84263W        W51046  30.137  18.587   1.687
84264W        W51047  15.185  36.548   2.512
84265W        W51048  44.968  19.596  13.936
84266W        W51049  28.021  13.535  13.864
84267W        W51050   1.031   8.877  13.030
84268W        W51051   0.807   6.350  11.018
84269W        W51052   0.725   2.484  14.389
84270W        W51053  14.146   5.944  10.838
84271W        W51054  26.185  38.781  13.082
84272W        W51055   6.374  42.787   4.662
84273W        W51056  18.646  40.551  10.511
84274W        W51057  38.484  40.361   2.815
84275W        W51058  34.240  15.192   0.381
84276W        W51059  31.555  28.757   1.690
84277W        W51060  19.714  28.593   3.192
84278W        W51061   5.017  21.430   0.677
84279W        W51062   5.945   0.818  14.295
84280W        W51063  17.460   7.411  13.430
84281W        W51064  35.065  19.172  14.822
84282W        W51065  17.676   2.914  10.682
84283W        W51066  11.343  21.269   0.694
84284W        W51067  23.180  15.453   4.099
84285W        W51068  15.121  23.380  14.818
84286W        W51069   0.800  34.866  10.721
84287W        W51070  44.826  29.462   4.111
84288W        W51071  36.030  24.789   1.233
84289W        W51072  21.310  15.716  11.459
84290W        W51073  43.464  15.440  13.839
84291W        W51074  17.564   7.961  11.445
84292W        W51075  13.753  26.712   2.832
84293W        W51076  33.059  22.869  12.033
84294W        W51077  38.483  21.497  12.496
84295W        W51078  12.196  40.924  12.072
84296W        W51079   1.945  40.415  11.958
84297W        W51080  37.507  24.673  12.417
84298W        W51081  40.806  12.280   4.861
84299W        W51082   5.984  31.378  11.574
84300W        W51083  40.399   0.346   1.141
84301W        W51084   8.815  42.381   4.687
84302W        W51085  24.429   0.732  14.414
84303W        W51086  11.532  27.505   1.447
84304W        W51087  41.118  13.728  14.064
84305W        W51088  15.604   8.444  14.466
84306W        W51089  25.024  17.068  12.854
84307W        W51090  21.633  44.865  11.107
84308W        W51091  40.056  38.407  11.061
84309W        W51092  40.897  33.722   1.324
84310W        W51093  16.811  40.107   3.228
84311W        W51094  23.429  24.306  10.630
84312W        W51095  14.377  37.970  13.372
84313W        W51096  35.376  35.031   3.174
84314W        W51097  38.563  38.962   4.329
84315W        W51098  32.359  36.313  13.181
84316W        W51099  16.979  44.605  11.955
84317W        W51100   8.510  17.759  14.879
84318W        W51101  43.501  27.179  11.269
84319W        W51102  25.418  15.839  10.309
84320W        W51103   6.151  35.878  13.313
84321W        W51104  30.508  14.697  11.577
84322W        W51105  23.246  30.952  13.832
84323W        W51106  16.144  40.322   4.008
84324W        W51107  22.105   1.412  12.434
84325W        W51108  28.174  41.039   1.114
84326W        W51109  10.228  31.658   3.530
84327W        W51110  19.461  41.073   2.749
84328W        W51111  25.979  22.275   2.658
84329W        W51112  10.084  33.316   0.940
84330W        W51113   5.771   5.360  11.207
84331W        W51114  23.879  21.278  14.547
84332W        W51115  25.153  24.452  14.379
84333W        W51116  36.555  41.605  13.373
84334W        W51117  36.206  31.664  12.035
84335W        W51118  11.658  14.340  11.907
84336W        W51119  24.651  31.257   1.268
84337W        W51120  39.255  23.121  14.332
84338W        W51121  30.432   0.675  12.336
84339W        W51122  30.506  32.604  11.701
84340W        W51123  29.532  41.556  13.492
84341W        W51124   2.957  29.712  13.494
84342W        W51125  11.965  15.342  13.437
84343W        W51126   4.047  38.627  14.677
84344W        W51127   4.342  30.776  14.885
84345W        W51128   0.304  33.362   0.550
84346W        W51129   1.503   2.923   3.683
84347W        W51130  10.096  12.684  10.411
84348W        W51131  14.530  41.352   0.770
84349W        W51132  12.304  37.206  12.355
84350W        W51133  31.661  11.272  12.939
84351W        W51134  42.732  37.022  13.267
84352W        W51135  20.002  44.901   1.440
84353W        W51136  23.509  13.736   2.103
84354W        W51137  29.560   2.708  13.814
84355W        W51138  41.818  35.805   2.661
84356W        W51139  18.718  24.679  11.619
84357W        W51140  35.346   3.144   0.830
84358W        W51141  27.155  36.280  12.044
84359W        W51142  36.806  25.062   1.414
84360W        W51143  42.572  39.083  14.979
84361W        W51144  25.989   1.972  14.538
84362W        W51145   2.447  44.929  10.967
84363W        W51146  44.913  23.234  11.713
84364W        W51147  17.803   1.934   0.808
84365W        W51148  11.402   2.744   1.261
84366W        W51149   7.052  41.996   4.582
84367W        W51150  24.187  43.416   4.717
84368W        W51151  19.160  36.787  13.109
84369W        W51152   5.627  37.861  14.897
84370W        W51153  40.547  14.889   1.715
84371W        W51154  36.072  21.654  13.616
84372W        W51155  11.642  26.494  10.763
84373W        W51156  32.457   9.854  10.719
84374W        W51157  41.276  43.415  11.173
84375W        W51158  33.098  27.718   3.595
84376W        W51159  27.537  37.329   3.042
84377W        W51160   0.836  26.927   3.252
84378W        W51161  31.131  27.564   1.340
84379W        W51162  31.853  13.772   2.902
84380W        W51163   0.898  40.231   0.831
84381W        W51164  35.987   4.433   0.820
84382W        W51165  21.210  41.924   1.866
84383W        W51166  23.406  43.191   9.858
84384W        W51167  31.901  25.697  11.465
84385W        W51168   9.860   9.227   0.499
84386W        W51169  40.909  43.900   1.877
84387W        W51170   8.388  16.259   4.248
84388W        W51171  39.193  10.701  13.629
84389W        W51172  28.317  13.961  13.887
84390W        W51173  12.229  10.931  14.754
84391W        W51174  18.284  36.486  11.369
84392W        W51175  21.416  31.927   4.061
84393W        W51176  43.438  15.604  10.612
84394W        W51177   4.520  16.292   4.640
84395W        W51178   9.910  12.531  14.306
84396W        W51179  32.017   4.870  14.573
84397W        W51180  18.592  40.335  11.874
84398W        W51181  36.417  19.300   1.757
84399W        W51182  36.082  40.806   4.499
84400W        W51183  43.959   7.443  13.926
84401W        W51184  31.793  24.999  10.241
84402W        W51185  40.614   6.935   5.021
84403W        W51186  19.114  44.819  14.369
84404W        W51187  35.484  31.496  14.849
84405W        W51188  14.907  25.087  11.162
84406W        W51189  24.011  43.311   4.183
84407W        W51190  35.434  10.732  14.722
84408W        W51191  40.945   9.198  12.571
84409W        W51192  27.980  26.627   0.497
84410W        W51193  31.645  14.768   0.362
84411W        W51194   4.180  29.034   2.264
84412W        W51195  35.567   6.264  13.960
84413W        W51196  22.223  37.611   4.084
84414W        W51197  11.241  13.142  12.919
84415W        W51198   0.311  14.204   0.878
84416W        W51199  40.554  44.342   0.354
84417W        W51200  12.973  19.187  11.415
84418W        W51201  21.036  25.626   1.945
84419W        W51202  27.899  13.867   4.522
84420W        W51203   5.782  29.575  14.227
84421W        W51204  20.271  40.975  12.465
84422W        W51205  24.063  42.802   4.206
84423W        W51206  32.872   1.934   3.849
84424W        W51207  13.756  29.971   3.183
84425W        W51208  32.768  14.034   4.566
84426W        W51209   8.269  24.539   1.333
84427W        W51210  28.625  13.839   2.855
84428W        W51211  40.924   1.047   1.340
84429W        W51212   6.727   3.700  14.391
84430W        W51213  20.229  26.114   2.258
84431W        W51214   5.402  15.079  13.033
84432W        W51215  16.705  41.034   3.171
84433W        W51216  18.076  36.034  11.581
84434W        W51217  26.625  25.985  13.474
84435W        W51218  39.569  17.221  13.570
84436W        W51219  44.532  25.926  11.187
84437W        W51220  22.095  32.908  10.721
84438W        W51221  11.067  39.877  13.683
84439W        W51222  15.905   5.217  10.727
84440W        W51223  12.176  25.998   2.763
84441W        W51224   0.510  14.679   3.141
84442W        W51225  12.679  26.226   3.603
84443W        W51226  34.839   2.291   1.216
84444W        W51227  25.912  36.049  10.782
84445W        W51228  32.369  35.569   1.263
84446W        W51229  29.528  24.779   1.041
84447W        W51230  36.920  23.067  10.636
84448W        W51231  14.993   7.548   3.327
84449W        W51232  22.632  23.576   0.910
84450W        W51233  15.762  44.837   3.553
84451W        W51234   0.864  19.521   4.692
84452W        W51235  15.880  18.431   0.239
84453W        W51236  13.363  30.379  13.404
84454W        W51237  13.127  34.413   0.832
84455W        W51238  11.106   8.420   2.785
84456W        W51239  13.726  17.003   0.784
84457W        W51240  37.577  39.924   3.565
84458W        W51241  17.574  44.332   0.116
84459W        W51242   8.670  29.511  12.189
84460W        W51243  24.611  43.977  12.898
84461W        W51244  17.258  18.985  12.984
84462W        W51245  44.826  43.549   3.340
84463W        W51246  10.158  33.840   4.171
84464W        W51247  13.654  23.253   0.880
84465W        W51248  10.086   5.569  10.568
84466W        W51249  38.763  34.942   1.929
84467W        W51250  19.791  38.351  14.037
84468W        W51251  38.869  21.794   4.080
84469W        W51252  28.915  38.608  14.469
84470W        W51253  16.284  28.034  14.048
84471W        W51254   0.690  15.289   9.713
84472W        W51255  19.279  28.238  10.589
84473W        W51256  18.571  15.070   0.116
84474W        W51257  10.686  25.348   3.550
84475W        W51258  18.284   1.702   0.743
84476W        W51259  33.901  12.599  13.813
84477W        W51260  27.459  36.326  11.466
84478W        W51261  11.894   4.195   4.117
84479W        W51262   7.349   5.327   3.167
84480W        W51263   5.794  36.485  10.607
84481W        W51264  13.894   5.280  14.294
84482W        W51265  23.989  29.850  11.866
84483W        W51266   1.335  20.102  11.672
84484W        W51267  33.164  11.848  12.475
84485W        W51268  19.211  40.736  13.038
84486W        W51269  10.923  44.544  14.567
84487W        W51270  18.761  20.100  11.164
84488W        W51271  12.649  39.100  10.443
84489W        W51272  35.177  20.225   1.787
84490W        W51273   8.895  35.737   1.226
84491W        W51274   6.358  32.717   0.386
84492W        W51275  44.092  28.558  13.393
84493W        W51276  37.780  41.449   1.127
84494W        W51277  35.870  10.673  10.592
84495W        W51278  19.253  42.850  14.457
84496W        W51279  17.715  27.978  11.650
84497W        W51280  15.275  14.221   2.967
84498W        W51281  14.081  14.698  13.919
84499W        W51282   4.010  41.334   2.865
84500W        W51283  30.063  35.652   0.202
84501W        W51284  20.076  37.281   2.312
84502W        W51285  13.208  23.170   1.177
84503W        W51286   8.984  23.438  14.001
84504W        W51287  15.356  14.074  12.431
84505W        W51288  12.231  16.624   3.409
84506W        W51289   3.510  17.656   1.240
84507W        W51290  44.745  43.886  11.446
84508W        W51291   3.903  39.278  10.782
84509W        W51292  28.129  24.625   1.621
84510W        W51293  34.337  36.605  13.811
84511W        W51294   4.849  35.735   3.156
84512W        W51295  43.281  10.071   2.246
84513W        W51296  15.543   7.715   0.773
84514W        W51297  13.710  32.126  14.488
84515W        W51298   3.926  29.517  13.895
84516W        W51299  20.292  23.909   2.437
84517W        W51300  44.666   7.704   2.184
84518W        W51301   3.373   1.051   3.363
84519W        W51302  33.296  39.481   4.249
84520W        W51303  16.294  22.787  12.567
84521W        W51304  42.097  35.865  14.759
84522W        W51305  40.793  10.906  11.122
84523W        W51306  39.158  30.471  13.947
84524W        W51307  32.278  18.893  10.930
84525W        W51308  22.125  35.106  14.514
84526W        W51309  14.838  23.752  12.422
84527W        W51310  35.461   5.993   3.272
84528W        W51311  35.855  23.346   2.146
84529W        W51312  24.968  12.669   0.637
84530W        W51313  35.104  27.987   2.415
84531W        W51314  41.730  33.365   4.198
84532W        W51315  18.197  35.940  13.450
84533W        W51316  34.408  14.577   2.303
84534W        W51317  21.807  13.372   1.933
84535W        W51318  29.512  39.995   5.895
84536W        W51319   0.757  20.222   3.182
84537W        W51320  15.682  26.216   2.234
84538W        W51321   3.690   6.847  12.443
84539W        W51322  14.983   2.752  13.958
84540W        W51323  26.468   9.548   2.144
84541W        W51324  26.537  17.140   0.551
84542W        W51325  31.615   8.852  12.892
84543W        W51326   9.307  21.724   1.796
84544W        W51327  23.715  12.276  11.978
84545W        W51328  11.282  15.221  14.067
84546W        W51329   0.343  19.975  14.014
84547W        W51330   6.698  23.489  13.597
84548W        W51331  23.439  14.277  12.145
84549W        W51332  35.916   2.716  10.749
84550W        W51333  43.002  20.290   1.244
84551W        W51334  25.801  13.720   2.812
84552W        W51335  21.676  22.745   0.254
84553W        W51336  32.479  16.998   2.648
84554W        W51337  41.262   0.247   1.222
84555W        W51338  26.302  41.902   0.989
84556W        W51339  36.159  23.713   5.074
84557W        W51340  34.953  13.699   0.464
84558W        W51341  40.810  15.266   3.282
84559W        W51342  14.504  37.527  13.158
84560W        W51343  11.497  13.323  14.537
84561W        W51344  41.041  35.630  14.814
84562W        W51345  42.409  12.369  11.963
84563W        W51346  38.420  40.556  12.205
84564W        W51347  40.949  30.085   2.242
84565W        W51348   7.662   3.846   2.478
84566W        W51349  26.718  10.369   4.108
84567W        W51350   1.472  43.469   3.975
84568W        W51351   3.589  34.766  12.819
84569W        W51352   4.911   7.647   2.521
84570W        W51353  36.117  44.526  14.963
84571W        W51354  17.479  34.577  12.867
84572W        W51355  33.103  16.885   0.379
84573W        W51356  40.795   8.115  11.540
84574W        W51357   3.886  12.637  14.979
84575W        W51358  19.823  26.438  10.359
84576W        W51359  19.287  37.235  14.840
84577W        W51360  31.603  31.402  11.563
84578W        W51361  21.239   5.741   2.868
84579W        W51362   6.116  37.562   3.685
84580W        W51363   0.526  25.946  12.349
84581W        W51364  33.952   9.594   2.034
84582W        W51365  24.646  13.093   2.944
84583W        W51366  37.098  41.842   2.645
84584W        W51367  16.574  11.896  14.032
84585W        W51368   1.898  27.253  11.198
84586W        W51369  26.996   1.422   3.494
84587W        W51370  42.505  13.865  12.896
84588W        W51371   9.777  42.484  14.014
84589W        W51372  25.738  35.563  10.710
84590W        W51373  10.394  18.731   0.984
84591W        W51374  25.893  28.484   0.815
84592W        W51375   8.708  32.880  13.173
84593W        W51376  31.022  25.007  13.420
84594W        W51377  19.715  32.181  14.027
84595W        W51378  12.333  11.000   5.202
84596W        W51379  17.715  10.848   0.708
84597W        W51380  19.196  35.294  13.073
84598W        W51381  38.775  43.840  14.331
84599W        W51382  41.707  36.532   3.214
84600W        W51383  32.571  32.809   2.237
84601W        W51384   3.897   8.628   0.411
84602W        W51385   3.248  23.618  14.296
84603W        W51386   4.403   8.872  10.453
84604W        W51387  42.207   1.983   2.585
84605W        W51388  43.891  16.029   3.230
84606W        W51389  15.707  39.975  13.679
84607W        W51390  35.646  24.806   4.865
84608W        W51391  26.949   7.486  11.460
84609W        W51392   3.203   5.451  14.541
84610W        W51393  20.627  35.397   0.448
84611W        W51394  44.498  18.100  12.144
84612W        W51395  30.392   1.118  13.193
84613W        W51396  24.058  16.576   4.906
84614W        W51397  30.867   5.119   3.907
84615W        W51398  19.792   5.374  10.130
84616W        W51399  33.857   0.316   1.320
84617W        W51400  15.965   0.573   1.687
84618W        W51401  42.914  27.499   4.594
84619W        W51402   0.738   6.783   0.859
84620W        W51403  10.152  17.280  10.611
84621W        W51404   6.690   4.418  10.622
84622W        W51405  19.018  12.808   4.235
84623W        W51406   9.897  30.193  12.860
84624W        W51407  29.392  27.080   1.797
84625W        W51408  38.428  43.494   4.578
84626W        W51409  39.054  14.258   4.951
84627W        W51410  14.069  41.192   2.729
84628W        W51411  15.862   8.112  14.871
84629W        W51412  20.015  12.810   2.833
84630W        W51413  22.133  39.477  11.779
84631W        W51414  40.847   9.577  10.388
84632W        W51415   8.654   4.894   3.651
84633W        W51416  27.871  22.784   1.773
84634W        W51417  23.665   2.434  13.580
84635W        W51418   4.332  40.018   3.124
84636W        W51419   6.199  13.678  11.055
84637W        W51420   6.542  37.946   0.750
84638W        W51421  40.612  39.822  14.919
84639W        W51422  15.744  21.776   0.025
84640W        W51423  24.105  17.356   3.118
84641W        W51424   4.431  24.779   2.804
84642W        W51425  27.658  36.085  13.924
84643W        W51426  27.234  29.075  13.908
84644W        W51427   4.634  18.945   4.059
84645W        W51428  14.060  26.980  13.036
84646W        W51429   4.145  42.889  11.743
84647W        W51430  36.799  25.725  11.191
84648W        W51431  24.404   7.895  14.912
84649W        W51432  18.434   6.365   5.079
84650W        W51433   8.083   0.755   4.981
84651W        W51434  15.341  28.427  12.128
84652W        W51435  36.074  22.692  11.439
84653W        W51436  13.061  40.041  12.847
84654W        W51437   1.453  34.538   1.301
84655W        W51438  31.925  26.100  13.065
84656W        W51439  24.761  35.591   0.284
84657W        W51440  29.445  37.285   0.696
84658W        W51441  11.280  25.896  12.358
84659W        W51442  33.566  15.214  14.817
84660W        W51443   6.188  22.465  14.540
84661W        W51444  24.558  38.999  12.191
84662W        W51445   8.059  32.491   1.748
84663W        W51446  38.930  23.801  14.823
84664W        W51447  36.394   2.305  10.725
84665W        W51448  37.831   3.441   2.242
84666W        W51449   6.572  32.427  14.013
84667W        W51450  27.452  40.335   3.138
84668W        W51451  29.622  29.439   2.863
84669W        W51452  29.399  16.772   0.686
84670W        W51453  20.644   1.689   0.558
84671W        W51454  39.554  19.077   3.202
84672W        W51455  10.020  24.598  13.879
84673W        W51456  24.701  33.816  13.109
84674W        W51457   7.362  30.592  14.403
84675W        W51458  19.802   7.609  12.445
84676W        W51459  13.731   7.549   2.769
84677W        W51460  39.338   6.194  11.989
84678W        W51461  17.712  11.176  10.550
84679W        W51462  36.334  40.559  13.726
84680W        W51463  32.167  16.133  13.109
84681W        W51464  38.559   2.326   4.306
84682W        W51465  21.996  41.570   1.768
84683W        W51466  31.060  18.528   4.948
84684W        W51467  25.343  32.819  12.507
84685W        W51468   6.788  22.257  11.132
84686W        W51469   0.549  10.313   4.621
84687W        W51470  23.668  32.536  11.632
84688W        W51471  10.934  28.198   1.668
84689W        W51472  15.663  31.752   0.307
84690W        W51473   6.277   0.006  13.606
84691W        W51474  23.899  28.535   4.738
84692W        W51475  26.888  24.689   4.532
84693W        W51476  42.335  29.483  12.704
84694W        W51477  28.345  43.058   4.326
84695W        W51478  41.740  28.377   1.060
84696W        W51479   2.406   9.631   2.579
84697W        W51480  38.765   3.261  13.835
84698W        W51481   5.679  44.987   2.796
84699W        W51482  42.220   7.693  12.901
84700W        W51483  31.884  34.791  10.727
84701W        W51484  26.921  16.869  12.583
84702W        W51485  23.190  29.142   1.175
84703W        W51486  37.614   3.462   4.518
84704W        W51487  36.783  31.407   0.195
84705W        W51488  42.569  29.530   2.802
84706W        W51489  34.896  29.640   1.743
84707W        W51490  15.985  40.920  12.531
84708W        W51491  30.204  41.913   2.119
84709W        W51492   5.022  35.395  12.579
84710W        W51493  36.167  41.075   4.050
84711W        W51494  24.704   0.583  11.197
84712W        W51495  11.561  21.573   3.506
84713W        W51496  41.954  32.956   0.455
84714W        W51497   3.790   9.279  13.499
84715W        W51498   1.013  40.097  13.987
84716W        W51499  11.356  17.564   1.267
84717W        W51500   0.346  43.179  11.830
84718W        W51501  31.595  42.906   1.339
84719W        W51502  23.890  41.486  10.871
84720W        W51503  17.286  12.602   4.656
84721W        W51504  20.515  38.783   3.816
84722W        W51505  11.733  32.128  14.968
84723W        W51506  44.943  14.594   2.696
84724W        W51507  15.474  16.377  13.190
84725W        W51508   8.298   5.873  11.450
84726W        W51509  22.093  20.121   1.909
84727W        W51510   6.982  13.448   4.890
84728W        W51511  20.096  43.764   3.568
84729W        W51512  38.426  24.311  10.988
84730W        W51513   9.351  14.353  10.980
84731W        W51514  12.931   0.249  14.837
84732W        W51515  17.726  35.592   4.931
84733W        W51516  11.704   8.203  12.133
84734W        W51517   6.408  10.659  12.080
84735W        W51518  44.462  24.149  11.987
84736W        W51519   0.312   7.387   0.575
84737W        W51520  12.738  14.520  12.635
84738W        W51521  13.249  27.310   3.219
84739W        W51522  42.908  29.522  10.442
84740W        W51523  25.679  10.208  13.484
84741W        W51524  13.745  10.869   4.120
84742W        W51525  31.686  29.884   0.344
84743W        W51526  41.283   4.464  14.232
84744W        W51527  43.642  13.035   4.710
84745W        W51528   7.797  41.857  12.076
84746W        W51529  17.730  16.362  12.647
84747W        W51530  28.919  38.567   5.008
84748W        W51531  14.655  16.543   2.319
84749W        W51532  42.121  23.169  14.454
84750W        W51533   3.336  34.578   4.808
84751W        W51534  21.031  41.562  10.589
84752W        W51535  29.619  38.452  14.693
84753W        W51536  44.261   3.478   3.638
84754W        W51537  34.557  34.506  11.109
84755W        W51538   9.320  28.683   0.016
84756W        W51539   4.706  38.392   1.779
84757W        W51540  14.350  11.231  12.547
84758W        W51541  13.847  26.079  12.300
84759W        W51542  27.194  22.100  11.959
84760W        W51543  37.882   4.305   2.686
84761W        W51544  41.804   8.441   2.327
84762W        W51545   0.453  27.196   2.109
84763W        W51546  23.513   8.373  13.444
84764W        W51547  19.080  26.007   2.736
84765W        W51548  26.026  14.877  11.613
84766W        W51549  18.801  10.850   2.778
84767W        W51550  35.522  18.104  14.396
84768W        W51551  13.834  23.594   3.690
84769W        W51552  12.231  13.438   1.359
84770W        W51553   8.287   8.399   3.162
84771W        W51554  18.347  20.413  11.926
84772W        W51555   2.048  34.596  10.444
84773W        W51556  14.536  16.336   3.153
84774W        W51557  22.139  32.520   2.401
84775W        W51558  29.666  35.567  12.051
84776W        W51559   8.837  19.382  11.511
84777W        W51560  28.450   6.719   4.869
84778W        W51561  17.744  39.365  11.648
84779W        W51562  15.230  30.850  12.500
84780W        W51563  21.031  32.344   4.991
84781W        W51564  22.728  36.692  12.149
84782W        W51565  26.277  17.933  12.940
84783W        W51566  37.119  24.169  13.336
84784W        W51567  26.846   0.199  13.303
84785W        W51568   8.156   6.138   1.923
84786W        W51569   1.739  29.170   2.835
84787W        W51570   9.355  44.280  11.470
84788W        W51571   2.519   5.555   2.420
84789W        W51572   4.785  15.598  14.055
84790W        W51573  31.232  27.958   1.698
84791W        W51574  16.300  15.088   3.934
84792W        W51575   7.699  39.801  11.462
84793W        W51576  16.208  26.494   0.788
84794W        W51577   1.139   9.284  12.587
84795W        W51578  21.232  22.633  13.110
84796W        W51579  32.139  14.767   3.123
84797W        W51580  12.277   4.164  11.185
84798W        W51581   6.826  31.866  12.304
84799W        W51582  34.815   4.814  11.563
84800W        W51583   3.114  16.135   1.929
84801W        W51584  41.254   5.647  10.306
84802W        W51585  14.031  20.451  12.279
84803W        W51586  29.890  24.606   2.843
84804W        W51587  12.219  13.233  13.178
84805W        W51588   5.271  28.956   0.718
84806W        W51589  11.335  37.388   1.814
84807W        W51590  34.404  29.187   3.681
84808W        W51591  14.706  43.251   3.312
84809W        W51592   8.099  14.421  10.288
84810W        W51593  30.893  14.042   0.898
84811W        W51594   3.096  39.928   2.404
84812W        W51595  33.528  22.527  12.669
84813W        W51596  29.716  38.394  10.690
84814W        W51597  43.029  23.241   1.350
84815W        W51598  37.708   0.458  12.324
84816W        W51599  10.665   0.557   4.264
84817W        W51600   7.163  44.888  12.062
84818W        W51601  28.001  15.855  12.357
84819W        W51602  42.054  24.839  12.060
84820W        W51603   8.400   8.015   0.434
84821W        W51604  38.429  33.444   3.569
84822W        W51605  22.720   5.478   1.301
84823W        W51606  22.095  42.456   4.375
84824W        W51607  14.726  13.809   2.920
84825W        W51608  16.403  27.084  11.675
84826W        W51609  12.669  43.707   0.304
84827W        W51610   9.841  17.220   3.223
84828W        W51611   1.339  17.678  13.504
84829W        W51612  38.859   3.810  14.820
84830W        W51613  23.158  18.828   3.842
84831W        W51614  17.139  10.100   0.917
84832W        W51615  33.932  28.084  13.495
84833W        W51616  30.007   7.898   4.606
84834W        W51617  12.339  25.760  10.818
84835W        W51618  44.746  34.582   2.403
84836W        W51619  27.505  17.541  14.307
84837W        W51620  36.536  14.973   4.454
84838W        W51621  18.808  22.662   2.159
84839W        W51622  18.682  37.614  12.864
84840W        W51623  23.198   3.893   0.265
84841W        W51624  25.725   4.464  13.375
84842W        W51625  40.676   9.682   1.755
84843W        W51626  21.446  14.219  14.488
84844W        W51627   9.592  33.413  13.789
84845W        W51628   1.743   4.283   3.881
84846W        W51629  39.562  38.459  13.832
84847W        W51630  43.345  33.060   2.563
84848W        W51631   5.296   1.959  10.520
84849W        W51632  11.355  10.774   0.428
84850W        W51633  34.885  39.331  11.517
84851W        W51634  26.063  40.302   3.558
84852W        W51635  28.198  26.929  11.597
84853W        W51636  29.634  27.440  14.061
84854W        W51637  29.979  36.501  12.955
84855W        W51638  15.597  10.167  14.371
84856W        W51639   5.891  41.600   2.234
84857W        W51640  11.486  12.594   2.617
84858W        W51641   5.480   0.988  14.127
84859W        W51642  11.215  20.226   0.302
84860W        W51643   9.832  27.053  11.877
84861W        W51644  18.264   5.878   2.438
84862W        W51645   9.692  33.535  11.615
84863W        W51646  19.600   3.088  11.108
84864W        W51647  30.689   6.676   4.680
84865W        W51648  44.197  20.802  12.061
84866W        W51649  24.137  29.904   2.813
84867W        W51650  21.504  34.239  11.801
84868W        W51651   6.235  39.300   1.643
84869W        W51652  43.581  15.120   1.329
84870W        W51653  24.480  29.509   2.720
84871W        W51654  18.987  31.317   0.067
84872W        W51655  23.023  44.527   4.618
84873W        W51656  28.541  18.218  11.094
84874W        W51657   2.541   3.469  10.218
84875W        W51658  25.560   9.013   5.381
84876W        W51659  26.133  18.187  11.100
84877W        W51660  35.774   3.420  14.938
84878W        W51661  31.831  41.405   1.207
84879W        W51662  20.681   0.741  11.704
84880W        W51663   1.311   5.510  12.449
84881W        W51664   7.854  23.741   0.240
84882W        W51665  25.679  27.792  13.450
84883W        W51666  21.661   0.167   4.188
84884W        W51667  40.995  26.236   0.382
84885W        W51668  43.763  31.888  13.456
84886W        W51669  12.005  23.089   1.103
84887W        W51670   5.031  38.872  13.329
84888W        W51671   2.186  42.375  11.224
84889W        W51672  20.747  22.536  13.253
84890W        W51673   7.841  26.855  11.164
84891W        W51674  29.994  33.982   1.430
84892W        W51675  42.089  43.577  13.998
84893W        W51676  16.928  11.830  11.327
84894W        W51677  21.148  39.933   3.151
84895W        W51678  19.722  32.018  14.981
84896W        W51679  14.887   1.471   0.720
84897W        W51680  22.653  24.467  13.860
84898W        W51681   9.708  14.008  10.769
84899W        W51682   0.354  26.936   3.996
84900W        W51683  27.126   9.242  14.917
84901W        W51684  15.888  20.045  13.824
84902W        W51685  33.811  23.179  13.094
84903W        W51686  35.543  26.391  13.614
84904W        W51687  24.255   1.850  12.407
84905W        W51688   8.273  42.572  11.919
84906W        W51689  20.468  44.521   2.170
84907W        W51690  31.389   5.666   0.520
84908W        W51691  10.625  44.359  11.203
84909W        W51692  23.073  21.656   2.231
84910W        W51693  33.414  13.820  11.868
84911W        W51694  13.350   3.151  12.610
84912W        W51695  18.631  33.824   0.017
84913W        W51696   6.734  26.358   3.666
84914W        W51697   3.421  24.550  13.942
84915W        W51698  29.644   0.394  11.084
84916W        W51699   2.460  25.635   1.210
84917W        W51700  11.753  38.791   0.112
84918W        W51701  20.131  29.386   3.233
84919W        W51702  29.347  22.033  13.847
84920W        W51703  25.089   3.635  10.458
84921W        W51704  16.276  21.577  14.123
84922W        W51705  25.724  26.042  11.340
84923W        W51706  28.995   8.019   4.623
84924W        W51707  18.257  23.631   0.280
84925W        W51708  36.866  11.630   0.228
84926W        W51709  35.448  24.722  10.570
84927W        W51710   6.791  38.348  14.418
84928W        W51711  13.965  34.846  11.915
84929W        W51712  17.503   6.478  11.578
84930W        W51713  17.666   3.228   4.523
84931W        W51714  31.457  44.054  14.943
84932W        W51715  23.537   3.960  14.411
84933W        W51716  12.822   4.095   1.462
84934W        W51717  27.601   2.231   0.707
84935W        W51718  39.945  32.847   1.730
84936W        W51719  29.097  31.457   1.926
84937W        W51720  40.003  31.189  11.566
84938W        W51721  32.402  31.961  13.411
84939W        W51722  25.570   3.849   1.442
84940W        W51723  21.179   6.891   4.117
84941W        W51724  26.917  25.726   0.352
84942W        W51725  30.679  21.820   0.132
84943W        W51726   9.586  34.082  14.467
84944W        W51727  38.503  10.182   4.132
84945W        W51728  21.628  24.461   3.279
84946W        W51729  33.013  40.957   1.750
84947W        W51730  38.332  39.993   0.932
84948W        W51731  29.434  13.992   4.564
84949W        W51732  30.895  37.208   0.900
84950W        W51733  24.845  33.082   4.801
84951W        W51734   8.024   6.553   4.595
84952W        W51735  11.562  26.943   2.419
84953W        W51736  11.518  13.561   0.334
84954W        W51737  37.340  42.777  10.148
84955W        W51738  28.966  21.235  14.308
84956W        W51739  37.400   1.337  14.862
84957W        W51740  27.542   4.757  14.007
84958W        W51741   8.456  31.145  14.041
84959W        W51742   3.779  16.556  13.011
84960W        W51743   1.144  24.571  12.624
84961W        W51744  18.894  22.087   3.584
84962W        W51745  39.347  31.041   4.549
84963W        W51746  37.476  11.749  12.001
84964W        W51747   5.884  11.154  12.784
84965W        W51748  28.728  37.977  14.580
84966W        W51749  44.140   3.977   3.775
84967W        W51750  30.485   8.410   3.219
84968W        W51751  36.826   2.721   4.259
84969W        W51752  28.425  17.163   2.468
84970W        W51753  21.344  38.542   3.021
84971W        W51754  29.333   8.809   4.584
84972W        W51755  40.481   1.284   2.427
84973W        W51756  34.786  38.488   0.580
84974W        W51757  29.690  21.446   1.528
84975W        W51758  41.613   6.383  13.671
84976W        W51759   4.120   1.803   1.701
84977W        W51760  14.703  27.726   0.273
84978W        W51761  14.797  25.241  12.643
84979W        W51762  34.198  23.920   0.052
84980W        W51763  33.889  26.874   4.205
84981W        W51764  33.037  34.482  10.701
84982W        W51765  16.298  32.312   0.819
84983W        W51766  33.148  21.262  12.991
84984W        W51767   7.188  11.329   1.882
84985W        W51768  28.270  42.819   3.400
84986W        W51769   9.636  24.230   1.382
84987W        W51770  40.218  37.549   3.268
84988W        W51771  42.153  13.553   1.871
84989W        W51772  17.783  19.237  14.810
84990W        W51773  25.804  34.535  11.532
84991W        W51774  28.101   6.269   0.237
84992W        W51775  27.145  16.151   2.540
84993W        W51776   7.882  31.958   0.045
84994W        W51777   7.445  21.416  11.635
84995W        W51778  30.526  34.210  11.600
84996W        W51779   3.363  33.878   2.721
84997W        W51780   3.087  28.582   2.677
84998W        W51781  42.526  33.922   4.850
84999W        W51782   8.181  39.156   2.643
85000W        W51783  17.660  38.383  10.656
85001W        W51784   7.758  33.704   0.381
85002W        W51785   9.782  31.942   3.587
85003W        W51786   1.657  42.078  11.152
85004W        W51787  20.731  32.875  11.980
85005W        W51788  30.080  26.529  12.851
85006W        W51789  20.672  26.422   0.816
85007W        W51790  12.689  41.310   2.412
85008W        W51791  24.204  21.236   0.868
85009W        W51792  36.723   3.185  10.708
85010W        W51793  32.825  11.822  11.600
85011W        W51794  37.471   5.864  11.678
85012W        W51795   1.070  41.801   2.707
85013W        W51796  37.648  25.576  11.625
85014W        W51797  36.987  15.847  14.411
85015W        W51798   4.461  42.517   1.253
85016W        W51799  37.652   8.789  12.545
85017W        W51800  19.182   0.384  10.677
85018W        W51801  41.105  18.132   0.328
85019W        W51802  37.052  13.601   3.280
85020W        W51803  34.423  26.524  13.081
85021W        W51804  10.075  26.267  12.061
85022W        W51805  22.315   9.853  10.716
85023W        W51806   2.905  21.711  13.784
85024W        W51807  14.085  23.456   0.349
85025W        W51808   6.902  33.641   2.923
85026W        W51809  25.163  22.159   0.780
85027W        W51810  29.971  33.003   0.002
85028W        W51811  31.623   0.814   1.034
85029W        W51812  36.165  11.622  11.279
85030W        W51813  20.555  32.371   1.178
85031W        W51814  23.468  14.977   3.787
85032W        W51815  33.634  22.126   0.334
85033W        W51816  12.613  17.836  14.889
85034W        W51817  15.990  30.533   0.860
85035W        W51818  38.767  17.577  13.455
85036W        W51819  18.935   7.381   4.529
85037W        W51820   7.437  22.051  10.631
85038W        W51821  25.968  15.174  14.372
85039W        W51822   0.447  15.654  14.987
85040W        W51823  44.952  37.113   0.225
85041W        W51824  12.078  10.204  12.980
85042W        W51825   5.486  19.488   3.619
85043W        W51826   3.770  21.007  10.984
85044W        W51827  34.409  15.265  14.782
85045W        W51828  33.102  39.892  11.454
85046W        W51829  34.505  42.526   3.774
85047W        W51830   0.275  32.987   2.258
85048W        W51831  32.931  38.164  11.019
85049W        W51832  16.647  30.542  14.942
85050W        W51833   2.376  12.128  11.061
85051W        W51834   9.143  19.039  12.352
85052W        W51835  32.417   7.541   0.386
85053W        W51836   3.996   4.687  14.692
85054W        W51837  31.103  14.757  10.963
85055W        W51838   0.455  14.403   3.589
85056W        W51839  25.495  30.432   1.847
85057W        W51840  21.004  40.259   0.063
85058W        W51841  19.101  44.863   3.318
85059W        W51842  33.785  15.822  12.490
85060W        W51843  10.633  16.796   1.437
85061W        W51844  34.872  11.322   3.169
85062W        W51845  23.938  30.931   1.511
85063W        W51846  26.583  42.732   2.112
85064W        W51847  10.457  25.710   3.215
85065W        W51848  33.386   1.908  12.201
85066W        W51849   0.446  20.945   4.122
85067W        W51850   3.203  25.667  12.048
85068W        W51851  32.903   9.840  10.454
85069W        W51852   0.708   9.307   0.805
85070W        W51853   0.192  38.472   0.568
85071W        W51854  44.739  16.805  10.957
85072W        W51855   1.024  16.044   3.358
85073W        W51856   6.736  13.230   2.902
85074W        W51857  13.054  12.197  12.440
85075W        W51858  31.959  29.592  13.986
85076W        W51859  40.399  38.089  13.778
85077W        W51860  15.589  34.340   2.420
85078W        W51861  28.177  20.307  10.685
85079W        W51862  43.581  11.147  11.662
85080W        W51863  16.201  38.560  11.264
85081W        W51864  12.992   0.550  13.996
85082W        W51865  25.958   6.195   4.437
85083W        W51866  25.209  13.170  10.652
85084W        W51867  27.654   0.020   4.318
85085W        W51868  36.782  43.519   0.948
85086W        W51869  23.459  20.759   4.609
85087W        W51870  41.297  18.826  11.548
85088W        W51871  17.831  18.992   4.045
85089W        W51872  19.503  42.844  10.883
85090W        W51873  38.627  43.491  11.223
85091W        W51874   3.590  33.414   2.821
85092W        W51875   7.310  16.046  13.161
85093W        W51876  15.489  15.846   0.219
85094W        W51877  20.153  32.067   4.722
85095W        W51878   6.867  35.955  13.843
85096W        W51879  38.805   4.620  10.287
85097W        W51880   5.339   5.951  12.813
85098W        W51881  35.067  44.181  12.442
85099W        W51882  19.067  37.535  11.045
85100W        W51883   5.746  18.791   4.773
85101W        W51884   5.468  21.229   1.890
85102W        W51885   7.660  44.104  12.536
85103W        W51886   4.743  21.658  10.711
85104W        W51887  43.598  34.555   4.052
85105W        W51888  20.073   6.371   3.639
85106W        W51889  14.437  37.598   4.220
85107W        W51890  41.262  24.491   0.799
85108W        W51891  13.268  21.097  11.202
85109W        W51892  27.193  30.863   0.721
85110W        W51893  14.722   3.863   0.190
85111W        W51894  30.166   2.746   0.903
85112W        W51895  29.398   8.889   0.971
85113W        W51896  43.558   5.394  10.170
85114W        W51897   4.060  30.887   2.907
85115W        W51898   4.707  30.914  11.546
85116W        W51899  16.109  28.733  12.267
85117W        W51900   1.388  38.562  13.137
85118W        W51901  41.393   5.402   3.992
85119W        W51902  31.061  24.666   1.630
85120W        W51903   8.034  38.459   3.990
85121W        W51904  30.541  37.847  14.044
85122W        W51905  23.914  28.853   3.486
85123W        W51906   0.862  28.041  12.606
85124W        W51907  22.111  12.949  14.397
85125W        W51908  15.608  30.041  12.447
85126W        W51909  18.686  31.758  12.960
85127W        W51910  22.838  23.113  13.554
85128W        W51911  30.475  16.963  13.912
85129W        W51912  40.127  35.591   3.678
85130W        W51913  36.649  28.085  12.727
85131W        W51914  37.226   7.726   4.261
85132W        W51915   1.934  26.562  10.652
85133W        W51916  36.125  21.275   3.205
85134W        W51917  12.966  15.283   4.303
85135W        W51918  42.087  25.571  11.467
85136W        W51919   7.547  16.444  12.561
85137W        W51920  44.346  11.313  12.087
85138W        W51921  19.165  20.127  12.834
85139W        W51922  10.196   1.669   0.485
85140W        W51923  38.833  33.854  11.309
85141W        W51924  44.352  35.840  13.436
85142W        W51925  27.583  39.148   4.089
85143W        W51926  41.042   7.999   3.308
85144W        W51927  10.712  31.665  14.004
85145W        W51928  38.516  29.643   1.352
85146W        W51929  23.060  31.009   2.731
85147W        W51930  12.721  36.835  14.949
85148W        W51931  21.452  40.616   3.653
85149W        W51932  21.758  13.390   3.553
85150W        W51933  29.925  34.931  13.861
85151W        W51934  10.900  19.521  12.572
85152W        W51935  39.562  41.794  13.068
85153W        W51936  31.123  29.158  12.654
85154W        W51937  39.512   6.319   4.923
85155W        W51938  25.461  15.426  10.673
85156W        W51939  28.387  13.355  12.819
85157W        W51940  42.334  19.383   0.410
85158W        W51941  42.930   2.572  13.400
85159W        W51942  29.867  26.282  11.925
85160W        W51943  34.523  25.995   4.749
85161W        W51944  42.230  10.150  13.162
85162W        W51945  13.803  32.496   4.585
85163W        W51946  33.497  32.818  12.772
85164W        W51947   2.941   6.880   4.057
85165W        W51948   7.826  31.843   3.275
85166W        W51949  38.471   1.416  11.614
85167W        W51950  19.968  38.110   0.749
85168W        W51951  16.394  34.830  12.425
85169W        W51952  17.789   0.529   2.298
85170W        W51953   3.867  19.571   0.876
85171W        W51954  43.004  11.286   3.036
85172W        W51955   9.821  33.881  13.813
85173W        W51956  22.185  21.977   4.021
85174W        W51957   0.789  44.924   2.231
85175W        W51958  43.414  42.979  10.811
85176W        W51959  10.416  15.076  14.637
85177W        W51960  44.522  12.314   2.823
85178W        W51961  44.168   4.493  11.979
85179W        W51962  22.258  36.868   4.782
85180W        W51963  40.484  21.733  14.286
85181W        W51964  38.108  11.915   3.211
85182W        W51965  35.862  33.214   1.834
85183W        W51966   7.842   8.427   3.435
85184W        W51967   2.209  44.266  12.656
85185W        W51968  29.559  28.378  11.150
85186W        W51969  37.637  25.903   4.829
85187W        W51970  14.990  21.429  13.577
85188W        W51971  41.362  29.156   3.217
85189W        W51972  18.546  19.591   2.220
85190W        W51973  26.104  35.116   4.596
85191W        W51974  11.910  39.426   1.773
85192W        W51975  11.035  42.495   1.366
85193W        W51976  27.350  25.130   1.338
85194W        W51977  30.964   1.497   3.034
85195W        W51978   0.238  10.161   2.283
85196W        W51979  22.647  37.308   4.210
85197W        W51980  30.589   8.296   0.485
85198W        W51981  43.306  25.609   1.615
85199W        W51982  29.714  25.976   3.725
85200W        W51983  38.613  35.872   1.756
85201W        W51984   9.621  10.186  12.822
85202W        W51985  18.916  31.146   4.668
85203W        W51986  34.693  20.983   1.864
85204W        W51987   2.951  40.849   2.252
85205W        W51988  24.676  13.638  13.553
85206W        W51989  43.985  35.028  11.636
85207W        W51990   3.298  39.250  14.342
85208W        W51991  34.088  27.602   0.275
85209W        W51992  43.087   7.152   3.991
85210W        W51993   7.794  39.969   3.615
85211W        W51994  19.764  13.814  14.933
85212W        W51995  37.598   3.237   1.377
85213W        W51996  36.905   7.920   2.882
85214W        W51997  26.663  41.370   2.185
85215W        W51998  14.763   7.494  14.837
85216W        W51999  38.055  36.944  14.574
85217W        W52000  36.114  40.851   2.658
85218W        W52001  43.938   0.292  11.548
85219W        W52002   9.524  11.857   2.809
85220W        W52003  39.344   3.818  11.656
85221W        W52004  17.819   9.887  10.889
85222W        W52005  20.578   5.523   0.304
85223W        W52006  18.102   6.792  13.558
85224W        W52007  43.485   4.091   4.616
85225W        W52008  43.751   4.017   0.334
85226W        W52009  25.692   0.279  12.552
85227W        W52010  33.937  43.940  11.057
85228W        W52011  24.176  35.009  13.279
85229W        W52012  37.037  35.133   4.178
85230W        W52013  32.026   6.644   2.916
85231W        W52014  43.392  37.028  11.595
85232W        W52015  13.627  41.727   2.300
85233W        W52016  30.627   0.459   3.160
85234W        W52017  29.939   5.329   0.408
85235W        W52018  31.683  42.084  13.844
85236W        W52019  27.404  11.621  10.507
85237W        W52020  24.000  13.813   2.834
85238W        W52021  34.597   8.749   0.032
85239W        W52022  11.263  25.060  14.279
85240W        W52023  26.674  24.967   0.771
85241W        W52024   9.499  19.485  12.326
85242W        W52025  34.395  24.579  12.584
85243W        W52026  35.436   4.804  11.550
85244W        W52027   7.761  40.196  13.291
85245W        W52028  24.119  22.994  12.917
85246W        W52029  36.838  40.662  13.793
85247W        W52030  17.092  36.070  12.510
85248W        W52031  44.721  26.150  12.047
85249W        W52032  25.094  14.655  14.789
85250W        W52033   6.214  35.458  13.591
85251W        W52034  29.850  26.608   3.777
85252W        W52035  23.223  19.300  12.493
85253W        W52036  23.634  26.915  14.771
85254W        W52037  10.122  32.194  11.102
85255W        W52038  19.824  10.362   0.004
85256W        W52039  23.229  30.202  14.464
85257W        W52040  25.323  31.061   3.219
85258W        W52041  44.432   3.138  11.635
85259W        W52042  32.487   6.667  12.569
85260W        W52043  26.644  28.402  12.118
85261W        W52044  44.464   0.844   4.674
85262W        W52045  25.529   3.431   0.138
85263W        W52046  32.414   0.158  13.551
85264W        W52047  35.263   4.995  10.712
85265W        W52048   2.886  29.430  14.975
85266W        W52049  43.900  29.869   1.414
85267W        W52050  38.142  44.037   1.949
85268W        W52051  36.477  11.571   3.845
85269W        W52052  15.855  33.944  12.332
85270W        W52053  35.407  31.345  14.358
85271W        W52054   2.215  11.163  12.986
85272W        W52055  43.096   9.303  11.661
85273W        W52056   5.288  27.896   0.786
85274W        W52057  40.516   2.870   3.756
85275W        W52058  30.256   4.594  12.726
85276W        W52059  36.840  29.114  13.829
85277W        W52060  42.367  11.425  14.244
85278W        W52061  10.629   9.380  10.697
85279W        W52062  30.632  28.763  14.601
85280W        W52063  27.859   9.217   2.908
85281W        W52064  14.299   0.711   4.149
85282W        W52065  32.169   3.432  13.033
85283W        W52066  20.015   8.966   2.631
85284W        W52067  37.523  19.321  10.489
85285W        W52068  16.191   5.010   4.190
85286W        W52069  27.973   4.391  10.305
85287W        W52070  24.410  37.632   4.081
85288W        W52071   0.236  30.954   3.117
85289W        W52072  11.296  36.426  13.007
85290W        W52073  33.514   7.527  12.146
85291W        W52074  36.261  21.158  12.493
85292W        W52075  29.107  34.632  12.135
85293W        W52076   9.431  22.494  13.872
85294W        W52077  15.583   6.692   4.341
85295W        W52078  42.442  37.962   0.433
85296W        W52079  22.001  33.910   2.540
85297W        W52080  30.113   1.042   2.849
85298W        W52081  44.387  14.673   1.851
85299W        W52082  42.984  19.103  14.086
85300W        W52083  27.627  32.835   1.730
85301W        W52084   8.650   5.228  14.074
85302W        W52085   7.433   1.248  11.545
85303W        W52086  30.734  33.120   3.612
85304W        W52087  31.605  21.276  11.598
85305W        W52088  34.308  31.934   1.151
85306W        W52089  43.152   6.723  13.011
85307W        W52090  36.205  35.148  12.509
85308W        W52091  11.416  27.254   2.824
85309W        W52092  20.177   0.773  12.844
85310W        W52093  20.977  27.131   1.329
85311W        W52094   0.961   3.402  12.615
85312W        W52095  12.946   8.214  10.006
85313W        W52096  40.430  11.149  11.374
85314W        W52097  29.507   5.602   0.355
85315W        W52098  40.410  12.122   3.482
85316W        W52099   8.741  14.843  11.887
85317W        W52100  43.678  33.815   3.744
85318W        W52101  10.263  41.872   2.098
85319W        W52102  23.786  21.713  13.086
85320W        W52103  39.889  15.541   2.634
85321W        W52104  12.040   9.166  12.107
85322W        W52105   7.952  26.310  14.430
85323W        W52106  30.089   3.267   0.857
85324W        W52107  38.920  12.693  13.408
85325W        W52108  14.879  16.331   3.541
85326W        W52109  40.415   6.388   4.302
85327W        W52110  24.763   3.754   5.036
85328W        W52111  24.549  14.598  12.649
85329W        W52112   0.936   3.736  10.790
85330W        W52113  11.136   9.842   4.936
85331W        W52114  41.446  12.526   9.958
85332W        W52115  14.283  25.411  14.246
85333W        W52116  29.393  32.656  12.974
85334W        W52117   4.412  37.819  14.376
85335W        W52118   5.837  12.801  10.625
85336W        W52119  12.885  43.216   4.328
85337W        W52120   0.855  33.495  10.091
85338W        W52121  10.450   5.006   2.415
85339W        W52122  34.413   1.932   4.204
85340W        W52123   2.687  10.410  11.163
85341W        W52124  20.656   3.244  12.892
85342W        W52125  21.521  10.213  14.771
85343W        W52126  16.114  35.987   1.377
85344W        W52127  10.128  27.201   4.523
85345W        W52128  17.643   7.332   2.878
85346W        W52129   2.844  38.081   3.789
85347W        W52130  28.943  37.050  10.781
85348W        W52131  10.356  24.010   4.094
85349W        W52132  13.813  16.631  11.262
85350W        W52133  18.754  16.609  14.875
85351W        W52134  44.640  21.424  13.462
85352W        W52135   0.409   6.406   0.204
85353W        W52136   4.756  36.230   5.019
85354W        W52137  42.285  32.864   3.422
85355W        W52138  14.659   9.181  12.564
85356W        W52139  27.087  27.735  12.415
85357W        W52140   2.868  27.425   4.129
85358W        W52141  41.544  37.337  12.849
85359W        W52142  42.086  35.523  14.095
85360W        W52143  23.737   0.002  11.569
85361W        W52144  21.549  35.924   0.230
85362W        W52145  34.658  22.297   2.337
85363W        W52146  24.283  16.019  12.877
85364W        W52147  32.519  17.337  13.376
85365W        W52148  19.623  18.714  13.949
85366W        W52149  31.469  36.063   4.977
85367W        W52150  38.449  29.766   3.007
85368W        W52151   9.675   8.458  13.978
85369W        W52152  13.915   4.945   3.594
85370W        W52153  42.163  11.653   4.163
85371W        W52154  40.877  34.437  14.742
85372W        W52155  22.249  26.550  12.449
85373W        W52156   5.914  34.373  14.262
85374W        W52157   5.438  10.836   0.753
85375W        W52158   0.243  18.625  13.793
85376W        W52159   9.800  28.886  14.969
85377W        W52160  40.990   1.276   4.103
85378W        W52161  34.047   8.441  10.649
85379W        W52162  27.612  38.117   0.690
85380W        W52163  35.342  30.555  13.025
85381W        W52164  12.681  33.983   2.362
85382W        W52165   9.578  43.637  12.981
85383W        W52166  15.690  27.333   0.938
85384W        W52167  21.040  41.871   1.380
85385W        W52168  23.635  17.709   2.829
85386W        W52169  22.277  40.618   2.031
85387W        W52170  13.135  14.593  10.780
85388W        W52171  14.751  35.068  11.662
85389W        W52172   8.436  37.527  10.257
85390W        W52173  36.261   6.223  14.683
85391W        W52174  16.755  40.259  12.341
85392W        W52175  33.092  27.685   0.376
85393W        W52176  33.687  26.684  14.961
85394W        W52177   6.345  14.388   2.416
85395W        W52178  10.596   5.961   3.747
85396W        W52179  30.875   6.710   1.768
85397W        W52180  18.150  31.558   4.977
85398W        W52181  19.290  38.165   2.121
85399W        W52182  29.474  22.748   1.006
85400W        W52183  40.358  39.607   0.379
85401W        W52184  19.419  12.132  14.410
85402W        W52185  31.724  43.039  13.797
85403W        W52186  10.108  31.952  14.412
85404W        W52187  41.023   6.536   3.199
85405W        W52188  32.945   9.448  13.838
85406W        W52189   6.143  23.530   3.329
85407W        W52190   7.823   8.868  10.950
85408W        W52191  14.398  31.662   0.903
85409W        W52192  41.269  36.313   0.305
85410W        W52193  36.563  24.143  13.997
85411W        W52194  15.134  39.939   0.579
85412W        W52195  26.611   9.749  10.684
85413W        W52196  30.744  27.290   0.941
85414W        W52197   5.625  38.122  11.422
85415W        W52198  26.456  12.795  12.400
85416W        W52199  28.396  27.442  12.497
85417W        W52200  44.259   5.255   3.531
85418W        W52201  22.571  40.396  14.449
85419W        W52202  28.365  26.621  13.465
85420W        W52203  16.104  37.919  12.815
85421W        W52204  13.027  41.075   1.652
85422W        W52205  18.663  38.241   2.466
85423W        W52206  42.515   3.935  13.903
85424W        W52207  41.385  35.656  11.159
85425W        W52208  28.339  28.040  14.040
85426W        W52209   1.885  44.392  14.388
85427W        W52210   5.583   6.402  14.853
85428W        W52211  37.022  20.150  11.237
85429W        W52212  14.340  23.537   4.668
85430W        W52213  24.634   8.138  10.918
85431W        W52214   3.182  41.464   1.106
85432W        W52215  18.732  42.850   0.017
85433W        W52216   5.323   7.899   1.265
85434W        W52217   8.640  40.250  10.785
85435W        W52218  19.170  30.803   2.956
85436W        W52219  44.356   0.388   1.479
85437W        W52220  20.224  39.999  14.376
85438W        W52221  16.190  30.836   3.306
85439W        W52222   0.793   9.559  13.529
85440W        W52223  37.315   2.969   1.704
85441W        W52224  36.208   7.959   4.983
85442W        W52225  43.548  14.109   3.538
85443W        W52226  26.146  10.628   0.828
85444W        W52227  44.484  23.685  13.871
85445W        W52228  10.862  35.107  14.869
85446W        W52229  23.544  13.447  14.848
85447W        W52230  26.126  28.561  12.773
85448W        W52231  22.410  22.482  13.783
85449W        W52232  11.942  23.509  14.816
85450W        W52233  21.201  29.898  14.846
85451W        W52234  30.343   4.658   0.949
85452W        W52235  22.249  44.429  14.861
85453W        W52236  13.973  43.929   4.164
85454W        W52237  25.919  10.494   4.545
85455W        W52238  24.937  42.020   0.289
85456W        W52239  23.909  18.623  10.847
85457W        W52240   8.890  33.807  12.826
85458W        W52241  24.684  21.988   0.802
85459W        W52242  31.038  18.830  14.248
85460W        W52243   2.435  38.508   3.225
85461W        W52244   5.578   3.238   0.279
85462W        W52245  34.540  37.030   0.844
85463W        W52246  17.189  26.022  10.560
85464W        W52247  16.967  42.447  11.596
85465W        W52248  16.256   5.939  13.961
85466W        W52249   2.423  12.085   0.191
85467W        W52250  34.509  35.635  14.029
85468W        W52251   8.436  37.369  12.549
85469W        W52252  21.077  43.306  13.407
85470W        W52253  44.577  33.055  11.129
85471W        W52254  17.245   4.289  13.982
85472W        W52255  11.614   3.277  14.773
85473W        W52256   7.387  43.290  12.773
85474W        W52257  43.464  38.104   2.738
85475W        W52258  18.449  44.780  11.621
85476W        W52259  44.409   0.200  13.237
85477W        W52260   1.362  43.913   4.214
85478W        W52261  13.642   9.704   4.879
85479W        W52262  24.766  31.439  13.251
85480W        W52263  44.025  41.996   3.705
85481W        W52264   9.689   6.059   2.602
85482W        W52265  34.766  42.068  12.562
85483W        W52266  33.985  16.567   2.654
85484W        W52267  30.389  26.050   4.118
85485W        W52268   8.751  24.144   2.207
85486W        W52269   4.734  11.760   4.798
85487W        W52270  19.082  11.995   0.055
85488W        W52271   5.718  13.855   2.775
85489W        W52272  30.156  37.893  13.400
85490W        W52273  37.488  27.947   0.890
85491W        W52274   1.973   2.485   1.230
85492W        W52275  17.199  35.351  11.478
85493W        W52276  25.589  25.496   3.180
85494W        W52277  39.447   7.205   2.633
85495W        W52278  44.749  44.894   3.092
85496W        W52279  15.304   1.414   4.572
85497W        W52280  44.330  43.972   2.134
85498W        W52281  13.385   3.917   4.611
85499W        W52282  35.612  14.232  12.403
85500W        W52283  36.631  11.083  14.286
85501W        W52284  39.904  16.852  14.334
85502W        W52285  40.445  27.460  11.954
85503W        W52286  13.362  13.814   3.122
85504W        W52287   4.644  38.884  11.019
85505W        W52288  22.693   5.397   4.439
85506W        W52289  17.992  41.791   2.343
85507W        W52290  40.026   3.242   1.067
85508W        W52291   2.419  29.710   2.304
85509W        W52292  41.019  35.668   4.725
85510W        W52293  38.257  27.596   0.959
85511W        W52294  15.646  39.944  11.781
85512W        W52295  10.039  38.880  13.831
85513W        W52296  29.632  18.316   1.510
85514W        W52297  24.342   4.081   5.172
85515W        W52298  42.286  20.815  12.023
85516W        W52299  24.760  13.834   1.230
85517W        W52300   9.212  30.313   4.163
85518W        W52301  37.266   2.446  10.731
85519W        W52302   3.750  31.221   2.570
85520W        W52303  11.183  10.983   4.404
85521W        W52304  30.427  17.380  11.901
85522W        W52305  32.622  23.572  11.760
85523W        W52306  31.552  23.973  13.892
85524W        W52307   5.553  41.727  11.210
85525W        W52308  16.215  24.271  11.033
85526W        W52309  30.906   2.047  12.481
85527W        W52310  20.710   2.882  12.114
85528W        W52311  38.036   4.099   4.507
85529W        W52312  33.070  38.236  11.968
85530W        W52313   6.846   6.883   1.835
85531W        W52314   4.308  17.238  13.289
85532W        W52315  22.834  17.605   3.326
85533W        W52316  44.975  41.543   4.082
85534W        W52317  39.581  29.982  10.545
85535W        W52318  37.631  29.134  11.521
85536W        W52319  13.865  17.613  11.871
85537W        W52320  19.615  42.018   0.399
85538W        W52321  20.215  20.269  14.366
85539W        W52322  25.598  44.773  12.562
85540W        W52323   1.971  26.157  13.913
85541W        W52324  36.058  35.100  10.781
85542W        W52325  44.196   2.452   2.795
85543W        W52326  23.861  38.644  10.300
85544W        W52327  41.801  26.564  14.421
85545W        W52328  19.085  31.101   1.373
85546W        W52329  41.969  20.110  14.463
85547W        W52330   8.384  39.103  14.350
85548W        W52331  19.323  13.847   3.694
85549W        W52332  32.590  21.667  12.498
85550W        W52333  22.781  34.323  13.978
85551W        W52334  35.740  20.099   3.875
85552W        W52335   1.081   2.929   2.969
85553W        W52336  31.593  28.852   0.337
85554W        W52337  38.931  35.151  12.702
85555W        W52338  15.094   2.825  14.580
85556W        W52339  31.877  35.814   4.730
85557W        W52340  30.401  30.892   3.896
85558W        W52341   3.936  27.439  13.117
85559W        W52342  21.628  30.491   2.918
85560W        W52343  31.005  11.854   4.661
85561W        W52344  38.479  20.092  12.457
85562W        W52345  30.588   7.257  14.525
85563W        W52346  20.687  19.117  14.364
85564W        W52347  29.884  16.937   0.431
85565W        W52348  13.345  15.253  14.796
85566W        W52349  32.827  17.318   0.527
85567W        W52350  40.675  35.539   2.895
85568W        W52351  19.267  15.800   3.215
85569W        W52352  34.741   8.983   3.287
85570W        W52353  14.918  35.395   1.732
85571W        W52354   8.370  38.587   1.357
85572W        W52355   2.782  20.785   2.888
85573W        W52356  24.672  17.415  14.556
85574W        W52357  30.759  21.745  10.737
85575W        W52358  15.053  34.986  11.240
85576W        W52359  29.028  12.331  10.898
85577W        W52360  28.024  28.097   1.451
85578W        W52361  10.960  10.097   0.472
85579W        W52362  44.929   9.271   4.486
85580W        W52363  40.015  20.422  11.729
85581W        W52364  26.376  42.997  10.138
85582W        W52365  39.976  34.469  12.391
85583W        W52366   9.727   2.199  10.717
85584W        W52367  39.066  29.269   3.321
85585W        W52368  37.876  39.775  14.252
85586W        W52369  12.253  10.084   3.371
85587W        W52370  25.260  27.438   3.088
85588W        W52371   4.813  34.530  14.065
85589W        W52372  11.736  22.204  10.467
85590W        W52373  44.299  19.735  12.054
85591W        W52374  31.423  43.430  12.067
85592W        W52375  39.468  44.409   2.751
85593W        W52376   6.652   3.655  10.405
85594W        W52377  20.940   6.680   0.231
85595W        W52378  25.396   5.392  13.084
85596W        W52379  30.674  24.904   3.228
85597W        W52380  38.258  10.329   2.878
85598W        W52381  12.831  39.023  13.487
85599W        W52382  23.098   8.613  13.651
85600W        W52383  18.071  18.299  12.732
85601W        W52384  36.153   1.488   0.350
85602W        W52385  18.344  42.394  14.003
85603W        W52386  19.420  29.068   4.608
85604W        W52387   7.679  43.684   4.142
85605W        W52388   1.485  43.965  10.405
85606W        W52389  12.357  37.927   3.616
85607W        W52390  14.217  28.646   4.475
85608W        W52391  34.436  13.927  12.922
85609W        W52392  42.688  14.061  13.941
85610W        W52393   2.320   5.911   3.288
85611W        W52394  10.369  24.378   4.930
85612W        W52395  38.544  31.262  13.260
85613W        W52396  13.822  10.219   3.032
85614W        W52397  13.739   0.321   2.356
85615W        W52398  10.811   7.944  12.807
85616W        W52399   1.590  26.272   0.544
85617W        W52400  41.511  34.785   4.266
85618W        W52401  33.501  31.337   4.912
85619W        W52402  19.511  25.891  14.649
85620W        W52403   2.548   9.405  13.732
85621W        W52404  12.324  13.695  14.704
85622W        W52405  18.691  19.340   4.223
85623W        W52406  32.060  30.617   5.029
85624W        W52407  28.067  23.057  12.164
85625W        W52408   6.668  28.125  11.951
85626W        W52409   4.504  25.152  14.085
85627W        W52410   1.512  23.534   3.261
85628W        W52411  33.953   2.348  10.991
85629W        W52412   2.067   8.669   4.531
85630W        W52413  27.928  29.861   1.829
85631W        W52414  31.867   0.320  14.765
85632W        W52415  36.292  16.824  12.012
85633W        W52416  43.798   4.669  12.834
85634W        W52417   5.224   6.927   0.815
85635W        W52418  15.055  26.918   4.579
85636W        W52419   4.227  13.430   2.829
85637W        W52420   1.154   2.970  11.437
85638W        W52421  16.398  43.495   2.879
85639W        W52422   4.157  43.565   2.634
85640W        W52423  16.031  34.971   1.983
85641W        W52424  10.235  44.813   0.026
85642W        W52425  12.981  13.101  12.586
85643W        W52426  27.995  40.335  12.955
85644W        W52427   4.902   4.403   3.159
85645W        W52428  15.304   0.935   2.748
85646W        W52429  30.436  22.097  10.493
85647W        W52430  17.404  16.261   4.564
85648W        W52431   7.435   2.832  12.147
85649W        W52432  16.490  34.853   4.474
85650W        W52433  15.160  28.097  10.959
85651W        W52434   4.656  36.757   4.990
85652W        W52435  42.043  19.365  13.008
85653W        W52436  31.626   4.439  10.551
85654W        W52437  16.642  26.516   4.946
85655W        W52438  23.806   8.962   1.746
85656W        W52439  13.902  39.371  13.905
85657W        W52440  14.863   9.818   2.158
85658W        W52441  35.419  35.089   0.221
85659W        W52442  12.108  30.900  11.020
85660W        W52443  43.046  23.225   2.233
85661W        W52444   3.099   7.147  11.908
85662W        W52445  14.883  40.464   1.042
85663W        W52446  32.671  20.482   1.875
85664W        W52447  40.905  10.207   2.598
85665W        W52448  19.241   6.426   1.579
85666W        W52449   9.405  36.907   2.707
85667W        W52450  20.325  16.360  13.496
85668W        W52451  22.976  23.903   4.064
85669W        W52452  22.519  19.749   1.382
85670W        W52453  33.100  24.157   0.191
85671W        W52454   9.308  18.350  13.912
85672W        W52455  30.455  26.696  13.564
85673W        W52456  41.989  25.656  13.524
85674W        W52457  31.503   7.430  14.725
85675W        W52458  11.439  24.959   0.743
85676W        W52459   6.156   9.527  14.052
85677W        W52460  30.311  24.994  14.542
85678W        W52461   1.142   0.155  11.157
85679W        W52462  41.927  25.669   3.685
85680W        W52463  42.223  20.643  10.820
85681W        W52464   0.538  38.070   1.714
85682W        W52465   5.302  20.399  11.957
85683W        W52466   2.733  19.244   1.400
85684W        W52467  12.625  33.180   4.300
85685W        W52468  21.968  21.465   3.738
85686W        W52469  22.879   1.579  13.028
85687W        W52470  19.657  38.058  14.909
85688W        W52471   7.632  35.834  14.338
85689W        W52472  20.753  34.520   4.187
85690W        W52473  29.002   5.479  13.806
85691W        W52474  17.874   1.209  12.200
85692W        W52475  13.327  24.101   0.108
85693W        W52476  28.366  26.775   4.868
85694W        W52477  15.738  17.318   1.504
85695W        W52478  23.739   3.763   1.392
85696W        W52479   0.728  29.682   4.596
85697W        W52480  33.978  24.672  14.713
85698W        W52481  13.050  18.156   1.218
85699W        W52482  11.581  32.361   4.289
85700W        W52483   0.451  18.130   1.870
85701W        W52484   3.300  22.282  13.463
85702W        W52485  24.139  28.928  14.472
85703W        W52486  38.605  21.116  11.142
85704W        W52487  15.680   8.138  11.584
85705W        W52488  35.684  12.680   0.875
85706W        W52489   8.260   4.188  13.757
85707W        W52490  42.955  28.339  14.082
85708W        W52491  33.565  12.101   4.051
85709W        W52492   0.678  18.215   4.717
85710W        W52493  22.119   8.293  11.374
85711W        W52494  32.923  39.111  12.547
85712W        W52495   4.829  31.653  13.585
85713W        W52496  11.933  16.160  10.892
85714W        W52497  44.141  23.169  14.746
85715W        W52498  13.623  12.923  14.897
85716W        W52499  27.616  19.303  11.613
85717W        W52500   9.454   3.859  14.877
85718W        W52501  11.554  31.979   4.655
85719W        W52502  32.303  26.416   0.893
85720W        W52503  29.215   7.933  11.548
85721W        W52504  18.391  35.476  14.453
85722W        W52505  44.726   2.917  13.907
85723W        W52506  23.544  42.969  11.029
85724W        W52507  32.616   9.659  14.641
85725W        W52508  29.883  20.814   2.283
85726W        W52509  41.882  37.991   4.771
85727W        W52510  39.729  23.270  14.502
85728W        W52511  43.709  28.128  11.095
85729W        W52512  35.481  34.983   0.744
85730W        W52513  29.919   5.102   1.332
85731W        W52514   3.308  18.643  11.025
85732W        W52515  34.410  40.027  10.838
85733W        W52516   6.765   6.760  14.348
85734W        W52517  13.353  26.559  14.907
85735W        W52518  16.776  39.987  12.935
85736W        W52519  42.639  26.002  12.065
85737W        W52520  43.312  41.606   1.317
85738W        W52521  31.973  31.391   3.625
85739W        W52522  20.561  16.834   1.819
85740W        W52523   7.919  28.425   3.210
85741W        W52524   7.123  40.125   4.118
85742W        W52525  43.879  17.859  12.522
85743W        W52526  42.911   1.012   3.724
85744W        W52527  40.518   4.909  11.073
85745W        W52528   0.277  40.996  11.105
85746W        W52529   3.412  19.293   0.829
85747W        W52530  10.608  11.149  10.126
85748W        W52531   6.298  18.480  14.829
85749W        W52532  14.880  19.127   0.919
85750W        W52533  42.485  25.087   0.773
85751W        W52534  15.151   2.601   0.119
85752W        W52535  24.583  38.659   4.177
85753W        W52536  10.097  40.373   3.758
85754W        W52537  19.289   8.957  13.969
85755W        W52538   6.239  40.409  14.749
85756W        W52539  28.135   8.779   3.328
85757W        W52540  13.935  18.484   3.810
85758W        W52541  13.629  30.482   3.120
85759W        W52542  27.789  40.017  10.603
85760W        W52543  10.667  36.489  14.918
85761W        W52544  19.425  34.538  12.785
85762W        W52545   9.476   7.607  12.281
85763W        W52546   1.240  12.034  13.335
85764W        W52547   8.172  15.351   2.033
85765W        W52548  18.530  27.696  13.620
85766W        W52549  30.438  39.047   2.696
85767W        W52550  25.113  13.878  13.796
85768W        W52551  16.616  44.721   2.161
85769W        W52552  25.674  27.356   1.794
85770W        W52553  29.902  19.671  14.472
85771W        W52554  37.069  30.471  14.352
85772W        W52555   3.180  43.445  13.871
85773W        W52556  42.601   6.846   4.142
85774W        W52557  19.492  10.490  14.123
85775W        W52558  43.198   3.506   1.487
85776W        W52559  20.293  40.024  12.454
85777W        W52560  30.943  29.194  13.800
85778W        W52561  23.212  38.893  10.664
85779W        W52562  35.933  44.680   1.757
85780W        W52563   3.185  26.743  13.453
85781W        W52564  11.077   9.187  11.580
85782W        W52565   3.104  41.105   1.819
85783W        W52566  10.887  29.239   1.892
85784W        W52567  33.393  27.646  14.073
85785W        W52568  27.106  42.469  11.169
85786W        W52569   0.029  15.882  10.701
85787W        W52570  31.108  34.341  13.463
85788W        W52571  18.263  42.257  13.018
85789W        W52572  29.236  16.181  14.017
85790W        W52573  40.367  18.754  13.776
85791W        W52574  13.889  11.185  14.022
85792W        W52575  18.295  23.342   2.210
85793W        W52576   9.929   6.697   4.558
85794W        W52577   2.352  31.054   4.366
85795W        W52578  34.904  41.179   3.256
85796W        W52579  38.171  33.701   0.298
85797W        W52580  31.237   2.789  12.020
85798W        W52581  27.450  40.139   0.894
85799W        W52582  42.997  13.935   2.204
85800W        W52583  44.353   0.309   0.961
85801W        W52584  37.455  12.103   0.607
85802W        W52585  28.755  39.840  13.058
85803W        W52586  13.210  11.713  12.496
85804W        W52587  34.137  23.605   2.798
85805W        W52588  17.569  31.193  10.750
85806W        W52589  16.091  32.461   2.164
85807W        W52590  28.731  40.967   2.951
85808W        W52591  11.201  19.198  10.457
85809W        W52592  12.624  32.441  11.871
85810W        W52593   5.647  27.424   2.340
85811W        W52594  44.430  24.474   3.451
85812W        W52595  38.812  20.086  13.973
85813W        W52596   6.823  21.814  14.321
85814W        W52597  30.742  20.292  12.861
85815W        W52598  42.402  17.981   0.849
85816W        W52599  21.616  15.257  11.642
85817W        W52600  19.797  35.443   4.364
85818W        W52601  32.137   6.309   1.945
85819W        W52602  37.151  29.381   5.099
85820W        W52603  22.958  35.961   3.397
85821W        W52604  12.090   4.579   3.180
85822W        W52605  10.322  15.256  11.782
85823W        W52606   3.618   4.313  10.780
85824W        W52607   3.966  13.661  14.857
85825W        W52608  14.299  17.763  12.140
85826W        W52609   8.919  17.203  12.639
85827W        W52610  37.427   0.310  14.977
85828W        W52611   5.055  42.983  12.646
85829W        W52612  11.301  21.813  11.068
85830W        W52613   5.447   2.359   3.136
85831W        W52614  19.472  14.080  11.029
85832W        W52615   1.770   6.506   0.198
85833W        W52616  14.301   6.483   5.101
85834W        W52617  21.741  12.619   2.191
85835W        W52618  30.843  25.099  14.566
85836W        W52619   3.676   8.624   4.527
85837W        W52620  15.308  22.548   2.250
85838W        W52621  22.652  33.911   0.260
85839W        W52622  39.862   8.379   0.990
85840W        W52623  16.177   5.116   3.418
85841W        W52624  16.351  42.850   0.493
85842W        W52625  40.249  10.071   3.947
85843W        W52626  24.469   7.641   0.848
85844W        W52627  13.864  10.344  10.458
85845W        W52628  35.840   5.278  11.175
85846W        W52629  41.581  13.708  12.654
85847W        W52630  38.595  10.708   4.768
85848W        W52631  41.107  32.437  11.131
85849W        W52632  15.621  31.403   3.970
85850W        W52633   6.922  27.637   3.809
85851W        W52634  22.720  13.997  10.706
85852W        W52635  30.598  28.392  11.698
85853W        W52636  13.844  39.612  10.252
85854W        W52637  14.187   2.689   3.145
85855W        W52638  33.649  12.605   4.131
85856W        W52639  26.678  41.053  10.791
85857W        W52640  41.982  42.768   4.153
85858W        W52641  37.728  10.381   1.201
85859W        W52642  40.551  24.550  12.104
85860W        W52643   2.370  34.342  13.189
85861W        W52644  30.105  34.600   3.594
85862W        W52645  16.804   6.212   4.141
85863W        W52646   3.710  11.676   3.586
85864W        W52647  43.750  12.176  14.170
85865W        W52648  12.856  39.859  13.378
85866W        W52649  43.279  26.121   2.656
85867W        W52650  13.776   0.863  12.694
85868W        W52651  11.241  23.511   2.878
85869W        W52652  38.392  26.094  11.572
85870W        W52653  14.848  30.085   2.382
85871W        W52654  37.239  38.822  13.804
85872W        W52655  11.520  38.813   4.552
85873W        W52656  11.324  15.602  12.375
85874W        W52657   0.837  17.099   0.447
85875W        W52658  21.316  14.299   5.347
85876W        W52659  10.947  43.042  12.506
85877W        W52660  21.783  14.220  11.580
85878W        W52661  10.149  35.630   2.407
85879W        W52662   0.772   6.860   3.325
85880W        W52663  18.360   2.280   3.734
85881W        W52664  32.606  34.075   4.193
85882W        W52665  21.728  21.911  11.322
85883W        W52666  29.675   3.281   0.517
85884W        W52667   0.421  43.670  11.919
85885W        W52668  16.573  37.399  13.547
85886W        W52669  13.618  18.898  13.781
85887W        W52670  29.619   3.208  11.695
85888W        W52671  27.959  19.861  10.814
85889W        W52672  43.763   7.459   1.430
85890W        W52673  32.336  12.812  12.328
85891W        W52674  11.857  15.868   3.765
85892W        W52675  22.973  13.808   0.741
85893W        W52676  41.643  21.765  13.810
85894W        W52677  43.786  31.935   4.329
85895W        W52678  35.050  12.771  11.553
85896W        W52679  23.054   0.242   1.530
85897W        W52680  12.837   5.637   2.404
85898W        W52681  25.686  26.310   1.821
85899W        W52682  12.205  29.674  13.236
85900W        W52683  35.535   8.013   3.243
85901W        W52684   2.445  21.477   3.106
85902W        W52685  39.773   7.853  13.792
85903W        W52686   5.716  30.709  13.306
85904W        W52687  30.420  44.319  12.870
85905W        W52688  37.163  36.666  11.166
85906W        W52689  38.302   5.918   4.834
85907W        W52690  33.568  22.685   3.697
85908W        W52691   1.107  17.825  11.485
85909W        W52692  22.334  33.572   9.906
85910W        W52693  35.803  31.937  12.733
85911W        W52694  14.139  43.753  11.198
85912W        W52695  18.907  37.623   3.315
85913W        W52696  22.498  16.606  12.104
85914W        W52697  39.461  11.766  11.717
85915W        W52698  22.679  33.908  14.748
85916W        W52699  17.979  38.906  11.654
85917W        W52700  34.490  35.606  11.381
85918W        W52701  29.434   9.419   1.803
85919W        W52702   2.581  32.121   4.070
85920W        W52703   5.410   3.559  14.367
85921W        W52704  36.343  38.311   0.402
85922W        W52705  44.711   7.165   5.399
85923W        W52706   6.267  15.541   0.781
85924W        W52707  17.103  26.874   4.702
85925W        W52708  41.533  37.923   2.193
85926W        W52709  28.451  19.653   0.470
85927W        W52710  38.644  19.867   3.617
85928W        W52711  32.339  38.176   1.679
85929W        W52712  38.852  39.989   0.283
85930W        W52713  41.123  18.628   0.136
85931W        W52714  20.191  11.414  12.876
85932W        W52715  21.474  40.895   1.760
85933W        W52716  21.646  41.539   3.920
85934W        W52717  18.625  40.258   1.940
85935W        W52718  27.653  24.360   3.672
85936W        W52719  43.826  13.758  14.598
85937W        W52720  41.200  42.984   4.546
85938W        W52721  17.317  11.043   1.910
85939W        W52722  43.743  22.209   4.035
85940W        W52723  11.427   4.317   2.955
85941W        W52724   1.410  30.084   1.834
85942W        W52725   7.411  33.602  11.172
85943W        W52726  44.986  13.483  12.297
85944W        W52727  38.864  19.249  10.026
85945W        W52728  35.283  14.365  10.066
85946W        W52729  28.818  19.182  11.463
85947W        W52730   9.656  16.635  12.627
85948W        W52731  25.929  25.407  12.141
85949W        W52732  35.641   3.448  11.453
85950W        W52733  14.132  37.927  11.539
85951W        W52734  28.492   3.652  13.524
85952W        W52735  43.981  40.115  14.820
85953W        W52736  14.685  26.087   1.840
85954W        W52737  21.072  32.550   1.703
85955W        W52738  30.983  30.840   1.386
85956W        W52739  42.526   5.569   1.248
85957W        W52740  32.694   6.954  12.096
85958W        W52741  11.151  30.207  12.411
85959W        W52742   4.446  25.159  14.971
85960W        W52743  33.927  10.875   2.307
85961W        W52744  38.777  39.560  11.632
85962W        W52745  15.530  41.612   1.372
85963W        W52746  31.661  25.685  11.910
85964W        W52747  34.243  41.289  11.137
85965W        W52748  27.427  39.096   3.582
85966W        W52749  32.506  13.478  13.064
85967W        W52750  21.667   1.668  10.544
85968W        W52751   3.468   9.643   2.629
85969W        W52752  35.011  43.411   4.625
85970W        W52753  36.159  25.606   0.794
85971W        W52754  23.543  44.367  10.887
85972W        W52755  10.042  19.761   3.541
85973W        W52756  44.792  14.686   2.191
85974W        W52757  26.166  17.429  13.798
85975W        W52758   2.495  25.218  12.642
85976W        W52759  20.793  26.257   2.899
85977W        W52760  12.523  19.093   4.702
85978W        W52761   8.696  40.000  13.429
85979W        W52762  27.572  27.886   0.398
85980W        W52763  18.106  44.547  12.373
85981W        W52764   2.708  35.545   4.329
85982W        W52765   8.437   4.911  12.140
85983W        W52766   9.126   1.413  11.172
85984W        W52767  10.624  33.642   2.870
85985W        W52768  43.562  25.035   1.836
85986W        W52769  25.975   2.410   2.481
85987W        W52770  11.068  30.947  14.389
85988W        W52771  36.585  44.743  14.896
85989W        W52772  26.241  36.862   4.316
85990W        W52773  38.828  37.978  11.856
85991W        W52774  22.293   9.954  11.570
85992W        W52775  42.551  41.452  12.152
85993W        W52776  38.478   0.618  11.452
85994W        W52777  35.584  35.175  11.027
85995W        W52778  22.713   8.263  10.717
85996W        W52779  40.821  25.486   1.356
85997W        W52780  24.708  37.960   4.577
85998W        W52781  15.685   1.471   1.372
85999W        W52782   8.464   9.445  10.701
86000W        W52783   8.638  28.112   0.809
86001W        W52784  24.495  16.908  11.982
86002W        W52785  23.318  16.698   4.070
86003W        W52786  43.868   1.552  12.141
86004W        W52787  32.839   3.678  14.746
86005W        W52788  25.204   0.327  11.929
86006W        W52789   4.164  18.235  11.774
86007W        W52790   1.031  34.115   3.737
86008W        W52791   5.138   4.275   4.263
86009W        W52792  23.433  36.863   3.992
86010W        W52793   3.952   3.330  14.746
86011W        W52794  22.625  41.399  10.582
86012W        W52795  38.539  37.987   2.079
86013W        W52796  29.244  13.904   0.232
86014W        W52797   9.341  37.404  14.416
86015W        W52798  39.427  36.365  12.511
86016W        W52799  20.405   3.393  13.876
86017W        W52800  37.669  10.083   0.761
86018W        W52801  28.550  24.453  13.399
86019W        W52802  12.666   2.391   1.675
86020W        W52803  26.235  19.693  13.261
86021W        W52804  39.065  20.519  10.739
86022W        W52805  16.455  26.558  11.537
86023W        W52806  38.087  42.293  11.629
86024W        W52807  41.455  38.826  10.649
86025W        W52808   6.952  34.337  12.069
86026W        W52809  17.317  17.524   4.186
86027W        W52810  27.455  29.366   0.451
86028W        W52811  25.096   6.261  12.654
86029W        W52812  37.786  29.614   0.765
86030W        W52813  16.779  38.871  15.000
86031W        W52814  39.283  20.729  13.358
86032W        W52815  35.579   2.766  13.945
86033W        W52816  25.092   7.907  10.800
86034W        W52817  36.579   8.609   1.754
86035W        W52818   2.332  31.030  10.694
86036W        W52819   2.322  44.061  10.483
86037W        W52820  28.689  20.059   0.889
86038W        W52821  18.328  38.085  11.725
86039W        W52822  19.752  27.623   1.298
86040W        W52823  33.526   0.782   0.387
86041W        W52824  23.087  12.756   0.916
86042W        W52825  39.104  15.891  11.980
86043W        W52826  38.386  32.479  13.609
86044W        W52827  12.355  24.816  14.066
86045W        W52828   0.780  23.520   3.688
86046W        W52829   6.245  37.105   2.746
86047W        W52830  43.845  16.586  12.644
86048W        W52831  40.165  21.349  14.623
86049W        W52832  29.901  14.424   1.491
86050W        W52833  26.008  43.247   2.744
86051W        W52834   6.155   3.182   1.294
86052W        W52835  28.041   8.853  13.791
86053W        W52836   5.672  26.160  14.817
86054W        W52837  36.374   2.787   0.197
86055W        W52838  15.722   9.463  11.971
86056W        W52839  17.353   6.797   1.248
86057W        W52840   7.037   6.363  12.528
86058W        W52841  12.056   1.039   0.581
86059W        W52842   8.723  30.384   4.779
86060W        W52843  17.612  41.068   0.303
86061W        W52844  17.216  40.518  14.955
86062W        W52845  27.057  28.253  12.398
86063W        W52846  14.697  44.954  12.948
86064W        W52847  15.627  33.438  13.038
86065W        W52848   1.386  19.980   0.292
86066W        W52849   5.042   4.662  11.717
86067W        W52850  31.729   9.379  14.443
86068W        W52851  18.696  21.386   2.385
86069W        W52852  19.898  42.798   2.231
86070W        W52853  17.810  22.987  12.888
86071W        W52854  20.497   0.287   2.707
86072W        W52855  39.378  31.343  14.520
86073W        W52856   1.480   7.200  13.076
86074W        W52857  32.127   8.800  12.126
86075W        W52858  40.903  23.456  13.462
86076W        W52859  30.609  10.553   2.400
86077W        W52860  17.222  25.992   2.345
86078W        W52861   6.055  11.782   3.550
86079W        W52862  23.064   0.071  10.602
86080W        W52863  33.821  37.975  10.830
86081W        W52864  15.119  42.572   4.895
86082W        W52865  25.003   8.288  13.404
86083W        W52866  41.636  18.576  12.855
86084W        W52867  25.034  30.513  14.468
86085W        W52868  38.313  43.106  13.906
86086W        W52869   1.829  22.241  13.454
86087W        W52870  18.184  33.658   1.894
86088W        W52871  15.025  21.042  12.899
86089W        W52872  37.444  28.078   2.606
86090W        W52873   7.343  35.196   2.057
86091W        W52874   7.304  21.775  13.521
86092W        W52875  28.655   8.388  10.727
86093W        W52876  29.560  37.527  11.436
86094W        W52877  12.677  22.030   0.444
86095W        W52878  32.242  18.064  14.413
86096W        W52879  11.168  15.852  14.453
86097W        W52880  28.760  32.948  13.566
86098W        W52881  32.074  30.459  11.528
86099W        W52882   2.067  13.350   0.917
86100W        W52883  28.690  38.436   3.108
86101W        W52884  16.759  41.997  12.892
86102W        W52885  37.526  27.891   2.132
86103W        W52886   0.907  35.124   2.757
86104W        W52887  35.153  14.033  12.360
86105W        W52888   4.217   2.836  10.875
86106W        W52889  14.816  26.600  13.129
86107W        W52890  44.752   8.970   1.655
86108W        W52891  39.789  15.449   1.284
86109W        W52892   9.177   3.912   0.333
86110W        W52893  23.357   3.681  10.738
86111W        W52894  14.037  34.962   5.331
86112W        W52895  10.620  37.248  10.729
86113W        W52896   3.390  16.180  11.081
86114W        W52897  20.522  13.140   2.414
86115W        W52898   2.256  22.367   3.839
86116W        W52899   3.951  32.590   4.343
86117W        W52900  23.626  29.083  14.940
86118W        W52901  42.478  32.240  12.072
86119W        W52902  14.414  37.158   1.558
86120W        W52903   7.773  16.838   0.418
86121W        W52904  41.867  37.170   1.938
86122W        W52905  18.099  18.118  14.281
86123W        W52906  32.616  16.976   0.168
86124W        W52907  42.503  25.303  12.868
86125W        W52908  21.534   1.762   3.321
86126W        W52909  40.335  24.155   2.355
86127W        W52910  42.333  40.557   1.375
86128W        W52911   1.636  41.880   1.269
86129W        W52912  33.050   7.439  11.817
86130W        W52913  34.085  29.391   0.769
86131W        W52914  30.710   1.242   1.431
86132W        W52915   9.089  28.237   4.807
86133W        W52916  26.154   8.383   2.671
86134W        W52917  25.195  31.633   0.468
86135W        W52918  32.042  10.900   3.689
86136W        W52919  35.176  42.559  11.171
86137W        W52920  19.805  15.803  12.890
86138W        W52921  10.164  10.381   0.947
86139W        W52922  21.012  21.505  13.011
86140W        W52923  27.630   8.925  11.373
86141W        W52924  22.562  44.464   9.953
86142W        W52925  36.598  43.957   1.863
86143W        W52926  11.677  11.384  13.527
86144W        W52927  38.390   8.890   4.616
86145W        W52928   7.505   2.145  10.913
86146W        W52929  34.400   1.931   2.410
86147W        W52930   8.118  33.840   4.109
86148W        W52931  37.861  38.070   0.014
86149W        W52932  30.434  12.657  12.887
86150W        W52933  10.559   3.931   1.893
86151W        W52934  22.187  17.229  14.513
86152W        W52935   1.043  28.452   1.293
86153W        W52936  23.069  16.235   4.834
86154W        W52937   3.225  38.235   2.854
86155W        W52938  31.176   8.617   3.269
86156W        W52939  10.423  28.892   3.238
86157W        W52940  33.528  25.461  14.807
86158W        W52941  27.954  19.440   1.264
86159W        W52942  36.467  38.393  13.942
86160W        W52943  26.829  11.275   0.720
86161W        W52944  28.918  24.682  13.064
86162W        W52945  41.539  26.437   2.702
86163W        W52946  37.911  14.726   2.314
86164W        W52947  24.075   3.878   1.860
86165W        W52948  30.136  22.958   3.574
86166W        W52949  24.439   7.340   4.074
86167W        W52950  24.055  22.456  10.592
86168W        W52951  39.367  35.989   2.395
86169W        W52952   5.365   7.695  12.493
86170W        W52953   0.709  34.238  12.076
86171W        W52954  37.746  27.487   0.886
86172W        W52955  29.065   9.236  13.798
86173W        W52956   5.082  35.823   4.924
86174W        W52957  25.584  32.708  14.421
86175W        W52958  13.340  34.642   2.230
86176W        W52959  21.099  26.947  12.102
86177W        W52960  37.110  26.674   4.195
86178W        W52961  13.561  34.564   3.710
86179W        W52962  40.896  31.686  14.837
86180W        W52963   5.358  10.184  10.544
86181W        W52964  10.715  34.490   4.034
86182W        W52965  34.529  32.147  10.246
86183W        W52966  38.702   5.512   3.730
86184W        W52967  43.992   4.276  12.438
86185W        W52968   7.922  44.446  11.978
86186W        W52969  23.587  20.619  10.724
86187W        W52970  14.559  16.684   3.751
86188W        W52971  25.910   9.382   3.783
86189W        W52972  42.448  32.461   3.735
86190W        W52973  31.957  43.339   1.267
86191W        W52974  14.196   7.552  11.885
86192W        W52975   2.966  28.129   2.441
86193W        W52976  33.499  28.984  10.851
86194W        W52977  14.918  13.498   0.910
86195W        W52978  41.709   4.687  13.566
86196W        W52979  12.367  23.691  14.255
86197W        W52980  22.100   7.827  11.080
86198W        W52981  42.465  39.153  12.119
86199W        W52982  27.661  21.119   0.683
86200W        W52983  18.732  41.225  11.190
86201W        W52984  34.416   2.056   2.906
86202W        W52985  11.150  16.770  12.003
86203W        W52986  30.352  39.548   3.699
86204W        W52987   6.948   3.233   1.823
86205W        W52988  39.337  37.773   3.484
86206W        W52989  28.952  42.323   4.537
86207W        W52990  30.890  26.710   4.123
86208W        W52991   5.479  43.548  10.432
86209W        W52992   3.727   5.678   1.327
86210W        W52993  27.328  25.057  10.540
86211W        W52994  22.641   6.906   4.219
86212W        W52995  34.900  13.727  13.089
86213W        W52996  10.938  43.437  11.528
86214W        W52997  17.082  30.641  13.556
86215W        W52998  13.135  44.428   1.860
86216W        W52999  22.558  33.020   2.568
86217W        W53000  36.694  22.141  10.591
86218W        W53001  38.526   6.122   1.284
86219W        W53002   6.154   2.753  11.284
86220W        W53003  36.492   4.486   1.919
86221W        W53004  33.934  20.993   1.285
86222W        W53005  36.319  44.905   2.452
86223W        W53006  21.394  30.154  14.427
86224W        W53007  36.385   8.624  12.909
86225W        W53008   9.251  34.683   1.666
86226W        W53009  29.892   2.287  12.401
86227W        W53010   2.514   5.775  10.648
86228W        W53011  31.521  39.157  11.118
86229W        W53012  35.043  12.737  12.073
86230W        W53013  12.140  30.606   0.205
86231W        W53014  20.173  23.659   3.270
86232W        W53015   3.965  36.511   2.914
86233W        W53016  28.013  10.187   1.321
86234W        W53017  29.575  17.107   4.381
86235W        W53018  31.680  31.576   0.734
86236W        W53019  27.194  26.053   4.841
86237W        W53020  30.590  28.751  11.329
86238W        W53021  26.008  31.779   5.113
86239W        W53022  37.104  14.593  13.388
86240W        W53023   9.593   6.870  13.402
86241W        W53024   1.503  43.696  14.445
86242W        W53025  34.161  20.293  13.812
86243W        W53026  27.081  12.221   4.649
86244W        W53027   4.185  13.355  12.046
86245W        W53028   4.111  21.207  13.450
86246W        W53029  40.517   6.443   3.316
86247W        W53030  37.304  42.734   2.277
86248W        W53031   9.143  39.959  11.073
86249W        W53032  31.403   1.963   3.850
86250W        W53033  18.518  34.149   1.801
86251W        W53034  32.181   4.286  13.460
86252W        W53035  38.239  40.303   0.531
86253W        W53036  11.045  31.568  12.004
86254W        W53037  13.844  32.639  12.505
86255W        W53038   9.125  33.050   4.055
86256W        W53039  32.398  44.864   4.690
86257W        W53040  37.530   5.133  10.106
86258W        W53041  38.185  21.409   0.664
86259W        W53042  39.292  30.639   3.388
86260W        W53043  28.835  22.077  13.816
86261W        W53044   4.435  28.491  10.978
86262W        W53045  28.554   1.042   4.564
86263W        W53046  28.727  28.420  14.885
86264W        W53047  21.254  23.988   3.698
86265W        W53048   8.472  19.632  12.502
86266W        W53049  38.943  27.181  13.109
86267W        W53050  37.120   5.392   2.399
86268W        W53051   3.884  36.116  11.370
86269W        W53052  27.138  23.206  10.393
86270W        W53053  37.022  39.358  14.264
86271W        W53054  44.280   4.382   4.613
86272W        W53055  40.406  24.949  13.302
86273W        W53056  23.415  23.842   4.959
86274W        W53057  28.620   7.000   2.420
86275W        W53058   9.767  42.179  11.619
86276W        W53059  22.616  32.507  13.419
86277W        W53060  22.074  13.872   0.945
86278W        W53061   0.826  16.128  10.373
86279W        W53062  24.539  36.815  12.423
86280W        W53063  35.907  38.639   3.176
86281W        W53064  19.601  12.245   3.513
86282W        W53065   6.699  29.958   1.967
86283W        W53066   9.753  33.313  10.714
86284W        W53067   4.931  40.479  13.391
86285W        W53068  15.502  37.948   3.318
86286W        W53069  23.064  38.121   0.059
86287W        W53070  44.585   1.961  12.869
86288W        W53071   5.836  42.982  14.869
86289W        W53072  22.684   2.697   2.190
86290W        W53073   9.612   2.295   1.043
86291W        W53074  43.167  23.509   3.902
86292W        W53075   1.942  14.101   0.430
86293W        W53076   1.404  29.654  13.536
86294W        W53077  26.213  26.849   1.846
86295W        W53078  26.387   0.364  11.161
86296W        W53079  30.335  27.104   0.701
86297W        W53080  11.653  41.571   2.895
86298W        W53081  24.078  11.128   3.875
86299W        W53082   3.094  42.028   4.960
86300W        W53083  43.922  35.252   2.353
86301W        W53084  27.958   6.475   4.655
86302W        W53085  28.126  40.929   1.646
86303W        W53086  14.489   2.998  13.872
86304W        W53087  32.004  28.545   0.224
86305W        W53088  16.233   4.826   2.074
86306W        W53089  22.869  44.443   0.634
86307W        W53090   1.715  12.356   0.962
86308W        W53091  35.092  34.838   3.562
86309W        W53092  35.938  43.660  12.357
86310W        W53093  39.068  44.285  13.576
86311W        W53094  15.078  26.979  12.840
86312W        W53095  17.316  42.747  14.354
86313W        W53096   0.863  34.615   2.705
86314W        W53097  12.141  15.075   4.571
86315W        W53098   2.419  15.082  14.979
86316W        W53099  10.287  34.654  12.058
86317W        W53100   6.035  30.388  14.939
86318W        W53101   5.059  33.306  11.024
86319W        W53102  37.273  17.795  11.919
86320W        W53103   7.884  40.863   1.275
86321W        W53104   6.914   1.427  10.644
86322W        W53105   0.368  24.262   4.708
86323W        W53106  39.506  27.013   1.454
86324W        W53107  15.722   7.649   2.256
86325W        W53108   9.420  17.589   3.352
86326W        W53109  29.730  23.583   4.087
86327W        W53110  31.443  19.678   9.999
86328W        W53111  19.579  44.870  12.689
86329W        W53112  18.314  14.145   9.910
86330W        W53113   5.198  38.858   3.343
86331W        W53114  20.107   2.394  11.083
86332W        W53115  28.370   5.869  12.490
86333W        W53116  21.980  37.450   0.293
86334W        W53117   7.656  15.309   0.867
86335W        W53118  22.888   7.283  11.001
86336W        W53119  30.660  25.621   4.126
86337W        W53120  19.207  18.213   3.789
86338W        W53121  30.759  33.604   0.333
86339W        W53122  37.677  38.606   2.298
86340W        W53123  15.589   0.338   3.581
86341W        W53124  15.021  39.224   9.888
86342W        W53125   1.607  40.183   1.909
86343W        W53126  38.648  31.594  11.124
86344W        W53127  42.369  38.085   3.815
86345W        W53128  26.128  25.509   3.235
86346W        W53129  40.762  11.089   4.055
86347W        W53130  37.257  35.103  14.359
86348W        W53131  17.750  10.842  12.327
86349W        W53132  11.732   3.241   0.276
86350W        W53133  12.156  21.979   0.495
86351W        W53134  27.784   2.916   3.295
86352W        W53135  17.813   6.361   2.714
86353W        W53136  23.011  43.477   1.367
86354W        W53137   8.886  36.061  13.851
86355W        W53138  12.108  17.153   2.181
86356W        W53139  33.840  10.887  13.410
86357W        W53140  20.155  36.811   2.525
86358W        W53141  33.384  22.439  12.013
86359W        W53142  43.805  10.632   4.170
86360W        W53143  36.647  20.540   0.634
86361W        W53144  44.368  41.444   1.781
86362W        W53145  35.790  12.644   4.095
86363W        W53146  43.924  25.442  11.784
86364W        W53147  22.609   8.726   2.823
86365W        W53148  31.919  39.144   0.357
86366W        W53149  15.833   8.670  11.086
86367W        W53150   5.368   8.432   2.264
86368W        W53151   8.288   2.752   1.030
86369W        W53152  32.548  22.796  12.146
86370W        W53153  24.490  26.785   4.655
86371W        W53154  30.961  22.360  12.105
86372W        W53155   7.455  12.186   1.797
86373W        W53156  34.603  33.769   4.791
86374W        W53157   5.936   4.797   2.284
86375W        W53158  33.974  15.522  12.112
86376W        W53159  20.565   6.132  12.873
86377W        W53160  34.213  44.218  12.621
86378W        W53161  38.447  11.616   0.394
86379W        W53162  15.916   0.486  12.377
86380W        W53163   0.746  20.849   3.684
86381W        W53164   6.891  27.073   4.189
86382W        W53165  43.934  41.578   4.019
86383W        W53166  12.703  41.755   1.452
86384W        W53167  41.884   0.608  11.000
86385W        W53168  24.743  26.038  11.673
86386W        W53169  26.168  37.160   0.467
86387W        W53170  44.183  38.829   0.673
86388W        W53171  30.233  18.117  12.600
86389W        W53172  36.933   9.138  11.107
86390W        W53173  19.326   8.420   0.745
86391W        W53174  15.554  37.616  14.407
86392W        W53175   5.896  29.383   4.889
86393W        W53176  29.696  19.184  10.571
86394W        W53177  15.683  33.564   4.621
86395W        W53178  32.917  31.658   4.583
86396W        W53179   0.094  10.934   1.577
86397W        W53180  44.369  14.387   1.427
86398W        W53181   2.337  33.488  11.488
86399W        W53182  21.504  27.690  13.072
86400W        W53183  25.944   9.129  14.255
86401W        W53184  37.534  41.543   3.948
86402W        W53185   1.963  30.890  11.517
86403W        W53186   6.340   9.682   4.425
86404W        W53187  25.653  24.192   2.759
86405W        W53188   4.418  17.701   3.580
86406W        W53189  14.696   5.911  11.684
86407W        W53190  17.102  33.392   4.455
86408W        W53191  34.086  38.812   2.253
86409W        W53192  30.607   9.632  14.905
86410W        W53193  18.624  40.074   4.866
86411W        W53194  17.782  34.962  13.092
86412W        W53195   8.780  30.637   2.394
86413W        W53196  12.261  23.043  13.998
86414W        W53197   3.718  19.957  12.329
86415W        W53198  44.787   3.198   2.668
86416W        W53199  10.416  18.863   1.488
86417W        W53200   2.456   7.259   4.070
86418W        W53201  23.917  18.014  13.517
86419W        W53202  38.163   4.752   0.987
86420W        W53203   2.625   0.298   2.151
86421W        W53204  22.615  23.930  12.948
86422W        W53205  11.973  29.914  13.883
86423W        W53206  34.006  30.242   4.987
86424W        W53207  14.253  24.552   4.755
86425W        W53208   1.640  22.048   1.081
86426W        W53209  24.535  14.271  10.692
86427W        W53210  33.826  31.076   0.865
86428W        W53211  32.924  32.677  13.070
86429W        W53212  32.865  19.259  13.405
86430W        W53213  10.428  21.026  11.891
86431W        W53214  14.908  33.575   2.105
86432W        W53215   9.667  28.707   1.390
86433W        W53216   6.907  11.836   0.055
86434W        W53217   5.928  41.201   4.774
86435W        W53218   7.360  42.380  13.498
86436W        W53219   5.675  43.976  13.090
86437W        W53220  33.510  41.511  12.998
86438W        W53221  20.986  10.362  13.741
86439W        W53222  31.162   4.202   3.731
86440W        W53223  37.920  41.938   0.852
86441W        W53224  24.540   4.067  13.539
86442W        W53225  15.864  19.312   2.448
86443W        W53226  29.576  30.632   0.706
86444W        W53227  41.984  16.057   2.221
86445W        W53228  24.991   7.941   3.103
86446W        W53229  15.787  40.971   0.036
86447W        W53230   4.458   9.672   0.929
86448W        W53231  35.208  40.340  11.280
86449W        W53232   7.289   2.565  10.723
86450W        W53233  27.643  23.735   1.330
86451W        W53234  26.802   8.577   2.334
86452W        W53235  38.126   8.825  12.303
86453W        W53236  15.676   0.433  10.512
86454W        W53237  13.851  16.362  14.333
86455W        W53238  25.114  17.519   3.583
86456W        W53239  41.320  18.026  12.955
86457W        W53240  23.478  13.277  10.622
86458W        W53241  19.750   6.334   4.869
86459W        W53242   4.691   7.152   3.758
86460W        W53243  13.380   5.408  14.326
86461W        W53244   0.336  26.377   2.238
86462W        W53245  17.926  37.143  11.507
86463W        W53246  37.475  33.158  13.088
86464W        W53247   9.419  15.702  13.973
86465W        W53248  43.975  20.928  10.204
86466W        W53249  20.137  10.283   4.990
86467W        W53250   2.101  14.634  13.805
86468W        W53251   0.673  37.268   0.916
86469W        W53252  43.891  21.933   0.096
86470W        W53253  27.950  26.171  13.163
86471W        W53254  34.866  14.774   2.172
86472W        W53255  34.131  29.895   0.651
86473W        W53256  10.618   1.448   0.828
86474W        W53257  22.349  18.236  10.279
86475W        W53258  40.798  44.007  14.549
86476W        W53259  43.406  26.647   0.029
86477W        W53260  40.274  44.782   0.424
86478W        W53261  35.921  27.979  12.140
86479W        W53262  27.695  18.111   2.718
86480W        W53263  36.643   5.356  11.614
86481W        W53264  12.409  39.410  10.781
86482W        W53265  40.904   4.060  11.061
86483W        W53266  20.330  24.522  12.663
86484W        W53267  22.191  28.162  10.559
86485W        W53268  43.922  31.846   0.216
86486W        W53269  41.086  10.044   0.335
86487W        W53270  23.741   1.000   0.792
86488W        W53271  37.378   3.658  14.262
86489W        W53272  31.816   2.337   4.629
86490W        W53273  44.897  32.131  13.936
86491W        W53274  14.146   9.911   2.733
86492W        W53275  23.736  14.182  11.648
86493W        W53276  13.677  27.160  12.143
86494W        W53277  27.213  41.532  13.996
86495W        W53278  25.470   3.108   3.658
86496W        W53279  12.145  10.227   4.230
86497W        W53280  20.012  15.276   3.230
86498W        W53281   2.328   2.259   1.993
86499W        W53282  30.029  37.662  12.146
86500W        W53283  41.244   5.521  13.568
86501W        W53284  10.589  21.228   4.159
86502W        W53285   6.143  19.831  13.533
86503W        W53286  42.340  30.661   2.358
86504W        W53287  15.364  11.923   1.972
86505W        W53288   0.976  16.616  12.793
86506W        W53289   2.937  28.657  14.220
86507W        W53290  44.176  20.225  10.720
86508W        W53291  22.820  10.433  10.287
86509W        W53292   3.026   6.141  12.882
86510W        W53293  17.734   9.858   4.007
86511W        W53294  20.498   5.283  14.129
86512W        W53295  30.399   9.250   1.428
86513W        W53296  35.429  29.590  12.395
86514W        W53297   1.828   7.057   3.790
86515W        W53298   7.202   0.818  11.702
86516W        W53299   2.493  26.129   3.930
86517W        W53300   7.191  23.029  10.720
86518W        W53301  40.433  24.050  11.097
86519W        W53302  22.694  11.574   0.796
86520W        W53303   0.921  44.774  14.388
86521W        W53304   2.833  13.410   4.400
86522W        W53305   1.819   2.840   0.859
86523W        W53306   3.810  34.285   3.042
86524W        W53307  31.195  27.928  13.860
86525W        W53308   2.530  16.750  10.719
86526W        W53309  42.916   1.771   1.915
86527W        W53310   7.052  16.182  12.726
86528W        W53311  29.958   4.611  11.554
86529W        W53312  12.122  16.636   1.962
86530W        W53313   2.067   7.356   1.845
86531W        W53314  21.873  19.045  10.901
86532W        W53315  10.199  12.676   0.239
86533W        W53316  39.771  36.048  12.848
86534W        W53317  25.046   4.943  14.390
86535W        W53318  35.333   4.011   0.400
86536W        W53319  17.769  36.157  13.227
86537W        W53320   9.087  34.029  14.464
86538W        W53321   6.897   7.293   0.666
86539W        W53322  12.765  13.765  13.860
86540W        W53323  11.762   1.474  13.928
86541W        W53324  31.448  17.654  12.993
86542W        W53325  11.425  30.179  12.892
86543W        W53326  41.162  36.067   4.439
86544W        W53327  26.970   1.256  12.984
86545W        W53328   1.595  17.750  11.714
86546W        W53329  25.889   0.367  11.210
86547W        W53330  28.575  23.593  11.422
86548W        W53331  27.653  16.360   3.847
86549W        W53332  20.202  27.673   0.002
86550W        W53333  30.506  18.081   1.861
86551W        W53334  27.271   9.299  12.508
86552W        W53335  16.640   8.887   2.694
86553W        W53336  13.201  15.085  12.980
86554W        W53337  37.720   9.191   1.469
86555W        W53338  15.575   1.914   3.667
86556W        W53339  23.531  43.552   3.547
86557W        W53340  18.619   3.697   4.073
86558W        W53341  34.698  12.567   5.236
86559W        W53342  30.732  12.745   4.290
86560W        W53343   1.099  25.653  11.993
86561W        W53344  10.193   4.482   3.275
86562W        W53345   2.939  24.443  14.336
86563W        W53346  26.705  33.985   0.830
86564W        W53347  41.782  30.130  14.319
86565W        W53348  14.128  33.656  12.289
86566W        W53349  44.443  33.176   1.876
86567W        W53350  36.708   4.443  11.693
86568W        W53351  10.659  34.120  13.847
86569W        W53352  18.154  16.691  12.375
86570W        W53353  18.281  31.555  11.671
86571W        W53354  25.335  33.925  14.957
86572W        W53355  27.888  10.503  14.517
86573W        W53356  15.246  11.935   4.882
86574W        W53357  18.183  19.416  12.010
86575W        W53358  40.959   7.385   2.330
86576W        W53359  35.613  27.363  13.698
86577W        W53360  41.311  17.269   4.778
86578W        W53361  21.624   3.154   2.741
86579W        W53362   9.132  42.813   4.029
86580W        W53363  23.570  21.469  14.913
86581W        W53364   7.370  40.386  12.029
86582W        W53365   9.146  36.462   2.277
86583W        W53366  19.736  43.955  13.435
86584W        W53367  22.303   2.035  10.331
86585W        W53368  23.193  39.287   1.391
86586W        W53369  22.152   3.429  11.891
86587W        W53370   3.847  25.526   0.373
86588W        W53371   3.158  30.574  12.341
86589W        W53372   5.456  24.289  13.427
86590W        W53373  24.914  13.524   0.850
86591W        W53374   0.873  21.207   0.256
86592W        W53375   3.861   3.437  13.715
86593W        W53376  43.527  20.646  14.259
86594W        W53377   6.265  29.227  14.973
86595W        W53378  21.311   2.273   0.335
86596W        W53379  22.229   6.918   2.589
86597W        W53380  21.506   3.815  11.525
86598W        W53381   9.662   9.972  10.716
86599W        W53382  17.251   1.422  14.439
86600W        W53383  27.012  33.453   3.898
86601W        W53384  41.226  32.481   2.962
86602W        W53385  15.857  35.442   2.779
86603W        W53386  32.575  43.803  12.972
86604W        W53387  39.096  29.467   4.608
86605W        W53388  36.255  30.602   2.584
86606W        W53389   5.873  16.598  13.163
86607W        W53390   3.426  21.900   1.841
86608W        W53391  20.753  13.755   1.212
86609W        W53392   2.488  12.201   0.688
86610W        W53393  31.501  37.368   2.016
86611W        W53394  39.528  15.170   2.603
86612W        W53395  39.018  12.853  12.386
86613W        W53396  36.302  12.896  11.411
86614W        W53397  17.690  15.091  13.048
86615W        W53398  43.004   8.345  12.932
86616W        W53399  32.095   5.925  12.493
86617W        W53400  37.400   7.581  13.514
86618W        W53401  37.636  40.391  12.902
86619W        W53402  14.581   3.762   0.678
86620W        W53403  44.116   5.315   5.380
86621W        W53404  44.238  26.215   1.380
86622W        W53405  14.894  28.842   3.172
86623W        W53406  23.589   4.719  10.828
86624W        W53407  43.539  34.619   1.630
86625W        W53408  31.553   5.223  10.951
86626W        W53409  41.442  37.893  12.099
86627W        W53410  35.865  10.458   3.395
86628W        W53411  19.268   1.577  13.274
86629W        W53412  29.873  18.729   0.233
86630W        W53413  24.538  23.197   0.196
86631W        W53414  33.533  44.939  13.458
86632W        W53415  42.491  17.609  11.102
86633W        W53416  19.178   7.457   2.852
86634W        W53417  33.130  30.241  14.041
86635W        W53418  41.909  42.286   3.886
86636W        W53419  15.380  25.166  12.953
86637W        W53420  38.592   6.528   4.378
86638W        W53421  10.882  36.837  12.226
86639W        W53422  26.655   4.462   2.444
86640W        W53423  20.485  33.657  14.065
86641W        W53424  12.770  36.325  10.439
86642W        W53425  18.058  18.294   0.908
86643W        W53426  27.828  44.677   0.823
86644W        W53427  24.844  22.070  13.828
86645W        W53428  24.635  20.194   1.356
86646W        W53429   4.893  38.358   0.802
86647W        W53430   5.369  30.331   2.775
86648W        W53431   5.260  19.305   4.243
86649W        W53432   4.206  12.532   3.703
86650W        W53433  12.909  39.052   3.672
86651W        W53434  41.759  13.284   1.270
86652W        W53435  40.716  36.020   0.784
86653W        W53436  24.337  11.307  11.616
86654W        W53437  18.061  42.141  14.372
86655W        W53438   4.937  11.244   0.276
86656W        W53439   9.837  43.819  12.580
86657W        W53440  25.831  16.261   1.394
86658W        W53441   5.866  10.636   2.675
86659W        W53442  27.468  41.756   2.196
86660W        W53443   5.813  36.073   3.239
86661W        W53444  44.369  38.401  14.777
86662W        W53445   7.833   3.928  13.591
86663W        W53446  20.193  11.775  12.469
86664W        W53447   2.491  26.005   2.619
86665W        W53448  43.539   3.477   4.597
86666W        W53449  28.439  17.123  14.385
86667W        W53450   6.718  14.181   4.176
86668W        W53451  17.845  26.440  11.475
86669W        W53452   6.128  35.521   3.703
86670W        W53453  44.907  41.753  10.791
86671W        W53454   7.617  33.398  11.743
86672W        W53455  24.551  43.608   1.829
86673W        W53456   9.274  11.573   0.300
86674W        W53457   1.272  29.123   4.509
86675W        W53458  25.456  12.675  13.326
86676W        W53459  13.699  44.991   0.277
86677W        W53460   5.803   9.886  10.596
86678W        W53461   6.839   7.152  13.002
86679W        W53462  12.146  20.811  12.353
86680W        W53463  44.313  37.495  10.416
86681W        W53464   0.158  32.560  10.714
86682W        W53465  44.879  10.383  11.118
86683W        W53466   2.359  25.038  14.965
86684W        W53467  43.306   3.058   2.714
86685W        W53468   5.655  26.932  11.660
86686W        W53469  17.662  27.088   4.700
86687W        W53470  23.578  35.807  12.866
86688W        W53471  15.028  36.344  13.387
86689W        W53472  10.518   4.094  12.659
86690W        W53473  12.296  40.254   1.426
86691W        W53474  10.867  38.936   2.343
86692W        W53475  28.874  23.063   3.703
86693W        W53476  18.800  42.844  10.321
86694W        W53477  32.249  25.247   1.329
86695W        W53478  39.278  26.581   1.263
86696W        W53479   0.434  12.210  11.130
86697W        W53480   5.525   7.845   4.589
86698W        W53481  18.305   2.805  14.900
86699W        W53482  31.112  31.350   1.454
86700W        W53483   7.318   1.717   4.059
86701W        W53484  40.522  40.321   4.509
86702W        W53485  43.279   2.869  10.859
86703W        W53486  16.421  38.046   4.158
86704W        W53487  16.681  22.765   3.691
86705W        W53488   3.884  39.316   2.876
86706W        W53489  36.847  24.532   3.190
86707W        W53490  16.689   6.750  14.576
86708W        W53491  16.276  10.722  11.618
86709W        W53492  18.257   2.772   3.702
86710W        W53493   8.413  17.340  12.545
86711W        W53494  26.966  35.935   1.467
86712W        W53495   7.689  28.592   0.757
86713W        W53496  43.980  11.420  13.765
86714W        W53497  29.900   3.869  14.482
86715W        W53498   4.848  25.187  12.519
86716W        W53499  11.223  39.810   2.430
86717W        W53500  42.387  36.832  11.620
86718W        W53501  35.396   8.795  12.098
86719W        W53502  44.333  25.143   4.637
86720W        W53503  38.589  22.187   4.228
86721W        W53504  43.717  25.458   3.608
86722W        W53505  38.477  12.533  12.904
86723W        W53506  32.387   3.735   2.793
86724W        W53507   5.299  41.385   2.386
86725W        W53508  18.565  24.138   3.118
86726W        W53509  42.387  37.065  14.890
86727W        W53510   3.166  23.721  12.558
86728W        W53511  11.818  42.847  12.168
86729W        W53512   2.407   0.398   9.836
86730W        W53513   5.239   8.131  10.974
86731W        W53514  18.281  11.969  14.348
86732W        W53515   2.364  15.702   0.393
86733W        W53516  29.093  41.957   0.326
86734W        W53517  37.021  26.950  13.397
86735W        W53518  21.016  42.854   4.347
86736W        W53519  30.135  20.983  12.444
86737W        W53520  41.227   2.718   4.913
86738W        W53521  16.312  14.843  10.262
86739W        W53522  27.614  31.438   3.304
86740W        W53523  23.202  24.030   4.506
86741W        W53524  21.418  43.112   1.683
86742W        W53525  31.894  15.848  14.276
86743W        W53526  10.104  23.104   0.880
86744W        W53527  39.761  31.259  12.285
86745W        W53528  12.339   2.870  13.491
86746W        W53529  28.326  35.737   9.602
86747W        W53530  22.075   2.148  11.844
86748W        W53531  42.600  10.718   5.046
86749W        W53532  10.398  29.481  12.451
86750W        W53533  37.848  31.174   2.631
86751W        W53534   8.656   6.163  14.145
86752W        W53535  12.114  11.480   5.334
86753W        W53536   5.802  18.252   4.074
86754W        W53537  14.817  34.565  12.987
86755W        W53538   5.418  25.742  13.505
86756W        W53539  38.295  18.602  12.270
86757W        W53540  11.358  12.250  13.946
86758W        W53541  31.561  15.100   3.480
86759W        W53542  10.272  39.998   3.428
86760W        W53543   8.098  11.654  12.868
86761W        W53544  26.710  26.078   3.587
86762W        W53545  39.437  10.231  12.177
86763W        W53546  34.673   0.004   1.484
86764W        W53547  18.147   1.961   1.191
86765W        W53548   3.292  25.995   3.041
86766W        W53549  37.725  37.065   4.125
86767W        W53550  25.643   1.195  11.576
86768W        W53551  43.333  12.425  13.975
86769W        W53552  27.833  36.781  11.510
86770W        W53553  13.570  23.121   4.583
86771W        W53554  28.336  37.641   4.154
86772W        W53555  11.393  10.338  10.302
86773W        W53556  29.904  45.000  14.506
86774W        W53557  17.245   9.074  11.075
86775W        W53558  29.078  40.279   2.317
86776W        W53559  38.475   1.367  12.143
86777W        W53560  39.848  13.720  12.935
86778W        W53561  10.147  28.738  13.774
86779W        W53562  37.143  34.386   1.955
86780W        W53563  38.879   4.416   4.698
86781W        W53564   5.864   1.560   4.227
86782W        W53565   6.130  30.908  14.938
86783W        W53566  16.270   6.493  14.074
86784W        W53567  32.439  18.049   2.299
86785W        W53568  37.930  39.482  14.900
86786W        W53569  29.687  19.618   4.388
86787W        W53570   9.925  15.395  11.464
86788W        W53571  24.118  22.961  10.617
86789W        W53572  14.817   1.526  13.901
86790W        W53573  35.518  43.952   3.965
86791W        W53574  13.022  18.297  13.457
86792W        W53575  30.664  37.817   1.218
86793W        W53576  34.441  24.237   0.373
86794W        W53577  19.010  27.809  12.967
86795W        W53578  13.900   1.493   0.434
86796W        W53579  31.183  30.412   3.124
86797W        W53580  43.888  22.450   4.757
86798W        W53581  25.513   1.036  10.702
86799W        W53582  33.873  36.545   3.143
86800W        W53583  15.198  14.556  11.594
86801W        W53584  44.860  34.088   0.212
86802W        W53585  31.237   4.357  12.473
86803W        W53586  28.256  20.212  11.577
86804W        W53587  35.336  43.487   3.774
86805W        W53588  30.126   5.888   3.827
86806W        W53589  13.128   7.746  12.424
86807W        W53590  22.111  15.149   1.227
86808W        W53591  16.502  43.269  11.160
86809W        W53592  25.842  16.101  13.012
86810W        W53593  12.615  22.015   2.476
86811W        W53594  14.065  27.424  11.959
86812W        W53595  32.658  43.425  13.536
86813W        W53596  23.981  17.480  12.437
86814W        W53597   0.279  17.360   0.207
86815W        W53598  36.112   5.281   4.550
86816W        W53599  31.342   5.400   4.911
86817W        W53600   4.293  23.707   4.401
86818W        W53601  25.050  31.117   2.768
86819W        W53602  28.640  31.111   4.679
86820W        W53603   8.259   5.302   1.799
86821W        W53604   6.469  13.187   4.289
86822W        W53605  14.407  20.104   3.703
86823W        W53606  36.112  29.434  12.070
86824W        W53607  35.467  41.429   2.183
86825W        W53608  14.411   5.284   3.174
86826W        W53609  40.035  30.648   0.327
86827W        W53610   0.541   9.603  10.626
86828W        W53611   2.212   8.113  11.261
86829W        W53612   2.835  28.940  11.112
86830W        W53613  20.754  43.785  14.515
86831W        W53614   8.274  17.202   4.160
86832W        W53615   0.221  38.081  14.417
86833W        W53616   2.711  38.919  12.895
86834W        W53617  19.748  42.386  10.730
86835W        W53618   8.476  24.894   3.410
86836W        W53619  17.604   6.622   1.820
86837W        W53620  25.035  37.855   1.958
86838W        W53621  35.467  22.725  13.988
86839W        W53622  12.707  43.765  14.741
86840W        W53623   0.909  37.896  11.664
86841W        W53624  42.825  34.362  11.170
86842W        W53625  20.619  12.870   1.779
86843W        W53626  12.802  42.851  12.463
86844W        W53627  44.290  30.971   2.954
86845W        W53628  24.740   6.863   4.126
86846W        W53629  17.945  31.172  11.588
86847W        W53630   6.426   7.819  12.025
86848W        W53631  30.008  20.613  11.772
86849W        W53632  39.916  13.369   1.866
86850W        W53633   9.264  25.339  12.509
86851W        W53634  18.285  28.756  11.316
86852W        W53635  33.923  14.197  10.580
86853W        W53636  38.333  12.329   0.323
86854W        W53637  38.117  24.739   4.835
86855W        W53638  42.289   7.419  13.740
86856W        W53639  17.349   5.353  12.002
86857W        W53640  24.932  14.301  12.900
86858W        W53641  23.530  16.378  12.013
86859W        W53642  43.075  41.499  11.582
86860W        W53643  28.659  44.772   0.435
86861W        W53644  24.434  33.165  12.418
86862W        W53645  10.190  18.678   3.324
86863W        W53646  12.848  38.080   2.795
86864W        W53647  18.171  43.476  12.443
86865W        W53648   6.854  25.733  14.821
86866W        W53649  33.256  28.521   2.191
86867W        W53650  10.460  33.651  12.750
86868W        W53651   9.609   3.006  12.015
86869W        W53652   1.121  32.423  10.658
86870W        W53653   2.143  43.814  11.960
86871W        W53654  18.394  39.460   4.124
86872W        W53655   8.355   6.873   4.361
86873W        W53656  23.513   5.673   2.311
86874W        W53657  30.999  11.805   1.453
86875W        W53658  19.257  29.949   1.520
86876W        W53659  13.736  17.773  14.408
86877W        W53660  25.587  34.696  11.986
86878W        W53661   9.818  37.858   2.309
86879W        W53662  10.108  42.492   4.228
86880W        W53663  20.167  34.985   3.692
86881W        W53664   6.411  43.876   1.535
86882W        W53665  38.813  14.162  12.452
86883W        W53666  11.089   9.408   0.867
86884W        W53667  34.158  19.752  14.782
86885W        W53668  14.727  12.542  11.166
86886W        W53669  25.513  43.133   4.112
86887W        W53670  41.391   2.691   2.423
86888W        W53671  15.308  13.865  11.111
86889W        W53672  31.924  37.927   1.507
86890W        W53673   5.626  23.921   1.250
86891W        W53674  11.270   9.863  11.181
86892W        W53675   5.928  16.171  11.819
86893W        W53676  21.623  11.870  11.784
86894W        W53677   7.793  22.790   2.406
86895W        W53678  26.305  44.891   0.843
86896W        W53679  17.361  26.682  11.553
86897W        W53680  28.114  25.756  12.894
86898W        W53681  20.816  36.935  12.459
86899W        W53682  36.365   7.311   3.142
86900W        W53683  13.711  12.868  11.581
86901W        W53684  19.277   8.050   0.384
86902W        W53685  31.365  35.969  11.641
86903W        W53686  39.042  34.419  10.641
86904W        W53687  25.006  42.205   3.086
86905W        W53688  13.789   3.732   2.346
86906W        W53689   4.903  19.726   1.305
86907W        W53690  15.796  42.889  13.688
86908W        W53691  31.043   7.192  14.802
86909W        W53692  27.783   8.690   2.038
86910W        W53693  26.578  44.120   3.517
86911W        W53694  26.713  20.642   4.713
86912W        W53695  40.510   9.306  11.664
86913W        W53696  10.283  11.231   2.298
86914W        W53697   3.873  16.090   2.936
86915W        W53698   5.963  26.068   1.407
86916W        W53699   7.300  19.743   4.119
86917W        W53700   8.435  34.027  13.542
86918W        W53701  32.969  43.253   0.326
86919W        W53702  32.341  27.098   2.132
86920W        W53703  32.557  12.059  14.432
86921W        W53704   8.362  35.694  14.475
86922W        W53705   1.352   9.780   1.469
86923W        W53706  44.542  41.595   2.259
86924W        W53707   5.235  17.726   1.092
86925W        W53708  12.388   5.303   1.708
86926W        W53709  30.446  34.128   4.561
86927W        W53710  42.077  41.970  11.538
86928W        W53711  11.167  33.902  10.734
86929W        W53712  17.044  21.470   2.391
86930W        W53713  40.399  34.816   2.306
86931W        W53714  13.721  34.881   4.915
86932W        W53715   1.563  20.712   4.834
86933W        W53716  31.450  43.452   3.733
86934W        W53717  16.830   2.819   3.091
86935W        W53718  40.365   7.679  14.283
86936W        W53719  10.590   7.650   2.670
86937W        W53720  29.895  18.473  13.377
86938W        W53721  37.782  14.614  10.991
86939W        W53722   6.877  26.975  14.436
86940W        W53723  20.256   4.410  12.602
86941W        W53724  13.990   0.472   3.051
86942W        W53725   0.850  35.299   4.177
86943W        W53726  29.605  43.549  12.139
86944W        W53727   4.708  40.338   1.637
86945W        W53728  35.683  17.200   0.317
86946W        W53729  20.486   1.251  10.709
86947W        W53730   0.354  14.804   9.889
86948W        W53731  41.499   5.940  10.659
86949W        W53732  25.052  18.921  13.751
86950W        W53733  11.367  34.059  14.985
86951W        W53734  27.708  12.217  12.603
86952W        W53735  19.537  31.691   4.344
86953W        W53736  30.461   6.745  14.528
86954W        W53737  27.568  32.062   0.479
86955W        W53738  42.700   0.696  14.326
86956W        W53739  12.057  38.408  14.961
86957W        W53740   0.422  14.150   4.622
86958W        W53741  19.137  35.609  12.181
86959W        W53742  25.037  28.654  10.884
86960W        W53743  37.563  32.630   4.073
86961W        W53744  14.744  27.818  10.726
86962W        W53745  14.292  32.711  11.917
86963W        W53746  13.216  27.611   4.267
86964W        W53747  44.567  29.091   3.453
86965W        W53748  24.681   3.654  12.561
86966W        W53749   4.703  34.352  14.951
86967W        W53750  12.338  37.354  11.857
86968W        W53751  38.948   6.436  11.231
86969W        W53752  44.085  15.843   0.292
86970W        W53753  17.285  21.660  14.980
86971W        W53754  37.567   5.541  13.960
86972W        W53755  44.592  12.807  13.086
86973W        W53756  14.570  27.966   3.654
86974W        W53757  41.282  20.537   2.400
86975W        W53758   9.897  11.760   4.569
86976W        W53759  28.438  14.209  10.669
86977W        W53760  21.749  14.730  10.604
86978W        W53761  37.581   8.289   0.661
86979W        W53762  11.630  10.956   4.691
86980W        W53763   8.822  24.262   5.036
86981W        W53764  23.412  16.616   1.030
86982W        W53765  26.198   2.865  13.486
86983W        W53766  14.236   0.268  12.950
86984W        W53767  17.390   8.585  11.138
86985W        W53768  39.036   8.994   1.462
86986W        W53769  44.727  27.087  12.614
86987W        W53770  35.397   3.228   2.905
86988W        W53771   4.554   7.808   0.940
86989W        W53772  34.966  31.171   3.128
86990W        W53773   9.055  38.821   2.991
86991W        W53774  10.639  35.800  10.466
86992W        W53775  10.219  10.613  14.501
86993W        W53776  27.939   7.612  13.814
86994W        W53777  11.219  37.096  10.574
86995W        W53778  15.646  26.165  11.640
86996W        W53779  35.404  18.534   3.663
86997W        W53780   1.394   7.458  14.051
86998W        W53781  30.557  32.543   4.176
86999W        W53782  17.264  30.397  13.992
87000W        W53783  10.254  17.839   2.910
87001W        W53784  20.262  37.965  10.616
87002W        W53785  39.114  35.390   1.256
87003W        W53786   5.756  32.521   2.322
87004W        W53787  25.553  12.281   3.568
87005W        W53788   5.459  18.901  14.680
87006W        W53789  14.175  15.229   0.748
87007W        W53790  33.084  37.530  10.590
87008W        W53791  25.446  17.790   4.920
87009W        W53792  35.170  19.287   3.224
87010W        W53793  26.027  27.702   3.817
87011W        W53794   8.420  15.299  11.563
87012W        W53795  31.142  26.943  13.456
87013W        W53796  33.351  31.111  12.624
87014W        W53797  41.827  15.811   4.167
87015W        W53798  12.986   9.334  12.478
87016W        W53799  44.395  28.657  11.404
87017W        W53800  39.298  15.899  11.511
87018W        W53801  20.368   2.771  10.704
87019W        W53802  24.869  43.756   4.159
87020W        W53803  44.282  12.744  14.608
87021W        W53804  37.076  13.724   4.701
87022W        W53805  18.269  16.219   3.811
87023W        W53806  39.550  14.691   1.870
87024W        W53807  42.284   9.847   0.873
87025W        W53808  33.183  24.655   3.328
87026W        W53809  28.503  28.907  14.236
87027W        W53810  40.298  15.173   0.431
87028W        W53811  38.397  24.705   3.078
87029W        W53812  36.386  24.584   2.919
87030W        W53813   2.228   4.356   4.764
87031W        W53814  34.229  36.270   2.429
87032W        W53815  42.282  26.921  11.359
87033W        W53816  35.991  13.140  14.060
87034W        W53817  13.108  18.835  13.631
87035W        W53818  14.212  30.146  13.001
87036W        W53819   7.732  23.785  12.962
87037W        W53820  36.935  12.055  14.429
87038W        W53821  34.506  44.267   0.626
87039W        W53822  29.123  35.324   4.122
87040W        W53823  24.537  40.879  13.494
87041W        W53824  23.076  11.352   0.195
87042W        W53825  18.152  36.391  13.721
87043W        W53826  34.995  12.045  14.644
87044W        W53827  33.462  13.799   3.233
87045W        W53828   7.419  31.190   2.168
87046W        W53829  33.494   9.029   2.321
87047W        W53830  42.228  15.847  11.226
87048W        W53831  12.293  25.015   1.689
87049W        W53832  32.577  20.746   2.286
87050W        W53833   4.282  17.548  10.700
87051W        W53834   9.670  11.073  12.278
87052W        W53835  39.543  36.524  13.641
87053W        W53836  35.222  12.194   4.634
87054W        W53837  43.068  12.620   4.062
87055W        W53838  33.027  39.555   2.669
87056W        W53839  16.736   9.078  13.347
87057W        W53840  31.134  11.281  13.462
87058W        W53841  10.029  30.703  12.182
87059W        W53842  28.308  16.372   9.966
87060W        W53843  19.212  44.842  12.329
87061W        W53844  35.485  41.339  11.716
87062W        W53845  16.160  17.350   1.816
87063W        W53846  44.549  30.089  13.830
87064W        W53847  12.438  40.885   2.275
87065W        W53848  25.683  43.465   0.803
87066W        W53849  23.919  19.392  13.100
87067W        W53850  43.210  30.173   2.152
87068W        W53851  22.557  43.142   3.294
87069W        W53852  44.000   9.596   4.175
87070W        W53853   2.862  14.502   1.316
87071W        W53854  40.275  44.816  12.454
87072W        W53855  20.241  38.411  12.348
87073W        W53856  18.711   5.927   3.748
87074W        W53857  43.588   7.701   2.732
87075W        W53858  31.451  39.427   1.802
87076W        W53859  40.743  25.116  13.731
87077W        W53860   1.398  12.620  12.120
87078W        W53861  23.063   1.984   2.329
87079W        W53862  25.630  23.093  12.555
87080W        W53863   4.321   8.257   2.732
87081W        W53864  13.220   0.399  14.448
87082W        W53865   9.723  30.165   0.448
87083W        W53866  12.583  19.116   0.318
87084W        W53867   9.624   5.994  14.734
87085W        W53868  40.422  31.497  13.448
87086W        W53869  10.524   2.748  10.197
87087W        W53870  17.260  13.903  11.622
87088W        W53871  27.398  40.071   3.589
87089W        W53872   2.054   6.980  14.551
87090W        W53873   6.977  30.073   3.228
87091W        W53874  17.800   5.235  11.132
87092W        W53875  38.853   6.776  10.872
87093W        W53876  14.305  25.038   4.955
87094W        W53877  44.325   5.745  11.581
87095W        W53878   4.723  25.629   4.276
87096W        W53879  36.875  37.661   4.567
87097W        W53880  24.133  17.151  14.835
87098W        W53881  30.298  41.275  13.808
87099W        W53882  24.764   4.289   4.964
87100W        W53883  24.617  29.952  12.013
87101W        W53884  19.672  26.551  12.910
87102W        W53885  20.977  34.334   3.223
87103W        W53886  34.100  33.112  14.380
87104W        W53887   5.802   7.950   2.151
87105W        W53888  35.565  18.935  14.809
87106W        W53889   9.294  31.441   0.352
87107W        W53890  11.809   6.153   2.667
87108W        W53891  17.752  25.259   2.265
87109W        W53892  26.993  27.585   0.817
87110W        W53893  15.550   7.357  12.936
87111W        W53894  42.062  18.970   1.783
87112W        W53895  40.381  23.450  12.912
87113W        W53896   0.654  28.389  11.809
87114W        W53897  43.353  35.563   0.387
87115W        W53898   2.163   6.829   4.752
87116W        W53899  19.058  10.385   2.874
87117W        W53900   7.873  11.344  12.200
87118W        W53901   7.911  14.224   3.181
87119W        W53902  23.283  44.377   1.507
87120W        W53903  28.499  17.182  11.119
87121W        W53904   3.916  23.763  12.876
87122W        W53905  18.117  20.663  11.544
87123W        W53906  18.694  22.387   0.825
87124W        W53907  11.177   0.230   0.288
87125W        W53908  33.195   9.288   3.953
87126W        W53909  42.505  20.139  10.628
87127W        W53910  10.813  40.787  11.430
87128W        W53911   0.785  35.731   5.203
87129W        W53912  31.220   5.913   1.234
87130W        W53913   1.753  27.387   3.291
87131W        W53914  44.018   6.179  12.443
87132W        W53915  34.223   5.275   0.366
87133W        W53916  40.778  43.231   0.786
87134W        W53917  22.824  29.403   0.256
87135W        W53918  26.935  31.625   0.912
87136W        W53919   7.758  36.613  12.558
87137W        W53920   3.310   4.226   1.187
87138W        W53921  41.435  36.128   2.910
87139W        W53922   7.255   7.984   3.705
87140W        W53923  30.463  25.774  12.490
87141W        W53924  15.162  12.852  14.354
87142W        W53925   4.212  36.939  13.030
87143W        W53926  28.690  18.041  14.008
87144W        W53927  16.868  38.364  12.636
87145W        W53928   2.056  27.508  13.424
87146W        W53929  32.247  15.407   0.283
87147W        W53930  16.247   1.507  14.210
87148W        W53931  16.654  13.629  13.686
87149W        W53932  15.411  30.100  11.917
87150W        W53933   6.555  18.285   2.613
87151W        W53934  37.142  33.677  10.333
87152W        W53935  26.167  19.112  12.467
87153W        W53936  28.232  38.694   1.277
87154W        W53937   4.967  20.232  13.349
87155W        W53938   4.235  17.764  13.927
87156W        W53939  42.054  22.420   3.642
87157W        W53940  28.487   4.431  10.596
87158W        W53941  43.357  42.450  10.568
87159W        W53942   2.216  34.026  13.993
87160W        W53943  30.937  29.052   3.176
87161W        W53944   8.361  10.600   0.726
87162W        W53945   9.736  42.039  14.800
87163W        W53946  33.012   9.598   3.608
87164W        W53947   8.741  16.798  11.161
87165W        W53948  26.082   5.940  12.304
87166W        W53949  14.614  23.087   4.642
87167W        W53950  10.185  15.331  10.819
87168W        W53951  32.882  19.518  10.112
87169W        W53952  12.096   1.218   2.781
87170W        W53953   1.963  40.301   4.306
87171W        W53954  42.191  15.065  12.938
87172W        W53955  28.355  26.540  12.010
87173W        W53956  13.178  26.350   0.706
87174W        W53957  22.199  20.398  14.293
87175W        W53958  20.620  12.114  12.611
87176W        W53959  44.841  11.674  10.665
87177W        W53960  40.911   0.960  13.731
87178W        W53961  43.720   3.892   2.149
87179W        W53962  34.705  23.076   3.718
87180W        W53963  33.532   4.277   2.385
87181W        W53964  23.208   7.184  13.109
87182W        W53965  27.759  23.187  13.645
87183W        W53966  28.599  36.078   4.017
87184W        W53967   1.100  20.005  11.179
87185W        W53968  13.805  38.453   2.741
87186W        W53969  28.622   7.442  12.665
87187W        W53970  26.767  24.034  14.655
87188W        W53971   2.487   2.887   2.619
87189W        W53972  32.337   9.694   4.825
87190W        W53973  35.388   9.976   0.289
87191W        W53974   9.277   9.512  12.722
87192W        W53975  33.317  14.323   3.215
87193W        W53976  11.551  43.411   0.564
87194W        W53977  38.175  35.984  12.092
87195W        W53978  41.233   7.415  14.817
87196W        W53979  33.898  21.033   0.319
87197W        W53980  36.412  19.675   0.803
87198W        W53981   4.312  13.512   1.416
87199W        W53982   9.677  21.719   1.416
87200W        W53983  24.953  17.819  14.376
87201W        W53984  43.489  37.056   0.342
87202W        W53985  24.606  33.452   4.501
87203W        W53986  21.181   0.474  10.664
87204W        W53987  10.794  28.949   4.159
87205W        W53988   1.823  20.999  14.205
87206W        W53989  22.940   5.201   4.033
87207W        W53990  39.505   7.594  14.505
87208W        W53991  27.306  28.031  11.201
87209W        W53992  12.440   1.640  10.756
87210W        W53993  33.677  22.212  11.599
87211W        W53994   6.419   4.833   4.086
87212W        W53995  36.469   3.227   3.185
87213W        W53996   5.906  28.338   1.384
87214W        W53997  30.134  34.478   1.115
87215W        W53998  20.290  42.781  12.036
87216W        W53999  34.000  28.671   1.776
87217W        W54000  17.582   4.768   1.709
87218W        W54001  17.538  43.880   2.747
87219W        W54002  15.027  15.870  11.072
87220W        W54003  14.807  16.540  13.912
87221W        W54004  36.849  38.159   3.144
87222W        W54005  12.877  24.620   0.435
87223W        W54006  20.229  43.452  12.480
87224W        W54007  15.477  30.573   0.775
87225W        W54008  13.310   0.667   3.231
87226W        W54009  44.123  32.891   0.980
87227W        W54010  26.087   2.166  14.052
87228W        W54011  16.734  28.952  13.441
87229W        W54012  10.478  35.356  11.401
87230W        W54013  28.712  14.026  11.106
87231W        W54014  14.088  18.196   0.423
87232W        W54015   7.848  23.034   3.308
87233W        W54016  18.665  25.505   4.584
87234W        W54017  16.196  10.942   1.340
87235W        W54018  44.478   3.059   2.244
87236W        W54019  20.259   2.267  10.214
87237W        W54020  31.609  22.495  11.171
87238W        W54021  10.809  16.096   4.605
87239W        W54022  42.065  26.947  10.855
87240W        W54023   5.017  20.737   4.834
87241W        W54024   6.523  19.745   4.515
87242W        W54025  19.244  30.898  12.030
87243W        W54026  16.065  28.381  13.758
87244W        W54027  41.741   7.941   2.096
87245W        W54028   0.815   9.048  13.462
87246W        W54029  14.683  40.559   1.549
87247W        W54030  16.385  33.846   4.687
87248W        W54031  35.961  32.157  14.401
87249W        W54032  23.509  26.174   3.099
87250W        W54033  36.030   1.609  13.100
87251W        W54034  22.686  32.879  10.722
87252W        W54035  35.045  18.509  12.051
87253W        W54036  19.319  18.306   1.096
87254W        W54037  44.432  43.217   4.235
87255W        W54038  40.888  25.287   3.237
87256W        W54039  29.831   5.403   4.641
87257W        W54040  15.273  19.522  13.393
87258W        W54041  19.160  37.484  12.587
87259W        W54042  22.044  38.327   0.344
87260W        W54043  26.052  26.409  12.000
87261W        W54044  19.749   8.160  12.902
87262W        W54045  34.112  18.122   2.783
87263W        W54046  31.368  42.727  12.510
87264W        W54047   6.886  16.663  10.886
87265W        W54048   0.778  27.943   4.635
87266W        W54049  25.689   5.424   9.849
87267W        W54050  31.365  31.140  11.184
87268W        W54051  40.422  29.876  13.803
87269W        W54052  42.039  22.715   4.133
87270W        W54053  43.565   3.524   9.889
87271W        W54054  10.117  29.714  12.876
87272W        W54055  29.245   4.912  12.924
87273W        W54056  24.522   1.507  13.013
87274W        W54057  40.637  16.714   1.767
87275W        W54058   3.739  13.412  13.880
87276W        W54059  41.931  17.383   4.071
87277W        W54060  25.436  30.080  13.368
87278W        W54061   0.254  15.377   0.769
87279W        W54062   4.868  14.620   2.702
87280W        W54063  23.719  34.013  14.871
87281W        W54064  27.737   3.847   1.813
87282W        W54065   9.840  29.049  12.943
87283W        W54066  26.638  20.833   0.919
87284W        W54067  20.286  43.245   0.582
87285W        W54068  39.815   0.066  12.507
87286W        W54069  35.930  37.672  11.901
87287W        W54070  14.206   7.710  13.556
87288W        W54071  20.176  42.498   4.526
87289W        W54072   3.326   2.809  11.085
87290W        W54073   0.729  22.495  14.467
87291W        W54074   8.490  39.061   5.013
87292W        W54075  17.654   8.657   3.706
87293W        W54076  10.781  21.339  13.575
87294W        W54077   6.226  36.735  13.059
87295W        W54078   2.957  39.269  10.753
87296W        W54079   7.661  11.373  14.861
87297W        W54080  39.067  23.657   2.841
87298W        W54081  35.517  43.409   2.708
87299W        W54082  41.349  15.709  13.155
87300W        W54083  39.045   7.983   2.376
87301W        W54084  20.184  21.208  10.204
87302W        W54085  28.202   5.374   0.930
87303W        W54086  17.211  14.622  12.649
87304W        W54087  31.150  11.325   2.308
87305W        W54088  14.844   4.831   1.853
87306W        W54089   2.381  43.648   2.392
87307W        W54090  30.749   5.442  13.610
87308W        W54091  27.475  12.293   3.737
87309W        W54092  35.193  34.954  10.725
87310W        W54093  22.547  21.315  13.559
87311W        W54094  21.501   3.984  12.031
87312W        W54095  42.339  14.928  11.988
87313W        W54096  14.117  10.303  11.437
87314W        W54097  21.302  28.210   3.690
87315W        W54098   6.991  28.602   4.466
87316W        W54099  10.707  24.922   1.302
87317W        W54100  18.315  21.192   0.395
87318W        W54101  32.775  31.950   4.182
87319W        W54102   8.844   0.605  11.531
87320W        W54103  25.251  27.089   1.660
87321W        W54104  13.572   0.926  11.120
87322W        W54105  35.697  34.012  11.461
87323W        W54106  43.340  21.964  11.386
87324W        W54107   2.752  11.897   5.051
87325W        W54108  13.370  41.311  12.111
87326W        W54109  43.336   2.561   2.785
87327W        W54110  20.182  23.502   2.752
87328W        W54111   4.641   8.487  14.767
87329W        W54112   2.401  30.720  14.506
87330W        W54113  29.392  35.070  12.084
87331W        W54114  32.424  32.168  14.950
87332W        W54115  13.720  25.911  11.551
87333W        W54116   7.437  29.400  11.282
87334W        W54117  35.386  44.880   2.760
87335W        W54118  11.116  20.320  11.070
87336W        W54119  38.920   7.113   1.882
87337W        W54120  44.959  16.957  14.617
87338W        W54121   0.883  21.497   4.426
87339W        W54122  38.496  15.183   1.436
87340W        W54123   9.662  23.068   4.522
87341W        W54124   7.554   8.379  14.350
87342W        W54125   4.188  33.601   1.518
87343W        W54126  40.454  23.189   4.416
87344W        W54127  32.203  17.574   2.323
87345W        W54128  26.541  37.949  10.540
87346W        W54129  22.821  17.079   3.598
87347W        W54130  15.120   6.823   4.609
87348W        W54131  15.176  11.603  13.851
87349W        W54132   0.614  26.031   0.315
87350W        W54133  28.683  26.571  14.812
87351W        W54134  36.906  11.746   0.802
87352W        W54135   9.688  36.366  12.538
87353W        W54136  32.795  39.359   0.554
87354W        W54137   1.687   6.713   9.391
87355W        W54138  39.047  38.128   3.235
87356W        W54139   1.915  40.799   4.095
87357W        W54140  31.561  19.017   1.478
87358W        W54141  22.742   5.175  10.630
87359W        W54142  26.391  21.333   0.345
87360W        W54143  23.347  13.782  11.995
87361W        W54144  23.288   9.625   0.873
87362W        W54145  42.311   3.811  14.392
87363W        W54146  41.908  14.415  14.546
87364W        W54147  17.008  22.048   0.324
87365W        W54148  12.903  41.436  14.009
87366W        W54149  18.272  29.263  13.534
87367W        W54150  15.832  33.895   3.383
87368W        W54151  29.385   4.608  11.118
87369W        W54152   4.002  20.911   4.522
87370W        W54153  38.360  38.535   0.570
87371W        W54154  12.873   8.130   1.460
87372W        W54155  13.252  29.667  12.883
87373W        W54156  30.134  37.523  10.766
87374W        W54157  16.809   5.943  13.614
87375W        W54158   3.502  19.950  13.097
87376W        W54159  32.424  37.481  12.677
87377W        W54160  21.925  26.453  14.535
87378W        W54161  16.699   7.446  12.163
87379W        W54162  26.575  44.697  11.571
87380W        W54163  19.026   9.263  12.749
87381W        W54164   9.597  11.548  13.659
87382W        W54165  34.226  20.694   0.945
87383W        W54166  24.801  33.972   3.835
87384W        W54167  37.620   1.984  14.452
87385W        W54168  21.595  28.447  10.689
87386W        W54169  35.847  16.684   1.220
87387W        W54170  19.573  42.971   4.015
87388W        W54171  10.259  34.369   1.629
87389W        W54172  41.605   4.481   2.801
87390W        W54173  37.550  42.953   0.874
87391W        W54174  41.633   8.075   2.668
87392W        W54175  10.735  10.443  11.600
87393W        W54176  14.697   3.431   2.021
87394W        W54177  24.478  41.226   4.548
87395W        W54178  28.892   1.380   2.171
87396W        W54179  10.321  12.289  13.070
87397W        W54180  36.063  35.994  12.953
87398W        W54181  13.278  27.467   0.022
87399W        W54182  17.568   7.364  11.964
87400W        W54183   8.637  32.070   2.975
87401W        W54184  28.204   4.806   4.345
87402W        W54185  10.318   9.222   3.206
87403W        W54186  27.089  30.973  13.368
87404W        W54187   7.998  39.579   4.606
87405W        W54188   5.948   7.978  12.082
87406W        W54189  12.081  31.023   2.330
87407W        W54190  30.860  16.107   1.892
87408W        W54191  42.459   6.043  10.731
87409W        W54192  24.446  22.250  11.124
87410W        W54193  31.401  29.622   2.798
87411W        W54194  25.357  19.166   2.280
87412W        W54195  14.101   1.787   3.358
87413W        W54196  23.657  17.208   3.376
87414W        W54197  12.278   8.790  14.074
87415W        W54198  42.754  17.890   4.950
87416W        W54199  27.277  36.094   3.832
87417W        W54200  33.710  33.971   0.684
87418W        W54201  15.137  29.041  12.959
87419W        W54202  39.918  22.740   3.410
87420W        W54203  20.722  14.950   4.634
87421W        W54204   2.906  14.103  12.798
87422W        W54205  29.728  34.394   3.296
87423W        W54206  30.332   5.310   4.748
87424W        W54207  13.324  36.939   3.767
87425W        W54208   9.318  22.634   0.850
87426W        W54209  15.441   9.338   0.407
87427W        W54210  36.343  36.052  12.500
87428W        W54211  30.839   1.893  13.350
87429W        W54212   2.511  21.470  11.226
87430W        W54213  28.090  43.041   3.841
87431W        W54214   8.810  26.958  11.965
87432W        W54215  33.618  32.097   5.006
87433W        W54216  40.871  37.732   1.659
87434W        W54217  34.635  35.364   1.232
87435W        W54218  41.288  12.849   5.110
87436W        W54219  17.701   7.582   2.195
87437W        W54220  16.624  23.741   3.512
87438W        W54221   9.787   8.389   3.374
87439W        W54222  38.526  38.367   1.028
87440W        W54223  17.969  37.447  13.355
87441W        W54224  14.975   0.413   4.547
87442W        W54225  17.791  27.824   4.082
87443W        W54226  29.838   7.404   4.573
87444W        W54227  28.112  19.649  13.928
87445W        W54228   9.823   0.201   4.011
87446W        W54229  12.567   2.438   4.080
87447W        W54230  40.591  36.823   4.544
87448W        W54231  11.832  41.419  14.071
87449W        W54232  22.287  33.694  14.460
87450W        W54233  36.415  21.088  14.795
87451W        W54234  29.897   2.013   2.649
87452W        W54235  28.419   9.434  12.932
87453W        W54236  34.929  33.375  11.602
87454W        W54237  13.874  17.521  14.841
87455W        W54238  17.595  24.504  12.873
87456W        W54239  16.508  31.020  10.657
87457W        W54240  20.069  15.511  13.800
87458W        W54241  17.456  43.426   1.098
87459W        W54242  17.100   8.941  14.445
87460W        W54243  26.078   3.762  10.261
87461W        W54244   6.340   7.967   3.903
87462W        W54245  42.393  15.264  10.720
87463W        W54246  42.521  11.689  11.168
87464W        W54247   7.964  42.874   3.761
87465W        W54248  33.926  28.853   3.847
87466W        W54249  13.523  22.562   4.090
87467W        W54250  42.296  42.163  13.374
87468W        W54251  36.636  23.940  11.587
87469W        W54252   3.776  41.026   4.953
87470W        W54253  38.436  20.648  12.054
87471W        W54254  17.764  38.653  12.922
87472W        W54255  28.503   3.287   0.093
87473W        W54256   5.884   4.879  10.527
87474W        W54257  25.173   0.712  10.941
87475W        W54258   9.822  29.667  11.626
87476W        W54259  22.578  41.575  12.042
87477W        W54260  30.012  31.985  14.848
87478W        W54261  10.630  16.286   2.571
87479W        W54262  42.347  17.064  12.749
87480W        W54263  41.331  23.505   4.082
87481W        W54264  25.027   4.819  12.038
87482W        W54265  26.738  25.551   2.589
87483W        W54266  29.039  38.598   0.893
87484W        W54267  40.584  31.566  10.816
87485W        W54268  33.388  24.655  12.124
87486W        W54269  17.647   5.145   3.189
87487W        W54270   0.001  10.768  14.381
87488W        W54271   1.991   4.409   0.455
87489W        W54272  22.646   3.206   2.130
87490W        W54273   2.266  12.727  14.398
87491W        W54274  31.591  27.500  12.934
87492W        W54275  16.117  19.125   3.428
87493W        W54276  36.851  19.078   3.669
87494W        W54277  23.520  42.241  12.244
87495W        W54278   6.174  30.915  13.089
87496W        W54279  24.277  11.703   1.735
87497W        W54280   1.023  20.035   1.714
87498W        W54281  28.895  27.954  12.122
87499W        W54282  14.664   0.222  13.415
87500W        W54283  32.464  32.321  14.439
87501W        W54284  39.535  22.079  10.983
87502W        W54285  23.588  35.939   4.564
87503W        W54286   1.720  21.819   3.381
87504W        W54287  42.327  25.176   1.694
87505W        W54288  31.871   9.434   3.593
87506W        W54289  34.166  25.030   2.193
87507W        W54290  10.341   7.153   1.386
87508W        W54291  43.887  20.773  11.627
87509W        W54292  39.884  24.878   4.235
87510W        W54293  44.795  18.662  14.396
87511W        W54294  18.498   6.206  14.273
87512W        W54295   9.638   9.232   2.768
87513W        W54296  31.124  11.676   0.953
87514W        W54297  31.532  13.350  13.659
87515W        W54298  11.355  35.001  14.943
87516W        W54299  13.077  16.665  14.526
87517W        W54300  32.429  38.065   4.702
87518W        W54301  20.477  21.303  14.004
87519W        W54302   8.347  21.096  14.904
87520W        W54303  29.439   1.330  12.934
87521W        W54304  14.179  15.615   3.588
87522W        W54305   8.542  39.902  14.415
87523W        W54306  40.226   8.553  13.801
87524W        W54307  40.906  19.595   2.682
87525W        W54308  24.413  18.682   4.213
87526W        W54309  23.624  34.038   3.786
87527W        W54310  10.759   1.056  10.468
87528W        W54311  12.129  37.932  14.284
87529W        W54312  42.017  43.154   3.373
87530W        W54313  37.904  14.036   4.234
87531W        W54314  13.680  31.894   2.478
87532W        W54315  12.083  34.880  14.214
87533W        W54316   0.171  44.556   2.890
87534W        W54317  35.962  26.118  13.568
87535W        W54318   6.196  19.521   3.027
87536W        W54319  13.956  20.577   0.346
87537W        W54320   3.983  14.653  11.083
87538W        W54321   7.268  39.841   3.215
87539W        W54322  42.971   2.419  12.884
87540W        W54323   1.283   7.319   4.663
87541W        W54324   2.822   1.410   0.788
87542W        W54325   0.934  40.818   0.158
87543W        W54326   9.702  31.609  13.011
87544W        W54327  37.187  13.228   4.120
87545W        W54328  11.324   9.174   3.288
87546W        W54329   5.881  27.122  12.102
87547W        W54330   0.068  36.830  14.772
87548W        W54331  37.108   8.276  12.153
87549W        W54332   1.758  20.862   2.942
87550W        W54333   7.212  10.737  12.537
87551W        W54334  17.860  11.663   3.203
87552W        W54335  23.026  16.572  12.074
87553W        W54336  10.132  13.201  10.540
87554W        W54337   4.826  17.175  13.382
87555W        W54338   2.711  17.608  10.860
87556W        W54339   0.590  15.631   1.555
87557W        W54340  41.369  12.888   2.732
87558W        W54341  34.632  38.952   1.355
87559W        W54342   1.838   6.902   9.918
87560W        W54343  29.996  28.642   4.706
87561W        W54344  35.603  28.599  14.019
87562W        W54345   6.936  41.525  14.544
87563W        W54346   4.402   3.516  10.583
87564W        W54347  27.575  22.164  12.633
87565W        W54348  19.361  36.573   0.912
87566W        W54349  16.031  25.590  12.451
87567W        W54350  19.018  17.063   1.385
87568W        W54351  37.280  37.998  10.924
87569W        W54352   7.158   9.362  13.841
87570W        W54353  41.980  40.003   3.197
87571W        W54354  42.920   5.959   0.895
87572W        W54355  17.082   8.368  13.491
87573W        W54356   9.309  25.116   0.238
87574W        W54357  36.582  33.532   3.228
87575W        W54358  19.247  21.652  12.986
87576W        W54359  31.800  19.373  10.245
87577W        W54360  15.626  19.030   2.105
87578W        W54361  11.287  33.968  12.927
87579W        W54362  18.162   5.253   0.763
87580W        W54363  33.167  43.838  14.520
87581W        W54364   8.633  31.668   1.219
87582W        W54365  13.768  26.421  11.516
87583W        W54366  27.893   8.425   2.468
87584W        W54367  25.750  42.357   3.707
87585W        W54368  36.352  10.579  12.734
87586W        W54369  27.205   6.726  12.076
87587W        W54370  21.024  17.019   4.348
87588W        W54371  36.828  15.361   4.652
87589W        W54372  43.011  21.141  10.570
87590W        W54373  43.307  33.190  14.462
87591W        W54374  15.216  44.206   3.224
87592W        W54375  41.776  20.822   0.201
87593W        W54376   9.383  10.621  12.955
87594W        W54377  28.263  27.220   3.239
87595W        W54378  34.037  16.231  13.403
87596W        W54379  23.968  32.362  13.796
87597W        W54380   8.775  31.427  12.581
87598W        W54381  44.436  42.690   4.151
87599W        W54382  23.639  21.450  12.662
87600W        W54383  19.534  36.988  12.166
87601W        W54384  18.587   5.208   2.503
87602W        W54385   4.282  17.127  11.006
87603W        W54386  28.472  38.402  14.728
87604W        W54387   0.624   5.212  11.796
87605W        W54388   9.586  18.961  11.159
87606W        W54389   1.308  27.607  12.936
87607W        W54390  39.137  30.997   1.958
87608W        W54391  14.153   7.079   0.276
87609W        W54392  25.684   7.217   0.882
87610W        W54393  18.517   0.762  11.678
87611W        W54394  14.199  29.358   2.573
87612W        W54395  35.169  16.727   3.745
87613W        W54396   9.157  22.944  14.113
87614W        W54397  27.984  36.057   4.538
87615W        W54398  40.302  20.984  12.004
87616W        W54399  27.568  21.038   3.709
87617W        W54400   1.680  37.764   4.193
87618W        W54401  38.779  22.188  13.910
87619W        W54402  19.126  26.100   1.338
87620W        W54403   6.307  31.291   1.318
87621W        W54404   2.505  35.987  11.657
87622W        W54405   3.719   0.242  12.433
87623W        W54406  33.663   8.094  12.087
87624W        W54407  10.403  36.817  11.497
87625W        W54408   1.057  29.513  14.546
87626W        W54409  21.462  19.498   4.532
87627W        W54410  22.054  22.292  10.709
87628W        W54411  41.780  31.874   0.936
87629W        W54412  28.439   1.078   1.973
87630W        W54413  36.043  21.498   2.745
87631W        W54414  29.025   5.221  10.727
87632W        W54415  27.229  31.951  12.070
87633W        W54416  12.252  28.126   2.515
87634W        W54417  31.198  20.667   9.949
87635W        W54418   4.854  29.426   4.124
87636W        W54419  35.467   5.937   0.400
87637W        W54420   1.718  21.701   0.105
87638W        W54421  10.244  34.354   4.231
87639W        W54422  25.159  23.782  12.483
87640W        W54423   1.160  43.067   3.694
87641W        W54424   9.283  28.815  12.195
87642W        W54425  43.844   6.666  10.990
87643W        W54426   7.895  11.292  10.727
87644W        W54427  29.169   5.866   0.043
87645W        W54428  29.036  21.644  14.013
87646W        W54429   9.294  22.543  10.171
87647W        W54430   5.911  24.641   2.818
87648W        W54431   1.535  35.344   0.720
87649W        W54432  11.449  19.494   2.425
87650W        W54433  11.911  25.752  14.256
87651W        W54434   2.950  17.076  10.737
87652W        W54435  44.732  29.659   1.668
87653W        W54436  33.595  17.899   1.845
87654W        W54437  25.240  23.035   3.623
87655W        W54438   0.452  32.347  13.879
87656W        W54439  33.147  44.404   4.543
87657W        W54440   1.245  12.136   2.406
87658W        W54441  38.341  30.980   1.883
87659W        W54442   7.941  44.945  13.183
87660W        W54443  28.425  36.621   2.781
87661W        W54444  33.639  16.154   3.180
87662W        W54445  41.257  18.004  14.803
87663W        W54446  14.144  21.265  14.589
87664W        W54447  36.252  16.667  14.334
87665W        W54448  23.966  27.164   0.370
87666W        W54449  12.004  10.698  12.864
87667W        W54450   6.768  40.514  13.963
87668W        W54451   2.093  12.862  13.921
87669W        W54452  30.572  29.260   1.790
87670W        W54453  17.269  41.422  10.921
87671W        W54454  41.108  27.723  11.186
87672W        W54455  41.735  31.269   3.647
87673W        W54456  16.077  42.973   4.208
87674W        W54457  31.019   1.458   1.818
87675W        W54458  36.923   6.642  14.318
87676W        W54459  12.523  12.373   1.672
87677W        W54460  34.909  18.021  13.183
87678W        W54461   8.833   0.830   3.966
87679W        W54462  37.162  31.783   5.146
87680W        W54463  26.037  17.199  11.437
87681W        W54464  19.537  40.730  13.466
87682W        W54465  19.521  26.354   4.884
87683W        W54466  10.625  23.651  12.474
87684W        W54467   0.626  40.453  11.930
87685W        W54468  36.407  14.243  12.978
87686W        W54469  13.228  17.174   0.284
87687W        W54470  43.212  31.808  12.462
87688W        W54471  25.476  34.241  14.127
87689W        W54472   6.856  10.582  11.144
87690W        W54473  36.548   4.000   1.722
87691W        W54474   1.668  13.992  12.468
87692W        W54475  36.188  39.774   2.246
87693W        W54476  42.022  15.179   2.794
87694W        W54477  25.564  20.222   4.196
87695W        W54478  44.854   5.320  11.095
87696W        W54479   5.943  18.186   1.314
87697W        W54480  34.416  16.822   2.445
87698W        W54481   8.959   1.722  13.562
87699W        W54482  21.643  29.178   0.936
87700W        W54483  28.110  16.785   2.641
87701W        W54484   8.875   3.413   1.946
87702W        W54485  37.821  16.238   4.507
87703W        W54486  14.855  43.017  11.425
87704W        W54487  19.409  31.290  14.759
87705W        W54488   2.261  37.454  10.560
87706W        W54489  21.548   7.718   1.864
87707W        W54490  16.796  31.176   1.738
87708W        W54491  14.693  11.301   2.430
87709W        W54492   7.360  14.829   4.239
87710W        W54493  18.073  31.014  12.898
87711W        W54494   4.668  38.983   0.901
87712W        W54495  14.812  38.220   0.700
87713W        W54496  37.702  10.996   2.637
87714W        W54497  34.024   2.430   4.059
87715W        W54498  41.453   1.975  14.294
87716W        W54499  25.492  23.538  12.782
87717W        W54500  10.613  41.847   4.150
87718W        W54501  31.467  33.990  12.045
87719W        W54502   4.403  24.177  13.333
87720W        W54503  13.346   3.014  11.218
87721W        W54504  35.930  20.252   1.208
87722W        W54505   3.195  10.699  13.911
87723W        W54506   4.228  21.491  11.570
87724W        W54507  31.898   7.035   5.101
87725W        W54508  42.477   7.106   1.366
87726W        W54509   3.915  42.098   0.484
87727W        W54510  41.729  10.769  12.538
87728W        W54511  30.906  31.147   0.426
87729W        W54512   2.482  27.660  12.479
87730W        W54513  23.741  30.383  13.025
87731W        W54514  38.368   0.279   1.313
87732W        W54515  36.973  14.261   4.880
87733W        W54516  10.404  14.336  11.836
87734W        W54517  33.487   9.108  12.156
87735W        W54518  27.065  26.330  11.143
87736W        W54519  21.781   3.810  14.922
87737W        W54520   9.822  34.178   0.891
87738W        W54521  34.973  15.355  10.619
87739W        W54522  40.823   3.427   1.272
87740W        W54523   1.772  32.231  11.346
87741W        W54524  28.081   3.925  11.240
87742W        W54525  26.907   3.668   1.368
87743W        W54526  17.382  19.429  10.902
87744W        W54527   4.940  29.557  14.772
87745W        W54528  17.394  13.047  11.870
87746W        W54529  20.112  15.688  11.569
87747W        W54530  10.746  31.068   1.032
87748W        W54531  13.670  26.988  14.356
87749W        W54532   7.521  20.150  13.286
87750W        W54533  35.687  14.088   1.968
87751W        W54534  34.743  41.452   5.245
87752W        W54535  39.377  33.476  12.639
87753W        W54536  16.261   0.676   1.261
87754W        W54537  22.926  21.522   4.104
87755W        W54538  35.943  26.021  10.635
87756W        W54539  43.752  22.244  12.031
87757W        W54540  23.754  22.487  13.745
87758W        W54541   3.820  19.949  11.049
87759W        W54542  25.891  33.667   0.821
87760W        W54543  22.241  36.511  14.884
87761W        W54544  25.241  22.650  14.786
87762W        W54545  32.645  43.935   1.206
87763W        W54546  13.114  20.053   1.647
87764W        W54547  13.204  40.521   2.377
87765W        W54548  44.719  26.345   1.172
87766W        W54549   0.579  31.334   3.090
87767W        W54550  14.290  35.135  13.884
87768W        W54551  41.545  34.843  12.025
87769W        W54552  32.333  39.745  14.444
87770W        W54553   0.841  32.040  13.957
87771W        W54554  33.325  19.483  10.563
87772W        W54555  35.506  14.006   0.282
87773W        W54556  39.265  17.606  13.452
87774W        W54557  38.157  10.161  11.099
87775W        W54558   9.338  31.943   2.787
87776W        W54559  24.959  32.925  12.170
87777W        W54560  22.955  17.017  11.804
87778W        W54561  10.519  40.665  10.954
87779W        W54562  19.770  32.151  11.038
87780W        W54563  36.587  16.700  12.859
87781W        W54564  32.507  20.419   0.358
87782W        W54565  35.569  19.814  11.172
87783W        W54566  10.049  41.494   3.813
87784W        W54567   3.522  41.414  12.516
87785W        W54568  32.544   9.129  13.933
87786W        W54569  42.304  14.239  14.248
87787W        W54570   0.960  26.506  13.894
87788W        W54571  30.596  21.512   1.192
87789W        W54572  15.346   3.025  12.365
87790W        W54573  22.245   8.358  14.711
87791W        W54574   7.226  34.662   3.267
87792W        W54575  30.085  35.557  13.040
87793W        W54576  32.176  37.472  12.223
87794W        W54577  13.524  35.597  11.375
87795W        W54578   6.267  25.441   3.666
87796W        W54579   3.988  30.530   4.213
87797W        W54580  10.082   8.134   1.687
87798W        W54581  19.026   6.144   1.967
87799W        W54582  14.757  40.759  11.191
87800W        W54583  32.553  12.384  14.909
87801W        W54584   6.884  27.190  12.718
87802W        W54585  26.736  38.908  13.962
87803W        W54586  26.294  35.072   3.624
87804W        W54587  19.553  18.578   0.729
87805W        W54588  35.739  20.172   5.162
87806W        W54589   5.276  24.223   2.400
87807W        W54590  38.100  29.767  11.226
87808W        W54591  42.358   0.529  14.895
87809W        W54592  11.551  34.305   3.665
87810W        W54593  35.341  17.758   2.771
87811W        W54594   5.281  31.653   3.669
87812W        W54595   3.888  22.787  12.133
87813W        W54596  30.479   2.811  11.573
87814W        W54597  27.529   5.646   0.235
87815W        W54598  40.037  22.581   3.914
87816W        W54599  44.775  26.045  14.557
87817W        W54600  14.591  18.219   0.468
87818W        W54601  26.321  12.705  11.060
87819W        W54602   2.440  17.468   1.173
87820W        W54603   8.669  19.895   2.079
87821W        W54604   5.043  27.773   0.314
87822W        W54605  16.836   0.474   4.991
87823W        W54606  36.965  17.660   4.183
87824W        W54607  43.060  34.581  11.596
87825W        W54608  44.398  24.676  12.106
87826W        W54609  15.026  18.592   1.170
87827W        W54610  25.141  33.621  13.283
87828W        W54611  14.557  21.673   3.903
87829W        W54612  40.105  18.219   3.962
87830W        W54613  30.463  13.097  10.714
87831W        W54614   4.644  16.015  14.344
87832W        W54615   7.311   1.373   1.934
87833W        W54616  37.494  13.840   3.247
87834W        W54617  16.147  39.842  11.851
87835W        W54618  31.623   5.157   0.792
87836W        W54619   9.217  30.071   1.278
87837W        W54620  34.325  38.032   2.698
87838W        W54621  40.011  29.946   4.224
87839W        W54622  34.240  24.119   3.838
87840W        W54623   2.870  39.786  10.743
87841W        W54624  25.190  15.740   0.395
87842W        W54625   2.520  17.647   3.569
87843W        W54626  31.665  14.260   2.826
87844W        W54627  10.917  28.748   1.736
87845W        W54628   6.773   4.098   4.418
87846W        W54629  15.918  42.048   4.637
87847W        W54630  19.015  27.620  14.530
87848W        W54631  13.370   6.328   3.902
87849W        W54632   4.273  12.370  14.773
87850W        W54633  19.817  43.722   3.115
87851W        W54634  36.038  17.807  12.990
87852W        W54635  10.187  26.428  14.192
87853W        W54636  38.603   5.862  10.048
87854W        W54637  21.490  24.602  10.284
87855W        W54638  21.460  17.071  14.300
87856W        W54639  16.265  40.071  14.849
87857W        W54640  41.847  31.388  14.662
87858W        W54641  44.996   2.652  12.841
87859W        W54642  34.568  13.879  10.358
87860W        W54643   7.319  35.360  12.477
87861W        W54644  29.428  35.963  11.696
87862W        W54645  42.789  18.231   4.566
87863W        W54646  26.225  11.251  11.088
87864W        W54647  12.582  25.212   3.632
87865W        W54648  35.707  29.383   4.137
87866W        W54649  41.743  18.573   1.891
87867W        W54650  25.969  21.798  14.472
87868W        W54651  25.913   3.551  11.142
87869W        W54652   5.426  12.266   1.788
87870W        W54653  41.994  29.520   0.909
87871W        W54654  32.651   6.501  13.945
87872W        W54655  25.673  16.472   1.877
87873W        W54656  36.338  27.548   0.940
87874W        W54657  21.798  38.376   0.818
87875W        W54658  29.598  22.186  12.487
87876W        W54659  10.805  24.982  14.878
87877W        W54660  37.339   9.778  12.356
87878W        W54661  26.386  13.981  10.225
87879W        W54662  42.912  40.142   4.752
87880W        W54663   1.346  23.264   4.597
87881W        W54664  18.519   7.314  12.887
87882W        W54665   6.651  10.655   0.445
87883W        W54666  12.403   8.481  11.707
87884W        W54667  25.061   8.553   4.602
87885W        W54668  19.243  37.091  13.519
87886W        W54669  41.000  14.193   2.277
87887W        W54670   7.343  39.295   1.014
87888W        W54671   6.461  40.860   1.787
87889W        W54672   0.916  40.021   2.728
87890W        W54673  27.992   1.532  11.107
87891W        W54674  34.700   1.461  10.820
87892W        W54675   6.316  11.440  13.349
87893W        W54676  20.227   9.230  13.911
87894W        W54677  17.290   0.243   0.197
87895W        W54678  27.879  42.530  12.509
87896W        W54679   8.916  20.956   2.916
87897W        W54680  32.445  28.895  14.907
87898W        W54681  41.753  25.087  11.713
87899W        W54682  10.370  31.726   4.912
87900W        W54683  23.482  12.052  11.133
87901W        W54684   6.756  27.540   4.392
87902W        W54685  31.879  14.135  10.580
87903W        W54686  12.258  11.339  10.273
87904W        W54687  18.276   0.248   3.159
87905W        W54688  37.068   7.134  14.325
87906W        W54689  32.149  28.882   4.357
87907W        W54690   6.170  17.624  12.560
87908W        W54691   9.224  14.266   3.652
87909W        W54692  32.315  43.363  13.150
87910W        W54693  10.706  39.368  10.669
87911W        W54694   7.169  22.298   1.809
87912W        W54695  12.810   1.569  13.050
87913W        W54696  35.199  14.551  12.477
87914W        W54697  18.457  23.791  12.692
87915W        W54698  44.631  18.543   1.897
87916W        W54699  16.835   9.233  10.828
87917W        W54700  18.347   7.709   1.377
87918W        W54701  43.225  22.466  13.452
87919W        W54702  30.021  10.132  14.859
87920W        W54703   8.646  40.576   0.077
87921W        W54704  19.656   5.783  10.424
87922W        W54705   5.125   0.848   1.789
87923W        W54706   0.527   0.826  11.656
87924W        W54707  17.597  24.424  13.773
87925W        W54708   4.477  38.768   4.257
87926W        W54709  40.889  23.012   0.781
87927W        W54710  16.063  25.188  13.438
87928W        W54711  11.353  23.636   3.796
87929W        W54712  42.030  44.474  13.444
87930W        W54713   1.350  22.699  14.009
87931W        W54714   4.437  27.247  13.133
87932W        W54715  32.643  16.276  11.760
87933W        W54716  12.623  39.857  13.910
87934W        W54717   7.789  10.703  10.503
87935W        W54718  24.179  41.894  11.653
87936W        W54719   4.296  21.599   1.420
87937W        W54720  14.763  39.426  10.622
87938W        W54721  31.562  16.559  10.738
87939W        W54722   3.058  19.564   0.447
87940W        W54723  38.942  23.657  10.674
87941W        W54724  25.035  26.127  13.689
87942W        W54725   4.207   3.408  12.505
87943W        W54726  16.218  22.231   1.524
87944W        W54727  15.767  40.602  10.616
87945W        W54728  11.889  43.084   2.765
87946W        W54729  31.384  42.890   1.863
87947W        W54730   8.781  33.070   0.777
87948W        W54731  25.940   8.210   4.838
87949W        W54732   7.482  20.591   4.659
87950W        W54733   6.333   4.247  12.378
87951W        W54734   2.185  40.690   1.943
87952W        W54735  32.054  43.382  11.510
87953W        W54736  43.460  35.014   2.322
87954W        W54737  29.662  10.306  14.456
87955W        W54738  36.618   7.757  12.992
87956W        W54739  12.722  44.939  11.194
87957W        W54740  11.054  38.072  11.617
87958W        W54741  12.280  15.684  10.832
87959W        W54742  19.115  26.885   4.111
87960W        W54743  21.652   1.010   4.414
87961W        W54744  35.175  14.069   1.919
87962W        W54745  14.824  20.698   4.340
87963W        W54746  21.382  28.930  11.306
87964W        W54747   3.761  33.994   4.473
87965W        W54748   5.203   3.747  13.086
87966W        W54749  13.662  37.448  13.822
87967W        W54750   6.682  35.932  13.335
87968W        W54751  30.414  19.558  14.478
87969W        W54752  37.354   8.104   2.695
87970W        W54753   8.473  22.230  13.917
87971W        W54754   9.281  16.162  11.841
87972W        W54755  32.704  43.817   2.228
87973W        W54756   6.742  29.365  13.490
87974W        W54757  34.291  26.280   0.426
87975W        W54758  40.917  40.695   1.845
87976W        W54759  25.740   8.816  12.695
87977W        W54760  35.124  19.767   3.070
87978W        W54761  42.814  16.700   3.669
87979W        W54762  37.395  31.175   2.315
87980W        W54763  42.505   9.737  10.968
87981W        W54764  13.529   5.729   1.004
87982W        W54765  44.699  29.990  10.714
87983W        W54766  42.414   5.643   4.618
87984W        W54767  41.502  43.417   4.556
87985W        W54768   5.926  17.273   0.981
87986W        W54769  15.851  41.001  10.039
87987W        W54770  32.937  19.798   0.459
87988W        W54771  42.403  39.038   1.359
87989W        W54772  27.154  34.461  12.477
87990W        W54773   2.970  39.534  11.190
87991W        W54774  14.134   7.621   3.502
87992W        W54775  21.409  16.156  12.565
87993W        W54776  14.700  33.687   1.211
87994W        W54777  34.679  41.980  11.691
87995W        W54778  41.141   0.918   1.790
87996W        W54779  10.633  11.649   0.852
87997W        W54780   2.970   6.414  14.837
87998W        W54781  37.120  21.521  13.380
87999W        W54782  19.080  30.039  10.965
88000W        W54783   6.831   2.336   4.363
88001W        W54784  22.603  42.592   2.594
88002W        W54785  41.040  18.014  10.778
88003W        W54786   0.959  12.843  14.549
88004W        W54787  20.731  37.967  10.853
88005W        W54788  22.658  28.226  13.579
88006W        W54789  14.147  14.194   0.880
88007W        W54790  12.606   5.666   2.896
88008W        W54791  15.859   5.444   3.044
88009W        W54792   6.328  36.564  14.531
88010W        W54793  22.978  29.239   4.361
88011W        W54794  28.101   7.732   1.683
88012W        W54795  29.738   6.675   3.597
88013W        W54796  42.737   9.306   0.216
88014W        W54797  33.870  37.377   4.985
88015W        W54798  15.877  13.688   1.893
88016W        W54799  39.929   2.838  13.627
88017W        W54800  24.595  38.574   1.503
88018W        W54801  30.076  10.395   0.318
88019W        W54802  12.316  42.912  14.255
88020W        W54803  22.011   1.912  12.295
88021W        W54804  27.054   8.707  14.973
88022W        W54805   3.333  44.334  13.422
88023W        W54806  12.907  23.207  11.314
88024W        W54807  22.488  43.378  11.524
88025W        W54808   1.106  37.976   2.289
88026W        W54809   5.856   2.091   4.218
88027W        W54810  29.612  13.306  12.551
88028W        W54811  35.436  11.859   0.435
88029W        W54812   8.354  13.411  14.650
88030W        W54813  24.030  44.283  13.409
88031W        W54814  18.469  22.303   2.346
88032W        W54815   0.943   4.962  10.303
88033W        W54816  28.074  31.940  13.176
88034W        W54817  21.846  39.361  12.398
88035W        W54818  30.938  20.045   3.149
88036W        W54819  12.188  15.903   0.552
88037W        W54820  34.043  11.713  13.799
88038W        W54821  24.372   7.870   3.848
88039W        W54822  29.115   4.148   0.706
88040W        W54823  19.972   8.027  14.627
88041W        W54824  17.012  22.558  10.187
88042W        W54825  32.419  36.825   0.480
88043W        W54826   7.684  14.206  13.801
88044W        W54827  18.786  30.961   1.812
88045W        W54828  43.135  42.022   3.394
88046W        W54829   6.143  23.602   3.832
88047W        W54830  40.866  17.328   0.847
88048W        W54831  19.223   9.839  10.601
88049W        W54832  24.230   5.875   2.354
88050W        W54833  18.451  20.082   0.004
88051W        W54834  39.309  30.550   3.899
88052W        W54835  13.048  28.028   2.837
88053W        W54836   1.834  37.256   0.546
88054W        W54837  10.360  29.551  13.302
88055W        W54838   9.424  42.038   3.037
88056W        W54839   6.338  29.696  13.478
88057W        W54840  15.272  25.440  11.098
88058W        W54841  29.142  10.329  12.264
88059W        W54842  21.827  17.292   4.386
88060W        W54843  23.607  36.941   3.508
88061W        W54844   4.218  42.785  14.955
88062W        W54845   1.037  19.629   2.385
88063W        W54846  43.506  19.978  11.458
88064W        W54847  40.531  31.733   1.755
88065W        W54848  40.632  19.600  11.057
88066W        W54849  36.044   1.332  11.199
88067W        W54850  16.761   2.833  11.186
88068W        W54851  27.552  26.437  10.984
88069W        W54852  43.752  23.721   2.819
88070W        W54853  16.892  29.944  13.315
88071W        W54854  28.016  36.998   2.580
88072W        W54855  18.598   1.171   1.152
88073W        W54856  42.286  13.657   2.347
88074W        W54857  37.911  37.501   3.914
88075W        W54858   4.752  14.408   3.718
88076W        W54859  20.056   6.898   2.801
88077W        W54860  11.020   0.366  14.818
88078W        W54861   8.722  20.779   4.450
88079W        W54862   2.668  37.000  13.531
88080W        W54863  16.688   1.789   4.705
88081W        W54864   4.978  13.070  14.277
88082W        W54865   1.173   4.414   2.580
88083W        W54866  32.207  34.401   0.690
88084W        W54867  24.263  13.409   0.433
88085W        W54868  28.894   0.509   4.391
88086W        W54869  18.093  44.376  11.494
88087W        W54870  11.414   1.037  14.344
88088W        W54871  36.088  18.972   0.320
88089W        W54872  26.108  12.066   1.716
88090W        W54873  27.057   9.093   1.413
88091W        W54874   0.813  25.244   3.115
88092W        W54875  43.467  40.515  12.405
88093W        W54876  42.298  40.097  11.986
88094W        W54877  36.758  29.561   2.812
88095W        W54878  38.782  41.299  14.872
88096W        W54879  22.079  33.100  13.133
88097W        W54880   7.628  37.469   2.171
88098W        W54881  17.879  34.586  13.440
88099W        W54882  18.234  25.650  13.113
88100W        W54883   7.119  44.917  13.941
88101W        W54884  18.707  25.010   1.820
88102W        W54885  13.941  24.137  12.947
88103W        W54886  26.118  40.689  12.903
88104W        W54887  20.064  35.647  10.695
88105W        W54888  11.091  27.181   3.722
88106W        W54889  29.861  34.432  13.803
88107W        W54890  20.575   6.695   3.325
88108W        W54891  10.937  24.273  12.228
88109W        W54892  38.562   2.764  11.075
88110W        W54893  30.878  21.960   3.247
88111W        W54894  14.706  42.861   4.851
88112W        W54895   8.205  27.154   1.768
88113W        W54896  15.587  42.118  12.634
88114W        W54897  17.274  37.347   1.457
88115W        W54898  15.221  39.954  10.338
88116W        W54899  39.326   6.128  11.075
88117W        W54900  38.363   2.979   0.566
88118W        W54901  39.913  26.555   0.905
88119W        W54902  33.867  44.440   2.256
88120W        W54903  10.328  22.261  12.530
88121W        W54904  25.547  43.303   3.616
88122W        W54905  22.564   8.667   5.076
88123W        W54906  27.917  21.095  10.020
88124W        W54907  15.858  40.063   2.180
88125W        W54908   1.175  37.005  12.997
88126W        W54909  22.421  31.625   0.992
88127W        W54910   8.928   4.315   2.844
88128W        W54911  34.964   4.462  13.870
88129W        W54912   5.839  21.603  14.875
88130W        W54913  21.290  15.751   2.154
88131W        W54914  26.016  41.099  11.132
88132W        W54915  26.928  24.636   3.213
88133W        W54916  21.614   3.738  14.445
88134W        W54917   8.132  43.927  13.415
88135W        W54918  11.268  22.955  12.106
88136W        W54919  41.899   0.465  12.892
88137W        W54920  15.791  21.716  11.467
88138W        W54921   0.304  43.781  10.643
88139W        W54922   8.923  37.492   1.690
88140W        W54923   5.762  35.066   1.413
88141W        W54924   2.854  33.104  10.725
88142W        W54925   3.439   8.674   0.683
88143W        W54926  15.735   1.447   4.907
88144W        W54927  43.351   9.876  12.514
88145W        W54928  31.119  23.742  10.722
88146W        W54929  25.542  28.925   4.687
88147W        W54930  44.736  13.099   1.460
88148W        W54931  20.938   2.791   3.278
88149W        W54932   9.638   3.165   2.213
88150W        W54933  32.593  42.278   3.876
88151W        W54934  28.066  41.962   4.760
88152W        W54935   8.138  14.974  11.111
88153W        W54936   0.678  16.531  11.818
88154W        W54937  42.259  36.526   2.381
88155W        W54938  32.306  33.095   4.125
88156W        W54939  40.216  26.981   0.745
88157W        W54940   1.801  28.987   4.365
88158W        W54941  12.378  28.524   3.230
88159W        W54942  13.667  20.052  12.875
88160W        W54943  11.164  14.373  13.576
88161W        W54944  44.001  12.369  11.747
88162W        W54945  15.819  12.149  11.581
88163W        W54946   5.479   3.311  12.898
88164W        W54947  33.924  22.071   4.083
88165W        W54948  26.647  12.309   3.282
88166W        W54949  39.514  13.621  14.923
88167W        W54950  44.279  22.321   0.123
88168W        W54951  30.540   8.372  14.097
88169W        W54952   8.160  32.891   0.450
88170W        W54953  37.582  25.658   1.451
88171W        W54954  34.572  25.244  11.472
88172W        W54955  31.567  24.492  11.680
88173W        W54956  34.865  13.229  13.234
88174W        W54957  40.944  16.877   2.164
88175W        W54958  20.226  11.288  14.012
88176W        W54959   4.292  15.911  13.537
88177W        W54960   1.935  38.645   3.165
88178W        W54961  31.498  15.854  11.513
88179W        W54962  30.614  12.443  12.453
88180W        W54963  20.541   1.156   2.152
88181W        W54964  11.224  42.500  11.617
88182W        W54965   7.830  24.166   2.170
88183W        W54966  21.051  37.847   4.508
88184W        W54967  15.732  34.347  10.233
88185W        W54968  20.656   4.656  12.937
88186W        W54969  24.037  24.947   3.051
88187W        W54970  34.455  29.644   3.913
88188W        W54971  25.024  12.545  12.087
88189W        W54972  28.078  36.513   1.458
88190W        W54973  18.886  16.102  13.288
88191W        W54974  13.096  25.143  10.705
88192W        W54975   0.531  35.416  14.124
88193W        W54976  26.969  22.993   3.235
88194W        W54977  32.829   5.132   3.198
88195W        W54978  10.651  13.129   4.684
88196W        W54979  37.931  22.819  13.894
88197W        W54980  21.779  14.780   1.358
88198W        W54981  42.269  33.921  10.546
88199W        W54982  25.587  37.390   2.507
88200W        W54983  41.583  14.233  12.064
88201W        W54984  35.283  15.193   1.273
88202W        W54985  34.017   4.965  11.163
88203W        W54986  26.459  30.593  12.865
88204W        W54987  22.218  28.884  11.099
88205W        W54988  34.554   3.409  10.571
88206W        W54989  16.231  41.363  14.232
88207W        W54990  30.842   8.082   0.949
88208W        W54991  14.553  44.683  11.202
88209W        W54992  41.467  40.680   4.129
88210W        W54993  10.128  36.537  13.362
88211W        W54994  40.443  18.547   3.222
88212W        W54995  44.730  43.772   2.878
88213W        W54996   4.787  35.601   2.646
88214W        W54997  16.536   4.644  10.768
88215W        W54998  32.034  43.444  14.171
88216W        W54999  15.119  29.446  12.615
88217W        W55000   9.709  25.935   1.406
88218W        W55001  10.787  33.781   1.325
88219W        W55002  15.598  31.682   3.104
88220W        W55003   6.367  24.219  11.131
88221W        W55004  35.644   9.701  10.548
88222W        W55005  19.969   3.071   0.405
88223W        W55006  11.171  22.650   1.184
88224W        W55007  41.356  28.445  12.471
88225W        W55008  33.621  32.942  14.221
88226W        W55009   0.470  33.661   0.957
88227W        W55010   6.394  21.268   1.671
88228W        W55011   5.491  31.715  14.076
88229W        W55012  15.262   7.623  14.010
88230W        W55013  44.450  30.233  11.129
88231W        W55014  24.242   4.435  11.345
88232W        W55015   3.377  19.924  11.446
88233W        W55016  32.160  18.116   0.245
88234W        W55017   4.343  25.580   0.201
88235W        W55018  23.591  25.571   0.291
88236W        W55019  26.378  33.943   1.267
88237W        W55020  11.908  33.931   3.699
88238W        W55021  30.016   7.391   3.793
88239W        W55022  13.389   0.722  10.686
88240W        W55023  37.367  11.938   2.753
88241W        W55024  12.167  32.942   3.586
88242W        W55025   9.306  41.053   3.227
88243W        W55026  28.170  30.444  14.813
88244W        W55027   3.928   0.888   1.324
88245W        W55028  27.004   9.033  11.005
88246W        W55029  10.416   3.898  13.621
88247W        W55030  32.887  15.718   0.957
88248W        W55031  30.613   1.521  14.091
88249W        W55032  37.488  22.518  14.955
88250W        W55033  44.491  36.499   2.883
88251W        W55034  20.299  19.144   1.482
88252W        W55035   3.794  42.018  13.627
88253W        W55036  44.907   1.801  13.250
88254W        W55037  14.577   3.913   3.333
88255W        W55038  14.401   8.889   3.498
88256W        W55039  40.387  10.667   1.893
88257W        W55040   6.427  10.172   4.220
88258W        W55041  39.540  42.698   0.870
88259W        W55042  12.530   7.610   3.336
88260W        W55043  41.979  15.689   2.782
88261W        W55044  28.577  42.854  11.902
88262W        W55045  31.332  33.952   0.874
88263W        W55046  38.122  37.404  13.108
88264W        W55047   4.531  38.071   3.276
88265W        W55048  31.008  18.761   4.077
88266W        W55049  17.828  29.992   1.090
88267W        W55050  23.734  43.251   4.938
88268W        W55051   2.392   9.326  14.256
88269W        W55052  34.969  24.811  13.946
88270W        W55053  34.648   5.400   0.627
88271W        W55054  12.140  20.516   3.473
88272W        W55055  25.213  37.584  13.432
88273W        W55056  14.122  27.883  14.126
88274W        W55057  30.209   1.359  12.325
88275W        W55058  44.390  22.462  12.794
88276W        W55059  36.601  28.007  11.258
88277W        W55060  16.203  29.623  14.402
88278W        W55061  30.633  21.158  13.460
88279W        W55062  30.651   2.849   4.070
88280W        W55063  31.896   2.012  10.507
88281W        W55064  13.876  11.689   3.714
88282W        W55065   4.537  22.021   4.534
88283W        W55066   3.992  21.621   0.946
88284W        W55067  43.566  35.375   0.815
88285W        W55068  40.389  28.385   4.144
88286W        W55069  28.726  17.783   0.789
88287W        W55070  31.885  15.066   2.768
88288W        W55071  37.931  27.298   4.098
88289W        W55072  29.775  14.581   0.044
88290W        W55073  16.244  21.755  11.191
88291W        W55074  11.140  20.737  11.469
88292W        W55075  32.905  19.327   3.170
88293W        W55076  10.904  27.433  11.394
88294W        W55077  13.698  23.090   1.369
88295W        W55078  24.034  36.409   4.712
88296W        W55079  43.157  32.561   4.852
88297W        W55080  10.852   2.767  11.460
88298W        W55081  11.797  19.191  14.319
88299W        W55082  11.191  30.549  11.891
88300W        W55083  38.113   4.002   1.474
88301W        W55084  28.203  11.756  13.777
88302W        W55085   4.884  43.498   3.194
88303W        W55086   2.389  35.105  14.774
88304W        W55087  28.144  26.955   0.136
88305W        W55088   5.134  26.499  11.356
88306W        W55089  19.118   7.789  14.773
88307W        W55090  41.926   5.181  11.849
88308W        W55091  34.911  34.836   1.851
88309W        W55092  30.865  44.939  11.662
88310W        W55093  31.059   2.859   2.301
88311W        W55094  25.453  42.450   3.082
88312W        W55095  43.414  37.649  11.592
88313W        W55096   0.396  14.930   4.815
88314W        W55097  29.076  16.392   2.357
88315W        W55098  25.263   3.084  14.851
88316W        W55099   7.351  23.420  12.043
88317W        W55100  33.984   9.824  14.586
88318W        W55101  21.365  27.782   3.161
88319W        W55102   6.876  31.402   1.843
88320W        W55103  12.091  44.887  11.988
88321W        W55104  16.903   2.115   2.761
88322W        W55105  22.803  35.620  11.523
88323W        W55106  28.514  21.122  14.009
88324W        W55107  29.920  23.789   2.978
88325W        W55108  44.912  28.939   3.108
88326W        W55109  41.964   0.508   3.876
88327W        W55110  19.730  11.547  12.584
88328W        W55111  15.247  43.750   4.151
88329W        W55112  15.064  33.557  10.568
88330W        W55113  35.164  42.310  14.899
88331W        W55114  25.354  17.246  11.976
88332W        W55115   6.422   9.455   2.145
88333W        W55116   5.809  18.108  13.618
88334W        W55117  33.058   2.252  14.930
88335W        W55118  15.052  27.085   1.307
88336W        W55119  42.827   9.393  12.124
88337W        W55120  10.619   1.946   3.341
88338W        W55121  17.678   7.357  14.026
88339W        W55122  25.731   0.484   4.593
88340W        W55123  39.876  32.610  12.455
88341W        W55124  43.417   0.530   3.343
88342W        W55125  13.405  34.289  11.065
88343W        W55126  15.617  40.243  10.984
88344W        W55127  40.533  34.551  10.685
88345W        W55128  18.264   5.864  11.248
88346W        W55129  43.441   3.946  14.884
88347W        W55130  38.339  15.478  11.697
88348W        W55131  41.005   0.375  14.508
88349W        W55132  31.428  32.225   3.865
88350W        W55133  16.115  42.927  11.218
88351W        W55134  22.224  19.137   1.438
88352W        W55135  19.527  35.044   2.607
88353W        W55136  31.890  11.454  13.962
88354W        W55137   7.216  27.698   4.599
88355W        W55138  14.145  31.872  11.572
88356W        W55139  10.729  43.888   0.143
88357W        W55140  16.636  17.878   1.167
88358W        W55141  22.941  14.822   3.263
88359W        W55142  36.747  33.591  14.460
88360W        W55143  31.006  44.320  14.200
88361W        W55144  37.440  27.200   2.814
88362W        W55145  36.847  35.688  13.355
88363W        W55146  18.451   7.167  13.408
88364W        W55147  34.988  13.592  14.810
88365W        W55148  17.882  13.716   1.203
88366W        W55149   7.242  15.189  11.940
88367W        W55150   8.457  29.801   2.277
88368W        W55151  36.394  44.310  12.000
88369W        W55152  30.147  10.906   4.483
88370W        W55153   8.808   8.289  13.851
88371W        W55154  19.182   7.126  13.548
88372W        W55155  25.232   4.232  14.913
88373W        W55156  38.449  30.258   2.843
88374W        W55157  43.255   4.953  12.166
88375W        W55158  38.389  31.990   0.404
88376W        W55159  39.485  42.384  11.522
88377W        W55160  20.895  38.889   2.914
88378W        W55161  38.666   1.756   3.144
88379W        W55162  19.204  19.783  14.471
88380W        W55163  26.087  17.116   1.295
88381W        W55164   8.645  15.546  12.405
88382W        W55165  20.932   1.705  13.990
88383W        W55166  19.602  13.183  14.348
88384W        W55167  10.741   1.310   4.807
88385W        W55168   0.345  21.484  10.770
88386W        W55169  10.215  26.091   1.377
88387W        W55170  14.368  43.872   0.715
88388W        W55171  21.771  40.723   1.311
88389W        W55172  20.106  37.273  14.767
88390W        W55173  35.145  27.017   1.455
88391W        W55174  22.194  36.043  14.272
88392W        W55175  12.631  39.773  11.434
88393W        W55176  43.843  20.795  13.435
88394W        W55177  18.020  17.005  13.171
88395W        W55178   3.330  41.001   0.928
88396W        W55179  10.887  25.439   1.337
88397W        W55180  31.872   0.600  13.402
88398W        W55181  21.606  24.845  10.728
88399W        W55182  38.507   0.536  13.720
88400W        W55183  30.429   6.492  14.974
88401W        W55184  25.729  12.361   3.080
88402W        W55185  29.601  16.422  11.109
88403W        W55186   4.615  23.231   2.501
88404W        W55187  40.857  28.080  12.888
88405W        W55188  42.265  28.204  10.931
88406W        W55189  28.436  28.641   3.184
88407W        W55190  17.224  15.164   4.070
88408W        W55191   5.237  40.846  14.501
88409W        W55192   4.671  29.200  11.022
88410W        W55193   8.686  22.697   3.175
88411W        W55194  40.292  20.419  10.999
88412W        W55195  40.984  12.778  10.719
88413W        W55196  43.210  16.713  13.391
88414W        W55197  11.702  32.019   2.451
88415W        W55198   1.869  13.206   1.379
88416W        W55199   3.502   3.602   1.818
88417W        W55200  18.015   4.192  12.472
88418W        W55201  25.873  18.700  14.964
88419W        W55202  18.264   2.460  14.499
88420W        W55203  43.187  12.312  11.274
88421W        W55204  43.891   2.656   1.373
88422W        W55205   3.801   9.827  12.873
88423W        W55206  14.637  26.480   2.841
88424W        W55207  25.984  14.562   3.131
88425W        W55208  27.205  43.953   5.082
88426W        W55209  38.827  35.412   0.829
88427W        W55210  14.700  41.658  10.731
88428W        W55211  20.142  32.151  12.050
88429W        W55212   8.002  28.468  12.409
88430W        W55213  21.567  36.853  11.140
88431W        W55214  11.179  12.026  12.977
88432W        W55215  44.450   0.419  12.781
88433W        W55216  23.218  41.913  12.807
88434W        W55217  37.301  39.058  10.735
88435W        W55218  13.245  32.055   1.314
88436W        W55219  33.767  44.399  12.779
88437W        W55220  39.012  21.572  10.002
88438W        W55221  18.560  40.752   2.213
88439W        W55222   6.182   5.311  10.435
88440W        W55223   9.829  44.737   1.857
88441W        W55224   5.589  34.806   0.020
88442W        W55225  36.506  38.855  12.200
88443W        W55226  34.592  37.979  11.582
88444W        W55227  36.498  42.576  13.383
88445W        W55228  33.935  41.224   4.088
88446W        W55229  39.105  40.745   1.597
88447W        W55230  43.488  24.216   2.822
88448W        W55231  16.892  23.327  12.939
88449W        W55232  10.267  35.781   4.616
88450W        W55233  39.833  21.181  12.199
88451W        W55234   4.435  41.867  14.923
88452W        W55235   5.775   8.957   4.113
88453W        W55236  19.912  33.940  14.922
88454W        W55237  23.147   1.212   2.642
88455W        W55238  17.631   3.738   4.410
88456W        W55239  24.561  13.300  13.012
88457W        W55240   3.716  22.749   2.881
88458W        W55241  39.574  13.755   2.780
88459W        W55242  11.745  31.763  13.085
88460W        W55243   0.143  42.582   3.149
88461W        W55244  38.814   1.198   0.128
88462W        W55245  13.868   9.358  13.651
88463W        W55246  19.737  36.142  11.654
88464W        W55247  26.831  16.475   4.663
88465W        W55248  28.194  27.101  11.116
88466W        W55249  44.925  42.265  10.916
88467W        W55250  25.579  35.023  13.401
88468W        W55251  33.614  33.070  10.977
88469W        W55252  38.434   8.131  13.965
88470W        W55253  21.849  34.151   1.302
88471W        W55254   1.824   0.494  10.749
88472W        W55255   9.071  43.221  14.368
88473W        W55256  43.665   5.003   4.523
88474W        W55257   7.240  21.053  10.901
88475W        W55258  29.522   0.218  14.839
88476W        W55259   8.789   1.410   3.057
88477W        W55260  16.165   2.022  14.169
88478W        W55261  36.386  42.449  10.456
88479W        W55262  10.329  39.581  14.167
88480W        W55263  37.846   9.788   2.235
88481W        W55264   8.880  23.602   1.734
88482W        W55265   3.552  36.073   2.680
88483W        W55266  40.800  10.089   1.208
88484W        W55267  12.081  28.455   4.129
88485W        W55268  33.332  38.486  12.962
88486W        W55269   4.876   1.380   1.919
88487W        W55270  20.090  37.948   1.210
88488W        W55271  28.589  39.583   4.146
88489W        W55272  11.327  40.636  12.050
88490W        W55273  39.929   9.454   3.739
88491W        W55274  18.834  18.069  11.982
88492W        W55275  11.866   2.470   2.917
88493W        W55276   3.800  22.479  13.470
88494W        W55277  19.574  38.356   1.725
88495W        W55278   3.912  33.165   1.503
88496W        W55279  11.935  23.289  14.341
88497W        W55280  36.434  39.395   3.081
88498W        W55281  44.817   9.264  13.121
88499W        W55282  11.170   0.714  13.063
88500W        W55283   2.505  42.822   2.385
88501W        W55284  24.549  22.303   0.405
88502W        W55285  30.715  14.372  13.380
88503W        W55286  44.871  34.834  12.960
88504W        W55287  24.718  36.000   1.300
88505W        W55288  36.996  16.018  11.643
88506W        W55289  24.933   7.636   2.215
88507W        W55290  38.283  23.569   3.245
88508W        W55291  29.482   2.731  11.653
88509W        W55292  25.367  32.379   1.402
88510W        W55293  41.001  40.115   0.858
88511W        W55294  40.351  11.996   4.769
88512W        W55295  22.311  17.389   1.831
88513W        W55296  18.540   0.715   3.218
88514W        W55297  29.975  44.495   2.554
88515W        W55298  35.881  28.428   4.158
88516W        W55299   0.395   4.602  12.301
88517W        W55300   7.289  12.226   0.842
88518W        W55301  19.327   3.940   4.618
88519W        W55302  39.973   1.426   2.394
88520W        W55303  33.635  18.081  10.754
88521W        W55304   5.407  24.727  11.198
88522W        W55305  33.540  33.630   4.982
88523W        W55306  30.346  15.075  12.876
88524W        W55307  30.567  35.406  14.920
88525W        W55308  27.967   2.468   3.602
88526W        W55309  19.293   5.327  11.124
88527W        W55310  33.200  24.511   4.074
88528W        W55311   8.953  29.635   2.244
88529W        W55312  15.193   0.191  10.656
88530W        W55313  42.574   5.829   5.330
88531W        W55314  25.000  12.633   3.079
88532W        W55315   2.348  26.334  11.235
88533W        W55316  21.152  10.862  13.930
88534W        W55317  16.623   2.180   2.300
88535W        W55318  39.751  23.812  14.441
88536W        W55319  43.933  42.553  10.634
88537W        W55320  36.270  20.374  10.755
88538W        W55321  18.327  11.814   3.438
88539W        W55322   8.072  37.582   4.051
88540W        W55323  26.610  15.499  13.478
88541W        W55324  30.923  13.137   1.267
88542W        W55325  16.313  30.917   0.895
88543W        W55326  39.439  33.468  10.585
88544W        W55327  32.820  19.569  12.553
88545W        W55328  38.490   3.022   1.858
88546W        W55329   0.442  15.540  11.580
88547W        W55330   5.586  12.318  12.090
88548W        W55331   2.390   8.286   4.239
88549W        W55332  26.761  14.170   3.227
88550W        W55333   4.547  42.771   5.098
88551W        W55334  24.956   0.873   0.374
88552W        W55335  30.792   0.757  10.727
88553W        W55336  41.960   6.719   3.269
88554W        W55337  12.442  32.525   2.336
88555W        W55338  17.310  30.388  12.177
88556W        W55339   9.213  39.253   1.508
88557W        W55340   2.971  38.894   0.916
88558W        W55341  42.952  21.322   1.974
88559W        W55342  35.209  27.129  11.430
88560W        W55343  18.644   4.972   0.882
88561W        W55344  31.506   9.184   4.515
88562W        W55345  20.984   5.851  11.713
88563W        W55346  23.614  22.706   2.786
88564W        W55347   3.747   4.722   0.428
88565W        W55348   1.237  17.893   4.092
88566W        W55349  24.442   0.215  13.485
88567W        W55350  21.743  14.770   4.503
88568W        W55351  20.083  34.925   3.168
88569W        W55352   4.607  20.167   1.401
88570W        W55353  18.299  29.037   4.536
88571W        W55354   8.276  44.237   1.350
88572W        W55355  25.077  44.342   0.223
88573W        W55356  32.612   9.341   1.872
88574W        W55357  22.221  35.888   2.167
88575W        W55358  10.675  16.538   4.891
88576W        W55359  43.818  30.478  14.949
88577W        W55360  19.662  39.175  11.510
88578W        W55361   2.664   7.093   4.854
88579W        W55362   4.238  37.680   2.579
88580W        W55363  12.879   1.908   1.459
88581W        W55364  43.430   4.610   2.682
88582W        W55365  31.656  11.178   2.093
88583W        W55366  33.050  30.458   0.554
88584W        W55367  29.342  44.950  12.620
88585W        W55368  42.438  37.067   3.721
88586W        W55369  11.741  20.790   2.226
88587W        W55370  40.915  39.784  11.942
88588W        W55371   6.357  37.625  14.466
88589W        W55372  44.534   9.969  13.065
88590W        W55373  16.076  42.155  11.501
88591W        W55374  10.092   9.217  12.584
88592W        W55375  18.667   3.140   1.602
88593W        W55376  25.166  32.187   2.709
88594W        W55377  43.890  10.323   0.025
88595W        W55378  15.199  33.861   1.265
88596W        W55379  34.100  11.334  13.319
88597W        W55380  38.471  35.406  14.848
88598W        W55381  21.189  30.010  11.971
88599W        W55382  36.239  39.484   4.108
88600W        W55383  39.482  22.399   2.185
88601W        W55384  16.887  18.954   1.801
88602W        W55385   3.868  29.466   4.130
88603W        W55386  19.559   8.516  13.958
88604W        W55387   0.883  38.540  13.881
88605W        W55388  32.727   5.880  14.422
88606W        W55389   3.786   1.564  14.917
88607W        W55390   7.138  18.187   0.806
88608W        W55391  16.464  19.241   1.232
88609W        W55392  39.919  20.258  13.102
88610W        W55393  30.733  35.532  14.042
88611W        W55394  38.902  30.845  14.916
88612W        W55395  28.959  22.683   0.351
88613W        W55396  28.126   6.944  14.331
88614W        W55397   1.499  23.171   0.601
88615W        W55398   7.118  37.472   3.561
88616W        W55399  38.552  33.340   0.265
88617W        W55400  16.740  44.112   3.665
88618W        W55401  37.553  15.960   0.948
88619W        W55402  34.537  40.072   0.446
88620W        W55403  21.278   8.676   4.020
88621W        W55404  34.492  42.185  10.721
88622W        W55405  15.170  25.731  12.417
88623W        W55406  37.533  15.591   2.717
88624W        W55407  32.521  10.187   2.217
88625W        W55408  44.942  23.274   0.191
88626W        W55409   2.808   0.026  13.532
88627W        W55410   2.924  13.665  14.877
88628W        W55411  26.130  22.097  10.649
88629W        W55412  39.591  11.112  13.601
88630W        W55413  32.877  35.276   2.705
88631W        W55414  20.752  26.437  10.717
88632W        W55415  41.851   9.835  10.578
88633W        W55416  20.004  26.423  12.461
88634W        W55417  13.811   3.009   0.434
88635W        W55418   0.360  33.825  13.551
88636W        W55419  35.214   2.768   2.792
88637W        W55420  17.487  40.787  11.057
88638W        W55421  16.167  19.618   1.519
88639W        W55422  12.152  31.191  11.543
88640W        W55423  15.515   8.230  11.105
88641W        W55424   6.385  21.493   1.179
88642W        W55425   4.111  24.585   2.444
88643W        W55426  30.073   5.362  12.028
88644W        W55427  43.560  43.717  13.313
88645W        W55428  18.201   5.537   1.741
88646W        W55429  43.420   7.657   0.445
88647W        W55430  16.100  41.292  11.954
88648W        W55431  42.051  20.384  14.010
88649W        W55432  34.645   0.497  13.929
88650W        W55433  32.750   9.800   2.833
88651W        W55434  19.068  11.197   2.431
88652W        W55435   9.823  39.152   3.192
88653W        W55436  42.111  25.256  10.120
88654W        W55437  17.212  33.428   2.568
88655W        W55438  14.160  10.130   4.712
88656W        W55439  17.717  42.871   2.737
88657W        W55440  36.993  14.784   2.855
88658W        W55441  23.717  44.907   0.299
88659W        W55442   1.041  41.245  11.704
88660W        W55443  12.089  26.361   3.112
88661W        W55444  35.633  18.236   4.073
88662W        W55445  32.915  20.670   3.105
88663W        W55446  11.979   9.754   0.633
88664W        W55447  25.931   2.405  11.882
88665W        W55448  18.515  36.575  14.783
88666W        W55449  39.516  11.483   4.688
88667W        W55450  40.354   4.733   3.655
88668W        W55451   9.168  39.092   0.528
88669W        W55452  27.993  32.976  13.952
88670W        W55453  27.881  38.392   1.513
88671W        W55454  13.579  34.577   2.702
88672W        W55455   5.297  22.963   1.923
88673W        W55456   7.381  11.320  13.955
88674W        W55457   7.050  34.256   0.430
88675W        W55458  22.685  11.144   0.501
88676W        W55459  23.497  33.048  13.320
88677W        W55460  23.160  43.360  14.977
88678W        W55461  25.717  21.292  13.622
88679W        W55462  20.727  13.247  11.194
88680W        W55463  38.022  31.577  12.430
88681W        W55464  43.315  35.596  13.633
88682W        W55465  37.441  10.184   2.538
88683W        W55466  25.535  23.563   1.648
88684W        W55467  19.802  16.732  13.976
88685W        W55468  30.940  13.624   3.944
88686W        W55469  41.809   3.393  14.863
88687W        W55470  35.520  14.086   0.799
88688W        W55471  20.766  42.386  10.876
88689W        W55472   5.356  16.054  11.234
88690W        W55473   4.536  20.091   2.378
88691W        W55474  17.544  40.886   2.372
88692W        W55475  35.022  31.418   0.245
88693W        W55476  36.381  18.814  13.648
88694W        W55477  14.823  36.613   0.441
88695W        W55478  28.054   0.477   0.899
88696W        W55479  44.566  10.228   4.462
88697W        W55480  35.336  27.532   0.751
88698W        W55481  43.324  28.623   3.228
88699W        W55482  29.804   1.394   4.572
88700W        W55483  32.821  34.503  12.738
88701W        W55484  43.088  35.408  14.059
88702W        W55485  40.877  29.635  12.977
88703W        W55486  11.336  37.537   3.608
88704W        W55487  13.619  38.026  12.467
88705W        W55488  31.987   3.666   4.279
88706W        W55489  40.897  12.265   3.584
88707W        W55490  16.713  23.187  13.428
88708W        W55491  34.688  38.435   1.087
88709W        W55492   2.251  16.114   0.110
88710W        W55493  29.985   1.895   4.608
88711W        W55494  15.312  33.204   4.637
88712W        W55495  41.484  37.476   3.240
88713W        W55496  41.434   8.668  13.081
88714W        W55497  13.649  41.571  11.164
88715W        W55498  17.896  12.326   3.999
88716W        W55499   4.245   3.144   0.547
88717W        W55500  12.998  27.890   1.483
88718W        W55501  21.451  40.878  11.512
88719W        W55502   4.682   0.035   0.908
88720W        W55503  18.194  42.257   2.274
88721W        W55504  37.520   0.385   1.992
88722W        W55505  24.721  42.622  11.494
88723W        W55506  38.522  21.721   3.496
88724W        W55507  42.189   1.727  14.876
88725W        W55508   8.245  42.667   0.588
88726W        W55509  10.347  13.294  11.505
88727W        W55510  26.449  36.487  12.977
88728W        W55511   4.876   3.922   0.280
88729W        W55512  41.320  31.045  13.552
88730W        W55513  41.845  28.763  14.387
88731W        W55514  36.363  16.184  12.349
88732W        W55515  42.341  20.283  12.110
88733W        W55516  27.972   5.828   0.979
88734W        W55517  20.901  35.727  12.066
88735W        W55518   4.348  10.512  12.876
88736W        W55519  16.826   6.812   1.366
88737W        W55520  35.436   6.816  13.071
88738W        W55521  13.361   9.144  10.893
88739W        W55522  44.825   2.297  10.716
88740W        W55523  16.903   4.914  13.419
88741W        W55524   5.611   1.799   3.839
88742W        W55525   0.931  24.530   1.453
88743W        W55526   7.671  13.707  10.672
88744W        W55527   4.672  22.020  11.088
88745W        W55528  22.550  13.712  12.180
88746W        W55529  11.697   2.981  12.918
88747W        W55530  34.852  29.816   2.362
88748W        W55531  20.228  21.090   4.548
88749W        W55532   8.939  26.740   0.730
88750W        W55533  21.182  20.702   4.648
88751W        W55534  19.759  25.013  14.389
88752W        W55535  37.937  39.562  13.009
88753W        W55536  11.469  26.229   1.845
88754W        W55537   0.071  41.484  12.480
88755W        W55538  30.696  43.503   1.671
88756W        W55539  12.584  31.131   3.705
88757W        W55540  31.472  26.624   4.570
88758W        W55541  37.962   7.637  10.539
88759W        W55542  21.931  29.526   1.250
88760W        W55543  24.157   1.549   5.228
88761W        W55544  29.370  38.871  14.500
88762W        W55545  23.448  11.180  14.466
88763W        W55546   9.695  11.143  11.111
88764W        W55547  26.669  31.198  11.999
88765W        W55548  30.839  24.175  10.664
88766W        W55549  41.887  33.966   3.644
88767W        W55550   9.592  18.736   2.118
88768W        W55551  23.820  38.350   3.655
88769W        W55552  44.851  24.580  11.279
88770W        W55553  38.432  33.295  13.933
88771W        W55554   5.986  27.521   3.704
88772W        W55555  16.790  43.146   2.879
88773W        W55556  22.022  16.882   0.660
88774W        W55557   9.840  34.664   4.165
88775W        W55558   1.265   2.698  12.251
88776W        W55559  33.068  30.626   4.627
88777W        W55560   7.195  22.325   3.638
88778W        W55561  38.230  21.300   2.742
88779W        W55562  38.862  26.707   3.729
88780W        W55563   1.067  28.625  13.368
88781W        W55564  25.573  14.614   2.174
88782W        W55565  20.979  21.696  12.425
88783W        W55566  26.711  27.966  13.363
88784W        W55567  23.884  24.210   0.802
88785W        W55568  26.195  31.209   4.637
88786W        W55569   7.112  41.913  13.414
88787W        W55570   2.367  22.331  12.016
88788W        W55571   0.301   9.763   1.963
88789W        W55572  25.527  20.587  14.697
88790W        W55573  24.214  33.178  14.367
88791W        W55574  28.838   0.233   1.343
88792W        W55575  12.307  21.518   4.658
88793W        W55576   5.964  38.844  14.822
88794W        W55577   0.464  22.087   2.268
88795W        W55578  22.510   5.055  13.993
88796W        W55579  41.282  15.585   2.006
88797W        W55580  36.996  15.101   3.284
88798W        W55581  35.078  27.466  12.617
88799W        W55582  27.227  27.512  14.504
88800W        W55583  26.604  13.683  11.034
88801W        W55584  18.772  34.603   1.868
88802W        W55585  22.278  33.933  11.230
88803W        W55586  40.066  32.054  14.490
88804W        W55587  35.904   6.222   3.017
88805W        W55588  24.244   6.815   0.424
88806W        W55589  15.897  33.926  14.892
88807W        W55590  33.454  13.014  11.668
88808W        W55591   6.036  35.944   9.971
88809W        W55592  34.136   8.670  12.806
88810W        W55593  20.078  22.950  12.612
88811W        W55594  38.486  44.025  13.027
88812W        W55595  25.961  29.223  11.507
88813W        W55596  18.330  17.757  14.861
88814W        W55597  28.970  35.665   2.116
88815W        W55598   1.894  37.494   4.595
88816W        W55599  12.112  34.099   4.159
88817W        W55600   3.660   7.146   1.310
88818W        W55601  24.541  22.985  14.234
88819W        W55602  33.124   8.238   1.336
88820W        W55603   5.768  39.688  12.339
88821W        W55604  18.707   4.933  13.161
88822W        W55605   6.447  21.157  11.740
88823W        W55606  35.544  32.413   0.883
88824W        W55607  14.331  11.242   4.129
88825W        W55608  26.656  28.955   1.108
88826W        W55609   6.738  24.038  10.803
88827W        W55610  23.447  20.719  12.635
88828W        W55611   4.890  16.364   2.076
88829W        W55612   1.823  13.781   2.619
88830W        W55613   9.081  23.655  13.404
88831W        W55614  11.674  19.801   0.664
88832W        W55615  22.795   9.375   1.712
88833W        W55616  36.191   6.938   3.587
88834W        W55617  28.145  14.283   0.904
88835W        W55618  28.214   2.750   4.561
88836W        W55619   0.794  40.368  13.340
88837W        W55620   7.252  28.429  12.635
88838W        W55621  36.379  42.378   4.119
88839W        W55622   7.397  19.749  12.909
88840W        W55623  35.038  25.238  12.078
88841W        W55624  12.636  33.234  13.519
88842W        W55625  22.016  14.228   1.367
88843W        W55626  33.155  20.866   4.148
88844W        W55627  35.914  18.123   3.563
88845W        W55628  18.207  32.890   4.244
88846W        W55629  36.976  44.764  12.413
88847W        W55630  33.475  43.204  12.457
88848W        W55631  34.658  26.471   4.570
88849W        W55632  24.557   4.200   0.219
88850W        W55633   1.467  22.236   4.960
88851W        W55634  30.153  17.010   3.230
88852W        W55635  34.137  19.481  11.863
88853W        W55636  38.929  27.125  11.175
88854W        W55637   2.006   8.117   0.409
88855W        W55638  37.414  11.775  13.414
88856W        W55639   5.848  41.851  11.595
88857W        W55640  16.353  14.036   2.820
88858W        W55641   9.907  42.908  10.793
88859W        W55642  39.430   2.688   4.435
88860W        W55643  14.111   8.104   3.387
88861W        W55644   5.810  20.711   4.591
88862W        W55645   1.013  10.888  13.576
88863W        W55646  20.466  32.175   0.719
88864W        W55647  41.918  22.332  13.267
88865W        W55648  24.001  16.067   5.020
88866W        W55649  31.975  40.458  14.288
88867W        W55650  30.233  13.141   1.904
88868W        W55651  42.977  43.395   3.374
88869W        W55652   8.900   8.683  12.156
88870W        W55653  43.359  44.996  12.488
88871W        W55654  20.176   4.831   1.801
88872W        W55655   4.127   2.021   3.640
88873W        W55656  24.557   9.408   1.641
88874W        W55657  38.202   1.080  11.287
88875W        W55658  35.643  20.865  11.996
88876W        W55659  16.041  19.212  14.292
88877W        W55660  22.831  13.098   1.787
88878W        W55661  20.598  24.707   0.411
88879W        W55662   4.430   2.348  12.566
88880W        W55663  20.689  14.206   0.520
88881W        W55664  17.088   7.192  11.962
88882W        W55665  43.734  24.034   3.235
88883W        W55666  10.938  28.069   4.259
88884W        W55667  10.767  44.346   1.964
88885W        W55668  15.694  36.562   3.849
88886W        W55669  43.834  27.275  12.070
88887W        W55670   9.451   4.939   4.069
88888W        W55671  44.857  21.136   1.983
88889W        W55672  10.023  23.721   3.291
88890W        W55673  44.623  25.563  13.907
88891W        W55674  15.049  11.125  12.113
88892W        W55675  19.760   2.045   3.315
88893W        W55676  35.333   4.472  10.607
88894W        W55677   1.390  26.932  11.819
88895W        W55678  21.330  23.782  10.107
88896W        W55679  28.997   7.555   1.727
88897W        W55680  15.790   7.513   1.705
88898W        W55681  41.514  43.151  11.539
88899W        W55682  40.293  17.847   3.643
88900W        W55683  43.355   7.238  14.715
88901W        W55684   9.674  40.400  10.702
88902W        W55685  44.919  43.767   0.042
88903W        W55686   1.008  43.782   4.597
88904W        W55687  27.492   5.808   0.779
88905W        W55688  12.764   4.651  13.718
88906W        W55689  31.169   2.009   4.566
88907W        W55690  20.844  36.102  13.799
88908W        W55691  19.144  18.765   1.951
88909W        W55692  15.747   6.706   2.269
88910W        W55693  14.587   7.359   0.915
88911W        W55694  36.700   3.771   0.912
88912W        W55695  42.256   4.529  13.097
88913W        W55696  14.726   0.802  10.396
88914W        W55697  42.040  23.041  12.075
88915W        W55698  25.132  33.338  11.013
88916W        W55699  32.497   7.844   4.052
88917W        W55700  35.285  30.387   2.800
88918W        W55701  12.038  11.257   4.876
88919W        W55702   9.493  18.294   2.410
88920W        W55703  43.932   1.053  12.091
88921W        W55704   1.884  11.277  10.834
88922W        W55705  44.263  42.420  13.088
88923W        W55706  18.231  10.410   4.858
88924W        W55707  28.883  13.467  14.395
88925W        W55708   6.132  30.533   5.206
88926W        W55709   1.474  14.682  12.045
88927W        W55710  21.564  41.226  13.120
88928W        W55711  22.112  42.455   3.856
88929W        W55712  18.625  25.742   2.219
88930W        W55713  37.088   7.924  13.806
88931W        W55714  32.753  20.831  13.904
88932W        W55715  33.786  40.855  13.899
88933W        W55716  41.985  30.529   0.498
88934W        W55717  11.388   6.903  12.127
88935W        W55718  19.828  41.486   2.736
88936W        W55719  15.335  37.463   1.625
88937W        W55720   4.829  13.899   3.652
88938W        W55721  32.504  39.954  13.744
88939W        W55722   5.663  33.581  12.610
88940W        W55723  11.556  18.808  10.390
88941W        W55724  12.355  41.978   0.393
88942W        W55725  17.608   6.356  13.963
88943W        W55726  22.684  15.462  14.380
88944W        W55727  11.867  21.624  13.122
88945W        W55728  23.571  28.078  12.594
88946W        W55729  43.040  37.881   1.970
88947W        W55730  34.187  27.480  12.008
88948W        W55731   3.458  18.303   0.144
88949W        W55732   8.332  31.629  12.376
88950W        W55733  15.514  14.253  11.978
88951W        W55734  42.435  26.896  11.861
88952W        W55735  31.979  16.009   2.326
88953W        W55736  18.751  11.080   3.286
88954W        W55737   7.712  30.039   1.895
88955W        W55738   4.713   9.005  14.583
88956W        W55739  18.150  24.894   2.281
88957W        W55740  15.816  28.597  10.811
88958W        W55741  35.899  39.052  12.879
88959W        W55742   6.860  13.165   2.344
88960W        W55743  27.946   1.025  11.104
88961W        W55744   5.777  10.979  10.652
88962W        W55745   3.361  22.190  10.633
88963W        W55746  33.729   2.901  11.836
88964W        W55747  15.351  24.080  11.870
88965W        W55748  28.462   6.036  12.021
88966W        W55749  24.716   9.058  13.092
88967W        W55750  30.538  36.279  10.750
88968W        W55751  40.600  15.789  12.301
88969W        W55752  35.535   6.858  12.140
88970W        W55753  37.265  10.769   0.947
88971W        W55754  42.322   0.238   0.336
88972W        W55755  38.488  17.980  10.720
88973W        W55756  33.371  12.187  11.155
88974W        W55757   8.117   1.619  14.024
88975W        W55758   8.644  37.387  13.040
88976W        W55759  14.541  44.356   0.915
88977W        W55760  34.902  31.783  12.492
88978W        W55761  19.164  26.286   0.817
88979W        W55762  36.094  11.156  11.525
88980W        W55763  23.840  20.431   2.229
88981W        W55764  34.637  19.038  14.065
88982W        W55765  34.997  13.356  13.716
88983W        W55766  44.252   5.296  14.279
88984W        W55767  39.564  28.070   0.812
88985W        W55768  39.189  31.404   0.382
88986W        W55769  33.916   5.365   0.797
88987W        W55770  12.281  35.823   3.524
88988W        W55771  23.954  15.569   2.301
88989W        W55772  11.312   5.456   0.277
88990W        W55773  32.639  24.251  12.166
88991W        W55774  36.431   2.852   4.588
88992W        W55775   4.270   1.941  11.985
88993W        W55776  20.026   1.529  14.059
88994W        W55777  41.697  44.938  10.468
88995W        W55778  17.443  20.120  14.748
88996W        W55779  24.132  17.010  12.983
88997W        W55780  39.171  33.062   1.295
88998W        W55781  38.146  10.192  14.918
88999W        W55782  38.898  24.190  10.789
89000W        W55783  37.076  22.597  11.471
89001W        W55784  43.986   1.928  14.066
89002W        W55785   4.336   5.349   0.989
89003W        W55786  10.272  44.240  13.819
89004W        W55787   2.330   3.131  14.463
89005W        W55788  34.470  15.816  11.080
89006W        W55789   9.838  12.566   4.362
89007W        W55790  32.986  12.518   0.549
89008W        W55791  13.578  32.655  14.148
89009W        W55792  19.832  40.800   3.230
89010W        W55793  10.437   0.958   4.532
89011W        W55794  36.440  27.379  13.590
89012W        W55795   5.421   1.150  11.243
89013W        W55796  19.742   7.315  13.589
89014W        W55797  21.573  22.588   4.644
89015W        W55798  38.783  22.135   3.706
89016W        W55799  31.858  28.464  11.992
89017W        W55800   8.808  38.817  14.275
89018W        W55801  44.861   8.869  14.832
89019W        W55802   5.765  18.226  14.503
89020W        W55803   8.612  22.678  11.494
89021W        W55804  32.806  22.276  11.343
89022W        W55805  11.703  28.532  10.686
89023W        W55806   4.915  33.018   1.962
89024W        W55807   5.302  16.901  13.374
89025W        W55808  14.559   2.468   1.740
89026W        W55809  29.041  13.439   0.278
89027W        W55810  12.860  34.057   1.878
89028W        W55811  27.975  39.610  11.209
89029W        W55812  16.273  38.570  13.427
89030W        W55813  21.934   8.765   0.396
89031W        W55814  43.776  42.561   0.728
89032W        W55815  20.239   0.397   3.146
89033W        W55816  44.888   0.073  13.419
89034W        W55817  41.465  37.759   1.202
89035W        W55818   7.291  42.869   2.775
89036W        W55819  29.128  37.629  10.117
89037W        W55820   0.799  35.489   3.688
89038W        W55821  40.953  44.278   3.130
89039W        W55822  41.368  22.010  14.497
89040W        W55823   1.739  16.148  12.030
89041W        W55824  13.103  31.691  12.948
89042W        W55825  39.417  20.993  11.983
89043W        W55826  27.949  18.633   0.022
89044W        W55827  39.372  13.790  13.115
89045W        W55828  32.197   3.948  13.074
89046W        W55829  31.819  16.725  14.770
89047W        W55830  36.588  26.336  12.789
89048W        W55831   6.995  18.380   4.883
89049W        W55832  26.690  19.648   2.330
89050W        W55833  41.863  16.484   2.501
89051W        W55834  19.109  20.030  14.921
89052W        W55835  15.771   7.591  14.837
89053W        W55836  31.350  40.253  11.802
89054W        W55837   7.786  44.320  13.468
89055W        W55838  31.992  13.281   4.519
89056W        W55839  20.380  20.585   4.648
89057W        W55840  12.292  14.630  12.281
89058W        W55841   2.003   2.341  11.039
89059W        W55842  21.030  32.930   2.846
89060W        W55843   1.915  35.965  14.975
89061W        W55844   2.607  40.016   2.261
89062W        W55845  30.459  30.658  14.776
89063W        W55846  13.572  10.280  11.390
89064W        W55847  20.553  13.803  14.174
89065W        W55848  34.539  29.678   3.398
89066W        W55849  25.210  19.192   0.270
89067W        W55850   2.772  23.730  14.767
89068W        W55851  10.382  38.748   5.040
89069W        W55852  21.184   9.679  12.956
89070W        W55853   7.159  25.300  13.929
89071W        W55854  19.810  13.506  11.004
89072W        W55855   3.180   9.194   2.725
89073W        W55856  26.319   2.945   3.800
89074W        W55857  37.822  43.509  14.715
89075W        W55858  39.299  14.820  12.075
89076W        W55859  17.707   7.241  14.975
89077W        W55860  40.479  41.497   0.916
89078W        W55861  40.419  12.336  10.956
89079W        W55862   8.189  31.754  11.174
89080W        W55863  42.749  15.856   4.889
89081W        W55864  21.818  27.180  10.633
89082W        W55865  12.665   2.319   2.730
89083W        W55866   0.131  10.878   0.666
89084W        W55867  40.142  33.055  12.436
89085W        W55868  17.770  15.252  13.555
89086W        W55869   4.588  36.888   2.762
89087W        W55870  42.040  27.526   2.091
89088W        W55871  12.923  31.270   2.352
89089W        W55872  35.944   9.478   1.662
89090W        W55873  28.141   8.222   1.510
89091W        W55874  27.868  44.463  13.106
89092W        W55875  36.959  27.843  14.329
89093W        W55876   8.176   8.983  14.429
89094W        W55877  12.368  21.882   3.203
89095W        W55878  27.680  12.256   3.262
89096W        W55879  38.918   5.383  14.862
89097W        W55880  32.379   1.789   3.705
89098W        W55881  40.461  37.336   3.668
89099W        W55882  27.359  15.749  14.988
89100W        W55883  27.234   3.811   2.694
89101W        W55884  19.325  27.096  13.460
89102W        W55885  24.234  26.853   1.735
89103W        W55886  42.335   5.628   3.731
89104W        W55887  15.175  12.368  12.535
89105W        W55888  16.184   8.220  13.601
89106W        W55889  39.754  42.471  11.102
89107W        W55890  34.489  33.361  12.034
89108W        W55891  35.111  21.964   4.946
89109W        W55892  38.809  24.710  13.845
89110W        W55893  34.960  18.647  13.950
89111W        W55894  18.024  14.824   2.626
89112W        W55895  38.101  41.039   0.013
89113W        W55896  32.465  25.013   1.773
89114W        W55897  18.031  38.809   3.419
89115W        W55898  26.586   4.291   4.385
89116W        W55899  38.980  35.612   4.322
89117W        W55900   8.031  37.237  14.821
89118W        W55901  27.213   1.739   5.128
89119W        W55902  18.011  23.752  14.833
89120W        W55903  37.006  23.150   3.340
89121W        W55904  11.209  18.542   4.233
89122W        W55905   5.827  29.496   4.292
89123W        W55906  41.814   5.241  12.348
89124W        W55907  36.530  21.588  14.840
89125W        W55908  25.528  12.110   2.234
89126W        W55909   8.110  14.228   4.598
89127W        W55910  15.848  43.274  14.031
89128W        W55911   5.245  43.510  14.508
89129W        W55912  29.873   3.477  13.503
89130W        W55913  30.876  26.733  11.301
89131W        W55914  33.152  19.663  13.551
89132W        W55915  26.697  19.603   0.405
89133W        W55916   4.776   1.349  13.587
89134W        W55917  21.276  33.113   0.217
89135W        W55918   8.404  12.868   2.221
89136W        W55919   9.398  37.027  11.488
89137W        W55920  20.500  20.322  14.803
89138W        W55921  36.769  40.575   3.666
89139W        W55922  23.755  30.159   1.494
89140W        W55923  42.294  27.100   0.781
89141W        W55924  30.456   3.485  12.001
89142W        W55925  13.176  24.462   1.970
89143W        W55926  17.615  22.420   1.892
89144W        W55927   6.934  16.313  11.255
89145W        W55928  22.653  16.376   4.552
89146W        W55929  36.438  38.749  13.537
89147W        W55930  27.306  33.050  12.529
89148W        W55931  16.216  17.311   4.469
89149W        W55932  37.146  11.260  14.262
89150W        W55933  23.822  43.817  13.457
89151W        W55934  25.178  37.882  10.786
89152W        W55935  27.181  44.604   0.397
89153W        W55936  20.692  33.845  10.794
89154W        W55937  13.223  20.291  14.707
89155W        W55938   3.820  10.126  11.630
89156W        W55939  43.382  23.980   3.798
89157W        W55940   1.065  21.615  14.267
89158W        W55941   5.705  15.986   1.717
89159W        W55942  23.247  31.266  11.191
89160W        W55943  26.117   3.705  12.905
89161W        W55944   1.846  23.561   0.695
89162W        W55945  13.200  16.855  12.472
89163W        W55946  20.520  13.925  13.296
89164W        W55947  36.314  34.791   0.035
89165W        W55948  33.853  19.374   0.770
89166W        W55949  28.385  13.036  14.086
89167W        W55950  26.921  37.098  11.692
89168W        W55951  15.794  41.622  12.816
89169W        W55952  15.281  42.300   3.865
89170W        W55953  11.822  36.248  10.210
89171W        W55954  16.706   7.757  12.563
89172W        W55955   4.201  23.063   2.230
89173W        W55956  14.930  14.352  13.022
89174W        W55957   2.997  33.560  10.928
89175W        W55958  23.799  31.041   4.675
89176W        W55959  44.623  34.970  13.414
89177W        W55960  44.590  27.687  14.331
89178W        W55961  16.185   4.688  11.542
89179W        W55962  34.471   1.394   4.510
89180W        W55963  37.709  35.601   2.241
89181W        W55964   8.439   9.249   3.479
89182W        W55965  12.580  33.410   2.012
89183W        W55966   4.912  25.445   1.761
89184W        W55967  14.338  42.323  13.279
89185W        W55968  18.968  22.454  11.183
89186W        W55969  32.578   6.415  13.006
89187W        W55970  19.292  27.019  10.647
89188W        W55971  10.964  11.193  14.613
89189W        W55972  26.481   9.959   3.214
89190W        W55973  30.900  40.272   0.905
89191W        W55974  19.556   1.915  11.566
89192W        W55975  14.359  34.855   3.998
89193W        W55976   3.104  13.135  12.371
89194W        W55977   2.346   2.872  10.835
89195W        W55978  11.212  18.387   1.012
89196W        W55979   0.069  42.852  13.632
89197W        W55980  18.207  10.815   3.153
89198W        W55981   8.415  42.808   3.418
89199W        W55982  18.200  29.655  13.187
89200W        W55983   1.633  14.715   4.895
89201W        W55984  14.794  26.757  11.807
89202W        W55985  44.950  20.050   2.808
89203W        W55986  31.249  28.828   1.179
89204W        W55987   7.865   2.860  11.527
89205W        W55988  26.192  31.296   0.420
89206W        W55989  14.196  41.533   3.100
89207W        W55990  21.008  12.747  12.960
89208W        W55991  40.560   0.492   4.397
89209W        W55992  11.356  21.949  14.931
89210W        W55993  44.928  15.117  12.227
89211W        W55994   5.392  10.889   0.047
89212W        W55995   1.753  34.026  11.112
89213W        W55996  12.570  20.647   0.215
89214W        W55997  10.346  26.653  11.344
89215W        W55998  39.304  10.198   2.607
89216W        W55999  12.432  16.500   2.854
89217W        W56000  41.497  44.867   4.322
89218W        W56001  27.414   9.604   2.230
89219W        W56002  27.550  20.492  14.988
89220W        W56003  43.072  22.115   4.847
89221W        W56004  23.527  34.146   3.298
89222W        W56005  24.946  12.269   1.437
89223W        W56006  38.754  21.290   4.078
89224W        W56007  43.361  28.893  12.124
89225W        W56008  15.769   9.695   1.410
89226W        W56009  36.319  14.594  12.012
89227W        W56010  25.731  37.580  13.448
89228W        W56011  38.103  39.984  11.548
89229W        W56012  21.276  19.776  12.377
89230W        W56013  37.784  19.290  12.930
89231W        W56014  40.581   0.534  11.107
89232W        W56015   2.844  14.286   0.858
89233W        W56016  44.003   0.202  12.429
89234W        W56017   6.276  40.253  12.124
89235W        W56018  21.951   7.261  12.499
89236W        W56019  10.650  32.566  11.909
89237W        W56020  10.992   2.673  12.324
89238W        W56021  29.411  17.192   2.120
89239W        W56022   4.360  18.908   4.494
89240W        W56023  34.419  15.220   3.898
89241W        W56024  17.859  14.614   1.675
89242W        W56025  19.769  26.109   2.015
89243W        W56026  14.354  28.361  11.083
89244W        W56027   1.548  13.235   0.953
89245W        W56028  24.121   5.774  11.960
89246W        W56029  29.414  12.894   2.164
89247W        W56030   9.330  32.673   3.715
89248W        W56031   1.567  26.054  11.432
89249W        W56032  25.065  11.456   2.288
89250W        W56033  31.118   1.889   2.110
89251W        W56034  39.786   8.314  14.011
89252W        W56035  15.833  16.598   2.787
89253W        W56036  19.241  44.415   0.214
89254W        W56037  14.097  15.727  10.854
89255W        W56038  14.628  12.193  13.403
89256W        W56039   6.897  38.792  14.166
89257W        W56040   0.296  39.657  13.587
89258W        W56041  20.018  37.922  13.782
89259W        W56042   5.123  17.167   3.724
89260W        W56043  27.163  26.437  14.412
89261W        W56044  16.878  19.489  10.747
89262W        W56045  26.727  18.164  13.375
89263W        W56046   8.362   3.248   3.353
89264W        W56047   0.696  11.748  11.101
89265W        W56048  23.965  34.797  11.515
89266W        W56049  26.130  20.594   0.956
89267W        W56050   5.322  22.069   2.859
89268W        W56051  37.969   6.672  10.644
89269W        W56052   6.503  30.148  12.521
89270W        W56053   1.935  20.243  14.765
89271W        W56054  17.330   6.343   0.896
89272W        W56055   3.252  10.786   1.683
89273W        W56056   1.290  21.547   3.128
89274W        W56057  35.394   1.356  10.832
89275W        W56058  17.257  11.515  11.523
89276W        W56059   3.055  39.891  14.950
89277W        W56060  31.686   8.301  10.796
89278W        W56061   3.498  43.845   1.476
89279W        W56062   6.770   3.756   4.803
89280W        W56063  20.972  22.960  13.849
89281W        W56064  15.825  22.501   1.304
89282W        W56065   9.878  42.281  13.548
89283W        W56066  18.776  33.885   2.269
89284W        W56067  19.378   4.240   1.711
89285W        W56068  12.683  41.806  11.525
89286W        W56069  27.107   3.467  11.018
89287W        W56070  17.054  26.523   3.178
89288W        W56071  21.247  36.921   0.379
89289W        W56072  23.577   8.668   0.939
89290W        W56073   1.668   0.788   2.753
89291W        W56074   7.306  40.008   0.344
89292W        W56075  19.305  34.435  14.485
89293W        W56076  40.650  16.238  13.960
89294W        W56077  19.235  32.161  10.391
89295W        W56078  40.381  38.928  13.242
89296W        W56079  44.844  43.058  12.169
89297W        W56080  15.832   2.872  11.465
89298W        W56081  25.204  26.614   0.902
89299W        W56082  15.279  17.106   1.368
89300W        W56083  21.129  12.755  14.016
89301W        W56084  13.985  30.873   2.904
89302W        W56085  26.202   5.457   3.823
89303W        W56086   2.974   4.775   3.681
89304W        W56087   8.091  35.964   1.427
89305W        W56088  27.409  37.574  14.373
89306W        W56089  25.943  41.015  12.461
89307W        W56090  27.645  27.019  12.876
89308W        W56091   7.022  21.627  14.770
89309W        W56092  18.357  31.441   2.305
89310W        W56093  20.170  27.943   1.309
89311W        W56094  44.014  18.058   2.792
89312W        W56095   0.911  22.883  13.567
89313W        W56096   6.983  42.367  11.736
89314W        W56097  13.542  36.127   4.157
89315W        W56098  41.251  30.284   2.617
89316W        W56099   5.224  12.776   2.619
89317W        W56100  36.791  32.507  14.502
89318W        W56101   0.936  23.894  14.779
89319W        W56102   4.834   2.373  12.941
89320W        W56103  32.672  34.832   0.424
89321W        W56104   2.237  26.711  12.464
89322W        W56105   7.105  16.220   2.275
89323W        W56106  15.748  31.987  11.273
89324W        W56107   8.112  26.656   4.668
89325W        W56108  41.220   9.139   0.240
89326W        W56109  27.973  13.840  13.451
89327W        W56110  42.286  41.885   2.876
89328W        W56111  41.383  15.393   0.940
89329W        W56112  11.873  29.635   0.967
89330W        W56113   3.271  17.857  14.951
89331W        W56114   7.272  12.284  10.721
89332W        W56115   4.110  22.065   1.189
89333W        W56116  27.553  15.565  13.738
89334W        W56117  15.608   1.214  12.557
89335W        W56118  35.876  12.606  11.513
89336W        W56119  19.680  11.717   2.674
89337W        W56120  10.484  12.224   1.616
89338W        W56121  10.569  13.892  12.104
89339W        W56122  42.091   8.080  14.818
89340W        W56123  15.154  13.431  13.347
89341W        W56124  17.820  10.298   1.950
89342W        W56125   9.146   9.415  13.788
89343W        W56126   1.260   9.292   3.505
89344W        W56127  16.313   6.796   1.458
89345W        W56128  14.110   1.445  14.584
89346W        W56129  42.974  25.317   0.706
89347W        W56130  33.224  10.255  13.653
89348W        W56131  33.494  39.446  13.980
89349W        W56132   5.520  38.384   3.388
89350W        W56133  16.203  24.008  13.011
89351W        W56134  41.963  40.532   3.195
89352W        W56135  11.310  33.125  11.915
89353W        W56136  21.315  13.590   3.689
89354W        W56137  26.630  24.750   4.973
89355W        W56138   0.698  37.758   4.101
89356W        W56139  19.640  38.187   1.212
89357W        W56140  34.903  37.397  14.029
89358W        W56141  14.754  16.653   1.807
89359W        W56142  10.246  32.199   3.616
89360W        W56143  18.266   0.212  10.475
89361W        W56144  16.817  37.784   0.882
89362W        W56145  40.886  16.511   1.348
89363W        W56146  37.267  39.828   2.658
89364W        W56147  36.711  22.386   0.824
89365W        W56148  16.054  26.528  10.599
89366W        W56149  36.419  23.963  14.481
89367W        W56150  27.169  28.124  13.564
89368W        W56151  28.535  14.314   2.682
89369W        W56152  37.280   9.426   5.048
89370W        W56153  16.844  29.988  11.677
89371W        W56154   8.753  30.520  12.002
89372W        W56155  36.867   8.043   0.619
89373W        W56156  19.452  17.856   2.256
89374W        W56157  14.655   4.828  13.504
89375W        W56158   5.495  22.158   2.361
89376W        W56159  41.459  39.544  13.809
89377W        W56160  28.648  32.775   2.589
89378W        W56161  38.945  29.100  12.072
89379W        W56162   5.963  42.457  14.002
89380W        W56163  23.958  38.034   4.304
89381W        W56164  40.977  23.222   0.300
89382W        W56165  36.548  21.709  11.501
89383W        W56166  36.513  10.275   4.802
89384W        W56167  22.788   9.131   0.859
89385W        W56168  16.703  36.950  14.741
89386W        W56169  36.007  27.574  13.397
89387W        W56170  41.954  22.184  13.937
89388W        W56171  21.411  37.089   0.853
89389W        W56172  35.067   8.243  13.923
89390W        W56173  15.046  26.499   0.885
89391W        W56174  28.434   5.988   3.244
89392W        W56175  36.516  10.764  11.266
89393W        W56176  37.316  31.972  14.061
89394W        W56177  10.124   5.975   2.331
89395W        W56178  25.301   6.192  13.508
89396W        W56179  20.651  21.503   0.754
89397W        W56180  14.757   0.483   4.064
89398W        W56181  24.690   0.598   2.228
89399W        W56182  21.638  38.793   1.232
89400W        W56183  25.043  10.243  12.249
89401W        W56184  25.935   8.878   1.249
89402W        W56185  15.543  21.259   3.726
89403W        W56186   4.780   4.616  10.400
89404W        W56187  23.338  40.516  11.668
89405W        W56188  15.309   1.994  14.322
89406W        W56189   3.869  37.038   2.267
89407W        W56190  10.026   6.270  14.522
89408W        W56191  28.918  16.677   3.871
89409W        W56192  44.481   6.155  12.843
89410W        W56193  30.034   2.757  13.977
89411W        W56194  13.672  28.068   0.400
89412W        W56195  43.967   0.249   0.230
89413W        W56196   9.254  37.144   3.645
89414W        W56197  27.887  37.297  11.638
89415W        W56198  35.131   9.195   2.808
89416W        W56199  26.539  34.484   0.678
89417W        W56200  25.251   5.509   0.332
89418W        W56201  12.680  26.449  11.831
89419W        W56202  16.175  24.253  13.947
89420W        W56203   1.263  42.114  13.994
89421W        W56204  21.072  22.590   4.837
89422W        W56205  11.681   8.388  10.288
89423W        W56206  17.206  29.046  14.773
89424W        W56207  14.696  37.519  14.641
89425W        W56208  13.255  33.233  13.145
89426W        W56209  33.922   7.223   0.965
89427W        W56210  17.558  21.721  10.426
89428W        W56211   0.347  12.199   3.413
89429W        W56212   8.033  36.502  12.981
89430W        W56213   5.316  15.698   3.684
89431W        W56214  29.004  21.209  14.826
89432W        W56215  13.089  31.066   4.823
89433W        W56216  20.999  17.617  10.432
89434W        W56217  35.770  26.584   0.785
89435W        W56218  36.061   6.288   5.408
89436W        W56219  14.646  42.408   2.689
89437W        W56220  36.389  29.937   3.730
89438W        W56221  37.499  42.811   4.771
89439W        W56222  42.111   0.707   1.553
89440W        W56223  30.213  35.631  13.528
89441W        W56224  39.945  16.339  13.435
89442W        W56225  27.720   6.912   1.198
89443W        W56226  43.399  14.610  13.410
89444W        W56227   2.931   8.482   4.971
89445W        W56228  17.798  38.152   2.372
89446W        W56229   5.810  38.544   0.649
89447W        W56230   0.377  40.578  11.387
89448W        W56231  21.766  22.603   1.749
89449W        W56232  27.447  36.098   1.237
89450W        W56233   8.183  22.441   0.191
89451W        W56234  42.532  30.223  12.054
89452W        W56235  30.113  33.485  13.885
89453W        W56236  11.604  41.135   1.865
89454W        W56237  10.273  11.772   1.797
89455W        W56238  23.464  23.131   1.645
89456W        W56239  23.669   7.774   0.453
89457W        W56240  18.384   0.690   0.826
89458W        W56241  20.800  13.532   3.664
89459W        W56242  21.140  26.910   2.902
89460W        W56243  22.273  40.138   0.443
89461W        W56244  27.912  26.565   4.683
89462W        W56245  30.708   0.758   3.628
89463W        W56246  20.960  42.004   2.307
89464W        W56247   7.421   7.783  14.945
89465W        W56248  39.835  37.054  11.855
89466W        W56249   5.316  28.726   1.952
89467W        W56250  12.134  13.662   2.753
89468W        W56251  43.322   1.516   1.335
89469W        W56252  29.688  27.725  14.468
89470W        W56253  34.132  39.286   0.389
89471W        W56254  39.556  36.956   0.392
89472W        W56255  37.349  21.975   2.790
89473W        W56256  19.158  12.717   0.646
89474W        W56257  40.418   2.990  11.969
89475W        W56258  41.789  18.606  13.569
89476W        W56259  29.632   6.343  12.523
89477W        W56260  20.197  26.138   1.711
89478W        W56261  23.101   7.867  10.626
89479W        W56262  33.599  38.775  10.756
89480W        W56263  17.662  38.142   1.334
89481W        W56264  17.629  28.005   0.933
89482W        W56265  20.801  27.668  12.128
89483W        W56266  36.089   5.732  14.788
89484W        W56267  22.507   1.892  11.756
89485W        W56268  19.810   9.295   1.786
89486W        W56269  23.059  23.987   2.855
89487W        W56270  40.177  30.454  10.066
89488W        W56271   8.365   1.970  12.904
89489W        W56272  38.994  31.965  12.455
89490W        W56273   0.486  33.993   3.071
89491W        W56274  22.280   6.331   9.990
89492W        W56275  17.138   5.739  12.281
89493W        W56276  30.449   5.441   3.823
89494W        W56277  42.978  15.306  13.618
89495W        W56278  16.289  26.064  10.830
89496W        W56279  30.887  21.972  11.174
89497W        W56280  24.104  41.535   1.356
89498W        W56281  39.687   0.527   4.562
89499W        W56282   9.746  36.893   4.465
89500W        W56283  13.784   6.205  14.299
89501W        W56284  37.211  21.490   1.849
89502W        W56285   4.122  20.406  11.752
89503W        W56286   4.339  44.592   4.042
89504W        W56287   2.782  44.492  12.094
89505W        W56288  36.872  43.282  14.614
89506W        W56289  11.946  33.096   3.131
89507W        W56290  26.577  37.060   3.362
89508W        W56291  16.201  24.214   2.302
89509W        W56292   9.282  23.412  10.892
89510W        W56293  10.841  16.393   1.710
89511W        W56294   1.874   6.418  10.737
89512W        W56295  28.602  24.483  10.781
89513W        W56296  39.311  36.558   2.874
89514W        W56297  42.293  15.545  12.558
89515W        W56298  21.609   7.164   4.076
89516W        W56299  25.123  14.618  10.623
89517W        W56300  13.022  36.357   0.480
89518W        W56301   0.538  29.443   1.887
89519W        W56302  36.940   1.192   1.788
89520W        W56303  43.704  15.814  13.477
89521W        W56304  24.671  23.977   4.499
89522W        W56305  16.973  11.725  13.080
89523W        W56306  22.675  35.170   4.838
89524W        W56307   7.819  43.114  14.838
89525W        W56308   0.250  33.400  11.927
89526W        W56309  19.141   2.894   3.869
89527W        W56310  19.485  27.623  12.901
89528W        W56311  27.957  21.811   1.246
89529W        W56312  22.090  20.007   3.947
89530W        W56313   9.720  30.019  10.661
89531W        W56314   1.584  26.774  11.038
89532W        W56315  22.126   4.793   4.065
89533W        W56316  29.029  22.577   4.939
89534W        W56317   5.779   3.237  11.602
89535W        W56318   4.853   6.811  12.489
89536W        W56319  12.314  27.352  14.921
89537W        W56320  10.782  36.236  11.416
89538W        W56321  17.562   2.957  13.570
89539W        W56322  16.723   0.252   2.155
89540W        W56323  24.431  41.447   1.890
89541W        W56324  25.133  31.180   3.703
89542W        W56325  33.063  18.574   3.806
89543W        W56326  36.443  39.745   1.333
89544W        W56327  41.515  36.450  11.659
89545W        W56328  34.998   4.410   0.289
89546W        W56329   6.443  17.539  11.130
89547W        W56330  31.957  18.079  12.010
89548W        W56331  28.642   3.482  11.497
89549W        W56332  34.349   3.451   2.959
89550W        W56333  23.007  10.073  11.221
89551W        W56334  27.638   1.438  11.580
89552W        W56335  19.069  26.112  14.931
89553W        W56336   7.111  35.075  14.268
89554W        W56337  25.991  25.070  13.131
89555W        W56338  26.599  38.094   2.161
89556W        W56339  11.764  18.620   2.636
89557W        W56340  16.679  18.082  11.166
89558W        W56341  21.073  23.666   3.300
89559W        W56342  23.234   7.871  11.594
89560W        W56343  21.703   4.117  11.139
89561W        W56344  30.465   3.651   0.891
89562W        W56345   6.831   9.963   0.769
89563W        W56346   0.429  22.485   0.280
89564W        W56347  38.909  28.814  11.155
89565W        W56348  16.548  38.396  11.681
89566W        W56349  43.896   0.704   1.694
89567W        W56350  41.897  26.565   3.607
89568W        W56351  43.244  10.439  13.498
89569W        W56352  27.030  32.351  10.883
89570W        W56353  13.557  42.092  11.133
89571W        W56354  16.327  27.132  14.325
89572W        W56355  28.695  33.282   4.667
89573W        W56356  32.570  33.101   4.586
89574W        W56357  13.652  13.280  13.417
89575W        W56358  25.581  19.945   5.053
89576W        W56359  23.367   8.547   0.491
89577W        W56360  34.613  37.409  10.634
89578W        W56361  41.453  41.745  14.350
89579W        W56362  10.750   9.221  13.721
89580W        W56363  37.113  13.791   0.234
89581W        W56364  35.102  19.511  10.782
89582W        W56365  40.252  10.051   4.486
89583W        W56366  35.767   9.417  14.352
89584W        W56367   8.667  23.550  11.498
89585W        W56368  14.126  11.602   1.452
89586W        W56369  43.045  17.628  11.149
89587W        W56370  42.069  12.305   1.444
89588W        W56371  29.448  19.746  10.934
89589W        W56372   1.525  41.253  11.538
89590W        W56373  36.700  32.316  11.172
89591W        W56374  14.516  25.646  12.849
89592W        W56375  12.895  39.590  12.621
89593W        W56376  14.966   5.422  11.557
89594W        W56377  26.638   9.621  11.204
89595W        W56378  15.162   8.799  12.298
89596W        W56379  36.816  27.900  11.913
89597W        W56380  20.750  37.597   1.793
89598W        W56381  38.134  13.793  12.026
89599W        W56382  33.939  27.103  12.968
89600W        W56383  21.692  27.983   4.051
89601W        W56384  11.684  42.049  10.806
89602W        W56385  37.936  15.801  11.638
89603W        W56386  42.361  10.139   2.232
89604W        W56387  23.912  14.609   4.593
89605W        W56388  42.398  28.692  10.736
89606W        W56389  42.912   1.221   1.161
89607W        W56390   5.053  31.630   4.569
89608W        W56391  12.367   5.429  11.671
89609W        W56392  41.342  40.088   1.242
89610W        W56393  37.618  19.810  10.668
89611W        W56394  40.003  21.304  13.119
89612W        W56395  19.716  23.129   1.024
89613W        W56396  33.055   8.420  11.041
89614W        W56397  16.550   7.356  11.284
89615W        W56398  12.129  12.652   2.386
89616W        W56399  36.582  28.637  13.995
89617W        W56400  30.661   8.398   4.106
89618W        W56401  17.985  37.831   5.006
89619W        W56402  28.044  32.249  11.655
89620W        W56403  35.155  23.992  11.689
89621W        W56404  33.594   5.655   4.568
89622W        W56405  24.249  40.028  13.099
89623W        W56406  23.194  18.439  11.502
89624W        W56407  22.678  25.917   1.223
89625W        W56408  28.897  35.401  14.133
89626W        W56409  32.765   7.953   0.311
89627W        W56410  37.037  35.880   3.290
89628W        W56411  25.428  37.793   3.316
89629W        W56412  29.001  23.974   4.545
89630W        W56413  26.037  24.004  12.014
89631W        W56414  16.681   3.261  13.819
89632W        W56415  35.238  42.974   3.708
89633W        W56416  30.031  12.754   3.600
89634W        W56417  14.274  39.895  10.326
89635W        W56418  15.003  40.383   3.285
89636W        W56419  43.743   0.315   4.296
89637W        W56420  37.826  29.075  13.821
89638W        W56421   7.931  19.810   4.861
89639W        W56422  20.342  33.565   0.191
89640W        W56423  15.161   6.089   3.191
89641W        W56424  38.837  24.004   2.331
89642W        W56425  35.066  19.607  11.282
89643W        W56426   9.951  10.655  14.033
89644W        W56427  22.563  34.659  13.247
89645W        W56428  44.855  30.178   4.174
89646W        W56429   7.846  16.698  14.878
89647W        W56430  11.883  15.084   4.118
89648W        W56431  43.763  33.564   0.313
89649W        W56432  31.465  36.808   0.316
89650W        W56433   4.703  14.636  11.660
89651W        W56434  44.442  16.256  12.167
89652W        W56435  19.706  21.563   4.105
89653W        W56436  35.101  42.447   3.652
89654W        W56437   2.661  32.029  12.185
89655W        W56438  39.175  19.725   3.561
89656W        W56439  24.847   0.997   1.928
89657W        W56440  16.212  27.594   0.298
89658W        W56441   0.527  11.229   3.369
89659W        W56442  28.020  30.019  10.775
89660W        W56443  25.160  30.085   2.697
89661W        W56444  14.700   2.998  12.969
89662W        W56445  28.658  31.151  14.783
89663W        W56446  17.297  17.163  13.576
89664W        W56447  36.138  42.445  10.904
89665W        W56448   7.716   6.426  10.954
89666W        W56449  43.751   1.946   0.140
89667W        W56450  12.891   4.807   4.945
89668W        W56451   2.573   4.367  10.757
89669W        W56452  16.878   2.354  11.050
89670W        W56453  42.256  36.321  10.743
89671W        W56454  40.747  20.264   0.949
89672W        W56455  44.601  20.295   0.337
89673W        W56456  44.324  13.187  14.904
89674W        W56457   2.168   2.286  13.463
89675W        W56458   4.766  38.037  12.084
89676W        W56459  34.915  12.266  12.245
89677W        W56460  13.677  42.102  14.938
89678W        W56461  33.229   5.921  14.591
89679W        W56462  10.102   7.113  11.634
89680W        W56463   6.745  19.582   4.961
89681W        W56464  43.845  38.842  12.561
89682W        W56465   8.412  26.846  11.522
89683W        W56466  24.522  30.468   2.342
89684W        W56467  36.117   9.674  10.779
89685W        W56468  18.691   2.894   5.017
89686W        W56469  37.841  15.784  12.559
89687W        W56470  33.103  38.066   0.999
89688W        W56471  44.484  37.818  10.772
89689W        W56472  18.109  18.063  13.197
89690W        W56473  21.070  23.782   4.185
89691W        W56474  43.690  17.529   9.925
89692W        W56475   2.757  10.479  14.909
89693W        W56476  19.724  20.640   3.829
89694W        W56477   8.292  29.308  13.815
89695W        W56478  17.400  11.948  14.337
89696W        W56479   0.572   7.395   1.925
89697W        W56480  20.163  38.481   3.592
89698W        W56481   2.928  41.526  13.533
89699W        W56482  29.505  30.185  12.054
89700W        W56483  36.955  29.571  13.527
89701W        W56484  31.399  22.443  13.007
89702W        W56485  37.890  23.490   2.302
89703W        W56486  36.346  21.511  12.877
89704W        W56487  36.766  33.951   3.466
89705W        W56488  26.456   1.561   1.943
89706W        W56489  31.055  28.642  12.457
89707W        W56490   0.249  37.591  11.449
89708W        W56491  14.502  36.452   0.057
89709W        W56492  31.077  40.750  13.910
89710W        W56493   4.178  41.085   2.069
89711W        W56494  42.758  38.736  13.441
89712W        W56495  34.780   8.650  10.725
89713W        W56496  21.935  12.830  12.870
89714W        W56497   5.129  26.603   0.969
89715W        W56498   7.925   7.875  14.197
89716W        W56499   3.406   2.964   3.660
89717W        W56500  39.847   0.933   0.794
89718W        W56501   2.474  41.030   2.216
89719W        W56502  42.788  24.138   2.286
89720W        W56503  15.208   7.897   3.859
89721W        W56504  12.638   2.438  11.596
89722W        W56505   7.859  18.448  10.607
89723W        W56506  24.222  37.650   0.055
89724W        W56507  31.494  42.405  14.359
89725W        W56508  38.814  16.266  12.709
89726W        W56509  18.323  24.219   1.816
89727W        W56510  36.624  16.635   3.710
89728W        W56511  23.888  10.729   3.595
89729W        W56512  15.305  18.571   4.125
89730W        W56513  35.736  27.022   1.786
89731W        W56514  40.854  42.426   4.600
89732W        W56515  26.192   7.448  13.432
89733W        W56516  16.327  22.976  11.441
89734W        W56517  38.324  34.293  13.838
89735W        W56518   4.415   6.752   0.304
89736W        W56519   2.431  23.299  12.201
89737W        W56520  29.124  12.034   2.390
89738W        W56521  34.363   3.292   4.272
89739W        W56522  25.228  11.300  13.831
89740W        W56523  17.277   4.243  13.081
89741W        W56524  13.869  35.447   5.446
89742W        W56525   3.404  11.679  14.493
89743W        W56526  26.858   0.899   2.626
89744W        W56527   4.318  12.925   2.843
89745W        W56528   1.435   6.799   4.590
89746W        W56529  31.651  41.487   2.990
89747W        W56530  43.099  22.137  10.984
89748W        W56531  35.905  11.230   3.342
89749W        W56532   2.383   3.409   1.428
89750W        W56533  44.841  10.660  11.566
89751W        W56534  14.641   2.238   4.936
89752W        W56535  32.908  22.714  12.928
89753W        W56536  12.955  41.067  14.419
89754W        W56537  25.852   5.432   4.211
89755W        W56538  28.791  40.401   3.633
89756W        W56539   8.293  25.816  10.599
89757W        W56540   6.490  18.018  12.494
89758W        W56541   7.706  31.910  12.205
89759W        W56542  12.811  28.738  13.583
89760W        W56543  21.158  19.250  12.469
89761W        W56544  15.238   1.245  14.757
89762W        W56545  43.839  31.557  13.895
89763W        W56546   6.253  10.180  10.494
89764W        W56547  12.322  27.139  12.823
89765W        W56548  22.926  16.428   1.824
89766W        W56549   5.366   9.766  12.299
89767W        W56550  44.655   0.946   0.407
89768W        W56551  13.913  15.999   3.844
89769W        W56552  19.176   1.193  12.441
89770W        W56553  20.932   8.802   4.950
89771W        W56554  18.289  27.118  12.569
89772W        W56555  32.106   8.861  13.941
89773W        W56556   5.423  39.321  12.121
89774W        W56557  23.157  19.572  11.832
89775W        W56558   0.809   9.182  12.196
89776W        W56559  31.568   9.697   2.223
89777W        W56560   1.590  29.373  11.678
89778W        W56561  25.459  32.340  12.620
89779W        W56562  30.458  39.856  14.117
89780W        W56563   4.647  10.245  11.155
89781W        W56564   7.567  44.987   1.507
89782W        W56565  24.005   0.755   0.373
89783W        W56566  24.065  28.642   1.446
89784W        W56567  19.657   6.261  11.577
89785W        W56568   8.835  13.204  10.940
89786W        W56569  29.166  43.212  11.173
89787W        W56570  32.607  28.218  13.734
89788W        W56571   1.053  25.871   1.730
89789W        W56572  29.955   6.264  14.962
89790W        W56573  21.340  15.302   2.787
89791W        W56574   2.995  25.617   1.918
89792W        W56575   0.567  22.732   1.652
89793W        W56576   8.517  36.883  11.542
89794W        W56577   9.661  17.313   0.196
89795W        W56578  42.120   5.702   2.006
89796W        W56579   2.827  33.942   2.748
89797W        W56580  36.484  14.798   2.746
89798W        W56581  43.592  28.953  10.493
89799W        W56582  34.474  34.623   1.008
89800W        W56583  40.032  12.872  12.402
89801W        W56584  33.699  17.186  14.010
89802W        W56585  20.166  30.343  12.444
89803W        W56586  19.589  25.587   2.077
89804W        W56587   1.074   8.602   3.255
89805W        W56588  28.484  35.846  10.806
89806W        W56589   4.957  15.129  11.739
89807W        W56590   2.735   6.892   0.862
89808W        W56591  15.631   8.637  12.448
89809W        W56592   9.393  20.458   3.610
89810W        W56593  27.954  24.494  12.148
89811W        W56594  15.618   1.736  13.455
89812W        W56595  23.096  15.887   2.672
89813W        W56596   8.121  31.560   1.253
89814W        W56597  33.108  33.853  13.942
89815W        W56598  12.129   5.128  12.037
89816W        W56599  21.034  19.359  11.082
89817W        W56600  43.465   9.058   0.614
89818W        W56601  21.441  26.565   2.206
89819W        W56602  26.453  14.563   4.446
89820W        W56603  25.914  35.420  11.170
89821W        W56604  18.464  17.323  13.083
89822W        W56605   8.219   3.902   0.418
89823W        W56606  42.414  37.857  10.443
89824W        W56607   7.295  42.909  13.505
89825W        W56608   2.073  35.472  13.780
89826W        W56609  17.578  44.849  14.958
89827W        W56610   3.378  39.908   1.539
89828W        W56611  30.536   7.850  11.138
89829W        W56612  25.145  37.311   4.181
89830W        W56613  14.167  24.924   3.732
89831W        W56614  12.399  31.149   1.274
89832W        W56615  33.520  42.505   1.383
89833W        W56616  26.260   2.286  13.184
89834W        W56617  40.033  12.354  13.980
89835W        W56618   3.656  33.614   1.651
89836W        W56619  41.306  17.498   0.010
89837W        W56620   6.661  10.808   3.144
89838W        W56621  28.556  23.965  14.256
89839W        W56622  34.090  10.452   3.652
89840W        W56623  23.105  13.169   0.021
89841W        W56624  11.076  29.382  10.764
89842W        W56625   2.552  39.729  14.927
89843W        W56626  38.970  37.803  14.327
89844W        W56627  16.364  30.387   4.245
89845W        W56628   8.698  17.748  13.844
89846W        W56629   5.237   3.803  11.215
89847W        W56630   6.028  40.952  13.191
89848W        W56631  43.279  17.588   3.674
89849W        W56632  36.020  10.127   4.713
89850W        W56633   5.314  31.208   4.837
89851W        W56634  19.928  42.950   4.382
89852W        W56635  39.520  27.469  14.558
89853W        W56636   1.297  13.569  12.053
89854W        W56637   6.847  37.146  12.538
89855W        W56638  33.772  13.265  13.513
89856W        W56639   9.089  25.664  14.988
89857W        W56640  25.247  29.002   1.966
89858W        W56641   2.892   8.468   0.786
89859W        W56642  34.371   7.618  13.868
89860W        W56643   9.604  41.577  12.410
89861W        W56644  39.313  12.239  11.559
89862W        W56645  24.392  13.377   4.421
89863W        W56646   7.386  25.989   4.626
89864W        W56647  19.457   3.677  10.520
89865W        W56648  27.433   8.248  12.221
89866W        W56649  34.483  10.484   5.419
89867W        W56650   3.950  24.251  13.604
89868W        W56651  42.734  10.816   4.194
89869W        W56652  18.432  24.612  14.493
89870W        W56653  40.745  32.842  13.331
89871W        W56654  44.439  25.932   3.687
89872W        W56655  17.853   6.428  10.701
89873W        W56656  40.867   2.481  12.831
89874W        W56657   5.282   0.057   0.191
89875W        W56658  41.809  24.800  12.575
89876W        W56659  44.970   6.648   4.781
89877W        W56660  25.530  15.213   4.969
89878W        W56661  23.533   9.175   2.494
89879W        W56662  22.649  12.338   2.886
89880W        W56663  44.026  16.534   3.258
89881W        W56664  16.353  24.812   3.375
89882W        W56665  26.420  41.285  13.632
89883W        W56666  34.565   1.429   1.693
89884W        W56667  22.150  23.376  10.736
89885W        W56668  20.054  39.493  14.452
89886W        W56669  43.383  32.630  10.695
89887W        W56670  37.250  24.176   3.222
89888W        W56671  35.633  32.751   0.501
89889W        W56672  28.514  40.628   9.811
89890W        W56673  23.584  38.468   3.202
89891W        W56674  11.090  24.601   4.210
89892W        W56675  27.931   4.143  12.215
89893W        W56676  44.886  10.117  12.519
89894W        W56677   7.692  42.405   3.707
89895W        W56678  36.648  32.558   3.882
89896W        W56679  38.403  27.675   1.457
89897W        W56680  28.307   2.403  10.310
89898W        W56681  15.343  17.321   1.846
89899W        W56682  22.632  30.245  13.305
89900W        W56683  37.098  12.801   2.782
89901W        W56684  30.716  26.066   1.445
89902W        W56685   6.769   2.317   0.356
89903W        W56686  28.489  15.737   2.616
89904W        W56687   6.335  24.552  10.759
89905W        W56688   8.308   9.760   4.123
89906W        W56689  13.860   0.942  10.693
89907W        W56690  21.476  10.060   1.838
89908W        W56691  26.622  12.731   3.571
89909W        W56692  26.580  17.175   3.004
89910W        W56693  10.182   2.370   2.692
89911W        W56694   5.399  22.383  14.959
89912W        W56695  26.524   1.498  12.884
89913W        W56696  40.815   3.808  14.202
89914W        W56697  25.649  30.391   4.605
89915W        W56698  19.063  13.730   3.268
89916W        W56699  39.733  24.099   4.580
89917W        W56700  27.851  34.424   3.335
89918W        W56701  22.735  22.675  11.301
89919W        W56702  36.331  26.696  14.884
89920W        W56703  12.166   7.399  14.775
89921W        W56704  42.382  12.001   3.098
89922W        W56705  30.637  33.204   1.045
89923W        W56706  20.096  39.251   4.171
89924W        W56707  21.878  41.123   3.026
89925W        W56708  15.894  41.419  13.814
89926W        W56709  30.000  44.733  13.382
89927W        W56710  34.225  28.168  10.741
89928W        W56711  23.172  18.235  10.755
89929W        W56712   3.277  11.736   3.312
89930W        W56713   8.725   8.795  13.123
89931W        W56714  34.485   9.608   0.301
89932W        W56715  18.386  14.635   0.788
89933W        W56716  16.989  18.954   1.277
89934W        W56717  17.029  12.271   0.213
89935W        W56718  36.729  18.074  13.798
89936W        W56719  42.867   8.351   2.215
89937W        W56720  16.418  20.701   2.350
89938W        W56721  21.753  23.343   1.879
89939W        W56722  11.391  42.915   0.659
89940W        W56723  33.054   5.853  13.560
89941W        W56724  29.534  16.433   1.195
89942W        W56725  27.551   4.681  14.533
89943W        W56726  15.652  40.512   4.950
89944W        W56727  14.581  21.698  13.424
89945W        W56728  16.176   1.132  10.160
89946W        W56729  14.720  32.653  13.101
89947W        W56730   2.731   2.170   2.820
89948W        W56731  29.373  23.254  11.580
89949W        W56732  24.530   3.528  12.065
89950W        W56733   9.813  35.983  11.376
89951W        W56734  30.704   1.846   0.745
89952W        W56735  23.042   8.345  12.520
89953W        W56736   0.405  41.241   4.097
89954W        W56737  38.954  37.846   2.371
89955W        W56738  18.750  26.883  12.938
89956W        W56739  23.310  33.993  10.564
89957W        W56740   8.152   2.180   1.421
89958W        W56741  12.772   9.139   0.405
89959W        W56742  20.694  16.570  11.463
89960W        W56743   1.399  15.527   1.211
89961W        W56744  21.802  30.232   5.186
89962W        W56745  12.436  43.960   2.786
89963W        W56746   5.838  44.349   0.354
89964W        W56747  14.668   9.906   4.754
89965W        W56748  16.280  38.489   0.728
89966W        W56749  10.425  41.781   3.633
89967W        W56750   1.745   9.803  13.993
89968W        W56751  33.217  20.761  10.801
89969W        W56752   8.677   9.885  14.745
89970W        W56753  14.576  11.169  11.271
89971W        W56754   0.886  30.037   2.215
89972W        W56755  26.423  41.285  12.621
89973W        W56756  23.708   8.624  13.928
89974W        W56757  32.559  21.980   3.620
89975W        W56758  21.175   5.928   2.081
89976W        W56759   8.260  41.793  12.567
89977W        W56760  32.071  42.206  12.422
89978W        W56761  23.649   7.114   3.296
89979W        W56762   0.054  18.751  14.836
89980W        W56763  20.112   2.282  12.465
89981W        W56764  34.109  15.725   0.461
89982W        W56765   5.701  40.327  11.544
89983W        W56766  37.926  25.958  11.437
89984W        W56767   7.427  17.829   1.922
89985W        W56768  12.540   6.804   2.628
89986W        W56769  30.969  13.776  13.470
89987W        W56770  19.226  26.323   3.245
89988W        W56771  31.633  35.470  14.939
89989W        W56772   4.735  27.919  12.621
89990W        W56773  25.397  28.483  11.637
89991W        W56774   9.990  42.419   1.402
89992W        W56775  24.507  21.265   0.334
89993W        W56776  11.650  28.196   3.551
89994W        W56777  22.551  15.652  13.458
89995W        W56778  11.067  31.719  14.719
89996W        W56779  33.614  37.504  10.128
89997W        W56780   2.903  16.637   1.947
89998W        W56781  39.794   5.648  14.528
89999W        W56782   1.962  21.644  12.888
90000W        W56783  33.473  13.869   4.061
90001W        W56784  40.348  17.163  13.982
90002W        W56785  38.444  34.574  13.414
90003W        W56786  34.067  21.263  13.827
90004W        W56787  17.023  30.177  14.983
90005W        W56788  13.335   6.225  10.521
90006W        W56789   8.273  19.103  10.903
90007W        W56790  12.717  21.185   1.952
90008W        W56791  20.297  30.616   0.015
90009W        W56792   9.079  10.917   1.961
90010W        W56793  39.944  15.138  12.711
90011W        W56794  24.071  43.467  10.479
90012W        W56795  24.580  33.550   0.964
90013W        W56796  24.194   0.103   0.929
90014W        W56797  35.478  27.664  10.895
90015W        W56798   5.140  37.356   0.834
90016W        W56799  39.422  29.621  12.981
90017W        W56800  35.063  21.654  14.731
90018W        W56801  28.786  37.210   3.268
90019W        W56802   9.283   3.195  13.967
90020W        W56803  44.789  24.233   3.191
90021W        W56804  31.064   5.221  12.075
90022W        W56805  32.308  10.537  11.529
90023W        W56806   5.446  27.072  13.377
90024W        W56807   4.299  17.274  11.491
90025W        W56808  42.060  16.792  14.956
90026W        W56809  27.092  13.369  12.933
90027W        W56810  23.290  16.843   3.568
90028W        W56811   8.842  11.038  11.764
90029W        W56812  31.565  26.595  12.093
90030W        W56813  42.954  18.720   3.157
90031W        W56814  17.714  32.188   4.551
90032W        W56815  29.414  14.436   3.302
90033W        W56816  26.610   2.434  11.684
90034W        W56817  14.694   8.789  10.603
90035W        W56818  41.503  34.391   3.706
90036W        W56819  24.223  15.713  14.381
90037W        W56820  16.974  38.080   4.144
90038W        W56821  34.993  36.861  14.032
90039W        W56822   1.444  34.555  13.561
90040W        W56823   0.221  17.587  10.560
90041W        W56824  41.635  16.419   2.019
90042W        W56825   2.239  20.612  13.379
90043W        W56826  39.955   9.872   0.593
90044W        W56827   7.224  19.136   4.903
90045W        W56828  42.903   6.803  12.535
90046W        W56829   2.269  20.630   2.791
90047W        W56830  17.842  29.041   0.798
90048W        W56831   7.816   5.261  12.451
90049W        W56832  43.770  14.169   3.093
90050W        W56833  42.624   1.838  13.329
90051W        W56834   8.856  20.022  14.832
90052W        W56835   9.729   3.177   3.260
90053W        W56836   1.685  29.104  13.969
90054W        W56837  14.018   8.360   5.416
90055W        W56838   6.379  44.036  11.900
90056W        W56839  19.481  35.390   3.404
90057W        W56840  31.800  19.059  10.989
90058W        W56841  41.765  37.486   2.310
90059W        W56842  22.150  44.237  10.218
90060W        W56843   3.398   9.757   4.345
90061W        W56844   6.374  21.604   2.078
90062W        W56845  26.664  34.923   3.200
90063W        W56846  37.821   9.655  12.464
90064W        W56847  20.630  40.929  12.840
90065W        W56848  22.661  29.029   2.309
90066W        W56849  39.833  24.677  11.636
90067W        W56850  22.592  38.463  11.749
90068W        W56851  24.282  36.855  13.855
90069W        W56852   1.793  24.337  11.228
90070W        W56853   3.723  39.117  13.958
90071W        W56854   8.082  21.749  12.029
90072W        W56855  25.025   9.593   1.764
90073W        W56856  15.866  31.897   5.169
90074W        W56857  23.027  24.675   3.657
90075W        W56858  30.936  14.586  12.920
90076W        W56859  34.314   7.657   0.173
90077W        W56860   3.550  12.919   2.340
90078W        W56861  38.616  25.694   3.298
90079W        W56862  38.840  19.749   0.283
90080W        W56863  28.803  43.770  13.315
90081W        W56864  36.350  26.546  11.299
90082W        W56865  33.356  29.548   1.702
90083W        W56866   7.269  44.730   2.748
90084W        W56867  44.872  17.582   1.321
90085W        W56868  13.337  43.464  12.865
90086W        W56869   4.499  31.242  12.422
90087W        W56870  14.305  25.367   4.545
90088W        W56871   2.786   2.936   2.198
90089W        W56872   3.488  23.669  13.844
90090W        W56873  36.420  38.994   2.470
90091W        W56874  10.646  33.509   1.747
90092W        W56875  11.694  44.319  10.767
90093W        W56876   1.484  32.352   0.472
90094W        W56877  20.693  18.027   3.744
90095W        W56878  27.009  32.558  14.524
90096W        W56879  14.209  17.968   0.865
90097W        W56880  18.461   8.564  13.100
90098W        W56881  10.914  14.797  12.906
90099W        W56882  31.957  29.333   4.436
90100W        W56883  28.195  31.744  11.758
90101W        W56884  19.298  33.419   4.851
90102W        W56885  11.110  38.315  12.057
90103W        W56886  29.391   8.963  14.529
90104W        W56887  16.133  10.392  11.169
90105W        W56888  21.493  24.570  13.444
90106W        W56889  18.072  35.761   3.305
90107W        W56890  29.749  16.533  14.304
90108W        W56891   0.460  34.647  14.904
90109W        W56892  19.071  18.170  11.300
90110W        W56893  23.962  12.574   0.826
90111W        W56894  40.151  43.581   3.290
90112W        W56895  39.326  41.972  12.260
90113W        W56896  29.172  42.448   4.056
90114W        W56897  18.183  32.725   0.840
90115W        W56898  12.886  29.873   4.208
90116W        W56899  30.550   9.924   1.681
90117W        W56900  39.497  43.254   1.809
90118W        W56901   2.276  31.301   3.939
90119W        W56902  20.721  28.682   0.678
90120W        W56903  11.671   1.658  12.463
90121W        W56904  21.124  42.737   0.342
90122W        W56905  28.014  37.404   1.892
90123W        W56906   5.134  28.141  10.403
90124W        W56907  10.574  34.221  11.570
90125W        W56908  12.636  26.975  14.413
90126W        W56909  37.197  22.071  10.500
90127W        W56910  16.697   8.373   2.903
90128W        W56911  33.254   5.932  10.636
90129W        W56912  34.351  35.217  11.707
90130W        W56913  22.740  29.559   4.768
90131W        W56914  37.248   6.756   4.342
90132W        W56915  34.140  10.862   3.992
90133W        W56916  33.582  40.641  11.577
90134W        W56917  31.588  27.126  11.898
90135W        W56918  19.877  22.023  11.973
90136W        W56919   4.745   3.171  12.497
90137W        W56920  17.670  37.876   4.549
90138W        W56921  37.594  37.024   0.664
90139W        W56922   4.814   6.443   1.939
90140W        W56923   5.207  21.225  14.259
90141W        W56924  11.417  38.698  11.992
90142W        W56925   9.575  26.994   2.359
90143W        W56926  40.022  37.413   0.028
90144W        W56927  12.639  19.525  13.909
90145W        W56928  26.891  24.073  13.839
90146W        W56929   7.330  12.354   4.763
90147W        W56930  27.610  16.177   3.358
90148W        W56931  28.240  21.768  12.452
90149W        W56932  19.643   2.716   2.225
90150W        W56933  21.632   3.135   3.602
90151W        W56934  37.940   1.822  11.968
90152W        W56935   2.742  23.720  11.084
90153W        W56936  26.534  14.252   3.700
90154W        W56937   3.303  28.132   2.819
90155W        W56938  22.034  30.356   4.723
90156W        W56939  16.614  33.342   4.015
90157W        W56940  42.459  43.384  10.596
90158W        W56941  20.815   6.218  10.417
90159W        W56942  35.227   4.759  12.421
90160W        W56943  27.987  28.631   0.486
90161W        W56944  28.027  37.834   0.810
90162W        W56945  27.556   9.025   0.627
90163W        W56946  41.507   3.955   3.677
90164W        W56947  42.092  39.880  11.524
90165W        W56948  25.038   8.858   1.195
90166W        W56949  18.822  14.366  13.496
90167W        W56950  37.915  42.826  13.673
90168W        W56951  38.718  23.174   0.389
90169W        W56952  18.615  38.298   3.690
90170W        W56953  39.547  16.160   4.204
90171W        W56954   5.729   9.909   4.628
90172W        W56955  26.619  12.720  11.919
90173W        W56956   6.033  14.073  11.585
90174W        W56957  13.363  37.905  13.326
90175W        W56958  28.102   8.444   3.785
90176W        W56959   8.395  40.291  12.633
90177W        W56960  39.904  39.932  14.443
90178W        W56961  15.309   9.156  11.975
90179W        W56962  29.295  20.592  13.092
90180W        W56963  23.929  23.138   3.421
90181W        W56964  11.904  37.012   4.514
90182W        W56965  20.156  34.829  12.952
90183W        W56966  17.136  10.418   1.400
90184W        W56967   9.206  24.276  10.814
90185W        W56968  24.075   8.029   1.710
90186W        W56969  28.681   1.824  12.968
90187W        W56970  35.335   1.213  12.889
90188W        W56971  29.448  29.637   4.585
90189W        W56972  42.812  31.278   4.160
90190W        W56973  15.841  26.606  13.386
90191W        W56974   1.213  28.999  13.796
90192W        W56975   6.381   6.901  12.923
90193W        W56976  27.734  22.720  12.381
90194W        W56977  39.978  37.479  13.182
90195W        W56978  40.920   7.866   0.551
90196W        W56979  21.815  18.225   1.082
90197W        W56980  13.766  10.211   9.948
90198W        W56981  12.825  21.171  12.872
90199W        W56982  13.813   0.986   0.833
90200W        W56983  40.479  35.302  13.047
90201W        W56984  40.813  13.113   5.191
90202W        W56985  24.747  18.271   1.242
90203W        W56986  33.092  15.431   1.888
90204W        W56987  29.087   9.577   1.372
90205W        W56988  19.481  12.168   1.653
90206W        W56989  43.990  29.169   1.698
90207W        W56990  39.010  43.388  14.495
90208W        W56991  34.594   1.574   2.746
90209W        W56992  21.258  37.411   5.117
90210W        W56993  29.159   3.025  14.494
90211W        W56994   9.098  18.701  11.908
90212W        W56995   1.135  36.131  11.993
90213W        W56996   4.710  39.569  12.224
90214W        W56997   8.432  26.057   0.412
90215W        W56998  12.316  11.613   2.338
90216W        W56999  36.824  37.497   0.956
90217W        W57000   8.701  35.394   1.812
90218W        W57001  17.815   4.180  13.060
90219W        W57002   2.984  36.842   3.212
90220W        W57003  39.948  40.354   3.122
90221W        W57004  10.242  17.606   3.371
90222W        W57005  43.316  11.148   1.189
90223W        W57006  18.265  14.077  13.992
90224W        W57007  18.289  43.775  12.870
90225W        W57008  19.321  34.847   0.764
90226W        W57009  29.640  12.550  11.572
90227W        W57010  40.735  21.837  11.624
90228W        W57011  15.768  10.573  10.469
90229W        W57012   1.987   7.661  11.223
90230W        W57013  12.365  23.215  13.535
90231W        W57014  41.276  23.120  11.150
90232W        W57015   6.254  36.317   3.116
90233W        W57016  16.083  20.195  12.702
90234W        W57017   4.097   1.076   2.684
90235W        W57018  29.581   6.176   4.931
90236W        W57019  30.543  35.978  13.351
90237W        W57020  29.687  44.194   1.282
90238W        W57021   4.726  26.906   3.738
90239W        W57022  15.758  43.489   2.472
90240W        W57023  44.817  16.325   0.819
90241W        W57024  33.755   5.594   1.676
90242W        W57025  29.621  39.912   0.569
90243W        W57026  31.060  24.146   0.489
90244W        W57027  27.455  28.576   2.220
90245W        W57028  20.451  18.750  12.700
90246W        W57029  26.564  28.051  12.486
90247W        W57030  13.882  37.577  12.481
90248W        W57031  27.635   1.064   4.607
90249W        W57032   2.266  29.709   4.459
90250W        W57033  10.103  38.925  11.158
90251W        W57034  30.630   1.070   5.112
90252W        W57035  30.906   8.904  14.293
90253W        W57036   5.345  30.673   0.459
90254W        W57037  43.362  39.975   3.524
90255W        W57038  30.899   6.339  10.282
90256W        W57039  40.053  40.141   1.867
90257W        W57040  14.738  21.743   0.875
90258W        W57041  33.164  10.154   2.739
90259W        W57042  19.960   2.686   3.083
90260W        W57043  16.582  11.077  13.336
90261W        W57044  13.582   0.897   3.635
90262W        W57045  22.813  39.947   0.990
90263W        W57046   8.151  38.181   3.559
90264W        W57047  38.748  42.980  10.348
90265W        W57048  30.062   8.354   0.665
90266W        W57049  19.757   9.565   3.380
90267W        W57050   5.824   9.156  14.764
90268W        W57051  36.062   1.690  10.332
90269W        W57052  16.817  37.038  12.542
90270W        W57053  37.539  26.812  11.868
90271W        W57054  23.679  17.913  12.256
90272W        W57055   2.750  13.195   3.389
90273W        W57056  18.615  13.266  13.061
90274W        W57057  11.203  43.848  11.692
90275W        W57058   9.157  38.675  13.907
90276W        W57059  37.778   0.097  11.938
90277W        W57060  34.116  31.433   4.087
90278W        W57061  39.392  14.245   1.656
90279W        W57062  25.175  19.867  14.083
90280W        W57063  12.545  41.226   2.881
90281W        W57064   3.927  13.116  10.627
90282W        W57065  28.732  11.958   1.934
90283W        W57066  21.290  37.981  12.101
90284W        W57067   4.354  26.708   3.192
90285W        W57068   5.662  19.787   2.355
90286W        W57069  35.481  31.166   0.563
90287W        W57070  10.375  35.084  12.390
90288W        W57071   5.030  35.066   2.029
90289W        W57072  12.379  27.405   1.858
90290W        W57073  13.696  30.183   0.267
90291W        W57074   7.525  18.593   2.244
90292W        W57075  14.428   6.427  13.864
90293W        W57076  18.776   9.677  14.388
90294W        W57077  44.166  19.652   1.391
90295W        W57078   9.427  41.481   1.740
90296W        W57079   8.152   6.821   0.983
90297W        W57080   5.467  23.747   0.740
90298W        W57081  42.900  13.268  13.696
90299W        W57082  20.052  38.791  13.903
90300W        W57083   2.024   3.399   0.320
90301W        W57084  10.090  35.371   3.235
90302W        W57085  33.506  44.015   4.548
90303W        W57086   2.956  35.136   4.123
90304W        W57087  33.427  38.925   0.749
90305W        W57088   7.727   3.806   3.034
90306W        W57089   5.471   1.906   0.313
90307W        W57090  43.261  25.474  11.161
90308W        W57091   8.819   9.281  14.194
90309W        W57092  19.410  37.954   3.691
90310W        W57093  19.038  35.026   4.664
90311W        W57094  33.971  31.941  13.574
90312W        W57095  18.691  19.637  11.413
90313W        W57096   8.765  31.461   3.585
90314W        W57097   1.705  26.558  14.813
90315W        W57098  10.246  41.371  13.990
90316W        W57099  38.944  37.981   0.813
90317W        W57100  39.414  32.444  11.274
90318W        W57101   6.424  32.046   3.560
90319W        W57102  32.759  15.502   0.287
90320W        W57103  25.993  13.091   1.642
90321W        W57104  11.097   2.683   1.679
90322W        W57105  44.896  30.430   2.252
90323W        W57106  30.878  12.221   4.288
90324W        W57107   0.757   7.442   4.625
90325W        W57108  17.590   3.401  12.454
90326W        W57109  16.615  20.010   3.222
90327W        W57110  11.721  18.275   1.657
90328W        W57111  32.326  11.746  14.069
90329W        W57112  19.553  41.149   4.105
90330W        W57113  42.807  30.954   2.406
90331W        W57114  29.186  10.220   2.313
90332W        W57115  38.822  25.751  13.370
90333W        W57116  30.919  11.140  12.524
90334W        W57117  18.377  44.317  10.675
90335W        W57118  40.507  29.523   0.911
90336W        W57119  21.793  30.603   0.489
90337W        W57120   1.300  16.039   1.926
90338W        W57121  29.465  20.988   0.449
90339W        W57122  14.253  27.685   3.266
90340W        W57123   9.380  42.814   2.561
90341W        W57124   6.909   7.841   4.082
90342W        W57125  37.764  29.973  11.581
90343W        W57126  15.571   7.372  14.355
90344W        W57127  12.718   5.183   3.078
90345W        W57128  21.742  34.313  10.719
90346W        W57129  21.672  18.751   4.206
90347W        W57130   7.353  33.672   3.174
90348W        W57131  23.541  34.638  10.601
90349W        W57132  20.193   7.029  14.455
90350W        W57133   0.123  32.477   3.314
90351W        W57134  33.169   8.204   2.804
90352W        W57135  15.815  10.944  14.934
90353W        W57136  16.888  38.953   1.260
90354W        W57137   1.673  32.603   4.260
90355W        W57138  13.583  14.116   0.848
90356W        W57139  30.237   5.998   2.336
90357W        W57140  34.629  27.138  14.845
90358W        W57141  38.282   7.997  13.444
90359W        W57142  34.795  32.564   0.821
90360W        W57143  34.604  11.227  13.201
90361W        W57144  15.252   8.850   3.909
90362W        W57145  11.883   5.725   2.375
90363W        W57146  24.148  34.046  11.964
90364W        W57147  30.512  25.906  14.911
90365W        W57148   7.627  34.935   4.209
90366W        W57149   5.914  37.868  10.579
90367W        W57150  21.448  23.772   1.921
90368W        W57151  14.905  29.750  11.291
90369W        W57152  22.476  37.310  13.847
90370W        W57153  41.438  34.892   0.267
90371W        W57154  37.333   6.348  12.574
90372W        W57155  43.183  31.519  12.872
90373W        W57156  37.493  17.294   0.198
90374W        W57157   1.053  22.234   4.178
90375W        W57158  21.555  21.610   0.941
90376W        W57159  41.832  31.358   1.774
90377W        W57160   3.001  17.114  12.034
90378W        W57161  22.761  24.709   0.217
90379W        W57162  25.217  44.244  12.826
90380W        W57163  44.982   1.324   0.527
90381W        W57164  19.542  11.886  13.963
90382W        W57165   9.195  42.189   0.929
90383W        W57166  21.584  38.969  14.229
90384W        W57167  11.000  16.535   2.875
90385W        W57168   6.489  42.034  12.361
90386W        W57169  41.030   1.770  11.676
90387W        W57170  27.450  33.638  13.024
90388W        W57171  16.534  43.933   0.833
90389W        W57172   6.335  19.735   1.567
90390W        W57173   8.197   7.905  12.970
90391W        W57174  20.485  11.863   1.795
90392W        W57175   8.604  43.384   2.687
90393W        W57176  14.548   3.424  14.986
90394W        W57177  42.805  19.794   4.790
90395W        W57178  32.981  20.079  13.890
90396W        W57179  44.929  14.101  10.611
90397W        W57180  29.742  33.031   4.086
90398W        W57181  32.185   7.801  12.885
90399W        W57182  39.012  14.806   2.089
90400W        W57183  13.711  12.407  13.468
90401W        W57184  36.847  37.054   1.259
90402W        W57185  19.071  28.095  14.762
90403W        W57186  22.764  43.968   1.384
90404W        W57187   1.872  12.992   3.472
90405W        W57188  17.370  41.106  11.717
90406W        W57189  16.809  33.832  12.415
90407W        W57190  44.371  42.351  12.206
90408W        W57191  42.285  39.442  13.195
90409W        W57192   4.445  14.924   2.671
90410W        W57193  21.294  32.704  14.860
90411W        W57194   7.382  37.017   4.563
90412W        W57195  20.696  34.288   1.890
90413W        W57196  33.009  13.313  12.474
90414W        W57197  23.526  24.829   3.776
90415W        W57198  29.463  33.942   3.393
90416W        W57199  35.488   1.526   1.576
90417W        W57200   9.370  43.892   1.816
90418W        W57201  29.840  41.994  14.769
90419W        W57202  19.123  19.729  10.635
90420W        W57203  28.217  34.998   1.872
90421W        W57204  18.748  33.637  12.892
90422W        W57205  12.293   0.567   1.908
90423W        W57206  43.736  12.535   4.578
90424W        W57207   1.871  20.124   0.314
90425W        W57208   6.328  10.809   4.469
90426W        W57209  34.589  12.920  10.531
90427W        W57210   7.080  12.693   0.908
90428W        W57211   7.293  26.581   4.512
90429W        W57212   1.477  16.685  13.376
90430W        W57213  15.528  15.091  13.044
90431W        W57214  21.508  27.882  12.583
90432W        W57215  40.719  36.367   1.485
90433W        W57216  43.949  33.402   0.813
90434W        W57217  35.151  23.913  10.827
90435W        W57218  33.633  22.993  13.927
90436W        W57219  33.843  22.968   5.518
90437W        W57220  23.110   5.883  12.655
90438W        W57221  19.523  16.233  12.747
90439W        W57222  24.218  15.734  13.780
90440W        W57223  41.825  13.118  12.116
90441W        W57224  33.520  16.749   0.915
90442W        W57225   6.337  43.831   3.319
90443W        W57226  43.832  32.925  14.352
90444W        W57227  24.679  16.081  13.725
90445W        W57228  18.471  21.697   2.756
90446W        W57229  29.138  13.249  11.257
90447W        W57230  11.079  24.076   3.610
90448W        W57231  33.846  15.187   3.260
90449W        W57232  14.102  40.918   4.166
90450W        W57233  33.752  42.263   3.303
90451W        W57234  19.830  14.421   2.172
90452W        W57235  13.787  33.513  10.947
90453W        W57236  20.248   8.198   0.779
90454W        W57237   3.807  16.642  12.124
90455W        W57238  33.791  22.773  10.667
90456W        W57239   0.278   8.310  14.615
90457W        W57240  25.391   1.498   2.423
90458W        W57241   9.841  41.131  12.478
90459W        W57242  32.868  32.088  14.701
90460W        W57243  32.933  24.115   0.687
90461W        W57244  12.062  20.099   1.834
90462W        W57245  27.891  36.948  12.036
90463W        W57246  37.117   1.293  12.050
90464W        W57247  26.677  14.822  12.151
90465W        W57248  15.148  13.347  14.583
90466W        W57249  24.488  44.057  11.118
90467W        W57250  25.670  38.083   9.643
90468W        W57251  26.281   9.238  12.524
90469W        W57252  23.100  11.308  14.010
90470W        W57253  24.537  21.552   4.215
90471W        W57254  20.235  34.934  11.120
90472W        W57255  11.299   5.698  13.924
90473W        W57256  17.178  44.877  12.409
90474W        W57257  44.930  44.860   2.028
90475W        W57258   9.700  44.872   2.836
90476W        W57259   8.671  12.489  14.911
90477W        W57260  21.188  18.431  13.093
90478W        W57261  38.869  19.729  12.371
90479W        W57262  42.087   2.287  13.488
90480W        W57263   3.845  40.268   2.561
90481W        W57264  41.915  24.381  11.863
90482W        W57265  23.061  12.433   3.207
90483W        W57266   3.287  38.975   1.845
90484W        W57267  25.324  15.617   4.714
90485W        W57268  42.512   9.392  13.880
90486W        W57269  14.324  32.670  13.691
90487W        W57270  29.886  15.062   1.444
90488W        W57271  10.736  31.379  14.456
90489W        W57272  39.944  30.989  11.066
90490W        W57273  25.659   5.105  12.693
90491W        W57274   7.925  13.864   2.764
90492W        W57275  12.104  25.138   1.229
90493W        W57276  19.423  37.459  12.032
90494W        W57277  30.403  14.490  12.957
90495W        W57278  30.430   5.807   4.622
90496W        W57279  40.886  13.282  12.385
90497W        W57280   1.438  33.492   1.583
90498W        W57281  20.887  14.647   2.148
90499W        W57282  14.724   6.882  11.674
90500W        W57283  15.197  19.584  11.996
90501W        W57284  34.790  34.573  14.746
90502W        W57285  10.828  19.320  12.068
90503W        W57286  24.447  14.565   3.324
90504W        W57287  17.715  37.360  11.070
90505W        W57288  43.813  25.243   0.310
90506W        W57289   9.149  12.066   0.305
90507W        W57290  13.937   7.157   4.242
90508W        W57291  32.650  35.930   3.249
90509W        W57292  31.949  32.095   0.839
90510W        W57293  38.652  19.180  13.870
90511W        W57294   7.122  29.724   0.058
90512W        W57295   8.617  13.807  14.859
90513W        W57296  41.369  20.152   1.786
90514W        W57297  33.373  19.028  11.686
90515W        W57298  29.665  29.755   2.396
90516W        W57299  17.313  20.779   3.222
90517W        W57300  20.852  26.640   1.241
90518W        W57301  41.432   2.684  10.491
90519W        W57302  15.823  36.354   2.366
90520W        W57303  44.542  22.704   4.242
90521W        W57304  16.754  22.251   3.676
90522W        W57305  17.251  31.863   0.833
90523W        W57306  15.504  21.159   2.346
90524W        W57307  18.731  22.782   1.192
90525W        W57308  19.729   1.686   2.352
90526W        W57309  26.672  41.971  12.926
90527W        W57310  14.848  39.357  12.004
90528W        W57311  13.874  32.606  14.574
90529W        W57312  19.784  19.184   1.434
90530W        W57313  42.413  18.290   4.209
90531W        W57314  30.528  17.200  12.805
90532W        W57315  21.824   8.467   1.392
90533W        W57316  35.800   0.270   4.511
90534W        W57317  25.419  18.137   2.636
90535W        W57318   1.468  33.892  14.968
90536W        W57319   8.311   4.711  13.901
90537W        W57320  39.635  31.815   4.162
90538W        W57321   8.232   3.982  11.647
90539W        W57322  20.534  11.405   4.176
90540W        W57323  22.542  42.597  12.070
90541W        W57324  34.502  23.080  13.307
90542W        W57325   4.922  40.654   3.281
90543W        W57326  35.488  18.638  14.388
90544W        W57327  29.686  33.380  12.515
90545W        W57328  39.705  26.062   1.778
90546W        W57329   8.617  22.199  10.730
90547W        W57330  28.035   2.926   1.839
90548W        W57331  36.687  27.525   3.937
90549W        W57332   8.846  13.550  12.862
90550W        W57333  26.300  31.526  11.896
90551W        W57334   8.385  11.154  10.655
90552W        W57335  26.562  42.523   1.649
90553W        W57336  43.640  33.960  14.872
90554W        W57337  21.978   7.320  13.097
90555W        W57338   2.937   6.212  11.687
90556W        W57339  15.533  41.672   2.787
90557W        W57340  36.453   5.447   1.646
90558W        W57341  19.694  25.036   3.339
90559W        W57342  44.003  14.205  14.328
90560W        W57343  44.888  36.486   4.761
90561W        W57344  21.731  15.689  14.376
90562W        W57345  25.739  18.179   4.172
90563W        W57346  35.377  30.477  11.163
90564W        W57347  36.595  20.320   1.603
90565W        W57348  16.305  42.954   2.757
90566W        W57349  16.407  34.826  11.558
90567W        W57350  27.915  36.162   2.833
90568W        W57351   5.275  35.534   0.987
90569W        W57352  31.629  41.559  13.952
90570W        W57353  12.846  17.982  12.535
90571W        W57354  39.499  27.582   0.099
90572W        W57355  25.879  12.322   1.339
90573W        W57356  38.064  30.983  11.525
90574W        W57357  16.763  30.588   3.295
90575W        W57358   5.200  15.801   0.005
90576W        W57359  17.744  13.022   1.846
90577W        W57360  17.833   3.712   3.400
90578W        W57361   8.760  20.928   2.387
90579W        W57362  37.156   8.841  10.684
90580W        W57363  35.537   8.305  14.617
90581W        W57364  34.375  15.210  13.254
90582W        W57365  16.198  41.144   4.804
90583W        W57366  11.926   9.309   1.251
90584W        W57367  31.020  21.968  14.327
90585W        W57368   0.764  36.776  14.399
90586W        W57369   6.089  43.899  10.664
90587W        W57370  25.960  29.495  11.023
90588W        W57371  15.864  27.480   2.740
90589W        W57372  24.561  37.454  10.163
90590W        W57373  38.857  33.992   0.979
90591W        W57374  18.658  32.574   1.010
90592W        W57375  16.521  12.151   0.298
90593W        W57376  44.497  21.693  11.085
90594W        W57377   4.191  10.986  14.304
90595W        W57378   3.918  29.517  12.807
90596W        W57379  10.415  37.446  12.323
90597W        W57380  26.021  33.082   4.098
90598W        W57381  41.497   4.489  10.632
90599W        W57382  39.796  27.684  11.303
90600W        W57383  18.368   6.217  11.592
90601W        W57384  36.552  41.408  12.916
90602W        W57385   3.740  32.226   0.418
90603W        W57386   1.897   3.736   4.591
90604W        W57387  32.785  20.003  13.409
90605W        W57388  10.333  23.692   0.738
90606W        W57389  11.078  10.448  12.004
90607W        W57390  16.584  15.814   0.384
90608W        W57391   6.892  41.403   1.013
90609W        W57392   8.896  27.068   2.920
90610W        W57393   7.912  19.288  11.974
90611W        W57394  29.946   1.424  13.033
90612W        W57395  27.726  30.615   2.770
90613W        W57396  37.085  10.790  14.874
90614W        W57397  22.231  31.494   4.766
90615W        W57398  10.047  44.309   0.863
90616W        W57399   1.966  18.319  14.931
90617W        W57400  26.434  42.752  12.408
90618W        W57401  27.041  43.268   4.608
90619W        W57402  10.505   2.411   0.722
90620W        W57403  31.805  35.970  13.794
90621W        W57404   5.946   1.353   3.634
90622W        W57405  12.978  22.196   4.615
90623W        W57406  20.384  39.283  10.855
90624W        W57407   1.866   5.906  13.363
90625W        W57408  34.504  42.520  12.561
90626W        W57409  25.738  37.913  13.059
90627W        W57410  28.029  10.623  10.273
90628W        W57411  44.446  22.368  13.300
90629W        W57412  41.764  44.006   3.033
90630W        W57413  11.196  23.013  12.979
90631W        W57414   6.062  22.699  11.954
90632W        W57415  44.330   2.437   0.476
90633W        W57416  25.998  10.418   0.294
90634W        W57417  25.553  19.692  12.040
90635W        W57418  13.399   9.661   3.628
90636W        W57419  36.455  23.848  12.856
90637W        W57420  25.937   4.901  14.962
90638W        W57421  38.551  25.298   0.232
90639W        W57422  20.538  30.655   0.828
90640W        W57423  43.375   6.804  11.166
90641W        W57424  21.387   4.501   4.055
90642W        W57425  17.429   4.402  14.942
90643W        W57426  13.886  16.758  11.753
90644W        W57427  29.580  32.513  14.294
90645W        W57428   0.291  18.345   3.202
90646W        W57429  33.395   0.192  12.758
90647W        W57430  19.195   2.421  10.218
90648W        W57431   7.941  27.601   1.797
90649W        W57432  26.110  39.827   2.762
90650W        W57433  23.915   4.143  12.961
90651W        W57434  23.045   2.237  12.392
90652W        W57435  33.561  28.577   2.629
90653W        W57436  10.864   5.325  10.596
90654W        W57437   6.958  40.835   4.026
90655W        W57438  43.632  16.059   0.445
90656W        W57439  34.054  40.991  12.448
90657W        W57440   6.126  44.296   2.821
90658W        W57441   6.811  21.514   3.883
90659W        W57442  19.566  18.090   5.039
90660W        W57443  16.804  27.568   1.437
90661W        W57444  20.841  10.887   1.778
90662W        W57445  29.653  37.411   3.688
90663W        W57446  19.881  28.959   0.877
90664W        W57447  20.277   1.780  10.680
90665W        W57448  32.330  11.625   0.331
90666W        W57449  40.975  20.663   0.678
90667W        W57450  10.802  38.513   2.681
90668W        W57451  41.930  32.849  11.009
90669W        W57452   3.266  10.412  14.869
90670W        W57453  41.406  22.475   0.234
90671W        W57454  20.824   8.385  11.229
90672W        W57455  41.392  24.650   1.743
90673W        W57456   6.210  29.906  12.039
90674W        W57457  43.316  43.604  11.501
90675W        W57458  14.695  38.626  11.055
90676W        W57459  14.217  22.746  11.999
90677W        W57460   7.148  16.209   0.430
90678W        W57461  33.551  32.590   3.135
90679W        W57462  39.350  15.619   0.316
90680W        W57463  24.960   3.332   3.280
90681W        W57464   2.962  11.429   4.039
90682W        W57465   6.680   5.846  13.464
90683W        W57466  30.028   7.104   4.212
90684W        W57467  22.016  11.280   2.239
90685W        W57468  42.149   5.775   4.188
90686W        W57469  28.675  36.680  13.488
90687W        W57470  18.511  26.515   1.553
90688W        W57471  35.494  44.775   0.901
90689W        W57472   6.881  38.792  14.671
90690W        W57473   0.311  29.852  11.287
90691W        W57474  26.713   0.893   0.755
90692W        W57475  14.717  24.129  13.593
90693W        W57476  13.683  11.800   3.239
90694W        W57477   2.843  26.084   1.668
90695W        W57478   1.032  38.262   0.767
90696W        W57479  28.943  22.606   4.380
90697W        W57480  39.345  30.623   0.872
90698W        W57481   9.270   3.403  12.632
90699W        W57482  25.706  36.381   4.841
90700W        W57483  27.102  16.879   1.771
90701W        W57484  42.328  33.243   0.235
90702W        W57485   7.179   5.225  11.749
90703W        W57486   7.163  19.556  10.662
90704W        W57487  27.877  23.741  11.493
90705W        W57488   2.353  14.418   0.925
90706W        W57489  36.524  25.526   2.197
90707W        W57490  23.459  42.756  13.537
90708W        W57491  20.366  20.689   0.996
90709W        W57492  34.481  38.450   2.093
90710W        W57493  15.908  43.975  14.411
90711W        W57494  19.298  21.912   3.964
90712W        W57495  31.921   0.025   2.061
90713W        W57496  33.552  33.133  12.380
90714W        W57497  18.677  17.251  11.361
90715W        W57498  44.237  20.045   3.381
90716W        W57499  34.043  43.663  13.133
90717W        W57500  21.010  12.548  14.948
90718W        W57501  41.464   2.999  10.887
90719W        W57502   7.408  15.955   2.750
90720W        W57503   8.884  24.049   0.746
90721W        W57504  18.978  17.769  14.062
90722W        W57505   6.476  35.397  14.899
90723W        W57506  20.782   2.374   4.293
90724W        W57507  25.094  44.442   2.633
90725W        W57508  31.920  32.422   4.212
90726W        W57509  26.437  12.923  14.558
90727W        W57510  27.031  14.651  14.813
90728W        W57511  31.864   8.330   0.885
90729W        W57512  38.609  34.071  12.941
90730W        W57513  35.006  21.110   3.706
90731W        W57514  44.277  31.142   1.586
90732W        W57515   4.295  11.456   4.917
90733W        W57516  21.566  21.061  12.170
90734W        W57517  19.687  24.581  11.995
90735W        W57518   8.420  17.205  11.229
90736W        W57519  13.656   6.921   0.333
90737W        W57520  29.635  23.721  14.798
90738W        W57521  36.056   8.853   3.257
90739W        W57522  18.610  14.175   0.604
90740W        W57523  41.487  40.380   4.562
90741W        W57524  34.939  17.669  10.495
90742W        W57525  28.990   8.280   2.738
90743W        W57526  18.111   7.066  14.014
90744W        W57527   5.804  39.480   1.890
90745W        W57528  18.667  33.074   2.768
90746W        W57529  12.812   6.406  13.431
90747W        W57530  12.802  37.270  12.060
90748W        W57531  32.432   2.831  11.574
90749W        W57532  29.580  35.768   0.435
90750W        W57533  18.099   0.423   4.036
90751W        W57534  17.700  35.962   1.282
90752W        W57535  16.292   7.407   4.550
90753W        W57536   0.214  41.530   0.463
90754W        W57537   7.867  22.295   2.199
90755W        W57538  24.288  23.316   1.955
90756W        W57539  12.537  43.237  10.761
90757W        W57540  20.251  15.308   1.833
90758W        W57541  12.882  41.657  12.425
90759W        W57542   0.381   2.738   0.782
90760W        W57543  26.823  14.724  11.100
90761W        W57544  39.525  29.212   3.880
90762W        W57545   0.559  23.779   3.239
90763W        W57546  30.580   6.107   1.274
90764W        W57547   9.271  28.557  13.777
90765W        W57548  36.156  24.278  10.761
90766W        W57549  31.856  10.427  12.628
90767W        W57550  17.506   3.840  13.979
90768W        W57551  21.198  43.313  11.086
90769W        W57552  44.261  24.649  13.430
90770W        W57553  25.466  38.498  11.528
90771W        W57554  36.635  37.982  11.491
90772W        W57555  30.182  44.759  12.349
90773W        W57556  36.996  33.938  11.965
90774W        W57557  27.559   8.183   2.159
90775W        W57558  30.528   9.428   0.910
90776W        W57559   7.199   2.203  12.378
90777W        W57560   6.092  18.966  13.989
90778W        W57561   8.414   4.843  10.715
90779W        W57562  24.199  30.156  14.579
90780W        W57563   0.260  42.082  14.739
90781W        W57564  16.585  28.130   3.603
90782W        W57565  12.345  29.832  12.708
90783W        W57566  15.697  31.065  12.636
90784W        W57567  42.252  41.806   3.824
90785W        W57568  14.006   0.559  11.113
90786W        W57569  29.569  42.270   1.588
90787W        W57570  23.069  30.448  14.886
90788W        W57571  37.400  23.834  13.620
90789W        W57572  24.856  40.248   3.816
90790W        W57573   7.077  29.731   4.391
90791W        W57574  30.061  22.164  13.391
90792W        W57575  23.000  24.833   5.194
90793W        W57576  43.545  17.776   2.429
90794W        W57577  38.940  40.766   4.058
90795W        W57578  20.514   3.703   1.343
90796W        W57579  17.353   3.662  14.448
90797W        W57580  42.018   5.876  11.614
90798W        W57581  38.775   8.238   0.387
90799W        W57582  40.384  11.161   2.327
90800W        W57583  17.270  36.844   1.507
90801W        W57584  32.912   4.662   0.586
90802W        W57585  11.150  20.784   1.365
90803W        W57586  13.109   4.890   4.038
90804W        W57587  39.904  23.215  10.705
90805W        W57588  32.900  18.718  11.593
90806W        W57589  15.069  17.108  14.515
90807W        W57590   4.777  16.709  12.165
90808W        W57591  24.329   5.903   3.247
90809W        W57592   3.934  17.052  11.779
90810W        W57593  31.150  39.355   3.196
90811W        W57594  31.158   7.337  10.576
90812W        W57595  21.194  25.956  14.355
90813W        W57596  25.035  29.957   0.429
90814W        W57597  19.082  18.728   3.748
90815W        W57598  25.839  15.188  14.946
90816W        W57599  22.544  11.742  10.519
90817W        W57600  19.339  11.442  11.213
90818W        W57601  13.678  42.054  12.040
90819W        W57602   7.189   6.674   0.334
90820W        W57603  16.566   4.908  13.027
90821W        W57604  19.552   9.173   4.628
90822W        W57605  37.556   4.784  11.572
90823W        W57606  33.478  43.647  13.720
90824W        W57607  20.550  16.807  13.303
90825W        W57608  15.895  36.739  13.414
90826W        W57609  35.014  30.094  14.923
90827W        W57610  28.574  21.470   0.048
90828W        W57611  18.233  41.520   4.557
90829W        W57612  36.942  44.868  12.922
90830W        W57613   3.186  20.135   1.826
90831W        W57614  42.612  31.418  11.222
90832W        W57615  44.714   7.146  14.365
90833W        W57616  30.524   0.935   4.089
90834W        W57617  28.654  10.190   2.999
90835W        W57618  30.614   0.312  11.991
90836W        W57619   2.248  10.057  12.088
90837W        W57620  42.251  24.148  13.973
90838W        W57621  14.942  42.197  14.929
90839W        W57622  32.304  23.731   0.514
90840W        W57623  44.333  35.717   9.985
90841W        W57624  37.457  42.887   3.189
90842W        W57625  14.835  25.324   0.030
90843W        W57626  13.007  26.105  11.998
90844W        W57627   0.312  12.463  11.621
90845W        W57628  10.369  32.882  11.569
90846W        W57629   3.038  16.871   1.487
90847W        W57630  26.259   1.918   0.336
90848W        W57631  38.020  17.710  10.597
90849W        W57632  12.263  33.423  10.571
90850W        W57633  13.668  26.194   3.617
90851W        W57634  29.909   3.252  14.999
90852W        W57635  34.445  42.216   1.787
90853W        W57636  34.633  12.812   0.740
90854W        W57637  30.255  41.155  10.343
90855W        W57638  28.960  30.319   3.780
90856W        W57639  13.927  40.043  14.396
90857W        W57640  43.936  37.767   2.993
90858W        W57641  20.995   3.887  10.230
90859W        W57642  40.621   9.078   4.609
90860W        W57643  41.321  17.036  12.964
90861W        W57644   8.134  24.779   0.884
90862W        W57645  19.759   2.272  13.313
90863W        W57646  44.111  37.020   0.935
90864W        W57647   4.213   2.939   0.071
90865W        W57648   3.339  22.288  12.518
90866W        W57649  28.717  26.888   2.344
90867W        W57650  41.285  24.914   3.590
90868W        W57651  30.160  26.622   0.790
90869W        W57652  19.072  34.062   0.239
90870W        W57653  35.289  18.661   1.501
90871W        W57654  30.898   1.561   4.637
90872W        W57655  40.110   9.141   4.554
90873W        W57656  44.467  28.226  13.695
90874W        W57657  36.702  16.039  12.830
90875W        W57658  44.652  38.502   3.328
90876W        W57659  26.757  17.003   4.648
90877W        W57660   1.689   8.217  12.063
90878W        W57661  31.099  34.263  14.359
90879W        W57662   9.170  41.049   4.672
90880W        W57663  29.478  14.575   0.668
90881W        W57664  37.089  26.243  12.891
90882W        W57665  15.181   5.118  14.972
90883W        W57666  42.229  43.453  13.476
90884W        W57667   9.054   1.173   2.691
90885W        W57668  26.300  15.316  11.728
90886W        W57669  34.070   3.927  12.647
90887W        W57670  17.372   4.581  11.217
90888W        W57671  11.206   2.555  14.424
90889W        W57672   1.750  40.021   2.901
90890W        W57673  16.675   5.207   3.273
90891W        W57674  36.116  34.001  11.765
90892W        W57675  27.364  41.874  12.004
90893W        W57676  34.772  15.780  12.525
90894W        W57677   0.998  12.329  14.572
90895W        W57678  15.233  39.538  12.361
90896W        W57679  21.748  26.563  12.493
90897W        W57680   6.938   1.656   4.492
90898W        W57681   1.695  42.437  13.951
90899W        W57682  43.262  25.128   1.423
90900W        W57683  39.742  44.378   2.278
90901W        W57684  44.789  29.275  10.283
90902W        W57685  33.420  38.295  10.846
90903W        W57686   8.267   8.948  12.881
90904W        W57687  14.214   8.646   2.499
90905W        W57688  13.347  21.130  14.133
90906W        W57689  37.873   3.708   1.808
90907W        W57690  40.020  22.332  14.826
90908W        W57691  16.959  11.382  13.497
90909W        W57692  38.428  10.119   4.942
90910W        W57693  37.832  43.732  13.416
90911W        W57694  27.108   0.735  10.697
90912W        W57695  38.677   6.414   0.751
90913W        W57696  41.267  35.525  14.369
90914W        W57697  15.288  42.923   0.399
90915W        W57698  21.477  35.144  10.968
90916W        W57699   5.127  21.034   0.094
90917W        W57700  22.689  26.030  13.005
90918W        W57701  32.555  25.139  11.966
90919W        W57702  33.527  37.574   4.050
90920W        W57703   0.487  16.545  12.612
90921W        W57704  27.465  12.359   1.379
90922W        W57705  32.539  28.493  12.595
90923W        W57706   8.443  18.509   3.210
90924W        W57707  14.333   8.007   9.610
90925W        W57708  32.387  42.512   3.420
90926W        W57709  41.562  44.421  13.607
90927W        W57710  14.610   4.341   1.782
90928W        W57711  10.113  24.997   2.934
90929W        W57712  27.131  41.854   1.786
90930W        W57713  15.074   8.594  14.018
90931W        W57714  29.285  42.005   4.305
90932W        W57715   6.095   3.879   2.473
90933W        W57716  27.078  28.990   3.281
90934W        W57717   9.273  37.440   2.049
90935W        W57718  11.173  18.434  12.102
90936W        W57719  10.712   8.945  14.697
90937W        W57720  44.510  44.055   3.266
90938W        W57721  25.835  40.285   2.622
90939W        W57722  43.454  13.863  11.930
90940W        W57723  19.547  12.570   2.895
90941W        W57724  12.103  10.048  10.697
90942W        W57725   2.250   9.846   4.349
90943W        W57726  25.262   3.254   1.926
90944W        W57727  25.168  37.927  13.814
90945W        W57728  34.025  43.624   2.557
90946W        W57729  44.535  11.155  11.567
90947W        W57730  16.635   0.990   0.383
90948W        W57731  10.859  43.404   2.320
90949W        W57732  10.583  32.546  13.757
90950W        W57733  24.062  20.788   4.897
90951W        W57734  17.463  29.640   4.739
90952W        W57735  23.977  23.572  13.032
90953W        W57736  23.345  39.939  10.849
90954W        W57737  22.732   1.189  10.636
90955W        W57738   0.774  26.011   0.870
90956W        W57739   5.669  25.043   2.578
90957W        W57740  17.105  44.730  11.459
90958W        W57741  15.126  13.017   0.924
90959W        W57742  35.051  43.757  10.535
90960W        W57743  44.240  32.845  12.473
90961W        W57744  38.103  37.793  10.975
90962W        W57745  36.325  44.085   1.171
90963W        W57746  42.809  30.701  12.422
90964W        W57747  20.498  28.087  12.479
90965W        W57748   5.727   6.027   0.776
90966W        W57749   3.778  16.111  13.482
90967W        W57750  44.414  27.406   4.095
90968W        W57751  36.479  11.992   3.525
90969W        W57752  24.349   6.296  13.736
90970W        W57753   0.383  13.244   5.002
90971W        W57754   6.872  34.084   0.887
90972W        W57755  39.313  32.788   4.108
90973W        W57756  34.938  32.142   1.970
90974W        W57757   6.736  43.571   3.140
90975W        W57758  24.529   0.983  12.051
90976W        W57759  11.810  43.167   4.497
90977W        W57760  13.181  43.901  13.110
90978W        W57761  40.039  41.682   1.828
90979W        W57762  43.622  23.219   3.117
90980W        W57763  33.275  32.594   0.778
90981W        W57764  14.669  39.430  14.953
90982W        W57765  43.821  37.479   2.165
90983W        W57766  38.814  12.101  12.841
90984W        W57767  24.292  24.349  13.521
90985W        W57768  36.023  39.278  11.093
90986W        W57769  43.045  41.610  13.999
90987W        W57770  37.437  12.458   2.593
90988W        W57771  21.546  31.265   0.145
90989W        W57772  29.615  14.599  11.712
90990W        W57773  37.566   0.808   1.060
90991W        W57774  21.085  10.420   1.888
90992W        W57775  19.817  17.587   1.935
90993W        W57776   7.812  43.510  13.039
90994W        W57777   1.451  32.075  11.718
90995W        W57778  13.807  10.599  12.422
90996W        W57779  40.725  21.670   1.068
90997W        W57780   2.527   0.711  11.423
90998W        W57781  28.000  35.983  13.544
90999W        W57782  13.918  29.946   4.200
91000W        W57783   4.443  33.308  12.390
91001W        W57784  16.908  25.016  11.086
91002W        W57785  34.301  11.381   1.575
91003W        W57786  43.260  20.998  14.514
91004W        W57787   1.559  19.604   4.571
91005W        W57788  18.263   6.029   1.829
91006W        W57789  12.754   7.163   5.451
91007W        W57790  12.934  41.511  11.935
91008W        W57791   5.929  26.404   2.422
91009W        W57792  27.670   5.959   3.915
91010W        W57793  18.988   1.403   1.414
91011W        W57794  43.783  30.898   0.680
91012W        W57795  15.842  44.968  12.283
91013W        W57796   1.911  32.134   0.765
91014W        W57797   3.850   5.727   0.434
91015W        W57798  15.820  28.961  14.073
91016W        W57799  20.296   5.309   2.639
91017W        W57800  11.524  35.962   2.587
91018W        W57801  28.394  38.373   1.683
91019W        W57802  19.669  12.506  11.022
91020W        W57803  26.255  16.998  13.495
91021W        W57804   4.695  22.814   4.065
91022W        W57805  34.114  26.038  11.568
91023W        W57806  24.174  30.470   4.515
91024W        W57807  12.149  11.868   4.060
91025W        W57808   2.749  31.318   0.851
91026W        W57809  35.163  37.391  10.764
91027W        W57810   5.844  34.720  12.598
91028W        W57811  10.457  11.839   2.915
91029W        W57812  10.740  44.713   1.610
91030W        W57813  41.799  22.144   0.429
91031W        W57814   0.259  36.055   0.401
91032W        W57815  19.564  19.728   2.226
91033W        W57816   8.706  17.147   3.874
91034W        W57817  21.995  21.436  13.039
91035W        W57818  34.017   5.415   3.785
91036W        W57819  13.151  11.520  10.815
91037W        W57820  22.127  39.371   3.753
91038W        W57821   5.454  30.774   5.089
91039W        W57822  28.585   1.838  14.158
91040W        W57823  18.255  44.282  12.796
91041W        W57824   2.364  10.343  12.518
91042W        W57825  10.620  29.066   4.631
91043W        W57826  30.232  43.399  13.957
91044W        W57827  11.947   7.533   2.950
91045W        W57828  28.629  24.795  12.608
91046W        W57829  44.897  11.306  11.058
91047W        W57830   2.308  14.951  10.684
91048W        W57831  21.103  14.756  12.920
91049W        W57832  28.861  42.775   4.311
91050W        W57833  37.962  21.264   1.935
91051W        W57834   7.886   6.963  10.850
91052W        W57835   6.598   7.638  13.761
91053W        W57836   1.985  32.921   3.091
91054W        W57837  27.931  24.872   2.481
91055W        W57838   6.222  13.159  13.432
91056W        W57839  16.280  18.204   3.698
91057W        W57840   3.654   4.195   2.867
91058W        W57841  30.996  36.461   1.885
91059W        W57842   5.719  25.600   3.208
91060W        W57843  11.637  14.065   0.902
91061W        W57844  42.772  12.525   4.468
91062W        W57845  15.100  15.367  11.171
91063W        W57846   6.694   3.615   4.250
91064W        W57847   4.563  17.284   1.771
91065W        W57848   2.972  29.192   1.511
91066W        W57849  29.911  17.185  11.279
91067W        W57850  30.413  43.875   1.916
91068W        W57851   2.264  14.899   0.805
91069W        W57852   6.227  27.601  12.871
91070W        W57853  42.773  16.825  13.891
91071W        W57854  42.711  36.777   1.195
91072W        W57855   1.778  37.244   4.150
91073W        W57856  29.513  13.449   1.463
91074W        W57857  42.206  35.383  10.851
91075W        W57858   3.832  40.795   2.320
91076W        W57859   0.536  30.644  13.341
91077W        W57860  34.845  32.075   2.795
91078W        W57861   1.825  31.009   4.234
91079W        W57862  10.677  16.155   3.103
91080W        W57863  16.326  24.546   0.680
91081W        W57864  11.978  15.296   2.230
91082W        W57865  21.189  44.955   2.312
91083W        W57866  10.196  11.844  12.819
91084W        W57867  26.188   5.533   0.214
91085W        W57868  31.718   5.464  13.244
91086W        W57869  25.028  38.298   1.383
91087W        W57870  44.750   5.057   2.290
91088W        W57871  26.233  22.070   2.219
91089W        W57872  35.834   7.667   1.334
91090W        W57873   8.244  35.166  10.674
91091W        W57874  35.386  24.132   2.935
91092W        W57875  32.602   4.869   4.506
91093W        W57876  44.436  38.112  14.339
91094W        W57877  10.780   0.332   3.804
91095W        W57878   1.289  13.082   0.219
91096W        W57879  13.691   4.455  12.832
91097W        W57880  44.914  19.320  13.495
91098W        W57881   7.256  36.826   0.822
91099W        W57882  11.583  11.915   3.251
91100W        W57883   5.518  44.180   4.418
91101W        W57884  30.077  42.586   4.152
91102W        W57885  41.160  26.962  11.516
91103W        W57886  43.413  39.040   4.574
91104W        W57887  22.226   0.807   5.439
91105W        W57888  35.969  21.096   2.224
91106W        W57889  42.223  18.125   2.341
91107W        W57890  32.911   6.083   1.810
91108W        W57891  26.345   5.021   0.904
91109W        W57892  18.293  29.549  10.719
91110W        W57893  23.374  43.464   3.046
91111W        W57894  42.504  21.000  11.593
91112W        W57895  26.944  10.145  11.832
91113W        W57896  22.624  28.251  12.580
91114W        W57897  40.992  22.848  11.803
91115W        W57898  11.346  27.204  14.945
91116W        W57899  20.654  39.271  13.769
91117W        W57900  28.551   1.807  11.915
91118W        W57901   4.821   1.685   4.089
91119W        W57902  16.528  17.766   0.188
91120W        W57903  11.658  31.916   1.952
91121W        W57904  18.356  21.475  12.341
91122W        W57905  18.121   4.924   3.178
91123W        W57906  11.655  37.314   2.198
91124W        W57907   3.260   1.126  13.935
91125W        W57908  38.603   3.992   1.608
91126W        W57909  37.863   5.454   2.666
91127W        W57910  15.894  37.005   3.589
91128W        W57911  38.432   9.217   2.248
91129W        W57912  33.083   9.409  10.714
91130W        W57913  14.690  32.955   2.014
91131W        W57914  38.101  28.470   4.826
91132W        W57915  11.926  30.300   2.833
91133W        W57916  41.080  32.412  12.021
91134W        W57917  13.136   1.996   2.363
91135W        W57918  28.547  28.069   2.584
91136W        W57919   5.781  29.195  13.322
91137W        W57920   2.013  25.626   1.977
91138W        W57921  33.530  41.856   3.079
91139W        W57922  13.980  31.537   3.664
91140W        W57923   5.947   3.833  13.453
91141W        W57924  44.371  13.896   9.976
91142W        W57925  28.468   4.935   0.844
91143W        W57926  40.807  36.043  11.607
91144W        W57927  23.547   7.615   3.295
91145W        W57928  38.433  26.182   1.661
91146W        W57929  33.786  38.386  12.488
91147W        W57930   6.866  12.342   3.750
91148W        W57931  40.135  30.715  14.032
91149W        W57932  26.091  30.997   0.838
91150W        W57933  15.076  34.159   5.042
91151W        W57934   9.948  42.476   0.489
91152W        W57935  28.196  30.578   2.564
91153W        W57936  18.597  25.514   1.756
91154W        W57937   1.411  21.412   2.258
91155W        W57938  16.324  13.763   1.666
91156W        W57939  17.386  28.054   1.393
91157W        W57940  21.092   5.881  11.206
91158W        W57941   1.353   5.880  13.394
91159W        W57942  32.284  28.455  10.751
91160W        W57943  34.903  15.089   4.070
91161W        W57944  41.880  40.365   1.563
91162W        W57945  27.197  31.628   4.675
91163W        W57946  35.554  39.991   4.564
91164W        W57947  10.187  23.452   2.232
91165W        W57948  29.443   4.905   3.594
91166W        W57949   5.673  35.504   2.411
91167W        W57950   9.079  19.418   0.255
91168W        W57951  38.044  38.809   2.812
91169W        W57952   8.422  36.051   2.768
91170W        W57953  44.690  13.125  12.051
91171W        W57954  14.218   1.231   0.082
91172W        W57955  25.426  25.597  11.168
91173W        W57956   5.483  42.200   3.314
91174W        W57957  24.215  18.165   2.400
91175W        W57958  32.055  17.181  14.818
91176W        W57959  28.884  19.725  14.518
91177W        W57960  34.824  42.922   4.515
91178W        W57961  21.996  38.233  14.340
91179W        W57962  40.885  31.054   2.119
91180W        W57963  27.177   7.818   0.491
91181W        W57964  23.587   9.222  13.839
91182W        W57965  16.110  15.907   5.043
91183W        W57966  19.512  28.862  11.653
91184W        W57967  22.439  24.677  14.798
91185W        W57968  38.715  36.635   0.427
91186W        W57969  26.611  29.447   3.226
91187W        W57970  17.539  19.659   0.065
91188W        W57971   5.757   9.508  12.088
91189W        W57972   7.614  30.639   3.626
91190W        W57973  19.130   8.445   1.229
91191W        W57974  16.594  29.569   4.314
91192W        W57975  39.207  38.736   2.207
91193W        W57976  39.746   7.015  13.841
91194W        W57977   2.154  32.066   0.303
91195W        W57978  35.429   1.290  14.024
91196W        W57979  27.218  30.022   4.515
91197W        W57980   0.379  42.473   4.754
91198W        W57981  14.827  35.818   2.896
91199W        W57982  44.408  15.304  10.636
91200W        W57983  39.053  23.422   4.610
91201W        W57984  14.342  36.194  13.916
91202W        W57985  35.049   5.523  11.046
91203W        W57986   9.223   8.189   2.354
91204W        W57987   2.345   2.376  10.617
91205W        W57988   2.454   8.864   1.161
91206W        W57989   7.317   7.720   4.384
91207W        W57990   6.113  32.038   2.664
91208W        W57991   3.896  37.320  13.140
91209W        W57992  17.824  20.683   3.183
91210W        W57993   2.298  40.951  11.170
91211W        W57994  34.806   7.717  13.206
91212W        W57995  12.857  20.415   1.907
91213W        W57996  26.140  31.622   4.127
91214W        W57997   0.538  38.357   3.635
91215W        W57998  33.372   6.055  12.846
91216W        W57999  24.800  43.533  13.174
91217W        W58000  10.909   4.448  14.436
91218W        W58001   5.114   2.311  14.466
91219W        W58002   4.178  39.322  13.491
91220W        W58003  43.967  25.609  10.565
91221W        W58004  21.286  28.332  11.952
91222W        W58005  44.311  19.848   1.847
91223W        W58006  24.627  35.674  14.338
91224W        W58007  25.174   8.026  11.643
91225W        W58008  21.091  15.272  11.572
91226W        W58009   7.466  39.356  13.892
91227W        W58010  13.178  39.518   1.009
91228W        W58011  20.732  37.090   1.893
91229W        W58012  39.747   3.516  13.819
91230W        W58013  42.126  36.054  10.313
91231W        W58014   6.689   7.776   0.672
91232W        W58015   0.848   9.669   1.350
91233W        W58016  44.210  17.208  14.253
91234W        W58017  26.676   6.213  13.535
91235W        W58018  32.547  23.074   1.371
91236W        W58019  22.844  44.517  11.941
91237W        W58020  43.527   4.100   2.626
91238W        W58021  44.995  29.511   2.141
91239W        W58022  33.580  18.581   4.522
91240W        W58023  17.318  31.942  12.209
91241W        W58024  42.939  25.964  14.410
91242W        W58025  42.259  24.267   3.400
91243W        W58026  22.038  27.931   1.797
91244W        W58027  16.167  28.127   1.622
91245W        W58028  21.269  43.843   1.243
91246W        W58029  13.282   4.649   2.777
91247W        W58030  11.401  18.796   4.626
91248W        W58031  41.521  12.296  14.029
91249W        W58032  34.032  21.139  12.930
91250W        W58033  25.564  25.733   2.106
91251W        W58034  35.193  39.798  13.858
91252W        W58035  18.517   3.238  13.448
91253W        W58036  20.529  17.028  11.572
91254W        W58037   0.794  38.744  14.347
91255W        W58038  24.195   9.044  11.512
91256W        W58039  33.125  34.092   2.459
91257W        W58040  10.348  40.953  11.626
91258W        W58041  44.374  20.524   3.242
91259W        W58042  28.112  26.558   3.601
91260W        W58043   3.294  14.339   4.035
91261W        W58044   1.795  17.440   3.085
91262W        W58045  25.847  33.106   0.108
91263W        W58046  32.375  19.954   0.618
91264W        W58047  17.434  13.836  11.103
91265W        W58048  33.945   2.791  14.832
91266W        W58049  35.361  21.754  11.680
91267W        W58050  19.869  42.493  12.500
91268W        W58051  12.590   0.589  13.008
91269W        W58052   8.896  42.882   2.743
91270W        W58053  22.218   5.545  11.747
91271W        W58054  30.439  44.274   2.700
91272W        W58055   2.021  31.544   0.266
91273W        W58056  21.292   9.337  12.524
91274W        W58057  14.306  16.286   0.032
91275W        W58058  44.765  16.478   5.539
91276W        W58059   6.335  14.343  14.026
91277W        W58060  27.144  26.741  12.319
91278W        W58061  32.913   3.484   1.008
91279W        W58062  21.161   1.048   4.602
91280W        W58063  16.592  15.794   4.134
91281W        W58064   3.330  27.623   2.799
91282W        W58065   1.736  44.905   2.149
91283W        W58066  20.072  14.614  13.286
91284W        W58067  44.780  24.112   0.408
91285W        W58068  36.073  34.609   4.206
91286W        W58069   3.423  15.328  10.701
91287W        W58070  10.280  18.007   0.424
91288W        W58071   3.874  26.557  10.629
91289W        W58072  36.843  37.883  14.767
91290W        W58073  19.428  10.834   3.625
91291W        W58074  30.478  27.376  14.869
91292W        W58075   6.700  10.911  10.703
91293W        W58076  27.929   5.591   4.352
91294W        W58077   8.284   5.160  13.406
91295W        W58078  41.447  23.549  13.917
91296W        W58079  26.723  22.569  12.989
91297W        W58080  41.662  44.793   2.365
91298W        W58081   4.198  32.572   3.102
91299W        W58082  33.575  30.487   4.247
91300W        W58083  15.061  27.012  14.885
91301W        W58084  42.981  41.765  14.498
91302W        W58085   0.866  13.830   0.440
91303W        W58086  19.602  23.236  12.569
91304W        W58087  42.814  40.776   1.303
91305W        W58088   9.816  31.054  10.686
91306W        W58089  20.577  18.254  14.432
91307W        W58090  37.464  24.218  12.909
91308W        W58091   1.855  12.203  11.124
91309W        W58092  28.449  35.973   2.157
91310W        W58093   5.675  33.397  10.215
91311W        W58094  37.138  22.798  13.703
91312W        W58095   5.032  37.600  12.026
91313W        W58096   3.451  24.927  11.066
91314W        W58097  25.053  11.665  14.475
91315W        W58098  32.257  38.396   3.445
91316W        W58099   6.681  23.120  10.616
91317W        W58100   3.230  24.979  13.153
91318W        W58101  36.065  22.426  14.912
91319W        W58102  11.350  34.161  12.066
91320W        W58103   5.716  31.156   1.970
91321W        W58104   3.936   5.912   4.417
91322W        W58105  14.599  11.461  12.951
91323W        W58106   1.942  21.986  13.991
91324W        W58107  42.029  25.447   0.905
91325W        W58108  23.735   7.430  11.658
91326W        W58109  39.088  33.532  10.990
91327W        W58110  16.265   3.146   4.659
91328W        W58111  18.083  42.048  13.441
91329W        W58112  30.401   3.282  12.502
91330W        W58113   6.406  21.597  13.534
91331W        W58114  43.886  23.356  10.744
91332W        W58115  39.957   2.727   2.896
91333W        W58116  19.483  22.149  12.963
91334W        W58117  43.702  35.855   2.326
91335W        W58118  38.917  33.526   1.253
91336W        W58119  11.659  28.009  11.980
91337W        W58120  20.099  10.458   4.375
91338W        W58121  30.514   3.985   3.716
91339W        W58122  34.357  29.481  12.668
91340W        W58123  26.744  44.901  13.952
91341W        W58124   7.754  34.982   1.295
91342W        W58125  23.379  23.973   3.269
91343W        W58126  31.172  27.735  12.763
91344W        W58127   7.083  22.970  14.402
91345W        W58128   9.051  25.069   4.116
91346W        W58129   5.795  21.998   1.628
91347W        W58130  13.752  35.127  10.692
91348W        W58131  16.832  44.235   2.104
91349W        W58132  15.101  21.251   0.264
91350W        W58133  29.629   8.742  11.200
91351W        W58134  10.866  26.188  12.441
91352W        W58135  39.188  12.534  11.990
91353W        W58136  23.117  34.397  10.844
91354W        W58137  37.964  10.597  13.894
91355W        W58138  30.036   3.991  13.558
91356W        W58139   8.872  10.754  12.998
91357W        W58140   0.529  12.514   4.621
91358W        W58141   6.443  20.770  11.376
91359W        W58142  35.944  40.900  13.924
91360W        W58143  19.712  43.774   0.312
91361W        W58144  38.424  42.836   1.235
91362W        W58145  11.131  20.696   2.892
91363W        W58146   9.038  24.421   1.851
91364W        W58147  39.106  18.229  14.471
91365W        W58148  18.771  28.163   3.155
91366W        W58149  36.537  41.656  14.744
91367W        W58150  21.432  41.092  14.524
91368W        W58151  10.727  42.187   0.864
91369W        W58152  43.980  11.673  12.936
91370W        W58153  43.668   5.679   2.676
91371W        W58154  18.563  11.636  11.676
91372W        W58155   1.262  11.880  14.541
91373W        W58156  13.691  34.705  11.438
91374W        W58157  14.175  26.032   0.038
91375W        W58158   6.351  41.210  12.521
91376W        W58159   3.967  43.797  12.640
91377W        W58160  33.497  27.667   1.854
91378W        W58161  18.249   1.281  13.407
91379W        W58162  44.680  42.456   0.383
91380W        W58163  30.958  14.337  11.684
91381W        W58164  14.595  41.898   2.694
91382W        W58165  11.260   8.749  11.719
91383W        W58166  12.075  27.238  10.655
91384W        W58167   6.643  23.211   0.719
91385W        W58168   8.852  25.613   1.611
91386W        W58169   3.860  38.781  10.776
91387W        W58170  39.581   4.903   2.263
91388W        W58171   7.204  13.612   1.666
91389W        W58172  20.123  18.985  10.679
91390W        W58173  28.485  40.234  11.884
91391W        W58174  21.142  43.050  11.539
91392W        W58175  17.874  39.766  12.402
91393W        W58176  29.888   3.960   0.328
91394W        W58177  28.105  41.121   3.571
91395W        W58178   5.251  22.188  13.894
91396W        W58179  35.337  31.012   4.060
91397W        W58180  34.392  26.153   4.266
91398W        W58181   3.027  29.432  12.538
91399W        W58182  39.484  12.534  10.685
91400W        W58183  26.562  15.670   2.644
91401W        W58184  25.121   1.256  11.658
91402W        W58185   1.243  35.660   3.452
91403W        W58186  24.192  26.762  10.859
91404W        W58187  28.542  28.856  10.563
91405W        W58188  14.795   1.482   3.829
91406W        W58189  27.443   2.905   1.437
91407W        W58190   6.220   0.366  12.670
91408W        W58191  18.137  35.920  13.980
91409W        W58192  10.992   7.857   1.755
91410W        W58193  30.541  14.414   2.265
91411W        W58194  25.193  14.550  11.978
91412W        W58195  27.586   2.877   2.449
91413W        W58196  35.825  32.869  12.951
91414W        W58197   2.456  23.008   0.056
91415W        W58198  42.341   6.429  13.172
91416W        W58199   0.467  25.751  13.344
91417W        W58200  15.119  40.260   1.438
91418W        W58201  16.988   7.779   3.030
91419W        W58202   2.184  41.998   1.259
91420W        W58203  12.336   7.229  12.821
91421W        W58204  14.616  33.157  11.640
91422W        W58205  22.727   4.433   4.540
91423W        W58206  11.724  10.714   3.682
91424W        W58207   2.120  30.577   4.197
91425W        W58208  26.425  10.732   3.663
91426W        W58209   5.346  44.571   4.040
91427W        W58210   7.639  35.863   4.141
91428W        W58211  43.743  11.764   2.442
91429W        W58212  43.376  37.726  12.677
91430W        W58213  21.243  19.251   2.270
91431W        W58214   3.309  22.205   4.503
91432W        W58215  24.250  11.942  11.128
91433W        W58216  16.222  24.778  13.917
91434W        W58217  31.918  28.231  11.090
91435W        W58218   2.444  39.391  11.549
91436W        W58219  27.901  42.289  13.869
91437W        W58220  20.066  18.645   2.780
91438W        W58221   6.828  24.742   1.891
91439W        W58222  25.037  41.049  14.335
91440W        W58223   8.255  20.734  11.611
91441W        W58224   6.022  24.297  11.510
91442W        W58225  12.734  11.606   4.673
91443W        W58226   7.719  23.312  13.131
91444W        W58227  30.979  43.381  10.867
91445W        W58228  34.851   9.908  13.717
91446W        W58229  11.475  32.896  12.332
91447W        W58230  12.604   5.917  11.557
91448W        W58231   3.802   5.260   3.619
91449W        W58232  40.375  24.888   0.294
91450W        W58233   5.154  39.938  14.156
91451W        W58234  36.485  18.927  13.129
91452W        W58235  10.462   3.793   0.014
91453W        W58236  41.979   3.366   0.380
91454W        W58237  29.791   4.708   0.971
91455W        W58238  19.456  14.147  14.283
91456W        W58239  11.554  33.902  14.486
91457W        W58240  44.744  22.581   2.953
91458W        W58241  39.100  17.056   2.178
91459W        W58242  37.548  38.847  10.327
91460W        W58243  23.061  41.991  12.312
91461W        W58244  15.331  22.113   4.006
91462W        W58245  25.648   5.281   3.768
91463W        W58246  40.887  36.423   4.639
91464W        W58247  12.755  19.308   1.157
91465W        W58248  17.729  28.216  14.976
91466W        W58249  19.701   2.074   9.833
91467W        W58250  10.332  38.453  10.660
91468W        W58251   5.421  21.314   4.380
91469W        W58252  32.582  39.501   1.873
91470W        W58253  38.943  17.941   1.701
91471W        W58254  30.396   5.997  14.104
91472W        W58255  39.907  34.425   1.329
91473W        W58256  39.531  37.471   2.621
91474W        W58257  16.012  32.963  14.139
91475W        W58258  44.634  32.335   2.117
91476W        W58259  41.434  10.337   0.641
91477W        W58260  33.937  12.760   4.535
91478W        W58261   8.251   8.114   2.248
91479W        W58262  25.491   2.630   3.477
91480W        W58263  30.496  37.444  11.127
91481W        W58264   3.942  31.465  14.259
91482W        W58265  20.781  19.539   0.917
91483W        W58266  18.969  41.896   1.499
91484W        W58267   5.277  30.424   3.677
91485W        W58268  41.308  22.523   1.213
91486W        W58269  32.213  20.504   3.575
91487W        W58270   9.626  20.632   0.353
91488W        W58271  12.002   3.990  12.132
91489W        W58272  30.561  30.604  12.968
91490W        W58273  30.129  12.403  13.277
91491W        W58274   8.863  41.061  12.500
91492W        W58275   5.338  26.712   1.714
91493W        W58276  35.014  38.579   3.169
91494W        W58277   2.327   1.417  12.501
91495W        W58278  22.460  44.076  13.515
91496W        W58279  33.863   1.779  10.818
91497W        W58280  27.210  26.771  14.029
91498W        W58281  17.042  35.022   4.633
91499W        W58282  11.239  28.177   3.849
91500W        W58283  31.071  21.245   1.304
91501W        W58284  44.403  37.756  11.662
91502W        W58285  25.187  22.657   3.272
91503W        W58286  30.507  19.093  13.404
91504W        W58287  42.257  14.046   1.780
91505W        W58288   4.628  41.348  11.092
91506W        W58289  23.288  17.779   2.408
91507W        W58290   5.473  23.633  14.483
91508W        W58291  19.068  20.550  14.890
91509W        W58292  20.774  41.459  14.982
91510W        W58293  23.142  32.435   4.077
91511W        W58294  24.732  14.001  11.522
91512W        W58295  30.109   2.992   2.788
91513W        W58296  40.982   1.563   1.185
91514W        W58297  34.627  34.628  14.250
91515W        W58298  34.274  15.731  12.493
91516W        W58299  15.224  26.217  12.553
91517W        W58300  44.487  31.617   4.761
91518W        W58301   0.511  30.019  14.954
91519W        W58302  26.080   2.877   4.283
91520W        W58303  25.190  40.428   3.462
91521W        W58304   0.892  22.296  11.964
91522W        W58305  14.359  23.941   1.828
91523W        W58306   1.282  34.122   0.397
91524W        W58307  21.734   4.427  10.731
91525W        W58308   9.935  18.735   2.576
91526W        W58309  25.194  22.507  11.430
91527W        W58310  31.091  23.664  11.673
91528W        W58311  36.534  28.518  11.950
91529W        W58312  14.279   9.547  13.965
91530W        W58313  43.534   7.601   1.893
91531W        W58314  34.913  32.506  12.913
91532W        W58315  13.985  34.282   9.735
91533W        W58316  17.894  36.163   1.805
91534W        W58317  13.788  19.168  11.128
91535W        W58318  42.398   6.859  10.271
91536W        W58319   9.849  30.190  14.417
91537W        W58320  17.357  17.346   2.134
91538W        W58321  22.648  35.370   2.819
91539W        W58322   4.184  42.225  13.900
91540W        W58323  34.868  11.398  12.749
91541W        W58324  27.457   3.521  12.335
91542W        W58325   1.043  42.293   3.657
91543W        W58326  27.570  44.987  13.593
91544W        W58327  36.113  26.029   4.732
91545W        W58328   8.265  41.231  12.494
91546W        W58329  30.208  33.243   3.735
91547W        W58330  23.756  12.642  13.134
91548W        W58331  10.730  13.343   0.993
91549W        W58332  12.028  44.967   4.029
91550W        W58333   9.149  13.066  14.447
91551W        W58334  22.985   5.922   0.128
91552W        W58335  36.395  26.212  13.924
91553W        W58336  20.649   7.333   3.628
91554W        W58337  24.087   8.169  11.203
91555W        W58338  20.988  33.138  14.783
91556W        W58339  27.592  13.302  12.920
91557W        W58340  16.361  24.133   1.337
91558W        W58341   9.884  21.210   4.550
91559W        W58342  18.974  18.516  11.699
91560W        W58343  23.773  26.082   0.298
91561W        W58344  24.936  23.421   2.823
91562W        W58345   0.777  16.824  13.864
91563W        W58346  23.113   0.020   2.241
91564W        W58347   1.523  30.246  11.877
91565W        W58348  39.979  26.268   0.195
91566W        W58349   7.825  40.468   2.270
91567W        W58350   2.715  32.905  11.194
91568W        W58351   1.408  16.615  14.235
91569W        W58352  21.687  12.469   4.699
91570W        W58353  39.117   4.266  14.891
91571W        W58354  33.623  16.744   4.322
91572W        W58355  16.798  41.147   0.027
91573W        W58356  24.512  44.215   4.816
91574W        W58357  36.028  26.579   1.861
91575W        W58358  42.505  29.475  11.010
91576W        W58359  18.520  29.447   1.964
91577W        W58360  24.683  43.519   2.587
91578W        W58361  20.596  43.259   4.598
91579W        W58362  12.067  30.939   2.854
91580W        W58363  42.568  39.164  13.980
91581W        W58364   0.496  10.858  12.449
91582W        W58365  17.351   2.447   4.442
91583W        W58366  43.285  23.580  13.449
91584W        W58367  31.690  16.222  11.128
91585W        W58368  18.738  36.894  13.447
91586W        W58369  20.994  39.601  13.996
91587W        W58370  21.928  14.399  14.479
91588W        W58371  41.732  16.652   0.351
91589W        W58372  18.318  36.778  12.808
91590W        W58373  23.642   0.948  13.982
91591W        W58374  15.373   4.188  13.062
91592W        W58375  29.469  13.370   4.166
91593W        W58376  27.927   7.661  11.539
91594W        W58377  20.556  15.154  12.684
91595W        W58378  35.550   5.143  14.372
91596W        W58379  15.613  21.278  14.934
91597W        W58380  16.234  21.659  12.036
91598W        W58381   7.276  14.419   1.019
91599W        W58382  10.109   1.617  14.971
91600W        W58383  39.172  26.691   4.127
91601W        W58384  32.742   2.217   1.156
91602W        W58385  13.820  12.565   1.368
91603W        W58386  43.533  23.269   1.270
91604W        W58387  36.710  32.069  12.878
91605W        W58388   2.737   3.228   1.015
91606W        W58389   8.464  30.008  10.997
91607W        W58390  40.767   2.732  14.342
91608W        W58391  43.204   8.995  13.459
91609W        W58392  30.063  43.863  11.571
91610W        W58393  23.077  33.085   2.412
91611W        W58394  34.908  40.256  13.875
91612W        W58395   7.726   5.964   0.508
91613W        W58396  23.008  29.449  13.190
91614W        W58397  42.001  26.406  11.622
91615W        W58398  28.612  43.759  12.015
91616W        W58399  36.573  23.771   1.679
91617W        W58400  19.762  19.593   3.696
91618W        W58401  19.250  41.275   0.952
91619W        W58402  27.463  40.535   2.672
91620W        W58403  42.546  35.492   0.019
91621W        W58404   1.517  36.529  12.605
91622W        W58405  35.405  24.951   3.549
91623W        W58406  23.366  12.468   2.173
91624W        W58407  43.543  42.868  13.388
91625W        W58408  12.847  19.799  12.542
91626W        W58409  11.226  27.964  12.243
91627W        W58410  31.091   9.807  10.837
91628W        W58411   3.705  26.228   1.132
91629W        W58412  40.377  17.085  11.667
91630W        W58413  44.938  13.280  12.911
91631W        W58414  22.934  12.319  13.339
91632W        W58415  37.435  22.676   1.315
91633W        W58416   0.646   5.746  11.313
91634W        W58417   0.121  22.664   4.109
91635W        W58418  12.772  11.065   1.837
91636W        W58419   6.252  41.261  13.522
91637W        W58420   6.218  11.667   4.891
91638W        W58421   3.955  26.431   2.451
91639W        W58422  26.236   6.707  12.965
91640W        W58423  12.202  40.914   0.827
91641W        W58424  44.814  34.869  10.688
91642W        W58425   1.496  24.003   3.485
91643W        W58426  36.926  18.623  10.514
91644W        W58427  26.238  21.922  14.035
91645W        W58428  38.482  17.750   4.434
91646W        W58429  36.539  43.960   2.371
91647W        W58430  23.954  40.402  13.311
91648W        W58431  11.968  12.776   4.824
91649W        W58432  21.664   1.797   5.082
91650W        W58433  35.351   0.324   1.547
91651W        W58434  19.027  29.075  14.966
91652W        W58435  41.696   9.841  12.402
91653W        W58436  38.449  11.629  11.620
91654W        W58437  18.154  31.072  14.772
91655W        W58438  12.600  14.433  14.935
91656W        W58439  18.023  10.019  14.708
91657W        W58440  42.383  16.724   4.000
91658W        W58441  36.283  43.591   2.066
91659W        W58442  29.269  37.022   1.938
91660W        W58443  27.213  40.033   2.660
91661W        W58444  41.509   4.882  14.016
91662W        W58445  22.711  21.293  14.058
91663W        W58446   1.544  36.811  14.859
91664W        W58447  33.624  17.799   5.201
91665W        W58448   9.750  24.464  13.472
91666W        W58449  39.587   0.335   3.662
91667W        W58450  12.536  24.212  11.511
91668W        W58451  42.724  44.234   2.837
91669W        W58452  19.172  34.878  12.178
91670W        W58453  35.463  34.365   2.958
91671W        W58454  25.467  15.709   2.698
91672W        W58455   7.201  44.747  14.941
91673W        W58456  30.993   7.941  10.440
91674W        W58457  35.958  35.433   3.669
91675W        W58458  22.570  25.419   2.645
91676W        W58459   5.657   3.969   2.066
91677W        W58460  25.995   9.179  11.184
91678W        W58461  21.963  20.522  14.734
91679W        W58462   6.766   8.411  12.471
91680W        W58463  22.088  33.519   4.253
91681W        W58464  43.513  11.257   3.137
91682W        W58465  31.104  35.153   3.152
91683W        W58466   0.544  41.285   3.172
91684W        W58467   8.462  11.003   9.714
91685W        W58468   0.959  35.144  12.049
91686W        W58469  44.336  25.617  11.545
91687W        W58470  38.245  12.403   3.044
91688W        W58471  41.311  16.815   1.377
91689W        W58472   1.857   9.171  11.297
91690W        W58473  36.878   3.156   3.696
91691W        W58474  33.054  38.965   3.205
91692W        W58475  35.774  18.269  13.001
91693W        W58476  22.900  26.572   0.252
91694W        W58477  20.738  38.325   3.698
91695W        W58478  39.120  35.887   1.956
91696W        W58479  31.674  25.991  12.609
91697W        W58480  19.544  27.001  11.081
91698W        W58481  22.151  32.129  12.892
91699W        W58482  33.060  35.963   1.089
91700W        W58483  38.056  23.659   4.848
91701W        W58484  28.130  21.723  14.935
91702W        W58485  26.227   7.304  14.825
91703W        W58486   8.162  12.513  14.944
91704W        W58487  38.880  14.830   2.594
91705W        W58488  28.078  22.959  10.354
91706W        W58489   2.757  15.083   0.399
91707W        W58490  36.434  18.315  11.528
91708W        W58491   9.148  15.734   3.117
91709W        W58492  24.351  43.218   0.423
91710W        W58493  43.386  30.636   1.374
91711W        W58494  15.842  23.213  14.014
91712W        W58495  28.892   7.754  12.383
91713W        W58496  36.848  37.505  11.543
91714W        W58497  25.997   0.289   0.680
91715W        W58498  27.257  35.592   4.001
91716W        W58499  14.235  30.016   3.787
91717W        W58500  36.177   5.301   3.228
91718W        W58501  13.480  40.585   4.587
91719W        W58502  43.257  42.008   0.324
91720W        W58503   0.386   0.953   2.068
91721W        W58504  23.747  11.858  14.140
91722W        W58505  42.021   8.851   3.163
91723W        W58506   9.221  41.694  10.865
91724W        W58507  24.215  17.644  14.691
91725W        W58508  11.122  12.019  14.358
91726W        W58509   9.226  28.248  10.706
91727W        W58510   4.243   4.855  12.924
91728W        W58511  30.640  30.667   4.595
91729W        W58512   5.673  24.632  11.623
91730W        W58513   1.412  25.371  14.906
91731W        W58514   0.918  38.518   2.971
91732W        W58515  41.434  27.322   2.985
91733W        W58516  36.610  44.949   3.460
91734W        W58517  39.610  42.426  12.518
91735W        W58518   5.711  17.235  10.974
91736W        W58519  28.802  40.023  11.529
91737W        W58520  20.059  16.139   3.270
91738W        W58521   9.559  36.998   0.994
91739W        W58522  34.277   4.335  12.904
91740W        W58523  10.919  35.454  13.046
91741W        W58524   0.371  13.207   0.423
91742W        W58525  20.292   3.605  14.352
91743W        W58526  26.695  38.542   1.812
91744W        W58527  38.795   5.594   1.958
91745W        W58528   2.759  42.501   0.458
91746W        W58529  10.725  38.920   4.143
91747W        W58530  17.438   8.116  10.969
91748W        W58531  42.438  13.730  14.284
91749W        W58532  37.547  35.958   4.802
91750W        W58533   1.463  36.000  12.368
91751W        W58534  11.872  42.150   4.546
91752W        W58535  21.230  22.546  13.627
91753W        W58536  18.131  17.315  11.838
91754W        W58537  22.269  20.950  11.150
91755W        W58538  32.448  14.726   1.728
91756W        W58539   0.643  34.477   2.252
91757W        W58540  21.330  17.195   0.280
91758W        W58541  19.222  23.007   2.317
91759W        W58542  19.105  17.318   3.124
91760W        W58543  14.312  18.340  14.997
91761W        W58544  17.555  14.345  11.559
91762W        W58545  18.991  41.912  11.223
91763W        W58546  18.171  32.434   4.605
91764W        W58547  36.742  30.653   2.795
91765W        W58548   5.673  19.166  14.258
91766W        W58549  38.238  24.237  13.273
91767W        W58550   3.970  27.240   2.621
91768W        W58551  12.375   4.409  12.439
91769W        W58552  17.590  43.224  11.101
91770W        W58553  32.046  34.910  12.989
91771W        W58554  27.298  26.136   9.825
91772W        W58555   2.487  34.972   1.676
91773W        W58556  19.564  10.486   3.087
91774W        W58557   9.402  41.843   2.116
91775W        W58558  42.512   3.338  14.533
91776W        W58559   1.309  41.972  12.651
91777W        W58560  18.105  28.811   4.109
91778W        W58561   6.463   5.772  10.447
91779W        W58562  23.691  17.118  13.404
91780W        W58563  37.643  37.893  14.008
91781W        W58564   6.101   8.782   2.635
91782W        W58565  21.157  12.078  11.643
91783W        W58566  40.027  11.433  13.751
91784W        W58567  40.059  14.559  13.384
91785W        W58568  30.724  32.150   3.237
91786W        W58569  43.848   5.496  11.526
91787W        W58570  41.874  34.782   5.077
91788W        W58571  26.039  44.463   0.957
91789W        W58572   2.385  21.177  14.009
91790W        W58573  38.153  31.970  13.820
91791W        W58574   6.229  28.989  12.023
91792W        W58575  28.914  10.844  14.423
91793W        W58576  16.781  33.198  11.559
91794W        W58577   5.712   4.732   2.789
91795W        W58578   6.810  37.079   3.390
91796W        W58579  22.888   0.934  13.463
91797W        W58580  44.311   2.949   3.608
91798W        W58581  35.498  25.247  10.608
91799W        W58582  21.944  43.566  12.932
91800W        W58583  44.393  36.156  12.924
91801W        W58584   3.919  34.032   1.467
91802W        W58585   9.854   8.945   0.046
91803W        W58586  23.253  25.476   0.901
91804W        W58587  22.565  39.907   1.463
91805W        W58588  39.673  30.918   3.196
91806W        W58589  10.235   9.134  11.642
91807W        W58590  18.685  43.839  13.327
91808W        W58591   8.461  32.908  10.401
91809W        W58592  34.072  17.793   2.329
91810W        W58593  16.477  40.471  11.109
91811W        W58594  24.454   8.718   0.510
91812W        W58595  14.329  32.186   0.948
91813W        W58596   0.062   3.805  13.093
91814W        W58597  37.195  14.234  14.291
91815W        W58598  37.989  39.634  12.455
91816W        W58599  18.057  25.710   1.820
91817W        W58600  21.521  44.688   4.334
91818W        W58601  29.935  40.186   4.448
91819W        W58602   2.748  20.380  13.451
91820W        W58603  36.267  19.180   2.690
91821W        W58604   5.219   9.264  13.607
91822W        W58605  40.993  19.303   0.379
91823W        W58606  32.767  26.699   2.369
91824W        W58607  26.427   9.385   3.940
91825W        W58608  24.911  13.519   2.803
91826W        W58609   9.881  34.100  14.887
91827W        W58610   5.781  14.867   2.854
91828W        W58611  36.017  30.638  13.496
91829W        W58612   2.681  38.738  12.402
91830W        W58613   9.912  37.997  12.157
91831W        W58614  30.284  27.479   2.862
91832W        W58615  26.307  12.921   4.576
91833W        W58616  30.427  19.661  13.131
91834W        W58617  43.685  40.434  12.890
91835W        W58618  37.794  27.886  14.285
91836W        W58619  29.245   6.472  13.511
91837W        W58620  38.339  22.682   3.809
91838W        W58621  20.663  33.543  12.681
91839W        W58622  14.412  27.977   2.615
91840W        W58623  38.173  22.004  10.365
91841W        W58624  19.327  11.258  12.787
91842W        W58625  27.581   9.985  10.380
91843W        W58626  14.571  30.121  10.997
91844W        W58627   4.204  29.751  14.467
91845W        W58628  12.733  40.114   4.529
91846W        W58629  12.287  16.856  13.941
91847W        W58630  31.673   6.373  10.684
91848W        W58631   8.599  10.805   5.157
91849W        W58632  36.554  31.078  11.649
91850W        W58633  38.506   2.556   2.856
91851W        W58634  27.540  21.837  14.605
91852W        W58635   4.172  37.319   3.567
91853W        W58636  24.230   7.982  12.195
91854W        W58637   7.806  40.486   3.440
91855W        W58638  32.852  35.046  14.523
91856W        W58639  30.162  41.594  12.968
91857W        W58640  34.536   3.433   1.807
91858W        W58641  26.651  36.653   2.348
91859W        W58642  26.609  22.083  13.144
91860W        W58643   4.482  17.316  13.774
91861W        W58644  33.601  29.075  13.525
91862W        W58645  32.725   5.992  13.926
91863W        W58646  30.401  12.635  12.029
91864W        W58647  27.816  23.101   0.001
91865W        W58648  36.097   8.748  13.347
91866W        W58649  14.339  34.558   1.473
91867W        W58650  44.745  24.516  13.438
91868W        W58651  28.413  11.791  13.291
91869W        W58652  23.505  33.273   0.383
91870W        W58653   8.708  11.683  14.519
91871W        W58654  40.464  42.819   2.357
91872W        W58655  41.525  38.300   0.528
91873W        W58656  10.260  31.683  11.140
91874W        W58657  12.130  12.040   1.311
91875W        W58658  36.909  19.170  11.195
91876W        W58659   8.209  10.214  11.663
91877W        W58660  29.079  42.184  12.403
91878W        W58661  10.786   2.764   3.682
91879W        W58662   7.425   4.753   0.309
91880W        W58663   8.620  10.397   0.265
91881W        W58664  29.675   0.076   3.509
91882W        W58665  24.838  14.104   4.260
91883W        W58666   5.154   6.566   1.421
91884W        W58667  42.498   2.242  13.037
91885W        W58668  12.396   0.889  14.629
91886W        W58669  30.662  40.431  14.839
91887W        W58670   9.802   0.961  12.824
91888W        W58671  28.160  26.195   1.785
91889W        W58672  32.050  39.536   3.617
91890W        W58673   2.537  26.803  11.990
91891W        W58674  21.002  26.596   5.502
91892W        W58675  12.677  12.143   4.613
91893W        W58676  13.077  20.103  12.897
91894W        W58677  30.817  34.011   0.831
91895W        W58678  36.350  43.465   0.681
91896W        W58679  44.535  21.724   2.595
91897W        W58680  20.630  30.611  11.265
91898W        W58681  30.019  11.915   4.243
91899W        W58682  20.127  37.465   3.657
91900W        W58683   2.517  27.605  10.691
91901W        W58684  15.847  23.319   4.053
91902W        W58685  24.974  15.124   3.364
91903W        W58686  14.781  29.202  13.969
91904W        W58687  29.874  12.431   4.151
91905W        W58688  20.031   2.917   3.591
91906W        W58689  36.448   2.214  14.398
91907W        W58690  16.057  23.492  14.427
91908W        W58691  32.085   3.183   0.476
91909W        W58692  21.718  11.222   1.835
91910W        W58693  14.721  36.629  11.635
91911W        W58694   6.865  10.880   4.483
91912W        W58695   3.591  13.575   4.288
91913W        W58696  40.657  35.964   4.313
91914W        W58697  42.581  13.676   0.507
91915W        W58698   3.569  23.157   4.461
91916W        W58699  18.886  21.110   2.792
91917W        W58700  11.045  35.860  10.163
91918W        W58701  10.611  15.434  13.495
91919W        W58702  41.968  12.126  14.371
91920W        W58703  17.354  44.772   0.425
91921W        W58704  40.406  20.145   0.258
91922W        W58705  11.977  21.956   4.863
91923W        W58706  23.454  43.102  13.152
91924W        W58707  44.910  17.040   0.421
91925W        W58708  31.818  30.920  11.611
91926W        W58709  33.496  21.649   0.194
91927W        W58710   2.540  17.427   4.119
91928W        W58711  22.633  10.857  10.753
91929W        W58712  28.719  11.271   4.275
91930W        W58713  27.367  42.227   2.369
91931W        W58714   2.021  18.220  10.713
91932W        W58715   4.967   3.333  12.929
91933W        W58716  34.310  21.202   1.619
91934W        W58717  16.954   2.413  13.402
91935W        W58718  36.331  37.041   2.171
91936W        W58719  31.177  18.090   0.178
91937W        W58720  22.900   7.466   1.347
91938W        W58721  15.232   1.733  13.009
91939W        W58722  42.365  11.656  12.378
91940W        W58723   7.384  39.581  11.879
91941W        W58724  10.239   4.344  13.825
91942W        W58725  33.849  16.360   3.605
91943W        W58726  27.678   6.679  14.318
91944W        W58727  21.044  26.189   1.173
91945W        W58728  41.424  37.961  12.988
91946W        W58729  15.331  11.653  11.075
91947W        W58730  35.480  13.611  12.444
91948W        W58731  12.342  21.169   0.978
91949W        W58732  27.694  34.913   3.196
91950W        W58733  19.575  36.080  13.029
91951W        W58734   2.366   8.824   4.138
91952W        W58735  16.241   0.855   2.887
91953W        W58736  27.897  28.994  14.738
91954W        W58737   8.111   2.900  12.912
91955W        W58738   1.041  31.925  12.606
91956W        W58739  26.951  28.672   2.917
91957W        W58740  21.367   6.897   2.297
91958W        W58741   9.142  14.633   0.237
91959W        W58742  38.133   8.651  10.455
91960W        W58743  33.829  21.162   1.782
91961W        W58744  36.132  33.421  12.059
91962W        W58745  25.579   2.796  13.705
91963W        W58746   3.370  34.355  10.838
91964W        W58747  21.704  35.203  12.315
91965W        W58748   2.793   3.413   3.623
91966W        W58749  14.099  37.649  14.024
91967W        W58750  19.420  31.713   3.371
91968W        W58751  33.046   1.041  11.481
91969W        W58752  43.131  21.815   4.377
91970W        W58753  31.426  26.684  14.290
91971W        W58754  40.850  17.782   0.031
91972W        W58755  19.443  18.304  13.592
91973W        W58756  23.121  29.185   4.860
91974W        W58757  30.923  23.567   4.709
91975W        W58758  39.598   7.828   1.178
91976W        W58759  16.137  42.281  12.155
91977W        W58760   6.301  34.138   3.768
91978W        W58761   5.806  30.969  14.542
91979W        W58762  19.286  36.476   1.812
91980W        W58763  31.339   3.323  12.077
91981W        W58764  26.880  25.738  11.805
91982W        W58765   4.787  40.762   1.310
91983W        W58766  24.709   8.387  13.911
91984W        W58767  37.602  32.877   3.640
91985W        W58768  18.809   9.131  10.632
91986W        W58769  21.822  24.928  12.538
91987W        W58770  28.441  17.148  10.606
91988W        W58771   0.250  31.482   4.016
91989W        W58772  29.587  22.052   3.798
91990W        W58773   0.683  20.406  13.421
91991W        W58774  20.007  20.600  14.032
91992W        W58775  17.408  13.419  11.521
91993W        W58776  22.581  24.551   4.459
91994W        W58777  10.040  21.283   0.471
91995W        W58778  10.465  22.256   1.578
91996W        W58779   1.001  21.540   2.668
91997W        W58780  14.104   5.788  14.262
91998W        W58781   7.326   2.399   1.717
91999W        W58782  44.476  15.973   0.687
92000W        W58783  30.474   6.681  13.583
92001W        W58784  24.321  32.897   1.731
92002W        W58785   8.644  33.982   0.848
92003W        W58786  17.407  21.496   2.022
92004W        W58787  35.031  34.660   2.939
92005W        W58788  23.423  40.495  13.175
92006W        W58789  40.973  29.774  11.256
92007W        W58790  16.135   5.005   9.918
92008W        W58791  39.942  28.078  14.939
92009W        W58792   9.910  32.715   1.721
92010W        W58793  34.644   8.243   4.987
92011W        W58794  26.275  24.062  14.839
92012W        W58795  43.348  25.553  10.632
92013W        W58796   6.744  18.534   1.635
92014W        W58797   1.813   7.900  12.663
92015W        W58798   7.180   9.220  14.342
92016W        W58799  10.900   6.437   2.870
92017W        W58800  19.265  44.221   3.703
92018W        W58801  27.983  27.404  12.838
92019W        W58802  11.888  14.838   3.669
92020W        W58803  25.077  28.709  12.555
92021W        W58804  33.679  37.449   2.819
92022W        W58805  12.299  22.841  10.546
92023W        W58806  12.601   9.514   3.985
92024W        W58807  40.631   7.663  13.340
92025W        W58808  33.558  30.215   3.520
92026W        W58809   6.923   3.958  10.744
92027W        W58810  18.634  24.533   4.387
92028W        W58811  39.547  23.931   4.098
92029W        W58812  26.357  15.578   1.706
92030W        W58813  34.361  33.371  13.461
92031W        W58814  39.152  10.854   4.213
92032W        W58815  43.343   0.572   2.320
92033W        W58816  11.021  12.732  11.047
92034W        W58817  26.589  16.746  14.430
92035W        W58818   1.901  21.146   2.108
92036W        W58819  12.971  32.452  12.248
92037W        W58820   8.102   9.181   0.905
92038W        W58821   1.499  23.954   0.974
92039W        W58822  39.887  31.540  14.444
92040W        W58823  17.595  26.672   0.538
92041W        W58824  39.502  29.278  13.924
92042W        W58825  25.453  16.020   3.188
92043W        W58826  28.158  44.462   4.093
92044W        W58827  16.862  35.111  12.746
92045W        W58828  26.699  18.164   0.726
92046W        W58829  44.605   1.834  10.576
92047W        W58830  43.840  11.258  12.118
92048W        W58831  19.578   3.282   2.227
92049W        W58832   5.908   6.279   1.228
92050W        W58833   1.292  20.680   2.859
92051W        W58834  44.403  42.374  14.149
92052W        W58835  37.322  34.321  13.940
92053W        W58836  35.947  20.253   4.319
92054W        W58837  15.233  14.705   3.169
92055W        W58838  14.778  41.315  12.106
92056W        W58839  14.660  14.094  14.436
92057W        W58840   5.522  13.515   4.162
92058W        W58841   1.404  26.415  10.712
92059W        W58842  29.899  20.725   0.010
92060W        W58843   8.820   9.722   4.152
92061W        W58844  35.440   2.876   1.254
92062W        W58845   7.713  42.404   0.265
92063W        W58846   5.697  33.382   0.977
92064W        W58847  35.990   6.131   1.477
92065W        W58848  26.096  43.998  13.645
92066W        W58849  31.327   7.311   4.550
92067W        W58850  33.848  39.026   1.776
92068W        W58851  38.297  31.062   0.199
92069W        W58852   0.418  22.127  12.140
92070W        W58853   5.917  34.373   0.805
92071W        W58854  31.067  44.550   1.104
92072W        W58855  28.569  20.557   2.596
92073W        W58856  24.698   6.863  13.385
92074W        W58857   4.937  10.826  14.027
92075W        W58858  32.328  32.164   2.790
92076W        W58859  14.165  39.029   3.843
92077W        W58860   0.388  16.173  13.782
92078W        W58861  29.978  41.560  11.212
92079W        W58862  37.130  35.843  12.913
92080W        W58863  34.513   2.269  13.866
92081W        W58864  14.757  16.097  13.145
92082W        W58865   3.976  24.198   3.522
92083W        W58866  24.404  39.830   9.913
92084W        W58867   9.524  27.112  12.481
92085W        W58868  27.992  17.114   2.166
92086W        W58869   5.186  12.798   0.759
92087W        W58870   0.910  19.128   4.333
92088W        W58871  43.524   0.535  13.145
92089W        W58872  11.093   4.318   3.344
92090W        W58873   6.875  44.322  13.070
92091W        W58874  21.617  29.398  12.492
92092W        W58875  30.424  40.477  13.093
92093W        W58876   7.512  38.373  11.624
92094W        W58877   7.805  42.423   4.581
92095W        W58878  24.622  10.390   2.674
92096W        W58879  40.345  20.698   3.463
92097W        W58880  28.788  17.565   4.171
92098W        W58881  28.623  42.518   1.333
92099W        W58882  12.962  29.652   5.242
92100W        W58883  17.171  29.409   2.671
92101W        W58884  41.575   5.696  12.531
92102W        W58885  11.821   5.045   1.049
92103W        W58886  28.654  37.809  11.296
92104W        W58887  16.841   2.367  14.352
92105W        W58888  23.438  32.244   9.909
92106W        W58889   7.201  21.799   1.727
92107W        W58890  20.610  41.727  13.543
92108W        W58891   2.382  11.702  13.840
92109W        W58892  43.344  36.476  13.045
92110W        W58893  24.656  22.054  12.883
92111W        W58894  40.878  39.381   1.651
92112W        W58895  29.671   5.826  14.919
92113W        W58896   5.023   9.637   2.716
92114W        W58897  44.233  39.772  10.619
92115W        W58898  23.548  29.682   0.798
92116W        W58899  35.588  22.638   4.488
92117W        W58900  25.311  23.150  14.543
92118W        W58901  14.245  32.105   2.849
92119W        W58902  12.247  26.989   0.367
92120W        W58903  20.769   9.787   3.226
92121W        W58904  23.066  22.263  11.220
92122W        W58905  21.045  20.984  12.952
92123W        W58906   4.405  37.423   9.917
92124W        W58907  33.986  20.177   2.673
92125W        W58908  29.221   1.511  13.752
92126W        W58909  37.133  43.795   1.242
92127W        W58910  24.258  42.442  11.628
92128W        W58911  43.035  19.302   4.814
92129W        W58912  21.657  19.971   2.217
92130W        W58913  23.037   1.103  14.445
92131W        W58914   2.233  15.776   4.104
92132W        W58915  11.982  12.700  10.187
92133W        W58916  17.098  26.020   3.392
92134W        W58917  30.863  17.346   4.052
92135W        W58918  39.215  43.476   2.188
92136W        W58919  11.547  33.845  11.538
92137W        W58920  14.678  19.021   3.804
92138W        W58921  11.569   8.553  11.334
92139W        W58922  35.058  42.190   2.386
92140W        W58923   7.367  26.847   0.344
92141W        W58924  40.579  18.418  12.018
92142W        W58925  38.283  15.324   3.603
92143W        W58926  16.558  39.521  11.912
92144W        W58927  13.576  14.798   2.423
92145W        W58928  15.864  38.594   3.589
92146W        W58929  44.012   6.513   4.095
92147W        W58930   6.776  27.681   4.912
92148W        W58931  17.095  41.079  11.281
92149W        W58932   9.143  15.266   2.179
92150W        W58933  26.984  42.335   1.899
92151W        W58934  22.956  36.585   4.047
92152W        W58935   8.495  26.782   1.033
92153W        W58936  26.202   3.806   0.626
92154W        W58937  38.579  28.374   1.720
92155W        W58938   6.792  40.125   2.172
92156W        W58939  12.302  33.093   2.311
92157W        W58940  11.881  13.387   2.362
92158W        W58941  37.342   9.127   1.812
92159W        W58942   4.077   2.794   1.812
92160W        W58943  12.190   6.359   3.796
92161W        W58944  43.672  20.993  12.036
92162W        W58945  30.800  18.719   2.319
92163W        W58946  32.044  44.795   3.289
92164W        W58947  11.789  21.858   1.278
92165W        W58948  20.990  27.927  12.553
92166W        W58949   4.223  21.687  10.643
92167W        W58950  12.727  33.638  10.713
92168W        W58951  43.961   7.686   3.098
92169W        W58952  34.396  31.057   2.062
92170W        W58953  30.506  38.491  11.272
92171W        W58954  22.648  31.934  14.111
92172W        W58955  40.643  37.451  10.332
92173W        W58956  16.374  36.796   1.125
92174W        W58957  12.354  41.503   3.417
92175W        W58958   8.611  23.644   2.196
92176W        W58959   4.406  19.558  10.706
92177W        W58960  20.702   4.661   0.174
92178W        W58961  42.489   6.599   1.470
92179W        W58962   3.541   4.766   3.661
92180W        W58963   8.906  12.949   2.016
92181W        W58964  20.664   7.206   3.140
92182W        W58965  21.290  24.077   4.558
92183W        W58966  21.336  11.339  13.961
92184W        W58967  27.819  27.876  14.048
92185W        W58968  20.044   5.904  10.724
92186W        W58969  14.913   9.391   0.423
92187W        W58970   1.886  18.772   1.764
92188W        W58971  36.323  20.852  11.994
92189W        W58972  13.395  30.677  11.088
92190W        W58973  25.563  29.040   3.321
92191W        W58974  36.104  21.945   3.779
92192W        W58975   7.668  14.867  14.233
92193W        W58976  31.554  18.151   1.865
92194W        W58977  34.502  36.701   2.378
92195W        W58978  27.518  29.644   4.329
92196W        W58979  29.505  10.874  13.789
92197W        W58980  18.767  32.272  13.101
92198W        W58981  32.791  42.340  12.896
92199W        W58982   4.470  40.718  10.290
92200W        W58983  12.607  32.164   3.688
92201W        W58984  38.369  12.751   2.235
92202W        W58985  39.531  43.342   0.409
92203W        W58986  19.116  32.401  14.085
92204W        W58987  41.225  32.490   2.429
92205W        W58988  22.825   4.180  14.891
92206W        W58989  37.007  17.610  11.517
92207W        W58990  18.334   4.025   0.301
92208W        W58991  12.171  30.645  11.450
92209W        W58992  11.877  41.887   2.331
92210W        W58993   7.665  21.837  12.948
92211W        W58994  19.181   5.068   1.300
92212W        W58995   0.312  35.059  10.714
92213W        W58996  17.861   2.339   3.674
92214W        W58997   1.462  44.733   1.703
92215W        W58998  40.396  26.469   3.699
92216W        W58999  23.270   2.807  14.853
92217W        W59000  40.348  34.120   0.660
92218W        W59001   2.979   5.619   3.848
92219W        W59002  34.034   5.452   2.867
92220W        W59003  11.467  29.641   2.651
92221W        W59004   7.113  29.211  14.866
92222W        W59005  43.018   8.255  13.624
92223W        W59006   1.875  17.599  13.472
92224W        W59007  34.110   8.717  13.328
92225W        W59008   0.353  32.403   3.818
92226W        W59009   3.659  21.259   5.260
92227W        W59010   3.958   1.782   4.227
92228W        W59011   2.445  27.876  13.443
92229W        W59012  18.838  25.260   2.258
92230W        W59013  28.913  33.152   1.371
92231W        W59014  12.127  11.857  11.603
92232W        W59015  31.568  34.021   0.418
92233W        W59016   5.175  11.642   3.388
92234W        W59017   5.235  11.907  12.933
92235W        W59018   4.758  19.041   0.825
92236W        W59019  43.572  34.905  10.888
92237W        W59020  42.805  19.330  12.673
92238W        W59021  11.920  40.450   4.539
92239W        W59022   5.014  33.593   3.849
92240W        W59023   8.197   2.958   0.384
92241W        W59024   2.763  31.381   2.676
92242W        W59025  33.300  37.805   2.784
92243W        W59026   2.671   1.495  12.102
92244W        W59027  18.783  33.174   4.144
92245W        W59028  36.350  11.454   0.192
92246W        W59029  36.838   5.496   4.114
92247W        W59030   9.559  34.217   4.242
92248W        W59031  38.232  22.735   4.634
92249W        W59032  19.725  40.123   1.992
92250W        W59033  18.265  11.727   2.900
92251W        W59034  26.941  12.649  14.988
92252W        W59035  25.140   7.186   2.437
92253W        W59036   2.874  42.998  14.616
92254W        W59037   4.339  33.824  12.475
92255W        W59038  12.813  35.305  14.834
92256W        W59039  18.363  18.211   0.493
92257W        W59040  15.587   1.194  14.336
92258W        W59041  34.954  29.330   2.158
92259W        W59042  10.567   1.706  13.080
92260W        W59043   6.525   2.885   3.172
92261W        W59044   1.471  34.814   0.013
92262W        W59045   2.643   1.626   0.313
92263W        W59046  27.408  16.742  14.853
92264W        W59047   2.965  27.918   1.431
92265W        W59048  36.447  12.031  13.513
92266W        W59049  43.381  32.087  11.082
92267W        W59050   3.729   0.515   2.132
92268W        W59051   5.733   3.333  10.742
92269W        W59052  44.701  25.109   4.098
92270W        W59053  23.847  33.979  12.384
92271W        W59054  37.013   0.445  13.388
92272W        W59055  37.509  29.645  14.394
92273W        W59056   0.463  40.788   1.102
92274W        W59057  35.621   6.921  14.474
92275W        W59058  37.170   9.961   0.826
92276W        W59059   9.547  36.345   3.711
92277W        W59060  22.079  20.488  11.038
92278W        W59061  24.551  30.929  14.448
92279W        W59062  13.316  33.499  12.678
92280W        W59063  43.057  41.693   2.634
92281W        W59064  14.212  17.079   0.594
92282W        W59065  33.084  33.670   2.825
92283W        W59066   2.238   7.874   3.930
92284W        W59067   2.196  30.197   0.181
92285W        W59068  21.276  26.439   3.081
92286W        W59069  13.272  32.273  10.355
92287W        W59070  38.802   4.449   1.505
92288W        W59071  43.537  14.474   1.864
92289W        W59072  29.104   4.114   1.826
92290W        W59073  44.892   4.048   1.622
92291W        W59074  12.901  28.567   2.418
92292W        W59075  23.276  12.540  12.923
92293W        W59076  13.556  42.331  11.594
92294W        W59077  25.050  21.294  12.518
92295W        W59078  44.929  27.364  14.122
92296W        W59079   0.520  28.924   1.834
92297W        W59080  44.775  18.261  12.580
92298W        W59081   1.273  36.583  12.165
92299W        W59082  43.768  24.382  10.939
92300W        W59083  10.338   4.216   2.809
92301W        W59084  29.825   7.706   0.950
92302W        W59085  14.775  30.088  12.589
92303W        W59086  26.475  24.449  13.924
92304W        W59087  20.245  44.550  11.093
92305W        W59088  14.167  20.443   1.093
92306W        W59089  31.406  39.520  13.874
92307W        W59090   4.054  36.389   3.899
92308W        W59091  37.863  43.714   0.510
92309W        W59092  13.611  29.347   1.666
92310W        W59093  17.015  32.379  11.030
92311W        W59094  31.554  19.773  14.435
92312W        W59095   8.627   2.062   1.737
92313W        W59096  30.801  18.641   9.915
92314W        W59097  21.780  35.991   3.692
92315W        W59098   6.107   8.646   0.405
92316W        W59099  37.450  11.209   1.197
92317W        W59100  18.818  13.301   4.119
92318W        W59101   8.817   1.895  12.582
92319W        W59102  37.850   2.969  11.408
92320W        W59103   0.191   4.184  12.067
92321W        W59104  38.634  24.020   4.194
92322W        W59105  15.749  25.424   3.157
92323W        W59106   1.892  39.210   2.225
92324W        W59107  31.918  18.084  14.796
92325W        W59108   6.100  34.951  14.947
92326W        W59109  25.570   0.001  12.103
92327W        W59110  13.848  24.727  14.047
92328W        W59111   2.173  16.079   1.029
92329W        W59112  35.648   7.490  12.873
92330W        W59113  39.434   8.111   2.043
92331W        W59114  27.809  14.621  11.081
92332W        W59115  21.303  18.507   0.429
92333W        W59116  37.087  28.217   3.602
92334W        W59117   0.777  25.688   2.117
92335W        W59118   0.369  37.625   0.324
92336W        W59119  30.991  23.506  11.180
92337W        W59120  26.178   3.182   5.211
92338W        W59121  34.111  10.337  14.031
92339W        W59122  34.311  19.192  10.701
92340W        W59123  37.963   1.524  13.396
92341W        W59124  13.118  35.886   1.694
92342W        W59125  28.271  16.756   1.653
92343W        W59126  39.011  35.645  12.647
92344W        W59127   5.390  24.627  12.048
92345W        W59128   6.441  41.691  12.735
92346W        W59129  10.921   6.263   4.047
92347W        W59130  38.853  39.037   1.794
92348W        W59131  21.135  22.346  10.613
92349W        W59132   8.125  30.114   3.659
92350W        W59133   1.904  11.212   3.150
92351W        W59134  38.494  35.149  11.632
92352W        W59135  29.399  27.930  13.996
92353W        W59136  20.356  40.858  13.816
92354W        W59137  12.237  11.868  12.643
92355W        W59138  25.687  27.444   0.517
92356W        W59139  40.945   4.415   2.354
92357W        W59140  27.167  12.170   2.368
92358W        W59141  36.180  30.935   1.133
92359W        W59142  10.250  19.548   0.318
92360W        W59143  23.592  42.426   0.240
92361W        W59144  33.823  29.566  13.410
92362W        W59145  23.166  21.618   3.664
92363W        W59146  40.528  18.130  12.461
92364W        W59147   4.171  36.333  14.239
92365W        W59148  35.056  26.467   0.271
92366W        W59149  13.284  25.688  14.349
92367W        W59150  23.086  34.873   2.311
92368W        W59151  11.731  29.633  12.027
92369W        W59152  43.504   6.638   1.471
92370W        W59153  10.719   4.798   3.830
92371W        W59154  22.689  18.242  11.619
92372W        W59155  10.794  21.719   4.135
92373W        W59156  37.061   8.367  13.502
92374W        W59157  10.327  19.668   0.811
92375W        W59158  15.717  42.940  12.053
92376W        W59159   5.935   1.699   0.358
92377W        W59160  38.039   8.890  13.545
92378W        W59161  29.093  29.252   1.740
92379W        W59162  40.490  17.845  10.185
92380W        W59163   1.394  10.962   4.176
92381W        W59164  41.218  29.214   4.055
92382W        W59165  13.290   8.847  14.314
92383W        W59166  36.555  43.914   4.928
92384W        W59167  14.744  31.928   1.642
92385W        W59168  14.341  17.864  13.126
92386W        W59169   5.895   7.449   4.107
92387W        W59170   4.234  18.627  11.135
92388W        W59171   2.062   9.298   4.964
92389W        W59172   2.009  33.062  12.524
92390W        W59173  36.582  12.441  14.355
92391W        W59174  14.855  25.734   3.386
92392W        W59175  10.167  13.226   4.910
92393W        W59176   7.452  17.287  11.968
92394W        W59177  25.697   9.682  14.352
92395W        W59178  36.871   6.410   4.105
92396W        W59179   3.400  30.056   4.422
92397W        W59180  11.758  41.402  11.505
92398W        W59181  10.169  28.041   0.822
92399W        W59182  12.863  35.529   2.595
92400W        W59183  29.015   9.134  10.714
92401W        W59184   8.380  15.666  11.922
92402W        W59185  32.613  12.773   2.340
92403W        W59186  30.283  37.249  14.726
92404W        W59187  43.948  20.566   1.258
92405W        W59188  20.635  32.870  10.931
92406W        W59189  28.799  17.552  14.751
92407W        W59190  33.204  38.305   3.375
92408W        W59191   8.705  35.347   2.660
92409W        W59192   3.775  10.059   2.751
92410W        W59193   3.935  14.726   4.246
92411W        W59194  43.370   1.305  12.111
92412W        W59195  40.359  36.257  11.465
92413W        W59196  23.954  15.321   0.933
92414W        W59197  39.266  38.867  12.079
92415W        W59198   2.525  41.323   2.889
92416W        W59199  12.399  23.741  14.853
92417W        W59200  11.423  35.558  10.714
92418W        W59201   7.675  38.437   3.571
92419W        W59202  37.930  37.593  13.554
92420W        W59203  22.090  27.749   0.513
92421W        W59204  18.970   8.621  13.225
92422W        W59205  42.972   9.438  14.769
92423W        W59206  13.844  14.101  14.418
92424W        W59207  20.073   1.200   3.534
92425W        W59208   6.235  10.716  10.689
92426W        W59209  20.928  17.971   9.992
92427W        W59210  13.130  22.404   1.622
92428W        W59211  11.178  18.469  14.469
92429W        W59212   0.714  42.966  13.026
92430W        W59213  34.365   4.368   3.960
92431W        W59214  11.906   9.521   5.261
92432W        W59215  18.670  20.223  14.082
92433W        W59216   1.464  15.784   3.256
92434W        W59217  18.891  17.321   0.464
92435W        W59218  17.173   4.833   3.168
92436W        W59219  36.370  33.547  11.627
92437W        W59220  13.509  16.573   2.157
92438W        W59221  34.349  40.498  13.483
92439W        W59222  29.920   9.342  12.027
92440W        W59223  15.800  17.722  10.264
92441W        W59224   1.631  27.191  13.444
92442W        W59225  42.943  15.233   3.523
92443W        W59226  12.892  34.278  14.584
92444W        W59227  44.632  16.148   4.612
92445W        W59228   3.933  42.470  14.277
92446W        W59229  38.474   0.702  10.944
92447W        W59230  23.307   9.105   0.866
92448W        W59231  38.391  34.159  11.970
92449W        W59232  27.369  22.642  10.681
92450W        W59233  29.828   8.866   4.441
92451W        W59234   3.174  18.179   2.153
92452W        W59235   3.431  36.299  12.039
92453W        W59236  15.051  35.551  12.434
92454W        W59237  11.064  43.579  14.224
92455W        W59238  25.534  22.077   5.063
92456W        W59239   1.404  10.614  13.337
92457W        W59240  43.270   2.004  11.035
92458W        W59241   2.824  13.736   3.317
92459W        W59242  23.133  38.888  14.949
92460W        W59243  33.597  44.807  14.292
92461W        W59244  35.397  36.929   3.538
92462W        W59245  22.192  22.041  12.494
92463W        W59246  32.670   2.425   4.145
92464W        W59247  25.088  36.502  10.941
92465W        W59248  29.952  31.825   2.840
92466W        W59249  35.081  28.502  11.133
92467W        W59250  15.892  15.409  12.359
92468W        W59251  43.476  39.527  12.460
92469W        W59252  23.128  12.655  14.892
92470W        W59253  18.587  38.597   2.818
92471W        W59254  12.041  39.763  12.587
92472W        W59255  30.396  29.023   2.241
92473W        W59256  43.920  24.144   4.091
92474W        W59257  25.227  15.074  13.239
92475W        W59258  39.573  17.680  11.540
92476W        W59259  15.062  16.769   3.754
92477W        W59260   8.300  43.313  13.006
92478W        W59261  30.161   6.748   3.276
92479W        W59262  21.289   9.847  12.454
92480W        W59263  30.470  29.458   1.300
92481W        W59264  14.252  41.815  13.430
92482W        W59265  20.144  18.965   2.374
92483W        W59266  12.326   7.328   3.788
92484W        W59267  31.621  23.690  12.520
92485W        W59268  35.595  25.898  12.862
92486W        W59269   7.374   8.218   0.244
92487W        W59270  20.984  42.879   1.503
92488W        W59271  40.859   4.782   3.660
92489W        W59272  19.239   7.379  14.409
92490W        W59273  30.414  16.796   2.102
92491W        W59274  16.727   3.777   4.250
92492W        W59275   4.213  31.192  11.598
92493W        W59276  27.856  43.894  10.384
92494W        W59277  38.290  23.978  14.185
92495W        W59278  37.024   7.908   4.692
92496W        W59279  15.265  38.500   0.792
92497W        W59280  39.719  42.979  10.614
92498W        W59281  10.267  33.396   3.363
92499W        W59282   1.909  30.645   1.319
92500W        W59283  41.633  16.215  14.370
92501W        W59284   4.421   6.119   1.831
92502W        W59285  26.749  28.228   0.234
92503W        W59286  31.617  39.763  14.818
92504W        W59287  31.484  33.027  13.439
92505W        W59288  34.365  13.177   3.853
92506W        W59289  28.477   8.753   4.559
92507W        W59290  12.127  42.990  11.770
92508W        W59291  18.851   0.971  13.937
92509W        W59292  16.582  27.758  10.869
92510W        W59293  22.036  27.964   0.968
92511W        W59294  40.955  32.943  13.796
92512W        W59295  35.122   5.185  11.701
92513W        W59296  32.926  15.148  13.878
92514W        W59297  39.753  18.772   0.606
92515W        W59298  33.685  15.745  10.601
92516W        W59299  42.356  40.076   2.351
92517W        W59300  21.173  36.926   4.597
92518W        W59301  32.202   6.870  12.958
92519W        W59302  11.506  21.253   2.222
92520W        W59303  28.755   8.025   0.242
92521W        W59304  34.579  29.445  14.540
92522W        W59305  44.290   7.491  11.676
92523W        W59306  12.838  25.181  11.134
92524W        W59307  31.386  24.107   1.398
92525W        W59308  33.914   9.119  11.388
92526W        W59309  44.503  15.764  11.982
92527W        W59310   8.327   7.400  13.088
92528W        W59311  25.143   2.082  12.529
92529W        W59312   2.045  37.392  12.847
92530W        W59313  34.638  38.529   3.553
92531W        W59314  41.518  23.972   4.487
92532W        W59315  33.480  18.629   3.513
92533W        W59316   3.978  18.208   5.052
92534W        W59317   4.647  19.570  12.485
92535W        W59318  13.175  10.055  12.902
92536W        W59319   8.877  28.435   0.123
92537W        W59320   2.662  24.734  12.537
92538W        W59321  17.838  30.100  13.404
92539W        W59322   5.736  37.399  14.672
92540W        W59323  24.693  10.665   2.240
92541W        W59324   2.492  17.830  12.043
92542W        W59325  17.206   6.214  10.205
92543W        W59326   5.231   1.342  13.832
92544W        W59327  36.020  33.349  12.963
92545W        W59328   9.196  33.603   2.732
92546W        W59329  12.597  12.809   2.496
92547W        W59330  12.809  29.580  13.999
92548W        W59331  42.844  38.343  14.550
92549W        W59332  27.220  25.366   2.599
92550W        W59333  33.908  26.230   1.874
92551W        W59334  24.653  36.694  13.367
92552W        W59335   3.858  19.036   0.894
92553W        W59336  35.351  36.444   1.830
92554W        W59337   7.741   2.486   4.229
92555W        W59338  41.404  19.151  12.302
92556W        W59339  33.364  29.099  14.820
92557W        W59340   1.569   6.898  14.411
92558W        W59341  26.207  43.503   2.308
92559W        W59342  41.394  14.424  13.823
92560W        W59343  18.527  33.414  10.301
92561W        W59344  30.280  18.149   2.726
92562W        W59345   5.286   5.352  10.971
92563W        W59346   5.747  39.838   0.006
92564W        W59347  10.427   5.581  13.851
92565W        W59348   4.548  32.573  10.457
92566W        W59349  27.448   1.489  13.017
92567W        W59350  10.740  23.187  10.660
92568W        W59351  25.580  23.502   4.929
92569W        W59352  35.160   6.652   2.698
92570W        W59353  26.786  14.063   4.117
92571W        W59354  38.346  28.955  12.952
92572W        W59355  18.834   2.268  10.582
92573W        W59356  20.466  29.150   1.964
92574W        W59357  44.703  30.975   1.218
92575W        W59358  33.060   2.657   2.875
92576W        W59359  26.776   9.371  12.417
92577W        W59360  35.001  39.275   3.593
92578W        W59361  21.024  29.428  13.856
92579W        W59362  41.010  42.457  14.526
92580W        W59363   0.287   9.712  11.509
92581W        W59364  40.279   7.993  12.035
92582W        W59365   4.837  19.550  10.401
92583W        W59366  31.576  37.743   1.186
92584W        W59367  18.226  23.780  11.696
92585W        W59368   3.846  35.664   2.482
92586W        W59369  15.071  43.687   3.275
92587W        W59370  37.992   0.600  11.255
92588W        W59371  26.098   5.744  10.599
92589W        W59372  33.605  19.838   0.775
92590W        W59373  38.982   2.439   2.357
92591W        W59374   2.345  37.393  10.007
92592W        W59375   7.885  25.030  11.599
92593W        W59376  44.905   4.782  14.703
92594W        W59377  40.232  16.186   0.496
92595W        W59378  19.102  44.498  10.604
92596W        W59379  39.454  28.120   1.795
92597W        W59380  28.374  19.147   4.151
92598W        W59381  29.017  43.505   4.593
92599W        W59382  32.943  36.872   2.052
92600W        W59383  17.749  38.788   2.607
92601W        W59384  43.387  15.804   3.296
92602W        W59385  38.383  16.172   3.826
92603W        W59386   3.765   1.920   3.284
92604W        W59387  32.457  10.125   1.190
92605W        W59388  35.907  20.776   4.235
92606W        W59389   3.423  26.993  11.754
92607W        W59390  19.490  32.142   4.635
92608W        W59391   7.316  28.969   3.621
92609W        W59392  24.646  44.737  13.594
92610W        W59393  22.430  12.418  13.487
92611W        W59394   3.299  21.215  11.235
92612W        W59395  44.975  34.585  13.419
92613W        W59396  14.113  31.571  11.159
92614W        W59397  30.046  23.036   0.027
92615W        W59398   4.234  41.075  13.026
92616W        W59399  44.074  38.916   1.682
92617W        W59400  29.415  24.271   4.668
92618W        W59401   5.779  10.378  12.283
92619W        W59402  35.045   7.372   9.839
92620W        W59403  36.465  41.409  14.277
92621W        W59404  35.075  44.363  11.628
92622W        W59405  43.464  38.231  11.934
92623W        W59406  20.820  39.840   1.251
92624W        W59407  35.981   2.506  14.306
92625W        W59408  16.247  21.561  12.542
92626W        W59409  21.380   8.995  11.220
92627W        W59410  43.395  38.524   1.230
92628W        W59411  23.589  33.452   4.665
92629W        W59412   1.612  25.685   2.758
92630W        W59413   7.931  44.823   4.312
92631W        W59414  30.345  13.814  11.165
92632W        W59415  39.306   6.663   2.598
92633W        W59416  25.081  10.560  14.448
92634W        W59417  13.651  33.252   0.775
92635W        W59418  23.995  15.562  10.556
92636W        W59419  29.987  22.172  10.215
92637W        W59420  30.374  44.426  10.961
92638W        W59421  39.491  40.304  11.412
92639W        W59422   0.312  41.112   4.855
92640W        W59423  38.393  28.953   4.390
92641W        W59424   3.189  22.975   1.350
92642W        W59425  31.644  43.391   2.043
92643W        W59426   3.903   2.715   3.686
92644W        W59427  37.757  41.281  12.046
92645W        W59428  10.384   4.474   4.125
92646W        W59429  23.433   7.150  12.010
92647W        W59430  27.216  12.718  14.551
92648W        W59431  24.835  21.883  11.899
92649W        W59432   4.934  21.637   3.465
92650W        W59433  16.505  12.834  12.783
92651W        W59434  16.203  13.325   2.379
92652W        W59435  19.881  19.560  12.404
92653W        W59436  39.610  17.377   0.225
92654W        W59437  41.818  40.217  11.765
92655W        W59438   9.755  21.933   1.909
92656W        W59439  33.067  40.781  11.567
92657W        W59440  20.554   8.578   1.004
92658W        W59441  27.896  24.112  13.549
92659W        W59442  36.443  21.154   2.790
92660W        W59443  42.311  34.885   2.747
92661W        W59444   4.911  16.170   1.138
92662W        W59445  27.054  27.069   0.739
92663W        W59446   4.730  43.784  11.209
92664W        W59447   6.302  14.615  14.564
92665W        W59448  32.933  32.999   0.858
92666W        W59449  28.447  24.227   2.328
92667W        W59450   6.394  43.987   1.017
92668W        W59451  25.798  21.997  12.193
92669W        W59452  43.218  42.064   4.098
92670W        W59453  40.567  11.889  11.245
92671W        W59454  33.592  21.128  13.206
92672W        W59455   4.940  18.045   1.510
92673W        W59456   7.322   0.786   0.951
92674W        W59457  41.784  13.079   3.043
92675W        W59458  19.092  28.563  11.564
92676W        W59459  13.131  28.642  14.036
92677W        W59460   3.323   0.008  11.522
92678W        W59461  11.394  35.370   0.379
92679W        W59462  34.544  12.801   0.241
92680W        W59463  28.638  21.018   0.956
92681W        W59464  23.784   2.934  11.747
92682W        W59465   2.676  21.677  11.741
92683W        W59466  13.612  35.215   1.599
92684W        W59467  10.636   2.288  12.364
92685W        W59468  40.091  38.780   0.506
92686W        W59469   0.941   7.830   3.412
92687W        W59470  22.774   5.689   2.767
92688W        W59471  13.766  31.947   1.417
92689W        W59472  27.546  35.778   4.633
92690W        W59473   0.720  30.453   2.493
92691W        W59474  12.764  37.636  13.317
92692W        W59475  36.127   8.805  11.584
92693W        W59476  42.935  42.400   4.377
92694W        W59477   9.772  16.049   0.958
92695W        W59478  40.625   5.454   4.508
92696W        W59479  34.875  11.913   2.658
92697W        W59480  10.484  35.364   4.046
92698W        W59481  14.186   5.084   5.002
92699W        W59482  32.533   5.657   2.624
92700W        W59483  26.648  21.318   0.785
92701W        W59484  12.217  34.014   0.197
92702W        W59485  32.392   4.978  10.321
92703W        W59486   0.063  31.040  12.213
92704W        W59487  27.068  29.380   4.212
92705W        W59488  26.019   3.213  12.871
92706W        W59489  10.966   7.979  13.389
92707W        W59490  33.824  44.950   2.185
92708W        W59491   9.455  30.933   3.424
92709W        W59492  30.848  38.829  13.056
92710W        W59493  43.489  32.010   1.846
92711W        W59494  22.158  26.083  11.206
92712W        W59495  31.619  40.296   3.876
92713W        W59496  26.032   3.958  12.440
92714W        W59497  36.405   0.546  11.552
92715W        W59498   0.476  15.201  10.210
92716W        W59499  14.253  38.348  11.026
92717W        W59500  43.591  29.557  14.463
92718W        W59501  22.154  26.724  13.946
92719W        W59502  38.466   1.382  10.744
92720W        W59503  14.512  13.273   0.289
92721W        W59504   1.793   9.754  12.126
92722W        W59505  36.520  26.709  13.968
92723W        W59506  28.422  29.602   3.144
92724W        W59507  40.830  30.773   0.764
92725W        W59508  43.820  21.333  13.360
92726W        W59509   2.548  13.740  13.920
92727W        W59510  11.746  17.354   3.755
92728W        W59511   9.811  17.724   3.094
92729W        W59512  16.598  34.680  14.066
92730W        W59513  34.484  14.785   0.911
92731W        W59514  31.995  28.192  12.885
92732W        W59515  12.624  13.372  13.517
92733W        W59516  19.668   2.521  12.348
92734W        W59517  44.217   6.782   0.058
92735W        W59518  26.137  20.804   1.859
92736W        W59519  29.058  14.852   0.770
92737W        W59520  41.902  42.200  13.745
92738W        W59521  18.101  31.583  14.141
92739W        W59522  38.989  23.489  12.207
92740W        W59523  37.473   0.258   0.950
92741W        W59524  25.544  34.085   4.963
92742W        W59525  28.553  14.878   1.952
92743W        W59526  11.656  44.316  13.179
92744W        W59527  40.548  19.642   2.167
92745W        W59528  20.924   7.662  13.841
92746W        W59529  35.752  13.190  12.657
92747W        W59530   3.491  43.833  14.897
92748W        W59531  13.643  44.105   0.521
92749W        W59532  14.123  25.914   0.534
92750W        W59533  43.371  24.474   4.010
92751W        W59534  38.333   1.634  13.831
92752W        W59535   2.896  30.137  14.307
92753W        W59536  25.831  31.152   3.189
92754W        W59537  38.941  42.846  13.383
92755W        W59538  15.175   9.302  12.507
92756W        W59539  23.430  15.441   4.576
92757W        W59540   9.755  42.562   2.286
92758W        W59541  24.886   4.821   2.756
92759W        W59542  15.246  22.249   3.027
92760W        W59543  43.185  24.461   1.871
92761W        W59544  14.700  26.592   4.757
92762W        W59545  24.627  44.285  11.558
92763W        W59546  10.797   1.995   2.832
92764W        W59547   8.145  35.665   4.064
92765W        W59548  31.846  41.104  10.965
92766W        W59549   1.759  33.969   4.638
92767W        W59550  10.756  42.408   3.178
92768W        W59551  27.221  20.791   4.677
92769W        W59552  30.554  10.352   0.477
92770W        W59553  27.237  16.654  11.013
92771W        W59554  35.262  43.189   5.033
92772W        W59555  20.734  37.939  14.436
92773W        W59556   5.928  38.815  11.936
92774W        W59557  35.886  18.574  12.442
92775W        W59558  22.976  35.825  10.495
92776W        W59559   7.215   8.219  14.719
92777W        W59560  26.602  20.997   1.743
92778W        W59561   7.357  15.651   3.684
92779W        W59562  16.360  16.611  11.743
92780W        W59563  11.877  20.301   2.271
92781W        W59564  42.996   5.784   5.024
92782W        W59565  11.910  39.494  10.697
92783W        W59566   8.652  24.629  12.424
92784W        W59567  38.330  43.996   4.690
92785W        W59568  13.589  11.525  13.743
92786W        W59569  23.660  24.518  12.811
92787W        W59570  37.681  37.532   4.390
92788W        W59571  27.268  26.982   3.251
92789W        W59572   5.797   3.415  14.763
92790W        W59573  32.385  15.155   2.872
92791W        W59574   0.302  41.748  12.083
92792W        W59575  13.976  36.018  10.291
92793W        W59576  28.922  18.529   1.654
92794W        W59577  10.827  41.899  13.294
92795W        W59578  29.722   1.066   0.307
92796W        W59579   9.184  17.640   2.306
92797W        W59580  30.705   1.325  11.547
92798W        W59581  38.836  27.453  13.959
92799W        W59582  10.325  37.398  13.798
92800W        W59583  22.799   0.785  10.260
92801W        W59584   9.875  16.402  14.522
92802W        W59585  42.046  34.380  10.354
92803W        W59586  22.738   8.966   4.131
92804W        W59587   9.739  44.924  14.849
92805W        W59588  32.084   4.189   0.222
92806W        W59589  28.297   5.774  11.588
92807W        W59590  26.613   2.958  11.604
92808W        W59591  29.550  42.921   4.955
92809W        W59592   4.336  43.300   3.045
92810W        W59593  24.478   0.095  11.181
92811W        W59594   8.703  40.859  13.702
92812W        W59595  17.204  44.736  14.422
92813W        W59596   5.667  34.377   4.533
92814W        W59597  31.193  31.518   0.935
92815W        W59598  35.020   6.269   0.335
92816W        W59599  13.953   0.387  14.896
92817W        W59600  34.352   5.918   3.966
92818W        W59601  14.148  10.360  14.392
92819W        W59602   1.420  32.537  12.022
92820W        W59603  31.659  21.857   4.469
92821W        W59604  10.851  35.948  12.407
92822W        W59605  39.382   9.723  14.789
92823W        W59606  18.732   0.453   1.113
92824W        W59607  41.847  10.108  14.757
92825W        W59608  40.337  11.741   3.804
92826W        W59609  37.093  26.182   2.099
92827W        W59610  18.154  22.351  14.697
92828W        W59611  16.810  14.691   1.729
92829W        W59612  13.721  20.038  11.670
92830W        W59613   9.462  41.630  11.530
92831W        W59614  25.641  41.599  14.027
92832W        W59615   6.527   2.429  11.074
92833W        W59616   1.623  36.912   2.567
92834W        W59617  33.712  44.304   3.298
92835W        W59618  44.609  33.664   0.039
92836W        W59619   6.461  33.003  12.143
92837W        W59620   4.507   9.273   1.798
92838W        W59621   1.028  18.062  10.604
92839W        W59622   7.837  30.624   2.179
92840W        W59623  37.379  39.424  14.980
92841W        W59624  40.674  19.964  13.385
92842W        W59625   3.460  16.572  14.341
92843W        W59626  31.253  29.593  11.147
92844W        W59627  13.466  22.735  13.387
92845W        W59628  11.180  42.456   0.860
92846W        W59629  14.840  16.914  12.094
92847W        W59630  26.686  32.129  14.586
92848W        W59631   2.991  40.381   2.089
92849W        W59632  44.405  20.693  10.758
92850W        W59633  12.443   2.779   1.317
92851W        W59634  18.676  41.943   2.849
92852W        W59635   7.007  34.692  12.946
92853W        W59636  15.873   5.013   0.764
92854W        W59637  31.422  33.353  11.169
92855W        W59638  41.862  44.489  11.657
92856W        W59639   1.887  27.668   3.709
92857W        W59640  34.153  12.646  14.283
92858W        W59641  28.421  19.735  10.616
92859W        W59642  27.523   7.210  10.719
92860W        W59643  25.182  38.115   3.654
92861W        W59644  15.037  36.168   0.586
92862W        W59645  31.081   5.649   3.414
92863W        W59646  33.871  27.882  13.978
92864W        W59647  27.880   7.219  12.449
92865W        W59648  15.724  44.900   2.132
92866W        W59649  32.108  30.874   3.681
92867W        W59650  26.063  35.924  11.269
92868W        W59651  10.756  25.783   2.213
92869W        W59652  24.761   5.359  11.071
92870W        W59653  26.125  18.303   3.357
92871W        W59654  16.696  21.687  10.390
92872W        W59655  33.935  24.730   9.806
92873W        W59656  33.562  27.247   4.473
92874W        W59657  34.673  17.576  13.305
92875W        W59658   8.621  44.352   2.668
92876W        W59659  27.390  32.598  11.141
92877W        W59660   6.269   7.920  10.706
92878W        W59661  44.230  44.910   1.272
92879W        W59662  36.022  36.550   2.298
92880W        W59663   3.421  29.223  11.377
92881W        W59664   3.777  31.015  12.418
92882W        W59665   7.453  27.698   3.750
92883W        W59666   5.614  27.377   1.489
92884W        W59667  21.070   9.373   3.075
92885W        W59668  20.684  18.513   0.989
92886W        W59669  14.608  14.354   1.774
92887W        W59670   7.987  28.500  11.887
92888W        W59671  40.040  14.185  14.141
92889W        W59672  34.671  21.670   0.093
92890W        W59673  42.873  10.216   3.565
92891W        W59674  18.544  17.288   4.565
92892W        W59675   0.244  25.926  11.563
92893W        W59676  41.277  29.714   2.368
92894W        W59677  38.339   9.569  12.584
92895W        W59678   3.895   5.758  10.930
92896W        W59679  41.555  29.344  10.831
92897W        W59680  44.352  30.416  11.607
92898W        W59681  38.746  40.070  10.446
92899W        W59682  24.652  28.517  13.948
92900W        W59683  13.322  28.602  11.751
92901W        W59684   5.234  33.146   3.243
92902W        W59685  21.661  43.528  12.132
92903W        W59686  35.370   1.933   2.388
92904W        W59687  31.662  26.810   1.800
92905W        W59688  14.792  37.495   1.597
92906W        W59689   5.443  23.953   2.817
92907W        W59690  29.084  41.644  13.259
92908W        W59691  35.522   0.924  10.562
92909W        W59692  20.789  22.518   3.108
92910W        W59693   5.102   0.536   4.090
92911W        W59694  21.199   2.164   2.629
92912W        W59695  22.617  29.260  12.898
92913W        W59696   2.395  12.787   4.163
92914W        W59697  31.322   0.113   1.388
92915W        W59698  31.895  31.634  12.869
92916W        W59699  32.495   0.299   3.762
92917W        W59700   6.717  33.403   4.278
92918W        W59701   3.174   1.409   2.375
92919W        W59702  17.464  21.035   1.788
92920W        W59703  21.451   9.281   4.767
92921W        W59704  20.830  44.825   1.923
92922W        W59705  26.032  42.543  12.667
92923W        W59706  28.590   7.869   1.556
92924W        W59707  40.450  23.661  13.382
92925W        W59708  43.005   6.774   1.442
92926W        W59709  29.708   6.861  12.043
92927W        W59710  17.030  42.859   3.889
92928W        W59711  42.887   5.213   4.169
92929W        W59712  38.535  24.819  11.006
92930W        W59713  30.846   1.292  10.735
92931W        W59714  40.582  22.456   2.721
92932W        W59715  38.032  40.254   2.097
92933W        W59716   0.479  33.120   0.012
92934W        W59717  25.662  17.473  13.965
92935W        W59718  23.508  44.761   4.953
92936W        W59719  30.848   5.770  13.986
92937W        W59720   8.401  23.998  11.554
92938W        W59721  32.327   1.908  10.768
92939W        W59722   6.351  36.705  10.692
92940W        W59723  15.722   5.283   2.306
92941W        W59724  14.230  12.162  10.579
92942W        W59725  11.561   5.013   0.536
92943W        W59726  39.729  27.928   3.178
92944W        W59727  16.664  22.880  13.826
92945W        W59728  25.368  44.715   3.688
92946W        W59729  34.784  44.952   0.983
92947W        W59730  25.342  21.718  11.940
92948W        W59731   9.409   5.339   4.403
92949W        W59732  34.151  25.518  11.581
92950W        W59733  22.159  43.875  10.595
92951W        W59734  11.915  16.492  13.922
92952W        W59735  41.446  43.369   2.367
92953W        W59736  38.422  26.071   1.154
92954W        W59737  41.826   7.335  13.979
92955W        W59738   3.968  43.662   1.470
92956W        W59739   2.994   2.503  13.946
92957W        W59740  26.540  37.749  12.023
92958W        W59741  24.277  38.141  12.851
92959W        W59742   5.139  22.539   0.425
92960W        W59743  27.258  41.033  11.616
92961W        W59744   2.751  41.252  11.593
92962W        W59745  19.687  22.202  12.452
92963W        W59746  44.358  17.056   4.516
92964W        W59747   0.541  11.101   4.207
92965W        W59748  36.379  20.933   4.066
92966W        W59749  38.034  32.697   0.478
92967W        W59750   5.631  25.505  14.542
92968W        W59751  26.465  38.896   4.510
92969W        W59752  19.346  14.457   2.615
92970W        W59753   0.598  30.837  11.097
92971W        W59754  28.683  36.087   1.715
92972W        W59755   8.104  10.240  13.079
92973W        W59756  42.113  25.916  14.827
92974W        W59757  44.752  41.516   3.616
92975W        W59758  41.608  44.553   1.771
92976W        W59759  20.980  14.024  14.400
92977W        W59760  28.890   4.319   1.365
92978W        W59761  30.873   2.399   2.725
92979W        W59762  39.386   8.630  12.042
92980W        W59763  19.485  41.547  13.773
92981W        W59764  29.010  44.003   3.712
92982W        W59765  30.941   7.948  13.322
92983W        W59766  42.411  14.208  12.523
92984W        W59767  44.368  21.415  13.027
92985W        W59768  22.391   3.713  11.532
92986W        W59769   7.279  44.015   2.132
92987W        W59770  33.471   2.443   2.653
92988W        W59771  23.434  33.757   4.265
92989W        W59772  43.331   4.049  10.617
92990W        W59773  43.035  32.952  11.920
92991W        W59774  11.378  12.299   4.272
92992W        W59775  44.444  33.010  12.029
92993W        W59776  39.059   9.613   1.264
92994W        W59777  44.276   9.134  13.011
92995W        W59778   3.490  42.941   0.433
92996W        W59779  10.470  22.998   1.253
92997W        W59780   3.693  29.668   4.579
92998W        W59781   0.038   0.175   4.091
92999W        W59782  19.086  40.129  12.039
93000W        W59783   9.721  21.206   3.616
93001W        W59784  23.625   9.312  11.705
93002W        W59785   3.074  13.743  13.967
93003W        W59786  39.801  35.603  13.295
93004W        W59787  14.368   9.415  11.155
93005W        W59788  16.592  35.191  13.168
93006W        W59789  44.733  12.238   4.532
93007W        W59790  15.349  43.354  10.780
93008W        W59791  43.055  38.579  12.543
93009W        W59792  29.812  31.317   2.832
93010W        W59793   8.829   3.546   0.254
93011W        W59794   7.757  11.385   2.767
93012W        W59795  14.249  36.896  11.504
93013W        W59796  43.214   9.885   3.256
93014W        W59797   7.793  30.115  14.021
93015W        W59798  40.309  18.778   2.777
93016W        W59799  34.064   3.535  12.984
93017W        W59800  15.813  27.188  14.433
93018W        W59801   6.343   3.913   4.041
93019W        W59802   0.503  19.077   3.654
93020W        W59803  19.782  35.129   2.175
93021W        W59804   6.078  39.174   3.303
93022W        W59805  14.351  11.364  14.250
93023W        W59806  21.220  44.975   4.013
93024W        W59807  19.320  21.207  11.669
93025W        W59808  13.593  41.399   2.701
93026W        W59809  15.512  13.009   4.612
93027W        W59810  30.024  11.078   3.908
93028W        W59811  30.805  40.451   3.637
93029W        W59812  40.710  22.008   1.907
93030W        W59813  42.780   2.727  13.929
93031W        W59814   6.205  17.831  13.422
93032W        W59815  13.683   4.481   3.637
93033W        W59816  22.294   8.295   0.648
93034W        W59817   7.752   7.845   4.689
93035W        W59818   7.382  42.794  11.595
93036W        W59819   0.844   3.803   3.668
93037W        W59820  10.868  20.173  13.082
93038W        W59821  29.958   6.591  14.486
93039W        W59822  40.254  39.709  12.625
93040W        W59823  24.900  30.079  13.515
93041W        W59824  16.122   1.516   0.164
93042W        W59825  30.469  20.295  14.995
93043W        W59826  26.289  24.696   4.569
93044W        W59827  18.458  42.872  12.511
93045W        W59828  43.836  37.029   2.421
93046W        W59829  36.501   5.670  13.351
93047W        W59830  11.715  37.069   2.726
93048W        W59831   0.176  19.532   3.651
93049W        W59832   1.367   2.822   2.189
93050W        W59833   6.296  43.315   3.371
93051W        W59834   0.531   9.394   1.677
93052W        W59835  24.281  40.165   4.970
93053W        W59836  10.315  21.730  12.524
93054W        W59837   5.334  17.593   2.169
93055W        W59838  27.556  31.563  12.784
93056W        W59839  19.605   7.899  10.824
93057W        W59840   7.128  41.879  11.577
93058W        W59841  24.967  27.335  11.147
93059W        W59842  36.911  10.206  13.566
93060W        W59843  38.791  36.635  11.036
93061W        W59844  13.680  33.511  13.060
93062W        W59845   9.981  18.089   4.121
93063W        W59846  28.183  38.072   4.451
93064W        W59847   1.463  39.339  12.515
93065W        W59848   2.685  18.163   3.907
93066W        W59849  29.909  28.793   3.646
93067W        W59850   9.575  22.682  11.157
93068W        W59851   1.393   2.794   4.661
93069W        W59852   3.752  21.674   4.208
93070W        W59853   5.841  31.576   2.824
93071W        W59854   8.800  44.611  12.928
93072W        W59855  32.524  13.656   3.649
93073W        W59856   0.953  16.144  10.898
93074W        W59857  35.616   9.875   1.689
93075W        W59858  11.730  27.673  13.496
93076W        W59859  27.944  18.524   1.932
93077W        W59860  31.504  43.371  14.418
93078W        W59861  28.915  30.184   2.687
93079W        W59862  14.380   4.582  14.051
93080W        W59863  19.145  20.980   4.437
93081W        W59864  42.145   9.752   1.665
93082W        W59865  24.152   2.372   1.805
93083W        W59866  31.675  43.774   1.237
93084W        W59867  38.337  29.143   3.677
93085W        W59868   1.637  40.341   4.729
93086W        W59869  16.244  23.723  14.001
93087W        W59870  27.511  41.531  11.577
93088W        W59871  16.273  32.146   1.398
93089W        W59872  20.527   6.298  12.293
93090W        W59873  34.307  21.857   2.366
93091W        W59874   3.621  40.517  12.427
93092W        W59875  26.594  22.984  14.464
93093W        W59876  35.986  10.669  12.109
93094W        W59877  28.573   8.248   1.910
93095W        W59878  41.852  16.309  12.601
93096W        W59879   1.322   4.381   3.566
93097W        W59880  38.046  43.146   2.963
93098W        W59881  38.320  12.579   3.966
93099W        W59882   6.690  24.770   3.213
93100W        W59883  18.793  32.059  10.673
93101W        W59884  24.451   7.435   2.825
93102W        W59885  29.522   3.877  13.609
93103W        W59886  19.055   7.232   2.404
93104W        W59887  35.257  16.296  11.555
93105W        W59888  35.512  25.464  11.896
93106W        W59889  27.660  24.629   2.142
93107W        W59890   3.391  19.806  10.788
93108W        W59891  17.497  40.722  13.903
93109W        W59892  32.342  34.039  14.907
93110W        W59893  29.983  14.549  14.472
93111W        W59894   0.300  14.812  12.037
93112W        W59895  30.529  42.047   3.850
93113W        W59896  12.208  35.511  14.987
93114W        W59897  21.787  21.096  13.974
93115W        W59898  13.223  31.897  10.723
93116W        W59899   7.082  28.772   2.831
93117W        W59900  38.325  25.062  12.326
93118W        W59901   5.335   5.764   3.670
93119W        W59902  23.685  20.014  14.897
93120W        W59903  18.686   2.980  13.920
93121W        W59904   5.973  38.793   4.121
93122W        W59905  10.053   4.241   3.738
93123W        W59906  34.111   3.404   0.415
93124W        W59907  33.880  32.140   2.808
93125W        W59908  17.105  10.293   2.348
93126W        W59909  10.675  11.875  13.016
93127W        W59910  28.875  41.302   4.709
93128W        W59911  42.559  38.533  12.340
93129W        W59912  20.284  40.350  13.965
93130W        W59913   6.235   4.278  11.431
93131W        W59914  36.052  39.312   2.747
93132W        W59915  42.766  44.281   3.798
93133W        W59916   9.201  12.111   4.959
93134W        W59917  23.133   3.553  10.246
93135W        W59918  20.771  43.707   1.311
93136W        W59919  18.769   6.401   4.671
93137W        W59920  27.332  18.984  11.282
93138W        W59921   1.867  22.189  12.511
93139W        W59922  13.751  16.994   2.327
93140W        W59923  22.207  34.356   2.358
93141W        W59924  23.340   4.818   0.229
93142W        W59925  29.017  32.118   1.409
93143W        W59926  11.643  24.477   0.836
93144W        W59927  18.910  25.588  12.431
93145W        W59928  14.112  19.096  10.749
93146W        W59929  18.075  44.572  13.468
93147W        W59930  40.759  11.934  12.067
93148W        W59931  19.685  20.834  10.739
93149W        W59932  36.058  42.024   3.206
93150W        W59933  42.592  35.447  14.078
93151W        W59934   5.717  32.349  10.589
93152W        W59935  32.569  40.891   4.861
93153W        W59936  32.326   4.055  11.065
93154W        W59937  44.597  43.597   1.077
93155W        W59938   0.003   0.380   4.903
93156W        W59939  28.679   5.698   2.025
93157W        W59940   6.675   7.960  14.156
93158W        W59941   4.975  30.567   1.825
93159W        W59942   8.276  38.032   4.195
93160W        W59943   3.211  30.563  13.409
93161W        W59944  34.100   6.239   1.350
93162W        W59945   3.767   9.195  14.817
93163W        W59946  33.416  17.662  10.117
93164W        W59947  27.909  23.819  10.722
93165W        W59948  27.888   6.917   2.142
93166W        W59949  14.338  25.577   5.009
93167W        W59950  11.377  30.951   1.261
93168W        W59951  33.995  19.735   2.911
93169W        W59952  20.967  30.109   4.722
93170W        W59953  18.692  11.871  10.226
93171W        W59954   6.271  18.346   1.685
93172W        W59955  33.986  35.004  13.015
93173W        W59956  30.010  37.258   4.886
93174W        W59957   8.375  14.265  14.978
93175W        W59958  33.436  42.683  10.455
93176W        W59959  19.015  21.447  11.060
93177W        W59960   6.731  44.522  11.630
93178W        W59961  29.872  25.495   3.833
93179W        W59962  43.595  17.367   4.618
93180W        W59963  32.703  25.097   3.059
93181W        W59964  15.827  41.651  10.609
93182W        W59965   5.356  33.807   1.898
93183W        W59966  28.235  20.151   2.608
93184W        W59967  40.052  18.048   1.417
93185W        W59968  18.158  34.260  11.582
93186W        W59969  43.406  31.551   1.647
93187W        W59970   3.930  23.416   1.547
93188W        W59971  41.371  20.976  10.741
93189W        W59972  30.301  44.352   1.736
93190W        W59973  27.393  14.751   2.263
93191W        W59974   2.716  30.289   0.189
93192W        W59975   6.802  27.088  10.696
93193W        W59976  16.840  20.480  12.054
93194W        W59977  27.107   6.474  14.789
93195W        W59978  32.848  26.727   4.986
93196W        W59979  27.655   1.256   0.487
93197W        W59980  23.029  21.026  14.365
93198W        W59981   8.703  39.949   3.784
93199W        W59982  18.102  38.476  13.832
93200W        W59983   5.326  14.276   2.682
93201W        W59984  24.290  39.851   4.521
93202W        W59985  13.070  19.225  13.957
93203W        W59986  41.578  21.909  13.233
93204W        W59987  20.055  28.031   3.569
93205W        W59988  20.602  44.676  11.917
93206W        W59989  27.460   6.904  11.652
93207W        W59990   2.850  20.077  12.017
93208W        W59991  28.383  13.516  13.483
93209W        W59992  30.520  25.065  13.612
93210W        W59993  11.401  42.929  14.777
93211W        W59994   4.282   7.327  12.410
93212W        W59995  42.514   3.734  14.886
93213W        W59996   7.441   2.656  14.843
93214W        W59997  14.213  17.674  10.660
93215W        W59998  26.157  41.592   3.532
93216W        W59999  17.761  33.432   3.270
93217W        W60000  11.617  15.077   0.776
93218W        W60001  17.160  37.146  12.098
93219W        W60002  30.183  24.707  11.198
93220W        W60003  18.653  25.598  14.940
93221W        W60004  32.959  39.438  13.977
93222W        W60005   5.972  42.020  11.117
93223W        W60006  25.340  28.101  14.981
93224W        W60007  26.425  23.396  11.971
93225W        W60008  22.024   3.122   3.241
93226W        W60009  10.919  44.311  12.197
93227W        W60010  15.244  35.907  13.594
93228W        W60011   8.807  39.438  14.258
93229W        W60012  13.556  21.451   1.665
93230W        W60013  23.207  31.486   1.402
93231W        W60014  22.348  24.293  14.322
93232W        W60015  10.942   0.858  14.533
93233W        W60016  22.762  25.554   0.801
93234W        W60017  30.994  42.251   0.805
93235W        W60018  40.319  32.180  13.991
93236W        W60019  32.342  18.222  11.122
93237W        W60020  20.515  40.525  11.138
93238W        W60021  34.316  22.671   0.386
93239W        W60022  40.464  17.520  14.769
93240W        W60023  14.217  35.886   9.854
93241W        W60024  42.533   5.194  10.239
93242W        W60025  39.216  40.961  12.014
93243W        W60026  21.639  40.678   2.221
93244W        W60027  44.154   4.821   3.762
93245W        W60028  15.598  24.913   9.910
93246W        W60029  10.392  33.264  13.818
93247W        W60030   2.660  20.261   2.802
93248W        W60031  12.202   2.093   2.790
93249W        W60032  11.057   3.125  10.534
93250W        W60033  10.933  12.498  14.523
93251W        W60034  41.941  42.587  13.395
93252W        W60035  21.909  15.385  12.057
93253W        W60036  33.032  33.932  11.405
93254W        W60037  32.405  13.599  13.559
93255W        W60038   2.976  18.675  14.821
93256W        W60039   0.447  21.137  14.944
93257W        W60040   9.679  21.221  13.013
93258W        W60041  15.226  34.355  14.327
93259W        W60042  35.063  38.937   0.460
93260W        W60043  10.066  29.863   0.719
93261W        W60044  34.382  23.674   2.324
93262W        W60045  40.412   1.650   0.886
93263W        W60046  34.710  19.316   1.877
93264W        W60047  10.533  42.403   1.386
93265W        W60048  13.897   8.530  11.478
93266W        W60049  44.736  19.554   1.792
93267W        W60050  33.153  29.091   4.289
93268W        W60051   3.438  41.606   3.747
93269W        W60052   3.767  42.924  12.107
93270W        W60053  15.678  22.195  11.595
93271W        W60054   7.174  10.350   4.550
93272W        W60055  12.101  18.130   0.204
93273W        W60056  44.700   8.209   2.327
93274W        W60057  36.318  44.437   0.801
93275W        W60058  10.992  24.745  13.861
93276W        W60059  43.582   7.781  11.201
93277W        W60060  41.323  27.961  10.786
93278W        W60061  44.898   0.821   1.957
93279W        W60062   6.335  13.598   0.306
93280W        W60063   9.928   0.973   4.597
93281W        W60064  22.907  16.128  13.609
93282W        W60065  33.582  16.232  14.679
93283W        W60066   4.154  34.145  14.758
93284W        W60067  33.831  24.050  13.684
93285W        W60068   6.116   4.826   5.060
93286W        W60069  26.776  44.911   1.755
93287W        W60070  10.696  17.086   4.082
93288W        W60071  19.053  21.706  13.467
93289W        W60072  16.631  20.534   2.820
93290W        W60073  28.106   9.691   2.758
93291W        W60074  23.072  24.411  12.119
93292W        W60075   0.692  18.574   0.403
93293W        W60076   1.772   1.351   2.916
93294W        W60077  29.567   1.478   1.509
93295W        W60078  13.717  18.498   2.360
93296W        W60079  31.126   9.105  12.963
93297W        W60080  35.824  15.476   4.920
93298W        W60081  24.071  20.335  12.896
93299W        W60082  26.048  20.310   2.858
93300W        W60083  43.162  26.653   4.594
93301W        W60084  40.915  44.748  13.443
93302W        W60085  12.779  39.085   2.694
93303W        W60086  28.560  44.720  11.253
93304W        W60087  28.806  24.122   4.092
93305W        W60088  44.199   2.771  12.704
93306W        W60089   9.818  21.046  14.615
93307W        W60090  30.928  26.292   1.860
93308W        W60091   2.719  44.245  12.538
93309W        W60092  43.018   6.828   2.384
93310W        W60093   0.894   1.861  13.109
93311W        W60094  41.519  42.942  10.224
93312W        W60095  24.110   0.341  11.451
93313W        W60096  18.193  44.362   4.387
93314W        W60097  15.782  14.677  11.134
93315W        W60098   7.851  10.721  11.009
93316W        W60099  26.622  34.925   0.964
93317W        W60100   6.367   6.725   4.371
93318W        W60101  12.167  33.198  11.015
93319W        W60102   3.777  23.236  13.940
93320W        W60103   8.645  35.028   4.504
93321W        W60104  14.726  30.554   1.738
93322W        W60105  12.365  24.962  13.334
93323W        W60106  12.247  43.852   0.729
93324W        W60107  18.699  19.102   2.304
93325W        W60108   1.894  36.790  14.437
93326W        W60109  32.500  24.635  14.993
93327W        W60110  21.814  14.394   3.667
93328W        W60111   4.723   3.183  13.367
93329W        W60112  40.377  20.675   2.433
93330W        W60113  15.901  13.308  12.094
93331W        W60114  37.949  28.893  14.311
93332W        W60115  13.377  24.501   0.412
93333W        W60116  29.017  17.195  11.183
93334W        W60117  40.442   3.219   4.730
93335W        W60118  18.789   5.418   3.638
93336W        W60119  33.447   4.008   0.352
93337W        W60120  13.280   7.388   1.172
93338W        W60121  28.256  28.432  10.649
93339W        W60122  21.310  18.361   0.918
93340W        W60123  17.026  32.391  10.502
93341W        W60124  24.756   4.499   4.479
93342W        W60125  14.096  16.487   3.827
93343W        W60126  20.643   9.721   1.711
93344W        W60127  36.821  24.248   1.880
93345W        W60128  15.722   4.971   5.082
93346W        W60129   5.685  41.363  11.584
93347W        W60130  17.656  39.893  11.919
93348W        W60131  34.116  43.990  14.877
93349W        W60132   5.949  43.910   1.321
93350W        W60133  28.731  35.426  10.590
93351W        W60134   7.468   7.610   2.417
93352W        W60135  11.138  13.422  14.188
93353W        W60136  34.223  31.435   2.834
93354W        W60137   7.695  37.920   2.389
93355W        W60138  42.823  26.677   3.570
93356W        W60139  19.230   5.124   0.377
93357W        W60140  11.298  16.845   3.165
93358W        W60141   3.238  30.133   1.370
93359W        W60142  20.242   2.251   3.088
93360W        W60143  38.607   3.392  12.431
93361W        W60144   1.187  31.840   2.351
93362W        W60145   8.734  35.062   4.995
93363W        W60146  15.345  34.035  12.413
93364W        W60147  17.121   4.893   0.734
93365W        W60148  34.985  15.067  13.422
93366W        W60149   5.866  10.274  12.771
93367W        W60150  35.508   5.809  13.754
93368W        W60151   3.951   3.409  12.055
93369W        W60152  39.568  36.064  11.158
93370W        W60153  38.885   7.992  14.902
93371W        W60154  26.055  22.852   2.702
93372W        W60155  42.189  17.427  10.128
93373W        W60156  20.927  20.728  11.033
93374W        W60157   9.914  10.662  11.175
93375W        W60158  39.281  13.267  11.062
93376W        W60159  33.597  11.365   4.716
93377W        W60160  33.229  34.610   0.873
93378W        W60161  26.776  13.063   4.385
93379W        W60162  30.073  33.714  12.732
93380W        W60163  34.568  10.564   4.099
93381W        W60164  29.513  23.393   3.151
93382W        W60165  10.429  37.329   1.925
93383W        W60166   4.250   6.137  12.142
93384W        W60167  13.695  26.135   2.683
93385W        W60168  28.683   5.455  12.456
93386W        W60169  44.485  26.454  14.387
93387W        W60170  25.964  44.431  12.348
93388W        W60171  11.239  21.572  13.534
93389W        W60172  13.153  41.032   0.730
93390W        W60173  36.427  23.539   3.115
93391W        W60174  43.382  18.214  12.180
93392W        W60175  23.460  20.097  10.679
93393W        W60176  39.022   1.587  11.428
93394W        W60177  19.666  21.769   2.324
93395W        W60178  13.670  26.568  13.997
93396W        W60179  32.945   0.019  11.410
93397W        W60180   5.689  35.577   0.659
93398W        W60181  24.428   7.725   4.413
93399W        W60182  15.164  13.701   3.753
93400W        W60183  16.489  17.129  11.601
93401W        W60184  31.895  17.959   1.524
93402W        W60185   9.146  11.304  14.873
93403W        W60186  28.333  36.217   0.738
93404W        W60187  26.625  35.858   4.468
93405W        W60188  21.750  13.393   2.684
93406W        W60189  22.072  16.517   0.272
93407W        W60190  28.940  21.205  13.724
93408W        W60191   9.839   9.078  11.982
93409W        W60192  15.089  24.584   3.161
93410W        W60193  13.758   6.908  11.687
93411W        W60194  15.775  30.595   4.819
93412W        W60195  26.284  13.265  10.762
93413W        W60196   0.488   1.738   3.941
93414W        W60197  19.919   0.184  10.718
93415W        W60198   5.395  19.446   2.677
93416W        W60199  17.253  42.079  12.955
93417W        W60200  41.011   0.338   3.258
93418W        W60201  29.151  41.343  11.996
93419W        W60202  10.298  41.432   1.249
93420W        W60203  24.538  24.564  12.152
93421W        W60204  13.285  22.585  11.601
93422W        W60205   7.409  15.979   0.022
93423W        W60206   1.966   8.499   2.738
93424W        W60207  10.713   9.803  11.024
93425W        W60208  41.280  33.482   4.454
93426W        W60209  34.519  20.584  14.107
93427W        W60210  25.020  44.271   0.741
93428W        W60211  43.324  40.298   5.017
93429W        W60212   6.952  21.255   4.806
93430W        W60213  33.293  43.357  11.218
93431W        W60214  29.070  12.711  10.551
93432W        W60215  27.995  24.024  11.932
93433W        W60216  32.010  13.731   2.413
93434W        W60217  30.197  36.693  10.767
93435W        W60218  37.610   5.890   1.228
93436W        W60219  41.772  27.552   0.497
93437W        W60220  31.859   5.471  12.715
93438W        W60221  43.087  40.146  13.573
93439W        W60222  37.807   8.431   4.271
93440W        W60223   0.479  21.240   3.157
93441W        W60224  27.687   3.785   3.513
93442W        W60225  30.945  23.393  10.316
93443W        W60226   3.157  27.100   1.781
93444W        W60227  43.511  30.108   1.731
93445W        W60228  31.530   3.446  12.541
93446W        W60229  19.562  15.246   2.064
93447W        W60230  39.581  35.002   4.264
93448W        W60231  42.892  18.807  14.503
93449W        W60232  19.152  21.561  12.061
93450W        W60233  44.032  10.869  11.858
93451W        W60234  15.036  44.912  14.337
93452W        W60235  42.500  14.127   2.275
93453W        W60236  27.647  43.278  10.981
93454W        W60237   2.850   5.775   0.447
93455W        W60238   6.383  21.791   0.753
93456W        W60239  19.220  24.439  14.911
93457W        W60240  28.651  28.118  13.592
93458W        W60241   9.099   1.584   4.147
93459W        W60242  17.546  32.595   3.923
93460W        W60243  18.718   0.051  12.584
93461W        W60244  44.591  20.901  11.207
93462W        W60245  14.498  23.268   3.254
93463W        W60246  40.624  26.733  13.992
93464W        W60247  40.029  18.271  11.959
93465W        W60248  30.335  34.960  12.028
93466W        W60249  24.333  33.696  14.776
93467W        W60250   4.243  31.484  12.034
93468W        W60251  28.029  25.607  13.407
93469W        W60252  12.073  44.610   0.921
93470W        W60253   7.927  16.322   1.802
93471W        W60254  11.279  40.759  12.571
93472W        W60255  40.745  31.659  11.306
93473W        W60256  35.382  18.271   2.816
93474W        W60257  39.032  16.594  12.378
93475W        W60258  25.492  19.340   3.720
93476W        W60259  43.526   2.338  13.539
93477W        W60260   1.915  29.381   0.848
93478W        W60261   1.169  25.393   1.949
93479W        W60262  44.782  38.045   1.387
93480W        W60263   3.426  19.061   3.726
93481W        W60264  10.242  32.865   4.224
93482W        W60265  32.949  39.498   1.144
93483W        W60266  21.961  16.185  12.553
93484W        W60267  26.586  30.657  10.409
93485W        W60268  42.135  32.402  11.117
93486W        W60269   3.098  41.924  12.606
93487W        W60270  12.487  16.759  13.382
93488W        W60271  41.188  15.805   4.377
93489W        W60272  24.195  41.687  12.959
93490W        W60273  12.614  33.497  12.054
93491W        W60274  31.539  31.122   4.451
93492W        W60275  30.750  20.689   2.071
93493W        W60276  40.263   0.843   2.709
93494W        W60277  11.353  23.409  13.407
93495W        W60278  39.489   4.789   0.424
93496W        W60279  39.844  22.592  13.928
93497W        W60280  44.619  10.679  14.001
93498W        W60281   8.870  12.045   0.963
93499W        W60282   9.739  33.099  11.177
93500W        W60283  19.730  38.184   2.461
93501W        W60284  41.520  27.593   1.966
93502W        W60285  33.748  40.746   2.848
93503W        W60286  38.348   9.296   1.730
93504W        W60287   2.970   7.020  13.477
93505W        W60288  41.109   3.440   0.306
93506W        W60289  10.113  28.999  12.510
93507W        W60290   4.441  13.004   1.541
93508W        W60291   4.298  19.684   3.842
93509W        W60292   1.883  42.872   4.969
93510W        W60293   4.992   0.873  14.542
93511W        W60294  29.420  15.757   2.547
93512W        W60295  25.270   5.293   1.153
93513W        W60296  34.352  17.746  14.838
93514W        W60297  28.277   7.624  10.707
93515W        W60298  27.566   0.519   4.238
93516W        W60299  10.722   8.202   1.462
93517W        W60300  14.555   6.646   3.796
93518W        W60301  24.068   5.778   0.954
93519W        W60302  25.362  44.508   3.169
93520W        W60303  11.361   2.469   3.394
93521W        W60304   5.412  20.545  11.177
93522W        W60305  44.481   1.437  10.882
93523W        W60306   3.940  21.804  12.255
93524W        W60307   8.799  24.569  14.384
93525W        W60308  21.504  13.627   5.110
93526W        W60309  20.270   3.141  11.939
93527W        W60310  39.613   7.350  12.456
93528W        W60311  11.096  32.021  11.229
93529W        W60312  23.579  40.577  13.683
93530W        W60313   3.731  13.438   0.288
93531W        W60314  20.619   4.862  11.111
93532W        W60315   5.998  14.292   0.282
93533W        W60316  37.315   0.226   2.885
93534W        W60317  11.735  29.083  12.045
93535W        W60318  31.107  23.120   4.021
93536W        W60319  30.659   0.863   0.685
93537W        W60320   2.624   4.877  10.938
93538W        W60321  15.132  15.547  13.769
93539W        W60322  40.535  29.843   4.222
93540W        W60323  41.039  15.041  13.537
93541W        W60324  22.592   3.040  12.533
93542W        W60325   4.848  44.805  13.557
93543W        W60326  14.875   8.712  12.932
93544W        W60327  21.625  15.155   0.852
93545W        W60328  32.387  22.269  12.131
93546W        W60329   6.021  15.294  13.971
93547W        W60330  25.896  29.124  13.381
93548W        W60331  23.657  30.524  11.500
93549W        W60332  33.695  22.672   4.838
93550W        W60333  12.218   1.515   2.300
93551W        W60334  39.784  33.941  11.633
93552W        W60335   9.454   6.052  12.940
93553W        W60336  34.166  14.110  14.521
93554W        W60337   6.261  26.229  12.696
93555W        W60338   1.760   0.516   4.753
93556W        W60339  25.016   4.420  14.454
93557W        W60340  19.505  39.935   3.578
93558W        W60341  18.225  13.195  14.871
93559W        W60342  39.112  22.253   1.221
93560W        W60343  21.249  28.118  12.988
93561W        W60344  31.937  30.461  10.786
93562W        W60345  12.666  10.937   4.057
93563W        W60346   5.405  38.986  14.990
93564W        W60347  26.968  23.640  11.910
93565W        W60348  43.981  35.937  14.659
93566W        W60349  12.683  12.323  13.550
93567W        W60350  10.842   1.556   3.135
93568W        W60351  20.767  31.119   4.086
93569W        W60352  42.136  34.098  14.703
93570W        W60353  44.298  16.553   4.561
93571W        W60354  29.917  19.659   4.856
93572W        W60355  34.066  14.099   1.902
93573W        W60356  25.959  12.094  11.999
93574W        W60357  36.766  26.981   3.218
93575W        W60358   3.819  38.512   2.384
93576W        W60359   4.297  41.131   4.117
93577W        W60360   5.496  15.828  13.362
93578W        W60361   2.695   7.016  12.561
93579W        W60362  19.703  33.896   2.237
93580W        W60363  23.760  42.313  10.369
93581W        W60364  15.695  32.043  12.306
93582W        W60365  22.865   4.202  13.120
93583W        W60366  44.470  31.990   1.678
93584W        W60367   9.211   5.775  11.063
93585W        W60368  36.378  27.928   4.127
93586W        W60369   0.638  42.429   3.303
93587W        W60370   2.644  35.284  12.066
93588W        W60371  42.456  31.599  10.744
93589W        W60372  41.656   7.867   3.888
93590W        W60373   9.812  37.866   1.326
93591W        W60374   4.367  37.484  13.441
93592W        W60375  42.685  28.845   1.671
93593W        W60376   4.546  33.275   1.336
93594W        W60377  36.084  39.852   3.778
93595W        W60378  25.017  41.047  13.561
93596W        W60379  22.871   3.524  10.698
93597W        W60380  38.066   8.323  14.301
93598W        W60381  14.450  13.307   1.677
93599W        W60382  20.283  32.780  14.574
93600W        W60383  22.969  29.066   3.272
93601W        W60384  24.312   8.677   4.158
93602W        W60385  30.433  32.089   2.786
93603W        W60386   4.176  24.172   0.476
93604W        W60387  10.299  43.719  10.744
93605W        W60388  40.834  24.226  12.920
93606W        W60389  19.174  28.373  13.788
93607W        W60390  40.299  37.529   0.456
93608W        W60391  10.420  44.001  14.303
93609W        W60392  19.531  41.979  13.003
93610W        W60393  12.141  33.484   1.694
93611W        W60394  41.506  32.389  10.761
93612W        W60395  12.334  29.905  11.106
93613W        W60396   5.213  32.867  12.911
93614W        W60397  27.594   1.274  13.493
93615W        W60398  18.218  12.896  14.445
93616W        W60399  19.470  40.948  12.050
93617W        W60400   6.884  38.379  13.847
93618W        W60401  21.873  34.074   2.047
93619W        W60402  11.776  13.583   4.085
93620W        W60403  25.573   2.352   0.952
93621W        W60404   9.707  42.395   2.777
93622W        W60405  15.907  29.264  12.167
93623W        W60406  25.151  13.620  13.367
93624W        W60407  25.155   3.302  14.397
93625W        W60408  19.713  37.892   2.018
93626W        W60409  15.204  23.587   1.552
93627W        W60410  33.046   8.753  14.358
93628W        W60411  10.315  34.136  12.013
93629W        W60412   9.151  33.534  11.663
93630W        W60413  29.574  39.959  10.392
93631W        W60414  29.651  11.528   1.571
93632W        W60415  15.832  18.608   4.089
93633W        W60416  33.177   0.705   0.750
93634W        W60417  23.947  40.031   5.335
93635W        W60418  14.492  42.444  14.943
93636W        W60419  24.093  11.529  13.918
93637W        W60420  14.677  40.293   0.243
93638W        W60421  44.851  13.551  11.802
93639W        W60422   7.748  38.963   2.392
93640W        W60423  14.045  30.534  14.837
93641W        W60424  41.493  18.791   0.450
93642W        W60425  35.367  14.929   2.261
93643W        W60426  29.500  34.765  10.874
93644W        W60427  44.031  34.067   0.863
93645W        W60428  37.033  16.721   4.432
93646W        W60429   9.230  25.436   0.990
93647W        W60430   7.763   8.359   1.171
93648W        W60431  21.552  30.222   0.777
93649W        W60432  31.543  25.091   2.606
93650W        W60433  14.525  37.921   1.734
93651W        W60434   5.258  32.581   3.598
93652W        W60435  43.685  34.452  10.306
93653W        W60436  42.360  16.260  11.559
93654W        W60437  13.836   9.342   1.489
93655W        W60438   8.507   5.279   4.093
93656W        W60439  27.105  11.416   3.497
93657W        W60440   2.889  10.449  10.692
93658W        W60441  27.249  44.689   2.659
93659W        W60442  24.537   9.873   1.863
93660W        W60443   9.591  43.330  11.686
93661W        W60444  20.510  26.359   0.278
93662W        W60445   8.218  42.169  12.230
93663W        W60446   4.312  42.980   1.446
93664W        W60447  21.663  27.728  11.770
93665W        W60448  20.048   0.992   2.248
93666W        W60449   0.959  10.411  12.110
93667W        W60450  29.850  43.879  11.092
93668W        W60451  33.239  29.466   0.244
93669W        W60452  10.282   3.356   1.685
93670W        W60453  20.210   5.370  11.050
93671W        W60454   4.298   6.762   1.096
93672W        W60455  37.501  42.320   4.961
93673W        W60456  34.374  16.238   2.652
93674W        W60457  29.584   9.856  14.843
93675W        W60458  22.153  29.010  13.631
93676W        W60459  11.474  25.539   3.214
93677W        W60460  28.206  12.561  13.145
93678W        W60461   8.217  24.032   2.933
93679W        W60462  13.270  11.176  11.678
93680W        W60463  43.285   4.257   0.802
93681W        W60464   4.460  40.567   0.403
93682W        W60465  13.681  10.099  12.429
93683W        W60466  21.668  42.835  13.992
93684W        W60467  12.935  30.924   0.308
93685W        W60468   8.598  43.558   0.415
93686W        W60469  42.452  26.226  13.032
93687W        W60470  31.834   2.284   3.010
93688W        W60471   6.889  29.412  10.630
93689W        W60472  35.751  16.178   0.306
93690W        W60473   7.087  23.787   3.157
93691W        W60474  38.599   4.389  14.203
93692W        W60475  32.549  11.556  14.530
93693W        W60476  22.831  22.171  13.860
93694W        W60477   4.793   4.027  11.190
93695W        W60478  28.387   8.512   2.339
93696W        W60479  29.487  11.878  14.779
93697W        W60480   2.191   6.320   0.449
93698W        W60481  38.949  36.534  11.530
93699W        W60482  25.718  30.928   4.608
93700W        W60483  18.200   3.624  10.727
93701W        W60484  38.879   0.056  12.524
93702W        W60485  31.645  42.847   0.288
93703W        W60486  18.168  19.344  14.466
93704W        W60487  35.126  12.230   1.773
93705W        W60488  24.558   6.654   4.575
93706W        W60489  22.791  18.555   3.069
93707W        W60490  12.604  43.201   0.416
93708W        W60491   4.694  41.465  13.533
93709W        W60492   4.855  19.491   3.174
93710W        W60493   2.642  34.963   3.698
93711W        W60494   3.187  25.105  11.793
93712W        W60495   6.233  22.730   1.949
93713W        W60496  14.757  32.434   1.868
93714W        W60497  23.924  23.116  11.073
93715W        W60498  17.874  26.208   2.033
93716W        W60499  28.121  19.122  13.985
93717W        W60500  27.078  30.072  13.250
93718W        W60501  38.434   6.742  13.848
93719W        W60502  39.072   2.224  13.573
93720W        W60503  42.466  10.926   3.759
93721W        W60504  40.034   6.110   3.347
93722W        W60505  30.430  42.968   4.191
93723W        W60506  18.094  33.389   1.269
93724W        W60507  38.933  39.410   0.473
93725W        W60508   2.333   3.134  13.069
93726W        W60509  20.129  24.110  12.423
93727W        W60510  31.148   5.965  11.567
93728W        W60511  42.045   7.125  14.413
93729W        W60512   2.986   6.484  13.422
93730W        W60513  28.489  18.531   1.981
93731W        W60514   2.126  40.845   3.606
93732W        W60515  17.722  36.097  13.737
93733W        W60516   0.165  11.723  11.986
93734W        W60517  12.638   1.205  12.211
93735W        W60518   3.293  10.686   0.837
93736W        W60519   7.767  38.702   4.816
93737W        W60520  43.500  32.988   4.897
93738W        W60521  42.424  31.332   4.549
93739W        W60522  13.583  30.722  13.924
93740W        W60523  27.198  10.313   0.208
93741W        W60524   6.304  31.831  13.458
93742W        W60525  43.414  12.230   3.299
93743W        W60526  27.660  14.888   2.686
93744W        W60527   8.671  39.782   3.286
93745W        W60528  41.782  43.626   1.729
93746W        W60529  36.329  28.040  11.749
93747W        W60530   0.711  44.268   3.741
93748W        W60531   8.933  35.359   0.534
93749W        W60532  25.097  28.224  10.648
93750W        W60533  13.688  23.084   0.376
93751W        W60534  40.444  23.042  13.855
93752W        W60535   4.905  35.550  11.260
93753W        W60536  30.277  24.067  10.755
93754W        W60537  37.925  38.610  11.049
93755W        W60538  42.690   3.331   3.912
93756W        W60539  18.794  37.356   0.054
93757W        W60540  38.585   7.777  11.636
93758W        W60541  24.371  22.105  14.945
93759W        W60542  37.544  37.869   2.701
93760W        W60543  39.854  26.692  11.556
93761W        W60544  11.211  30.578  10.496
93762W        W60545  36.066  11.207   2.842
93763W        W60546  36.932  42.348   2.374
93764W        W60547  36.436  14.931   3.779
93765W        W60548  11.697  32.687  13.630
93766W        W60549  41.018  37.327   0.942
93767W        W60550   6.211  12.402  13.402
93768W        W60551  34.718  44.994  12.614
93769W        W60552  16.502  16.475   1.778
93770W        W60553  15.191  15.125   1.250
93771W        W60554  13.330  23.448  11.175
93772W        W60555  11.600   9.808  10.790
93773W        W60556   3.470  28.229  11.253
93774W        W60557  19.564   7.315   2.561
93775W        W60558  21.093  34.460  11.551
93776W        W60559  18.320  27.201  13.573
93777W        W60560  15.972   3.637   0.301
93778W        W60561  32.919   6.164   3.093
93779W        W60562  10.904  41.409   4.255
93780W        W60563   3.517  31.035   0.879
93781W        W60564  11.811   1.103   3.208
93782W        W60565  15.217  13.709   2.713
93783W        W60566  22.657  38.292   9.667
93784W        W60567  28.458  15.308  11.506
93785W        W60568  25.642  20.755   2.029
93786W        W60569   1.233  18.578  10.664
93787W        W60570  19.569  17.322  11.624
93788W        W60571  28.547   3.439   4.268
93789W        W60572  24.188  30.286   3.596
93790W        W60573  26.636  30.134   2.620
93791W        W60574  20.119  25.144  10.459
93792W        W60575  26.674  26.074   2.783
93793W        W60576   4.396   9.485   4.479
93794W        W60577  31.145  28.831  10.116
93795W        W60578  34.385  44.776   2.870
93796W        W60579   3.392   9.867  14.946
93797W        W60580  10.827  26.993  13.119
93798W        W60581  18.240  33.601   3.438
93799W        W60582  44.037  34.438   1.688
93800W        W60583  23.467  28.763  11.864
93801W        W60584   7.835  14.047   1.490
93802W        W60585   5.599  32.584   4.405
93803W        W60586   7.008  17.278   3.809
93804W        W60587  39.956  23.700  12.052
93805W        W60588  31.949   9.457   2.502
93806W        W60589  24.985   1.743  14.939
93807W        W60590  15.298  44.256  14.056
93808W        W60591  43.413  21.788  14.914
93809W        W60592   8.973  42.280  13.144
93810W        W60593  27.504   6.621   1.976
93811W        W60594  17.742  39.892  13.931
93812W        W60595  31.347   2.502  11.588
93813W        W60596  11.256   6.895   5.029
93814W        W60597  23.447  27.682  12.219
93815W        W60598  12.261  17.102  12.777
93816W        W60599  12.866  34.349  12.449
93817W        W60600  24.452  35.335   4.118
93818W        W60601  28.288  26.148  12.392
93819W        W60602  34.998  17.772   4.643
93820W        W60603   4.879  29.576  11.828
93821W        W60604  18.518  10.027  13.457
93822W        W60605  37.097  31.291  14.806
93823W        W60606   8.756  15.397  13.408
93824W        W60607  23.802  31.389   4.235
93825W        W60608  15.306  41.334   2.408
93826W        W60609  15.213  26.607   3.825
93827W        W60610  35.689  13.470  14.377
93828W        W60611  44.917  23.032  12.674
93829W        W60612   1.165   6.448  11.966
93830W        W60613  14.417  19.534   3.721
93831W        W60614  20.775   6.347   2.958
93832W        W60615  21.047  17.023  11.481
93833W        W60616  30.725  22.259  14.818
93834W        W60617  43.225  12.406  11.952
93835W        W60618  41.219   4.079  12.516
93836W        W60619  23.664   0.155   3.291
93837W        W60620  17.771  40.287  13.049
93838W        W60621   5.665   1.520  14.942
93839W        W60622  16.290  30.604   1.288
93840W        W60623   5.505   9.198   3.416
93841W        W60624  24.954  24.674  13.935
93842W        W60625  35.063  38.100   1.251
93843W        W60626  21.469  39.583   4.076
93844W        W60627  37.509   9.752   3.250
93845W        W60628  18.824   3.933   0.680
93846W        W60629  17.685  15.894  12.438
93847W        W60630  12.849  22.831   1.458
93848W        W60631   2.726  12.110   1.158
93849W        W60632  30.561  27.680   3.283
93850W        W60633  10.484  28.077   1.365
93851W        W60634  37.448  23.455  10.137
93852W        W60635  31.927   7.738  13.329
93853W        W60636   6.552   8.726   4.525
93854W        W60637  37.978  13.814  14.350
93855W        W60638  44.328   1.956   0.255
93856W        W60639   3.020   3.889   3.786
93857W        W60640  18.420  37.574   3.175
93858W        W60641  36.175  10.412  14.995
93859W        W60642  17.213   6.832  13.406
93860W        W60643  32.298  14.217   1.849
93861W        W60644  42.202   1.564  11.264
93862W        W60645  32.627  28.419   2.837
93863W        W60646   1.284   9.334   1.210
93864W        W60647   5.243   0.180  12.338
93865W        W60648  43.996  33.494   4.070
93866W        W60649  22.722  33.647   4.475
93867W        W60650  11.068  30.525   2.754
93868W        W60651  44.696   0.853  12.962
93869W        W60652   3.854  29.909  13.478
93870W        W60653  34.409  18.245   1.471
93871W        W60654   5.590  20.733  11.630
93872W        W60655  36.337   3.322   4.276
93873W        W60656  36.425   2.902  11.948
93874W        W60657   1.942  29.604  13.351
93875W        W60658  34.194  17.105  11.600
93876W        W60659  37.895  26.014  14.534
93877W        W60660  23.078  42.674  11.534
93878W        W60661  41.301   1.454  12.990
93879W        W60662  24.505   7.826   2.478
93880W        W60663  30.072  19.777  11.503
93881W        W60664   8.891  17.800  11.906
93882W        W60665  28.694  11.126   0.652
93883W        W60666   5.873  41.621  10.792
93884W        W60667   2.166  23.234   0.449
93885W        W60668   8.773  36.033   0.228
93886W        W60669  43.869  32.595   4.807
93887W        W60670   5.706  12.814   0.730
93888W        W60671  36.690  27.433  14.489
93889W        W60672  30.127  39.114  14.065
93890W        W60673  43.842  30.441   4.375
93891W        W60674   3.178   2.850  12.148
93892W        W60675  23.008  14.647   4.594
93893W        W60676   2.705  43.997  12.993
93894W        W60677   8.721  11.155   4.158
93895W        W60678   6.978  43.677  14.879
93896W        W60679  42.803  35.463  14.559
93897W        W60680  22.117  43.337   4.535
93898W        W60681  26.102  18.637  14.501
93899W        W60682  29.426  19.254  12.742
93900W        W60683  43.421  33.150  10.475
93901W        W60684  29.260  33.519   0.259
93902W        W60685   7.864  41.427   2.159
93903W        W60686   0.005  32.191   4.159
93904W        W60687   0.958  16.803  13.362
93905W        W60688  15.500  37.444   3.501
93906W        W60689  19.624  29.830  11.035
93907W        W60690  35.413  34.933  14.727
93908W        W60691  32.778  22.065  14.749
93909W        W60692   8.524  16.315  11.342
93910W        W60693   6.839  12.168  12.887
93911W        W60694  40.976  27.238   3.759
93912W        W60695  27.011  11.586   1.125
93913W        W60696  26.488  39.343  14.390
93914W        W60697  19.525   4.169  10.676
93915W        W60698  37.579  33.498   4.246
93916W        W60699  22.204  13.882  10.648
93917W        W60700  27.158  28.177   2.282
93918W        W60701  25.644  17.627   0.670
93919W        W60702   3.506   4.924  11.354
93920W        W60703  23.886  12.114   3.774
93921W        W60704  13.955   4.844  13.014
93922W        W60705  38.525  24.542   4.044
93923W        W60706  17.813  34.088   3.682
93924W        W60707  30.745   2.704   5.019
93925W        W60708  44.688  26.166   0.086
93926W        W60709  29.235  30.596  10.335
93927W        W60710  18.244  11.686   3.926
93928W        W60711  13.197   4.829  10.636
93929W        W60712   7.583  44.817  14.175
93930W        W60713  25.956  13.092  11.130
93931W        W60714   1.127   7.823   4.559
93932W        W60715  31.945  19.224  13.826
93933W        W60716   3.768  20.971   1.870
93934W        W60717   4.386   8.844  10.955
93935W        W60718  22.503  21.598   1.389
93936W        W60719   8.179  40.798   0.859
93937W        W60720  43.037  27.088  11.091
93938W        W60721  32.660  12.776  11.906
93939W        W60722   6.319  24.339  11.965
93940W        W60723  14.145  23.265   2.754
93941W        W60724  20.502  36.542  13.212
93942W        W60725  38.832  18.291   0.753
93943W        W60726  20.449   0.380  12.624
93944W        W60727  33.704  35.416   3.697
93945W        W60728  28.648  14.318  14.629
93946W        W60729  11.401  12.340   0.825
93947W        W60730  18.607  13.247  14.490
93948W        W60731  10.297  29.317  14.434
93949W        W60732   6.658  20.068  13.491
93950W        W60733  20.513  11.707  13.890
93951W        W60734  35.818  27.779  11.681
93952W        W60735   5.964  12.700  12.105
93953W        W60736  16.780   0.172  12.228
93954W        W60737  32.154  28.197   3.746
93955W        W60738  32.883  14.141  14.098
93956W        W60739  42.318  10.700   0.530
93957W        W60740  44.823  15.640  13.971
93958W        W60741  21.375  37.534  11.121
93959W        W60742  22.207  34.674   0.247
93960W        W60743   2.048  18.295   0.485
93961W        W60744  44.775  26.960   1.334
93962W        W60745   5.978  23.269   4.183
93963W        W60746  42.920  35.472  12.347
93964W        W60747  23.423  24.983  11.659
93965W        W60748  14.610  36.907   1.957
93966W        W60749  25.679   0.506  12.076
93967W        W60750  17.310  22.652  14.553
93968W        W60751  10.584  22.015  12.891
93969W        W60752  33.325   8.550   4.537
93970W        W60753  37.980  40.890  13.971
93971W        W60754   9.766  14.122   1.255
93972W        W60755  26.598   6.198  11.141
93973W        W60756  17.039   4.884  11.469
93974W        W60757  15.864  20.085   2.727
93975W        W60758  42.996  25.639   2.029
93976W        W60759  28.521  17.660  10.540
93977W        W60760   9.467  41.935   3.542
93978W        W60761   7.786  19.005  10.727
93979W        W60762  37.849  17.246   2.669
93980W        W60763   3.909  37.355  13.650
93981W        W60764  32.965  33.874  12.041
93982W        W60765  19.041  24.577   4.700
93983W        W60766  12.870  28.225  13.889
93984W        W60767  39.311  41.465  12.113
93985W        W60768   0.537  30.559  11.561
93986W        W60769  34.867  29.123  14.863
93987W        W60770  23.731   6.608   2.365
93988W        W60771  22.742  32.999  11.529
93989W        W60772  19.147  18.796  10.147
93990W        W60773   8.778  20.523   0.725
93991W        W60774  28.119   2.117   3.241
93992W        W60775  18.783  13.110   1.303
93993W        W60776  19.260  40.215  12.972
93994W        W60777  23.002   3.281  14.797
93995W        W60778  20.052  29.517   0.473
93996W        W60779  31.670  42.462   1.778
93997W        W60780   2.650  12.342  12.443
93998W        W60781  39.953  39.726  11.689
93999W        W60782  11.296  29.524   1.664
94000W        W60783  36.544  38.912  14.904
94001W        W60784  44.084  25.609   1.214
94002W        W60785  22.252  37.025   1.370
94003W        W60786  23.240  44.301  13.920
94004W        W60787  21.061   1.414  14.398
94005W        W60788  38.011   8.140  10.339
94006W        W60789  38.027   1.302  12.426
94007W        W60790  34.899  19.181   1.034
94008W        W60791  12.314  23.782   4.127
94009W        W60792  18.409  40.298   2.446
94010W        W60793  14.440  38.579   4.991
94011W        W60794  40.696  21.594  10.376
94012W        W60795  14.733  32.832   1.505
94013W        W60796  37.885   0.453   1.227
94014W        W60797  27.944  37.081   3.254
94015W        W60798  36.904  15.757   4.219
94016W        W60799  38.871  34.315   4.149
94017W        W60800  43.266  17.659  14.006
94018W        W60801  35.116  38.996   2.241
94019W        W60802  13.736   1.887   3.716
94020W        W60803  31.150   6.956  12.156
94021W        W60804  24.044  31.129  14.322
94022W        W60805  40.904  42.701  12.173
94023W        W60806  16.024  18.669   1.346
94024W        W60807  13.116  28.521   4.271
94025W        W60808   6.224   5.959  10.850
94026W        W60809   1.496  22.214  13.866
94027W        W60810  44.792  21.573  14.947
94028W        W60811  28.103  14.586  12.078
94029W        W60812  10.191  14.759   4.449
94030W        W60813   5.806  42.442  14.902
94031W        W60814  34.182  18.090   1.917
94032W        W60815  18.521  36.662   1.239
94033W        W60816  19.737  13.111  13.392
94034W        W60817  35.491  17.245  12.459
94035W        W60818   5.340  20.998   2.993
94036W        W60819  24.939  21.357  11.984
94037W        W60820  37.586  34.751  11.061
94038W        W60821  36.500  10.693  12.242
94039W        W60822   1.447  10.641  12.827
94040W        W60823  41.793  14.184   1.348
94041W        W60824  28.120  22.201   0.384
94042W        W60825  28.015  40.503   2.738
94043W        W60826  35.122   7.647   3.772
94044W        W60827  17.138  21.591  13.564
94045W        W60828  40.360  31.495   0.894
94046W        W60829  31.952   3.679  13.457
94047W        W60830  13.578  25.686   3.736
94048W        W60831  31.423  42.340   3.065
94049W        W60832  34.817  28.039   2.840
94050W        W60833   5.132  32.593  14.889
94051W        W60834  13.394  42.821  11.631
94052W        W60835   6.637  22.372  10.468
94053W        W60836  30.003  26.379   4.202
94054W        W60837  29.051  39.974   2.723
94055W        W60838   1.418  30.143   4.474
94056W        W60839  13.193  21.913   0.347
94057W        W60840  32.430  44.416  14.352
94058W        W60841  37.899  12.469  14.282
94059W        W60842   6.674   2.812   4.583
94060W        W60843  32.165  13.647  14.867
94061W        W60844  40.262  26.192   0.962
94062W        W60845   7.839  29.601   4.547
94063W        W60846  33.065  14.505   3.804
94064W        W60847  22.086  14.688  13.877
94065W        W60848  35.372   2.559   3.248
94066W        W60849  20.810  44.305   1.820
94067W        W60850  34.070  15.528  12.934
94068W        W60851  33.728  27.187  13.424
94069W        W60852  10.419  10.374   4.708
94070W        W60853  24.513  42.080  10.725
94071W        W60854  39.430  41.592  10.819
94072W        W60855  20.709   4.153  12.818
94073W        W60856   7.820  28.124  14.599
94074W        W60857   6.762  23.579  11.551
94075W        W60858   6.846  30.597   0.279
94076W        W60859  32.982   4.711  10.801
94077W        W60860  40.410   2.467  12.048
94078W        W60861  10.172  19.294   3.325
94079W        W60862  37.314  38.345   2.575
94080W        W60863  18.640  31.937  11.534
94081W        W60864  44.966   7.894   0.808
94082W        W60865  10.321  13.499   3.953
94083W        W60866  39.370  21.828   4.164
94084W        W60867  26.668  39.019   3.069
94085W        W60868  33.993  17.996   3.285
94086W        W60869  39.922   7.067   1.284
94087W        W60870  27.891  16.254  12.741
94088W        W60871  23.066  40.314   1.415
94089W        W60872  37.127  27.761   4.116
94090W        W60873  22.039  15.111  12.501
94091W        W60874  14.653  43.642   3.636
94092W        W60875   7.468  18.096  10.683
94093W        W60876  36.610   0.117  13.300
94094W        W60877  30.176  10.415  14.452
94095W        W60878  27.476  36.805   3.162
94096W        W60879   2.011  12.864   2.994
94097W        W60880   2.243  37.392  14.309
94098W        W60881  31.597  38.263   1.284
94099W        W60882  38.604   3.532   4.296
94100W        W60883  17.982  19.906   0.037
94101W        W60884  18.781   0.530  14.875
94102W        W60885   0.430  10.395   1.303
94103W        W60886  13.819   2.958  12.558
94104W        W60887   8.785  16.175   1.108
94105W        W60888  29.381  41.465   4.653
94106W        W60889  27.381   7.330   3.314
94107W        W60890  23.144  31.144   0.998
94108W        W60891  26.740  13.219   3.381
94109W        W60892  30.251  29.004   1.433
94110W        W60893  20.317  44.850   2.916
94111W        W60894  22.487  37.171  13.001
94112W        W60895   6.183  39.497   0.246
94113W        W60896  39.997  31.506  13.748
94114W        W60897   1.844  39.562   2.599
94115W        W60898  13.385  27.246   1.929
94116W        W60899   1.801  10.154   4.230
94117W        W60900  22.715  31.581  13.363
94118W        W60901   2.668  41.758  11.514
94119W        W60902  19.923  18.165   0.188
94120W        W60903  10.106  42.958   2.196
94121W        W60904  44.928  31.388   2.124
94122W        W60905  19.035   6.940  11.405
94123W        W60906   6.953  15.354   0.502
94124W        W60907  42.189  29.685   4.908
94125W        W60908  39.029  32.174   0.735
94126W        W60909  35.122  23.519  10.296
94127W        W60910  31.586  34.271   3.032
94128W        W60911  27.096   4.014   1.009
94129W        W60912  39.437  12.787  12.940
94130W        W60913  29.586   8.475  14.489
94131W        W60914  12.814  25.610   2.744
94132W        W60915  42.310  19.219   4.388
94133W        W60916  37.386  22.365  10.890
94134W        W60917  28.461  15.818  14.959
94135W        W60918  24.884  12.203   0.872
94136W        W60919  22.619  35.547  10.734
94137W        W60920  33.850  39.851   3.709
94138W        W60921  32.213   4.368  10.632
94139W        W60922   0.449  26.468  14.074
94140W        W60923  11.673  28.592  14.737
94141W        W60924  40.827  38.785   1.636
94142W        W60925  43.317   2.736  13.797
94143W        W60926   1.258  20.161   3.094
94144W        W60927   4.174  27.340  13.998
94145W        W60928  39.884   7.883  14.313
94146W        W60929   6.480   9.760  12.438
94147W        W60930  32.566   0.072   0.199
94148W        W60931   0.305  41.498   3.643
94149W        W60932  24.589  19.745   0.393
94150W        W60933  28.960   7.951   4.114
94151W        W60934  10.151  35.992   0.392
94152W        W60935  44.998  12.394   2.653
94153W        W60936   3.856  22.186  12.599
94154W        W60937  29.036  22.054  10.779
94155W        W60938  17.111  27.904  12.430
94156W        W60939   9.976  18.371   2.236
94157W        W60940  15.738  14.263   0.513
94158W        W60941  21.283  18.032   1.898
94159W        W60942  15.340  42.362  11.026
94160W        W60943  23.549  32.576   4.761
94161W        W60944  23.261  39.483  11.124
94162W        W60945  41.862  36.940  14.991
94163W        W60946  20.209  16.709   3.916
94164W        W60947  20.477  24.887   1.820
94165W        W60948   3.612   7.543   3.786
94166W        W60949   7.247   7.693   0.973
94167W        W60950  22.690  29.488  11.685
94168W        W60951  36.600  39.807   3.862
94169W        W60952  44.939  18.839   1.056
94170W        W60953   6.873   6.033  14.435
94171W        W60954  28.596  37.934   1.513
94172W        W60955  35.166  27.694  14.369
94173W        W60956  16.494   8.195   0.818
94174W        W60957   1.811   7.626   3.616
94175W        W60958  21.252  44.819   3.530
94176W        W60959  34.043  26.002  13.494
94177W        W60960  17.115  22.738   1.882
94178W        W60961  31.016   3.695  14.699
94179W        W60962   5.939  27.247   2.781
94180W        W60963  16.204  26.657  12.890
94181W        W60964  27.493  42.340   1.867
94182W        W60965   3.883  10.979   0.998
94183W        W60966  38.825   4.801  13.996
94184W        W60967  37.233   4.554   3.972
94185W        W60968  14.564  12.852   4.106
94186W        W60969  41.600  35.406  13.981
94187W        W60970  29.537  39.773   2.753
94188W        W60971   8.732  34.544  14.989
94189W        W60972  20.017  12.631   5.018
94190W        W60973  32.065  40.881  11.469
94191W        W60974  30.129  29.667   3.186
94192W        W60975  17.759  42.258   1.797
94193W        W60976  31.883  44.508   1.637
94194W        W60977  34.262   1.172   2.613
94195W        W60978  11.297  16.089  13.083
94196W        W60979  37.580  11.127  12.562
94197W        W60980   9.139  35.335   1.005
94198W        W60981  30.331  36.467  11.212
94199W        W60982  36.357   2.819   4.074
94200W        W60983  31.632  19.191  11.795
94201W        W60984  12.708  33.493   2.512
94202W        W60985  38.542  26.330   0.730
94203W        W60986  39.331   4.877  10.760
94204W        W60987  20.207  43.126  11.059
94205W        W60988  38.460  18.128   3.722
94206W        W60989  24.254  21.983   4.264
94207W        W60990  25.904  36.606   3.276
94208W        W60991  31.370  11.601   4.351
94209W        W60992  40.325  27.394   1.047
94210W        W60993   1.249  11.490  14.897
94211W        W60994   2.383  29.384  13.482
94212W        W60995   2.326  41.930   4.952
94213W        W60996  18.766   8.785   4.149
94214W        W60997  40.581  23.015  12.044
94215W        W60998  31.143  32.945  14.787
94216W        W60999   8.022  37.014  11.403
94217W        W61000   4.459  39.615   2.810
94218W        W61001  31.306  27.319  12.493
94219W        W61002  19.971  28.638  14.988
94220W        W61003  11.363  22.178  12.494
94221W        W61004   2.237  19.097  10.912
94222W        W61005  29.686  31.392   3.952
94223W        W61006   1.887  32.462  11.801
94224W        W61007   0.818  27.914  11.668
94225W        W61008   9.212  35.092   0.206
94226W        W61009  25.938  41.749  14.438
94227W        W61010  27.704  43.256  13.964
94228W        W61011  43.018   1.787   0.388
94229W        W61012  12.863  26.557   4.392
94230W        W61013   0.729   8.872   4.529
94231W        W61014  15.356  35.971   4.532
94232W        W61015  26.220  14.081   1.914
94233W        W61016   4.248  13.403  13.911
94234W        W61017   8.339  20.086  14.340
94235W        W61018   4.441   3.178   1.817
94236W        W61019   9.636  27.496  13.916
94237W        W61020  19.768  29.463   4.575
94238W        W61021  41.844  44.770  14.932
94239W        W61022  26.267  19.514  10.455
94240W        W61023   6.960  39.561  13.061
94241W        W61024   7.887   4.186   0.821
94242W        W61025  26.901  19.087  13.951
94243W        W61026  31.119  21.094  11.497
94244W        W61027  41.577  11.191   0.789
94245W        W61028  36.381  34.566   4.639
94246W        W61029  42.854  26.281   4.380
94247W        W61030  33.558  30.547  10.633
94248W        W61031  37.554   9.665   2.664
94249W        W61032  16.612  44.889  13.826
94250W        W61033  33.157  29.956   0.428
94251W        W61034  36.955  22.104   3.842
94252W        W61035  21.789  24.609  13.862
94253W        W61036  43.266   8.243  11.187
94254W        W61037  18.052   0.409  11.056
94255W        W61038  10.864  23.629  13.336
94256W        W61039  17.058  22.025   4.791
94257W        W61040   5.249  24.227   1.440
94258W        W61041  16.130  20.110   4.179
94259W        W61042  21.767   7.630  14.303
94260W        W61043   1.125   5.424   2.148
94261W        W61044  13.142  32.435  11.758
94262W        W61045  35.064  10.948  12.523
94263W        W61046  27.903  34.363  14.733
94264W        W61047  19.180  25.981  13.304
94265W        W61048  38.834  17.027  12.553
94266W        W61049  38.971   1.340   3.124
94267W        W61050   0.435   2.381   2.419
94268W        W61051  31.546  16.197   1.254
94269W        W61052   3.591  38.211   3.353
94270W        W61053  20.586  38.982  12.787
94271W        W61054  16.804   3.150  10.335
94272W        W61055  17.335  28.155  10.157
94273W        W61056  21.852  42.903   4.692
94274W        W61057  21.752   1.079   2.697
94275W        W61058  17.336   9.949   0.372
94276W        W61059  22.992  42.846  13.267
94277W        W61060   8.803   0.390   4.239
94278W        W61061  32.533   1.280   3.605
94279W        W61062  12.246  44.465   0.040
94280W        W61063  40.409  33.611   1.702
94281W        W61064  17.784  28.268   3.196
94282W        W61065   6.682  34.660  11.747
94283W        W61066  16.494  39.520  12.751
94284W        W61067  36.004  34.917   3.792
94285W        W61068  43.892  10.679   4.963
94286W        W61069  17.677  24.773   1.392
94287W        W61070  35.810  38.262   4.300
94288W        W61071   1.353  16.864   4.116
94289W        W61072  23.253  26.832   3.636
94290W        W61073  22.897  23.066   3.371
94291W        W61074  29.235   9.646   0.864
94292W        W61075  13.857  23.543   4.418
94293W        W61076  33.002  14.899  10.970
94294W        W61077  30.218  43.257   1.270
94295W        W61078  28.655  42.972   3.049
94296W        W61079   1.738  10.401   3.770
94297W        W61080   7.616  31.453  11.961
94298W        W61081  11.205  26.207   4.912
94299W        W61082  19.260  41.238   0.436
94300W        W61083  13.569  30.995  11.695
94301W        W61084  22.440   9.399   1.162
94302W        W61085  39.848  15.748  10.700
94303W        W61086  17.281  32.361   0.901
94304W        W61087  11.297  36.476   0.725
94305W        W61088  29.267   4.567   1.055
94306W        W61089  23.133  28.302   0.989
94307W        W61090   2.195  35.075  12.516
94308W        W61091   0.539   4.976   3.796
94309W        W61092   6.955  14.020  13.062
94310W        W61093  36.479  31.795  13.444
94311W        W61094  32.620  31.134  13.317
94312W        W61095   5.869  42.590   4.594
94313W        W61096  15.685  28.803  13.046
94314W        W61097  27.712  40.090   2.722
94315W        W61098  22.293  28.671  14.371
94316W        W61099  33.516  21.275   0.576
94317W        W61100  23.224   7.054   1.777
94318W        W61101  29.992  18.757  12.969
94319W        W61102  13.789  13.842   3.808
94320W        W61103  38.423  44.751   0.337
94321W        W61104  40.244  16.650   0.274
94322W        W61105   4.572  17.682  12.441
94323W        W61106  38.283  11.706   0.886
94324W        W61107  16.201   4.029  12.086
94325W        W61108   4.859  30.723   1.332
94326W        W61109  32.165  43.826   1.393
94327W        W61110  21.582  11.397  10.519
94328W        W61111   4.318   6.490  11.762
94329W        W61112  28.818   7.387  11.944
94330W        W61113  33.562  19.532   3.708
94331W        W61114  23.664  14.209   2.275
94332W        W61115  11.210  44.827  14.956
94333W        W61116  28.090  27.025  13.638
94334W        W61117  29.009  12.575   2.278
94335W        W61118  28.246  17.381   4.081
94336W        W61119   9.236  29.288  13.107
94337W        W61120  30.990  18.180  13.445
94338W        W61121  19.114  12.288  10.300
94339W        W61122   7.535   5.791  12.057
94340W        W61123  22.191   6.041   4.571
94341W        W61124  16.236  18.749   0.444
94342W        W61125  33.176  37.931  11.429
94343W        W61126  13.830   7.647  14.915
94344W        W61127  32.941   7.778   2.626
94345W        W61128  16.307  10.288  12.988
94346W        W61129  27.445  26.841  11.912
94347W        W61130   2.723   2.933  14.754
94348W        W61131  21.310  41.196   3.681
94349W        W61132   9.874  18.661  14.494
94350W        W61133  28.408   5.202   0.377
94351W        W61134  43.345  16.758  10.327
94352W        W61135  14.416  24.736  12.547
94353W        W61136  28.482  10.801  12.350
94354W        W61137  43.033  40.404  10.796
94355W        W61138  32.369  22.129  13.983
94356W        W61139  35.554  29.967   2.628
94357W        W61140  26.018  35.375   0.465
94358W        W61141  10.404  16.171  10.985
94359W        W61142  12.818  17.815  13.462
94360W        W61143  34.582  33.432   1.766
94361W        W61144  12.619  14.777  11.915
94362W        W61145   6.751  19.682  14.325
94363W        W61146  15.555  15.749  11.993
94364W        W61147  34.677  14.856   3.147
94365W        W61148  38.583  25.312   0.774
94366W        W61149  38.716  36.892  14.954
94367W        W61150  36.609   8.327  14.423
94368W        W61151  32.817   1.428  11.212
94369W        W61152   6.104  36.389  11.021
94370W        W61153  39.295  34.573  12.906
94371W        W61154  37.947  33.067   4.662
94372W        W61155  13.092   9.152  12.943
94373W        W61156  14.659  31.971   2.128
94374W        W61157  16.794  18.770  12.988
94375W        W61158  23.761  11.498   3.688
94376W        W61159   5.489  23.453   2.691
94377W        W61160   9.594  34.327  13.947
94378W        W61161  28.639  19.390   1.919
94379W        W61162   8.687  34.603  12.461
94380W        W61163  40.368  41.962   2.649
94381W        W61164   7.417  28.514   2.359
94382W        W61165   4.433  20.749   1.697
94383W        W61166  10.539  26.588   4.115
94384W        W61167  28.243  37.390   2.351
94385W        W61168   2.444  23.605  13.923
94386W        W61169  18.563  39.736  13.655
94387W        W61170  16.558  18.222   0.799
94388W        W61171  36.479  27.668   0.425
94389W        W61172  21.155  11.142  10.751
94390W        W61173  10.215  17.183  14.048
94391W        W61174  41.447   2.732   1.917
94392W        W61175  21.658  21.953   2.904
94393W        W61176  16.568  44.987   2.623
94394W        W61177  16.587  24.556   4.593
94395W        W61178  32.827  37.937  13.578
94396W        W61179  38.095  25.718  11.887
94397W        W61180  29.923  41.013  14.930
94398W        W61181  42.789  26.915  11.484
94399W        W61182  40.712  27.912   2.252
94400W        W61183   2.454  22.486   1.414
94401W        W61184  19.756   6.657  12.585
94402W        W61185  42.790  24.850  10.667
94403W        W61186  35.378   4.476   1.230
94404W        W61187  33.391  22.215   2.165
94405W        W61188   1.783   1.524  12.223
94406W        W61189  26.371  31.547   2.990
94407W        W61190  42.794  37.875   2.907
94408W        W61191  37.771  19.757   1.690
94409W        W61192  16.049  29.745   4.804
94410W        W61193  36.068  41.104  10.794
94411W        W61194  32.402  32.123   1.432
94412W        W61195  27.938  21.592   3.179
94413W        W61196  28.423   0.463   2.206
94414W        W61197   8.443  18.745  14.038
94415W        W61198  12.264   6.296  14.363
94416W        W61199  38.327   6.846  10.954
94417W        W61200  34.147  13.578   0.239
94418W        W61201  29.012  35.612   1.614
94419W        W61202  42.558   6.552  10.771
94420W        W61203  40.747  38.600  11.582
94421W        W61204  37.855  26.508   0.139
94422W        W61205   8.374  21.835  11.621
94423W        W61206  16.106  10.116  12.512
94424W        W61207  11.186  19.555   1.430
94425W        W61208  36.215  18.290  13.786
94426W        W61209  33.819  35.442   4.536
94427W        W61210  16.871  23.115  11.423
94428W        W61211  41.281  38.535  11.645
94429W        W61212  13.023  22.525   4.172
94430W        W61213  21.171  37.307  12.462
94431W        W61214  18.230  37.511   0.771
94432W        W61215  36.908  16.143  12.379
94433W        W61216  22.606  12.695   4.222
94434W        W61217   7.109   7.303   1.611
94435W        W61218  44.341  31.765  11.024
94436W        W61219  28.450   8.320   2.826
94437W        W61220  18.507  29.416   2.750
94438W        W61221  36.524  44.425  12.502
94439W        W61222  44.706   3.021   4.745
94440W        W61223  31.559  38.747  13.282
94441W        W61224  21.772  43.814  10.924
94442W        W61225   2.506   2.850   0.743
94443W        W61226  34.119  37.612   2.989
94444W        W61227  21.539   8.765  10.771
94445W        W61228   8.346   5.449   0.834
94446W        W61229   9.419   6.749   4.476
94447W        W61230  44.476  38.616  14.257
94448W        W61231  15.680  29.808   1.220
94449W        W61232  38.369  27.746  14.054
94450W        W61233  40.387  12.053  11.708
94451W        W61234   6.513  15.135  14.040
94452W        W61235  11.335  15.144  11.013
94453W        W61236  27.659  44.576  12.628
94454W        W61237   7.589  10.470   0.263
94455W        W61238  34.979  32.568  12.013
94456W        W61239   3.907  37.442   1.256
94457W        W61240  26.020  16.013  14.001
94458W        W61241   3.819  11.388   2.762
94459W        W61242  32.987  11.206  10.780
94460W        W61243  13.798  29.560   2.848
94461W        W61244   3.843   1.984   2.151
94462W        W61245  27.732  20.464  13.000
94463W        W61246  42.783  22.772   4.614
94464W        W61247  17.154  33.031   0.012
94465W        W61248   5.392   8.921   1.359
94466W        W61249   1.445  14.062  13.422
94467W        W61250  38.954  15.962   0.216
94468W        W61251  18.216  21.414   1.434
94469W        W61252  10.732  38.696   0.126
94470W        W61253  15.277  34.023  10.721
94471W        W61254  25.106  10.947   2.317
94472W        W61255  42.546  10.138   1.732
94473W        W61256   1.349  33.073  13.308
94474W        W61257  18.848  30.126  14.073
94475W        W61258  35.246   3.152  13.814
94476W        W61259  33.373  42.489  11.546
94477W        W61260   8.701  14.400   3.650
94478W        W61261  32.577  34.460   4.527
94479W        W61262  34.879   9.800   1.195
94480W        W61263   7.518  34.610  13.866
94481W        W61264  21.705  33.106   2.277
94482W        W61265  44.837  10.212   0.331
94483W        W61266  40.291  41.433  12.415
94484W        W61267  15.687  33.676   0.373
94485W        W61268   5.316  23.165  14.342
94486W        W61269   4.783  19.196  10.774
94487W        W61270   5.898  37.856  11.090
94488W        W61271   2.394   0.546   0.850
94489W        W61272  12.897  11.117   2.744
94490W        W61273  17.107  24.310  11.179
94491W        W61274  17.107  27.158   1.238
94492W        W61275  36.790  22.060   3.213
94493W        W61276  33.190  27.182  11.633
94494W        W61277  25.137  23.642  13.934
94495W        W61278   8.614  17.221  13.040
94496W        W61279  24.722   9.728  13.122
94497W        W61280   2.394  30.215   2.304
94498W        W61281  34.229   5.308  10.143
94499W        W61282  22.357  44.797  13.528
94500W        W61283  29.358   8.199  11.979
94501W        W61284  40.978   9.953   3.048
94502W        W61285  20.293  24.601  14.833
94503W        W61286   3.866  40.098  12.068
94504W        W61287  44.220  12.528  12.842
94505W        W61288  43.362  20.300  13.906
94506W        W61289  36.857  27.411  12.087
94507W        W61290  27.938  17.304   2.666
94508W        W61291  15.315  23.575   4.576
94509W        W61292   3.692  26.702  12.607
94510W        W61293  35.701   1.088   1.401
94511W        W61294   0.974  21.856   1.407
94512W        W61295  39.933  13.640  10.959
94513W        W61296  10.832  30.516  14.659
94514W        W61297  24.659   7.234  13.772
94515W        W61298  18.165  20.215  14.225
94516W        W61299  32.059   1.866   0.041
94517W        W61300  34.202  44.591   3.334
94518W        W61301  16.481   2.441   2.761
94519W        W61302  40.555   5.740  11.593
94520W        W61303  33.464  17.264  11.926
94521W        W61304  20.330  29.095   0.623
94522W        W61305   5.818  28.643  12.483
94523W        W61306   0.474  35.025   3.458
94524W        W61307   5.387  29.673  14.968
94525W        W61308  30.152  10.657   2.619
94526W        W61309  16.371  35.538   1.367
94527W        W61310  22.265   0.297  13.319
94528W        W61311   1.516  30.967  11.156
94529W        W61312  22.780   7.446  10.425
94530W        W61313  40.235   2.194  11.638
94531W        W61314  25.924  38.371  10.601
94532W        W61315  43.213   6.936   4.473
94533W        W61316  25.426  37.550   0.786
94534W        W61317  34.963  44.437   3.891
94535W        W61318   0.619  15.075   2.199
94536W        W61319  37.642  33.578  12.185
94537W        W61320  33.329  12.883  13.279
94538W        W61321  27.606  40.291   2.250
94539W        W61322  32.924   6.391   3.544
94540W        W61323   5.674   8.900   2.204
94541W        W61324  35.825  21.146  13.577
94542W        W61325  19.547  20.325  14.879
94543W        W61326  40.917  42.561  14.048
94544W        W61327  28.508  39.580   1.226
94545W        W61328  28.405  36.134   2.645
94546W        W61329  42.371  37.381   3.286
94547W        W61330  12.324  25.084  11.110
94548W        W61331  37.965  24.033   0.660
94549W        W61332  16.958  32.637  14.478
94550W        W61333   8.903  44.278  13.364
94551W        W61334  37.902   0.462  13.006
94552W        W61335  30.159  17.175  13.568
94553W        W61336  31.338  12.109  12.898
94554W        W61337  41.457  14.582  14.323
94555W        W61338   2.687  15.315  14.605
94556W        W61339  34.437  36.598  12.912
94557W        W61340   6.526  34.970   0.291
94558W        W61341   1.279  33.567   4.272
94559W        W61342  44.445  13.430   2.307
94560W        W61343  23.992  44.276   3.112
94561W        W61344  26.683   4.888   1.856
94562W        W61345  26.672  40.174   0.908
94563W        W61346   6.998   4.316  13.018
94564W        W61347  32.162  34.493  14.310
94565W        W61348  39.211  21.950  13.027
94566W        W61349  22.469  28.035   4.587
94567W        W61350   1.914  21.753   2.890
94568W        W61351  18.280  14.589  13.963
94569W        W61352  31.154  44.744  13.858
94570W        W61353  16.148   4.712   1.080
94571W        W61354  42.748  41.180  13.394
94572W        W61355  31.732  22.826   1.900
94573W        W61356   7.599  13.542  12.460
94574W        W61357  13.384  33.561   1.349
94575W        W61358   2.834  23.569   3.717
94576W        W61359  37.511   0.718   1.561
94577W        W61360  44.500  39.156  14.172
94578W        W61361  26.977  11.734  11.274
94579W        W61362   0.258  12.075  13.036
94580W        W61363  17.255  40.634  11.522
94581W        W61364   8.267  25.597  13.392
94582W        W61365   8.893  32.733  14.338
94583W        W61366  28.109   7.936   3.672
94584W        W61367  36.324  29.431   3.716
94585W        W61368  35.216  26.966   1.969
94586W        W61369  42.765  42.870   3.622
94587W        W61370   2.278  33.864   4.025
94588W        W61371   1.817  17.928   0.254
94589W        W61372  32.493  27.316  14.758
94590W        W61373  37.028   0.677   1.786
94591W        W61374  43.808  10.288  11.090
94592W        W61375  20.486  32.990   1.735
94593W        W61376  18.353  37.210   4.248
94594W        W61377  32.189  14.806   1.246
94595W        W61378   1.128  20.460   4.574
94596W        W61379  13.256  42.708   1.694
94597W        W61380  41.787   5.957   0.254
94598W        W61381  30.191  20.793  10.734
94599W        W61382  34.541  30.582   3.438
94600W        W61383   4.039  34.636  12.535
94601W        W61384  14.655   1.887   3.569
94602W        W61385  38.834  31.093   4.623
94603W        W61386  12.138   4.909   3.827
94604W        W61387  30.002  13.607   1.239
94605W        W61388  12.210  16.132  12.734
94606W        W61389   1.194  15.995   9.996
94607W        W61390  35.155  29.655   0.222
94608W        W61391  12.897  41.711   2.775
94609W        W61392   6.262  32.195   4.039
94610W        W61393  38.749  18.762   1.682
94611W        W61394  25.479  29.414   5.019
94612W        W61395  24.384  39.684   5.348
94613W        W61396  25.527  28.007  13.939
94614W        W61397  13.663  38.673  14.436
94615W        W61398  19.822  30.360   0.063
94616W        W61399  19.129  37.438   4.567
94617W        W61400   6.864   0.842  13.528
94618W        W61401  22.551  38.937  14.288
94619W        W61402  16.108  38.024   4.664
94620W        W61403  17.787  15.754  14.326
94621W        W61404  10.589  19.115  12.472
94622W        W61405  16.214  21.615  13.049
94623W        W61406  18.779  13.282  12.565
94624W        W61407  29.979  15.259  13.634
94625W        W61408  38.270  32.979  12.011
94626W        W61409  44.878  25.516   0.880
94627W        W61410  18.864  13.567   0.353
94628W        W61411  26.304  13.569   1.925
94629W        W61412  19.318  13.349   4.134
94630W        W61413  38.673   9.862  10.640
94631W        W61414  26.834  20.079   1.746
94632W        W61415  23.990  12.594  14.500
94633W        W61416  30.682   6.228  13.759
94634W        W61417   8.310   6.619  14.078
94635W        W61418   6.681  29.539  14.867
94636W        W61419  26.169  29.622  12.028
94637W        W61420  41.908  22.632  13.691
94638W        W61421   6.047   8.379  10.814
94639W        W61422  28.061  25.593   2.132
94640W        W61423  15.251  16.724  14.874
94641W        W61424  38.112  18.102  14.396
94642W        W61425  38.016  30.068   3.138
94643W        W61426  37.168   7.674  10.194
94644W        W61427   4.209  24.023   3.066
94645W        W61428  41.649  39.082  13.393
94646W        W61429  23.798  33.548   0.714
94647W        W61430  44.690  15.746   1.104
94648W        W61431  21.371  31.711   3.149
94649W        W61432  37.008   1.716   0.645
94650W        W61433  22.624  37.022   1.974
94651W        W61434  26.841   9.193  13.925
94652W        W61435  18.228  36.986  13.327
94653W        W61436  16.460  42.274  13.912
94654W        W61437  10.691  44.137   1.485
94655W        W61438  28.475   3.355   3.747
94656W        W61439  11.813  31.451  12.408
94657W        W61440  28.205  38.834   2.327
94658W        W61441   4.376  12.609   1.184
94659W        W61442   8.806  13.677   4.240
94660W        W61443  37.798  11.633   2.812
94661W        W61444  26.634  13.587  10.514
94662W        W61445  35.738  33.709   2.969
94663W        W61446  11.752  17.394   1.880
94664W        W61447  29.439  38.989   0.325
94665W        W61448   6.243  16.104  13.968
94666W        W61449  18.081  39.378   2.813
94667W        W61450  18.231  19.922  11.963
94668W        W61451   3.765  21.755  11.462
94669W        W61452  12.293  38.513  13.079
94670W        W61453  21.261  17.212   2.653
94671W        W61454   0.807  25.068  13.993
94672W        W61455  13.888  12.322   1.827
94673W        W61456  14.333  13.563   2.154
94674W        W61457  24.274  26.135   0.352
94675W        W61458  12.471   3.633  14.721
94676W        W61459  25.694  13.230   3.178
94677W        W61460  15.806  13.285  14.833
94678W        W61461  30.936  38.501   2.312
94679W        W61462   7.986  14.164  13.390
94680W        W61463  44.594  36.431   0.898
94681W        W61464  12.761  22.181  13.873
94682W        W61465  27.209  29.587   2.301
94683W        W61466  15.656   3.470  14.920
94684W        W61467  20.696  26.278  14.237
94685W        W61468  39.796  43.523   0.815
94686W        W61469  13.912  21.694   1.125
94687W        W61470  25.523  29.921   4.348
94688W        W61471  24.933  26.972   3.103
94689W        W61472  39.280  18.804  11.503
94690W        W61473  21.182  37.177   2.634
94691W        W61474  24.356   9.899  14.118
94692W        W61475  18.533  23.079   3.716
94693W        W61476  36.069  22.517  12.638
94694W        W61477  32.323  12.341   2.406
94695W        W61478  38.953  11.707  11.513
94696W        W61479  21.890  28.949  12.461
94697W        W61480  34.852  18.725   0.746
94698W        W61481  40.842   4.666  12.358
94699W        W61482  38.815  22.665   0.469
94700W        W61483  42.042  22.003   0.875
94701W        W61484  21.937  33.140   1.776
94702W        W61485  15.493   3.957  13.829
94703W        W61486  22.667  18.309   1.785
94704W        W61487  21.936  10.786   1.659
94705W        W61488  18.371  42.730   1.276
94706W        W61489   8.854   1.201   2.204
94707W        W61490   0.117  28.811  13.518
94708W        W61491  44.037  23.854  14.235
94709W        W61492  24.245   9.653  11.105
94710W        W61493   1.088  25.045   4.417
94711W        W61494  11.117  40.417  13.429
94712W        W61495  35.142  12.308   4.045
94713W        W61496  39.728  42.385   3.108
94714W        W61497  28.602  16.563  12.520
94715W        W61498   6.140  35.193  14.013
94716W        W61499  40.268  13.112  10.267
94717W        W61500   5.392   5.659   2.129
94718W        W61501   9.770  33.291   3.248
94719W        W61502  28.678  36.371   4.441
94720W        W61503   3.392  26.194   4.429
94721W        W61504  38.085   9.287   3.417
94722W        W61505   1.101  32.907   2.317
94723W        W61506  15.911  20.270  14.775
94724W        W61507  12.875  36.896   3.473
94725W        W61508  44.376  27.852   4.365
94726W        W61509  26.724  23.184   0.785
94727W        W61510  33.134  32.572  11.618
94728W        W61511   1.980  34.899   0.035
94729W        W61512  25.358  16.758   1.531
94730W        W61513  28.103  25.314   4.261
94731W        W61514  21.737   6.288  14.269
94732W        W61515  18.228  16.644   0.307
94733W        W61516  30.587  19.412   4.551
94734W        W61517  24.683  25.398  12.281
94735W        W61518  43.951  32.117  13.889
94736W        W61519  13.590   4.922  11.571
94737W        W61520  33.118  32.580   2.853
94738W        W61521  28.672  12.175  10.526
94739W        W61522   6.979  39.147   1.341
94740W        W61523  34.924  32.951   1.323
94741W        W61524  37.032   8.661  14.469
94742W        W61525  14.033  35.346   3.852
94743W        W61526  36.609  37.576  13.370
94744W        W61527   2.815  13.514   5.001
94745W        W61528  44.382  23.174   0.219
94746W        W61529  41.034  27.743   3.573
94747W        W61530  39.081  30.023  10.580
94748W        W61531  41.730  18.854   3.697
94749W        W61532  26.522  15.647  12.997
94750W        W61533   1.344  44.677  12.467
94751W        W61534  41.535  12.079  12.302
94752W        W61535  27.146  33.375   0.453
94753W        W61536  25.068  17.594   4.089
94754W        W61537  44.354   3.469  12.051
94755W        W61538  18.400  13.639   9.793
94756W        W61539  27.457   2.399   0.250
94757W        W61540  30.302  24.484  14.999
94758W        W61541  41.591  21.241   0.949
94759W        W61542  13.809   1.872   0.832
94760W        W61543  21.549   5.207  13.189
94761W        W61544  44.734  24.162   2.276
94762W        W61545  28.713  26.281  11.663
94763W        W61546  10.328  27.100  13.433
94764W        W61547  27.303   8.356   4.305
94765W        W61548  22.008   3.007  13.355
94766W        W61549   5.532   8.868   4.572
94767W        W61550   3.487   6.916  11.639
94768W        W61551  21.563  33.684   2.328
94769W        W61552   3.420  41.064  12.907
94770W        W61553   0.051  16.037   0.242
94771W        W61554  23.077  32.055  10.701
94772W        W61555  20.835   7.865  11.541
94773W        W61556   2.862  24.203   4.115
94774W        W61557  39.797  36.591  14.097
94775W        W61558  40.874  37.821   3.676
94776W        W61559  26.890  26.990  11.928
94777W        W61560  27.264  14.795   3.594
94778W        W61561   6.687  34.114   0.100
94779W        W61562  36.305  31.871  12.537
94780W        W61563  25.031  24.186   2.179
94781W        W61564  43.744   3.919  13.539
94782W        W61565   2.340   2.670   3.843
94783W        W61566  11.092  36.589   4.463
94784W        W61567  42.034  37.567  14.466
94785W        W61568  38.800  18.799   2.212
94786W        W61569  43.410  37.031  14.401
94787W        W61570  11.137  38.104   0.347
94788W        W61571   5.666  11.606  14.438
94789W        W61572  19.391  29.514   1.776
94790W        W61573  24.783  33.492  11.806
94791W        W61574  33.555  21.123   2.235
94792W        W61575  33.946  21.444   2.215
94793W        W61576  43.263  28.074   3.176
94794W        W61577  11.261   0.689  12.161
94795W        W61578   1.518  27.758   4.053
94796W        W61579  41.610  29.648   3.160
94797W        W61580  14.997   4.867  13.930
94798W        W61581  32.963  17.083  12.012
94799W        W61582  33.168  18.709  12.008
94800W        W61583  44.501  15.344   4.473
94801W        W61584   2.541  29.821   0.045
94802W        W61585  25.501   5.715  13.485
94803W        W61586  42.842  30.936   2.916
94804W        W61587  39.383   7.011   1.678
94805W        W61588   4.777   7.247  12.228
94806W        W61589  13.302  28.965  14.950
94807W        W61590  37.011   0.036  14.889
94808W        W61591   5.242  43.499  10.894
94809W        W61592  10.532  22.512   2.097
94810W        W61593  28.007   3.493  13.495
94811W        W61594  41.051  24.210  12.464
94812W        W61595   3.701   8.494   3.971
94813W        W61596  41.156   8.155  14.007
94814W        W61597   0.811  31.468  12.682
94815W        W61598   8.344  21.240  11.531
94816W        W61599  12.017  42.891  12.636
94817W        W61600  42.064  12.462  11.595
94818W        W61601  12.144   9.452  12.522
94819W        W61602   6.163  23.755   4.331
94820W        W61603  18.055  30.688   3.715
94821W        W61604   6.486   4.546  14.338
94822W        W61605  36.282  32.059   4.984
94823W        W61606   4.107   7.251   1.077
94824W        W61607   8.283  12.163   3.425
94825W        W61608  19.055   4.563  13.410
94826W        W61609  16.359  11.134   0.887
94827W        W61610   6.008   3.701   1.091
94828W        W61611  17.957   3.418  11.133
94829W        W61612  17.268  13.184   2.393
94830W        W61613  14.280  41.555   0.277
94831W        W61614  39.008  19.203   1.749
94832W        W61615   6.110  12.852   4.170
94833W        W61616  28.717  32.941  10.840
94834W        W61617  26.051   1.453   3.608
94835W        W61618  23.934  38.413  10.754
94836W        W61619  30.845  12.147   0.254
94837W        W61620   3.819   3.751  12.474
94838W        W61621  19.685  42.260   1.450
94839W        W61622  29.238  38.067   2.192
94840W        W61623  15.165   2.779  13.083
94841W        W61624  18.091   7.651  13.913
94842W        W61625  21.973  17.734   0.270
94843W        W61626  32.608  40.439  12.029
94844W        W61627  42.301  41.607  11.219
94845W        W61628  28.498  16.064   4.908
94846W        W61629  17.732  13.176  10.582
94847W        W61630   7.973  11.620   2.371
94848W        W61631  17.200  15.290  14.285
94849W        W61632  44.075  24.045  13.321
94850W        W61633  15.144  14.794   0.832
94851W        W61634   5.865  41.225   5.305
94852W        W61635  42.979   3.272   2.330
94853W        W61636   2.511  39.879  11.680
94854W        W61637  31.152  13.513  14.989
94855W        W61638  13.674   5.638  12.189
94856W        W61639  39.483  41.261  12.999
94857W        W61640  29.242  18.241   0.658
94858W        W61641   4.668  28.667   3.684
94859W        W61642   0.332   2.249   4.246
94860W        W61643  43.672  11.643   4.239
94861W        W61644  35.064  27.983   3.298
94862W        W61645  27.502   5.911   4.402
94863W        W61646  34.997  37.640  10.346
94864W        W61647   1.251   0.080   1.405
94865W        W61648  11.876  29.956  10.751
94866W        W61649  26.674  37.569  11.293
94867W        W61650   3.147  14.590   4.948
94868W        W61651   9.808   0.270  14.242
94869W        W61652  20.798  24.315   0.745
94870W        W61653  19.832  37.091   3.926
94871W        W61654  21.201  28.552  11.003
94872W        W61655  26.774   4.732  10.035
94873W        W61656  15.429   6.576  12.979
94874W        W61657  44.350  24.467  11.098
94875W        W61658  26.462  18.595  11.606
94876W        W61659  43.323  43.116  11.324
94877W        W61660  11.243  20.693   3.936
94878W        W61661  15.414   4.243   0.524
94879W        W61662  16.327  15.876  11.550
94880W        W61663  25.084  11.829  13.970
94881W        W61664  30.058  37.111   2.691
94882W        W61665  26.319  44.749   2.686
94883W        W61666  32.236   2.585   3.891
94884W        W61667  23.674   1.626   4.985
94885W        W61668   9.032   6.831   2.629
94886W        W61669  23.446  35.486   4.357
94887W        W61670  13.576  15.138   1.579
94888W        W61671   6.759  31.799   3.177
94889W        W61672  41.802  23.074  14.028
94890W        W61673   0.755  27.541   4.289
94891W        W61674  14.253  37.405   0.407
94892W        W61675   0.472  43.297   4.265
94893W        W61676  29.906  23.420  14.228
94894W        W61677  26.538  34.955  11.808
94895W        W61678   9.264  15.005  12.634
94896W        W61679   7.376  41.824  14.632
94897W        W61680  43.339   1.371   4.427
94898W        W61681  24.454  10.870   1.709
94899W        W61682  29.754  41.638   4.962
94900W        W61683  31.863  35.564   1.248
94901W        W61684  33.814   7.515  12.742
94902W        W61685  21.179  23.870  13.947
94903W        W61686   3.867  11.914   4.606
94904W        W61687  18.566  35.657  13.966
94905W        W61688  31.199   8.366   9.855
94906W        W61689  44.409  24.289   1.468
94907W        W61690   0.802  42.408  11.481
94908W        W61691  39.305  14.802  12.937
94909W        W61692  35.965  19.790  14.012
94910W        W61693  40.611  26.593   2.228
94911W        W61694  22.691  43.005   0.994
94912W        W61695  37.373   2.082  10.303
94913W        W61696   5.734   6.117   2.169
94914W        W61697  33.853   5.654   5.446
94915W        W61698  32.863  26.004   4.542
94916W        W61699  33.818  22.499  11.165
94917W        W61700  23.492   7.245  14.281
94918W        W61701  38.973   6.231   4.148
94919W        W61702   2.915  22.142   1.950
94920W        W61703  29.406  22.521   4.579
94921W        W61704   4.161   8.378   3.201
94922W        W61705  15.572   1.936  10.457
94923W        W61706  24.659  29.423  10.558
94924W        W61707   3.266   5.193   3.745
94925W        W61708   9.410   9.739   2.033
94926W        W61709  25.430  36.481  12.896
94927W        W61710   6.649  42.799   4.208
94928W        W61711  38.662  19.006   3.347
94929W        W61712  42.826  28.774  13.803
94930W        W61713  43.255  28.882  13.539
94931W        W61714  26.531  43.092   1.756
94932W        W61715  21.968  30.706  12.483
94933W        W61716   0.887   7.908   0.996
94934W        W61717  16.981  10.962  12.628
94935W        W61718  37.054  27.579  13.872
94936W        W61719  39.111   6.404   4.611
94937W        W61720  44.437  25.989   2.715
94938W        W61721   2.879  33.431   0.999
94939W        W61722  19.134   2.723   3.366
94940W        W61723  29.757  24.907  10.959
94941W        W61724   3.413  27.898  11.677
94942W        W61725  22.499  17.110   1.412
94943W        W61726   4.353  33.653  11.479
94944W        W61727  30.407  32.431   1.445
94945W        W61728   9.596   4.450   3.883
94946W        W61729  13.092  19.121   0.326
94947W        W61730   9.444  40.405  13.339
94948W        W61731  42.883  38.385   0.608
94949W        W61732  36.477  39.063   3.901
94950W        W61733   4.220  41.801   2.824
94951W        W61734  39.285  11.297  11.592
94952W        W61735   6.130  32.480   3.636
94953W        W61736   1.793  39.384  13.182
94954W        W61737   5.322  44.846  14.722
94955W        W61738  12.149   1.815  12.555
94956W        W61739  33.397  41.007   0.765
94957W        W61740  26.936  15.847  10.425
94958W        W61741  19.363  17.794  14.418
94959W        W61742  17.257  26.167  12.314
94960W        W61743  14.775   9.631  12.313
94961W        W61744  42.015   1.323   3.180
94962W        W61745  11.335   3.441   2.225
94963W        W61746  41.968  12.627  12.100
94964W        W61747  36.804   0.824  11.293
94965W        W61748  33.813  13.861   3.624
94966W        W61749  13.325  16.344  13.369
94967W        W61750   9.627  43.434   1.782
94968W        W61751  39.870   2.439  11.318
94969W        W61752  26.550  33.782  11.115
94970W        W61753  40.876  21.740   3.186
94971W        W61754  23.630  29.173   0.846
94972W        W61755  11.178  19.076   0.483
94973W        W61756  33.306   3.717  11.069
94974W        W61757   3.051  20.886  12.554
94975W        W61758  38.151  18.758  13.663
94976W        W61759  24.735  25.653   2.679
94977W        W61760  27.442   7.464  11.659
94978W        W61761   9.754  28.363  11.524
94979W        W61762  18.677  14.215   4.135
94980W        W61763  41.545  17.087  12.092
94981W        W61764  33.331  16.819  11.737
94982W        W61765  20.870  21.128  14.307
94983W        W61766  44.502  14.303  14.226
94984W        W61767  17.647  19.975  11.254
94985W        W61768  26.992  28.570   1.966
94986W        W61769  43.569  41.384  13.331
94987W        W61770  38.066  11.198  13.883
94988W        W61771  23.206  42.438  14.875
94989W        W61772  22.011   4.186  12.556
94990W        W61773  12.333   7.233   9.876
94991W        W61774   2.311  21.485  10.334
94992W        W61775  15.584  16.161  14.757
94993W        W61776  17.638  40.261  14.792
94994W        W61777   6.418   0.885   3.248
94995W        W61778  32.971  40.030   1.251
94996W        W61779   0.583  44.934  11.722
94997W        W61780   4.781   8.755   0.571
94998W        W61781  14.590   3.382   5.074
94999W        W61782  23.122  20.684   3.764
95000W        W61783   2.527  35.708  13.932
95001W        W61784   0.804  32.364   4.118
95002W        W61785  28.237  41.852   2.619
95003W        W61786   8.110  10.651   3.683
95004W        W61787  30.551  37.746   2.128
95005W        W61788  43.973  22.205  13.230
95006W        W61789   2.702  31.059   1.315
95007W        W61790  30.524  38.251   2.148
95008W        W61791   9.717   2.058  14.650
95009W        W61792  42.904  16.927   4.117
95010W        W61793  21.514   1.782   2.801
95011W        W61794   9.293  25.112  13.358
95012W        W61795  13.640  22.436   2.820
95013W        W61796  21.054  41.032   4.559
95014W        W61797  36.099  39.010   0.211
95015W        W61798  32.882  14.621  13.855
95016W        W61799  17.064  24.968  14.350
95017W        W61800   1.302  44.040  13.753
95018W        W61801  35.403  30.003  14.493
95019W        W61802  39.072  29.685   0.429
95020W        W61803   3.481   6.868   4.123
95021W        W61804  44.927  20.667   3.259
95022W        W61805   6.962   2.612  12.135
95023W        W61806   0.383  14.606  12.925
95024W        W61807   3.094  31.182   0.509
95025W        W61808   0.554   1.233   3.737
95026W        W61809  29.973  12.932  12.537
95027W        W61810  34.965  37.789   4.206
95028W        W61811  35.828  11.874   4.566
95029W        W61812  20.148   8.531  11.593
95030W        W61813   6.972   9.198   0.348
95031W        W61814  37.686  33.550   0.443
95032W        W61815   7.812   4.415  13.810
95033W        W61816  12.599  23.020  12.803
95034W        W61817  42.314  16.933   1.843
95035W        W61818  10.779  22.515   4.538
95036W        W61819  43.570  40.405   1.674
95037W        W61820  25.849  35.021   4.117
95038W        W61821  30.488  19.095  14.749
95039W        W61822  21.366   9.229   1.742
95040W        W61823  34.173  37.098   2.744
95041W        W61824  42.843  23.284   4.723
95042W        W61825   7.127  10.680   0.292
95043W        W61826  23.222  33.687  13.044
95044W        W61827  29.265  28.558  14.799
95045W        W61828  33.332  13.182   2.348
95046W        W61829  32.422  16.513   2.783
95047W        W61830  29.669  10.203   4.832
95048W        W61831  10.390  26.379  12.473
95049W        W61832  19.591  29.644  14.216
95050W        W61833  32.380   9.241   0.813
95051W        W61834   6.368   0.255  10.036
95052W        W61835  23.425   5.030   4.137
95053W        W61836   6.154   2.830   4.510
95054W        W61837   9.748   0.973  11.534
95055W        W61838  30.454  40.111   1.848
95056W        W61839  13.383  36.229   1.419
95057W        W61840  24.386  23.074   3.179
95058W        W61841  37.843  10.708   3.084
95059W        W61842  26.566  33.113  13.010
95060W        W61843  35.110  43.540   0.026
95061W        W61844  30.533  20.704   4.978
95062W        W61845  28.483  12.805  12.745
95063W        W61846  18.085  18.746   1.184
95064W        W61847  36.871  40.082   3.135
95065W        W61848   4.610  29.187   4.539
95066W        W61849   2.593  44.420  14.893
95067W        W61850   2.619   9.257  13.241
95068W        W61851  17.620  27.136   0.770
95069W        W61852   0.923  21.256   3.420
95070W        W61853  26.772  29.350  10.298
95071W        W61854  25.990  44.704   4.477
95072W        W61855  21.048   0.068  14.914
95073W        W61856  10.617  43.454  13.413
95074W        W61857  21.289  12.910   1.328
95075W        W61858  31.784  28.980   4.814
95076W        W61859  24.537  28.144   4.044
95077W        W61860  19.105  16.682   2.341
95078W        W61861   1.406  43.211   2.527
95079W        W61862   8.328  34.033  12.085
95080W        W61863  24.194  16.292   1.549
95081W        W61864   0.737  42.760   3.688
95082W        W61865  32.537   3.409   3.164
95083W        W61866  21.865  33.534  10.180
95084W        W61867   7.026  29.658  14.065
95085W        W61868  11.315  44.731  11.574
95086W        W61869   9.061  22.059   3.853
95087W        W61870   1.681   5.031   2.381
95088W        W61871   8.849  11.832   1.440
95089W        W61872   2.971  26.482   4.252
95090W        W61873   4.354   7.273  10.676
95091W        W61874  19.308   0.852   3.669
95092W        W61875  42.128   1.841   3.132
95093W        W61876  13.169   8.489   3.217
95094W        W61877  21.611   6.179  12.922
95095W        W61878  38.953   9.441   0.789
95096W        W61879  37.794  37.382  14.010
95097W        W61880  23.583   0.372  13.060
95098W        W61881   2.651   2.730   1.225
95099W        W61882  14.772  14.818  11.346
95100W        W61883  22.097  11.177  14.278
95101W        W61884  13.574  35.920  13.471
95102W        W61885  23.545   6.080  13.514
95103W        W61886  31.862  41.620  10.995
95104W        W61887  26.019  35.124  10.772
95105W        W61888  37.430  14.082   1.783
95106W        W61889  29.180   5.741   3.760
95107W        W61890  11.507  32.908  14.475
95108W        W61891  19.623  30.240  12.987
95109W        W61892   7.592  44.961   3.956
95110W        W61893  38.460  17.034  11.532
95111W        W61894  21.131  31.966  10.297
95112W        W61895  27.089  32.658  13.492
95113W        W61896   1.014  38.417   3.461
95114W        W61897  33.332  29.016   2.846
95115W        W61898  40.121  26.919  12.582
95116W        W61899  39.126   3.510   4.158
95117W        W61900   1.079  21.944   4.609
95118W        W61901  23.508  26.836  12.959
95119W        W61902  26.738   7.285   0.737
95120W        W61903  43.669  15.741  12.160
95121W        W61904  14.452  38.076   2.237
95122W        W61905  35.753   8.016  12.843
95123W        W61906  10.296   2.434  11.042
95124W        W61907  39.044  37.781   1.300
95125W        W61908  14.916  20.332   3.747
95126W        W61909  43.952  11.692   1.962
95127W        W61910   4.732  10.824  13.048
95128W        W61911  19.801  37.542  14.429
95129W        W61912  44.394   1.501  14.774
95130W        W61913  28.456  23.261  12.455
95131W        W61914  40.013  28.572  12.830
95132W        W61915  18.807  43.975   1.502
95133W        W61916   7.349  38.267   2.223
95134W        W61917  30.696  36.296   0.767
95135W        W61918  27.709  29.323  13.789
95136W        W61919   4.994  25.094   9.826
95137W        W61920  29.976  16.815   3.710
95138W        W61921  40.794   1.620  14.846
95139W        W61922   6.201  12.109   4.605
95140W        W61923  24.969  40.891   0.834
95141W        W61924  22.011  43.935  12.057
95142W        W61925  18.573  17.183   3.228
95143W        W61926  30.896  16.563   9.548
95144W        W61927  38.873  25.693   4.556
95145W        W61928  28.478  22.461   3.134
95146W        W61929   2.206  14.296   3.331
95147W        W61930  43.605  35.676  11.052
95148W        W61931  36.412  17.701   0.966
95149W        W61932  19.536   6.122   1.882
95150W        W61933  35.760  30.469   3.057
95151W        W61934  43.940   1.983   0.632
95152W        W61935   3.454  10.688   2.526
95153W        W61936  21.212  28.464   1.870
95154W        W61937  34.514   8.521  11.154
95155W        W61938  11.713  41.251   3.326
95156W        W61939   6.034  31.670  11.999
95157W        W61940  36.373   1.918  12.887
95158W        W61941  12.572  36.535  14.537
95159W        W61942  26.492   8.336  10.417
95160W        W61943   0.850  27.118  12.242
95161W        W61944  11.682  40.942   4.398
95162W        W61945  34.378   0.993   1.442
95163W        W61946  31.399  34.110   2.371
95164W        W61947  32.321  39.478   0.375
95165W        W61948  35.805   7.091  13.944
95166W        W61949  18.708  35.448   3.160
95167W        W61950  25.227  26.126   2.046
95168W        W61951  26.560  10.791  12.033
95169W        W61952   0.270  22.968  13.891
95170W        W61953  11.903  21.961   4.348
95171W        W61954  34.927  32.008   3.620
95172W        W61955  14.066   8.111   4.974
95173W        W61956  14.518  22.532  10.282
95174W        W61957  10.680  38.042  11.988
95175W        W61958  23.775  23.837   0.416
95176W        W61959  14.571  27.008   4.442
95177W        W61960  20.625  25.200   1.435
95178W        W61961  21.200  29.055  10.842
95179W        W61962   0.818  13.753   4.590
95180W        W61963  34.908  19.375   2.760
95181W        W61964   9.261  26.853  11.133
95182W        W61965  31.340  39.754  13.424
95183W        W61966   4.290  20.695  12.155
95184W        W61967  17.350  27.095   1.709
95185W        W61968  18.658  27.658   3.130
95186W        W61969   8.838  26.451   1.264
95187W        W61970  30.380  13.886  12.421
95188W        W61971  18.321  43.259  12.895
95189W        W61972  40.123  37.878  12.647
95190W        W61973  37.012  41.340   2.717
95191W        W61974  36.968  23.605   3.628
95192W        W61975  28.715   9.295   4.086
95193W        W61976  11.104  25.331  13.245
95194W        W61977  44.770  17.036   3.606
95195W        W61978   7.377   4.181  14.265
95196W        W61979  26.969  26.262   4.431
95197W        W61980  36.353   3.042  12.419
95198W        W61981  31.522  13.167   3.897
95199W        W61982   8.158  42.764   2.230
95200W        W61983  31.883  22.964  11.229
95201W        W61984   0.183  37.051  12.917
95202W        W61985  37.557  29.577   0.278
95203W        W61986  17.574  43.777  13.943
95204W        W61987  42.735  14.897   2.386
95205W        W61988  29.556   8.132   0.439
95206W        W61989   1.535   6.888   1.078
95207W        W61990  22.637  14.910  14.078
95208W        W61991  20.341  25.653   2.442
95209W        W61992  10.089  28.350   2.646
95210W        W61993  19.089  44.732  13.822
95211W        W61994  38.328  12.137   1.231
95212W        W61995  18.042  29.137  11.067
95213W        W61996   5.952  15.581  10.712
95214W        W61997   6.663   7.348  12.490
95215W        W61998   0.452  12.643  13.719
95216W        W61999   8.853  11.263   0.348
95217W        W62000  36.387  39.551   0.848
95218W        W62001  34.451  26.238  14.441
95219W        W62002  11.593  34.472  13.617
95220W        W62003  40.980  43.072   2.323
95221W        W62004  43.889  21.031  12.956
95222W        W62005   9.297   6.139  10.718
95223W        W62006   3.372  23.978   4.107
95224W        W62007  13.190  41.827  10.469
95225W        W62008   6.324   2.433   3.005
95226W        W62009  22.725  43.876  14.467
95227W        W62010  14.034  39.387   2.525
95228W        W62011  37.452  20.193  13.032
95229W        W62012  10.506  24.783  12.134
95230W        W62013   7.288   8.143   1.270
95231W        W62014  34.164  35.549  14.402
95232W        W62015  19.232  15.078  11.516
95233W        W62016  15.722  30.640   2.405
95234W        W62017  23.471   6.971  12.480
95235W        W62018  44.842  42.776   1.473
95236W        W62019  16.089  16.529   2.125
95237W        W62020  22.535  41.020   1.777
95238W        W62021  34.148  28.456  11.703
95239W        W62022  12.274  20.332  12.502
95240W        W62023  36.632  25.469  11.637
95241W        W62024  26.588  44.101   2.657
95242W        W62025  21.861  17.768   4.201
95243W        W62026  27.239  26.019   1.741
95244W        W62027  28.646   1.131  11.554
95245W        W62028  15.270  35.920  14.562
95246W        W62029  34.816  41.425  13.365
95247W        W62030  22.476  17.263  13.589
95248W        W62031  28.671   7.955   0.905
95249W        W62032   6.611   4.350   4.006
95250W        W62033  27.507  24.902   5.400
95251W        W62034  31.177  37.129   3.850
95252W        W62035  28.335   4.371   2.236
95253W        W62036  22.919  44.782   1.279
95254W        W62037  33.476  23.371   3.198
95255W        W62038   4.835  39.287  11.256
95256W        W62039  19.063   3.024  13.577
95257W        W62040   6.811  20.079  11.193
95258W        W62041  38.007  35.979   1.058
95259W        W62042  11.903  26.741   1.558
95260W        W62043  39.846  25.608   1.564
95261W        W62044  42.687  33.546   1.779
95262W        W62045  28.549  21.589  14.233
95263W        W62046   5.408   9.798  14.823
95264W        W62047  43.541  10.271   4.997
95265W        W62048  33.930  20.126  11.289
95266W        W62049  32.362  37.462  14.700
95267W        W62050   4.220  36.632   0.698
95268W        W62051  19.869  38.409  14.574
95269W        W62052  41.798  19.549  11.526
95270W        W62053  25.522   0.451   1.862
95271W        W62054   2.914  29.214  10.678
95272W        W62055  43.482  21.610   4.701
95273W        W62056   4.724  11.639   3.639
95274W        W62057  12.631  30.419  13.087
95275W        W62058   8.537   8.410  13.425
95276W        W62059  32.992  29.699  13.977
95277W        W62060  25.589  16.547   2.398
95278W        W62061   2.189  43.957  13.903
95279W        W62062   7.819  21.057  11.652
95280W        W62063   9.682  27.705  13.461
95281W        W62064  27.581  42.355  14.536
95282W        W62065   5.200  30.897  12.848
95283W        W62066  22.394  44.037  12.554
95284W        W62067  23.787  26.422  14.891
95285W        W62068  24.081  14.928   3.321
95286W        W62069  34.323   2.794   2.194
95287W        W62070  10.011  16.525  13.527
95288W        W62071  33.544  19.420   4.636
95289W        W62072  26.776   7.234   2.025
95290W        W62073  16.117  42.350  14.292
95291W        W62074  27.274  16.619  11.989
95292W        W62075   4.403  14.657  12.094
95293W        W62076  38.387  26.604   4.537
95294W        W62077  29.649  26.553  13.958
95295W        W62078  34.132  33.641   3.729
95296W        W62079  26.681  14.326   1.773
95297W        W62080  19.151  30.919   4.136
95298W        W62081   9.136   3.932   4.565
95299W        W62082  11.158   4.826   3.098
95300W        W62083  17.372  29.465  13.089
95301W        W62084  33.302  23.449   4.083
95302W        W62085  32.402  22.630  13.110
95303W        W62086  27.107  30.490   1.753
95304W        W62087   1.885   8.693   3.676
95305W        W62088   0.887   5.850  12.557
95306W        W62089  35.928  23.778   4.234
95307W        W62090  14.817  35.855   4.565
95308W        W62091  27.679  29.675  11.645
95309W        W62092  31.208  40.008  10.568
95310W        W62093   0.344  12.736   3.638
95311W        W62094   8.952   9.138   3.508
95312W        W62095  29.139  11.135   0.926
95313W        W62096  21.480  20.278  13.005
95314W        W62097   0.986  36.637  12.633
95315W        W62098   2.714   8.998  11.408
95316W        W62099  18.811  37.890  14.924
95317W        W62100  22.771  38.597   0.846
95318W        W62101  29.204   6.690  13.044
95319W        W62102   9.849   1.915   3.832
95320W        W62103  28.420   5.552  10.684
95321W        W62104  15.557  25.214   1.295
95322W        W62105  40.247  22.038   2.766
95323W        W62106  26.632  26.227   1.417
95324W        W62107   6.428  40.332  13.615
95325W        W62108  29.219  20.241   2.829
95326W        W62109  42.045   4.411  12.647
95327W        W62110  11.677  37.779  13.830
95328W        W62111  31.296  23.378   1.300
95329W        W62112   9.242  16.008   0.879
95330W        W62113  15.170  35.615  12.926
95331W        W62114  15.676  15.534   4.238
95332W        W62115  29.483  25.746   0.255
95333W        W62116  15.953  33.648   5.100
95334W        W62117   8.636  36.225  10.710
95335W        W62118  25.920  38.545   3.227
95336W        W62119  29.017  40.998   0.169
95337W        W62120  14.663  14.552  10.461
95338W        W62121  12.035  36.800   4.947
95339W        W62122  18.076   3.715  13.115
95340W        W62123  28.594  28.281   3.565
95341W        W62124  15.604  44.580   3.135
95342W        W62125   6.241  14.532  11.534
95343W        W62126   3.444  13.559   0.766
95344W        W62127  25.616  18.145   2.161
95345W        W62128  15.525  10.679  14.472
95346W        W62129  24.770  44.864   2.656
95347W        W62130  14.804  18.770  11.512
95348W        W62131   4.258  43.569   4.285
95349W        W62132  44.735  39.204   2.173
95350W        W62133  28.096  33.973   0.019
95351W        W62134  39.127  35.013   3.139
95352W        W62135  15.644  32.631   0.335
95353W        W62136   0.005  44.728   0.700
95354W        W62137  12.866  44.217  11.041
95355W        W62138   7.195  23.209   3.897
95356W        W62139  43.935  34.922   4.317
95357W        W62140  33.006  29.936  11.580
95358W        W62141  22.481  18.476  14.776
95359W        W62142  11.171  33.859   3.160
95360W        W62143  42.351   1.945   1.250
95361W        W62144  43.407  10.558   2.827
95362W        W62145   2.430  12.784  11.730
95363W        W62146  14.561   8.238  11.385
95364W        W62147  26.740  14.873   2.676
95365W        W62148  22.885   7.766   3.790
95366W        W62149   3.241  35.434   4.464
95367W        W62150  28.078  17.880   9.969
95368W        W62151   7.915  42.075  14.891
95369W        W62152  39.099  11.136   3.047
95370W        W62153  43.269  30.405  12.463
95371W        W62154   9.664  12.994  12.571
95372W        W62155  26.752  42.133   5.034
95373W        W62156  27.654  34.958  12.876
95374W        W62157   9.694  25.278  12.184
95375W        W62158  34.584  41.469   2.325
95376W        W62159  40.200  31.336  12.045
95377W        W62160  31.198  14.650  13.425
95378W        W62161   1.535   7.123   3.370
95379W        W62162   7.796   8.887   3.765
95380W        W62163  17.823  40.354  11.270
95381W        W62164  36.650  38.356  14.953
95382W        W62165  19.267  31.779  14.831
95383W        W62166  30.443   2.370   4.066
95384W        W62167   0.393  10.452  10.953
95385W        W62168   7.832  10.219   5.282
95386W        W62169  43.481  41.041  12.436
95387W        W62170  32.548  15.557   5.259
95388W        W62171  17.668   7.962  14.003
95389W        W62172  22.957  18.049  13.382
95390W        W62173   5.058  21.671   1.161
95391W        W62174  21.184  35.592   3.387
95392W        W62175   6.972   2.911  14.963
95393W        W62176  37.653  37.023   3.138
95394W        W62177  24.079  20.988  11.585
95395W        W62178  36.612   9.969   0.748
95396W        W62179   3.742  40.397   4.188
95397W        W62180   1.997  27.172  12.618
95398W        W62181   4.699   4.645  12.953
95399W        W62182   6.204   0.513   2.327
95400W        W62183  11.299  39.147   1.255
95401W        W62184   2.744  34.361  11.152
95402W        W62185  37.951  26.571   1.694
95403W        W62186  17.231  42.120   4.760
95404W        W62187  17.379  14.722   0.842
95405W        W62188  35.468   1.657   4.608
95406W        W62189  16.346  27.682  11.628
95407W        W62190  16.670  13.760  12.320
95408W        W62191  30.453  35.988   0.357
95409W        W62192  10.853  24.680  10.930
95410W        W62193  12.129  36.939   0.296
95411W        W62194  27.046  44.397  14.364
95412W        W62195  19.776  44.686  14.398
95413W        W62196   1.799  34.841  14.527
95414W        W62197  12.960   7.371   5.026
95415W        W62198  36.456  43.956  14.429
95416W        W62199  43.482  41.402   1.770
95417W        W62200   4.002  42.369   2.299
95418W        W62201  37.946   1.054  13.093
95419W        W62202  33.664  19.495   3.197
95420W        W62203  41.723   7.133  11.612
95421W        W62204  19.235  12.261  11.803
95422W        W62205  13.256   5.928  12.118
95423W        W62206  27.175   0.757   2.207
95424W        W62207  20.716  37.430  14.074
95425W        W62208  20.608  37.033   2.395
95426W        W62209  40.243  17.978   0.742
95427W        W62210  39.961  23.491   0.793
95428W        W62211   9.600   6.615  13.870
95429W        W62212  16.631   9.327  12.922
95430W        W62213  14.551  30.094  11.526
95431W        W62214  43.552  10.372   1.900
95432W        W62215  37.902  34.243  12.421
95433W        W62216  10.360  29.883   1.145
95434W        W62217  26.254  15.478   3.362
95435W        W62218  18.720  30.020   0.829
95436W        W62219   2.631  39.333   1.660
95437W        W62220   6.985  20.587  11.241
95438W        W62221   7.869  40.663   4.394
95439W        W62222  26.280  33.338  14.802
95440W        W62223  27.065  16.195  12.197
95441W        W62224  20.497   1.584   2.750
95442W        W62225  16.825  26.150  13.886
95443W        W62226  37.814   1.766  12.490
95444W        W62227  20.284  44.810  11.533
95445W        W62228  31.623  23.651   3.716
95446W        W62229  21.046   2.682  11.438
95447W        W62230  41.856  43.035  10.656
95448W        W62231  25.014  24.913   0.333
95449W        W62232  31.845   9.906   0.530
95450W        W62233  16.545  14.861   1.304
95451W        W62234  39.477  25.172   3.180
95452W        W62235  37.834  21.166  14.483
95453W        W62236   4.492  13.063  13.578
95454W        W62237  34.414  24.411   1.777
95455W        W62238  14.674  35.488  12.981
95456W        W62239  20.986  16.966  13.529
95457W        W62240  38.062  11.647   4.055
95458W        W62241   2.397  31.204   2.071
95459W        W62242  27.647  13.742   3.670
95460W        W62243  21.522  28.158  11.528
95461W        W62244  43.847  29.196   0.226
95462W        W62245   1.133  19.935   4.516
95463W        W62246  21.214   9.571  12.051
95464W        W62247   8.727  31.011  12.078
95465W        W62248  34.315  36.951  10.685
95466W        W62249  37.415  15.039  14.240
95467W        W62250  11.549  27.562   4.626
95468W        W62251  41.718  23.058  13.088
95469W        W62252  22.536  43.272  12.568
95470W        W62253   2.881  34.917   2.767
95471W        W62254  12.552  34.004   0.982
95472W        W62255  19.920   3.967   3.921
95473W        W62256  22.790  22.278   2.265
95474W        W62257  42.318   0.438  11.658
95475W        W62258  26.746   6.689   1.249
95476W        W62259  13.933  27.977   2.416
95477W        W62260  33.227  21.669  10.845
95478W        W62261   1.370   5.203  12.881
95479W        W62262  43.333   0.928   1.276
95480W        W62263  24.347   5.305  11.979
95481W        W62264  36.376  32.115   0.173
95482W        W62265   0.905   2.590   2.268
95483W        W62266  11.483   1.392  13.489
95484W        W62267  12.844  33.910   0.100
95485W        W62268  25.488   8.200  14.321
95486W        W62269  42.022  18.022  10.769
95487W        W62270  20.434   4.124   3.130
95488W        W62271  22.197  44.370   4.013
95489W        W62272  15.841  15.835   4.607
95490W        W62273  32.127  17.339   1.714
95491W        W62274  14.220  27.598   0.393
95492W        W62275  24.671  35.165  13.382
95493W        W62276  10.124  20.364  14.598
95494W        W62277  44.249  16.572  14.954
95495W        W62278  27.994  41.055  10.679
95496W        W62279   1.782  40.124  13.686
95497W        W62280  21.705  35.007   3.525
95498W        W62281  22.170  34.598   1.364
95499W        W62282  42.295  26.978   4.132
95500W        W62283  30.049  21.241   1.184
95501W        W62284  27.001  43.786  10.670
95502W        W62285   6.945  29.510  13.060
95503W        W62286   5.580   4.386   3.157
95504W        W62287  38.405  42.585   3.313
95505W        W62288  29.151   8.361   0.191
95506W        W62289  37.053  31.585   3.105
95507W        W62290  40.350  44.409   1.243
95508W        W62291   8.552   9.589   2.255
95509W        W62292  38.775  44.837   3.809
95510W        W62293  16.022   6.334   2.509
95511W        W62294  29.378   6.620   3.987
95512W        W62295  13.580  44.706  14.823
95513W        W62296  33.825  13.256   2.285
95514W        W62297   5.490  29.956   3.669
95515W        W62298  34.328  30.932   1.551
95516W        W62299  17.756   9.759   4.511
95517W        W62300   3.709  36.961   2.754
95518W        W62301  40.805  28.178   3.774
95519W        W62302   2.415  26.784   0.381
95520W        W62303  14.630  15.005   0.916
95521W        W62304   4.353  35.622   3.289
95522W        W62305  16.627   9.735  14.878
95523W        W62306  27.658  30.353  13.332
95524W        W62307  16.178  13.511  10.659
95525W        W62308   1.676   3.742   2.699
95526W        W62309  41.830   9.934   4.111
95527W        W62310  23.727  27.508   1.864
95528W        W62311  41.403   2.413  14.649
95529W        W62312  12.481   3.290   0.895
95530W        W62313  13.115  12.887  12.091
95531W        W62314  11.843  35.132   2.693
95532W        W62315  12.852   9.944   4.130
95533W        W62316   3.383  15.947   2.355
95534W        W62317   4.356  16.011   1.385
95535W        W62318   9.893  41.217  11.528
95536W        W62319  20.242   6.764   0.789
95537W        W62320   8.843  13.921  12.049
95538W        W62321  36.832  25.459   0.270
95539W        W62322  30.629  40.282   1.348
95540W        W62323  16.282  40.080   0.821
95541W        W62324  35.981  41.833   0.628
95542W        W62325  10.565   1.297  11.401
95543W        W62326  39.670  16.955  10.014
95544W        W62327  41.668   0.943   1.751
95545W        W62328  30.723  29.208   0.744
95546W        W62329  39.098  41.366  11.651
95547W        W62330  25.126   9.201   2.689
95548W        W62331  33.847   6.335   0.917
95549W        W62332  33.894  25.372   4.187
95550W        W62333  32.638  37.399  11.710
95551W        W62334   7.493  18.208   4.731
95552W        W62335  24.712  23.642   4.938
95553W        W62336  28.105  35.844  14.055
95554W        W62337   9.265   5.500   3.171
95555W        W62338   1.858  29.317   1.531
95556W        W62339  35.962  21.789  10.709
95557W        W62340  26.534  31.957  13.415
95558W        W62341   0.266   5.370  11.431
95559W        W62342  37.078   4.224  12.642
95560W        W62343  11.863   8.742   3.814
95561W        W62344  44.386  44.536  13.074
95562W        W62345  21.310  29.746   4.599
95563W        W62346  18.947  21.223   1.921
95564W        W62347  11.475  23.060   1.094
95565W        W62348  36.163  21.458   3.686
95566W        W62349  40.826  12.185   1.745
95567W        W62350  28.203   1.789  10.651
95568W        W62351  43.382  17.725   1.539
95569W        W62352  34.335  27.554   0.754
95570W        W62353  13.579  20.241  12.121
95571W        W62354  26.361   1.983   4.146
95572W        W62355  23.473  39.165   4.575
95573W        W62356  19.435  32.915  12.863
95574W        W62357  29.477  35.988  12.610
95575W        W62358  42.957  13.787  13.603
95576W        W62359  26.485  18.201   1.598
95577W        W62360  38.004  30.644  12.905
95578W        W62361  23.414   6.015   4.185
95579W        W62362  17.560  11.758  11.837
95580W        W62363  36.533  16.099   2.326
95581W        W62364   1.231  43.740  12.874
95582W        W62365   5.070  14.512   1.691
95583W        W62366  27.437  26.422   4.571
95584W        W62367  37.234   8.393   2.267
95585W        W62368  23.746  39.430  12.039
95586W        W62369   3.399  14.802  12.545
95587W        W62370   2.674   5.388  12.133
95588W        W62371  43.592   1.873   1.032
95589W        W62372  24.111  32.907  11.638
95590W        W62373  43.863   0.532   2.346
95591W        W62374  16.069  18.530  12.147
95592W        W62375  18.668   8.147   1.253
95593W        W62376   8.113  15.047   0.789
95594W        W62377  20.076   6.654   1.845
95595W        W62378  39.125  42.885   0.626
95596W        W62379  11.324  11.138  13.226
95597W        W62380   1.720  36.024   2.785
95598W        W62381  33.573  24.789  12.577
95599W        W62382  21.252  27.203  10.547
95600W        W62383  42.403  24.515  10.692
95601W        W62384   7.835  35.625   3.648
95602W        W62385  33.160  10.450  14.969
95603W        W62386  13.165  26.150   4.547
95604W        W62387  32.559  17.296  14.733
95605W        W62388  18.547   5.442  12.772
95606W        W62389  21.297  35.840   3.844
95607W        W62390  18.813  37.218   2.403
95608W        W62391   7.866  35.049  13.976
95609W        W62392   4.498   9.732  11.038
95610W        W62393   6.943  24.552   2.758
95611W        W62394  14.145  24.170  14.826
95612W        W62395  21.117  24.312   3.312
95613W        W62396  29.985  15.799   2.658
95614W        W62397  39.468  41.936   2.924
95615W        W62398   3.285  30.973  11.211
95616W        W62399   5.261  18.076  14.489
95617W        W62400  17.199  36.819  10.607
95618W        W62401   6.886   3.650  11.976
95619W        W62402  43.246  14.943  13.873
95620W        W62403   4.603   1.432   2.365
95621W        W62404   3.316  32.974   4.634
95622W        W62405  40.655   3.453  11.481
95623W        W62406  37.160  33.612  14.770
95624W        W62407  34.643  44.485  12.526
95625W        W62408  39.698  15.813   4.594
95626W        W62409  22.170  26.386   0.954
95627W        W62410  17.257  33.297  10.988
95628W        W62411  21.747  39.313  11.012
95629W        W62412   1.099   5.404  14.432
95630W        W62413  28.707  41.297  13.246
95631W        W62414   9.408   1.973   3.294
95632W        W62415   4.703  13.706   4.838
95633W        W62416  23.602  15.907   4.720
95634W        W62417  27.018  34.473   0.415
95635W        W62418  13.071   4.342   0.734
95636W        W62419   3.958  37.502   0.268
95637W        W62420  39.583  30.162   0.953
95638W        W62421   1.736  36.137   2.241
95639W        W62422  32.114  29.576   3.529
95640W        W62423   5.929  35.348  13.187
95641W        W62424  35.332  15.372   4.201
95642W        W62425  37.923  36.369   2.884
95643W        W62426  43.407  32.646  11.211
95644W        W62427  28.990  24.581   1.407
95645W        W62428   4.224  22.446  11.949
95646W        W62429  22.376  39.461   4.188
95647W        W62430  33.392  26.804   5.132
95648W        W62431  38.605  14.785   1.756
95649W        W62432  23.533  38.544  13.372
95650W        W62433  20.318  29.999  13.307
95651W        W62434  40.279  28.979  11.960
95652W        W62435  36.978  31.826  10.479
95653W        W62436  25.082  21.787  10.630
95654W        W62437  15.310  20.628  12.926
95655W        W62438  36.585  19.187   4.143
95656W        W62439  30.432  42.513   1.700
95657W        W62440  27.138  29.497   3.348
95658W        W62441  23.058  31.743   1.848
95659W        W62442  31.867  31.562   2.719
95660W        W62443   3.373  29.636   4.110
95661W        W62444  10.052   4.945  13.143
95662W        W62445  11.796  23.074  10.576
95663W        W62446  19.805   4.220  11.099
95664W        W62447  35.265  18.640   4.946
95665W        W62448  18.799  15.662  10.665
95666W        W62449  41.388   7.425  12.462
95667W        W62450  34.158  11.850  12.706
95668W        W62451  22.526   2.618   3.573
95669W        W62452  34.454  22.907  14.933
95670W        W62453  15.307  10.669  11.461
95671W        W62454  23.684  10.668  12.950
95672W        W62455  44.863  24.752  14.909
95673W        W62456  13.585  25.143   2.876
95674W        W62457  23.081  37.564  10.782
95675W        W62458  11.699   7.680  12.276
95676W        W62459   1.263   2.869  13.765
95677W        W62460  34.562   4.271   4.810
95678W        W62461  10.353  43.410   2.309
95679W        W62462  13.312  15.222   1.110
95680W        W62463   4.966  25.567  13.320
95681W        W62464   9.194  19.317  11.931
95682W        W62465  10.799  11.873   1.894
95683W        W62466  33.613  43.947  13.018
95684W        W62467  27.893  44.578  14.384
95685W        W62468   4.097  11.826  11.579
95686W        W62469  36.902  36.604   1.891
95687W        W62470   0.782  42.537  11.981
95688W        W62471   7.874  19.324  11.156
95689W        W62472  24.249  39.971  11.260
95690W        W62473  43.386   3.837  13.057
95691W        W62474   2.215  23.612  10.455
95692W        W62475   3.411  40.904   3.192
95693W        W62476  43.407  44.809   0.792
95694W        W62477  33.979  37.857   4.911
95695W        W62478   3.276   7.382  12.623
95696W        W62479   0.095  26.397   0.813
95697W        W62480  34.468  10.081   1.345
95698W        W62481  13.360  20.051   0.645
95699W        W62482  21.570  32.759  11.356
95700W        W62483  30.028  29.619   0.261
95701W        W62484  25.177   9.068  12.841
95702W        W62485   6.692   0.260  10.878
95703W        W62486  39.696   9.228   0.199
95704W        W62487  20.506   1.486  12.394
95705W        W62488  26.698  34.288   4.309
95706W        W62489  13.360  20.531   1.805
95707W        W62490   4.351  37.864  11.560
95708W        W62491   3.218  32.265   2.132
95709W        W62492  24.098   8.918   3.174
95710W        W62493  25.249  40.740  13.910
95711W        W62494   9.873  12.297   2.285
95712W        W62495   1.258  31.265  14.083
95713W        W62496   6.177  18.649   2.707
95714W        W62497  36.626  35.801  12.047
95715W        W62498  21.502  43.829  13.074
95716W        W62499  34.613  25.585   1.012
95717W        W62500  31.364  16.548   0.785
95718W        W62501   2.318  32.417  12.103
95719W        W62502  17.724   2.211   0.385
95720W        W62503  33.766   9.417  14.353
95721W        W62504  34.992  14.709   3.542
95722W        W62505  31.627   5.337   4.471
95723W        W62506  34.139   0.616   2.659
95724W        W62507   0.682  28.726   0.963
95725W        W62508  40.478   8.888  12.371
95726W        W62509  40.284  30.508  14.871
95727W        W62510  16.407  26.612   1.252
95728W        W62511   5.793  21.480   0.411
95729W        W62512   0.492  37.425  11.039
95730W        W62513  36.310  44.721  13.568
95731W        W62514  11.690   8.413   1.610
95732W        W62515  14.734  26.174   2.393
95733W        W62516  34.461  34.278   0.050
95734W        W62517  40.194  34.129  10.916
95735W        W62518   2.276   9.326   3.543
95736W        W62519  20.336  37.005   3.774
95737W        W62520  29.847  14.791  12.367
95738W        W62521  43.998  30.181  11.911
95739W        W62522   9.693  30.977   0.822
95740W        W62523  23.002  22.925   1.723
95741W        W62524   1.033   3.565  14.896
95742W        W62525   8.104  24.611  12.351
95743W        W62526  26.311  37.964   5.005
95744W        W62527  43.727   8.248  10.974
95745W        W62528  30.194   1.919   1.758
95746W        W62529   2.363  44.784  13.425
95747W        W62530  22.038  28.692  10.595
95748W        W62531  41.787   2.725  11.759
95749W        W62532  44.492  32.206  10.109
95750W        W62533  28.396  37.886  14.980
95751W        W62534  43.532   2.435  11.054
95752W        W62535  32.333  21.745  12.073
95753W        W62536   8.690   8.525  10.629
95754W        W62537  27.906  44.315  10.694
95755W        W62538  10.349  12.441  11.657
95756W        W62539  13.962  17.848   4.011
95757W        W62540  14.235  29.100  14.917
95758W        W62541  27.491  20.020  12.855
95759W        W62542   8.360  10.232  13.511
95760W        W62543   6.951  15.379  13.135
95761W        W62544  17.125  30.421   3.627
95762W        W62545   5.009   9.858   3.529
95763W        W62546  34.477  35.844  12.519
95764W        W62547  29.180   0.019   2.229
95765W        W62548   0.110  41.890   2.835
95766W        W62549  42.045  16.727   3.053
95767W        W62550  34.436   9.838   3.104
95768W        W62551  34.037  18.808   3.611
95769W        W62552   9.043  25.795   2.714
95770W        W62553  21.643  44.449   2.663
95771W        W62554  25.646   7.329   3.084
95772W        W62555   5.521   5.695  14.894
95773W        W62556  38.567  18.445  13.554
95774W        W62557  42.696  10.851   1.818
95775W        W62558   5.429  41.821   4.596
95776W        W62559  26.237  33.149  11.649
95777W        W62560  43.233  36.026   2.175
95778W        W62561  29.473  40.969   4.514
95779W        W62562  15.399  40.267   9.706
95780W        W62563  29.582   7.333  12.460
95781W        W62564  14.700  31.501   1.299
95782W        W62565  33.760   5.521   3.329
95783W        W62566   5.146   5.406   0.298
95784W        W62567  39.504  11.591   2.786
95785W        W62568  36.994  11.596  11.752
95786W        W62569  22.196  15.649  12.565
95787W        W62570   6.895  15.043  11.583
95788W        W62571  23.543  44.300   3.424
95789W        W62572  10.219   5.683  13.351
95790W        W62573  32.963  21.755  11.319
95791W        W62574  19.049   2.773   2.852
95792W        W62575  12.558   5.880  12.455
95793W        W62576   9.151  14.145   0.439
95794W        W62577  19.744  16.213  12.257
95795W        W62578   2.810  24.272   3.141
95796W        W62579  25.308   9.259   3.192
95797W        W62580  27.390  44.299  11.083
95798W        W62581  28.892   4.720  14.246
95799W        W62582  40.788  21.473   3.634
95800W        W62583  10.326  42.914  14.778
95801W        W62584   8.821   1.611   1.849
95802W        W62585  30.236  14.730   1.230
95803W        W62586  28.956  39.624  13.500
95804W        W62587  34.516  31.836  13.376
95805W        W62588  23.017  23.995  10.844
95806W        W62589   9.391  38.430  12.602
95807W        W62590  39.347  21.271  12.457
95808W        W62591   7.229   7.783  11.662
95809W        W62592   4.667  37.356   1.821
95810W        W62593  34.904  25.133   4.289
95811W        W62594  24.124   1.736  11.920
95812W        W62595  43.310  34.024   2.210
95813W        W62596  15.297   8.687  14.854
95814W        W62597  26.509  18.597   2.430
95815W        W62598  44.368  18.069   1.811
95816W        W62599   4.770   6.421  13.504
95817W        W62600  26.244  24.723   3.837
95818W        W62601   4.897  11.638  11.371
95819W        W62602   4.183  14.002  13.196
95820W        W62603  25.253   2.585  14.954
95821W        W62604  15.412  41.760  12.254
95822W        W62605  27.971  12.803   2.197
95823W        W62606   3.760  42.431  14.750
95824W        W62607  13.594   8.217   5.105
95825W        W62608  41.979  25.501  14.479
95826W        W62609  36.084  28.593  13.840
95827W        W62610  27.738   7.233   3.733
95828W        W62611   0.062   0.681   4.167
95829W        W62612   1.349  21.468  10.624
95830W        W62613  26.170  14.848   0.930
95831W        W62614   9.809  40.723  11.587
95832W        W62615   3.932  21.449   1.828
95833W        W62616  35.024  42.708   2.223
95834W        W62617  33.897  24.142   2.801
95835W        W62618  10.688  21.037  12.744
95836W        W62619  12.838  34.972   3.816
95837W        W62620  18.631  22.592  13.895
95838W        W62621   2.156  28.235   3.318
95839W        W62622  28.982  28.258   2.842
95840W        W62623  37.578   7.373   5.042
95841W        W62624  23.136  22.639  10.900
95842W        W62625  17.297  16.231   1.783
95843W        W62626   9.836  36.105  13.321
95844W        W62627  44.292  10.074  13.504
95845W        W62628   0.727  19.690   1.998
95846W        W62629  39.740  18.487  10.825
95847W        W62630  19.567  21.367  14.965
95848W        W62631   2.221  44.328   4.487
95849W        W62632  34.922  29.936  12.449
95850W        W62633  24.531  35.838   4.204
95851W        W62634  15.365  31.096  14.843
95852W        W62635  20.154   3.284   0.975
95853W        W62636  24.800  22.061   1.284
95854W        W62637  19.412   4.034  12.533
95855W        W62638  37.297   8.807  14.028
95856W        W62639  29.637  20.574  11.375
95857W        W62640  41.858  39.644   0.374
95858W        W62641  32.085  32.082   0.334
95859W        W62642  30.076  39.821   0.758
95860W        W62643  24.779  25.906   1.403
95861W        W62644  40.448   6.989   3.284
95862W        W62645   3.243  33.089   0.182
95863W        W62646  36.255   9.272   1.336
95864W        W62647  34.001  33.623   0.291
95865W        W62648  10.803   3.479   1.808
95866W        W62649  28.494   0.585  11.672
95867W        W62650  18.722   7.485  10.812
95868W        W62651  32.132  28.037  13.790
95869W        W62652  22.194  24.439   3.687
95870W        W62653   7.288   2.251   4.100
95871W        W62654  22.205   3.301   1.731
95872W        W62655   6.239  44.313  13.840
95873W        W62656  22.699   9.804  13.780
95874W        W62657  41.792  33.727  13.852
95875W        W62658  30.452   0.882  14.637
95876W        W62659  19.784   3.502   0.680
95877W        W62660   6.179   1.209  14.813
95878W        W62661  15.103   4.976   4.090
95879W        W62662  44.424  22.636   3.342
95880W        W62663   2.803  21.509   2.433
95881W        W62664  41.097  36.898  14.468
95882W        W62665  11.528  18.040   1.217
95883W        W62666  27.762  16.484  11.913
95884W        W62667  26.030  20.062   4.830
95885W        W62668  17.316  14.441  12.193
95886W        W62669  35.555  34.627  13.214
95887W        W62670  36.247  16.090  11.851
95888W        W62671  38.577  39.931  11.296
95889W        W62672  34.651  28.296  13.339
95890W        W62673  26.008  40.299  11.642
95891W        W62674  21.042  17.113   3.800
95892W        W62675  44.447   9.867   4.126
95893W        W62676  22.074  33.072  13.997
95894W        W62677   2.933  17.629  11.939
95895W        W62678  20.047  33.738   2.598
95896W        W62679   2.364  38.303   2.210
95897W        W62680   8.098  28.617   2.767
95898W        W62681  23.629  36.531  12.512
95899W        W62682  25.543  28.757   2.644
95900W        W62683   5.079  27.628  10.634
95901W        W62684  31.903   1.253  14.613
95902W        W62685  44.508  19.081  10.767
95903W        W62686  25.495  12.330  12.049
95904W        W62687  24.151  16.550  10.714
95905W        W62688  27.738  35.031   4.984
95906W        W62689  32.904   1.139  12.000
95907W        W62690  33.929  40.934  10.921
95908W        W62691  23.331   4.891   4.643
95909W        W62692   8.840  35.572  13.637
95910W        W62693   5.905   2.424  14.014
95911W        W62694  17.024  21.845   3.878
95912W        W62695  15.760  34.340  11.105
95913W        W62696   4.709   7.379  12.714
95914W        W62697  19.161   6.110   0.006
95915W        W62698  25.618  37.776  11.112
95916W        W62699  23.753  22.801   3.807
95917W        W62700  32.477  12.247  10.783
95918W        W62701  11.149   8.868  11.182
95919W        W62702  41.273  27.976   4.214
95920W        W62703  34.960  33.590   4.431
95921W        W62704  33.056  39.537   1.678
95922W        W62705   8.398  21.187   1.413
95923W        W62706   5.421  17.633  13.039
95924W        W62707  11.904   1.972  12.096
95925W        W62708   5.244  41.751   2.025
95926W        W62709  28.645  20.592   3.671
95927W        W62710   8.070  33.352   0.156
95928W        W62711  18.279  18.370  11.143
95929W        W62712   6.460  15.811   0.366
95930W        W62713  36.520  26.768   1.790
95931W        W62714  34.845   6.586   0.849
95932W        W62715   0.684  13.513  11.067
95933W        W62716  38.876  34.207   0.339
95934W        W62717   2.965  27.958   1.970
95935W        W62718  32.337  36.495   4.828
95936W        W62719  19.263  29.618  10.731
95937W        W62720  38.677   7.022   4.515
95938W        W62721  28.590  17.288   0.953
95939W        W62722  12.745   6.861  12.711
95940W        W62723  20.040  13.786  13.967
95941W        W62724  17.759  29.299   2.261
95942W        W62725  17.050  13.528   3.244
95943W        W62726  41.291  40.999  10.742
95944W        W62727  38.580  19.146   4.121
95945W        W62728  18.195  31.491  13.143
95946W        W62729  37.542  32.073   1.701
95947W        W62730  32.622  16.840  14.457
95948W        W62731   5.692  16.387   2.060
95949W        W62732  15.892  29.083  11.675
95950W        W62733  40.869  18.805   4.407
95951W        W62734  33.524  18.196   3.235
95952W        W62735   7.320  23.396  11.057
95953W        W62736  44.573  36.442  12.520
95954W        W62737  31.080   9.203  11.917
95955W        W62738   6.230   7.199  11.135
95956W        W62739  14.601   5.723  12.141
95957W        W62740   1.750   8.853  13.896
95958W        W62741  13.573  36.475   2.212
95959W        W62742  26.476   7.300   0.287
95960W        W62743  18.449   1.967  14.860
95961W        W62744   8.999  24.522   4.186
95962W        W62745   0.598   7.706  13.036
95963W        W62746   8.276  30.429  11.342
95964W        W62747  39.433  40.589  10.465
95965W        W62748  33.690   8.254   3.134
95966W        W62749  44.088  15.407   4.815
95967W        W62750  38.002  18.081  12.377
95968W        W62751  14.263  21.254  11.973
95969W        W62752  18.218  24.489  11.117
95970W        W62753  11.993  13.889   1.253
95971W        W62754   3.020   3.244  13.481
95972W        W62755  30.546  33.091   4.597
95973W        W62756  18.097   3.794  14.902
95974W        W62757  43.548  35.983  11.487
95975W        W62758  30.895  11.152   3.812
95976W        W62759   4.215  11.103  13.345
95977W        W62760  39.399  23.542  12.905
95978W        W62761  23.940  44.153   0.688
95979W        W62762   6.352  22.702   3.445
95980W        W62763  41.313  44.961  14.604
95981W        W62764  36.616  11.083  13.445
95982W        W62765  34.461  33.787   1.373
95983W        W62766  38.440  27.140   0.309
95984W        W62767   6.180  12.358   3.287
95985W        W62768  25.650  35.535  11.594
95986W        W62769   7.390  19.905  14.099
95987W        W62770  14.808   7.280  12.498
95988W        W62771   9.418  38.489  11.204
95989W        W62772  21.214   5.444   3.667
95990W        W62773  13.656  41.802  10.710
95991W        W62774  27.437  41.292   0.917
95992W        W62775  17.232  43.785  11.688
95993W        W62776  40.893  43.853  11.550
95994W        W62777  23.075   0.547  12.394
95995W        W62778  43.791  39.738  14.478
95996W        W62779  11.037   1.966   4.989
95997W        W62780   4.924  13.465  11.598
95998W        W62781   1.701  25.147   3.259
95999W        W62782  12.768  37.992   1.022
96000W        W62783  27.368  42.840   4.596
96001W        W62784  19.405  43.123   4.470
96002W        W62785  17.818  11.207  14.524
96003W        W62786  30.868  43.317   4.132
96004W        W62787  18.332  13.760  12.146
96005W        W62788  32.353  14.146  10.799
96006W        W62789   6.361  11.036   3.762
96007W        W62790  43.552   9.959   3.647
96008W        W62791  42.384  36.543   3.773
96009W        W62792  14.599  34.501   3.577
96010W        W62793  36.019  25.611   3.490
96011W        W62794  19.279  34.582   1.746
96012W        W62795  32.383  31.981  10.831
96013W        W62796   1.984   2.948  10.456
96014W        W62797  31.010  23.057   3.526
96015W        W62798  43.391  24.766   2.227
96016W        W62799  18.014  44.875   3.385
96017W        W62800  23.056  36.701  11.250
96018W        W62801   9.156  30.077  13.449
96019W        W62802  16.390   4.335   0.230
96020W        W62803   3.384  44.825   1.793
96021W        W62804  32.984   4.518   2.413
96022W        W62805  43.448   4.620  11.527
96023W        W62806  20.883  30.050  14.459
96024W        W62807  16.215   5.553  12.432
96025W        W62808  36.796  41.295  11.155
96026W        W62809  37.054  43.650  11.655
96027W        W62810   3.637  24.695   0.745
96028W        W62811   5.803   8.120   1.355
96029W        W62812   1.016  24.378   4.105
96030W        W62813  25.006  21.790  14.241
96031W        W62814  27.986   9.675  10.478
96032W        W62815   0.370  25.422   0.660
96033W        W62816  29.641  24.023   2.580
96034W        W62817  40.131  19.668  11.100
96035W        W62818  42.733  18.085   2.357
96036W        W62819  14.625  27.561  13.064
96037W        W62820  43.826  10.354   0.535
96038W        W62821  24.660  29.175  14.696
96039W        W62822   6.425   9.109  14.954
96040W        W62823   0.713  40.094   3.217
96041W        W62824  13.038  24.166  12.197
96042W        W62825  37.343  27.039   3.283
96043W        W62826  21.284  36.318   3.616
96044W        W62827  26.770  31.537   3.311
96045W        W62828   4.565   1.955   2.630
96046W        W62829  39.815   3.780  14.266
96047W        W62830  24.403  41.925  12.128
96048W        W62831   2.433  32.767  12.468
96049W        W62832  42.892   9.765  11.727
96050W        W62833  21.233  16.728   2.919
96051W        W62834  24.114  31.293   3.785
96052W        W62835  34.674  16.618   3.812
96053W        W62836  29.738   1.367  12.500
96054W        W62837  40.162  43.298   3.772
96055W        W62838  21.829  38.697   2.213
96056W        W62839  25.677  43.880  11.520
96057W        W62840  15.879  23.338   1.832
96058W        W62841  12.919  11.404   3.178
96059W        W62842  27.694  18.040  13.634
96060W        W62843  39.219  39.616   4.117
96061W        W62844  19.451  33.891   5.084
96062W        W62845   0.914  28.988   4.012
96063W        W62846   7.331  10.907   1.598
96064W        W62847  14.751  38.576   1.060
96065W        W62848  12.152  21.096   0.246
96066W        W62849   1.442  39.231   2.685
96067W        W62850  41.350  30.003   4.869
96068W        W62851  32.775  31.833  14.235
96069W        W62852  43.999  41.170  13.144
96070W        W62853   9.875  21.664  12.844
96071W        W62854   2.778   7.329   2.699
96072W        W62855   2.843  28.676  13.713
96073W        W62856  18.889   9.380  11.491
96074W        W62857  20.659  39.965  13.850
96075W        W62858  14.543   3.317  11.748
96076W        W62859  25.111  44.716  14.308
96077W        W62860   9.303  43.991  13.686
96078W        W62861  35.789  13.658   0.536
96079W        W62862  22.214  35.609   2.602
96080W        W62863  12.848  25.123  13.298
96081W        W62864  38.554  44.221  13.502
96082W        W62865  35.426   1.282   0.580
96083W        W62866  20.794  25.550  12.911
96084W        W62867   8.543  33.127  14.318
96085W        W62868   0.549  33.131   0.921
96086W        W62869  30.309   4.474  13.992
96087W        W62870  28.730  17.300  12.002
96088W        W62871   7.208   0.315   1.306
96089W        W62872  34.971  44.762  13.614
96090W        W62873   7.041  24.237  13.294
96091W        W62874  32.194   7.446   4.947
96092W        W62875  35.808   5.319   2.868
96093W        W62876  17.956  13.010   5.481
96094W        W62877  38.170  37.688   2.256
96095W        W62878  18.804  42.867   3.119
96096W        W62879  13.899  12.864  13.589
96097W        W62880  10.948  38.498  13.933
96098W        W62881  39.482   8.751  14.704
96099W        W62882  26.535   1.275   2.451
96100W        W62883  41.395  33.915   1.931
96101W        W62884  11.227  10.620  11.552
96102W        W62885  17.842  34.982   0.369
96103W        W62886   0.144  43.134   1.800
96104W        W62887  10.726  34.872   0.304
96105W        W62888  22.863  42.019  10.208
96106W        W62889  30.549  15.633  10.660
96107W        W62890  22.470  13.495   1.831
96108W        W62891  20.817  42.511   4.001
96109W        W62892   5.912   3.745  14.362
96110W        W62893   3.001  12.397  13.698
96111W        W62894  20.088  16.688   2.451
96112W        W62895   3.946  24.311   0.926
96113W        W62896  37.731  24.739  13.984
96114W        W62897  33.535  37.957  10.406
96115W        W62898  40.101  16.753   1.679
96116W        W62899   1.036   1.669   3.184
96117W        W62900  31.860   9.218   0.974
96118W        W62901  38.444  43.772  12.575
96119W        W62902  14.223   3.902   1.957
96120W        W62903  10.245  36.011  10.160
96121W        W62904   6.013   1.840   4.641
96122W        W62905  40.022   8.619  12.584
96123W        W62906  32.996  16.355   0.326
96124W        W62907  43.247  39.361   4.189
96125W        W62908  27.226  39.902  11.618
96126W        W62909  17.713   6.232   4.129
96127W        W62910  21.777   0.256  13.530
96128W        W62911  16.236  18.613  14.887
96129W        W62912  27.108   0.637   4.094
96130W        W62913  34.538  38.987   0.516
96131W        W62914   6.321  38.375  12.536
96132W        W62915  29.311   1.205  11.573
96133W        W62916  25.553  14.831  14.586
96134W        W62917  22.528  31.137  12.608
96135W        W62918  25.839   4.745   0.769
96136W        W62919  10.837  15.593   3.689
96137W        W62920  39.010   7.956   4.610
96138W        W62921  17.469  42.748  12.494
96139W        W62922  20.742  18.258  12.270
96140W        W62923  17.569  24.188   0.688
96141W        W62924  28.013   8.637  13.088
96142W        W62925  32.375  32.048  13.961
96143W        W62926  36.126  34.972   1.420
96144W        W62927  33.414  19.584   0.352
96145W        W62928  26.684   6.815  12.086
96146W        W62929   7.160  44.440  14.107
96147W        W62930   0.987  26.618  12.144
96148W        W62931   9.279  12.397   0.902
96149W        W62932  28.043  31.715  10.302
96150W        W62933   5.867   4.948  12.319
96151W        W62934  30.565  21.998   3.715
96152W        W62935   4.773  21.264   9.857
96153W        W62936  15.688  24.839  10.762
96154W        W62937  39.620   9.351   1.200
96155W        W62938  33.334  23.775   1.398
96156W        W62939  44.014  40.649   1.748
96157W        W62940   9.117  16.009  11.354
96158W        W62941  36.126  16.526  11.618
96159W        W62942   4.412   6.883   4.129
96160W        W62943  39.612  24.833  13.401
96161W        W62944  26.734  17.681   2.831
96162W        W62945   7.901  30.056   1.415
96163W        W62946  16.727  31.588  13.912
96164W        W62947  24.679  44.027   1.382
96165W        W62948  34.594   9.252  14.909
96166W        W62949   0.233  24.635  13.486
96167W        W62950   0.991  11.417  14.415
96168W        W62951  41.361   0.757   1.332
96169W        W62952  37.309  20.667  12.058
96170W        W62953  26.303   0.136  13.872
96171W        W62954  21.946  41.269  14.351
96172W        W62955  18.766  27.903   1.335
96173W        W62956  23.463  25.900   0.670
96174W        W62957  36.797  33.864   4.217
96175W        W62958   9.871  23.740   5.069
96176W        W62959   5.658  30.925  10.684
96177W        W62960  44.762  25.407   1.383
96178W        W62961  37.486  34.325   3.170
96179W        W62962  20.731  19.613   2.921
96180W        W62963   7.935  35.403  14.510
96181W        W62964  18.598  37.338  10.937
96182W        W62965  37.572  15.906   4.851
96183W        W62966   1.219  43.740  12.373
96184W        W62967   7.233  27.178  10.973
96185W        W62968  18.638  19.234  12.218
96186W        W62969  33.940  24.890   0.189
96187W        W62970  27.967  29.564   0.311
96188W        W62971   4.379  44.250   3.149
96189W        W62972  40.777  19.118   2.171
96190W        W62973  37.508  26.377   5.023
96191W        W62974  26.455  24.939   0.315
96192W        W62975   4.089  42.018  14.571
96193W        W62976  25.858  43.965   0.915
96194W        W62977  16.675  27.586   0.534
96195W        W62978  30.086  32.067   2.369
96196W        W62979  41.315  42.725   2.643
96197W        W62980   5.867  14.764  10.984
96198W        W62981   9.728  23.651  11.614
96199W        W62982  19.401  39.229   1.274
96200W        W62983  34.010  38.285   2.292
96201W        W62984  12.874  33.628   1.160
96202W        W62985  36.700  33.823  11.185
96203W        W62986  11.820   0.014  11.120
96204W        W62987  24.137   0.321   3.083
96205W        W62988  10.916  32.298   2.382
96206W        W62989  41.900  20.711   2.113
96207W        W62990  24.580  17.814  12.014
96208W        W62991   9.729  14.666   1.089
96209W        W62992   2.186  30.571  12.597
96210W        W62993  39.095  24.115   3.872
96211W        W62994  17.255   7.627  14.056
96212W        W62995  44.808  25.737  10.789
96213W        W62996  44.830  26.768  10.416
96214W        W62997  18.959  39.062  10.692
96215W        W62998  12.079  30.949  10.505
96216W        W62999  22.643   9.471  10.491
96217W        W63000  16.581   8.134   1.361
96218W        W63001  13.824   3.760   4.368
96219W        W63002  43.298  33.537   2.368
96220W        W63003  26.377  24.660  10.310
96221W        W63004  28.462  18.696   4.523
96222W        W63005  30.700  22.252   1.792
96223W        W63006  18.244   8.129  13.305
96224W        W63007  13.680  36.648  14.444
96225W        W63008  19.772  16.202   5.224
96226W        W63009  30.330  30.893   2.224
96227W        W63010  38.556  23.653   4.617
96228W        W63011  23.279  19.051  14.936
96229W        W63012  15.629  17.207  14.946
96230W        W63013  28.167  37.081  11.248
96231W        W63014  14.603   3.372   1.510
96232W        W63015  14.754  34.643  14.407
96233W        W63016  35.364   2.924   2.280
96234W        W63017  28.650   2.391   1.609
96235W        W63018  31.446  12.850  11.352
96236W        W63019  28.560   7.329  13.142
96237W        W63020  28.483   3.249  14.580
96238W        W63021  26.493  19.683   1.819
96239W        W63022  27.167  37.372  11.306
96240W        W63023  27.125   9.345  14.339
96241W        W63024  35.259  16.752   2.507
96242W        W63025   5.840  11.851  11.950
96243W        W63026  31.673  14.814   1.205
96244W        W63027  40.967   0.311   0.018
96245W        W63028  29.249  12.359   3.245
96246W        W63029  12.760  10.093   4.618
96247W        W63030  44.957  40.591   2.591
96248W        W63031  44.841  22.090   3.094
96249W        W63032  30.330   9.935   0.239
96250W        W63033  19.077  24.779   4.208
96251W        W63034  33.001  25.053   0.721
96252W        W63035   9.825  37.654  14.445
96253W        W63036  12.295   0.017  10.927
96254W        W63037  17.197  37.686  10.252
96255W        W63038  14.854  31.599   4.320
96256W        W63039  19.171  19.971  12.338
96257W        W63040  10.659  25.034   4.319
96258W        W63041   4.392  39.095   2.854
96259W        W63042   9.718  39.635   4.624
96260W        W63043  36.516  22.115  14.837
96261W        W63044  42.046  23.181  10.594
96262W        W63045  30.160  37.346   3.719
96263W        W63046   4.228  32.975  13.868
96264W        W63047  34.644  22.854   4.181
96265W        W63048  25.743  19.899  13.395
96266W        W63049  41.594  25.643   2.701
96267W        W63050  12.713  23.812   2.835
96268W        W63051  36.912  22.298  11.061
96269W        W63052   6.338  40.814  13.808
96270W        W63053  42.088   5.938   1.520
96271W        W63054   3.920  41.501  14.458
96272W        W63055  15.166  39.706   1.631
96273W        W63056  31.820  14.954  12.473
96274W        W63057  18.372  21.194   2.865
96275W        W63058  15.341   2.359  12.120
96276W        W63059  31.347  41.456   4.078
96277W        W63060  43.910  28.031   2.702
96278W        W63061  38.794  11.179  11.559
96279W        W63062  16.904   5.042   1.193
96280W        W63063  12.255  17.524   3.710
96281W        W63064  29.041  28.848  13.989
96282W        W63065  39.816  13.128   1.424
96283W        W63066  11.273  16.599   1.430
96284W        W63067  40.299  13.785  11.546
96285W        W63068  30.394   0.345   3.586
96286W        W63069  33.432  30.693  11.938
96287W        W63070  32.112  35.942  12.917
96288W        W63071   6.268  32.529   2.681
96289W        W63072   9.618  23.633  12.557
96290W        W63073  22.352  10.211  13.768
96291W        W63074  15.583  33.305   4.193
96292W        W63075  14.143  18.282  10.839
96293W        W63076  21.735  12.895   0.358
96294W        W63077  22.626   7.428   3.379
96295W        W63078  10.857  25.313  14.497
96296W        W63079  24.611  10.521  12.411
96297W        W63080  36.540   9.796  12.060
96298W        W63081  35.572  44.469   2.081
96299W        W63082  44.613  10.760   4.510
96300W        W63083   7.958   8.420  11.213
96301W        W63084   2.621  36.484  11.581
96302W        W63085  30.996  14.180   2.174
96303W        W63086  13.685  13.826   2.353
96304W        W63087  27.956   2.226  11.946
96305W        W63088  41.311  44.148  11.528
96306W        W63089  18.087  14.309  14.479
96307W        W63090   0.167   5.779   3.767
96308W        W63091  33.671  14.701   3.349
96309W        W63092  33.147  30.259  11.154
96310W        W63093  42.189   2.184   4.094
96311W        W63094  14.836  28.172   2.329
96312W        W63095  10.263  39.516  11.991
96313W        W63096   8.643  37.875  14.706
96314W        W63097  13.077  29.018  14.427
96315W        W63098  41.218  40.451  12.587
96316W        W63099  12.957  33.410  11.714
96317W        W63100  17.535  19.959  12.936
96318W        W63101  35.882   2.500   0.380
96319W        W63102  10.952  21.041  11.840
96320W        W63103  35.318   8.761   4.127
96321W        W63104   7.842  25.119  12.505
96322W        W63105  24.759  28.574   3.822
96323W        W63106  38.193  23.882  11.169
96324W        W63107  33.555  30.008   4.013
96325W        W63108   9.294  27.671  14.873
96326W        W63109  37.503  35.357   2.886
96327W        W63110   1.910   8.692  12.113
96328W        W63111  15.276  17.801  12.952
96329W        W63112  44.090  20.154   0.399
96330W        W63113  39.034  44.732   4.726
96331W        W63114  38.535  31.355  10.691
96332W        W63115   2.730   5.257   1.945
96333W        W63116   1.130  16.657  14.698
96334W        W63117  28.840   9.852  11.440
96335W        W63118  40.957  15.461  12.436
96336W        W63119  31.993   7.957   4.154
96337W        W63120  36.906   6.451   1.484
96338W        W63121  20.243  32.604  13.003
96339W        W63122  36.064  23.446  11.883
96340W        W63123  38.187  12.890   2.690
96341W        W63124   2.339  17.836  11.152
96342W        W63125  12.791  18.504   0.936
96343W        W63126   9.363  12.626   4.148
96344W        W63127   7.508  44.639  11.758
96345W        W63128  33.484  33.686   3.209
96346W        W63129  17.167  24.885   3.639
96347W        W63130   4.402  24.470  12.867
96348W        W63131   5.834  40.481  11.077
96349W        W63132  41.991   5.376   4.491
96350W        W63133  26.321   4.389  12.718
96351W        W63134  44.711  32.868   3.663
96352W        W63135  16.337  23.111   1.883
96353W        W63136  27.273  36.270   2.960
96354W        W63137  15.878  29.076  12.647
96355W        W63138  15.922  19.540   3.671
96356W        W63139  20.899   2.014   1.880
96357W        W63140  26.762  28.706   3.590
96358W        W63141  32.559  21.587  14.818
96359W        W63142  28.758  39.722  14.442
96360W        W63143  22.434  40.283  13.929
96361W        W63144  12.716  27.716  14.804
96362W        W63145   8.192  42.791  12.889
96363W        W63146  27.706   0.217  12.110
96364W        W63147   7.319  27.663  14.008
96365W        W63148  38.904   0.214  11.190
96366W        W63149  30.070  37.962   2.015
96367W        W63150  10.849  40.843  11.966
96368W        W63151  30.600  22.640   2.867
96369W        W63152   9.424  10.833  14.878
96370W        W63153  37.597   9.478  12.003
96371W        W63154  33.632  16.259   4.486
96372W        W63155  16.578  26.904  11.142
96373W        W63156  27.185  27.127   4.837
96374W        W63157   8.819  15.982  12.618
96375W        W63158  12.640  38.303   4.552
96376W        W63159  44.893  28.941  10.690
96377W        W63160  19.974  22.549   1.302
96378W        W63161   3.796  34.959   0.775
96379W        W63162  22.708   5.211   0.784
96380W        W63163  33.483  12.434   2.706
96381W        W63164  42.851  12.363  12.648
96382W        W63165   8.598   2.409   4.065
96383W        W63166  22.327  17.432   0.005
96384W        W63167  31.308  11.440   0.507
96385W        W63168  25.644  28.452   5.188
96386W        W63169   0.947  41.847  13.664
96387W        W63170  40.539  18.996   0.877
96388W        W63171  18.641  18.671  14.927
96389W        W63172  23.401  44.449  12.668
96390W        W63173  35.628   8.323  12.189
96391W        W63174  22.222  36.222  11.081
96392W        W63175  26.190   1.101  11.674
96393W        W63176  35.001   2.470   0.509
96394W        W63177   7.657  40.520  12.438
96395W        W63178  32.613  30.860  10.757
96396W        W63179  13.332  38.463   3.634
96397W        W63180   0.451   4.526  11.787
96398W        W63181  37.504  31.404   3.880
96399W        W63182  38.773   3.291   3.853
96400W        W63183  43.107  20.371  10.584
96401W        W63184  37.851   2.966  12.503
96402W        W63185  18.245  12.324   3.601
96403W        W63186  34.244   7.944   2.073
96404W        W63187  18.792  10.193  12.445
96405W        W63188  12.110  23.675  12.222
96406W        W63189  19.013  41.326  13.866
96407W        W63190   2.209   8.873   0.246
96408W        W63191   4.126  42.412   3.293
96409W        W63192  40.999  27.377   2.710
96410W        W63193  22.614  33.410   0.453
96411W        W63194  39.985  17.125   0.950
96412W        W63195  15.649  43.411  13.571
96413W        W63196  15.513  37.858   1.912
96414W        W63197  23.658  17.090  12.389
96415W        W63198  31.028  21.527   0.866
96416W        W63199  27.615  12.092  10.620
96417W        W63200  30.881  17.355  12.148
96418W        W63201  12.397  35.580   0.459
96419W        W63202  39.302   0.172   4.617
96420W        W63203   6.347  20.422  14.959
96421W        W63204  17.006  38.996   1.766
96422W        W63205  27.094  41.855  11.544
96423W        W63206  25.692   9.637  11.216
96424W        W63207   2.255   9.739  14.003
96425W        W63208  34.307   4.143  11.667
96426W        W63209   2.667   6.266  11.154
96427W        W63210  44.507  18.800   1.374
96428W        W63211  27.832  23.633  14.869
96429W        W63212  24.311  34.237  12.388
96430W        W63213   3.756   0.490   0.908
96431W        W63214  30.591  29.769   1.692
96432W        W63215  22.188  20.818  10.642
96433W        W63216  23.478  31.003  12.575
96434W        W63217   1.516  14.850  14.965
96435W        W63218  36.304  38.407  12.430
96436W        W63219  39.810  15.127  11.179
96437W        W63220  39.749   9.365  11.908
96438W        W63221  15.389   4.053  11.127
96439W        W63222  35.367  15.979   3.601
96440W        W63223  30.600  32.651   1.895
96441W        W63224   4.402  42.088  13.216
96442W        W63225  43.409   4.803  14.570
96443W        W63226   9.498  35.415  12.027
96444W        W63227  16.064  35.107   4.322
96445W        W63228  29.607  17.479  12.040
96446W        W63229  20.870  38.586   4.145
96447W        W63230  43.585  33.393   1.469
96448W        W63231  43.396  30.946   4.575
96449W        W63232  12.226  27.859   1.656
96450W        W63233  37.830  26.490   4.471
96451W        W63234  28.370   8.319  12.110
96452W        W63235  17.702  34.356   2.910
96453W        W63236  16.108  29.290   0.764
96454W        W63237   9.914   7.326  14.370
96455W        W63238   3.534   9.669   0.908
96456W        W63239  30.046  32.657  10.786
96457W        W63240  38.548  14.831  13.223
96458W        W63241  44.389  34.159  10.736
96459W        W63242  12.781   3.298   2.907
96460W        W63243  43.780  37.955  14.446
96461W        W63244  34.742  36.024   3.059
96462W        W63245   0.088  36.631   0.945
96463W        W63246  10.799   8.416   3.629
96464W        W63247   6.175  27.683   4.183
96465W        W63248  17.067  24.017   0.875
96466W        W63249  12.160  22.269  12.688
96467W        W63250  37.260  35.403  13.191
96468W        W63251   8.197  17.538  11.565
96469W        W63252  30.158  23.081  13.437
96470W        W63253  21.608  42.972   0.338
96471W        W63254  13.351  19.935  13.281
96472W        W63255  34.596   9.214   4.720
96473W        W63256  25.918  24.578   3.439
96474W        W63257   3.518  33.080  13.390
96475W        W63258  43.855  14.231  13.501
96476W        W63259  27.505  27.244   2.799
96477W        W63260  34.923  40.013  10.810
96478W        W63261   4.212  10.709   4.621
96479W        W63262  30.172   4.873  13.183
96480W        W63263  13.383   9.885   4.111
96481W        W63264  19.492  12.903   0.981
96482W        W63265  10.439  33.650  11.165
96483W        W63266  41.496  31.736  14.466
96484W        W63267  32.424   7.110  14.783
96485W        W63268   8.676   1.254   4.224
96486W        W63269  34.190  12.201  14.591
96487W        W63270  33.487  21.785   4.177
96488W        W63271   2.712  16.127  14.416
96489W        W63272  23.035  18.525   4.303
96490W        W63273  12.067  32.660  11.062
96491W        W63274  21.651  26.879  14.679
96492W        W63275   4.391   5.777  13.811
96493W        W63276  34.068   0.917   3.268
96494W        W63277  42.571  32.535   2.278
96495W        W63278  10.771   9.421  14.872
96496W        W63279  14.593  35.350   0.792
96497W        W63280  24.554  19.138  13.656
96498W        W63281   3.221  37.262   1.872
96499W        W63282  19.886   9.430   4.317
96500W        W63283  42.134  35.368   2.769
96501W        W63284   4.476  12.738   3.299
96502W        W63285   6.397   2.315  13.952
96503W        W63286  42.708  42.495  13.401
96504W        W63287  31.519   3.043  11.657
96505W        W63288   4.163  17.890   0.133
96506W        W63289  27.865  38.305   3.529
96507W        W63290  22.203  27.039  13.453
96508W        W63291  29.120  30.602   3.357
96509W        W63292  18.580  31.256  12.873
96510W        W63293  29.489  40.942   3.601
96511W        W63294   0.894  33.999  11.265
96512W        W63295  20.780  12.917   1.262
96513W        W63296  22.077  14.867   0.776
96514W        W63297  38.415   2.928  12.535
96515W        W63298  24.444   0.768  13.521
96516W        W63299  37.688  44.807   0.769
96517W        W63300  12.187  20.843  13.453
96518W        W63301  30.184  26.575  13.986
96519W        W63302  19.995  22.219  11.225
96520W        W63303   9.771  19.317   3.753
96521W        W63304  21.717  35.806  14.371
96522W        W63305  22.561  20.804  14.344
96523W        W63306  31.886   9.137  13.539
96524W        W63307  18.028  39.174  10.618
96525W        W63308  41.775  29.060  11.200
96526W        W63309  35.625   8.816  14.433
96527W        W63310  43.019  17.831   1.944
96528W        W63311  27.930  23.565  10.280
96529W        W63312  31.844   4.650   4.062
96530W        W63313  32.519   9.785  13.654
96531W        W63314  33.930   4.311   1.174
96532W        W63315  30.966  36.066   0.349
96533W        W63316  34.131   3.760  11.394
96534W        W63317   9.681  13.907  11.622
96535W        W63318   2.231  43.321  12.560
96536W        W63319  44.266  24.156  13.854
96537W        W63320  37.067  22.808   0.829
96538W        W63321  32.582  43.895   1.725
96539W        W63322  37.877  12.379   1.397
96540W        W63323   5.217  37.436   2.696
96541W        W63324  11.787  30.899   3.318
96542W        W63325  11.934  38.655  12.004
96543W        W63326  22.518  10.413  11.598
96544W        W63327  26.777  10.106   1.391
96545W        W63328   6.911   4.181   0.910
96546W        W63329  17.292  36.372   4.653
96547W        W63330   6.228  41.109   3.654
96548W        W63331  42.171  18.563  12.897
96549W        W63332  19.821  12.342  13.846
96550W        W63333  23.191  35.966   1.630
96551W        W63334  13.323  22.004  13.531
96552W        W63335   3.713  37.077  11.209
96553W        W63336  43.241  12.929  12.009
96554W        W63337   8.781   2.403  14.030
96555W        W63338   1.356  21.044   3.230
96556W        W63339  36.224  19.588   2.348
96557W        W63340  41.932  31.617  10.643
96558W        W63341  31.806  16.361  14.008
96559W        W63342   9.390  32.643  12.396
96560W        W63343  11.658  31.597  13.574
96561W        W63344  25.155   5.640   2.503
96562W        W63345  10.378  15.843   3.633
96563W        W63346  33.914  27.617   4.596
96564W        W63347  36.103  12.271   3.801
96565W        W63348  17.060  10.141  14.055
96566W        W63349  27.986  36.582  14.341
96567W        W63350  31.991   5.277   3.485
96568W        W63351  15.075  40.536  14.695
96569W        W63352   3.988  16.651   3.123
96570W        W63353   9.387  31.852   0.039
96571W        W63354  12.888   4.343   4.150
96572W        W63355  41.393  32.403  12.827
96573W        W63356   6.253  34.819  10.619
96574W        W63357  17.446  10.368  11.932
96575W        W63358  42.731   5.204  11.883
96576W        W63359  34.564   4.929  10.280
96577W        W63360  31.624  17.170   1.726
96578W        W63361  10.170  34.849  10.590
96579W        W63362  33.511  22.457  14.824
96580W        W63363  34.947  37.598   1.222
96581W        W63364  19.774  23.974  12.760
96582W        W63365  31.031  39.541  14.581
96583W        W63366  23.760  18.472   3.264
96584W        W63367   5.415   2.383  10.795
96585W        W63368  30.965  39.601   0.509
96586W        W63369  15.804  22.063  11.099
96587W        W63370   0.973  20.821   5.490
96588W        W63371  21.098  35.620   0.356
96589W        W63372  30.264  32.459   4.659
96590W        W63373   8.560  27.442  11.131
96591W        W63374   1.977  44.942  11.697
96592W        W63375  34.861  18.191   3.725
96593W        W63376   6.434  18.595  13.839
96594W        W63377  27.027  28.760   2.437
96595W        W63378  38.965  28.129   1.964
96596W        W63379  18.550   9.129  12.975
96597W        W63380  30.612  43.010  13.025
96598W        W63381  10.649  35.575  14.867
96599W        W63382  22.693  19.290   1.205
96600W        W63383  30.339  30.488   1.344
96601W        W63384  42.573  14.247   2.800
96602W        W63385  28.537  36.302   1.240
96603W        W63386  19.131   3.222  10.433
96604W        W63387   2.033  42.454  13.000
96605W        W63388  27.952  34.672   0.905
96606W        W63389  33.707  35.313  14.834
96607W        W63390  16.281  21.604   4.599
96608W        W63391   8.125  33.306   4.088
96609W        W63392  11.269  36.165   3.566
96610W        W63393  20.518   9.848  11.638
96611W        W63394  16.657  41.024  10.468
96612W        W63395  35.115  22.731  11.645
96613W        W63396  26.623  42.163  13.402
96614W        W63397  41.095  44.816  10.594
96615W        W63398   2.738  13.494   1.486
96616W        W63399  27.019  13.057  11.264
96617W        W63400   5.160  40.565  10.737
96618W        W63401  20.103  33.795  12.878
96619W        W63402  44.630  36.491  14.808
96620W        W63403   8.366  35.425   3.641
96621W        W63404  33.540  40.144  11.649
96622W        W63405  30.102   6.095   1.726
96623W        W63406  44.324  25.655  12.518
96624W        W63407  35.597  28.680   4.520
96625W        W63408  37.291   6.851   4.850
96626W        W63409  30.590  13.226   4.103
96627W        W63410  17.260  27.981   1.897
96628W        W63411  20.520  27.377  11.141
96629W        W63412  40.282   9.369   1.821
96630W        W63413  35.606  31.515   4.004
96631W        W63414  12.098   8.172  13.032
96632W        W63415   7.319  14.557   0.524
96633W        W63416  10.802  25.217  11.981
96634W        W63417  25.657   9.611   1.408
96635W        W63418  17.954  25.044  14.775
96636W        W63419   8.192   4.041  14.623
96637W        W63420  21.810  34.633  11.653
96638W        W63421  33.604  38.453  14.981
96639W        W63422  14.560  30.375   0.726
96640W        W63423  16.635  20.933  11.118
96641W        W63424  34.926  38.421  12.018
96642W        W63425  23.283  28.473  12.916
96643W        W63426  42.506  26.318   1.384
96644W        W63427   5.936  20.965   0.430
96645W        W63428  34.400  42.704  10.775
96646W        W63429  42.446  15.207   4.228
96647W        W63430  32.627   9.407   0.336
96648W        W63431   2.973  29.641  14.486
96649W        W63432   4.370  36.151  11.161
96650W        W63433  40.020  41.254   0.965
96651W        W63434   3.522   6.866   0.407
96652W        W63435  15.638  11.739  13.044
96653W        W63436  40.886  26.684  14.458
96654W        W63437  16.583  27.886   1.786
96655W        W63438  35.079  32.104  14.636
96656W        W63439   3.200  43.757   0.889
96657W        W63440  22.766  12.664   2.243
96658W        W63441  15.827  22.562  11.243
96659W        W63442   4.318  20.856  13.958
96660W        W63443   4.134  38.097  11.165
96661W        W63444  16.898  39.048   4.510
96662W        W63445  29.911   1.794  14.946
96663W        W63446   1.675  15.030   4.066
96664W        W63447  16.057  31.016   4.651
96665W        W63448  35.792  30.490   4.842
96666W        W63449   7.254  20.953   0.291
96667W        W63450  15.503   9.083   0.845
96668W        W63451   1.283  31.612  10.988
96669W        W63452   3.804  37.953   0.456
96670W        W63453   0.940  25.696   3.358
96671W        W63454  37.451   9.395   0.111
96672W        W63455   1.904   8.746  13.038
96673W        W63456  18.632  13.888  13.430
96674W        W63457  22.516  15.049   0.925
96675W        W63458  16.744  24.848   2.011
96676W        W63459   5.324   3.054  14.295
96677W        W63460  42.926  37.463  13.057
96678W        W63461  43.999  30.455  10.925
96679W        W63462  12.247  37.047  13.794
96680W        W63463  12.788   6.012   0.892
96681W        W63464  18.019  27.919   2.586
96682W        W63465  28.230  22.278   1.317
96683W        W63466  12.029  24.666  11.073
96684W        W63467  41.483   3.712   4.167
96685W        W63468  24.786  17.147  10.780
96686W        W63469   1.365  27.624   3.581
96687W        W63470   0.553  15.354   5.584
96688W        W63471  20.496  22.953   4.722
96689W        W63472  40.973  27.125  12.308
96690W        W63473  32.160  32.270   3.272
96691W        W63474  18.001  44.913  11.384
96692W        W63475  11.242   5.224   2.617
96693W        W63476  31.529  33.715   1.286
96694W        W63477  35.918  27.963  10.812
96695W        W63478   9.845  35.562   0.286
96696W        W63479  41.589   3.675   0.305
96697W        W63480  38.012   6.666  14.476
96698W        W63481  19.294  37.925   2.587
96699W        W63482  10.870   2.347  10.229
96700W        W63483  19.761  43.254   0.663
96701W        W63484  11.726  40.582  14.439
96702W        W63485  20.256  43.875  14.445
96703W        W63486  22.619   8.797  14.881
96704W        W63487  29.701  10.216   2.311
96705W        W63488   4.290   9.981   2.815
96706W        W63489  43.934  26.977   3.614
96707W        W63490  29.073  32.849   1.769
96708W        W63491  26.971  31.464  13.169
96709W        W63492   8.334  36.259  13.880
96710W        W63493  27.074   3.336  11.993
96711W        W63494   4.138  42.814   4.332
96712W        W63495  31.136  36.644  12.021
96713W        W63496  17.072  34.804   2.388
96714W        W63497   5.489  35.003   3.294
96715W        W63498  40.410  22.675   3.536
96716W        W63499  13.357  35.013   3.845
96717W        W63500  35.053  16.792   0.183
96718W        W63501  27.881   0.641   3.353
96719W        W63502  21.051  33.973   4.631
96720W        W63503  42.974  16.225   1.754
96721W        W63504  23.257  17.344   3.700
96722W        W63505  39.415  35.052   4.920
96723W        W63506  37.054  41.765  14.859
96724W        W63507  23.052  22.040   1.864
96725W        W63508  36.124  44.048   2.658
96726W        W63509  33.561  22.885   9.911
96727W        W63510  13.111  38.881  12.220
96728W        W63511  37.720  27.880   1.670
96729W        W63512  34.517  36.875   1.876
96730W        W63513  31.972   3.355   3.857
96731W        W63514  33.810   6.971   1.398
96732W        W63515   3.996  27.338  12.336
96733W        W63516  37.676   2.524   4.441
96734W        W63517   3.202   5.435  14.018
96735W        W63518  26.887  40.277  14.780
96736W        W63519  21.853  18.191   0.053
96737W        W63520  36.937  27.572  14.919
96738W        W63521  22.481  28.612  10.275
96739W        W63522  42.422  38.567   1.633
96740W        W63523  35.872  27.510  14.729
96741W        W63524  38.921  20.762   4.021
96742W        W63525   8.201  37.412   4.516
96743W        W63526  32.316  29.198  13.983
96744W        W63527  20.023  40.878  13.402
96745W        W63528  16.751   6.718   4.140
96746W        W63529  26.648   0.885  11.438
96747W        W63530  16.073  39.033  13.456
96748W        W63531  16.554  36.171   5.090
96749W        W63532  11.193  35.668  13.496
96750W        W63533  23.741  28.458   3.790
96751W        W63534   1.764  11.391   0.395
96752W        W63535  26.072  42.966   9.712
96753W        W63536  34.165  22.600   1.838
96754W        W63537  41.017  30.910   1.246
96755W        W63538   5.111  29.404   0.993
96756W        W63539   6.469   5.702  13.002
96757W        W63540  31.691  35.999  14.938
96758W        W63541  15.679  15.222   2.453
96759W        W63542   2.143  31.624   3.478
96760W        W63543  38.649  43.525  13.805
96761W        W63544   6.584  41.922  14.557
96762W        W63545  43.045  16.785  11.098
96763W        W63546  44.080  39.267   0.374
96764W        W63547   2.952   5.896   4.271
96765W        W63548  27.209  30.907  11.989
96766W        W63549  34.318  21.386   3.250
96767W        W63550  40.632  37.297   1.894
96768W        W63551   6.294  42.552   1.156
96769W        W63552  13.174  26.611  11.874
96770W        W63553  36.087  24.151  13.054
96771W        W63554  11.295  40.084   3.419
96772W        W63555  25.211  12.048  14.830
96773W        W63556  15.153  21.749  14.018
96774W        W63557  39.451  19.229   4.663
96775W        W63558  37.723   8.138  14.644
96776W        W63559  11.912   9.916  12.599
96777W        W63560  44.032  36.359   3.160
96778W        W63561  12.107  34.522  14.930
96779W        W63562  39.733  38.074  12.229
96780W        W63563  21.598   1.141   3.917
96781W        W63564  18.350  11.271  13.799
96782W        W63565   7.148   6.857   0.820
96783W        W63566  24.252  13.363  13.416
96784W        W63567   2.679  18.712  11.582
96785W        W63568  31.712  39.882   4.553
96786W        W63569   7.686  24.532   0.696
96787W        W63570  39.797  32.701  13.386
96788W        W63571  40.587  27.678   2.896
96789W        W63572  13.623   8.675   9.921
96790W        W63573  33.068  34.053  14.450
96791W        W63574  16.010  40.711   0.430
96792W        W63575  22.129  25.139   0.315
96793W        W63576  18.475   5.462  14.817
96794W        W63577  17.629  36.686   2.526
96795W        W63578   5.853  16.697  12.661
96796W        W63579  31.425  20.822   0.852
96797W        W63580  26.411  18.980   4.145
96798W        W63581   8.459   0.963   0.300
96799W        W63582  37.657   1.556   2.244
96800W        W63583  21.205  28.217   4.963
96801W        W63584  25.448  13.697  12.455
96802W        W63585   8.035   8.443   3.930
96803W        W63586  34.311  12.127   1.012
96804W        W63587   4.036  36.838  10.669
96805W        W63588  30.661   1.114  12.485
96806W        W63589  41.415  12.880  12.942
96807W        W63590  17.614  22.102   2.392
96808W        W63591  34.941  22.138   4.164
96809W        W63592  34.028   6.793   0.667
96810W        W63593  25.093  21.187  14.737
96811W        W63594   8.768  26.258   0.780
96812W        W63595  32.424  18.644  12.546
96813W        W63596  12.268  13.622  12.790
96814W        W63597  33.105  31.836   3.329
96815W        W63598  14.371  11.802   1.052
96816W        W63599  37.468  30.919  14.947
96817W        W63600  41.799  15.889   5.104
96818W        W63601  43.051  11.293   0.783
96819W        W63602  27.540   6.214   0.025
96820W        W63603  15.600  42.210   0.915
96821W        W63604  25.979  11.280  13.406
96822W        W63605  24.747  35.361  13.863
96823W        W63606  30.196  13.833   0.221
96824W        W63607  22.578  15.605   5.057
96825W        W63608  21.813  33.471   2.758
96826W        W63609   5.656  25.933   4.066
96827W        W63610   5.787  24.260   3.617
96828W        W63611  12.979  44.537  12.026
96829W        W63612  17.299  16.006   5.335
96830W        W63613  35.250   7.034   1.428
96831W        W63614  36.571  31.077  14.391
96832W        W63615  21.717  33.409   0.285
96833W        W63616   2.899   2.029  12.969
96834W        W63617   6.258  29.052  14.000
96835W        W63618  27.078  39.970  12.109
96836W        W63619   2.200   8.715  14.742
96837W        W63620  31.642  17.864  12.354
96838W        W63621  30.068  24.508  12.602
96839W        W63622  12.161  43.919   4.892
96840W        W63623  27.265  42.290   5.303
96841W        W63624  24.180  36.812   1.419
96842W        W63625  29.440  28.779  13.508
96843W        W63626  13.125  38.119  14.327
96844W        W63627   3.262  16.434  12.992
96845W        W63628   3.777  17.061   2.839
96846W        W63629  40.968  17.564   3.203
96847W        W63630  36.293  41.459   4.993
96848W        W63631  25.147   8.846  10.437
96849W        W63632  41.398  40.376  14.416
96850W        W63633  41.955  44.601  10.807
96851W        W63634  11.633  40.216  10.071
96852W        W63635  11.604   4.422   4.724
96853W        W63636  40.377  19.156  11.076
96854W        W63637  32.412  32.858  12.230
96855W        W63638  37.588   5.214  12.943
96856W        W63639  37.379  12.498   3.575
96857W        W63640  34.909  18.028  12.162
96858W        W63641  35.490  39.941   1.091
96859W        W63642  22.256  42.938   2.881
96860W        W63643  10.917  28.015   0.141
96861W        W63644  32.603  26.983  14.364
96862W        W63645  27.665  21.138  11.079
96863W        W63646  39.634  43.340  11.255
96864W        W63647  42.984  44.495  13.156
96865W        W63648  11.125  18.580  14.996
96866W        W63649  21.554  30.299   1.334
96867W        W63650  34.618  32.619   2.227
96868W        W63651  40.758  38.842  13.562
96869W        W63652  13.390  26.527   2.500
96870W        W63653  18.052  27.873  13.862
96871W        W63654  12.540  19.551  13.395
96872W        W63655  10.099  17.782  14.867
96873W        W63656   3.415   6.699  11.176
96874W        W63657  12.715  42.246   4.677
96875W        W63658  13.184  16.094  13.799
96876W        W63659  41.802   4.334   0.896
96877W        W63660  39.009  33.810   4.113
96878W        W63661  25.266  24.495   1.209
96879W        W63662  14.406  25.158  11.107
96880W        W63663  41.051   6.850   2.205
96881W        W63664  13.891  30.699  11.065
96882W        W63665  13.197  10.391   4.865
96883W        W63666  18.214  33.878  13.403
96884W        W63667  20.062  19.549  14.782
96885W        W63668  17.213  14.289  13.068
96886W        W63669  41.740  12.674  11.220
96887W        W63670  42.984  11.698   3.686
96888W        W63671  19.574  15.313  13.641
96889W        W63672  26.574  28.668   0.013
96890W        W63673  17.330  29.620   1.374
96891W        W63674   0.559   6.698  10.608
96892W        W63675   6.872  14.636   0.771
96893W        W63676  43.860  42.255  13.502
96894W        W63677  39.526   6.272  12.981
96895W        W63678  15.068  32.869   2.827
96896W        W63679  17.294  18.088   1.392
96897W        W63680   6.677  40.986  14.194
96898W        W63681   7.815   4.402   0.350
96899W        W63682  24.751  17.449   1.826
96900W        W63683   8.741  34.078  12.424
96901W        W63684  32.077  29.413  11.553
96902W        W63685  33.337  19.509  12.465
96903W        W63686   0.095   7.393   2.268
96904W        W63687  12.938  38.136   4.957
96905W        W63688  21.635  13.575  13.773
96906W        W63689  41.250  11.764  12.006
96907W        W63690  38.528  11.393  11.173
96908W        W63691  20.314  15.678   3.150
96909W        W63692  44.430   9.330   1.343
96910W        W63693   4.158  42.279   0.019
96911W        W63694  21.591  41.496  13.565
96912W        W63695   7.190  20.894   3.200
96913W        W63696  38.319   6.598  12.354
96914W        W63697   6.330  41.442   4.038
96915W        W63698  24.576  27.948  12.528
96916W        W63699  28.955  17.230  14.374
96917W        W63700  23.283  23.356  13.537
96918W        W63701  35.452   9.658  11.030
96919W        W63702  11.908  25.708   1.416
96920W        W63703  37.652  38.067  12.629
96921W        W63704  19.123  27.692  12.510
96922W        W63705  12.571  16.118   3.235
96923W        W63706  31.659  31.594   3.231
96924W        W63707  23.175   9.335   2.090
96925W        W63708   2.397  42.940   3.926
96926W        W63709  44.082  16.360   0.420
96927W        W63710  42.912  15.864   2.128
96928W        W63711  43.220  42.582  14.292
96929W        W63712  23.992  24.141   4.178
96930W        W63713  34.952   4.062  12.958
96931W        W63714  39.956  31.163   3.771
96932W        W63715  21.685  42.320  12.545
96933W        W63716   9.664  32.188  14.436
96934W        W63717   8.795   6.078   4.405
96935W        W63718  18.734  38.966  14.360
96936W        W63719  21.216  42.067  11.551
96937W        W63720   1.519  44.992  11.479
96938W        W63721   9.792   6.259   2.014
96939W        W63722  10.718   1.470   0.313
96940W        W63723  40.387  32.106   4.619
96941W        W63724  34.924  34.409   0.742
96942W        W63725   4.938  16.691   5.183
96943W        W63726  17.346  44.521  11.037
96944W        W63727  40.057  36.908   1.715
96945W        W63728  15.994   4.226   3.224
96946W        W63729  43.094  22.714  12.585
96947W        W63730   0.576  31.079  14.227
96948W        W63731   0.833   0.736  14.309
96949W        W63732  23.337   1.700  13.282
96950W        W63733  27.152  29.528   4.700
96951W        W63734  30.984  39.020   0.480
96952W        W63735  20.850   1.167  13.996
96953W        W63736  12.306  14.016   0.123
96954W        W63737  22.595  27.265   2.236
96955W        W63738  42.317  40.034  13.822
96956W        W63739  10.260  35.092  11.022
96957W        W63740  35.281  33.198   4.586
96958W        W63741  11.901  37.111  11.947
96959W        W63742  40.699   7.349   4.384
96960W        W63743  17.198   9.077   1.818
96961W        W63744  41.752  30.765  13.397
96962W        W63745  16.211  26.235   3.216
96963W        W63746   3.994  25.069  14.058
96964W        W63747  37.970   1.384   2.733
96965W        W63748  25.106  12.204   1.933
96966W        W63749  38.162  40.983   1.945
96967W        W63750  14.502  34.495  10.285
96968W        W63751  22.700  43.865   3.391
96969W        W63752  35.578  42.847   4.076
96970W        W63753  17.729  12.503   1.837
96971W        W63754  27.679   5.359  12.310
96972W        W63755   4.729  36.110   1.426
96973W        W63756   9.142  43.961  12.140
96974W        W63757   2.028  43.802  12.507
96975W        W63758   2.870  38.055  14.631
96976W        W63759  32.158  22.593  13.920
96977W        W63760  11.272  32.607  11.944
96978W        W63761   9.165   6.836   2.115
96979W        W63762   7.246   0.521  13.405
96980W        W63763  17.234  18.499  14.720
96981W        W63764  13.068  12.078   0.010
96982W        W63765  20.110  23.152  13.101
96983W        W63766  11.213   2.038  14.411
96984W        W63767   7.751   4.277  14.815
96985W        W63768  39.732  24.728   0.469
96986W        W63769  24.730  42.560  10.732
96987W        W63770  17.274  20.796  12.936
96988W        W63771   2.304  35.301  11.194
96989W        W63772  41.065   2.844  14.800
96990W        W63773  26.273  43.490  13.743
96991W        W63774  35.510  18.341  11.890
96992W        W63775  42.684  27.462  14.141
96993W        W63776  23.549  39.944   5.005
96994W        W63777  10.124   5.852   0.955
96995W        W63778  30.064   8.661   1.787
96996W        W63779  44.240   6.384   2.877
96997W        W63780  42.462  13.670   1.024
96998W        W63781  22.357  22.959  13.539
96999W        W63782  38.407  31.377   4.512
97000W        W63783  26.633   5.361   4.632
97001W        W63784  26.910   2.250  12.590
97002W        W63785   9.629   0.739   3.283
97003W        W63786  36.906  29.995   0.309
97004W        W63787  13.268  11.945  12.031
97005W        W63788  13.657   7.877  12.483
97006W        W63789  24.139   3.795  13.290
97007W        W63790   3.658   5.445  12.372
97008W        W63791   6.232  17.585  11.583
97009W        W63792  39.934  41.952   2.264
97010W        W63793   1.067  27.983   4.197
97011W        W63794   8.396  32.013  10.515
97012W        W63795  27.926   9.707  11.661
97013W        W63796  31.176   8.093   4.164
97014W        W63797   8.051   2.931   4.286
97015W        W63798   8.246  18.050   2.235
97016W        W63799  12.608  43.301  12.617
97017W        W63800   7.805   1.598  11.730
97018W        W63801  25.106  35.081   1.277
97019W        W63802  22.989  26.227  12.637
97020W        W63803  11.716  36.811   2.253
97021W        W63804  29.637  33.496  13.505
97022W        W63805   7.718  19.817   2.631
97023W        W63806  35.588  19.790   4.251
97024W        W63807  12.174   6.775   1.823
97025W        W63808  22.795  19.539  13.904
97026W        W63809  23.427  38.276  11.793
97027W        W63810  11.892  22.807   1.497
97028W        W63811   7.875   3.355   3.253
97029W        W63812  43.228  42.557   0.181
97030W        W63813  18.202  22.487  12.331
97031W        W63814  38.680   5.134  13.315
97032W        W63815  33.705  41.375  12.429
97033W        W63816   4.627   6.610   2.424
97034W        W63817   3.655  20.964  13.425
97035W        W63818  29.406  21.070   3.863
97036W        W63819  25.189  15.593  11.104
97037W        W63820   9.739  19.137   0.720
97038W        W63821  14.527  11.305  10.788
97039W        W63822   0.823  38.359   2.491
97040W        W63823   0.858  16.182  14.888
97041W        W63824  22.520  13.852  12.657
97042W        W63825   8.506  24.997   1.429
97043W        W63826  22.164  24.411   0.866
97044W        W63827  26.241  35.022  12.825
97045W        W63828  20.746   8.146   4.339
97046W        W63829  11.067  15.694   0.826
97047W        W63830  36.766  37.431   0.046
97048W        W63831  27.450  15.266   0.218
97049W        W63832  18.555   2.745  11.738
97050W        W63833  40.957  41.803   4.314
97051W        W63834  11.751  40.420  13.113
97052W        W63835   1.796   4.434  11.857
97053W        W63836  15.570   0.493  11.424
97054W        W63837  19.417   4.670   4.121
97055W        W63838  38.386  29.984   2.391
97056W        W63839  29.874  24.342  10.967
97057W        W63840  19.777   5.256  13.034
97058W        W63841  36.559  28.916   2.552
97059W        W63842  25.629  42.528  11.908
97060W        W63843   5.900   9.389   2.185
97061W        W63844  36.949   4.234   1.955
97062W        W63845  33.736  23.238  12.080
97063W        W63846  44.467  21.615  12.547
97064W        W63847  18.551  36.566   3.140
97065W        W63848  22.951   6.244   4.102
97066W        W63849  11.075  34.048  11.648
97067W        W63850  28.501  27.817   1.461
97068W        W63851  29.561  36.918  11.817
97069W        W63852  32.122  35.501   3.256
97070W        W63853  18.071  25.379  14.421
97071W        W63854  27.519  13.381   0.999
97072W        W63855  40.758   3.296  14.947
97073W        W63856  10.575  43.536   2.760
97074W        W63857  42.608  17.246  10.351
97075W        W63858   4.642   4.369  10.838
97076W        W63859  18.128  42.900   4.146
97077W        W63860  17.669  29.873  13.861
97078W        W63861  18.736  20.033   2.409
97079W        W63862  26.124   3.826  14.750
97080W        W63863  19.907  43.209   3.171
97081W        W63864  25.706  14.303  12.991
97082W        W63865  27.615  34.758   3.698
97083W        W63866   0.163  38.987  14.843
97084W        W63867  37.577  34.086  11.624
97085W        W63868   7.665  38.300   4.518
97086W        W63869  18.223  24.718  12.139
97087W        W63870  39.807  41.492  12.194
97088W        W63871   3.428  37.034  14.290
97089W        W63872  31.720   5.889   1.385
97090W        W63873  11.028  42.266   4.722
97091W        W63874   0.873   7.116   2.680
97092W        W63875  22.989  27.092   0.365
97093W        W63876  16.427  24.261   3.317
97094W        W63877  31.554  13.775   0.713
97095W        W63878  28.192  36.899   2.088
97096W        W63879  31.989   9.676  13.508
97097W        W63880  23.525   5.251   5.403
97098W        W63881  22.487  30.557   3.234
97099W        W63882   9.163  28.971   1.270
97100W        W63883  26.686  15.829  12.064
97101W        W63884  24.166  39.311   3.722
97102W        W63885  14.305  35.638   0.457
97103W        W63886  39.173  14.537   0.695
97104W        W63887  26.229  15.649   0.155
97105W        W63888  16.243   4.729   2.583
97106W        W63889   0.482  34.135   3.560
97107W        W63890   1.710  13.670   0.219
97108W        W63891  16.269  43.872  14.794
97109W        W63892   0.778  17.326  14.054
97110W        W63893  28.522  11.645   0.498
97111W        W63894  37.571  13.667  12.004
97112W        W63895  38.996  21.128   0.540
97113W        W63896  15.363  21.870   2.635
97114W        W63897  14.147  42.194   2.666
97115W        W63898  27.064  27.095  13.296
97116W        W63899  37.758   8.857   2.310
97117W        W63900  16.821  31.923   2.773
97118W        W63901  36.139  22.999   1.877
97119W        W63902  21.139   4.639  13.906
97120W        W63903   1.281  12.638   2.334
97121W        W63904  30.342  23.670  13.433
97122W        W63905  15.788  44.856  13.835
97123W        W63906  31.535  21.756  14.227
97124W        W63907  38.395  34.152   2.896
97125W        W63908  32.296  33.626  12.603
97126W        W63909   8.343  25.133  10.206
97127W        W63910  39.602  40.305   2.740
97128W        W63911   8.776  27.227   0.956
97129W        W63912  16.695  29.525   3.309
97130W        W63913  16.565  21.728   0.439
97131W        W63914  41.059  34.103   3.715
97132W        W63915   4.177  31.121   1.734
97133W        W63916  23.015  28.629  11.565
97134W        W63917  30.933  33.861  11.378
97135W        W63918  22.297  26.518  13.447
97136W        W63919  39.470  10.698   2.347
97137W        W63920  16.332  15.425   2.876
97138W        W63921  16.515   7.686   0.541
97139W        W63922   8.116  43.796   0.447
97140W        W63923  19.240  36.929   4.567
97141W        W63924   6.408   8.254   4.717
97142W        W63925   8.765   5.049   0.519
97143W        W63926  31.958  27.470  10.047
97144W        W63927  24.933  23.763   2.433
97145W        W63928  17.223  13.208   0.235
97146W        W63929  30.165   1.314   1.417
97147W        W63930  37.076  27.051   4.911
97148W        W63931   7.347  20.209  11.179
97149W        W63932  25.043  12.876   0.175
97150W        W63933   7.696   1.354  14.256
97151W        W63934   9.816  28.057   4.127
97152W        W63935  43.204   6.246  10.228
97153W        W63936  35.663  34.697  10.861
97154W        W63937  37.986   6.554  13.051
97155W        W63938  29.627  24.201   3.063
97156W        W63939  23.518   0.405   2.856
97157W        W63940  36.095  34.387  12.110
97158W        W63941  17.740  37.577   1.961
97159W        W63942  37.473  10.098  14.295
97160W        W63943  37.341  14.349  10.713
97161W        W63944  26.134  15.699  13.454
97162W        W63945  27.798  14.679  14.387
97163W        W63946  17.966  35.116  13.530
97164W        W63947  41.834  42.475   2.494
97165W        W63948  35.870  23.522   4.672
97166W        W63949  19.974  29.114  13.767
97167W        W63950  17.535  27.279   3.258
97168W        W63951  32.918  27.090  12.065
97169W        W63952  38.894  43.831   2.977
97170W        W63953  29.488   1.736   2.823
97171W        W63954  26.277  20.026  14.932
97172W        W63955   8.565   1.492  13.811
97173W        W63956  24.077  18.942   0.457
97174W        W63957  38.590  25.614  13.821
97175W        W63958  37.034   0.040  11.190
97176W        W63959   7.232  23.893  10.908
97177W        W63960  17.352  35.656   4.167
97178W        W63961  23.534  43.254   1.818
97179W        W63962  43.070  11.807   0.690
97180W        W63963  34.839  10.829   4.736
97181W        W63964  12.601  14.011  12.962
97182W        W63965   1.672  11.318  13.063
97183W        W63966  11.306  27.725  14.926
97184W        W63967   8.879  12.731   0.815
97185W        W63968  41.021   4.347  10.394
97186W        W63969  10.576   1.714  11.728
97187W        W63970  10.340  18.570   1.921
97188W        W63971  37.680  10.170  12.322
97189W        W63972  37.621  11.649   4.934
97190W        W63973   8.868   0.904  14.363
97191W        W63974  10.887   6.198  10.111
97192W        W63975  26.618  21.566   1.646
97193W        W63976  37.437  42.415   2.955
97194W        W63977  15.852  36.517  14.927
97195W        W63978  41.168   4.085   4.037
97196W        W63979  41.047  36.000  14.378
97197W        W63980   1.074  40.006   0.360
97198W        W63981  39.405  25.796  13.386
97199W        W63982  13.241  16.134  11.742
97200W        W63983   6.216   5.362  14.481
97201W        W63984  21.850  42.941  14.791
97202W        W63985  15.126   9.554  13.969
97203W        W63986  24.918  30.958   4.176
97204W        W63987  31.624   7.344   4.109
97205W        W63988  11.338   0.465  12.634
97206W        W63989  43.324  40.540   0.374
97207W        W63990  28.659   7.081   3.805
97208W        W63991  31.563  39.983   1.943
97209W        W63992  26.193   8.726  14.476
97210W        W63993  20.066  13.133   4.773
97211W        W63994   6.843  17.191   0.351
97212W        W63995  36.376  30.925   2.174
97213W        W63996  40.335   5.806   1.754
97214W        W63997  10.148   2.310   3.656
97215W        W63998  21.453   3.633   2.253
97216W        W63999  18.151   4.475   2.384
97217W        W64000   3.359  19.278   2.349
97218W        W64001  35.104  23.486   4.588
97219W        W64002  41.551  37.975   3.372
97220W        W64003  11.753   4.716   1.455
97221W        W64004  28.213  10.222   2.681
97222W        W64005  15.614  19.852  10.155
97223W        W64006  11.796  20.100   2.847
97224W        W64007  36.028  10.817  11.127
97225W        W64008  35.049  44.680  14.411
97226W        W64009  10.772   2.271   4.594
97227W        W64010  25.634  39.755  14.013
97228W        W64011  21.973   6.138  13.271
97229W        W64012  36.118  11.792  14.855
97230W        W64013  40.108  28.528   2.751
97231W        W64014  44.883  18.142  10.713
97232W        W64015   5.577  26.232   1.816
97233W        W64016  26.712  22.306   1.375
97234W        W64017   6.861   1.481   1.399
97235W        W64018  11.092  16.400  11.322
97236W        W64019  14.502  12.077  11.135
97237W        W64020  20.112  11.295   2.448
97238W        W64021  38.466  30.005   0.509
97239W        W64022  12.890  40.312  13.987
97240W        W64023   3.385   3.658   0.364
97241W        W64024  22.298   5.738  13.210
97242W        W64025  14.723  14.625  14.394
97243W        W64026  44.091  15.655  10.405
97244W        W64027  27.381  28.557   3.222
97245W        W64028  27.624  41.646   3.052
97246W        W64029   5.410   7.625   4.123
97247W        W64030   7.770  41.239  13.995
97248W        W64031  23.812  14.609   3.631
97249W        W64032   2.183  14.266  14.998
97250W        W64033  37.354  37.550   4.001
97251W        W64034  11.098  39.191   4.444
97252W        W64035  31.821  44.389   0.119
97253W        W64036  19.771   8.800   3.114
97254W        W64037  18.499  20.491   4.722
97255W        W64038  17.029  33.912   3.282
97256W        W64039  32.040  15.610  13.851
97257W        W64040   7.643  10.828  11.514
97258W        W64041  21.089   5.396  13.334
97259W        W64042  40.220  41.985  10.654
97260W        W64043  39.300  34.515   3.210
97261W        W64044  20.635   5.130  13.168
97262W        W64045  20.995   7.905  12.505
97263W        W64046  18.803  38.959   0.786
97264W        W64047  27.548  14.936   0.997
97265W        W64048  43.315  37.440  10.340
97266W        W64049  34.139   1.312  14.850
97267W        W64050   9.259   4.219  13.922
97268W        W64051  23.836  10.204   4.221
97269W        W64052  25.226  38.422   0.231
97270W        W64053  17.639   8.857  11.895
97271W        W64054   7.831  44.467  14.953
97272W        W64055   3.305  28.519  13.871
97273W        W64056  27.213  24.558  10.663
97274W        W64057   9.596   7.830   0.796
97275W        W64058  20.012  18.324   0.772
97276W        W64059  20.090   5.384   2.103
97277W        W64060   6.406  17.272   2.727
97278W        W64061  34.880  44.361   1.359
97279W        W64062   4.438  32.520   3.558
97280W        W64063  33.014  39.297   2.159
97281W        W64064  28.360  32.891   1.222
97282W        W64065  27.740  16.807  11.506
97283W        W64066  37.818  11.950  14.289
97284W        W64067  27.980   2.333   0.344
97285W        W64068  33.066  10.788  14.538
97286W        W64069  43.258   5.342   5.007
97287W        W64070  17.238  18.757   0.165
97288W        W64071  32.320   8.660   4.678
97289W        W64072  18.059   7.272  13.095
97290W        W64073  34.938  33.639  10.299
97291W        W64074  24.036  41.800  14.925
97292W        W64075  42.950  28.581   1.290
97293W        W64076  15.516  30.611   1.910
97294W        W64077  18.211  28.552   0.675
97295W        W64078  39.618  35.969   1.680
97296W        W64079  25.949  41.524  13.609
97297W        W64080   8.681  10.174   1.582
97298W        W64081  14.060  28.523  12.434
97299W        W64082   0.479  29.867  12.165
97300W        W64083   7.917  29.593  14.025
97301W        W64084   3.985  28.628  12.145
97302W        W64085  43.430  13.632  13.753
97303W        W64086   7.184   5.314  14.514
97304W        W64087  30.618  12.154  12.039
97305W        W64088  33.162  18.314   4.663
97306W        W64089   0.908  15.309   2.599
97307W        W64090  39.132  36.371  12.001
97308W        W64091  24.072  38.366   2.812
97309W        W64092   3.426  27.999   2.224
97310W        W64093  28.460  27.581   1.924
97311W        W64094   6.316   3.909   3.115
97312W        W64095  18.857  35.548   0.662
97313W        W64096  27.426  12.642  12.569
97314W        W64097  11.072  25.754  11.108
97315W        W64098  43.879  43.044   1.274
97316W        W64099  13.248   8.682   2.109
97317W        W64100  29.143  12.270   1.869
97318W        W64101  37.147  16.800   1.827
97319W        W64102  42.489  23.661  13.036
97320W        W64103  32.926  11.319   3.121
97321W        W64104   4.858  32.443  11.324
97322W        W64105  13.399  13.939  14.924
97323W        W64106   6.300  21.359  10.733
97324W        W64107   3.443   6.385   1.644
97325W        W64108  33.578  42.407   1.964
97326W        W64109  40.973  27.248   3.236
97327W        W64110  32.444  10.330   0.716
97328W        W64111  28.978  31.968  13.698
97329W        W64112  44.244  42.024   2.361
97330W        W64113  27.115  24.912   5.031
97331W        W64114  29.103  27.671   0.284
97332W        W64115  20.306  27.202   0.761
97333W        W64116  20.646  29.553   2.299
97334W        W64117   0.000   7.138  12.529
97335W        W64118  23.548  22.047   3.227
97336W        W64119   9.587  16.226  11.382
97337W        W64120   4.451  14.719   0.908
97338W        W64121   9.797  20.053  14.863
97339W        W64122  30.253  10.842  11.973
97340W        W64123  34.589   8.253   0.190
97341W        W64124   3.326  29.035  10.918
97342W        W64125  17.819  13.311   9.788
97343W        W64126  26.401  18.586   1.927
97344W        W64127  15.609  24.850  14.413
97345W        W64128   7.225  16.163   3.557
97346W        W64129   6.952  33.908  12.526
97347W        W64130  40.973  40.242   4.807
97348W        W64131  13.496   7.693  10.624
97349W        W64132  21.481  37.520   1.205
97350W        W64133  14.675  41.274   4.594
97351W        W64134  34.947   0.142   1.909
97352W        W64135   4.989   2.415   0.010
97353W        W64136   4.498  42.814   2.872
97354W        W64137  22.961  35.737  13.631
97355W        W64138  36.333   6.192   4.966
97356W        W64139  21.634  23.921  12.643
97357W        W64140  14.588  18.829   1.238
97358W        W64141  35.827  37.145   3.255
97359W        W64142  38.773  43.369  14.965
97360W        W64143  35.336  38.125  13.087
97361W        W64144  42.254  34.377   2.912
97362W        W64145  25.561  17.307   1.404
97363W        W64146  10.910  27.647  11.890
97364W        W64147  32.118  28.852   1.215
97365W        W64148   6.506  35.659  12.196
97366W        W64149  22.021  40.076  12.434
97367W        W64150  30.457  38.253  14.945
97368W        W64151  42.174  15.726   5.433
97369W        W64152  42.272  25.557   4.763
97370W        W64153   6.804  41.272   4.245
97371W        W64154   0.448  14.594  14.503
97372W        W64155  40.312  21.462  13.843
97373W        W64156  18.612  35.972   0.762
97374W        W64157  34.229  31.109  14.098
97375W        W64158  17.130   5.201  14.011
97376W        W64159   8.084   2.134  12.509
97377W        W64160   3.625  15.811  10.798
97378W        W64161  28.936  26.873   1.647
97379W        W64162  29.973   5.620   0.828
97380W        W64163   2.828  41.906   1.773
97381W        W64164  37.379  28.082  14.532
97382W        W64165   0.974   9.163   4.166
97383W        W64166  41.115  16.808  11.525
97384W        W64167  13.133  40.039  10.570
97385W        W64168  24.087  43.234  11.981
97386W        W64169  11.600  30.259  14.028
97387W        W64170  21.374  37.797   2.276
97388W        W64171   4.367  22.943  11.939
97389W        W64172   9.927  28.440  11.053
97390W        W64173  27.107  31.828   0.444
97391W        W64174   4.488  13.749  14.883
97392W        W64175  37.091  30.506   0.264
97393W        W64176  25.013  42.363  13.917
97394W        W64177  16.300  26.073  14.275
97395W        W64178  22.786   4.162  10.740
97396W        W64179  43.701   7.773  12.992
97397W        W64180  37.372  38.133  14.825
97398W        W64181  44.198  25.783   1.688
97399W        W64182  42.733   0.211  14.134
97400W        W64183  37.559  19.580   4.175
97401W        W64184  32.013   3.260  12.554
97402W        W64185  14.594   2.475   0.847
97403W        W64186  26.328   7.726   2.438
97404W        W64187   7.773  39.604   3.254
97405W        W64188  42.413  21.125  10.641
97406W        W64189  20.584  18.837   4.042
97407W        W64190  33.906  26.616   0.413
97408W        W64191  33.649   2.644  14.416
97409W        W64192  28.456   4.988  12.447
97410W        W64193  20.309   2.060   2.149
97411W        W64194  40.797  11.920   4.482
97412W        W64195  11.116  43.524   2.757
97413W        W64196  40.516  35.761   3.339
97414W        W64197   4.549   0.268  13.478
97415W        W64198  14.126   7.318  10.025
97416W        W64199  23.904  24.232  11.737
97417W        W64200  13.992   5.829  10.068
97418W        W64201   1.290  35.179   3.270
97419W        W64202  28.926  27.667   3.734
97420W        W64203  12.486  20.975  10.641
97421W        W64204  32.880   0.499   0.345
97422W        W64205  12.926  19.726   3.618
97423W        W64206  40.961  30.532  12.918
97424W        W64207  21.012   0.392  11.513
97425W        W64208  12.741  24.558  13.330
97426W        W64209  25.717   6.988   4.557
97427W        W64210  39.599  36.214   3.387
97428W        W64211  16.546  43.243   3.315
97429W        W64212  17.283  36.345  13.772
97430W        W64213  39.786  29.685   3.856
97431W        W64214  32.556  37.445   0.385
97432W        W64215  41.426  32.020   3.185
97433W        W64216  35.415   5.451   0.185
97434W        W64217  14.117  20.952  12.371
97435W        W64218  13.292   3.257  10.782
97436W        W64219  13.188  24.772  13.472
97437W        W64220  42.864  32.519  12.823
97438W        W64221   3.684  23.920  14.602
97439W        W64222  35.990   4.823  14.356
97440W        W64223  27.732  28.730   4.400
97441W        W64224  12.152  14.933  11.449
97442W        W64225   3.978   9.089   4.389
97443W        W64226  29.938  35.600   1.204
97444W        W64227   6.764  39.949   3.169
97445W        W64228   4.331   5.287   2.411
97446W        W64229   2.011   3.766   0.852
97447W        W64230   6.892  22.110  14.906
97448W        W64231  10.894  19.087   1.382
97449W        W64232  14.164  38.777  14.556
97450W        W64233   9.081  44.397  11.001
97451W        W64234  17.125  33.519  13.245
97452W        W64235  15.080   9.023   2.291
97453W        W64236   8.325  17.522  14.437
97454W        W64237  34.587   1.271  12.050
97455W        W64238  22.786  18.247   1.260
97456W        W64239   8.098  16.635   2.191
97457W        W64240  21.784   2.785  14.718
97458W        W64241   2.240   2.953  14.934
97459W        W64242  12.178   4.875  14.915
97460W        W64243  35.691  21.661  11.265
97461W        W64244  21.183  26.161   0.162
97462W        W64245   4.011   2.058  12.523
97463W        W64246  31.382  13.882   2.640
97464W        W64247  11.159   7.630  13.036
97465W        W64248  21.273  42.554   0.799
97466W        W64249  29.578  43.587  11.493
97467W        W64250  28.646  30.928  11.681
97468W        W64251  32.500  40.572   2.401
97469W        W64252  15.158   4.337  11.939
97470W        W64253  32.299   2.808  10.805
97471W        W64254  30.581  40.788   1.247
97472W        W64255   4.941   9.933  14.992
97473W        W64256   6.677  27.116  13.937
97474W        W64257  34.365  40.396   1.382
97475W        W64258  19.199   7.824  11.997
97476W        W64259  19.582   8.930  12.117
97477W        W64260  34.025   4.863   4.658
97478W        W64261  18.257  25.058   3.154
97479W        W64262  33.304  23.674  14.307
97480W        W64263  12.196   7.229   3.296
97481W        W64264  21.628   6.428   0.367
97482W        W64265  29.585  10.874   0.816
97483W        W64266  37.372  18.825   3.719
97484W        W64267  25.261   5.669   2.998
97485W        W64268  36.099   4.349   2.393
97486W        W64269  17.866  31.150  13.372
97487W        W64270  36.113  39.625  14.303
97488W        W64271  26.769  35.912  13.066
97489W        W64272  16.537  41.090   0.860
97490W        W64273  26.914  30.545  13.133
97491W        W64274  17.809  33.076  13.389
97492W        W64275  20.350  34.147   1.498
97493W        W64276  32.809  39.941  11.989
97494W        W64277  26.585   2.263  10.131
97495W        W64278  42.017  22.755   1.481
97496W        W64279  24.184  42.255   0.764
97497W        W64280  28.479  20.749  12.594
97498W        W64281  29.110  44.909  13.972
97499W        W64282   1.366  29.373   0.882
97500W        W64283  40.895  29.888   0.807
97501W        W64284   9.856  17.702   2.573
97502W        W64285  26.199   8.733  11.952
97503W        W64286  23.159  41.120  14.424
97504W        W64287  18.822  25.530  11.924
97505W        W64288  24.110  42.893   2.390
97506W        W64289  32.452  11.319   3.928
97507W        W64290  14.655  13.322  13.275
97508W        W64291  21.112  10.547   2.870
97509W        W64292  43.581  11.867   0.761
97510W        W64293  32.008  16.066  13.623
97511W        W64294  35.813  25.659   1.843
97512W        W64295  37.794  36.520   0.339
97513W        W64296  22.591   6.041  12.684
97514W        W64297  36.437  20.405   9.984
97515W        W64298  31.856  38.232   4.875
97516W        W64299  34.492  36.055   0.474
97517W        W64300   9.986  15.221   4.204
97518W        W64301  13.896  44.890  13.956
97519W        W64302  40.324  10.667  13.940
97520W        W64303   8.181  25.236   4.567
97521W        W64304  16.674  43.369   2.031
97522W        W64305  26.519  27.123  11.607
97523W        W64306  12.515  31.987  14.523
97524W        W64307   7.250  14.633   0.022
97525W        W64308  44.880  34.601   0.931
97526W        W64309  26.580   8.389   3.736
97527W        W64310  30.957   5.194   1.471
97528W        W64311  13.692  35.196  12.843
97529W        W64312  26.016  26.201   0.863
97530W        W64313  24.260  31.553  14.491
97531W        W64314   9.787  21.709   4.369
97532W        W64315  32.159  24.746   1.422
97533W        W64316  26.177  40.362   4.044
97534W        W64317  34.431   4.001   1.336
97535W        W64318   6.957  26.335  11.097
97536W        W64319  26.413  33.867   4.559
97537W        W64320   2.946  41.427  14.079
97538W        W64321  14.318   0.731   0.820
97539W        W64322  32.221  27.707   3.543
97540W        W64323  11.082  13.668   2.801
97541W        W64324  11.885  28.582  13.380
97542W        W64325  29.846   2.338  11.737
97543W        W64326  44.520   0.329   3.394
97544W        W64327  20.262  32.690  11.226
97545W        W64328  40.145  23.327   2.817
97546W        W64329   9.109   0.480   0.796
97547W        W64330  30.880  12.371  12.868
97548W        W64331   1.620  37.486   5.042
97549W        W64332  36.097  20.170   4.788
97550W        W64333   7.328  19.697   0.927
97551W        W64334   0.470  44.649  12.134
97552W        W64335  28.698  17.097  13.923
97553W        W64336  28.092  43.486   3.596
97554W        W64337  24.214  28.883  11.661
97555W        W64338  39.107  11.240   1.717
97556W        W64339  11.111   2.895   2.249
97557W        W64340  37.241  43.771   3.712
97558W        W64341  10.244   8.236   3.155
97559W        W64342   9.956  19.665  10.710
97560W        W64343  29.635  17.614  14.551
97561W        W64344  12.023   6.683   0.952
97562W        W64345  40.392   0.292   3.548
97563W        W64346  26.677  10.775   0.815
97564W        W64347   0.993   7.765  14.018
97565W        W64348  16.831  27.942  11.723
97566W        W64349  38.230  43.404  13.009
97567W        W64350  16.544  32.959   1.423
97568W        W64351  28.108  31.962  12.653
97569W        W64352   5.008  37.823  12.500
97570W        W64353  36.243  18.332   1.865
97571W        W64354  42.457  29.095  13.626
97572W        W64355  40.072  34.118   4.306
97573W        W64356  32.808  19.091  14.888
97574W        W64357  14.219  43.913  11.996
97575W        W64358  37.961  28.623   2.383
97576W        W64359  22.005  27.267   4.500
97577W        W64360   1.186  19.221  14.421
97578W        W64361  34.469  27.962  12.991
97579W        W64362  16.045  35.968   3.916
97580W        W64363   1.891  11.650   1.659
97581W        W64364  14.595  36.371   1.901
97582W        W64365  22.106   5.948  14.108
97583W        W64366  22.521  22.138  13.411
97584W        W64367  30.661  32.044   4.298
97585W        W64368  11.315   1.673  12.070
97586W        W64369  20.698   5.639  13.077
97587W        W64370   1.539  19.208   1.736
97588W        W64371  37.136  38.441   4.158
97589W        W64372  43.921  18.395   1.929
97590W        W64373  44.862  14.224   4.555
97591W        W64374  38.190  36.830   4.076
97592W        W64375  23.083  20.770   2.116
97593W        W64376   3.879  14.284  14.015
97594W        W64377   3.755  33.378   3.332
97595W        W64378  41.802  14.584   2.311
97596W        W64379  34.877  15.737   4.801
97597W        W64380  35.315  35.956   1.644
97598W        W64381   0.026   3.052   9.973
97599W        W64382  41.904  33.502   2.723
97600W        W64383   9.934  24.773   1.979
97601W        W64384  20.019  16.230   1.699
97602W        W64385   5.379  13.302   1.904
97603W        W64386  23.675  37.916   0.803
97604W        W64387   6.038  27.190   3.285
97605W        W64388  31.902  16.985   4.067
97606W        W64389  26.268  23.344   2.725
97607W        W64390  40.689  11.615  14.052
97608W        W64391   2.465  33.285   0.736
97609W        W64392  34.338   5.017   0.807
97610W        W64393  41.836  41.526   2.263
97611W        W64394  31.981  42.572  14.594
97612W        W64395  26.075  20.529  14.752
97613W        W64396  14.747  26.705   2.383
97614W        W64397  20.015   3.442   4.609
97615W        W64398  12.705  10.838  10.912
97616W        W64399  14.622  20.135   5.161
97617W        W64400  42.795  44.303  13.635
97618W        W64401  27.340  12.496  10.749
97619W        W64402  36.024  43.491   3.317
97620W        W64403  25.930   1.460  14.465
97621W        W64404  23.476  28.696   0.968
97622W        W64405  26.366  25.992   3.224
97623W        W64406  42.842  16.768   4.594
97624W        W64407  44.271  23.673  10.821
97625W        W64408  40.943   4.912   1.720
97626W        W64409  30.984  30.153   5.001
97627W        W64410  24.615  27.746   5.363
97628W        W64411   2.406  20.042  14.915
97629W        W64412   7.790  37.776  13.549
97630W        W64413   5.373  42.613  11.550
97631W        W64414  23.057  20.761   1.619
97632W        W64415  39.225  29.964   0.018
97633W        W64416  36.821  40.906  12.841
97634W        W64417  29.179  32.601   3.278
97635W        W64418   5.481  26.996   0.243
97636W        W64419   4.616  20.322  11.987
97637W        W64420   4.965  15.146   3.222
97638W        W64421  15.104   6.361   2.133
97639W        W64422  32.575  30.071   4.434
97640W        W64423  27.592   4.150  13.695
97641W        W64424  15.573  37.405   2.186
97642W        W64425  29.133  20.550   4.488
97643W        W64426  20.549  27.655  11.601
97644W        W64427  13.641  16.233   2.962
97645W        W64428  36.982  19.224  13.661
97646W        W64429  37.209  11.620   3.151
97647W        W64430  40.389  35.848   0.350
97648W        W64431   7.302  34.620  11.107
97649W        W64432  13.331  15.465   5.059
97650W        W64433  33.282  22.032   9.948
97651W        W64434   3.196  36.011   3.100
97652W        W64435   9.411  20.220  10.579
97653W        W64436  24.530  31.507   2.055
97654W        W64437  14.292  11.391   2.776
97655W        W64438  33.566  36.868   3.406
97656W        W64439  37.746  21.735   1.968
97657W        W64440  33.599  18.055  12.938
97658W        W64441  23.493  44.646   2.293
97659W        W64442  42.306   7.970   0.733
97660W        W64443  39.425  39.782  10.945
97661W        W64444  31.239   1.812   0.828
97662W        W64445   1.453  44.169   3.291
97663W        W64446  33.853  38.565   0.857
97664W        W64447  40.895  34.961  13.059
97665W        W64448  39.315   1.338   2.724
97666W        W64449  33.510   9.398  12.593
97667W        W64450   6.436  42.978  12.651
97668W        W64451  14.766  29.642  10.811
97669W        W64452   0.148  20.034  11.039
97670W        W64453   5.430  37.908   0.819
97671W        W64454   3.869  26.020   2.139
97672W        W64455   5.227  16.468  12.127
97673W        W64456  24.008  28.529  11.291
97674W        W64457  15.396  36.421  14.690
97675W        W64458  25.431  24.479   3.589
97676W        W64459  13.150  35.021   0.205
97677W        W64460  19.454   3.381  13.518
97678W        W64461  20.011  41.916  14.284
97679W        W64462   9.672  24.131  11.185
97680W        W64463  44.901  13.601   5.605
97681W        W64464  26.073  27.763   0.232
97682W        W64465  16.879  16.880   1.329
97683W        W64466   4.435  20.212  13.489
97684W        W64467  43.393  15.092   5.274
97685W        W64468  13.254   5.916   3.170
97686W        W64469  31.688  30.964  14.366
97687W        W64470  24.320   9.385  13.074
97688W        W64471   2.723  24.739   1.860
97689W        W64472   3.092  18.993   1.095
97690W        W64473  32.026   4.350  14.724
97691W        W64474  26.647  29.379  11.633
97692W        W64475  33.131  32.782   2.386
97693W        W64476  18.991  14.586   2.997
97694W        W64477  12.706   1.366  14.533
97695W        W64478   5.167  14.650   0.326
97696W        W64479  10.826  28.174  11.066
97697W        W64480  35.470  36.124  14.307
97698W        W64481  10.595  38.984  11.388
97699W        W64482   0.275  38.948  12.118
97700W        W64483  29.641  31.974  14.312
97701W        W64484   1.503  14.609   4.285
97702W        W64485  13.671  36.990   2.960
97703W        W64486   7.470  35.621  12.044
97704W        W64487  15.758  43.020  13.193
97705W        W64488  14.114   8.163  11.164
97706W        W64489   0.793  29.249   3.561
97707W        W64490  24.681  26.575   0.918
97708W        W64491  33.182   9.859   1.422
97709W        W64492  27.417  19.461  14.965
97710W        W64493  43.955  27.608   4.217
97711W        W64494   8.365  23.776  11.079
97712W        W64495  12.728   6.004   0.022
97713W        W64496  38.316  30.213   0.046
97714W        W64497  18.924  39.415   3.366
97715W        W64498  29.649  11.531  12.483
97716W        W64499  34.984   2.884  11.152
97717W        W64500  40.934  37.338  12.079
97718W        W64501  20.077  15.267   0.847
97719W        W64502  12.722  30.919  13.920
97720W        W64503  21.994  10.386  11.547
97721W        W64504  43.805  18.241  11.652
97722W        W64505  19.748  11.837   0.365
97723W        W64506  17.655  22.530  11.388
97724W        W64507  32.702  42.243  10.944
97725W        W64508  32.602   2.047  12.883
97726W        W64509   3.672   0.253  14.555
97727W        W64510  10.331  29.930   0.273
97728W        W64511  23.221  17.380   2.731
97729W        W64512  18.148   5.406   1.253
97730W        W64513   8.852  34.486  14.487
97731W        W64514  11.785  14.064   0.187
97732W        W64515  26.699  34.498  13.405
97733W        W64516  29.686  24.637   3.313
97734W        W64517   9.775  34.466  11.909
97735W        W64518  12.838  28.405  13.171
97736W        W64519   6.938  42.041   2.267
97737W        W64520  43.670   1.164   0.467
97738W        W64521  24.734  17.454   0.940
97739W        W64522  37.994  19.389  13.908
97740W        W64523   8.558  23.076  12.904
97741W        W64524  42.843  26.438   0.833
97742W        W64525   7.396   6.905   1.845
97743W        W64526   3.460  42.404   4.943
97744W        W64527   1.118  13.632  14.164
97745W        W64528  29.023  12.107  14.899
97746W        W64529  12.136  10.218  11.595
97747W        W64530  15.133  37.852   3.719
97748W        W64531  30.895  34.399   4.361
97749W        W64532  14.751  39.603   0.819
97750W        W64533  17.042  22.133   3.243
97751W        W64534  16.777  30.021  10.641
97752W        W64535  11.943  24.455  14.939
97753W        W64536  44.212  44.392   0.477
97754W        W64537   1.671  11.839  13.073
97755W        W64538  22.155  21.971   1.546
97756W        W64539  26.559   3.483  12.018
97757W        W64540  11.164  13.764  10.764
97758W        W64541  44.849  36.988  14.312
97759W        W64542  24.538  31.835  10.840
97760W        W64543  14.005  41.435   4.044
97761W        W64544  12.186   3.286   1.333
97762W        W64545  44.354  24.679  11.578
97763W        W64546  44.797  30.432   1.429
97764W        W64547   2.562  40.513  11.201
97765W        W64548  28.240   7.322   0.892
97766W        W64549   4.320  24.247  10.772
97767W        W64550   5.379  26.560   3.161
97768W        W64551  11.248  22.507   4.273
97769W        W64552  41.828  34.044  13.446
97770W        W64553  24.312   2.841  14.780
97771W        W64554  19.511  33.299  13.238
97772W        W64555  23.136   6.383   4.554
97773W        W64556  13.894  41.826  12.462
97774W        W64557  21.294  13.207   3.333
97775W        W64558   2.421  13.186  14.167
97776W        W64559  31.622  20.019   1.345
97777W        W64560  10.079  44.234   4.929
97778W        W64561  17.995  24.851  14.300
97779W        W64562  20.269  37.151   3.265
97780W        W64563  10.425   1.047  14.491
97781W        W64564  25.528  36.990  12.501
97782W        W64565   4.379   7.877   1.929
97783W        W64566  39.506  41.017  11.587
97784W        W64567  30.937  25.583  14.958
97785W        W64568  13.970  37.323   1.343
97786W        W64569  38.976  31.363  14.911
97787W        W64570  16.829  27.295  14.291
97788W        W64571  11.123  35.028   1.855
97789W        W64572   4.373   5.807   4.091
97790W        W64573  12.888  26.898  11.485
97791W        W64574   0.761  16.787   1.883
97792W        W64575  15.047  16.438   4.802
97793W        W64576  26.202  34.087   0.784
97794W        W64577   2.408  22.116   1.756
97795W        W64578  17.242  44.632  13.888
97796W        W64579  29.904  27.715   1.790
97797W        W64580  41.387  44.376  12.365
97798W        W64581   8.080  34.372   4.121
97799W        W64582  12.837  19.145  13.295
97800W        W64583  33.640   5.995  10.277
97801W        W64584  16.975  29.705   4.942
97802W        W64585  33.027   4.000   2.413
97803W        W64586  13.390  24.297  10.937
97804W        W64587  36.621  33.540   0.807
97805W        W64588  31.975  27.023   3.397
97806W        W64589  34.613  19.507  14.794
97807W        W64590   7.478  17.980  14.256
97808W        W64591  38.388  37.562   3.641
97809W        W64592  34.330  37.196  12.361
97810W        W64593  13.336  39.914   0.180
97811W        W64594  26.645  43.235   2.235
97812W        W64595  22.525  43.135   4.238
97813W        W64596  25.469   8.461  13.445
97814W        W64597  29.708  19.331  13.159
97815W        W64598  10.353  10.845   4.411
97816W        W64599  10.710  31.104  12.152
97817W        W64600  35.975  23.093   1.377
97818W        W64601  28.611  35.810  13.919
97819W        W64602   3.876  40.875  12.728
97820W        W64603  13.411   6.638  11.432
97821W        W64604  13.785   6.506  12.613
97822W        W64605  33.585   7.970   1.303
97823W        W64606   9.801  35.487   1.762
97824W        W64607  10.094  28.008   4.543
97825W        W64608  19.720  43.849  10.544
97826W        W64609   3.994   8.847   1.748
97827W        W64610   4.459   5.261   1.492
97828W        W64611  28.515  34.781   3.689
97829W        W64612  18.841  36.406   0.888
97830W        W64613   1.445   6.432   1.315
97831W        W64614  22.996  22.171  14.897
97832W        W64615  22.236  13.068  10.986
97833W        W64616  17.858  24.725  13.444
97834W        W64617   0.788  29.971  11.125
97835W        W64618  22.266   3.684  14.767
97836W        W64619  33.749  34.665   4.828
97837W        W64620  39.733  38.929   2.217
97838W        W64621   0.282  39.825  13.104
97839W        W64622  12.597  28.567  11.177
97840W        W64623   0.023   5.777   4.600
97841W        W64624   5.210  41.597  11.638
97842W        W64625  14.033   0.420  13.979
97843W        W64626  18.185  36.470  13.208
97844W        W64627   9.432  12.619  14.525
97845W        W64628  33.390   3.395   4.569
97846W        W64629  33.154   0.199   2.723
97847W        W64630  14.896  38.974   5.530
97848W        W64631  31.412  42.510   2.255
97849W        W64632  21.683  17.971  13.754
97850W        W64633  14.380  12.000   4.627
97851W        W64634  10.022  13.661   3.562
97852W        W64635  42.617  23.527   1.223
97853W        W64636  20.218   8.048   4.230
97854W        W64637  35.997  43.214  12.597
97855W        W64638  41.824  20.427   4.592
97856W        W64639   0.380  32.461   4.360
97857W        W64640   9.643  11.816   5.047
97858W        W64641  16.368  24.451  13.508
97859W        W64642  26.590   1.407  10.748
97860W        W64643  29.308  31.898   4.532
97861W        W64644  40.296   7.323   0.974
97862W        W64645   0.956  23.213   1.001
97863W        W64646  44.187   9.852   4.597
97864W        W64647  30.204  16.838  11.541
97865W        W64648  11.295  35.441  13.967
97866W        W64649   7.849   8.393  12.127
97867W        W64650   1.214  20.130  14.274
97868W        W64651  12.739  26.886  12.993
97869W        W64652  17.920  43.359   0.810
97870W        W64653  25.128  22.758  14.264
97871W        W64654  10.391  41.942   1.181
97872W        W64655  34.739  42.934  12.335
97873W        W64656  41.332  30.606   0.823
97874W        W64657   4.746  31.569  12.105
97875W        W64658  22.343  30.954   1.347
97876W        W64659   2.896  19.925   0.807
97877W        W64660   9.125  39.546  10.733
97878W        W64661  27.279  25.723  14.954
97879W        W64662  39.825  20.099   0.435
97880W        W64663  25.213   3.516  12.511
97881W        W64664  17.109  21.655   1.041
97882W        W64665  15.040  35.113  12.994
97883W        W64666  26.470   0.917   4.217
97884W        W64667  31.258  24.272  12.983
97885W        W64668  26.145  33.824   3.447
97886W        W64669  25.506   6.215  10.371
97887W        W64670  12.227   3.299   3.612
97888W        W64671  38.927  41.770  11.962
97889W        W64672  28.106  15.483  13.977
97890W        W64673  35.614  35.928   2.845
97891W        W64674  28.008  38.114  13.525
97892W        W64675  12.109  12.732   4.111
97893W        W64676  35.552  33.464  14.902
97894W        W64677  39.929   4.135   1.405
97895W        W64678  26.681   3.269  12.559
97896W        W64679  21.474  34.618   3.795
97897W        W64680   1.380  15.679  14.311
97898W        W64681  27.302   8.241  13.909
97899W        W64682  37.860  30.657  13.427
97900W        W64683  12.734  29.684   0.802
97901W        W64684  17.312  36.195   0.966
97902W        W64685  26.197  12.359   0.891
97903W        W64686   7.785  29.749  11.457
97904W        W64687   5.836   9.388   3.082
97905W        W64688  19.474  21.582  11.308
97906W        W64689   6.240  44.824   4.189
97907W        W64690  37.966  44.066  11.900
97908W        W64691   4.929   7.430  14.350
97909W        W64692  18.790   6.978  10.708
97910W        W64693  31.960  15.624   4.494
97911W        W64694  17.094  35.449   0.270
97912W        W64695  43.164   0.290  10.189
97913W        W64696   1.542  15.837  12.379
97914W        W64697  25.762   7.397   3.604
97915W        W64698   6.297  30.131  14.559
97916W        W64699  35.111  15.566   3.770
97917W        W64700  12.163  20.158  14.132
97918W        W64701   3.112  41.787   4.139
97919W        W64702  28.551   3.912  10.593
97920W        W64703   3.524  27.063  14.830
97921W        W64704  35.207  40.775  12.871
97922W        W64705  34.374  27.577  14.841
97923W        W64706  41.710   6.942   1.780
97924W        W64707  37.881  29.004  10.744
97925W        W64708  43.505  28.485  12.995
97926W        W64709  22.972  13.279  10.691
97927W        W64710  43.203  43.783   4.539
97928W        W64711  44.911   8.367  11.375
97929W        W64712  43.376  21.940  11.884
97930W        W64713  21.992  25.590  11.307
97931W        W64714  12.815  12.616   3.737
97932W        W64715   5.701   5.927   3.298
97933W        W64716  25.549   6.506   2.481
97934W        W64717  22.695  27.244  11.641
97935W        W64718   3.732  20.305  11.415
97936W        W64719  21.729  15.762  12.405
97937W        W64720  44.345   0.179  10.782
97938W        W64721  13.222  14.042   2.228
97939W        W64722   1.235  34.956   4.247
97940W        W64723  41.994  23.980   5.113
97941W        W64724  41.455  35.516   0.854
97942W        W64725  39.597  41.788  14.821
97943W        W64726  34.536   3.933  10.570
97944W        W64727  10.742  12.646   4.861
97945W        W64728  34.330   8.862   1.897
97946W        W64729  16.159  32.452   3.083
97947W        W64730  19.698  18.721  13.414
97948W        W64731  35.735  23.056  11.877
97949W        W64732   5.932  12.534  13.931
97950W        W64733  14.543  41.395   2.759
97951W        W64734   3.225  31.037   1.298
97952W        W64735  16.613  15.600  11.203
97953W        W64736  13.282  43.801  14.094
97954W        W64737  32.390  44.940  14.247
97955W        W64738  30.567  43.000  13.948
97956W        W64739   5.005  23.842   0.934
97957W        W64740  12.610  29.435   4.201
97958W        W64741   1.440  42.857  12.354
97959W        W64742  40.891  24.174   3.759
97960W        W64743  18.865  36.010  12.019
97961W        W64744  33.820  24.080  11.044
97962W        W64745   7.341  24.224  12.465
97963W        W64746  14.283  39.070   4.852
97964W        W64747  44.519   1.872   4.807
97965W        W64748  10.098   7.124   3.255
97966W        W64749  14.274  11.618  11.140
97967W        W64750  36.541  22.535   4.052
97968W        W64751  35.390   1.945  13.158
97969W        W64752  11.439  30.349   4.222
97970W        W64753  42.378  35.423   1.880
97971W        W64754  29.785  43.027   4.515
97972W        W64755  21.137  36.664   2.734
97973W        W64756   7.797  24.169  13.777
97974W        W64757  15.146  10.219   2.773
97975W        W64758  11.347   3.956   3.636
97976W        W64759  23.386   1.018  13.542
97977W        W64760  36.956  30.929   3.432
97978W        W64761  33.516  26.070  12.144
97979W        W64762  43.043  41.663   3.752
97980W        W64763   1.511  28.266   4.159
97981W        W64764  28.099  15.059   2.478
97982W        W64765  17.762  31.656  11.587
97983W        W64766  21.696   3.959  10.287
97984W        W64767  35.392  22.607  11.209
97985W        W64768   1.811  42.244   0.961
97986W        W64769  18.955  44.404  12.167
97987W        W64770  43.452  42.945   0.826
97988W        W64771  19.594   5.882  11.967
97989W        W64772  18.954  43.342   3.307
97990W        W64773   5.644  32.656  14.857
97991W        W64774  13.065   6.089   1.359
97992W        W64775  21.774  36.126   2.300
97993W        W64776  28.227  39.851  13.037
97994W        W64777   9.177  11.346  12.166
97995W        W64778   2.749  15.336  12.217
97996W        W64779  26.212  34.538   2.241
97997W        W64780   7.456  22.491   1.388
97998W        W64781  41.047  27.708   1.736
97999W        W64782  40.424  39.438   0.880
98000W        W64783  36.488  21.851  14.391
98001W        W64784   6.846   1.917   4.056
98002W        W64785  33.433  21.840   5.188
98003W        W64786   8.849  13.659   1.370
98004W        W64787   3.007  43.494   3.778
98005W        W64788  33.397  12.022  10.663
98006W        W64789  35.385  13.846  11.527
98007W        W64790  38.295  41.531   2.440
98008W        W64791   8.029  23.707  13.871
98009W        W64792  29.127  41.935  12.844
98010W        W64793  32.434   6.815   2.594
98011W        W64794  44.620   6.514  11.848
98012W        W64795  15.803  11.129  13.342
98013W        W64796  19.577   1.680   0.351
98014W        W64797  34.005  18.325   4.586
98015W        W64798  21.552   1.518   1.443
98016W        W64799  25.022  17.186   3.208
98017W        W64800  10.827   1.698   2.289
98018W        W64801  17.536  28.861  13.917
98019W        W64802  41.245  35.155  14.854
98020W        W64803  22.702  28.278   0.207
98021W        W64804  28.448   1.771   0.918
98022W        W64805  32.924  20.778  13.072
98023W        W64806  23.886  19.438   4.989
98024W        W64807   4.882  10.371  13.798
98025W        W64808  41.578  36.660   1.829
98026W        W64809  14.837  16.420  10.364
98027W        W64810  41.451   1.017  11.678
98028W        W64811  39.418  40.766  11.152
98029W        W64812  24.258   4.846  10.978
98030W        W64813  29.158  39.300  10.623
98031W        W64814  33.428  12.930  13.824
98032W        W64815   8.842  17.205   2.330
98033W        W64816  43.426  37.553  14.416
98034W        W64817  43.366  28.861   4.316
98035W        W64818  30.863  10.832   1.209
98036W        W64819  14.566   3.268   4.271
98037W        W64820  44.483  44.291  11.229
98038W        W64821  44.852  21.665  13.898
98039W        W64822   1.574   6.879  10.409
98040W        W64823  26.042  28.704   2.869
98041W        W64824   8.663  40.738   1.982
98042W        W64825  34.091  15.344   4.741
98043W        W64826  23.194  17.615  11.199
98044W        W64827  39.045  31.409   1.168
98045W        W64828   9.393   9.049   0.284
98046W        W64829  21.905  25.592   0.357
98047W        W64830  23.252  22.479   0.837
98048W        W64831  40.499   1.328  12.437
98049W        W64832  44.503  10.418  12.688
98050W        W64833  23.139  18.538   0.183
98051W        W64834  16.545  11.623   3.160
98052W        W64835  34.094   3.060  12.156
98053W        W64836  21.937   1.966   4.085
98054W        W64837   5.662  34.324   2.640
98055W        W64838  30.905  33.892   2.230
98056W        W64839  41.785   7.666  11.576
98057W        W64840  41.507  17.796  10.820
98058W        W64841  35.452  12.218   0.951
98059W        W64842  16.646   1.722  12.672
98060W        W64843  16.874  26.893  11.564
98061W        W64844   4.379  21.352  13.871
98062W        W64845  29.144  12.672   2.758
98063W        W64846  42.545  17.292  14.734
98064W        W64847  22.786  27.680   3.301
98065W        W64848   4.832  17.553  11.607
98066W        W64849  20.994   8.643   4.445
98067W        W64850   2.479  16.625  13.407
98068W        W64851  31.947   6.133   3.863
98069W        W64852   8.201  20.814   1.760
98070W        W64853  38.051  44.981   2.611
98071W        W64854  33.647  37.838   3.190
98072W        W64855   1.918  24.131   1.358
98073W        W64856  12.361  28.297  12.085
98074W        W64857  15.066  43.792  10.799
98075W        W64858  10.857  34.507   3.105
98076W        W64859  16.280  28.136  14.556
98077W        W64860  41.399   8.381   1.756
98078W        W64861  31.591  20.793   3.512
98079W        W64862  36.390  16.516   0.073
98080W        W64863  14.229  15.232  10.774
98081W        W64864  21.887  23.320   2.771
98082W        W64865  19.169  25.609   4.503
98083W        W64866  41.066   9.637  12.853
98084W        W64867   4.661  12.363  12.179
98085W        W64868  41.091  21.136   0.908
98086W        W64869  43.075  16.689   3.206
98087W        W64870  28.706  22.238   1.516
98088W        W64871  30.560  34.876   2.277
98089W        W64872  43.849  39.990   3.400
98090W        W64873  24.535  34.310   4.138
98091W        W64874  32.161  32.080  12.968
98092W        W64875  21.957   5.237   1.922
98093W        W64876  36.796  37.302  10.355
98094W        W64877  24.591  40.387   3.379
98095W        W64878  14.842  33.040  10.677
98096W        W64879  26.275  30.480  14.852
98097W        W64880   9.388   0.381   2.192
98098W        W64881   8.685  31.904  11.183
98099W        W64882  44.753   4.690   3.138
98100W        W64883  23.181  39.997  13.159
98101W        W64884  13.110  24.536  12.958
98102W        W64885  33.081  18.139   1.853
98103W        W64886   2.413  19.049  10.440
98104W        W64887  33.647  10.787  11.091
98105W        W64888  28.842  41.509  12.809
98106W        W64889  36.678  44.764   1.715
98107W        W64890  39.086  18.805  14.734
98108W        W64891  26.138   1.423   2.760
98109W        W64892  38.898  30.369   3.592
98110W        W64893  14.139  33.121   0.859
98111W        W64894  29.654  10.379  12.028
98112W        W64895   8.390  43.240   2.233
98113W        W64896  33.870  27.032   3.707
98114W        W64897  44.943  29.777  11.992
98115W        W64898  31.929   4.389  10.124
98116W        W64899   5.174   4.367  13.392
98117W        W64900  34.607  39.560   3.763
98118W        W64901   3.733  34.950   2.304
98119W        W64902  13.860  44.887  10.459
98120W        W64903  35.557  39.469  11.170
98121W        W64904   3.665  42.500   0.762
98122W        W64905  23.968  27.039  11.970
98123W        W64906  18.280  38.941  12.083
98124W        W64907   5.684   3.560  11.206
98125W        W64908  42.580  18.736  11.029
98126W        W64909   3.183  18.134   3.787
98127W        W64910   4.228  33.309   4.734
98128W        W64911  33.436  19.975  11.307
98129W        W64912  40.419   7.157  10.652
98130W        W64913  34.700  28.331   0.432
98131W        W64914   0.315  30.540   0.848
98132W        W64915  17.846   1.886   4.369
98133W        W64916  20.507  37.500  10.802
98134W        W64917  19.304  33.004   2.338
98135W        W64918  31.980  28.032  10.626
98136W        W64919   4.016   7.098   0.356
98137W        W64920   0.664  38.748   2.166
98138W        W64921   1.756  22.375  14.317
98139W        W64922  39.618  36.585  12.061
98140W        W64923   1.209  11.564  13.066
98141W        W64924  11.647  15.741  10.926
98142W        W64925  23.159  27.902  11.038
98143W        W64926   3.184  44.810  13.279
98144W        W64927  40.450  11.540  11.678
98145W        W64928  25.853   8.830   2.671
98146W        W64929  29.467  24.183  13.700
98147W        W64930   6.953  35.684   3.996
98148W        W64931   6.205  44.754  12.767
98149W        W64932  26.505  40.584   3.119
98150W        W64933   2.918  41.257  12.903
98151W        W64934  41.153  35.395   3.738
98152W        W64935  10.199  13.830  14.820
98153W        W64936  22.024  24.020  13.388
98154W        W64937  28.459   9.463  14.930
98155W        W64938   6.886  22.684  11.380
98156W        W64939  36.290  42.834   1.202
98157W        W64940   8.317  19.589   4.116
98158W        W64941   8.433  28.156   1.305
98159W        W64942  33.917  17.678  13.924
98160W        W64943  18.585  29.961   2.785
98161W        W64944  22.809   8.916  13.980
98162W        W64945  28.463  37.159   4.073
98163W        W64946   8.407  41.925   3.648
98164W        W64947   2.622  13.358  12.408
98165W        W64948  15.255  16.316   3.920
98166W        W64949  39.004   4.878   3.990
98167W        W64950  18.090  10.553   0.885
98168W        W64951  44.534  15.324  11.409
98169W        W64952  29.886  31.794   1.948
98170W        W64953   6.300  33.078  10.518
98171W        W64954  19.088   7.116   4.112
98172W        W64955  14.798   9.655  12.813
98173W        W64956  11.343  44.441  14.296
98174W        W64957  31.982  30.580  13.051
98175W        W64958   5.006  12.940  11.503
98176W        W64959  16.641  19.041  10.873
98177W        W64960  43.887  43.354   3.956
98178W        W64961   0.915   9.194  11.242
98179W        W64962   7.542   5.990   4.159
98180W        W64963  33.732  33.683  11.552
98181W        W64964  35.289  12.304  13.002
98182W        W64965  11.588  27.197   3.789
98183W        W64966  31.982  39.302  10.825
98184W        W64967  41.825  12.584  13.037
98185W        W64968  26.019  37.585  11.675
98186W        W64969   1.268   2.587   2.642
98187W        W64970  36.404  24.695   2.045
98188W        W64971   7.245  18.003  14.872
98189W        W64972  32.813  32.937   4.140
98190W        W64973   6.234  29.333  11.613
98191W        W64974  15.395   4.571  11.146
98192W        W64975   8.233  43.406   4.712
98193W        W64976   7.038  31.899   2.736
98194W        W64977   6.935  25.528   2.749
98195W        W64978   2.208  23.753   2.473
98196W        W64979  12.787  20.305  12.530
98197W        W64980  44.893   1.405  14.597
98198W        W64981  16.709  44.299  14.949
98199W        W64982  38.143  21.128  11.357
98200W        W64983   3.002  16.241   4.552
98201W        W64984  22.155  15.609   2.541
98202W        W64985  15.193  17.030   0.828
98203W        W64986  28.600  23.438  14.314
98204W        W64987   6.890  26.456   1.414
98205W        W64988  36.344  31.551  12.936
98206W        W64989  17.290  12.462  12.484
98207W        W64990  36.102  21.590   4.933
98208W        W64991  14.088  38.939  12.635
98209W        W64992  44.398  35.337  11.509
98210W        W64993  16.472  23.206  12.316
98211W        W64994  33.653  22.199   5.474
98212W        W64995   9.638   7.123  10.260
98213W        W64996  27.442  44.569  10.651
98214W        W64997  43.340  33.903   3.232
98215W        W64998  41.793  29.723  13.999
98216W        W64999   9.817  17.748   0.409
98217W        W65000  31.379  17.143   1.275
98218W        W65001  27.697   4.473  12.505
98219W        W65002  34.617  13.060  12.186
98220W        W65003  40.694   1.212   0.902
98221W        W65004   6.072  12.499   4.966
98222W        W65005   6.388  37.301  11.359
98223W        W65006  44.302   1.199  12.973
98224W        W65007  11.660   9.083  12.425
98225W        W65008  17.235  36.524   1.901
98226W        W65009   8.025  26.638  13.956
98227W        W65010  22.179   7.400   2.846
98228W        W65011  33.308   8.036  11.277
98229W        W65012  43.746  24.272  14.192
98230W        W65013  28.847   1.938   1.465
98231W        W65014  29.098  10.723   1.713
98232W        W65015  10.249   7.757  14.084
98233W        W65016  23.058   8.253   1.742
98234W        W65017  39.477  15.233   4.183
98235W        W65018  23.051  41.807   4.552
98236W        W65019   1.995  26.115   4.086
98237W        W65020  38.955   2.472  12.426
98238W        W65021  27.424  16.668   3.421
98239W        W65022   4.502   2.263   3.376
98240W        W65023  17.656  21.245   3.626
98241W        W65024   6.233   1.399   3.191
98242W        W65025  19.127  38.561  10.758
98243W        W65026  25.029  27.018   1.205
98244W        W65027  34.371   5.245   5.018
98245W        W65028  11.829  27.879   1.211
98246W        W65029  25.138  25.692   2.994
98247W        W65030  13.018  12.280  14.526
98248W        W65031  21.638   7.585   2.729
98249W        W65032  37.429  38.987  14.240
98250W        W65033  13.509  44.861  11.504
98251W        W65034  21.500  20.172  14.830
98252W        W65035  18.709  14.329  11.016
98253W        W65036   4.381  24.240  11.590
98254W        W65037   7.411  12.812   4.957
98255W        W65038   7.900  10.396   2.984
98256W        W65039   6.691  20.233   4.587
98257W        W65040  40.315   1.754   2.171
98258W        W65041  21.623   0.369  11.273
98259W        W65042  25.542   2.290  14.512
98260W        W65043  20.581  28.186  11.591
98261W        W65044   6.131  20.246   3.687
98262W        W65045  35.385  32.551  13.833
98263W        W65046  11.221  36.465   4.952
98264W        W65047  20.090   8.629   2.223
98265W        W65048   8.986   1.697   2.326
98266W        W65049   5.971  12.296   1.720
98267W        W65050   2.065  32.074  13.465
98268W        W65051  18.927  40.971   2.788
98269W        W65052  27.069  26.009   1.202
98270W        W65053  21.393  38.720  12.921
98271W        W65054  44.494  23.035   2.053
98272W        W65055  44.747  14.796   4.562
98273W        W65056  19.095  13.642   2.352
98274W        W65057   7.707  25.990  12.110
98275W        W65058  13.229  36.371  14.356
98276W        W65059  35.846  28.447  12.907
98277W        W65060   4.469  40.315   0.861
98278W        W65061  40.038  36.005  14.418
98279W        W65062  14.566  20.730  13.797
98280W        W65063   2.991  29.210   4.297
98281W        W65064  38.537  23.755  11.999
98282W        W65065   5.737  43.946  12.557
98283W        W65066  18.651   4.575   0.005
98284W        W65067  24.643   7.381  11.501
98285W        W65068  42.793   7.375   0.121
98286W        W65069  12.589  39.509   3.236
98287W        W65070  18.621  11.816  14.881
98288W        W65071   6.163  32.677  14.894
98289W        W65072  20.298  30.140   3.965
98290W        W65073   7.858  22.064  11.601
98291W        W65074  36.689   9.910   1.762
98292W        W65075  30.176  20.273  11.457
98293W        W65076  15.002  44.514  12.320
98294W        W65077  31.839  23.521   2.262
98295W        W65078  25.538  21.227   4.610
98296W        W65079  17.973   8.185  12.351
98297W        W65080   6.925  16.725  13.388
98298W        W65081  15.364  13.347   0.129
98299W        W65082   0.921  15.015   3.161
98300W        W65083  30.136   3.751  14.921
98301W        W65084   2.488   3.821   1.768
98302W        W65085  22.891   1.232   4.992
98303W        W65086  43.467  37.830  10.646
98304W        W65087  33.172  13.951  11.375
98305W        W65088  35.328   4.728   4.891
98306W        W65089   4.373  30.903   1.314
98307W        W65090  11.342   5.036   1.377
98308W        W65091   8.276  43.399  11.192
98309W        W65092  41.349  21.467  13.313
98310W        W65093   1.292  24.129  11.507
98311W        W65094  41.276  24.972  11.832
98312W        W65095  28.247   1.305   1.222
98313W        W65096  38.235   6.883   0.340
98314W        W65097  42.831  32.165  12.425
98315W        W65098   0.775  23.939   2.145
98316W        W65099   8.242  44.747   0.470
98317W        W65100  44.321  11.400   1.272
98318W        W65101  43.430  17.267   2.445
98319W        W65102  31.088  43.024   0.915
98320W        W65103  40.743   4.822  10.609
98321W        W65104  41.314  23.498   1.640
98322W        W65105  10.957  18.925   3.135
98323W        W65106  24.741  40.812  13.959
98324W        W65107  27.516  33.446  11.954
98325W        W65108   6.353  20.289  11.286
98326W        W65109  39.866  38.611   1.808
98327W        W65110  39.500  32.206  12.454
98328W        W65111  38.028  25.207  11.590
98329W        W65112  42.837  23.074   0.169
98330W        W65113  26.705  42.980  10.523
98331W        W65114  35.688   0.592   1.203
98332W        W65115  20.869  15.155  13.751
98333W        W65116   3.252  22.661  10.804
98334W        W65117  39.827  36.033   2.140
98335W        W65118  36.885   5.683   1.790
98336W        W65119  38.594  12.405  11.048
98337W        W65120  10.295  21.727   0.282
98338W        W65121  44.945  14.312  12.776
98339W        W65122  16.786  40.823   3.712
98340W        W65123  20.019  39.338  13.894
98341W        W65124  15.647   6.925   2.768
98342W        W65125  36.860  40.943   2.341
98343W        W65126   6.681   4.633   0.789
98344W        W65127  43.351  26.064  10.710
98345W        W65128  13.178  43.723   2.029
98346W        W65129   8.494  11.105   2.356
98347W        W65130   2.736  37.551  14.584
98348W        W65131   7.710   5.360   2.224
98349W        W65132  32.885  32.047   1.302
98350W        W65133   5.065   1.503  11.161
98351W        W65134  19.570  10.285   0.461
98352W        W65135  41.025  39.558  14.784
98353W        W65136   8.335   6.190  10.731
98354W        W65137  11.338  17.994  11.390
98355W        W65138  20.734  40.369   0.493
98356W        W65139  39.476  20.149   3.665
98357W        W65140   7.835  30.817  14.419
98358W        W65141  18.093   1.780  11.167
98359W        W65142   5.863  34.042  10.964
98360W        W65143   6.779  28.847  13.454
98361W        W65144   6.022  10.568   4.799
98362W        W65145  42.068  16.180  10.748
98363W        W65146  37.411  11.996   3.467
98364W        W65147   9.792  33.992   3.842
98365W        W65148   1.795  43.557   0.404
98366W        W65149  41.486  38.520   4.210
98367W        W65150   4.892  16.702   1.034
98368W        W65151  30.490  18.809  10.919
98369W        W65152  43.322  41.023  14.256
98370W        W65153  36.155  33.900  13.860
98371W        W65154  25.039  21.858   3.050
98372W        W65155  25.706  27.062  13.893
98373W        W65156  13.374   8.623   3.760
98374W        W65157   0.288  38.589  14.346
98375W        W65158   1.413  42.904  13.586
98376W        W65159  43.880  16.839   1.725
98377W        W65160   4.702  22.709  12.417
98378W        W65161  14.738  17.288   3.141
98379W        W65162  11.230  41.469   3.345
98380W        W65163  23.695  21.771  10.446
98381W        W65164   2.863   8.784  12.083
98382W        W65165  14.658  17.687  10.956
98383W        W65166  21.574  44.448  14.577
98384W        W65167  26.246  20.504   2.361
98385W        W65168  10.421   6.449  10.358
98386W        W65169  12.636   4.749   3.866
98387W        W65170  16.136  37.580  11.650
98388W        W65171  36.626  32.836  13.364
98389W        W65172  21.326  19.836  11.853
98390W        W65173  40.604  11.324   1.752
98391W        W65174  29.903   5.907   4.568
98392W        W65175  16.457  11.144   3.019
98393W        W65176  25.032  15.937   2.899
98394W        W65177   2.994  17.201  13.885
98395W        W65178  40.985   8.882  12.161
98396W        W65179  25.640  17.811   1.181
98397W        W65180   3.937  26.140  11.391
98398W        W65181  22.549  13.267   1.364
98399W        W65182  21.689  13.012  12.385
98400W        W65183   4.890  33.889   4.648
98401W        W65184  42.468  36.486   2.834
98402W        W65185  35.932  21.684   1.134
98403W        W65186   3.502  12.372   2.320
98404W        W65187  13.571   5.152  12.064
98405W        W65188  17.179  24.903   0.836
98406W        W65189  36.463  34.427  14.472
98407W        W65190  20.280  25.082  14.517
98408W        W65191  14.369  19.588   1.721
98409W        W65192  14.313  20.043   1.418
98410W        W65193  19.041  15.196  10.675
98411W        W65194  43.597  23.010  14.630
98412W        W65195  31.892   0.092  13.413
98413W        W65196  22.255  44.421  13.880
98414W        W65197  37.603  36.545   3.351
98415W        W65198  20.578  10.840  13.237
98416W        W65199   2.720  38.798   0.412
98417W        W65200  34.962  22.589   1.205
98418W        W65201  35.877  10.083   1.274
98419W        W65202  21.750  44.847   3.358
98420W        W65203  19.204  15.187  13.285
98421W        W65204  28.718   9.454   3.176
98422W        W65205   6.508  17.169  12.105
98423W        W65206  29.930  16.330   2.612
98424W        W65207  22.047  25.168   2.894
98425W        W65208  32.360  27.597   1.830
98426W        W65209  15.763  18.479  12.617
98427W        W65210  20.482  43.842   2.723
98428W        W65211   3.430   0.209   1.221
98429W        W65212   6.289  20.973  12.738
98430W        W65213  33.020  19.551   4.609
98431W        W65214   0.286  36.088  10.605
98432W        W65215  33.815  28.435   0.811
98433W        W65216   0.772  17.671   4.065
98434W        W65217   0.313  11.106  12.956
98435W        W65218  34.599  27.500  12.801
98436W        W65219  30.530  15.237   0.925
98437W        W65220  11.610   4.343  13.415
98438W        W65221  37.038  26.433   1.394
98439W        W65222  32.168  41.795   1.341
98440W        W65223   4.562  11.717  13.504
98441W        W65224  19.067  36.691   3.309
98442W        W65225  15.420   7.515   4.165
98443W        W65226  10.325   0.786  12.114
98444W        W65227  32.965  14.506   4.419
98445W        W65228  44.956  20.816   2.400
98446W        W65229  10.535  15.494  14.903
98447W        W65230  18.775   4.462  12.930
98448W        W65231  27.078  32.913  12.972
98449W        W65232  12.062  29.695   0.462
98450W        W65233  12.494  41.950  14.374
98451W        W65234  13.520  24.117   1.354
98452W        W65235  31.147  40.688  12.948
98453W        W65236  38.348  43.337   0.962
98454W        W65237  19.176  35.847   1.962
98455W        W65238   4.277  20.796   2.590
98456W        W65239  11.086   5.352   3.084
98457W        W65240  40.604  44.815  10.785
98458W        W65241  18.744  32.189  11.982
98459W        W65242  23.646  38.294  13.877
98460W        W65243  14.189  42.306   0.892
98461W        W65244   2.371  35.659  10.810
98462W        W65245  33.324  37.583  14.964
98463W        W65246  44.876   9.016   9.963
98464W        W65247  10.094  40.996   3.938
98465W        W65248  30.101  37.443   1.796
98466W        W65249   3.267  35.867  12.948
98467W        W65250  25.957   5.562   4.899
98468W        W65251   2.387   3.065   3.505
98469W        W65252  27.259  30.946  13.887
98470W        W65253  31.599  11.886  11.744
98471W        W65254  13.369   8.683  12.935
98472W        W65255  28.023  20.693  11.502
98473W        W65256   2.698  41.003   4.518
98474W        W65257  18.609   2.095   3.348
98475W        W65258  40.255  33.506   2.207
98476W        W65259   0.465   6.373  14.710
98477W        W65260  32.725  18.259   5.009
98478W        W65261  25.950   1.931  10.644
98479W        W65262  14.477  22.076  11.668
98480W        W65263  14.802  18.187   0.941
98481W        W65264  17.475  20.700   1.391
98482W        W65265  29.358  15.854   4.625
98483W        W65266  16.256  27.411   4.707
98484W        W65267  35.264  29.020  11.235
98485W        W65268   9.849   0.160  11.792
98486W        W65269  32.125  10.926   2.222
98487W        W65270  31.473  10.422   0.458
98488W        W65271  27.585  32.250   4.051
98489W        W65272  35.909  43.404   2.369
98490W        W65273   9.595  10.418  11.514
98491W        W65274  22.498  28.144  11.553
98492W        W65275  10.870  10.823   1.368
98493W        W65276  10.866  33.877  12.102
98494W        W65277   3.985   9.577   2.684
98495W        W65278  26.016  42.041  12.522
98496W        W65279  26.225  14.330  12.542
98497W        W65280  21.219   0.480   2.331
98498W        W65281   6.726  39.614   0.143
98499W        W65282  22.936  13.450  12.031
98500W        W65283  40.017  30.841  12.917
98501W        W65284  32.959  10.544   1.823
98502W        W65285   3.932  24.111   2.619
98503W        W65286  44.220  23.168   0.713
98504W        W65287  24.919   9.767  12.410
98505W        W65288  41.514  13.709  12.115
98506W        W65289  13.685  25.922  12.772
98507W        W65290  38.862  25.649   2.855
98508W        W65291  36.040  24.821   0.362
98509W        W65292  24.501   5.875   1.234
98510W        W65293  10.159  34.409  12.541
98511W        W65294   0.116  29.830   3.888
98512W        W65295  20.506  44.311   0.924
98513W        W65296  22.071  33.684   1.711
98514W        W65297  22.151   0.224  10.442
98515W        W65298  36.133  31.366  10.650
98516W        W65299  39.590  41.927   1.664
98517W        W65300  12.830   3.036  13.545
98518W        W65301  17.662  44.447   4.519
98519W        W65302   2.327  29.008  13.120
98520W        W65303  11.655  35.608   4.491
98521W        W65304  31.629  15.606   3.499
98522W        W65305  40.352  37.054  11.921
98523W        W65306  16.135   6.745   1.939
98524W        W65307   6.815   1.239  13.217
98525W        W65308   4.954  17.682  14.364
98526W        W65309  35.904  35.875   0.970
98527W        W65310  27.326  38.312  12.478
98528W        W65311  34.446  16.829   0.912
98529W        W65312   5.822  43.284   4.067
98530W        W65313  40.114  28.592   3.315
98531W        W65314  12.904   9.051   1.808
98532W        W65315  26.526  24.152   1.337
98533W        W65316  28.493  17.236   0.428
98534W        W65317  29.901  32.657  13.014
98535W        W65318  44.840  35.799  10.689
98536W        W65319   3.350   5.630  10.631
98537W        W65320   4.451  13.797  12.065
98538W        W65321  26.674  41.842   4.603
98539W        W65322  24.067  31.531   3.311
98540W        W65323  24.689  11.336   1.715
98541W        W65324  44.446   1.011  14.928
98542W        W65325   0.014  30.979   0.780
98543W        W65326  22.022  43.197  11.471
98544W        W65327  11.185  13.357   0.703
98545W        W65328   8.535  14.425  14.493
98546W        W65329  43.464  18.342   3.935
98547W        W65330  19.701  13.491   3.608
98548W        W65331  30.077  34.745   2.120
98549W        W65332  26.236   0.700   1.660
98550W        W65333   9.638  20.991  12.552
98551W        W65334  34.119  37.118  14.832
98552W        W65335  34.321  21.677   3.687
98553W        W65336   7.278  42.086   3.586
98554W        W65337  37.408   2.027  12.656
98555W        W65338   8.205  42.830   0.119
98556W        W65339  25.409   6.645  14.808
98557W        W65340  34.488  29.101   0.947
98558W        W65341  40.879   1.425   2.724
98559W        W65342  42.709  42.885   4.572
98560W        W65343   1.640  30.157  11.397
98561W        W65344  24.916  29.067   3.727
98562W        W65345  34.503  15.846  12.980
98563W        W65346   8.171   0.770  12.592
98564W        W65347  33.330   5.659  11.085
98565W        W65348  31.154  42.408  10.869
98566W        W65349  24.716  12.451  12.564
98567W        W65350  38.543  23.114   3.120
98568W        W65351  18.538  12.789   4.939
98569W        W65352  42.977  29.579  14.905
98570W        W65353  37.940  11.223   2.051
98571W        W65354  37.633  44.806   2.887
98572W        W65355  11.882  28.008   3.951
98573W        W65356   0.805  33.833  10.787
98574W        W65357  38.076  26.441   1.213
98575W        W65358  38.368  11.057   3.622
98576W        W65359   1.668   7.288   0.757
98577W        W65360  41.397  20.758  14.865
98578W        W65361   6.933  35.972   2.741
98579W        W65362  25.433   6.098   1.013
98580W        W65363  40.151  13.786  12.509
98581W        W65364   6.649  15.359   3.621
98582W        W65365   8.125   9.773  13.324
98583W        W65366  42.316  42.457   2.242
98584W        W65367  20.684  10.793  13.745
98585W        W65368  26.065  25.885  12.008
98586W        W65369   7.704  24.545   3.193
98587W        W65370  19.608   7.974   0.799
98588W        W65371  37.242  10.421   3.990
98589W        W65372  33.563   1.060  12.704
98590W        W65373  15.438  21.312  13.126
98591W        W65374   0.217  24.160  12.601
98592W        W65375  11.815   7.009   3.030
98593W        W65376  30.025   1.020  13.603
98594W        W65377  21.682  20.560  14.303
98595W        W65378   8.896   5.128  12.156
98596W        W65379   6.936  34.932  13.447
98597W        W65380  39.378  15.422  11.120
98598W        W65381  15.171  26.991   5.063
98599W        W65382  14.204   3.228  12.387
98600W        W65383   4.770  26.745  11.069
98601W        W65384   6.281  37.570  13.314
98602W        W65385  41.365  34.637  14.774
98603W        W65386  23.246  22.667  11.459
98604W        W65387  31.973  27.159  14.853
98605W        W65388  39.118   8.791  11.390
98606W        W65389  27.420  21.693   4.557
98607W        W65390  29.823  25.089   3.066
98608W        W65391  40.896  27.659   4.050
98609W        W65392  41.185   4.521   3.123
98610W        W65393  32.162  41.152   3.613
98611W        W65394   1.834  19.788  13.607
98612W        W65395  23.027  35.418   3.604
98613W        W65396  15.007  25.268   1.835
98614W        W65397   9.162  20.234   2.411
98615W        W65398   2.878  12.378   2.808
98616W        W65399  20.546  24.627  14.374
98617W        W65400   0.799  25.012   1.306
98618W        W65401   9.369   9.266  10.236
98619W        W65402   1.025  12.625   5.368
98620W        W65403  22.187   2.521   2.442
98621W        W65404  38.626   2.407   3.751
98622W        W65405  32.430  13.401   1.390
98623W        W65406  11.827  32.506  14.096
98624W        W65407  33.679   3.067   0.792
98625W        W65408   5.868  40.356   0.674
98626W        W65409  44.013  31.840   2.774
98627W        W65410   2.115  38.567  11.530
98628W        W65411  13.599  43.270   4.917
98629W        W65412  21.651  19.030   4.659
98630W        W65413  44.901   0.429  14.386
98631W        W65414  15.845  20.507  13.611
98632W        W65415  38.722  26.374   4.152
98633W        W65416  11.702  19.571   5.280
98634W        W65417  10.182  11.823   5.005
98635W        W65418   1.304   6.787   2.651
98636W        W65419  10.392   5.086  14.005
98637W        W65420  23.873  27.101  11.074
98638W        W65421  21.650  16.569  11.848
98639W        W65422  13.446  10.483  10.743
98640W        W65423  11.109   3.974  14.232
98641W        W65424  24.306  41.310  13.317
98642W        W65425  20.597   6.445   1.921
98643W        W65426  42.330   0.537   4.241
98644W        W65427   0.291  11.424  10.659
98645W        W65428  17.391  19.674   4.703
98646W        W65429  33.625  17.141   4.683
98647W        W65430  23.756  37.984   1.308
98648W        W65431   3.435  36.942  14.821
98649W        W65432   9.690  33.677   0.726
98650W        W65433  33.314  18.889   1.513
98651W        W65434   0.424  21.015  13.977
98652W        W65435   7.517  11.842  10.650
98653W        W65436  18.499  33.057   1.136
98654W        W65437  35.506   8.473  14.056
98655W        W65438  32.476   6.472   3.172
98656W        W65439  34.557  35.343  14.933
98657W        W65440  44.312  13.795  14.337
98658W        W65441  37.558   0.993   3.348
98659W        W65442   9.126   2.575  12.005
98660W        W65443  35.571  43.329  11.496
98661W        W65444  39.863   5.239  11.582
98662W        W65445   5.818  27.489  13.208
98663W        W65446   0.929  33.482  11.178
98664W        W65447   7.712  28.156   0.492
98665W        W65448  30.560   4.008  11.944
98666W        W65449   4.946  16.716  11.145
98667W        W65450  44.788  28.563   4.647
98668W        W65451  17.673  15.247   3.360
98669W        W65452   4.320  34.769  14.131
98670W        W65453  11.064  24.110  10.273
98671W        W65454  14.838  27.639   1.220
98672W        W65455  40.641  29.040  13.299
98673W        W65456  18.777   7.639   1.108
98674W        W65457  21.833   8.850  12.026
98675W        W65458  19.089  31.402   1.785
98676W        W65459  29.392   7.850  12.496
98677W        W65460  21.602  30.533  13.616
98678W        W65461  28.023   7.834   0.236
98679W        W65462  24.976  44.928   4.596
98680W        W65463   4.105  25.601  11.278
98681W        W65464  25.996  22.967   0.336
98682W        W65465   2.909  32.904  14.237
98683W        W65466  14.347  36.444   3.098
98684W        W65467   3.926  28.717  14.485
98685W        W65468  32.578   4.301   4.545
98686W        W65469   4.384   0.850   4.561
98687W        W65470  42.979  21.727   1.671
98688W        W65471   1.534  27.372  12.520
98689W        W65472   8.378  39.593   1.226
98690W        W65473   0.395   1.188  14.747
98691W        W65474  37.024  44.162   4.160
98692W        W65475   6.894  28.673  11.225
98693W        W65476  35.413  36.421  12.015
98694W        W65477  12.031  30.555   1.757
98695W        W65478  33.271  42.347  13.743
98696W        W65479  44.191   0.333   1.966
98697W        W65480  12.889  27.387   1.770
98698W        W65481  11.297  34.853   4.059
98699W        W65482  11.226   3.481  14.076
98700W        W65483  38.912  24.919   4.229
98701W        W65484  19.115  41.805   0.978
98702W        W65485  37.273  37.492  11.252
98703W        W65486   3.644  20.205   2.745
98704W        W65487  14.237   0.420   3.500
98705W        W65488  11.907  24.138   4.030
98706W        W65489  27.232  32.074   0.900
98707W        W65490  32.376  35.181   4.344
98708W        W65491  44.380   0.765   3.631
98709W        W65492  40.812  23.444  14.758
98710W        W65493  39.111  13.351  12.368
98711W        W65494  37.122  29.179  11.539
98712W        W65495  13.540  15.564  12.960
98713W        W65496   5.649  40.517   2.700
98714W        W65497  24.361   3.694   3.794
98715W        W65498   2.208   1.831   5.033
98716W        W65499  27.037  39.946   1.199
98717W        W65500   1.246  39.049   4.048
98718W        W65501  39.363  13.319   0.335
98719W        W65502  23.143  35.137   2.751
98720W        W65503  19.528  23.433  11.702
98721W        W65504  26.079  42.486  12.145
98722W        W65505   5.792  35.581  11.407
98723W        W65506  44.248   0.723  13.151
98724W        W65507   3.030   9.376   4.649
98725W        W65508  10.765   7.233   1.031
98726W        W65509   3.159   7.593   2.469
98727W        W65510   5.785  17.705   0.767
98728W        W65511  23.994  42.403   4.558
98729W        W65512  35.096  33.486   1.629
98730W        W65513   1.284  15.692  11.973
98731W        W65514  20.925  35.875   1.382
98732W        W65515   9.989  44.253  14.263
98733W        W65516  16.492  43.549  12.027
98734W        W65517  20.401  26.986  13.487
98735W        W65518  35.159  30.160  12.050
98736W        W65519   9.418  19.969   3.369
98737W        W65520  41.427  37.475  11.347
98738W        W65521  10.171  34.496   4.720
98739W        W65522  30.883  41.363   3.136
98740W        W65523   1.258  22.489  14.506
98741W        W65524  36.419  38.532   2.241
98742W        W65525   9.390   1.426  10.742
98743W        W65526   8.976   6.729   3.814
98744W        W65527   7.292  11.680   4.207
98745W        W65528  32.913   2.766  14.865
98746W        W65529   8.963  40.192  14.286
98747W        W65530  12.210  14.174   2.073
98748W        W65531  38.663  33.063   1.357
98749W        W65532  39.563  19.766   4.465
98750W        W65533  37.813  26.536   2.711
98751W        W65534   2.384  32.893  10.789
98752W        W65535  41.620   3.254   4.322
98753W        W65536   1.500  13.768  13.842
98754W        W65537  13.393   9.245  11.398
98755W        W65538  36.089  25.576  10.418
98756W        W65539   0.482  30.528  10.652
98757W        W65540  35.418  26.222   2.399
98758W        W65541  30.100  25.448   1.838
98759W        W65542  41.557  41.465   1.815
98760W        W65543  19.662  41.236  13.392
98761W        W65544  28.130  12.261   1.249
98762W        W65545  10.980  13.298  14.662
98763W        W65546   2.494  16.174   0.601
98764W        W65547  36.878   1.713   1.856
98765W        W65548  39.970  43.119   2.105
98766W        W65549  12.844  28.337  11.815
98767W        W65550  35.170  22.302   3.732
98768W        W65551   2.536   3.708   1.010
98769W        W65552   1.234  12.164   9.939
98770W        W65553  44.487  22.222   2.683
98771W        W65554  33.074  27.524   1.387
98772W        W65555   8.812  18.473   4.673
98773W        W65556  34.603   5.786   2.739
98774W        W65557  13.637   1.791  13.052
98775W        W65558  36.591  37.600   3.714
98776W        W65559   5.499  31.939   1.662
98777W        W65560  11.718   3.718   0.521
98778W        W65561  17.523  31.751   3.754
98779W        W65562  12.151  36.864  10.967
98780W        W65563  24.122  18.501  13.447
98781W        W65564  19.802   7.299   0.770
98782W        W65565   7.428  10.968   1.097
98783W        W65566   1.286  31.476  12.411
98784W        W65567  33.467  21.385   3.501
98785W        W65568  30.621  27.226  14.388
98786W        W65569   9.392  22.525  10.693
98787W        W65570  26.561  38.103  14.991
98788W        W65571  21.940  15.227  13.869
98789W        W65572  37.676  43.808   1.858
98790W        W65573   9.769  27.214   1.905
98791W        W65574   7.734   0.398   0.154
98792W        W65575  35.099   8.201   3.027
98793W        W65576  29.638   2.342  12.926
98794W        W65577  27.649   0.975  13.924
98795W        W65578  44.382  40.106  13.337
98796W        W65579  15.272  11.357  14.299
98797W        W65580   8.189   9.747  11.853
98798W        W65581  21.662   3.423   1.770
98799W        W65582   1.867  10.431  12.035
98800W        W65583  30.052   4.521  13.544
98801W        W65584  24.426  31.944   0.199
98802W        W65585  43.944  14.434  11.694
98803W        W65586  43.912  36.344   2.182
98804W        W65587  39.484  44.387  14.336
98805W        W65588  36.515  31.840   0.985
98806W        W65589   8.499   8.155  10.316
98807W        W65590  16.942  14.310   3.619
98808W        W65591  28.697  40.025  14.003
98809W        W65592  43.054  31.590   3.199
98810W        W65593   9.346   8.490  12.399
98811W        W65594  20.838  33.097  13.558
98812W        W65595  34.497   6.940   4.074
98813W        W65596  21.749  39.462   1.853
98814W        W65597  42.406  27.607   0.086
98815W        W65598  22.509  15.748   1.478
98816W        W65599  31.404  13.034  14.968
98817W        W65600  39.960  11.444   3.623
98818W        W65601  11.107   3.657  11.624
98819W        W65602  23.845  35.820   3.003
98820W        W65603  29.977  42.101  12.946
98821W        W65604   6.143  29.951  13.010
98822W        W65605  27.488  11.844   0.976
98823W        W65606  25.427   4.788  12.355
98824W        W65607  22.927   6.687   0.930
98825W        W65608  29.965  40.712   0.898
98826W        W65609   3.709   4.717  12.072
98827W        W65610  38.080  36.004   4.843
98828W        W65611  30.667  19.601   0.761
98829W        W65612   3.007  38.468  10.626
98830W        W65613   4.831  16.921   9.908
98831W        W65614  38.989  11.133   4.622
98832W        W65615  32.902  11.683  12.892
98833W        W65616  26.633  38.008   4.497
98834W        W65617  40.463  30.559  12.010
98835W        W65618  26.801  34.484   1.674
98836W        W65619   5.930  21.562   0.895
98837W        W65620  17.692  24.946  13.876
98838W        W65621  10.803   0.884   0.038
98839W        W65622  38.862  44.550   1.274
98840W        W65623  17.221  17.194   1.115
98841W        W65624  41.434   0.512  11.604
98842W        W65625  11.825  24.151  13.077
98843W        W65626  37.685   7.555   4.417
98844W        W65627  14.467   9.329  13.032
98845W        W65628   1.230  33.944   2.717
98846W        W65629  16.770  17.084   2.643
98847W        W65630  44.424  36.774   1.286
98848W        W65631  24.620  17.890  13.037
98849W        W65632   7.181  27.156  14.002
98850W        W65633   1.227  20.450   2.423
98851W        W65634  32.548   4.799   2.263
98852W        W65635   9.641   4.918  12.640
98853W        W65636  34.113  23.613  13.757
98854W        W65637  18.114  40.989   2.029
98855W        W65638   8.329   7.401   1.799
98856W        W65639  23.142  32.866  12.482
98857W        W65640   7.631  43.630  12.348
98858W        W65641  23.147  19.504   0.964
98859W        W65642  16.623  29.096   4.521
98860W        W65643  41.970  43.372  12.983
98861W        W65644  14.179   6.904   4.677
98862W        W65645  16.106  25.717  13.510
98863W        W65646  11.629  30.876  10.765
98864W        W65647  24.080  31.874  14.831
98865W        W65648  42.356  26.873   0.009
98866W        W65649  34.123   4.690  10.344
98867W        W65650  21.788  25.969   2.282
98868W        W65651  37.435  44.913   3.374
98869W        W65652  31.927  33.311  13.502
98870W        W65653  22.999   1.441   4.536
98871W        W65654  15.573  16.051  10.626
98872W        W65655  24.440  14.264  13.013
98873W        W65656  16.834  39.629   2.306
98874W        W65657  28.481  13.370   2.299
98875W        W65658  16.521  31.910  14.972
98876W        W65659   1.348  14.868  12.522
98877W        W65660  20.298   5.786   1.894
98878W        W65661  40.285  31.320  12.994
98879W        W65662   1.664  39.087   3.149
98880W        W65663   9.909  26.095   2.806
98881W        W65664   1.057   0.735   0.686
98882W        W65665  19.931   2.747   4.524
98883W        W65666  10.275  37.727  11.914
98884W        W65667  36.582  26.255   3.789
98885W        W65668  18.050  34.029   3.208
98886W        W65669  44.315  29.586  13.507
98887W        W65670  14.134  21.490  13.797
98888W        W65671   8.855   5.326   0.951
98889W        W65672  10.707  17.145   2.618
98890W        W65673   3.393  38.684   5.047
98891W        W65674  13.820  43.328  11.184
98892W        W65675  29.132  36.435  13.609
98893W        W65676   4.917  14.994   1.789
98894W        W65677   7.727  14.741   3.173
98895W        W65678  26.165  40.088   0.796
98896W        W65679  36.096  34.526   3.209
98897W        W65680  37.959  32.692  13.354
98898W        W65681  24.048  30.987   1.011
98899W        W65682  32.338  34.964  14.473
98900W        W65683  28.518  27.058  12.122
98901W        W65684  42.460   9.751  10.440
98902W        W65685  12.790  21.277  13.387
98903W        W65686  43.990   8.451  11.362
98904W        W65687   0.954  10.635  14.015
98905W        W65688  10.347  40.454   4.583
98906W        W65689  26.178   5.721   4.468
98907W        W65690  38.773  31.110   0.349
98908W        W65691  38.291  17.602  14.441
98909W        W65692   7.164  26.007   2.726
98910W        W65693  43.721  22.488  10.675
98911W        W65694  41.935  13.920  14.452
98912W        W65695  31.973   6.452   4.305
98913W        W65696   3.807  26.008   4.701
98914W        W65697  27.018   2.849  13.899
98915W        W65698   0.863  40.422   1.337
98916W        W65699  20.463  10.609   3.869
98917W        W65700  19.984  44.667  10.680
98918W        W65701  16.064  22.580   0.843
98919W        W65702  39.485  30.051  13.940
98920W        W65703  28.120  15.662  14.498
98921W        W65704   4.844  32.523   2.363
98922W        W65705  28.787  14.536  11.170
98923W        W65706   7.897  16.627   1.384
98924W        W65707  34.141  34.426   3.095
98925W        W65708   3.702  12.658  10.705
98926W        W65709  26.601  20.438  13.372
98927W        W65710  43.063  22.715   4.160
98928W        W65711  16.614   4.508   4.652
98929W        W65712   7.937  24.999  10.740
98930W        W65713  12.099  25.615  12.766
98931W        W65714  19.148  29.685  11.725
98932W        W65715   5.802  26.921   2.397
98933W        W65716  20.490  11.782  14.847
98934W        W65717  41.426  29.428  12.587
98935W        W65718  12.083  20.330   4.519
98936W        W65719  18.569  16.622   3.920
98937W        W65720  15.116  13.855   2.217
98938W        W65721  12.655  14.639  13.650
98939W        W65722   9.833   1.851   1.258
98940W        W65723   3.580  18.268  10.517
98941W        W65724  35.347  11.498  11.899
98942W        W65725  22.678   0.268   3.278
98943W        W65726   6.765  16.767   0.694
98944W        W65727  15.858  26.212   4.232
98945W        W65728  10.602  10.139   0.850
98946W        W65729   4.707   7.201  11.237
98947W        W65730  22.460   1.966   4.039
98948W        W65731  16.142   2.072   0.263
98949W        W65732  10.895  22.015   1.400
98950W        W65733  24.635  15.241  11.621
98951W        W65734   8.286   8.183  13.898
98952W        W65735   1.052  37.035  14.911
98953W        W65736  24.434  27.578   0.018
98954W        W65737  32.422  34.522   1.267
98955W        W65738  11.081  41.087   1.433
98956W        W65739   0.071  22.829   0.406
98957W        W65740  35.380  44.930  11.184
98958W        W65741   5.260  36.454   0.455
98959W        W65742  13.298  16.605  12.926
98960W        W65743   4.710  20.338   0.466
98961W        W65744  28.531  31.531   4.366
98962W        W65745   4.106   5.476  11.607
98963W        W65746   1.426   8.456   3.607
98964W        W65747  27.709  40.942   3.842
98965W        W65748   1.297  13.746   1.564
98966W        W65749  29.576  33.776   1.723
98967W        W65750  35.051  27.209  14.544
98968W        W65751  19.156  18.807   2.862
98969W        W65752   4.156  42.107  12.739
98970W        W65753  40.366  30.164  12.427
98971W        W65754   8.610   3.355  13.238
98972W        W65755  16.887  41.005  11.857
98973W        W65756  31.457  21.571   1.158
98974W        W65757  25.607  44.282   3.593
98975W        W65758  20.264   3.495   0.469
98976W        W65759  12.796   9.783  14.311
98977W        W65760   9.605  43.341  12.569
98978W        W65761  15.772  26.792   5.192
98979W        W65762  32.553   7.657  12.545
98980W        W65763  37.150  22.001   1.323
98981W        W65764  20.216  27.682   0.882
98982W        W65765  26.433  21.617   4.420
98983W        W65766  36.279  20.124  13.777
98984W        W65767  41.704  37.548  10.895
98985W        W65768  30.671  35.007  12.855
98986W        W65769  15.892   2.972  14.979
98987W        W65770  12.600  27.707  11.177
98988W        W65771   3.948  33.677  11.152
98989W        W65772  29.720  32.867  12.583
98990W        W65773  33.898   4.718   2.304
98991W        W65774  24.017   9.212   3.813
98992W        W65775   1.188  28.910  12.448
98993W        W65776   3.828  10.487   1.033
98994W        W65777  23.088  25.699   0.372
98995W        W65778  17.916   7.477   1.704
98996W        W65779  10.781  17.589  10.594
98997W        W65780   2.483  42.931  10.571
98998W        W65781   2.574  20.744  12.377
98999W        W65782  38.435  16.277  14.543
99000W        W65783  30.033  34.660   4.095
99001W        W65784   9.198  13.259  12.597
99002W        W65785  26.746  17.793  11.006
99003W        W65786  34.134   5.824   3.500
99004W        W65787   2.384  22.847   4.049
99005W        W65788  13.806   5.514  13.488
99006W        W65789  34.851   4.692  10.648
99007W        W65790  29.174  37.297   2.879
99008W        W65791  32.606  26.237   1.306
99009W        W65792  23.134  38.035  11.458
99010W        W65793  35.010  19.762   3.566
99011W        W65794  15.647   9.171   4.587
99012W        W65795   4.165  40.724   0.823
99013W        W65796   3.362  37.867  14.170
99014W        W65797  41.598  33.554  13.352
99015W        W65798  22.736  13.988  14.429
99016W        W65799  30.073   8.689   3.316
99017W        W65800  30.543  40.633  11.677
99018W        W65801  23.852  31.497  10.581
99019W        W65802  27.077  44.809  13.566
99020W        W65803  13.640  15.233   2.094
99021W        W65804  17.348  35.250   5.093
99022W        W65805  43.756   1.386   4.137
99023W        W65806   8.138  24.040   1.451
99024W        W65807   0.804  31.257   1.841
99025W        W65808  40.019  36.236  12.055
99026W        W65809  38.553  26.160   2.223
99027W        W65810  15.164   7.106  13.963
99028W        W65811  14.116  32.035   3.758
99029W        W65812  13.741  40.580  14.968
99030W        W65813  36.536  43.408   3.173
99031W        W65814  19.925  34.694  13.815
99032W        W65815  30.482  36.482  13.134
99033W        W65816   4.402  31.105   4.848
99034W        W65817  28.249  29.031  10.966
99035W        W65818  12.329   4.895  13.423
99036W        W65819   6.488  35.435   4.067
99037W        W65820   1.907  31.413   2.604
99038W        W65821  10.674  17.684   2.441
99039W        W65822  35.912   5.311   3.680
99040W        W65823   0.363  29.264  13.781
99041W        W65824   1.411  25.508  12.626
99042W        W65825  27.241  24.743   3.659
99043W        W65826   1.943  29.514   4.086
99044W        W65827  18.296  11.539  12.134
99045W        W65828  17.189  21.039  10.674
99046W        W65829  26.135  25.730  12.491
99047W        W65830  29.453  40.624   0.924
99048W        W65831  34.676  18.197  13.988
99049W        W65832  24.580  28.750   3.389
99050W        W65833  28.151   1.274  11.508
99051W        W65834   1.957   2.362  12.693
99052W        W65835   8.446  21.758   1.998
99053W        W65836   8.812  34.746  11.064
99054W        W65837  23.794  17.833  12.768
99055W        W65838  42.128  36.495  14.976
99056W        W65839  11.632   0.505   0.277
99057W        W65840  18.570  16.548   0.723
99058W        W65841  31.666  22.936   4.166
99059W        W65842   3.953  10.713   3.804
99060W        W65843  36.162  44.636  10.856
99061W        W65844  31.732  40.345   4.806
99062W        W65845  14.134   4.224  12.572
99063W        W65846  20.380  14.630  14.791
99064W        W65847  42.972  19.723  14.917
99065W        W65848  16.354  36.567  14.819
99066W        W65849  43.002  42.257  10.902
99067W        W65850   6.913  17.106  12.432
99068W        W65851  15.825  22.793   4.017
99069W        W65852  17.750  44.748  13.951
99070W        W65853  13.154  42.804  13.832
99071W        W65854  24.643  19.449   4.520
99072W        W65855   9.936   5.272   3.720
99073W        W65856   2.505   9.790   3.877
99074W        W65857  19.555  23.663  11.231
99075W        W65858  20.045  18.592   1.739
99076W        W65859  35.634  21.447   3.737
99077W        W65860  35.370   9.880  13.771
99078W        W65861   1.311  19.150   4.663
99079W        W65862  38.016   3.793   2.727
99080W        W65863   5.463  14.683   1.999
99081W        W65864   6.287  35.491  11.294
99082W        W65865  10.186  43.820  12.134
99083W        W65866  40.282  25.018   5.105
99084W        W65867   3.907  10.637  11.610
99085W        W65868  21.429  43.896   4.982
99086W        W65869  44.303  35.645  12.957
99087W        W65870  18.754  20.167  12.113
99088W        W65871  36.524   8.322  11.148
99089W        W65872   6.645  37.818  11.610
99090W        W65873  34.618  31.515   4.162
99091W        W65874  25.430  32.608   3.287
99092W        W65875  42.288  27.128   2.550
99093W        W65876   6.626  18.911   1.306
99094W        W65877  36.509   4.458   0.435
99095W        W65878  16.028  32.112   0.388
99096W        W65879  41.019  43.416   4.830
99097W        W65880   8.829  16.319   2.842
99098W        W65881   5.587  28.564   4.735
99099W        W65882  16.825  43.652  11.027
99100W        W65883  18.113   7.814   4.565
99101W        W65884  32.816  22.064  14.229
99102W        W65885   6.633  28.172   0.659
99103W        W65886  11.434  27.136  14.037
99104W        W65887   9.735  13.477  10.775
99105W        W65888  12.504  11.721   9.625
99106W        W65889  12.986  26.400  11.433
99107W        W65890  12.035  15.127   3.245
99108W        W65891  19.978  20.323  11.206
99109W        W65892  32.173  40.462   3.329
99110W        W65893  19.364  16.880  11.015
99111W        W65894   1.877  19.436   0.897
99112W        W65895  27.436  35.987  14.868
99113W        W65896  39.867  14.389  11.660
99114W        W65897   9.190  17.637  12.579
99115W        W65898  27.122  44.488   1.909
99116W        W65899  38.339  10.719   3.243
99117W        W65900  36.696  36.438   4.564
99118W        W65901  22.611  27.857  14.894
99119W        W65902  41.807  25.650  10.271
99120W        W65903  29.797  41.346  13.897
99121W        W65904  30.671  42.023  14.413
99122W        W65905  17.121  24.793   0.229
99123W        W65906  17.489  12.063   3.188
99124W        W65907  35.134  34.350   3.363
99125W        W65908   3.800  40.383  10.629
99126W        W65909  29.155  31.033   4.648
99127W        W65910  30.832  11.118  14.951
99128W        W65911  11.711  31.147   3.831
99129W        W65912  26.217  13.841   3.711
99130W        W65913  13.624  29.904  11.409
99131W        W65914   0.876  30.402   3.389
99132W        W65915  37.486  13.193  12.933
99133W        W65916  19.201  16.339   0.890
99134W        W65917  23.151  23.474   2.669
99135W        W65918  27.016  29.995  14.604
99136W        W65919  20.600  40.853  14.267
99137W        W65920   5.175   6.671  11.961
99138W        W65921  34.315  15.696  13.448
99139W        W65922  16.415  19.734   5.038
99140W        W65923  16.151  31.515  14.038
99141W        W65924  24.696  38.867  14.848
99142W        W65925   1.276   0.996  14.417
99143W        W65926   2.195  10.932  11.684
99144W        W65927  39.396  30.842  13.612
99145W        W65928  39.962  33.910   1.984
99146W        W65929  40.322  44.922  14.286
99147W        W65930  42.472  29.728  14.948
99148W        W65931   7.968   3.874   4.039
99149W        W65932  37.188  19.062  10.786
99150W        W65933  22.563  28.983   3.590
99151W        W65934  20.674   2.755   1.517
99152W        W65935  23.061  15.700  11.041
99153W        W65936  29.715   9.690  13.934
99154W        W65937  13.204  19.084  14.439
99155W        W65938  38.782  14.267   3.728
99156W        W65939  20.264  32.912  11.684
99157W        W65940  17.585  16.013   2.655
99158W        W65941  22.804   3.403  11.586
99159W        W65942  14.590   1.783  13.468
99160W        W65943  21.407  27.661   1.280
99161W        W65944  37.373  16.303   0.320
99162W        W65945  18.015  22.248   4.516
99163W        W65946  15.558  24.701  14.987
99164W        W65947  18.292   9.179  10.707
99165W        W65948   7.502  25.233   2.312
99166W        W65949  22.264  31.957   1.414
99167W        W65950   3.363  28.138   0.915
99168W        W65951  28.946  20.848   1.344
99169W        W65952  22.720  28.494   1.666
99170W        W65953  21.216   1.434   4.211
99171W        W65954  26.707  28.539  11.632
99172W        W65955  28.681  33.178   0.902
99173W        W65956  22.717  19.075   3.106
99174W        W65957  24.471  37.385  11.683
99175W        W65958   8.993  26.593   1.755
99176W        W65959  44.000  21.601  14.220
99177W        W65960   9.335   2.407  10.447
99178W        W65961  40.419  17.693  12.839
99179W        W65962  36.554  43.973   0.709
99180W        W65963  42.459   3.005   1.227
99181W        W65964  44.508  22.613  12.315
99182W        W65965  12.574  31.612   5.025
99183W        W65966   9.292  19.529   1.721
99184W        W65967  25.410  36.988  14.658
99185W        W65968  39.115  16.735  12.879
99186W        W65969  17.764  42.526  14.246
99187W        W65970  44.411  21.030   0.794
99188W        W65971  29.573  17.008   4.894
99189W        W65972  21.998   4.710  14.889
99190W        W65973   5.398   1.381   2.793
99191W        W65974  11.596  26.067  14.546
99192W        W65975  31.400  22.591   2.914
99193W        W65976  41.866  40.612   0.528
99194W        W65977   7.358  21.448  13.907
99195W        W65978  24.481  41.862  13.337
99196W        W65979  29.716  23.156   0.771
99197W        W65980  34.985  30.543  10.403
99198W        W65981  24.132  33.196  11.228
99199W        W65982  24.155  10.561  14.900
99200W        W65983  28.914  40.850  13.701
99201W        W65984  11.617  43.947  10.412
99202W        W65985   2.487  37.299   2.314
99203W        W65986  13.810  14.327   1.275
99204W        W65987  21.619  13.814   9.776
99205W        W65988  23.192   6.886   0.547
99206W        W65989  29.831  25.315  11.271
99207W        W65990   6.734  37.818  12.121
99208W        W65991  14.150  11.244   3.649
99209W        W65992  26.970  16.281  11.242
99210W        W65993   4.911  26.969  12.976
99211W        W65994  22.498   9.419   3.734
99212W        W65995  32.471  43.266   0.480
99213W        W65996  17.052  43.953  10.412
99214W        W65997  20.469  22.638   1.261
99215W        W65998  14.701  25.479   2.971
99216W        W65999  24.463  28.497  13.466
99217W        W66000  16.592   9.104  11.273
99218W        W66001  30.901   8.123  12.846
99219W        W66002   0.352  42.054   1.760
99220W        W66003  20.945   8.129   2.824
99221W        W66004  37.986   6.009  13.277
99222W        W66005  42.270  35.975   2.962
99223W        W66006   6.989  18.783  10.997
99224W        W66007  40.587  41.623   4.619
99225W        W66008  15.607   2.356   0.739
99226W        W66009  20.634  34.853   0.412
99227W        W66010  19.587   6.806  13.609
99228W        W66011  35.129  25.482   2.946
99229W        W66012   1.179   0.262   0.497
99230W        W66013  15.713  20.256   4.591
99231W        W66014   2.417  37.759   3.761
99232W        W66015  24.463  19.366  11.982
99233W        W66016   1.422   3.109  11.912
99234W        W66017  28.152   5.411  12.509
99235W        W66018  13.332  23.967  13.784
99236W        W66019  26.243  25.962   0.332
99237W        W66020  31.052  33.764  14.309
99238W        W66021  19.135  43.445   0.702
99239W        W66022  28.953  16.768   4.983
99240W        W66023  29.184  27.153   2.263
99241W        W66024  39.449  31.725  13.128
99242W        W66025  26.557  41.461   4.269
99243W        W66026  25.397  38.287   2.385
99244W        W66027   3.720  28.206   0.500
99245W        W66028   9.098   7.272  14.463
99246W        W66029   0.909  11.376   2.742
99247W        W66030   5.172  17.968  11.754
99248W        W66031  38.204  17.768   0.310
99249W        W66032   7.492  30.661  12.417
99250W        W66033  23.676  10.766  10.704
99251W        W66034  32.435   1.549  12.922
99252W        W66035  38.895  18.085  13.375
99253W        W66036  41.493  31.326  10.636
99254W        W66037  31.940  28.920  14.844
99255W        W66038  11.598  38.532   5.470
99256W        W66039  34.497  15.127  10.514
99257W        W66040  33.997  25.483  14.325
99258W        W66041  15.116  40.490   2.773
99259W        W66042  13.105  23.558   1.958
99260W        W66043  14.762  23.465   1.296
99261W        W66044  36.490  13.544   3.855
99262W        W66045  42.050  12.734  13.757
99263W        W66046  35.572  35.391   1.396
99264W        W66047   6.540  29.493  13.946
99265W        W66048   9.627  20.507   2.247
99266W        W66049  24.371   1.287  13.549
99267W        W66050  17.763  30.367  13.852
99268W        W66051   6.202   7.747  13.383
99269W        W66052  14.594  25.976   2.881
99270W        W66053   9.746  11.921  10.631
99271W        W66054  14.637  29.403   0.794
99272W        W66055  23.578   5.129  14.871
99273W        W66056   4.188  28.131   0.283
99274W        W66057   6.112  40.540   4.221
99275W        W66058  13.624  11.190   3.708
99276W        W66059   3.828  17.194  11.289
99277W        W66060  11.105   7.407   3.394
99278W        W66061  24.991   5.769  13.462
99279W        W66062  16.827  15.105  13.029
99280W        W66063  25.482  11.759   4.987
99281W        W66064  34.578  26.393   2.147
99282W        W66065  17.515  25.159   4.405
99283W        W66066   2.314   3.233   2.254
99284W        W66067  28.470  32.467   3.588
99285W        W66068  22.956   1.351   0.755
99286W        W66069   8.493  21.774  12.791
99287W        W66070  32.788   1.547  13.863
99288W        W66071  27.475  33.488  11.386
99289W        W66072  42.128  44.957   3.317
99290W        W66073  38.083   5.427  11.164
99291W        W66074  11.795  33.510   3.436
99292W        W66075   2.522   6.102  10.234
99293W        W66076  15.709  16.808   1.392
99294W        W66077  14.783  28.411  10.804
99295W        W66078  41.751   2.506  12.222
99296W        W66079  31.418  31.827  12.521
99297W        W66080   1.042  41.386  11.229
99298W        W66081   4.693  29.080   2.349
99299W        W66082   0.188  37.149   1.762
99300W        W66083  37.565   4.935   4.104
99301W        W66084  24.967  43.758  11.957
99302W        W66085  25.252  37.550   0.285
99303W        W66086  40.610  24.510  13.480
99304W        W66087  30.374  37.740  14.867
99305W        W66088   3.299   8.445   1.135
99306W        W66089  40.373   9.711   0.315
99307W        W66090   2.859  34.056  10.727
99308W        W66091  16.986  27.262  11.127
99309W        W66092  10.429  19.832  10.726
99310W        W66093  25.205   7.379  12.433
99311W        W66094  18.207   0.375  13.629
99312W        W66095   5.798  24.496   0.158
99313W        W66096   7.795  34.144   2.838
99314W        W66097  35.559   2.284   2.814
99315W        W66098  39.535   0.475   1.657
99316W        W66099  24.687   9.384  12.691
99317W        W66100  18.145   4.986   2.673
99318W        W66101  12.015   1.227   4.525
99319W        W66102  23.226  32.235   4.532
99320W        W66103  22.463   2.762   3.075
99321W        W66104   1.345  36.207  10.754
99322W        W66105   4.878  21.061  12.377
99323W        W66106  40.486   0.652  13.760
99324W        W66107  15.269   2.796   4.468
99325W        W66108  35.182  25.630   0.833
99326W        W66109   1.979  19.920  13.059
99327W        W66110  26.183   2.290   1.615
99328W        W66111   3.361  44.468   3.793
99329W        W66112  26.794  13.201  10.827
99330W        W66113  11.082  18.331  11.072
99331W        W66114  19.769  10.577   0.909
99332W        W66115  22.867  32.055  14.575
99333W        W66116  26.510   1.789   1.013
99334W        W66117  41.417  36.400  12.661
99335W        W66118  32.716  38.831  11.502
99336W        W66119   1.213  23.181   1.457
99337W        W66120  15.866  33.471  14.044
99338W        W66121  18.665  21.577  14.632
99339W        W66122   5.487  30.515   1.933
99340W        W66123  32.483  22.508   0.093
99341W        W66124  38.067  25.663   2.317
99342W        W66125  35.070   9.619  12.069
99343W        W66126  36.708  18.234   4.927
99344W        W66127   9.204  21.214  12.417
99345W        W66128  13.593  24.058   2.225
99346W        W66129   4.309   6.597  14.371
99347W        W66130  17.829  24.549  14.697
99348W        W66131  23.953  30.215   2.435
99349W        W66132  31.926   6.702  10.359
99350W        W66133  38.837  24.696  11.678
99351W        W66134  19.824  32.986  13.621
99352W        W66135  10.669  19.553   1.426
99353W        W66136  33.885  16.882   3.593
99354W        W66137  28.129  32.769  11.504
99355W        W66138   7.733  15.808  12.949
99356W        W66139   9.823  37.402  13.978
99357W        W66140  42.350  12.867  11.858
99358W        W66141  23.860   4.124  14.765
99359W        W66142  34.656   5.056  11.995
99360W        W66143  39.798  20.158   0.952
99361W        W66144  37.803  10.974  11.488
99362W        W66145   5.974  22.891  11.261
99363W        W66146  38.238  39.305   4.063
99364W        W66147  36.554  22.934   2.207
99365W        W66148  24.065  32.367  12.509
99366W        W66149  19.596  40.177   4.027
99367W        W66150  18.582  13.683  14.162
99368W        W66151  37.987  17.117  13.592
99369W        W66152  42.712  39.202  11.034
99370W        W66153  37.438   2.271   4.054
99371W        W66154  34.098  16.093  14.590
99372W        W66155  16.623  28.637   3.728
99373W        W66156  41.436  15.361   4.412
99374W        W66157  34.275   2.752  11.152
99375W        W66158  21.195  34.551  14.366
99376W        W66159  29.988  35.958   3.731
99377W        W66160  42.019  13.358   2.668
99378W        W66161  12.249   9.704  12.975
99379W        W66162  40.429  22.736   0.878
99380W        W66163  17.940  37.951   5.510
99381W        W66164  28.383  20.685  13.541
99382W        W66165  32.090  15.092   1.855
99383W        W66166  24.806  33.065   1.807
99384W        W66167  15.669   0.931  13.006
99385W        W66168  10.320  14.084   0.747
99386W        W66169  28.990  24.283  12.052
99387W        W66170  30.254   5.192   1.746
99388W        W66171  11.847  21.755  14.923
99389W        W66172   7.314  34.329  14.857
99390W        W66173  43.889  23.552  12.123
99391W        W66174  12.110   2.993   2.204
99392W        W66175   3.215  23.416   2.368
99393W        W66176   4.768  15.821   2.685
99394W        W66177  38.770   8.941   1.923
99395W        W66178  36.172  24.030   2.796
99396W        W66179  14.618   5.807   4.138
99397W        W66180   8.149  17.022  14.495
99398W        W66181   3.227  32.178   0.326
99399W        W66182  39.776  44.680   0.508
99400W        W66183  15.384  15.501  12.402
99401W        W66184  12.178  41.064   3.189
99402W        W66185   5.977  33.922  12.354
99403W        W66186  17.020  16.674   1.797
99404W        W66187  40.425  34.358  14.499
99405W        W66188   5.368  27.431   0.495
99406W        W66189  18.608  36.612  13.896
99407W        W66190  35.148  18.097  10.688
99408W        W66191  30.434  32.893   2.345
99409W        W66192  23.201  43.905   3.279
99410W        W66193  23.592  44.193   1.876
99411W        W66194  14.355  37.317  11.192
99412W        W66195   9.393  24.705   3.921
99413W        W66196  23.421  17.855  13.489
99414W        W66197  38.591  10.770   1.515
99415W        W66198  24.453  20.666  14.059
99416W        W66199  43.915  18.748  11.580
99417W        W66200   0.041  38.254   3.577
99418W        W66201  38.183   8.767  11.316
99419W        W66202  27.446  19.815  11.572
99420W        W66203  36.436  28.330   1.429
99421W        W66204  33.034   1.844  13.088
99422W        W66205  24.373  26.665  13.150
99423W        W66206  17.651  25.464  12.462
99424W        W66207  23.488  28.889   4.625
99425W        W66208  31.019  39.893  11.540
99426W        W66209  29.709  14.145  11.992
99427W        W66210  28.693  19.487   3.186
99428W        W66211  22.289   8.671   3.248
99429W        W66212  27.608  25.671   2.872
99430W        W66213  13.317   1.521  11.135
99431W        W66214   4.758  17.425   4.088
99432W        W66215  32.470  26.036   4.090
99433W        W66216   7.053  15.255   4.409
99434W        W66217  30.069  43.519   1.678
99435W        W66218  15.822   2.760  14.253
99436W        W66219  40.990  16.832   0.953
99437W        W66220  31.056  19.703  14.346
99438W        W66221   5.877  38.570  13.292
99439W        W66222  25.975  24.220  12.825
99440W        W66223   0.937  39.995  11.882
99441W        W66224  28.387  16.712  14.732
99442W        W66225  38.102   4.431   4.123
99443W        W66226  26.182   1.730   3.174
99444W        W66227   1.433   6.947  10.927
99445W        W66228  15.630  15.730  13.706
99446W        W66229  41.856  42.767   0.224
99447W        W66230  36.562  41.989  10.919
99448W        W66231  33.089  16.143  14.832
99449W        W66232  22.018  24.660  14.488
99450W        W66233  11.309  35.120  11.448
99451W        W66234  32.624  24.472  13.014
99452W        W66235  35.955  28.754  11.647
99453W        W66236  16.103   4.351  10.716
99454W        W66237  23.959  29.691   2.375
99455W        W66238  17.641  35.348  12.756
99456W        W66239   4.664  14.565   0.412
99457W        W66240   6.944  12.239  11.128
99458W        W66241   8.242  14.094   0.451
99459W        W66242  13.163  44.886  14.555
99460W        W66243  20.562   2.258  14.837
99461W        W66244   7.706  39.098  12.546
99462W        W66245  18.023   6.610  11.593
99463W        W66246   7.562  36.443  11.111
99464W        W66247   0.628  39.229   0.978
99465W        W66248  30.420  26.119  12.877
99466W        W66249   5.642  36.050  10.309
99467W        W66250  28.433  44.332   0.300
99468W        W66251   7.774   3.791   3.549
99469W        W66252  29.997  16.850  14.934
99470W        W66253  25.987   4.692  13.000
99471W        W66254   1.563  19.573  14.489
99472W        W66255  34.535  17.118   0.480
99473W        W66256  17.357  34.103   1.422
99474W        W66257   4.478  14.217  11.275
99475W        W66258  15.108  34.469   2.261
99476W        W66259   3.249  29.411   2.119
99477W        W66260  18.096   1.900   3.332
99478W        W66261  29.987   3.954   3.562
99479W        W66262  31.991  19.241   2.736
99480W        W66263   8.252  31.107  14.511
99481W        W66264   4.398  12.211   0.851
99482W        W66265  34.420  33.722  14.407
99483W        W66266   9.781  20.121   1.337
99484W        W66267  43.940  13.554   1.543
99485W        W66268  11.809  11.595  11.934
99486W        W66269  20.507  33.870   2.108
99487W        W66270  12.671  36.115   1.897
99488W        W66271  11.709  26.337   5.085
99489W        W66272  12.059  38.041  12.343
99490W        W66273  14.199  18.153   1.775
99491W        W66274  27.620  21.556  13.992
99492W        W66275  11.863  22.950   3.249
99493W        W66276  30.787  24.560   0.260
99494W        W66277  18.181  20.572  10.643
99495W        W66278   7.589  44.191  11.506
99496W        W66279  29.766   0.947  14.106
99497W        W66280  29.103   0.309   1.784
99498W        W66281  21.889   1.382  12.908
99499W        W66282   0.647  25.998  14.098
99500W        W66283  43.545   7.002  11.602
99501W        W66284   5.403  44.900  11.942
99502W        W66285  41.497  28.952  11.659
99503W        W66286  24.111   5.173   3.554
99504W        W66287  37.355   1.526  12.585
99505W        W66288  35.346  40.520   0.938
99506W        W66289  36.833  42.036  12.138
99507W        W66290  28.024  32.118   1.412
99508W        W66291  18.684  35.075   1.269
99509W        W66292  19.579  43.724   0.814
99510W        W66293  10.944  23.431   4.693
99511W        W66294  37.704  15.789   4.249
99512W        W66295  15.886  18.837  13.945
99513W        W66296  12.997   6.444  13.937
99514W        W66297  20.089  10.935  13.100
99515W        W66298  21.403  39.084  12.442
99516W        W66299  42.610  40.405  13.633
99517W        W66300   6.992   8.693   4.194
99518W        W66301   5.443  42.704  14.653
99519W        W66302   9.587   5.882   0.521
99520W        W66303   9.373  11.804  14.858
99521W        W66304  21.628  23.255  13.107
99522W        W66305   1.552   7.751  13.162
99523W        W66306  43.548  39.291   0.257
99524W        W66307  38.855  14.359  14.395
99525W        W66308  11.041  42.586   5.145
99526W        W66309  13.641  14.236  11.195
99527W        W66310  33.088  14.165   1.535
99528W        W66311  29.503  41.233   0.183
99529W        W66312  36.049  25.192   1.836
99530W        W66313  24.567  25.777  13.156
99531W        W66314  38.503  42.078  10.719
99532W        W66315   5.953   6.665  13.883
99533W        W66316  37.265  12.182  13.065
99534W        W66317  17.343  30.115   4.950
99535W        W66318  28.864   5.136  11.981
99536W        W66319   8.224  24.488   0.389
99537W        W66320  34.539  37.536   2.675
99538W        W66321  34.295   0.654  11.194
99539W        W66322  23.945   7.148  12.598
99540W        W66323  20.629  11.345  11.512
99541W        W66324  21.303  22.933   3.885
99542W        W66325   8.952   2.360  12.736
99543W        W66326  16.550  37.034   2.210
99544W        W66327  42.860  33.910  13.493
99545W        W66328  11.572  43.413  10.109
99546W        W66329  38.083  29.663   0.349
99547W        W66330  29.867  21.664  10.330
99548W        W66331  41.841  36.134   4.546
99549W        W66332  18.261  10.482   3.556
99550W        W66333  14.742   5.801   1.783
99551W        W66334  31.439  36.856  14.587
99552W        W66335  12.293  25.028  11.994
99553W        W66336  43.148  43.517  11.037
99554W        W66337  24.114  35.043   0.691
99555W        W66338  40.232  43.357  11.261
99556W        W66339  24.432  18.193   2.875
99557W        W66340  29.493  15.327   3.840
99558W        W66341  39.830  18.979   2.759
99559W        W66342  20.818  13.292   4.125
99560W        W66343  26.730  16.154   2.848
99561W        W66344  42.934  36.941  12.391
99562W        W66345  21.155  33.003  10.638
99563W        W66346   4.627  11.957  11.663
99564W        W66347  14.232   7.490  13.075
99565W        W66348   2.784  29.581   3.260
99566W        W66349  17.520  44.195   3.179
99567W        W66350  32.223  12.724   3.181
99568W        W66351  39.122  17.302   0.422
99569W        W66352  43.475  13.129  12.988
99570W        W66353  37.445  10.194  13.745
99571W        W66354  37.906   5.920   2.381
99572W        W66355  44.235   0.884   1.309
99573W        W66356  33.036   6.433  14.774
99574W        W66357  11.597   9.433   1.667
99575W        W66358   0.773   1.359  10.386
99576W        W66359  36.148  44.516  14.054
99577W        W66360  33.383  24.595   0.255
99578W        W66361  29.387  20.227  12.605
99579W        W66362  24.428   1.019  11.119
99580W        W66363  39.960   2.195  12.822
99581W        W66364  23.730  40.387  11.994
99582W        W66365  25.001  27.914   4.156
99583W        W66366  12.778  35.086  12.911
99584W        W66367  38.742  43.158   3.738
99585W        W66368  13.883   5.269   3.173
99586W        W66369  20.683  13.320  14.950
99587W        W66370  10.916  26.983   4.158
99588W        W66371   5.840  21.403  12.405
99589W        W66372  25.242  44.751  10.948
99590W        W66373  35.873  24.065  12.569
99591W        W66374  19.546  39.461  11.940
99592W        W66375  32.006   9.308  12.249
99593W        W66376   3.863  23.622   4.739
99594W        W66377  20.290  16.778  14.875
99595W        W66378  42.237  22.153  12.541
99596W        W66379   4.651  10.818  14.469
99597W        W66380   0.250  33.564   1.913
99598W        W66381  33.342   1.394  10.417
99599W        W66382   0.071  22.035  12.525
99600W        W66383  39.369  44.229  10.693
99601W        W66384  26.985  29.607   0.434
99602W        W66385  13.500   1.936   1.644
99603W        W66386  37.917   7.904  12.081
99604W        W66387  37.424  37.125  10.510
99605W        W66388  15.692  40.232   3.014
99606W        W66389   1.469  13.797  10.739
99607W        W66390  44.120  35.072  14.557
99608W        W66391  21.335   6.250  10.452
99609W        W66392  22.873  35.346  14.937
99610W        W66393  20.773  24.207   3.733
99611W        W66394   0.258  11.175   3.798
99612W        W66395  42.826  42.308   0.398
99613W        W66396   4.167  41.619  10.473
99614W        W66397  17.615  22.598   0.968
99615W        W66398  21.609  40.350  14.546
99616W        W66399  40.152  22.703  14.483
99617W        W66400  23.712  30.745  11.972
99618W        W66401   8.586  43.531  12.620
99619W        W66402  44.772   8.705   2.136
99620W        W66403  25.728  33.139  13.294
99621W        W66404  26.219  22.236  12.384
99622W        W66405  36.362  24.096   0.409
99623W        W66406   5.343   6.464   1.890
99624W        W66407   2.491   3.474   3.209
99625W        W66408  29.348  32.420  11.341
99626W        W66409   6.407  21.614   3.521
99627W        W66410  17.100  41.782  14.304
99628W        W66411  25.604   5.747   4.561
99629W        W66412  38.282  16.698  13.282
99630W        W66413  20.138  35.613   0.398
99631W        W66414   1.440   3.255   3.283
99632W        W66415  37.499   2.319   1.135
99633W        W66416  39.022  42.987   2.122
99634W        W66417  17.771  29.469   0.467
99635W        W66418  13.573   4.019  11.065
99636W        W66419  42.284  42.182  14.104
99637W        W66420   3.460  41.036   1.434
99638W        W66421  24.326   5.424  14.799
99639W        W66422   8.207  29.322   1.508
99640W        W66423  42.473   7.048   0.358
99641W        W66424  11.588  35.498   3.042
99642W        W66425  38.900  36.320  10.628
99643W        W66426   5.795  17.810   2.284
99644W        W66427   1.170  35.091   4.775
99645W        W66428  35.607   5.717  12.422
99646W        W66429  17.138  40.034  14.031
99647W        W66430  28.013   5.328  14.111
99648W        W66431   8.405  36.584   2.630
99649W        W66432  40.078  37.484  11.635
99650W        W66433  10.938   5.182   3.549
99651W        W66434  44.273   7.979  13.529
99652W        W66435  18.379   7.814   2.865
99653W        W66436  24.487   9.740  13.613
99654W        W66437  22.716  34.855   2.790
99655W        W66438   7.555  14.268   5.131
99656W        W66439  14.730   1.221   0.271
99657W        W66440   3.255  42.566   3.879
99658W        W66441   8.797  15.373  11.962
99659W        W66442   2.915  32.159  10.722
99660W        W66443   3.717   0.808   4.278
99661W        W66444  17.206  11.531  11.004
99662W        W66445   4.930   6.785  11.004
99663W        W66446   2.418  13.857   1.755
99664W        W66447  43.571  12.868   4.195
99665W        W66448  39.543  26.908   0.919
99666W        W66449  10.751  18.123  11.866
99667W        W66450  22.994  13.826   3.301
99668W        W66451  39.350  44.281  12.475
99669W        W66452   9.996  16.910  14.458
99670W        W66453  35.122   6.772   0.423
99671W        W66454   7.704  41.751  14.224
99672W        W66455  31.424   1.697   2.885
99673W        W66456  25.290   7.296   4.743
99674W        W66457  43.478  37.386  13.060
99675W        W66458  23.474  15.209  12.535
99676W        W66459  14.901  41.446  12.954
99677W        W66460  28.148  43.576  14.825
99678W        W66461  44.709  38.477  10.615
99679W        W66462  37.504  24.432  11.444
99680W        W66463   0.143   9.301  12.713
99681W        W66464   8.069  19.135  14.181
99682W        W66465  42.366   5.275   5.415
99683W        W66466   4.650  28.418   2.691
99684W        W66467  33.114  31.767  13.840
99685W        W66468  28.882   5.835   4.160
99686W        W66469   4.429  16.555  10.429
99687W        W66470  35.914  29.695  12.483
99688W        W66471   6.024  39.099   2.801
99689W        W66472  35.675  32.160  10.770
99690W        W66473  38.354   5.257  11.555
99691W        W66474  31.105  16.056  13.580
99692W        W66475   7.231   1.221   4.427
99693W        W66476  20.922  37.834   3.600
99694W        W66477  32.822  23.639   2.360
99695W        W66478  25.898  25.014   1.634
99696W        W66479  28.558  23.764  12.403
99697W        W66480   3.814   7.216  14.024
99698W        W66481  28.697  18.519   3.169
99699W        W66482  39.805   8.247   3.307
99700W        W66483  28.392  12.701   3.131
99701W        W66484  10.358  32.826  14.133
99702W        W66485  23.205  40.550  12.673
99703W        W66486  21.066   0.839  12.990
99704W        W66487  38.943  32.364   4.233
99705W        W66488  17.169  30.450  10.135
99706W        W66489   9.052  34.314  14.019
99707W        W66490  19.402  32.614   4.895
99708W        W66491  17.087  31.929   2.304
99709W        W66492  21.063  24.014   2.901
99710W        W66493  16.101  25.147  10.659
99711W        W66494  20.190  20.725   0.508
99712W        W66495  10.768  10.873  14.969
99713W        W66496  41.529  32.123   1.757
99714W        W66497  12.388  23.269   4.104
99715W        W66498  16.063   2.331  13.745
99716W        W66499  42.385  23.949  10.969
99717W        W66500  13.208  23.211  14.687
99718W        W66501  40.481  44.271   3.730
99719W        W66502  42.845  10.708  11.695
99720W        W66503   3.823  22.279  11.548
99721W        W66504  14.872  28.977  13.426
99722W        W66505  16.614   5.984   1.467
99723W        W66506  16.477  33.401   2.069
99724W        W66507  20.076  28.614  10.700
99725W        W66508  44.469  33.311   0.911
99726W        W66509   4.858  25.097  13.169
99727W        W66510  23.504  19.096  12.957
99728W        W66511  27.036   7.751  12.505
99729W        W66512  28.803  36.326  14.850
99730W        W66513  43.432  10.036   2.794
99731W        W66514   4.125   3.784  12.892
99732W        W66515   3.694  28.223   3.520
99733W        W66516   6.095  30.141  10.289
99734W        W66517  33.574  32.226   0.347
99735W        W66518  10.550  40.983   2.087
99736W        W66519   0.831   1.519   2.318
99737W        W66520   2.852  30.656  14.809
99738W        W66521  44.461  33.829  13.354
99739W        W66522  30.129  21.673   3.695
99740W        W66523  36.368  23.611   0.262
99741W        W66524   5.586  27.109   1.947
99742W        W66525  42.343  44.197  12.048
99743W        W66526   3.052  44.480   0.305
99744W        W66527   0.240  25.857   2.895
99745W        W66528   6.260  26.722  10.994
99746W        W66529  29.966  35.301  11.252
99747W        W66530  31.051  40.594   1.363
99748W        W66531   8.295  37.627   1.342
99749W        W66532  22.362  26.248  12.046
99750W        W66533  14.908  42.114  12.480
99751W        W66534  35.181  16.139   1.159
99752W        W66535  14.689  35.575   3.329
99753W        W66536  36.642  12.649   1.031
99754W        W66537  42.460  38.600  14.821
99755W        W66538  33.034  18.917  11.167
99756W        W66539   0.068  44.895   1.526
99757W        W66540  25.244   2.014   4.618
99758W        W66541  43.348   5.447   1.396
99759W        W66542  10.342   1.324  10.710
99760W        W66543  38.123  20.550  14.983
99761W        W66544  40.190  23.503  14.403
99762W        W66545  43.325  17.076   1.156
99763W        W66546  27.483   4.331   1.178
99764W        W66547  42.629  30.108   3.649
99765W        W66548  16.270  26.563   4.064
99766W        W66549   1.770  11.632  11.658
99767W        W66550  28.193  35.825   0.372
99768W        W66551   8.868  12.801   3.865
99769W        W66552  36.273  42.323   1.296
99770W        W66553  14.436  20.948   5.083
99771W        W66554   5.889  43.782   1.825
99772W        W66555  10.305   3.292  12.395
99773W        W66556  36.562   9.302   2.819
99774W        W66557   5.873  24.114  12.866
99775W        W66558  10.575  38.066  12.893
99776W        W66559  37.084  18.696   0.538
99777W        W66560  27.171   5.230   1.186
99778W        W66561  24.102   4.321  13.410
99779W        W66562   2.388   6.497  13.934
99780W        W66563  43.889   5.214  13.903
99781W        W66564  43.986  40.811   2.763
99782W        W66565  43.957  34.821  10.545
99783W        W66566   9.358  25.143  11.105
99784W        W66567   9.563   3.174  12.981
99785W        W66568  11.938  10.071  12.103
99786W        W66569   4.971  10.674  11.207
99787W        W66570  30.473  18.813  11.444
99788W        W66571  43.061  18.030  10.832
99789W        W66572  19.704  44.225   2.982
99790W        W66573  24.964   7.380   0.446
99791W        W66574  38.873  18.775   0.212
99792W        W66575   4.730  25.919   1.972
99793W        W66576  37.307  37.908   4.432
99794W        W66577  30.438  29.674  11.711
99795W        W66578  20.463   5.875  13.821
99796W        W66579  27.989  33.141  10.723
99797W        W66580  38.305  35.087   2.754
99798W        W66581  19.259  27.498   4.939
99799W        W66582  12.809  19.900  11.460
99800W        W66583   5.977   4.090  12.019
99801W        W66584  14.141  27.020   4.717
99802W        W66585  29.194  22.163   1.704
99803W        W66586   6.740   1.077  12.681
99804W        W66587   3.804  29.302   1.339
99805W        W66588  40.919   7.613  12.404
99806W        W66589  38.601   4.215  13.726
99807W        W66590  23.035  39.053  11.687
99808W        W66591  25.263  17.755  10.704
99809W        W66592  15.582   2.563  13.823
99810W        W66593  41.750  42.810   3.703
99811W        W66594  34.459  25.407   1.890
99812W        W66595  40.404  12.245  12.472
99813W        W66596  33.608  15.358   0.786
99814W        W66597   4.143   7.245  11.144
99815W        W66598  40.897  14.265   3.518
99816W        W66599  24.228  43.962  12.507
99817W        W66600  29.903  35.685  10.918
99818W        W66601  36.649  40.412  12.910
99819W        W66602   9.187  27.985  14.472
99820W        W66603  29.741  10.902  12.059
99821W        W66604  23.234  34.924   3.630
99822W        W66605  27.077  43.858  14.326
99823W        W66606  11.452   6.475   2.443
99824W        W66607   0.997  42.364  12.840
99825W        W66608  12.964  23.430   4.151
99826W        W66609  30.932  34.129  12.948
99827W        W66610  36.584  24.000   4.217
99828W        W66611  22.746   2.688  12.166
99829W        W66612  30.856  17.047   2.158
99830W        W66613  12.093  35.579   3.113
99831W        W66614  18.837  28.003   1.837
99832W        W66615   4.413  42.594   0.395
99833W        W66616  25.175  28.134   4.761
99834W        W66617  18.407   3.044  10.694
99835W        W66618  44.737  20.177   3.306
99836W        W66619  35.383  40.515   2.307
99837W        W66620   5.302   8.816  10.421
99838W        W66621  27.662  17.240   1.257
99839W        W66622   5.720   3.470  12.480
99840W        W66623  32.225   0.037  12.102
99841W        W66624  15.314  40.853   4.766
99842W        W66625  27.505   8.613  13.191
99843W        W66626   2.686   7.610  13.970
99844W        W66627  33.570  16.492   2.341
99845W        W66628   0.939  33.922  14.395
99846W        W66629  30.851  43.203  11.357
99847W        W66630  12.975  12.057   1.834
99848W        W66631  40.489  17.676  11.490
99849W        W66632  28.687  23.153  12.914
99850W        W66633   3.950  27.202   0.729
99851W        W66634  18.582  21.557   0.626
99852W        W66635  32.148   8.176   2.696
99853W        W66636  10.907  34.674   2.209
99854W        W66637  23.936   6.652   0.807
99855W        W66638   9.144   2.297   3.615
99856W        W66639  20.301   9.618   3.443
99857W        W66640  14.285  37.866  14.552
99858W        W66641   5.497   1.715  14.464
99859W        W66642  19.670  41.281   3.193
99860W        W66643  11.855  26.472  14.777
99861W        W66644   8.796  20.340  14.417
99862W        W66645   7.899   3.452  12.361
99863W        W66646  25.618  22.565   5.013
99864W        W66647   3.895   1.803  11.627
99865W        W66648  32.372   4.771  13.386
99866W        W66649   8.387   7.342   3.279
99867W        W66650  11.289  30.889   4.039
99868W        W66651  39.015  22.508   2.447
99869W        W66652  20.780  16.184   4.983
99870W        W66653  10.397   0.458  13.036
99871W        W66654   8.519  35.609  13.230
99872W        W66655  34.810  27.323   1.721
99873W        W66656   8.246  18.326  13.700
99874W        W66657  42.342  24.421   1.354
99875W        W66658  28.290  26.025  11.897
99876W        W66659   4.444  44.766   3.103
99877W        W66660  24.071  31.064   0.489
99878W        W66661  39.072  39.171  13.979
99879W        W66662  12.391  34.663  11.196
99880W        W66663  33.998  16.561   0.845
99881W        W66664  10.870  42.622   3.647
99882W        W66665  43.098  14.817   3.249
99883W        W66666  12.297  21.775  10.619
99884W        W66667  43.341  14.181   1.060
99885W        W66668  18.148  13.483  12.983
99886W        W66669  32.979  10.243   4.107
99887W        W66670   6.266  39.801   1.777
99888W        W66671   4.729  11.868   4.110
99889W        W66672  41.322  44.879   3.827
99890W        W66673   4.880  41.960  13.534
99891W        W66674  27.478  39.132   2.702
99892W        W66675  40.843  12.161   1.193
99893W        W66676  40.474   7.301  13.965
99894W        W66677   4.381   1.513   4.879
99895W        W66678  42.085  34.532   2.449
99896W        W66679  29.448  18.447  14.121
99897W        W66680  38.503  22.284  13.438
99898W        W66681  20.207  17.349  13.897
99899W        W66682  29.214  23.978   1.633
99900W        W66683  40.241   1.408   2.849
99901W        W66684   9.728   7.311  11.931
99902W        W66685  27.579  25.041  14.039
99903W        W66686  33.620  34.517   1.856
99904W        W66687  11.114   6.848   2.674
99905W        W66688  44.753  27.184  11.288
99906W        W66689  44.310  27.963   1.859
99907W        W66690  43.790  21.869   1.536
99908W        W66691  41.300  31.221  14.475
99909W        W66692   4.556  10.826  10.914
99910W        W66693  27.027  28.659  14.744
99911W        W66694   4.000   9.762  10.779
99912W        W66695  26.566   8.354  11.924
99913W        W66696  43.314  11.771  14.786
99914W        W66697  37.056  30.730   1.375
99915W        W66698  34.365  30.140   3.207
99916W        W66699  36.018   4.259   3.382
99917W        W66700   1.922  16.775   1.722
99918W        W66701  16.563  39.015   4.113
99919W        W66702  33.513  31.888   3.721
99920W        W66703   6.588  16.700  12.359
99921W        W66704  24.668  11.764  11.866
99922W        W66705  27.672  23.332   4.846
99923W        W66706  36.111  32.994  12.543
99924W        W66707  38.286  29.108   0.219
99925W        W66708  17.754  30.411  13.001
99926W        W66709  19.730   4.442   3.806
99927W        W66710  34.130  20.773   3.842
99928W        W66711  13.104  28.814   0.409
99929W        W66712   3.810  44.364   2.466
99930W        W66713  31.116  10.637  12.479
99931W        W66714   8.684  31.964   0.764
99932W        W66715   6.382  31.089  12.219
99933W        W66716  17.854  18.238  10.696
99934W        W66717  31.976  42.090  13.390
99935W        W66718   4.336  27.708  12.893
99936W        W66719  18.081  23.539  12.374
99937W        W66720  33.028   6.821  14.080
99938W        W66721  29.545   7.172   2.351
99939W        W66722   2.031  11.633  12.496
99940W        W66723  18.553   0.785   1.500
99941W        W66724  43.479  25.539  12.580
99942W        W66725  39.345  21.650  13.567
99943W        W66726  38.210  38.954   2.316
99944W        W66727  17.237  14.101  13.987
99945W        W66728  41.283  28.649   0.965
99946W        W66729  27.972  34.335   4.567
99947W        W66730  24.972  36.261  14.314
99948W        W66731  24.532   7.131  14.267
99949W        W66732  23.856  22.145  10.148
99950W        W66733   3.183  37.584   1.460
99951W        W66734  36.085  22.974   2.396
99952W        W66735  29.450  15.510  11.269
99953W        W66736  32.834  29.560   4.181
99954W        W66737  21.802  32.379   0.563
99955W        W66738  44.838  29.469  12.816
99956W        W66739  35.046   3.883   3.452
99957W        W66740  31.287   1.488   2.423
99958W        W66741  13.744  43.201   3.368
99959W        W66742  18.137  43.001   1.743
99960W        W66743  26.755  26.904   3.197
99961W        W66744   1.348  31.485   0.508
99962W        W66745   9.705   6.215   1.502
99963W        W66746   2.817   3.036   4.461
99964W        W66747  37.896  35.562   4.648
99965W        W66748   6.155  36.381   2.220
99966W        W66749  28.104  24.930  14.906
99967W        W66750   0.161  27.645  10.922
99968W        W66751   5.338  29.614  11.614
99969W        W66752  16.895  35.596  13.895
99970W        W66753   8.443  30.779  14.858
99971W        W66754   2.001  40.353   3.790
99972W        W66755  28.536  30.050   3.644
99973W        W66756  16.676  10.665   2.266
99974W        W66757  28.368  43.085   2.189
99975W        W66758   7.648  16.802   2.764
99976W        W66759   1.905   1.419   1.331
99977W        W66760  12.196  25.541   3.399
99978W        W66761  28.327  16.006   0.796
99979W        W66762  22.935  31.513   2.294
99980W        W66763  43.519  19.430  13.511
99981W        W66764   4.629  27.150   3.273
99982W        W66765   7.415  33.434  14.521
99983W        W66766  32.973  33.625  13.463
99984W        W66767   9.299  11.831  12.384
99985W        W66768  11.860  21.096  11.427
99986W        W66769  15.109  21.011  10.553
99987W        W66770  35.834  36.913  13.435
99988W        W66771  11.234  14.669  11.959
99989W        W66772  21.504  28.662   2.765
99990W        W66773  34.368  10.832  10.667
99991W        W66774  32.929  34.810  11.544
99992W        W66775  33.542   7.882  12.528
99993W        W66776  37.400   8.624   2.733
99994W        W66777  22.705  10.522  14.245
99995W        W66778  10.767   1.848  12.623
99996W        W66779  23.770  22.568   0.856
99997W        W66780   8.141   0.652  14.941
99998W        W66781  23.250  15.782  11.497
99999W        W66782  23.825  14.043   1.815
    0W        W66783  29.403  27.591  14.873
    1W        W66784  10.260   3.415   4.089
    2W        W66785  31.144  25.124   2.929
    3W        W66786  24.196  20.028  11.145
    4W        W66787  26.008  42.824  11.688
    5W        W66788   8.044   8.231  13.397
    6W        W66789  29.056  10.163  10.375
    7W        W66790  34.288  29.502  13.184
    8W        W66791  24.045  34.032  13.212
    9W        W66792  32.425  29.933   2.472
   10W        W66793   6.685  41.831   0.474
   11W        W66794  10.553  33.025   0.359
   12W        W66795   9.352  26.691   1.405
   13W        W66796   9.297  36.406   0.971
   14W        W66797  20.313  39.879  10.102
   15W        W66798   7.660   2.350   1.314
   16W        W66799  14.728   0.428  14.738
   17W        W66800  27.414  43.247  11.802
   18W        W66801  39.596   9.730  13.534
   19W        W66802  17.731  31.668   4.617
   20W        W66803   8.369   3.451   4.172
   21W        W66804  26.214  39.822  12.617
   22W        W66805  19.138  21.008   0.781
   23W        W66806  27.940  36.659   2.960
   24W        W66807   8.895  10.230  13.443
   25W        W66808   3.419  43.010   2.474
   26W        W66809  29.484   5.056  14.224
   27W        W66810  21.300   2.288  11.651
   28W        W66811  14.640   7.220   0.277
   29W        W66812  23.885   6.383   0.313
   30W        W66813  30.134   9.239  11.560
   31W        W66814  27.208   4.673  11.758
   32W        W66815  37.188   0.673  10.552
   33W        W66816  41.270  17.540  13.123
   34W        W66817  14.840  14.202  12.529
   35W        W66818   6.539  14.153  14.460
   36W        W66819  43.242  23.015   4.559
   37W        W66820  11.336  27.443   3.323
   38W        W66821  39.589   7.153  11.987
   39W        W66822   0.326  28.018   1.683
   40W        W66823  25.440  29.620   0.193
   41W        W66824  35.381  34.138  13.438
   42W        W66825  27.066  11.914  13.123
   43W        W66826  39.051   4.916   1.419
   44W        W66827  16.830  25.607   0.459
   45W        W66828  13.042  18.104  10.684
   46W        W66829   4.253  23.587  11.107
   47W        W66830  29.937  31.444  13.918
   48W        W66831  26.839  12.784  14.224
   49W        W66832  13.205  21.509   4.145
   50W        W66833  12.937   2.626  12.304
   51W        W66834  24.670  43.784  11.549
   52W        W66835  26.398  11.825  12.045
   53W        W66836  43.299  33.444   1.007
   54W        W66837  16.280   5.824   4.609
   55W        W66838  29.116  10.340  14.321
   56W        W66839  21.568  20.693  11.817
   57W        W66840  38.570   1.404   4.381
   58W        W66841  18.455  29.623   4.135
   59W        W66842  10.252  14.639  14.401
   60W        W66843  21.417  32.072   0.696
   61W        W66844  40.897  30.090  14.165
   62W        W66845   7.423  15.556  13.260
   63W        W66846   4.917  27.770  13.640
   64W        W66847  39.505   2.810   2.627
   65W        W66848  21.640  33.522   4.533
   66W        W66849  40.969  16.168  11.967
   67W        W66850  33.925  16.298   4.913
   68W        W66851  36.401  30.214  13.034
   69W        W66852   0.954   8.054  10.672
   70W        W66853  18.101  37.359  12.004
   71W        W66854  44.839   3.415  13.847
   72W        W66855  44.031   3.269  13.456
   73W        W66856  17.586   1.989   3.913
   74W        W66857  34.966  33.438   2.131
   75W        W66858  21.565  40.943   4.525
   76W        W66859  18.474  17.578   2.334
   77W        W66860  17.669  15.813   0.338
   78W        W66861  41.948  13.339  12.588
   79W        W66862   1.842  33.684  13.157
   80W        W66863  38.616  18.366  14.419
   81W        W66864  17.683  12.149  12.664
   82W        W66865  30.943   3.665  12.006
   83W        W66866  25.745   4.600   3.882
   84W        W66867  16.484   3.546   3.349
   85W        W66868  10.034   2.326   1.351
   86W        W66869  40.023  18.994  10.693
   87W        W66870  40.743   6.243   1.113
   88W        W66871  20.364  44.015   1.824
   89W        W66872  39.834  26.496  12.507
   90W        W66873  36.603   5.361  12.929
   91W        W66874   7.719   8.206  14.815
   92W        W66875   4.928  28.564   3.256
   93W        W66876  25.942   7.283   0.279
   94W        W66877  26.192  32.449  11.190
   95W        W66878  11.313  12.131   2.811
   96W        W66879   7.095   6.642   2.234
   97W        W66880  15.149  10.414  12.527
   98W        W66881  13.454  15.639   2.352
   99W        W66882  20.265   2.034   0.407
  100W        W66883  33.421   7.603  13.976
  101W        W66884   5.870  16.185  14.485
  102W        W66885  28.474  34.306   4.681
  103W        W66886  33.493  29.866  14.041
  104W        W66887  33.970  18.285  12.591
  105W        W66888  19.923  29.600  11.954
  106W        W66889   0.475   1.727  10.605
  107W        W66890  29.840  39.408  12.415
  108W        W66891  39.627  36.866  11.425
  109W        W66892  43.275  35.106  13.458
  110W        W66893   3.618  16.703   0.681
  111W        W66894  32.422  30.008   3.386
  112W        W66895   8.318   9.644   1.012
  113W        W66896  24.840  14.039   2.888
  114W        W66897  44.914  32.119   4.953
  115W        W66898  18.069  12.891   0.332
  116W        W66899  25.618  24.023  11.126
  117W        W66900   6.209  33.440  12.339
  118W        W66901  16.436  19.650  12.045
  119W        W66902  28.539   2.872   1.830
  120W        W66903   5.317  33.289   2.117
  121W        W66904  26.158  35.594   4.394
  122W        W66905  19.556  34.387  14.044
  123W        W66906  10.258  33.544   2.466
  124W        W66907  17.235  29.921  10.866
  125W        W66908  10.862  29.438   4.335
  126W        W66909  42.096   2.998  14.660
  127W        W66910  15.646  35.675  14.229
  128W        W66911  34.710   2.531  14.255
  129W        W66912  13.064  24.445   0.896
  130W        W66913  13.490  21.106  10.748
  131W        W66914   4.914  17.678  13.229
  132W        W66915  13.107  33.445  13.612
  133W        W66916  30.707   4.950   2.259
  134W        W66917  21.149  23.111  12.949
  135W        W66918  14.146  44.754   0.966
  136W        W66919  38.535   3.245  13.360
  137W        W66920  31.978  18.577  11.224
  138W        W66921  11.484  21.682  11.564
  139W        W66922  13.750  40.032   1.470
  140W        W66923  27.536  15.650   2.602
  141W        W66924  38.891   1.058  10.742
  142W        W66925   2.761  21.334  12.517
  143W        W66926  19.834  13.708   0.476
  144W        W66927  18.575  26.178   3.999
  145W        W66928   9.411  14.354   4.160
  146W        W66929  36.125  24.810  14.519
  147W        W66930   8.604  30.999   3.708
  148W        W66931  32.539  33.890  13.512
  149W        W66932   7.717  21.029   1.732
  150W        W66933  19.615  16.586   1.686
  151W        W66934   2.937  18.796  13.483
  152W        W66935  43.178   2.153  14.497
  153W        W66936  34.905  40.769  11.140
  154W        W66937  26.379  19.315   2.623
  155W        W66938  32.407   7.065   3.980
  156W        W66939  31.171  34.826  13.608
  157W        W66940  14.236  18.240  12.337
  158W        W66941  15.407  42.569   2.270
  159W        W66942  38.556   6.717  14.345
  160W        W66943  35.437  43.807   1.553
  161W        W66944  11.992  17.692   4.143
  162W        W66945  27.117  32.728   1.752
  163W        W66946  27.545  25.075  11.403
  164W        W66947  44.263   3.790   2.189
  165W        W66948   5.412  22.158   4.559
  166W        W66949  36.750   9.806   3.686
  167W        W66950   3.876  40.383  12.859
  168W        W66951  44.101   6.986   2.308
  169W        W66952   0.020  26.713   1.750
  170W        W66953  12.540   4.300  10.389
  171W        W66954  28.933  33.088  12.094
  172W        W66955  36.046  42.772  13.489
  173W        W66956  31.006  32.352   9.589
  174W        W66957  33.844  13.887   1.450
  175W        W66958  14.323  14.565   0.543
  176W        W66959  36.603  26.808   4.963
  177W        W66960  10.343  19.611   4.376
  178W        W66961  16.241   6.743  13.305
  179W        W66962   9.843  28.092  13.168
  180W        W66963   7.354  18.694   4.661
  181W        W66964  18.090  16.701   3.717
  182W        W66965  11.160   6.741  10.825
  183W        W66966  35.965  37.332   3.725
  184W        W66967  42.568  29.123  10.505
  185W        W66968  29.865  38.152  12.144
  186W        W66969  14.715   5.257   3.834
  187W        W66970  15.090  17.229  10.653
  188W        W66971  14.904   2.183  11.201
  189W        W66972  20.571   9.650   0.221
  190W        W66973   7.501  30.348   1.230
  191W        W66974   0.158  16.316   1.650
  192W        W66975  37.042  35.511  13.825
  193W        W66976  28.907   4.364  12.104
  194W        W66977  41.967  37.341   3.623
  195W        W66978  24.924   7.610   2.727
  196W        W66979  31.929  30.386   1.407
  197W        W66980  25.090   4.316  12.057
  198W        W66981   4.480  14.105  14.521
  199W        W66982  19.058  18.837  11.267
  200W        W66983  40.438  23.883   3.639
  201W        W66984  25.917  39.849   3.868
  202W        W66985  16.855   0.260  10.581
  203W        W66986  39.881   5.901   4.961
  204W        W66987  17.975  30.899  10.582
  205W        W66988  19.263  12.564   3.822
  206W        W66989  41.095  33.637  13.238
  207W        W66990  25.225  28.888  13.015
  208W        W66991  40.306  44.585   4.100
  209W        W66992  28.680  36.337  13.907
  210W        W66993   4.124   6.917  12.700
  211W        W66994  35.992   1.609   4.432
  212W        W66995  40.043  26.204  14.010
  213W        W66996   0.361  41.076   0.667
  214W        W66997   6.696  19.281   0.924
  215W        W66998  39.081  34.821   4.118
  216W        W66999  34.995  10.269   1.347
  217W        W67000  35.295  22.933   0.424
  218W        W67001  41.475   5.779   2.679
  219W        W67002   5.705  42.223  12.561
  220W        W67003  41.602   4.214   4.923
  221W        W67004  44.548   3.674   1.766
  222W        W67005  41.374  21.551   0.274
  223W        W67006  30.812  41.559   2.615
  224W        W67007  39.571  42.944  14.165
  225W        W67008  14.302  35.684  13.883
  226W        W67009  11.992  34.322  12.151
  227W        W67010  26.668  22.564   5.414
  228W        W67011   1.061   2.728   3.436
  229W        W67012  29.125   6.902   2.356
  230W        W67013  38.283  38.078  10.546
  231W        W67014   7.438  14.218  14.738
  232W        W67015  29.242  12.789  11.040
  233W        W67016  42.985  12.303  10.735
  234W        W67017  16.978  13.197   2.843
  235W        W67018  23.725  22.138   1.417
  236W        W67019  24.048  11.391  10.290
  237W        W67020  44.090   4.234   2.389
  238W        W67021  34.805  40.649   0.736
  239W        W67022  29.075  13.577   1.147
  240W        W67023  29.019  18.909   3.338
  241W        W67024  44.714  14.609   9.916
  242W        W67025  39.233  22.155   2.768
  243W        W67026  13.615  33.745   3.039
  244W        W67027  11.355  36.983   9.828
  245W        W67028  27.285  36.568   3.608
  246W        W67029  10.803  35.411   3.614
  247W        W67030  34.996  10.386  13.574
  248W        W67031  21.832  20.068  14.457
  249W        W67032  12.483  40.747   1.290
  250W        W67033  36.860   1.640  10.919
  251W        W67034   1.260  41.395   0.769
  252W        W67035  17.020  22.557  13.575
  253W        W67036   7.635   1.781  13.948
  254W        W67037  11.216  40.463  14.410
  255W        W67038   0.857  20.720  14.006
  256W        W67039  35.759  33.806   4.550
  257W        W67040  42.984  36.010  14.247
  258W        W67041   4.851   9.491  14.429
  259W        W67042   2.626  33.530   4.657
  260W        W67043  39.109  10.147  10.524
  261W        W67044   4.944  19.111  12.394
  262W        W67045  15.447  33.137   3.728
  263W        W67046  31.511   3.416  13.513
  264W        W67047  35.390  10.259  14.506
  265W        W67048   4.986  18.486  13.238
  266W        W67049  10.396  10.557   1.414
  267W        W67050  16.316  33.738  12.992
  268W        W67051  39.645  33.995   4.047
  269W        W67052  12.806  42.679   2.775
  270W        W67053   2.245  24.666   1.661
  271W        W67054  35.336  23.092  10.549
  272W        W67055   9.402   2.464   3.129
  273W        W67056  38.566  28.013   3.944
  274W        W67057   6.355   7.197   1.920
  275W        W67058  36.520  12.402  13.852
  276W        W67059   6.766  15.691   4.451
  277W        W67060   7.173   3.116  11.340
  278W        W67061  41.129  26.080  13.655
  279W        W67062   9.253  31.648   3.735
  280W        W67063  37.318  36.430  12.114
  281W        W67064  44.293  28.070   2.353
  282W        W67065  43.614  17.255   1.568
  283W        W67066   1.251  16.562  11.114
  284W        W67067  33.575  28.518   3.563
  285W        W67068  20.031   6.316   0.650
  286W        W67069  42.665  34.304  12.551
  287W        W67070  17.765  17.675   4.425
  288W        W67071  41.556  41.351  14.000
  289W        W67072  40.986  21.518   2.741
  290W        W67073  29.538  41.795   0.957
  291W        W67074  21.358  25.315   3.401
  292W        W67075  42.042  11.322   1.734
  293W        W67076  26.285  30.432   2.317
  294W        W67077   0.541  28.527   4.124
  295W        W67078  23.811  35.161  13.638
  296W        W67079  21.212  24.760   4.968
  297W        W67080  24.740   1.305   1.450
  298W        W67081  23.175  20.185   3.107
  299W        W67082  13.059  20.718  12.360
  300W        W67083   1.954   2.331   3.236
  301W        W67084   2.485   9.312  12.762
  302W        W67085  20.657  25.671   4.586
  303W        W67086  34.513  20.177   0.534
  304W        W67087   7.433  28.906  13.865
  305W        W67088  12.697  24.030  14.492
  306W        W67089  24.008  17.559   0.164
  307W        W67090  15.255  35.393  14.467
  308W        W67091   1.922  39.076   1.360
  309W        W67092  28.974  36.093  10.766
  310W        W67093  28.945   6.664   3.645
  311W        W67094  38.311  12.392   4.448
  312W        W67095   7.301   7.241  11.504
  313W        W67096  10.962  35.356  14.428
  314W        W67097   5.365  19.286   0.968
  315W        W67098  22.215   5.737  12.275
  316W        W67099  17.241  25.262   0.410
  317W        W67100  32.515   4.460   0.315
  318W        W67101  19.649  30.545  13.554
  319W        W67102  36.861   2.923  14.000
  320W        W67103  22.482  15.496  11.898
  321W        W67104  37.355  25.063   2.258
  322W        W67105  34.079   2.751   0.797
  323W        W67106  41.726   0.428   1.729
  324W        W67107  26.679  38.730   3.991
  325W        W67108   1.489  37.980   1.950
  326W        W67109  11.852  42.429   2.353
  327W        W67110  31.122  11.148   0.900
  328W        W67111  35.516  12.613   4.610
  329W        W67112  40.970   7.040   3.131
  330W        W67113  41.332   9.846  10.469
  331W        W67114  29.718  36.966   3.450
  332W        W67115  17.231  38.853   2.215
  333W        W67116  36.939  17.618   1.855
  334W        W67117   1.825  43.309   4.344
  335W        W67118  13.325  29.015   0.830
  336W        W67119  16.636  23.230  10.441
  337W        W67120   6.882  39.551   3.493
  338W        W67121  34.841   6.264   2.859
  339W        W67122  15.954  15.675   9.898
  340W        W67123  35.933   4.881  11.657
  341W        W67124  42.592  17.119  13.470
  342W        W67125  22.655  37.028  13.459
  343W        W67126  23.750  39.717   1.975
  344W        W67127  44.840  14.086   1.350
  345W        W67128  15.633  11.857  13.946
  346W        W67129   5.684  11.400  10.965
  347W        W67130  23.918   4.383   1.885
  348W        W67131  15.299  30.452   4.669
  349W        W67132  27.762  35.100  13.819
  350W        W67133  18.655  29.975   9.841
  351W        W67134   4.613  24.729  14.748
  352W        W67135   4.483  34.377  14.449
  353W        W67136  29.989  25.391   0.478
  354W        W67137  41.074  23.077   3.144
  355W        W67138   0.499   2.183   1.965
  356W        W67139  40.933  22.977  13.610
  357W        W67140  43.917  22.574   3.214
  358W        W67141   6.275  16.573   0.843
  359W        W67142  44.429  31.860  13.851
  360W        W67143   1.874   0.896  13.870
  361W        W67144  15.889  31.534  13.336
  362W        W67145  34.911  38.020   2.319
  363W        W67146  16.565  10.224   3.681
  364W        W67147  42.908   4.991  14.469
  365W        W67148  40.890  37.073  12.505
  366W        W67149  22.134  19.326   2.415
  367W        W67150  13.087  18.488   3.167
  368W        W67151  27.706  39.874  13.736
  369W        W67152  25.137  25.612  12.912
  370W        W67153  29.195   0.948  14.897
  371W        W67154  33.009  17.715  14.075
  372W        W67155  37.907  26.050  10.558
  373W        W67156  24.153  11.841   0.386
  374W        W67157  20.226  22.634  13.942
  375W        W67158  17.313   8.375  13.013
  376W        W67159  12.541   3.828  11.542
  377W        W67160   3.833  27.187  14.414
  378W        W67161  39.855  38.882  13.454
  379W        W67162  29.446  24.217   2.152
  380W        W67163  20.309   2.702  14.904
  381W        W67164   3.456  13.511  14.853
  382W        W67165  18.089  18.236   4.667
  383W        W67166  40.508  16.556   3.302
  384W        W67167  43.311  21.858   1.291
  385W        W67168  18.385  18.278  10.190
  386W        W67169  24.525  21.693  14.050
  387W        W67170  18.834  17.645   0.037
  388W        W67171  20.253  35.285  14.355
  389W        W67172   6.106  40.315  10.608
  390W        W67173  41.615  19.156  11.815
  391W        W67174  43.377  21.055   1.844
  392W        W67175  36.558  38.264  13.388
  393W        W67176   2.587  35.810  12.128
  394W        W67177  29.913  30.977   3.207
  395W        W67178  42.579  41.416   4.614
  396W        W67179  15.885  43.091  14.624
  397W        W67180  44.102  33.319   1.316
  398W        W67181  42.493  15.224   0.965
  399W        W67182   5.759   1.943  14.063
  400W        W67183  32.347  16.424   1.901
  401W        W67184   5.304  16.299   1.654
  402W        W67185  25.751  24.252   0.537
  403W        W67186   1.147  16.995   0.896
  404W        W67187  35.489  20.984   4.007
  405W        W67188  19.899  18.618  14.390
  406W        W67189  16.236  34.080   1.510
  407W        W67190   9.802   5.385   4.758
  408W        W67191  19.276  44.864  13.249
  409W        W67192  16.467  25.085   2.905
  410W        W67193  30.516  39.807  12.089
  411W        W67194  43.464  23.749  11.935
  412W        W67195  12.070  21.480  12.300
  413W        W67196  26.193  42.477   1.285
  414W        W67197   5.455  33.020  12.466
  415W        W67198  32.605  28.559  14.476
  416W        W67199  30.860  38.798   1.894
  417W        W67200  14.637  21.634  13.930
  418W        W67201  21.018   2.427   1.288
  419W        W67202   9.510  27.177   3.688
  420W        W67203  25.193  19.001   1.790
  421W        W67204  25.498  19.859   4.540
  422W        W67205  42.388  40.966   1.044
  423W        W67206  19.925  20.836  11.189
  424W        W67207  17.676   6.468  13.452
  425W        W67208  44.389  28.131  11.634
  426W        W67209   4.752  26.302  10.792
  427W        W67210  26.988   9.301   2.248
  428W        W67211  24.245   4.710   2.120
  429W        W67212  25.005  17.588  12.876
  430W        W67213  39.313  23.045   2.810
  431W        W67214   7.951  31.892  10.754
  432W        W67215   2.217   6.468   4.332
  433W        W67216  39.450  42.042   4.194
  434W        W67217   8.190  21.794   0.998
  435W        W67218  17.093  13.578   1.283
  436W        W67219  13.184   2.634  11.527
  437W        W67220  30.478  10.098  11.400
  438W        W67221  28.465  21.231   0.519
  439W        W67222  18.575  39.701   1.846
  440W        W67223  39.085   0.288   3.812
  441W        W67224  43.841  27.216   0.770
  442W        W67225  23.912  37.048   3.919
  443W        W67226   2.192  27.510   1.032
  444W        W67227  13.891  39.923  13.344
  445W        W67228  36.861  31.400  13.528
  446W        W67229  36.476  19.717  12.483
  447W        W67230   9.837  25.685  14.363
  448W        W67231   3.882  44.363   3.975
  449W        W67232  25.427  24.054   1.430
  450W        W67233  41.046  23.581  11.234
  451W        W67234   8.157  13.080   3.249
  452W        W67235  11.799  16.037   1.863
  453W        W67236   3.270  21.775  13.430
  454W        W67237  16.232   8.796  11.869
  455W        W67238  36.571   6.712  12.385
  456W        W67239   0.375  35.776   2.138
  457W        W67240  34.078   3.297   3.836
  458W        W67241  17.752  30.439   3.232
  459W        W67242   2.376  21.086   1.778
  460W        W67243  38.052  24.905  11.187
  461W        W67244   3.685  22.010   3.795
  462W        W67245   3.637  20.446  13.477
  463W        W67246   3.935  43.892  12.115
  464W        W67247  14.086  43.882  13.871
  465W        W67248  11.795   6.016  10.153
  466W        W67249   4.806  11.262  14.255
  467W        W67250  10.165  40.741   1.827
  468W        W67251   9.789  24.499   3.646
  469W        W67252  27.511  10.829   2.838
  470W        W67253  33.844  24.186   0.953
  471W        W67254  38.389   5.439   5.022
  472W        W67255  41.917  18.165   4.150
  473W        W67256  17.237  32.221  14.355
  474W        W67257  10.271  37.575   4.006
  475W        W67258  34.473   3.561  14.324
  476W        W67259  26.901  12.647  12.682
  477W        W67260  41.667   8.218  13.917
  478W        W67261  33.158  14.810   3.403
  479W        W67262  18.787  22.955   3.273
  480W        W67263  41.480   0.367   4.119
  481W        W67264   5.354  10.641   2.781
  482W        W67265  27.436  34.260   4.568
  483W        W67266  27.582   5.752  13.666
  484W        W67267  22.545  33.601  10.724
  485W        W67268  37.095   8.852  11.537
  486W        W67269  24.611  10.923   4.766
  487W        W67270   3.415  38.155   0.720
  488W        W67271  27.641  39.368   1.341
  489W        W67272  18.272  28.069   2.169
  490W        W67273  12.384  42.528  12.486
  491W        W67274  24.096   1.957  14.768
  492W        W67275  43.255  20.672   4.566
  493W        W67276  29.573  14.288   1.939
  494W        W67277  14.913  18.739  13.791
  495W        W67278   2.946  23.991  12.940
  496W        W67279  30.499  23.492   2.494
  497W        W67280  25.941  40.236  14.270
  498W        W67281  34.189   4.448   0.744
  499W        W67282  43.046   1.551  13.472
  500W        W67283  31.905  37.263   4.156
  501W        W67284  30.645  19.667   1.684
  502W        W67285   8.724  43.163   3.145
  503W        W67286  11.837  38.689  14.087
  504W        W67287   5.697   2.269  13.036
  505W        W67288  13.377  41.351  10.673
  506W        W67289   8.330  33.853   4.585
  507W        W67290  17.644  22.528  10.868
  508W        W67291  18.785   0.261   3.248
  509W        W67292  15.332  15.023   1.742
  510W        W67293   7.329  24.936   1.882
  511W        W67294  14.605  25.591   1.654
  512W        W67295  31.496  27.617  12.109
  513W        W67296  33.952  32.639  10.979
  514W        W67297  12.267  12.200  10.885
  515W        W67298  21.241   9.873   3.654
  516W        W67299  25.421  32.866  14.908
  517W        W67300   4.912  44.582   0.912
  518W        W67301  26.739   6.447   3.789
  519W        W67302   9.417  42.494  11.818
  520W        W67303   4.789  10.112   2.745
  521W        W67304  43.436  17.508   1.997
  522W        W67305  13.617  28.126  13.452
  523W        W67306  17.775   3.781   0.350
  524W        W67307  17.157   5.739  12.787
  525W        W67308  18.356  16.113  13.407
  526W        W67309  23.051  16.239  14.136
  527W        W67310  13.191   8.647  13.839
  528W        W67311   7.779  28.162   2.748
  529W        W67312  27.154  30.566  10.687
  530W        W67313  40.277   7.786   2.884
  531W        W67314  26.087  21.124  13.306
  532W        W67315  38.414  34.401   4.436
  533W        W67316  41.029  25.744  12.040
  534W        W67317  22.500  24.755  10.603
  535W        W67318   7.289  36.396  12.523
  536W        W67319  15.255   9.228   4.255
  537W        W67320  19.591   2.095  11.064
  538W        W67321  15.695  11.765   0.294
  539W        W67322   1.431  12.869  14.752
  540W        W67323   8.832   8.123  10.985
  541W        W67324   0.483  38.396  13.386
  542W        W67325   5.895   8.429   2.325
  543W        W67326   5.444  22.987  12.571
  544W        W67327  16.978  34.306  14.853
  545W        W67328  14.049  25.861   3.754
  546W        W67329  40.338  12.585   2.724
  547W        W67330  13.227  32.047  14.753
  548W        W67331  22.987  35.156  12.980
  549W        W67332  34.016   5.375  14.395
  550W        W67333  26.652  30.402  12.400
  551W        W67334   5.434  38.582  14.595
  552W        W67335  10.624  15.624   3.203
  553W        W67336  21.158  30.670   1.291
  554W        W67337  21.858   6.299  13.757
  555W        W67338   9.639  23.109  12.839
  556W        W67339  26.039  25.977   2.078
  557W        W67340  27.250  33.091  11.650
  558W        W67341  25.151   6.623  11.864
  559W        W67342  41.824   3.887   1.236
  560W        W67343  23.537  23.809  14.946
  561W        W67344  39.973  29.838  12.409
  562W        W67345  22.116   1.840   5.334
  563W        W67346   0.078  13.138   5.413
  564W        W67347  28.381  40.082   1.343
  565W        W67348  29.913  25.547   3.308
  566W        W67349  11.164   3.729  11.120
  567W        W67350  33.008  42.579   0.946
  568W        W67351  38.164  33.048   1.438
  569W        W67352  44.876  41.298  14.321
  570W        W67353  14.532  30.716  13.988
  571W        W67354   9.877  12.747   1.002
  572W        W67355  30.721  40.869   4.384
  573W        W67356   0.542  36.072   1.715
  574W        W67357   6.934  41.987  12.640
  575W        W67358  12.746  41.280   3.685
  576W        W67359  44.941  42.874   4.096
  577W        W67360  43.829  43.717   2.074
  578W        W67361  37.639  42.829   2.683
  579W        W67362   3.660  18.690   1.651
  580W        W67363  19.585  20.079   0.762
  581W        W67364  44.502  44.070   0.197
  582W        W67365  23.028   6.774   3.882
  583W        W67366  11.764  35.029  11.153
  584W        W67367  16.215  30.829   2.480
  585W        W67368  21.660  32.602   4.180
  586W        W67369  36.994  12.179   4.820
  587W        W67370  11.292  42.543  13.332
  588W        W67371  15.715  27.576  10.592
  589W        W67372  17.414  10.792  10.392
  590W        W67373  37.040  26.659  13.847
  591W        W67374  17.276  34.507   4.565
  592W        W67375  43.504  13.745   1.363
  593W        W67376  23.023  10.232   3.738
  594W        W67377  26.973  38.598   3.194
  595W        W67378   5.110  15.329  12.650
  596W        W67379   4.511  19.666   1.659
  597W        W67380  31.301  17.032  12.184
  598W        W67381  42.278  27.607   0.562
  599W        W67382   9.367  16.297   4.447
  600W        W67383  18.348   4.930  10.348
  601W        W67384  19.235  28.388   1.213
  602W        W67385  17.707  42.072   4.112
  603W        W67386  43.264  34.588  10.632
  604W        W67387  21.840  31.809  11.080
  605W        W67388  20.732  33.840   1.627
  606W        W67389  29.057   8.887  11.544
  607W        W67390  28.474  38.963  13.465
  608W        W67391  34.108   5.287  12.872
  609W        W67392  41.469  19.539   2.461
  610W        W67393  31.954  22.075   4.091
  611W        W67394  27.234  27.493   3.174
  612W        W67395  37.147   4.898   3.141
  613W        W67396   2.044  35.019  13.008
  614W        W67397  30.006  14.140  14.797
  615W        W67398  37.504  21.941   4.679
  616W        W67399  18.231  32.231   1.037
  617W        W67400   1.872  42.743  14.390
  618W        W67401  44.665  37.136  12.867
  619W        W67402  40.041   6.642   3.340
  620W        W67403  31.632  25.131  13.863
  621W        W67404  18.776  28.744  11.122
  622W        W67405  16.301  20.546   0.904
  623W        W67406  32.953  30.848   3.326
  624W        W67407  43.709  18.349  12.566
  625W        W67408   0.060  14.066   3.571
  626W        W67409  18.099  39.599  10.891
  627W        W67410  42.333  41.350   4.120
  628W        W67411   7.021  26.179   3.252
  629W        W67412   2.751  24.914  14.090
  630W        W67413  42.238   4.944  12.531
  631W        W67414  33.236  30.624   3.675
  632W        W67415   2.993  17.752  11.433
  633W        W67416  17.182   0.944   1.321
  634W        W67417  37.021  35.807   3.820
  635W        W67418  11.710  11.455   4.508
  636W        W67419  22.128  35.907  13.782
  637W        W67420   2.516  34.849   4.187
  638W        W67421  34.538  11.816  14.537
  639W        W67422  16.652  44.983  14.453
  640W        W67423   3.803   3.951   3.334
  641W        W67424  14.358  36.532   0.633
  642W        W67425  12.195  20.938   1.468
  643W        W67426   9.430  12.128   1.808
  644W        W67427   8.276   5.282   4.563
  645W        W67428  25.150  10.275   5.131
  646W        W67429   2.466  11.164  12.064
  647W        W67430  21.687   9.908  12.104
  648W        W67431  30.997  26.449   1.248
  649W        W67432  34.612  16.962   4.549
  650W        W67433  25.184  17.475  14.714
  651W        W67434  44.686  16.081   3.753
  652W        W67435  11.910  11.467  14.247
  653W        W67436  18.666  29.137   1.456
  654W        W67437  14.033   6.670   0.586
  655W        W67438  17.533  38.150   5.258
  656W        W67439  12.156   8.381   1.374
  657W        W67440   8.111  17.035   2.671
  658W        W67441  38.947  33.918  14.001
  659W        W67442  28.464  34.838   0.941
  660W        W67443  35.704  19.593  10.724
  661W        W67444  28.914  17.493   0.258
  662W        W67445  30.384  22.204  11.008
  663W        W67446  33.860  17.829   3.785
  664W        W67447   4.405   2.423   2.886
  665W        W67448  29.694   6.773  12.999
  666W        W67449  26.703  43.102   4.176
  667W        W67450   4.361  32.990   0.306
  668W        W67451  31.703  22.538   1.285
  669W        W67452  11.341  22.464   2.674
  670W        W67453  44.595  21.210   1.254
  671W        W67454   9.665  35.119  13.544
  672W        W67455  12.431  10.782   3.556
  673W        W67456   5.190  31.038  13.340
  674W        W67457  25.071  39.762   2.371
  675W        W67458  14.298  33.474   0.512
  676W        W67459  15.593  28.616   1.765
  677W        W67460  13.623  29.756  11.908
  678W        W67461  10.114  40.934   1.342
  679W        W67462  14.833  19.973   1.432
  680W        W67463  37.151  26.687  14.396
  681W        W67464   9.050   0.716   2.433
  682W        W67465  15.648  41.099  12.866
  683W        W67466  23.773  30.741  14.038
  684W        W67467  22.155  20.898   2.379
  685W        W67468  21.093  11.288  12.282
  686W        W67469  43.440  24.047   4.316
  687W        W67470  30.506   7.198   4.040
  688W        W67471  15.325  13.021  11.443
  689W        W67472  16.831   6.262   0.802
  690W        W67473  16.857  31.930  13.052
  691W        W67474  40.016   5.029  13.718
  692W        W67475  18.948  44.998   2.819
  693W        W67476  25.718  29.512   3.525
  694W        W67477  29.810  23.018  11.406
  695W        W67478   9.330  25.081   2.349
  696W        W67479  32.089  13.168   1.713
  697W        W67480  19.202  44.503   0.729
  698W        W67481   5.876   8.300  14.587
  699W        W67482   5.769  37.700  13.218
  700W        W67483   2.262   2.731   2.181
  701W        W67484  16.244  37.859  10.098
  702W        W67485   4.856  24.916  11.186
  703W        W67486  40.415  12.599  14.308
  704W        W67487  19.272  33.701   2.016
  705W        W67488  24.050  20.486  10.973
  706W        W67489  10.361  36.908  14.825
  707W        W67490  43.915  20.767  12.490
  708W        W67491  27.986   8.381  14.515
  709W        W67492  16.117   7.423   0.358
  710W        W67493   1.136  26.012  13.859
  711W        W67494   1.974   4.022  12.622
  712W        W67495   8.822  35.804  11.835
  713W        W67496  43.438  29.276  14.895
  714W        W67497  39.633  16.208  10.800
  715W        W67498  43.398  14.259  13.014
  716W        W67499  37.465  15.623   2.182
  717W        W67500  24.040  19.999   1.308
  718W        W67501  12.268  14.289  12.677
  719W        W67502  27.579  35.858  12.590
  720W        W67503  15.980  12.819  12.922
  721W        W67504  23.610   4.816  12.062
  722W        W67505  30.650  29.190  14.881
  723W        W67506  26.456   8.297   4.599
  724W        W67507  36.983  23.567   2.432
  725W        W67508   0.809   5.751  10.826
  726W        W67509   7.701  44.357   0.935
  727W        W67510  19.279  31.893  14.072
  728W        W67511  27.974   4.518   1.365
  729W        W67512  28.163  34.208  11.533
  730W        W67513   8.722  15.937  13.527
  731W        W67514  40.575  44.375  13.496
  732W        W67515  38.076  38.546  13.845
  733W        W67516  18.645  40.081   3.878
  734W        W67517  16.888  37.907  14.188
  735W        W67518   3.424   6.410   3.296
  736W        W67519  26.626  21.067   3.136
  737W        W67520   8.265  44.769   2.781
  738W        W67521  44.274  14.102   3.139
  739W        W67522   5.367   7.437   1.019
  740W        W67523  14.939  40.520  12.926
  741W        W67524  35.590  34.619   3.424
  742W        W67525   2.710  43.542   2.798
  743W        W67526  29.697  35.627  13.410
  744W        W67527  35.114  22.490   0.716
  745W        W67528   1.868   1.194  14.999
  746W        W67529  38.921   7.623  13.299
  747W        W67530   7.807  30.971  12.092
  748W        W67531  20.882  12.190  12.085
  749W        W67532  15.499  31.632  14.838
  750W        W67533  18.058  37.270   1.225
  751W        W67534  42.207   0.740   1.050
  752W        W67535  31.925  40.551  14.774
  753W        W67536  11.928  44.017   1.853
  754W        W67537   3.492  29.198   4.427
  755W        W67538  25.137  11.395   3.723
  756W        W67539  42.042  39.993  12.490
  757W        W67540  28.882  36.878   2.867
  758W        W67541  38.020  23.690  13.556
  759W        W67542  28.966  30.179  10.557
  760W        W67543   0.983   8.567  14.678
  761W        W67544  19.980  18.205  12.846
  762W        W67545  13.209  42.459   4.673
  763W        W67546   0.860  27.505  14.468
  764W        W67547  33.608  10.637   0.309
  765W        W67548  38.379  37.546  10.619
  766W        W67549   9.139  37.928   1.980
  767W        W67550  32.183  19.524   3.307
  768W        W67551  19.716  23.902   3.275
  769W        W67552  10.167  33.356  12.455
  770W        W67553  17.788  27.455   2.464
  771W        W67554  44.890  42.770   0.038
  772W        W67555  38.710  22.604   4.798
  773W        W67556  44.683   4.299  12.062
  774W        W67557  43.665  33.523   1.980
  775W        W67558   3.845   7.003  13.561
  776W        W67559  42.341  20.222  12.612
  777W        W67560  20.606  40.035  11.950
  778W        W67561  25.786  23.313   0.930
  779W        W67562   3.830   0.766  11.573
  780W        W67563  23.685  23.353   5.011
  781W        W67564  27.976   5.797   0.473
  782W        W67565   9.241   9.725  10.997
  783W        W67566  42.449  12.445   9.982
  784W        W67567  40.398  27.349  12.510
  785W        W67568   9.352   4.471   1.741
  786W        W67569  37.792  25.737   0.477
  787W        W67570  31.591  39.824   1.438
  788W        W67571   6.346  24.437   1.842
  789W        W67572  17.341  16.690   2.753
  790W        W67573  30.275  21.428  12.842
  791W        W67574  24.958  20.586  11.421
  792W        W67575   7.440  14.018   0.717
  793W        W67576  34.113  10.843  14.483
  794W        W67577   9.898  17.049  12.392
  795W        W67578  15.026   5.283   0.456
  796W        W67579  34.608   5.732  12.626
  797W        W67580  11.850  20.358  10.805
  798W        W67581  23.935  10.761  13.812
  799W        W67582  34.010  40.403   3.710
  800W        W67583   3.482  38.040  13.318
  801W        W67584  10.275  25.641   3.736
  802W        W67585  18.630   6.324   0.709
  803W        W67586  15.154  23.687  11.148
  804W        W67587   2.317  33.028  14.412
  805W        W67588   6.811  43.293   4.080
  806W        W67589   8.773  13.084  12.381
  807W        W67590  44.916   3.984  11.681
  808W        W67591  27.537  16.067  13.564
  809W        W67592   0.234  29.139  12.786
  810W        W67593  18.269   9.333  12.106
  811W        W67594  30.045  23.383  11.129
  812W        W67595   1.212  44.105   2.277
  813W        W67596   8.162  38.579  10.516
  814W        W67597  18.711  14.844  10.871
  815W        W67598   6.847  27.011   0.367
  816W        W67599  41.905   5.241   1.894
  817W        W67600   6.880  30.436  10.619
  818W        W67601  10.361   7.039  14.413
  819W        W67602   9.118  14.554   1.776
  820W        W67603   4.127   0.905  12.357
  821W        W67604  34.856  23.141  11.439
  822W        W67605   0.310   2.959  13.156
  823W        W67606  25.492  15.918  10.807
  824W        W67607  27.387   3.874   1.432
  825W        W67608  20.444  29.442  14.514
  826W        W67609  25.870  44.793   3.587
  827W        W67610  22.134   8.549   2.609
  828W        W67611  32.724  18.012   1.008
  829W        W67612  39.020  20.967   3.116
  830W        W67613  44.548   4.710  13.290
  831W        W67614  20.038  14.901   0.429
  832W        W67615  28.982   4.616   1.810
  833W        W67616  34.251  22.641  13.418
  834W        W67617   5.137   2.189  13.547
  835W        W67618  31.955  43.531   3.816
  836W        W67619  32.070  17.724  14.064
  837W        W67620  30.484  11.109  11.592
  838W        W67621  12.782   1.438   1.649
  839W        W67622  30.484  14.233  14.997
  840W        W67623  26.532  33.624  12.878
  841W        W67624  19.376  38.673   4.061
  842W        W67625  40.880  39.799   1.228
  843W        W67626  39.573  43.778  11.596
  844W        W67627  21.484   9.397   2.225
  845W        W67628   3.477  15.310   3.721
  846W        W67629  30.133  27.451   1.023
  847W        W67630  20.442  41.073   4.502
  848W        W67631   0.885  22.882  14.816
  849W        W67632  12.727  21.570   3.418
  850W        W67633   1.015  33.462  14.847
  851W        W67634   3.495  28.088  12.664
  852W        W67635   4.888  14.888  13.002
  853W        W67636  36.609  14.650   1.819
  854W        W67637  14.580  29.431  12.547
  855W        W67638   2.285   7.254  10.753
  856W        W67639  35.376  29.612   3.831
  857W        W67640  25.402  37.788   4.209
  858W        W67641   2.899  21.369   4.722
  859W        W67642  35.147  10.353  14.960
  860W        W67643  11.250   9.400   0.070
  861W        W67644  39.534   3.699   2.849
  862W        W67645  27.534  13.689  14.520
  863W        W67646  17.816  33.577   3.781
  864W        W67647  32.161   3.281  11.066
  865W        W67648  14.346   8.945   4.007
  866W        W67649   5.973  36.889   4.869
  867W        W67650   6.685  19.131  10.799
  868W        W67651   6.331  32.077  10.035
  869W        W67652  36.508  16.765  13.345
  870W        W67653  42.224   9.371   0.255
  871W        W67654  15.546   4.889  13.831
  872W        W67655  27.378  20.918  12.616
  873W        W67656  28.525  14.876  10.889
  874W        W67657   7.453  30.218   2.308
  875W        W67658  20.214   8.042  13.229
  876W        W67659  24.677  32.670  10.735
  877W        W67660  13.276  14.546   0.782
  878W        W67661  17.848   0.751  14.438
  879W        W67662  19.076  31.945  13.331
  880W        W67663   2.315  31.100   0.296
  881W        W67664  44.851  19.508   0.261
  882W        W67665  36.506   1.650   0.833
  883W        W67666  29.611  17.132  14.779
  884W        W67667   0.286  31.842  11.194
  885W        W67668   3.295  18.086  11.669
  886W        W67669  41.043  21.237   4.574
  887W        W67670  13.831   6.695   1.954
  888W        W67671  35.801   2.432  13.405
  889W        W67672  23.229  41.489  14.057
  890W        W67673  42.785  32.447   2.916
  891W        W67674   7.753  17.389   1.783
  892W        W67675  22.489  10.715  13.838
  893W        W67676   5.375  30.606   4.582
  894W        W67677  19.784   9.506  13.988
  895W        W67678   9.319  39.493   0.883
  896W        W67679  18.690   1.689  13.432
  897W        W67680  39.733   7.417  13.513
  898W        W67681  44.999  31.563   4.497
  899W        W67682  12.878  34.474   3.127
  900W        W67683   2.025  19.707  11.857
  901W        W67684   4.283  11.180   0.714
  902W        W67685   0.959  34.946   1.268
  903W        W67686  30.097  32.682   1.783
  904W        W67687   1.347  26.216   1.961
  905W        W67688  34.134  42.411  14.802
  906W        W67689  31.955  20.491   0.279
  907W        W67690  18.042  26.338  10.683
  908W        W67691  25.616  14.223  11.614
  909W        W67692  20.623  39.304   0.119
  910W        W67693  24.513   1.638   3.168
  911W        W67694  11.540  31.655  14.971
  912W        W67695   2.322   2.470   2.879
  913W        W67696  34.906  35.073  13.570
  914W        W67697  17.599   5.373   2.306
  915W        W67698  12.075  23.514   4.490
  916W        W67699  31.441  23.944   4.106
  917W        W67700  33.068  37.797  14.520
  918W        W67701  26.528  43.248  12.426
  919W        W67702  23.408  11.292  11.527
  920W        W67703   2.452  36.928   3.239
  921W        W67704  10.853  14.091  11.689
  922W        W67705  36.375  23.415   2.169
  923W        W67706  15.306  34.234   9.916
  924W        W67707   7.232  20.027   1.922
  925W        W67708  30.482  10.353  14.931
  926W        W67709  42.576  19.837   3.608
  927W        W67710   0.228  33.878   2.656
  928W        W67711  22.558  31.080   0.235
  929W        W67712  25.248   2.916   3.125
  930W        W67713  20.677  35.895  10.770
  931W        W67714  33.612  20.821   3.669
  932W        W67715   1.051  32.091  13.496
  933W        W67716  38.326   6.966  11.900
  934W        W67717  40.412  26.625  11.468
  935W        W67718   3.713  17.165   0.199
  936W        W67719  41.394  24.171  12.055
  937W        W67720  24.676  38.067  12.492
  938W        W67721  25.976   2.769   1.650
  939W        W67722  28.810  43.980  10.801
  940W        W67723   5.211  14.822  12.613
  941W        W67724   6.253   9.791  10.848
  942W        W67725  36.744   8.105   5.072
  943W        W67726  11.647   3.359   4.320
  944W        W67727   5.869  37.995   3.545
  945W        W67728   3.328  20.913  14.751
  946W        W67729  33.170   8.816   1.188
  947W        W67730  17.281   0.818   1.827
  948W        W67731  29.847   8.675  12.487
  949W        W67732  16.423  19.668  10.550
  950W        W67733  15.699  35.554   0.258
  951W        W67734  32.369   6.846   9.898
  952W        W67735  12.862   6.552   1.229
  953W        W67736   4.948  12.906  12.924
  954W        W67737  22.009   9.252   3.631
  955W        W67738  34.892  23.667   1.446
  956W        W67739   4.202   0.428  12.546
  957W        W67740   7.045  28.128  14.800
  958W        W67741  26.195  24.119   0.926
  959W        W67742  14.611  15.389   3.219
  960W        W67743  26.271  15.680   4.401
  961W        W67744  23.890  40.068  11.606
  962W        W67745  26.168  13.641  11.986
  963W        W67746  42.042  27.194  11.720
  964W        W67747   8.202   8.560  10.437
  965W        W67748  30.751  43.046   4.579
  966W        W67749  13.643  19.727   0.942
  967W        W67750  17.599  15.352  14.598
  968W        W67751  44.821  36.845  10.694
  969W        W67752  17.172   0.446   3.100
  970W        W67753  26.652   5.456   2.398
  971W        W67754  35.900  18.008  13.440
  972W        W67755  36.160  35.441   0.671
  973W        W67756  17.230  24.446   2.257
  974W        W67757  17.728  35.004   1.280
  975W        W67758  25.000   1.640   0.906
  976W        W67759   0.502  31.084   3.681
  977W        W67760  29.618   5.613  11.308
  978W        W67761  24.884  21.541  11.491
  979W        W67762  29.147  23.760   0.322
  980W        W67763  39.699  42.112   3.756
  981W        W67764  16.425  11.800  11.263
  982W        W67765  11.873  21.104  11.961
  983W        W67766  39.265  25.151  12.099
  984W        W67767  40.791  17.883  14.539
  985W        W67768  38.584  43.954  10.890
  986W        W67769  11.619  44.873   2.367
  987W        W67770   7.353  25.056   4.348
  988W        W67771   3.348  15.016   3.323
  989W        W67772  34.163  25.589   1.346
  990W        W67773  30.956  13.277  10.795
  991W        W67774   5.259  35.071  13.007
  992W        W67775  33.561  27.626   0.086
  993W        W67776  21.174   8.473   0.699
  994W        W67777   0.546  33.535   1.469
  995W        W67778  25.550   1.396   1.008
  996W        W67779  38.438  36.242  11.513
  997W        W67780  14.156  25.126  13.824
  998W        W67781   3.675  41.734   2.810
  999W        W67782  32.342  30.719   1.542
 1000W        W67783   0.096  15.092   2.277
 1001W        W67784  20.409  26.104   3.693
 1002W        W67785   6.255  17.392  14.708
 1003W        W67786  26.478  42.255  12.519
 1004W        W67787  23.515   8.186  14.255
 1005W        W67788  32.456  31.430   4.530
 1006W        W67789  38.125   4.965   3.229
 1007W        W67790  39.851  27.910   2.037
 1008W        W67791   3.442  26.590  10.341
 1009W        W67792  42.386   5.817  13.514
 1010W        W67793  10.798  29.595   1.165
 1011W        W67794  15.696   9.714  10.724
 1012W        W67795   4.378  22.516   4.679
 1013W        W67796  40.565  17.685  10.995
 1014W        W67797   0.388   0.726  10.776
 1015W        W67798   3.791  13.315   4.902
 1016W        W67799  36.800  40.307  11.180
 1017W        W67800   5.828   0.131   0.874
 1018W        W67801   2.082  12.199  12.929
 1019W        W67802  38.276  30.428  10.705
 1020W        W67803  32.450   6.240   3.681
 1021W        W67804  21.035  30.461  13.878
 1022W        W67805  27.057  36.065  13.496
 1023W        W67806  29.841  38.511  11.657
 1024W        W67807  40.238   7.470   3.305
 1025W        W67808  27.217  27.110  11.538
 1026W        W67809  35.587   6.186   1.170
 1027W        W67810  36.090  12.072  13.931
 1028W        W67811   8.275  32.927   2.006
 1029W        W67812  43.205  28.570   0.843
 1030W        W67813  19.985  19.228  11.120
 1031W        W67814  14.330  31.590   2.850
 1032W        W67815   9.067   0.987   3.211
 1033W        W67816  13.152  14.199  11.093
 1034W        W67817  30.318  17.784   3.520
 1035W        W67818   5.382   7.459   2.564
 1036W        W67819  40.893  40.581   0.031
 1037W        W67820  20.941   4.949  13.545
 1038W        W67821  33.315  18.646  10.121
 1039W        W67822  20.669  40.417  13.597
 1040W        W67823  34.504  42.005  13.957
 1041W        W67824  35.496  28.973  11.701
 1042W        W67825  18.659  42.316   1.490
 1043W        W67826  23.571  34.402   1.286
 1044W        W67827  34.837  34.476  11.570
 1045W        W67828  40.919  20.269   2.005
 1046W        W67829  20.587   4.702   1.482
 1047W        W67830  28.675  39.177  12.426
 1048W        W67831  39.568  30.683  13.134
 1049W        W67832  24.428   6.383   4.156
 1050W        W67833  11.333  16.153   3.783
 1051W        W67834  43.259  32.506   1.651
 1052W        W67835  38.331  19.138  11.525
 1053W        W67836  30.575  15.405   4.478
 1054W        W67837  43.816  14.051  12.734
 1055W        W67838   0.767   1.384   4.192
 1056W        W67839  26.249  44.347   1.406
 1057W        W67840   2.441   1.659  14.419
 1058W        W67841  44.478   4.137  12.519
 1059W        W67842  44.326  28.570  11.901
 1060W        W67843   2.731   2.958  13.869
 1061W        W67844  10.688  20.484   1.317
 1062W        W67845   0.474  35.821   4.544
 1063W        W67846  27.545  22.303   3.715
 1064W        W67847  42.366  32.702  13.001
 1065W        W67848  23.101  40.839  11.017
 1066W        W67849  16.704  29.156   2.610
 1067W        W67850  28.436  10.756  11.575
 1068W        W67851  11.703  17.475  14.006
 1069W        W67852  24.009  42.647  13.842
 1070W        W67853  12.859   6.425   2.596
 1071W        W67854  11.803  27.508  14.833
 1072W        W67855  22.653  21.967   4.791
 1073W        W67856  14.757  19.278   1.483
 1074W        W67857  40.457  43.095   4.182
 1075W        W67858  10.129   9.702  13.008
 1076W        W67859  31.348  35.077   1.900
 1077W        W67860  25.026   1.777  12.119
 1078W        W67861  38.047  30.481  14.227
 1079W        W67862  28.706   0.528  12.938
 1080W        W67863  30.887  20.926  10.279
 1081W        W67864  42.768   7.262  13.853
 1082W        W67865   1.919  37.927   3.736
 1083W        W67866  42.608   9.753  14.550
 1084W        W67867  11.101  25.050  10.701
 1085W        W67868  35.910  44.367   3.391
 1086W        W67869  26.635  31.867   4.080
 1087W        W67870   8.907  18.664   0.726
 1088W        W67871  12.756  13.406   1.341
 1089W        W67872  11.099  15.768   4.104
 1090W        W67873  37.956  20.217   3.947
 1091W        W67874  38.263   6.328   0.457
 1092W        W67875  19.002   7.324  13.059
 1093W        W67876  27.019   5.372  10.536
 1094W        W67877   5.196  35.330   4.833
 1095W        W67878  27.054   0.338   1.924
 1096W        W67879   9.228  40.258   1.343
 1097W        W67880   9.313  17.101  11.029
 1098W        W67881  33.214  26.460   3.241
 1099W        W67882  44.395  41.904   0.913
 1100W        W67883  10.073   5.389  11.058
 1101W        W67884  30.045   8.336  14.289
 1102W        W67885  41.745  16.606  12.187
 1103W        W67886  26.646  31.602   2.169
 1104W        W67887   5.424  16.603  11.289
 1105W        W67888  11.268  16.111   0.527
 1106W        W67889  23.594   9.424   2.940
 1107W        W67890   1.772  18.236  11.687
 1108W        W67891  35.580  12.211   4.276
 1109W        W67892  25.603  22.918   4.059
 1110W        W67893   8.665  18.708   4.225
 1111W        W67894   8.158  14.730  14.937
 1112W        W67895   3.178  15.739   2.788
 1113W        W67896   4.749  25.980  13.522
 1114W        W67897  37.803  13.950  14.859
 1115W        W67898  28.611  21.768   3.769
 1116W        W67899  18.837  24.561  12.534
 1117W        W67900  18.248  29.574   4.603
 1118W        W67901   7.140  42.398   0.201
 1119W        W67902   7.861  40.992  11.626
 1120W        W67903   5.157  32.609   1.359
 1121W        W67904  40.062  33.163   2.715
 1122W        W67905  40.503  20.007   1.777
 1123W        W67906   8.835  12.719  11.221
 1124W        W67907   7.491  20.468   3.284
 1125W        W67908  24.152  10.584   4.017
 1126W        W67909   5.185  28.097  12.835
 1127W        W67910  31.587  33.949  12.543
 1128W        W67911   7.046   9.876   2.558
 1129W        W67912  31.626  39.808   3.661
 1130W        W67913   9.779  19.230  11.539
 1131W        W67914  19.364   9.381   4.208
 1132W        W67915  19.461  29.429   4.174
 1133W        W67916  37.653  24.214   3.935
 1134W        W67917  21.650  42.487   3.607
 1135W        W67918  30.645  36.539   4.534
 1136W        W67919  35.509   3.437  11.951
 1137W        W67920   2.501  15.835  10.693
 1138W        W67921  16.225  38.345  12.075
 1139W        W67922  37.223  31.038  13.540
 1140W        W67923  13.338   1.562   3.630
 1141W        W67924  36.467   1.766   3.213
 1142W        W67925  31.637  35.776  12.868
 1143W        W67926   0.526   0.920   4.175
 1144W        W67927  29.871  15.262  10.662
 1145W        W67928  35.349  11.827  11.470
 1146W        W67929  32.325  28.528   2.430
 1147W        W67930   6.604  31.682   4.580
 1148W        W67931  13.270  28.110  14.466
 1149W        W67932  24.225  42.726  12.106
 1150W        W67933  11.166  21.209  13.921
 1151W        W67934  40.291   2.780  11.522
 1152W        W67935  28.029  37.361   3.799
 1153W        W67936   9.649  23.027  13.344
 1154W        W67937  10.844   0.305  11.159
 1155W        W67938  12.121  12.733  11.665
 1156W        W67939  39.441  13.454   1.623
 1157W        W67940  32.383   9.340  13.472
 1158W        W67941  11.741  36.383   5.159
 1159W        W67942  40.644  26.871  12.648
 1160W        W67943   7.065   5.983   3.401
 1161W        W67944  34.325   3.899   5.504
 1162W        W67945  28.694  43.853   0.334
 1163W        W67946  18.836  14.745  14.825
 1164W        W67947  15.629   1.547  14.901
 1165W        W67948  28.722  18.686  11.183
 1166W        W67949  20.007   7.705  11.378
 1167W        W67950  26.407  30.618  13.960
 1168W        W67951  32.118  23.780   3.604
 1169W        W67952   8.771  32.100   2.129
 1170W        W67953  16.150  15.780  10.371
 1171W        W67954  34.347  42.720   1.814
 1172W        W67955  39.764   1.985  11.032
 1173W        W67956  22.782  16.498  12.564
 1174W        W67957  15.972  33.019  11.493
 1175W        W67958   6.679  20.827   3.128
 1176W        W67959  30.157  29.983   2.312
 1177W        W67960  15.650  12.688   3.226
 1178W        W67961  27.393  34.007  13.500
 1179W        W67962  17.684  10.782  13.702
 1180W        W67963   3.225  19.228  12.082
 1181W        W67964  15.396  22.243  12.847
 1182W        W67965   0.876  24.951   1.860
 1183W        W67966  18.313  31.531  11.152
 1184W        W67967  26.509  31.115  14.384
 1185W        W67968   0.037   4.951   1.874
 1186W        W67969  13.605  32.188   3.670
 1187W        W67970   6.749  15.406  12.077
 1188W        W67971  25.152  18.561   1.401
 1189W        W67972  28.744  43.794   4.162
 1190W        W67973   2.448   5.560  11.609
 1191W        W67974   6.209   4.334   2.254
 1192W        W67975  39.560  14.178  14.396
 1193W        W67976  23.602   4.718   5.417
 1194W        W67977   3.527  11.790   1.842
 1195W        W67978  19.529  14.246   4.018
 1196W        W67979  13.025  26.554  10.522
 1197W        W67980  17.797  34.878  12.591
 1198W        W67981  11.585  40.268   0.404
 1199W        W67982  30.691  40.430   2.249
 1200W        W67983  42.073   4.255   2.619
 1201W        W67984  39.047  39.628  14.273
 1202W        W67985   2.664   9.199   2.693
 1203W        W67986  44.880  31.621  11.427
 1204W        W67987  30.886  20.500  12.108
 1205W        W67988  38.829  10.354  12.846
 1206W        W67989  31.517   6.724   4.169
 1207W        W67990  22.543  13.233   4.978
 1208W        W67991  35.779   9.928  14.463
 1209W        W67992  33.968   8.771  13.845
 1210W        W67993   6.273  41.089  11.553
 1211W        W67994  31.422  41.972  12.124
 1212W        W67995  43.508   3.018   2.250
 1213W        W67996  14.772  44.490  14.876
 1214W        W67997  28.818  19.174   0.893
 1215W        W67998  25.162  23.265  12.411
 1216W        W67999  40.053   1.465  11.125
 1217W        W68000  18.208  22.247  13.357
 1218W        W68001   0.173   5.089   0.915
 1219W        W68002  18.255   2.943   2.299
 1220W        W68003   3.832   3.879   2.513
 1221W        W68004  25.681  33.673   3.285
 1222W        W68005   5.348   5.943   2.757
 1223W        W68006   2.157  27.763   2.397
 1224W        W68007  11.943   3.523   4.705
 1225W        W68008  26.295  25.669  14.900
 1226W        W68009  37.274   9.610  14.230
 1227W        W68010  30.124  24.202   2.646
 1228W        W68011   6.178  35.294   2.613
 1229W        W68012   8.322  25.490   1.462
 1230W        W68013   5.756   2.298   2.291
 1231W        W68014  37.059   5.262   4.519
 1232W        W68015  23.240  19.893   0.576
 1233W        W68016  42.975  14.156   0.258
 1234W        W68017   8.557  37.279   3.266
 1235W        W68018   5.313  31.323  13.756
 1236W        W68019   0.898  31.854  11.701
 1237W        W68020  33.868   4.156   4.037
 1238W        W68021  30.874  24.691  13.814
 1239W        W68022  38.554  34.993  12.122
 1240W        W68023  27.689  36.889   0.769
 1241W        W68024  26.350  24.650  12.394
 1242W        W68025  25.988  26.670  11.560
 1243W        W68026  13.315   8.635   5.008
 1244W        W68027  23.854   1.193  10.850
 1245W        W68028  27.388  25.194  12.549
 1246W        W68029  42.934  21.193   2.463
 1247W        W68030  26.099   9.602   3.182
 1248W        W68031  27.133  43.769  12.007
 1249W        W68032  31.570  16.324  13.540
 1250W        W68033  25.240  36.213   2.567
 1251W        W68034  40.202  31.160  12.523
 1252W        W68035  16.186   3.329   3.712
 1253W        W68036  41.060  12.004  11.158
 1254W        W68037   1.388  14.141   4.497
 1255W        W68038  38.566  29.119  11.510
 1256W        W68039   2.109  28.945   1.819
 1257W        W68040  27.661  18.055  12.116
 1258W        W68041  12.211  35.575  11.587
 1259W        W68042  13.999  38.722  10.760
 1260W        W68043  34.517  33.680   2.223
 1261W        W68044  29.646   6.832  11.144
 1262W        W68045  11.556   4.546  10.247
 1263W        W68046  13.893  31.217   0.422
 1264W        W68047  15.511  14.607   2.675
 1265W        W68048  10.810  18.825  14.423
 1266W        W68049  44.401  17.603  14.993
 1267W        W68050   2.715  29.994  13.846
 1268W        W68051  31.558  35.099   3.896
 1269W        W68052   9.243  28.151   1.868
 1270W        W68053  37.351   4.963   1.561
 1271W        W68054  40.413  25.734   0.782
 1272W        W68055  43.043   8.531   2.842
 1273W        W68056  17.009  37.605  13.800
 1274W        W68057  18.428   7.399   4.585
 1275W        W68058  35.543  40.444  10.465
 1276W        W68059  11.184   7.247   1.336
 1277W        W68060   5.732  32.383  11.472
 1278W        W68061  32.858  30.861  12.641
 1279W        W68062  35.938  27.052  10.393
 1280W        W68063   7.756  33.992  14.872
 1281W        W68064  26.768  37.303  12.134
 1282W        W68065  12.745  29.418  12.900
 1283W        W68066  20.261  43.825  10.464
 1284W        W68067  34.422  32.339   3.643
 1285W        W68068  21.544  18.405   2.265
 1286W        W68069  19.799  36.468  13.802
 1287W        W68070   5.331  38.548   2.934
 1288W        W68071  31.448   0.222   2.789
 1289W        W68072  35.545   1.259   2.568
 1290W        W68073  42.574  36.823   4.756
 1291W        W68074  18.823  13.166  10.577
 1292W        W68075   5.374  35.609   4.369
 1293W        W68076  21.668   9.888   1.369
 1294W        W68077   3.058  24.853   4.313
 1295W        W68078   5.879  17.106   1.996
 1296W        W68079   0.012  10.424  14.876
 1297W        W68080  25.646  23.263   2.709
 1298W        W68081  12.376  41.798   2.660
 1299W        W68082  15.799  20.094  13.308
 1300W        W68083  37.017  30.235  14.833
 1301W        W68084   6.290  21.321   0.270
 1302W        W68085   3.672   3.857  14.004
 1303W        W68086  21.734  44.370  11.935
 1304W        W68087   3.947   4.046  11.582
 1305W        W68088   9.446  35.781   1.497
 1306W        W68089  15.565  32.794   4.118
 1307W        W68090  12.762  15.814  11.092
 1308W        W68091  28.657   0.406   0.878
 1309W        W68092  23.123  11.843  13.398
 1310W        W68093  16.341  23.191  14.085
 1311W        W68094  26.836  41.974  14.129
 1312W        W68095   8.812   4.826  14.923
 1313W        W68096  42.925  43.325  11.688
 1314W        W68097  26.942  40.907  11.212
 1315W        W68098  23.766   7.273  13.838
 1316W        W68099  12.856   7.976  11.602
 1317W        W68100  23.568   2.642   0.258
 1318W        W68101  28.996  36.397   4.016
 1319W        W68102  20.462  30.465  13.155
 1320W        W68103  27.107  22.247  12.899
 1321W        W68104  43.356  30.417   4.555
 1322W        W68105   0.503  19.645   4.341
 1323W        W68106  19.920  10.734  10.838
 1324W        W68107   4.377  16.563   2.223
 1325W        W68108  11.387   7.940   0.975
 1326W        W68109  27.286   3.934  10.799
 1327W        W68110   1.369   6.769  13.949
 1328W        W68111  17.154  40.815  12.684
 1329W        W68112  11.475  36.946   3.236
 1330W        W68113  10.395   7.659   1.260
 1331W        W68114  31.164   1.241   4.298
 1332W        W68115  15.171  15.384   3.683
 1333W        W68116   2.216  32.520  14.532
 1334W        W68117  15.219   3.342  14.606
 1335W        W68118  15.742  31.978   1.377
 1336W        W68119  25.060  12.675   4.019
 1337W        W68120  20.593  44.405   3.167
 1338W        W68121  24.035  11.852   1.317
 1339W        W68122  26.517   6.848   2.250
 1340W        W68123  21.466  29.838   5.058
 1341W        W68124  43.073  23.518  12.174
 1342W        W68125  32.528   3.358  11.621
 1343W        W68126  16.699  38.610   1.956
 1344W        W68127  34.541  39.024   3.634
 1345W        W68128   7.354  29.868   1.292
 1346W        W68129   4.227   3.814  11.932
 1347W        W68130  32.074  33.452   2.675
 1348W        W68131  40.422  22.519  11.982
 1349W        W68132   0.294   8.978   2.858
 1350W        W68133  22.563  26.097   3.076
 1351W        W68134  36.624  37.978  12.396
 1352W        W68135  20.666  11.718  12.150
 1353W        W68136  33.579   0.082   2.998
 1354W        W68137  35.041  11.194   0.758
 1355W        W68138  39.347  34.693  13.911
 1356W        W68139  16.753  30.201   2.101
 1357W        W68140  42.191   8.257  13.982
 1358W        W68141  17.978  27.553  14.423
 1359W        W68142  30.164  10.307   1.243
 1360W        W68143  20.126  12.787  13.982
 1361W        W68144  33.466  11.628  14.256
 1362W        W68145  43.871  41.290  14.563
 1363W        W68146  44.644  34.664  13.865
 1364W        W68147   2.569   2.203   4.586
 1365W        W68148  23.672  38.552  12.144
 1366W        W68149  21.026  43.542  11.509
 1367W        W68150   2.453  16.666   1.688
 1368W        W68151   9.142   2.814  12.892
 1369W        W68152   6.849  10.809   1.734
 1370W        W68153  25.919  15.625   1.433
 1371W        W68154  24.508  42.470  13.948
 1372W        W68155   6.921  38.516   3.243
 1373W        W68156  44.048  17.322   4.876
 1374W        W68157  41.791  42.993   2.520
 1375W        W68158   2.009  44.139  11.154
 1376W        W68159  42.037   3.714  11.112
 1377W        W68160  32.383  22.574   4.591
 1378W        W68161  30.029  18.627   0.766
 1379W        W68162  19.103  12.272   2.819
 1380W        W68163  27.193  18.097  14.317
 1381W        W68164  18.237  43.706  14.241
 1382W        W68165  26.150  30.933   2.379
 1383W        W68166  21.474  38.308   1.285
 1384W        W68167  10.302  27.024   1.865
 1385W        W68168  34.635  40.412  12.120
 1386W        W68169   6.328  17.594   0.902
 1387W        W68170  30.034  39.982  14.396
 1388W        W68171  31.173  21.245  13.584
 1389W        W68172  23.478  40.090  14.465
 1390W        W68173  24.866  27.842   0.008
 1391W        W68174   8.608  29.022   4.768
 1392W        W68175  28.132  23.672   4.085
 1393W        W68176  24.284  12.725   5.043
 1394W        W68177  34.608  41.355  12.753
 1395W        W68178  32.956   7.925  11.664
 1396W        W68179  43.444  36.041  13.387
 1397W        W68180  32.612  24.773   2.254
 1398W        W68181   4.251  26.676  10.303
 1399W        W68182  41.835  14.280  14.037
 1400W        W68183  38.059  41.500  14.321
 1401W        W68184  23.091  27.614   0.209
 1402W        W68185  14.904  12.697   0.604
 1403W        W68186  20.130  10.166  14.318
 1404W        W68187  14.757  17.204   3.680
 1405W        W68188  12.181  12.306  11.376
 1406W        W68189   0.228  40.316   4.400
 1407W        W68190  34.405  30.092   4.681
 1408W        W68191  31.676   8.650   3.083
 1409W        W68192  40.476  11.666   0.470
 1410W        W68193  17.031  42.438  12.637
 1411W        W68194  13.582  32.878  13.387
 1412W        W68195   8.867   9.361  10.407
 1413W        W68196  27.533   6.831   3.971
 1414W        W68197  30.517   6.670  11.533
 1415W        W68198  14.921  40.947  13.439
 1416W        W68199  19.037   2.897  11.689
 1417W        W68200  25.077  18.788  10.499
 1418W        W68201  40.288  42.030   3.187
 1419W        W68202  20.305   3.842   4.872
 1420W        W68203  24.172  44.449   4.484
 1421W        W68204  36.876  19.520   3.135
 1422W        W68205  25.895  10.617   1.371
 1423W        W68206  24.700  22.506  14.071
 1424W        W68207  23.039  43.409  12.977
 1425W        W68208   4.920  41.426  12.055
 1426W        W68209  36.457   1.443  14.925
 1427W        W68210  15.601  13.768   4.095
 1428W        W68211   3.198  14.345  12.439
 1429W        W68212  25.186   9.555  14.446
 1430W        W68213  13.769  22.581  14.413
 1431W        W68214  44.967   5.763   2.792
 1432W        W68215  30.618  16.211  12.596
 1433W        W68216  23.444  22.749   5.242
 1434W        W68217  36.961  32.352   2.416
 1435W        W68218  23.434  28.248  14.328
 1436W        W68219   4.317   1.068   3.596
 1437W        W68220  28.570   9.952  14.776
 1438W        W68221   7.549  12.215  12.531
 1439W        W68222  19.182   7.419  11.606
 1440W        W68223  13.558   4.878   0.457
 1441W        W68224   8.935  36.734   4.700
 1442W        W68225  33.864  28.049   0.432
 1443W        W68226   3.399  17.568  11.768
 1444W        W68227  19.973  37.068   0.651
 1445W        W68228  32.082  23.602   0.980
 1446W        W68229  36.794  25.571  13.444
 1447W        W68230   6.050  37.930   4.560
 1448W        W68231  36.784   8.261  13.024
 1449W        W68232  27.544  14.235   4.598
 1450W        W68233  12.356  12.422   2.785
 1451W        W68234  37.059   6.252  10.722
 1452W        W68235   3.665  33.685  14.433
 1453W        W68236  41.180  26.482   1.314
 1454W        W68237  29.226  40.291   4.954
 1455W        W68238  13.709  29.020  11.208
 1456W        W68239   6.222   4.875  10.119
 1457W        W68240  33.389   4.814  14.826
 1458W        W68241  21.114  15.183   1.459
 1459W        W68242  37.512  27.693  11.546
 1460W        W68243  24.522  35.970   0.002
 1461W        W68244   7.002  40.949   3.200
 1462W        W68245   5.329  32.169  10.232
 1463W        W68246  18.229   3.708   1.877
 1464W        W68247  29.801  27.743   4.676
 1465W        W68248   9.080  17.954  14.136
 1466W        W68249  13.904  25.155  11.127
 1467W        W68250  35.022  10.426   4.315
 1468W        W68251  16.502  18.134  12.522
 1469W        W68252  36.847   3.235   4.195
 1470W        W68253   8.173  18.871   0.447
 1471W        W68254  14.591  22.786   3.083
 1472W        W68255  14.868  31.484  13.392
 1473W        W68256  12.528  32.334  11.078
 1474W        W68257   1.287   9.478  10.194
 1475W        W68258  37.536  29.871   1.673
 1476W        W68259  37.418   5.900  10.719
 1477W        W68260  33.376   1.678   2.228
 1478W        W68261  18.565  29.994  10.644
 1479W        W68262  19.615  35.845   3.187
 1480W        W68263  34.925  33.465   3.938
 1481W        W68264  22.180   9.181   0.181
 1482W        W68265  32.828  41.436   1.768
 1483W        W68266  42.914   7.223   1.658
 1484W        W68267  31.525  44.376  13.373
 1485W        W68268  25.496  12.501   4.741
 1486W        W68269  21.037   9.171  13.840
 1487W        W68270  21.316  35.184  11.460
 1488W        W68271  14.744  31.077   0.971
 1489W        W68272  20.032  35.616   1.286
 1490W        W68273  40.843  44.223   4.097
 1491W        W68274  28.368   2.260   0.731
 1492W        W68275  40.796   8.719   0.884
 1493W        W68276  36.601  21.273  10.296
 1494W        W68277  27.676   7.892   2.592
 1495W        W68278   9.212  39.944   4.493
 1496W        W68279  28.979  34.511   3.661
 1497W        W68280  34.717  11.082   1.659
 1498W        W68281  12.323  11.101  12.929
 1499W        W68282  24.209  23.551   4.967
 1500W        W68283  41.583   4.719   2.324
 1501W        W68284  28.486  43.893   1.756
 1502W        W68285  34.299  13.103  12.594
 1503W        W68286   4.120  21.076  14.376
 1504W        W68287  42.420  44.395  10.739
 1505W        W68288  29.354   2.244  11.610
 1506W        W68289   7.688  28.143   3.568
 1507W        W68290   4.417  35.319  10.712
 1508W        W68291   4.777  42.903   1.761
 1509W        W68292  17.290   3.362  10.278
 1510W        W68293  17.037  43.409   0.305
 1511W        W68294   4.775   7.853  10.676
 1512W        W68295  33.867  41.893  12.197
 1513W        W68296  42.346  44.444  13.854
 1514W        W68297   6.005  13.677   2.319
 1515W        W68298  16.058  29.365  13.039
 1516W        W68299   6.894  31.908   1.940
 1517W        W68300  10.800   7.720   3.126
 1518W        W68301  44.371  33.605   5.048
 1519W        W68302  44.772  30.635  12.332
 1520W        W68303  24.043  38.916   1.964
 1521W        W68304  20.660   1.892  13.572
 1522W        W68305  17.658   0.327   4.912
 1523W        W68306   8.589  12.211  14.402
 1524W        W68307   1.881  27.069  11.671
 1525W        W68308  41.435  26.307  12.902
 1526W        W68309  24.053  21.804   1.811
 1527W        W68310  27.761  12.553   4.134
 1528W        W68311  38.777  34.855   2.790
 1529W        W68312  17.699  17.382  12.612
 1530W        W68313  36.593  31.973  14.213
 1531W        W68314  22.158  32.691   0.389
 1532W        W68315  41.613   1.698  13.431
 1533W        W68316   8.404  31.488   0.788
 1534W        W68317  43.712  17.562   4.151
 1535W        W68318  14.823  43.328  14.022
 1536W        W68319  10.957  11.113  14.102
 1537W        W68320  10.445   9.173   2.317
 1538W        W68321  37.473  16.579  12.401
 1539W        W68322   1.275  44.643  11.159
 1540W        W68323  33.032  17.659   2.757
 1541W        W68324  35.539  15.350  14.081
 1542W        W68325  29.439  30.618   1.303
 1543W        W68326  25.688   3.390  10.259
 1544W        W68327  21.533   9.628  11.670
 1545W        W68328   4.884  22.237  12.298
 1546W        W68329  39.358  11.805  11.215
 1547W        W68330  29.593  21.420  11.873
 1548W        W68331  27.807  22.671   4.435
 1549W        W68332   1.325  13.021  12.459
 1550W        W68333  32.446  10.087  14.357
 1551W        W68334  23.643  30.942   0.228
 1552W        W68335  20.438  22.899  13.460
 1553W        W68336  37.038   9.469   0.956
 1554W        W68337  42.889  19.065  12.214
 1555W        W68338  40.979  22.090  12.578
 1556W        W68339  16.125  36.112  11.143
 1557W        W68340   4.584   9.224  11.233
 1558W        W68341  14.007  10.754   2.305
 1559W        W68342   3.777  36.677  12.060
 1560W        W68343  22.113  13.288  13.060
 1561W        W68344  20.734  29.022   3.355
 1562W        W68345   0.848   7.700  13.529
 1563W        W68346   2.876  24.539  12.074
 1564W        W68347  16.207  34.096   4.099
 1565W        W68348   0.426   3.162   1.742
 1566W        W68349   0.746  37.907  13.157
 1567W        W68350   3.914  25.056   3.716
 1568W        W68351  16.151  42.114   1.752
 1569W        W68352  34.592  28.383  11.051
 1570W        W68353  12.198   5.813   0.030
 1571W        W68354  36.951  19.747  12.884
 1572W        W68355  22.787  26.285  13.439
 1573W        W68356   2.403  22.909   3.532
 1574W        W68357  10.926  28.257  14.677
 1575W        W68358   2.903  26.151  13.866
 1576W        W68359  28.390  16.189  13.580
 1577W        W68360  12.849  35.997   2.850
 1578W        W68361  35.828  32.371  13.056
 1579W        W68362  14.296  17.824   0.060
 1580W        W68363  17.012  32.033  14.830
 1581W        W68364  31.945  12.831  13.362
 1582W        W68365  10.407   9.263  13.328
 1583W        W68366  38.462  27.115  11.383
 1584W        W68367   9.239  10.331   0.782
 1585W        W68368  17.311   2.428  10.065
 1586W        W68369  20.629  22.931   3.338
 1587W        W68370  39.860  17.645   2.135
 1588W        W68371  16.774  22.993   2.185
 1589W        W68372  11.127   7.572  11.146
 1590W        W68373   4.035  44.450   4.478
 1591W        W68374  29.706   0.450  14.009
 1592W        W68375   0.353   6.909   1.866
 1593W        W68376  42.316   6.289   5.317
 1594W        W68377   7.760  33.373   3.262
 1595W        W68378  39.553  37.833   2.249
 1596W        W68379  21.308   9.781   0.919
 1597W        W68380  26.518  39.803  13.070
 1598W        W68381   9.357  27.897  13.121
 1599W        W68382  38.268  24.639  13.921
 1600W        W68383   8.364  41.637  13.985
 1601W        W68384  14.701  23.147   0.004
 1602W        W68385  13.523   1.425   0.833
 1603W        W68386  40.414  12.501  11.465
 1604W        W68387  20.779  26.170   4.673
 1605W        W68388  22.394  19.140  10.658
 1606W        W68389  30.220  43.895  14.371
 1607W        W68390   6.200  43.522   0.845
 1608W        W68391  19.646   2.681   4.946
 1609W        W68392  34.964   8.503   5.329
 1610W        W68393  12.611   8.207  12.986
 1611W        W68394  31.335  19.266  12.606
 1612W        W68395  37.844  43.119  11.387
 1613W        W68396  21.202  20.970   4.217
 1614W        W68397  17.389  20.157   2.612
 1615W        W68398   6.170  37.895  14.017
 1616W        W68399  39.768  33.472   2.390
 1617W        W68400  10.249   8.403   0.209
 1618W        W68401  19.683  30.244   3.179
 1619W        W68402  24.715  42.165  12.829
 1620W        W68403   9.108   7.915   0.932
 1621W        W68404  16.041  18.044  14.912
 1622W        W68405  14.232  28.464  14.224
 1623W        W68406  40.421  23.791  14.797
 1624W        W68407  19.779  31.054   1.750
 1625W        W68408   5.835  17.936   3.658
 1626W        W68409  37.003  27.507   4.561
 1627W        W68410  17.902  20.179   2.754
 1628W        W68411  29.478  17.867   0.336
 1629W        W68412  19.193  22.512   2.486
 1630W        W68413  19.280  20.905  12.641
 1631W        W68414  20.058  23.719  13.986
 1632W        W68415  33.650   5.770  13.792
 1633W        W68416  27.037   0.881  12.207
 1634W        W68417   7.436  35.686  12.952
 1635W        W68418  24.365  20.671  14.552
 1636W        W68419   2.917   7.531  13.504
 1637W        W68420  41.587  35.547  11.621
 1638W        W68421   6.903  11.786   1.208
 1639W        W68422  21.073  38.955  11.159
 1640W        W68423  22.554  44.916  12.663
 1641W        W68424   3.824  40.598  11.953
 1642W        W68425  19.349  33.168   0.356
 1643W        W68426  33.506  43.858   0.992
 1644W        W68427  29.080  16.276   3.586
 1645W        W68428  43.337  41.040   0.256
 1646W        W68429  34.688  22.548   3.741
 1647W        W68430  31.353  12.448   0.204
 1648W        W68431  24.717   0.857  10.735
 1649W        W68432   1.032   6.994  14.449
 1650W        W68433  11.242  39.396  13.061
 1651W        W68434  35.429  11.766   3.559
 1652W        W68435  43.981  19.774  11.639
 1653W        W68436  17.751  42.088  13.025
 1654W        W68437  21.152  26.694   3.926
 1655W        W68438  40.930   3.246  12.614
 1656W        W68439  24.996   0.343   2.743
 1657W        W68440  14.336  11.178  13.288
 1658W        W68441   2.623  14.972   2.831
 1659W        W68442   2.755   8.617  13.956
 1660W        W68443  17.654  16.961   0.057
 1661W        W68444   6.399  43.026  13.639
 1662W        W68445  10.264  20.244   1.452
 1663W        W68446  39.463   3.867  13.560
 1664W        W68447  30.067   2.518  10.792
 1665W        W68448  13.611  24.567  13.165
 1666W        W68449  43.365   6.051   9.746
 1667W        W68450   9.289  27.421  12.872
 1668W        W68451  38.677   8.743  10.176
 1669W        W68452  15.093  39.912   2.642
 1670W        W68453   2.523  11.395  14.271
 1671W        W68454  20.459   4.272   4.575
 1672W        W68455  27.437  21.589   0.780
 1673W        W68456  17.632  38.818   0.740
 1674W        W68457  44.429  16.294   4.135
 1675W        W68458  15.312  14.311   0.808
 1676W        W68459   0.911  22.991   4.654
 1677W        W68460  21.683   1.458  12.144
 1678W        W68461   1.424   7.619  14.976
 1679W        W68462  10.831  44.965  10.736
 1680W        W68463   9.190  26.195   0.035
 1681W        W68464   0.671  28.871  12.008
 1682W        W68465  39.562  36.405  10.752
 1683W        W68466  26.702  21.942  10.754
 1684W        W68467  10.696  17.089  10.674
 1685W        W68468   4.948   4.180  12.965
 1686W        W68469  11.793  40.727   3.156
 1687W        W68470  44.550  42.846  13.945
 1688W        W68471   4.676  21.209   0.324
 1689W        W68472  13.177  39.090  13.098
 1690W        W68473  12.790  20.315   1.346
 1691W        W68474   1.485   1.833  10.621
 1692W        W68475  22.870   6.658   1.814
 1693W        W68476  27.089  43.052   0.345
 1694W        W68477  31.973   9.406   4.529
 1695W        W68478  13.247  42.972   3.289
 1696W        W68479  43.879  42.437   3.941
 1697W        W68480  37.193  34.448  10.805
 1698W        W68481   6.433  29.992   3.245
 1699W        W68482  14.630  16.610   4.517
 1700W        W68483  15.643  42.045   0.426
 1701W        W68484  18.995  32.075  14.491
 1702W        W68485  25.464  31.516  11.601
 1703W        W68486   0.833   7.857   1.894
 1704W        W68487  28.550  40.131   2.637
 1705W        W68488  18.257  13.366  12.457
 1706W        W68489  18.893  14.730   1.786
 1707W        W68490  33.502  11.440  12.424
 1708W        W68491   0.794   2.535   4.199
 1709W        W68492  25.843   2.785   3.834
 1710W        W68493  19.165  14.705   3.483
 1711W        W68494  12.295  13.603   0.863
 1712W        W68495  34.107  24.742  12.038
 1713W        W68496   2.798  21.239   4.168
 1714W        W68497  10.258   3.797  14.529
 1715W        W68498  28.145  43.223   3.146
 1716W        W68499  19.776  22.242  13.448
 1717W        W68500  28.865  34.163  12.206
 1718W        W68501  16.194  32.991  12.602
 1719W        W68502  44.035   8.181  12.290
 1720W        W68503  36.176  29.053   4.038
 1721W        W68504  12.658   2.480  10.686
 1722W        W68505  13.208  30.104   0.033
 1723W        W68506  24.012  26.648   2.140
 1724W        W68507  37.464  23.741   4.748
 1725W        W68508  12.846  19.005  12.422
 1726W        W68509  27.267  32.638   3.304
 1727W        W68510  39.859   0.957   4.305
 1728W        W68511  22.027  14.639  11.071
 1729W        W68512  16.513   3.712  14.080
 1730W        W68513  29.947  38.114  14.909
 1731W        W68514  27.966   0.275   0.430
 1732W        W68515   6.177  26.892   0.810
 1733W        W68516  37.674  32.826  14.158
 1734W        W68517  18.472  27.851  11.146
 1735W        W68518  27.285  12.871   0.302
 1736W        W68519   1.387   4.859   3.814
 1737W        W68520  17.065  30.154  14.458
 1738W        W68521  40.037  11.123  10.600
 1739W        W68522  28.360  42.348   3.161
 1740W        W68523  27.168  33.609  14.052
 1741W        W68524  42.843  26.599  11.091
 1742W        W68525  16.679  44.465  11.565
 1743W        W68526  34.010  38.821   4.674
 1744W        W68527  27.078   0.273  13.807
 1745W        W68528  42.263   6.817   5.399
 1746W        W68529  38.985  22.418  13.032
 1747W        W68530  14.860  24.100  11.065
 1748W        W68531  24.832  40.500   1.804
 1749W        W68532   2.119  39.412   0.858
 1750W        W68533  28.641  36.343   3.581
 1751W        W68534  36.865  31.088  13.939
 1752W        W68535   0.763   3.763  13.534
 1753W        W68536  33.598  29.591  14.858
 1754W        W68537   2.860  15.290  14.077
 1755W        W68538   2.798  42.309   3.814
 1756W        W68539  23.119  37.258   2.238
 1757W        W68540  11.996  38.336   4.289
 1758W        W68541  30.197   3.284  13.085
 1759W        W68542   9.208  41.284   2.740
 1760W        W68543  34.454  34.152  14.022
 1761W        W68544  20.299  40.119   0.271
 1762W        W68545  42.276  37.882  11.469
 1763W        W68546  39.870  28.417   1.872
 1764W        W68547   2.034  23.194   2.711
 1765W        W68548   2.796  18.670  10.523
 1766W        W68549  12.330   9.240   2.759
 1767W        W68550  38.137  31.574  11.065
 1768W        W68551  21.830  39.139  11.499
 1769W        W68552   9.636  42.028  14.280
 1770W        W68553  33.589  20.086   0.289
 1771W        W68554   2.735  22.908  14.338
 1772W        W68555   9.561  33.113  14.365
 1773W        W68556  10.416   7.865  12.040
 1774W        W68557   7.509  12.822  13.383
 1775W        W68558  14.922  42.931  12.695
 1776W        W68559  19.782  36.980  10.775
 1777W        W68560  10.539  12.178   0.864
 1778W        W68561  40.824   7.245   1.836
 1779W        W68562  10.817  40.479  13.919
 1780W        W68563  31.767  30.159  11.190
 1781W        W68564  29.900   6.801  12.530
 1782W        W68565  28.550  23.086   0.369
 1783W        W68566  44.394  22.303   0.721
 1784W        W68567  11.382   9.927   1.772
 1785W        W68568  36.126  17.707  13.822
 1786W        W68569  13.109  31.549  14.859
 1787W        W68570  32.738  25.175   1.335
 1788W        W68571  20.134  29.436   1.472
 1789W        W68572  25.651  41.871  11.545
 1790W        W68573  41.983   1.993  10.547
 1791W        W68574  17.317  39.980  12.989
 1792W        W68575   1.416  18.632  11.151
 1793W        W68576  16.608  13.597  10.928
 1794W        W68577   2.753  31.268  10.485
 1795W        W68578  18.622  32.684   4.530
 1796W        W68579  11.623   9.443   0.844
 1797W        W68580  23.459   5.697   3.222
 1798W        W68581  26.636  43.932  11.931
 1799W        W68582   9.886  36.019   1.729
 1800W        W68583   0.733  33.279   3.544
 1801W        W68584  34.444  21.629  12.464
 1802W        W68585  25.505  14.300   3.696
 1803W        W68586  30.097  29.666   4.026
 1804W        W68587   7.223  15.439   1.849
 1805W        W68588   5.670  27.573   4.158
 1806W        W68589  31.724  29.805  12.425
 1807W        W68590  16.421  41.806   2.646
 1808W        W68591  39.260  36.033  12.886
 1809W        W68592  28.958  29.514   1.292
 1810W        W68593  12.889  14.785  11.169
 1811W        W68594  29.126  31.608   2.445
 1812W        W68595   4.804  10.326  12.765
 1813W        W68596   1.350  31.729   5.236
 1814W        W68597  26.663   2.066   0.049
 1815W        W68598  19.024  36.115   2.386
 1816W        W68599  44.495  39.548  11.046
 1817W        W68600  11.077   5.502  11.376
 1818W        W68601   3.678  27.220  12.719
 1819W        W68602   5.808  10.829   2.007
 1820W        W68603  15.096  38.971   4.635
 1821W        W68604   3.698  22.785   2.340
 1822W        W68605  16.810  17.683   3.199
 1823W        W68606   0.046  15.494  14.422
 1824W        W68607  11.858  43.601   0.932
 1825W        W68608  28.254  36.067  12.994
 1826W        W68609  20.897   7.840  14.367
 1827W        W68610  18.321   9.892   4.724
 1828W        W68611   5.241  36.438  11.470
 1829W        W68612   0.327  31.349   0.549
 1830W        W68613  12.325   7.659   2.631
 1831W        W68614  37.007  27.203   3.630
 1832W        W68615  16.094  21.223   3.119
 1833W        W68616  27.171  20.705   3.785
 1834W        W68617   8.659  11.049   3.300
 1835W        W68618  17.913  19.706  13.149
 1836W        W68619  27.335   8.371   3.238
 1837W        W68620  16.792   9.374   0.225
 1838W        W68621   9.800  14.103  13.526
 1839W        W68622  26.048  15.182  12.154
 1840W        W68623  20.629  37.402   3.582
 1841W        W68624  39.428  31.864   0.435
 1842W        W68625  36.438  43.459  14.404
 1843W        W68626   9.368  33.589  14.467
 1844W        W68627  44.306  44.639   4.520
 1845W        W68628  34.089  11.580  10.162
 1846W        W68629  25.194   7.844   0.282
 1847W        W68630  26.734  42.525  10.762
 1848W        W68631   8.281  36.338   3.606
 1849W        W68632  18.261   1.522  14.435
 1850W        W68633  32.343   5.982  11.071
 1851W        W68634  26.078  37.356  14.991
 1852W        W68635  36.621  16.290  14.282
 1853W        W68636   7.922  11.295  14.426
 1854W        W68637  33.709  31.156  11.644
 1855W        W68638  43.003  24.526   3.080
 1856W        W68639  31.830  29.527  12.869
 1857W        W68640  15.852  10.832   3.678
 1858W        W68641  23.545  44.912  12.855
 1859W        W68642   9.685  29.503  10.765
 1860W        W68643  14.558  22.152   3.636
 1861W        W68644   2.724   2.018  12.067
 1862W        W68645   6.879  18.103  11.467
 1863W        W68646  35.044  38.609   1.431
 1864W        W68647  25.459  37.124   1.130
 1865W        W68648   3.393  17.702   4.678
 1866W        W68649  13.307  33.025  10.641
 1867W        W68650  30.841  38.408   4.537
 1868W        W68651  14.278   7.574   0.354
 1869W        W68652  21.861  36.889   3.099
 1870W        W68653  30.518  22.164  14.330
 1871W        W68654  31.559  34.893  11.921
 1872W        W68655  11.450  14.464  12.373
 1873W        W68656  37.899  44.673  13.278
 1874W        W68657  30.441  38.033   1.662
 1875W        W68658   5.485  15.448   1.256
 1876W        W68659   3.735  17.726  14.052
 1877W        W68660   3.752  15.117  13.483
 1878W        W68661  16.106  17.213  11.941
 1879W        W68662  33.216  33.495   1.698
 1880W        W68663  18.263  17.202   3.692
 1881W        W68664   2.955  35.474  13.005
 1882W        W68665   9.847  41.442  11.069
 1883W        W68666  40.569   4.107  13.066
 1884W        W68667  32.596  34.060  12.601
 1885W        W68668  17.531  24.224  11.998
 1886W        W68669   1.854  12.860  10.552
 1887W        W68670  25.676  43.530  14.866
 1888W        W68671   4.828   5.766  10.826
 1889W        W68672   5.275  23.955  13.047
 1890W        W68673   8.300   5.718  10.954
 1891W        W68674  31.688  19.600   0.786
 1892W        W68675  25.563  34.179  12.002
 1893W        W68676  33.420   0.864   3.519
 1894W        W68677  11.349  22.588   0.694
 1895W        W68678  32.242  36.115  12.114
 1896W        W68679  41.817  42.401  14.828
 1897W        W68680  23.680  28.414  10.578
 1898W        W68681   2.995  24.521  12.950
 1899W        W68682  20.555  30.980  14.528
 1900W        W68683  18.541   9.327   1.910
 1901W        W68684  14.889   4.308   0.396
 1902W        W68685   8.905  33.903  13.764
 1903W        W68686  39.468  31.775   2.443
 1904W        W68687   2.296  17.197   0.428
 1905W        W68688  42.320  18.011   4.640
 1906W        W68689  23.210  17.782  12.082
 1907W        W68690  32.964  11.342  12.383
 1908W        W68691   2.952  11.176   3.164
 1909W        W68692  32.039  34.682  12.086
 1910W        W68693  40.424   8.563  13.296
 1911W        W68694   8.016  13.052  14.451
 1912W        W68695  25.473   0.899   0.410
 1913W        W68696  34.712  24.213   1.272
 1914W        W68697  44.006  12.893  11.568
 1915W        W68698  25.836  17.012  13.787
 1916W        W68699  24.611  41.939   1.606
 1917W        W68700  44.031   0.995   3.938
 1918W        W68701  43.426  13.777   3.129
 1919W        W68702  32.604  23.094   9.908
 1920W        W68703   8.143  37.871  11.535
 1921W        W68704  14.286  34.387  14.431
 1922W        W68705   4.464  14.095   0.419
 1923W        W68706  35.026  43.638  12.308
 1924W        W68707  12.742  21.799   4.935
 1925W        W68708  21.238  18.797  13.898
 1926W        W68709   3.252   5.690   2.816
 1927W        W68710  20.364  40.452  12.154
 1928W        W68711  28.937  22.288  11.228
 1929W        W68712   7.438  30.667   2.815
 1930W        W68713   4.354  22.438  13.031
 1931W        W68714  40.014  42.940  11.909
 1932W        W68715  12.082  14.162   3.572
 1933W        W68716  34.201  42.783  14.099
 1934W        W68717  17.964  17.417   2.366
 1935W        W68718   4.926  44.319  12.105
 1936W        W68719  17.344  42.693  10.361
 1937W        W68720  16.364   0.380  11.937
 1938W        W68721   4.609   5.386  13.537
 1939W        W68722  28.285  31.684  12.248
 1940W        W68723  33.376  36.376  13.484
 1941W        W68724  27.150  23.497   2.464
 1942W        W68725  15.227  38.476   4.552
 1943W        W68726  17.728   2.201  11.993
 1944W        W68727  36.484  19.302   0.385
 1945W        W68728   2.457  16.135  13.587
 1946W        W68729   0.566  11.658   3.660
 1947W        W68730  10.590   1.518   2.708
 1948W        W68731   5.059  20.034   2.252
 1949W        W68732  41.339  20.623   2.958
 1950W        W68733  36.016  19.329   1.013
 1951W        W68734  43.073  32.806   2.104
 1952W        W68735  17.349  17.686   1.732
 1953W        W68736  27.500  44.021  11.500
 1954W        W68737  28.852   9.890   3.426
 1955W        W68738  29.738   7.873   5.045
 1956W        W68739   7.319   7.917  12.179
 1957W        W68740  18.778  16.262   2.381
 1958W        W68741  18.559  12.093   1.499
 1959W        W68742  14.320  19.653  11.546
 1960W        W68743  33.010  28.170  14.947
 1961W        W68744  40.109  23.622  11.075
 1962W        W68745  18.016  31.372   1.405
 1963W        W68746  35.615  27.769  10.414
 1964W        W68747  32.147  37.868  11.531
 1965W        W68748  11.742  15.212  11.626
 1966W        W68749  40.028  28.626  13.772
 1967W        W68750   3.552   1.288  11.071
 1968W        W68751  21.276  11.632  10.850
 1969W        W68752  43.038  44.498  14.501
 1970W        W68753  43.868   6.156  12.953
 1971W        W68754  31.171  15.127   1.965
 1972W        W68755  19.781   0.798   1.840
 1973W        W68756  25.656  25.486  13.050
 1974W        W68757  14.414   4.039  11.347
 1975W        W68758  40.457   7.820  12.480
 1976W        W68759  15.200  11.355   3.593
 1977W        W68760  18.570  40.833  12.067
 1978W        W68761  25.535  10.095  12.115
 1979W        W68762  37.860  22.591   0.333
 1980W        W68763  42.970  42.382  11.902
 1981W        W68764   4.761  12.645   2.845
 1982W        W68765  20.358  20.236   1.264
 1983W        W68766  41.837  35.876  13.809
 1984W        W68767  38.523  43.968  14.789
 1985W        W68768  35.637   5.818   2.795
 1986W        W68769  43.984   1.496  11.215
 1987W        W68770   2.476  11.890  13.350
 1988W        W68771   3.938  20.512   0.933
 1989W        W68772  36.789   1.904  14.801
 1990W        W68773  21.004  34.259   0.911
 1991W        W68774  39.617   5.418   4.372
 1992W        W68775  24.774   4.017  14.798
 1993W        W68776  19.753  14.816  11.382
 1994W        W68777  23.608  13.718  13.939
 1995W        W68778  26.516  39.356   1.742
 1996W        W68779  44.706   8.766  13.939
 1997W        W68780  16.298  17.167  13.395
 1998W        W68781  13.651   4.918  12.541
 1999W        W68782  37.625  42.206   1.195
 2000W        W68783  31.997  34.480   3.695
 2001W        W68784  35.729  42.333  10.603
 2002W        W68785  15.701  19.764   3.262
 2003W        W68786  36.890  39.961  13.026
 2004W        W68787  16.696  24.355   2.167
 2005W        W68788  34.850  25.208  14.843
 2006W        W68789  26.537  33.606  12.383
 2007W        W68790  34.478   3.027  12.481
 2008W        W68791  17.083  19.450   1.487
 2009W        W68792  25.040  44.435  13.333
 2010W        W68793  42.296  44.078  12.814
 2011W        W68794   7.185  22.075   1.287
 2012W        W68795  15.405  15.143   4.072
 2013W        W68796  40.915  10.527  13.026
 2014W        W68797   3.061  11.888  11.615
 2015W        W68798  12.711  31.373   3.254
 2016W        W68799  32.888  38.579  14.318
 2017W        W68800  13.903  14.246  10.763
 2018W        W68801  41.585  33.895  12.090
 2019W        W68802  31.387  12.791   3.534
 2020W        W68803  38.198  19.614   5.048
 2021W        W68804  38.772   7.569   1.695
 2022W        W68805  16.658  18.006  14.294
 2023W        W68806  10.914  16.607   1.045
 2024W        W68807   2.749   5.435  13.383
 2025W        W68808  36.013  29.120   1.884
 2026W        W68809  42.821  10.417  11.060
 2027W        W68810  16.289  15.344   0.373
 2028W        W68811  27.144  38.893   0.751
 2029W        W68812  13.405  44.431   2.772
 2030W        W68813   8.501   0.824  13.467
 2031W        W68814  25.017  13.358   3.822
 2032W        W68815   2.944  35.660  10.772
 2033W        W68816   2.376   5.301   4.695
 2034W        W68817  14.808  15.203   2.748
 2035W        W68818  28.765   2.344   1.083
 2036W        W68819  13.144  23.436   3.238
 2037W        W68820  43.144  16.148   2.496
 2038W        W68821   7.853  33.107   3.691
 2039W        W68822   6.546  29.335   0.828
 2040W        W68823   9.804  21.561  14.664
 2041W        W68824  12.128   8.412   0.441
 2042W        W68825  19.729  32.511  13.369
 2043W        W68826  11.206   4.233  11.880
 2044W        W68827  26.219   6.544  11.054
 2045W        W68828  31.624   5.305   0.263
 2046W        W68829  11.079   0.646   1.836
 2047W        W68830   0.927  38.951   0.256
 2048W        W68831  14.384  44.468  10.717
 2049W        W68832  14.327  43.798  13.404
 2050W        W68833  31.137   7.666  12.922
 2051W        W68834  22.291  35.468  11.502
 2052W        W68835  17.202   3.788   4.112
 2053W        W68836  25.816  37.816  14.064
 2054W        W68837   7.812  25.149   1.856
 2055W        W68838   1.422  21.986  14.343
 2056W        W68839  44.144   5.262   4.562
 2057W        W68840  24.614  12.200   2.353
 2058W        W68841  15.298   6.419  10.716
 2059W        W68842  14.450  21.699   1.303
 2060W        W68843  20.481  23.718   0.875
 2061W        W68844  34.612   0.265  12.191
 2062W        W68845  11.690  38.322   4.723
 2063W        W68846  19.099  40.576  14.857
 2064W        W68847  10.192  10.391  12.185
 2065W        W68848  20.691  41.628   4.734
 2066W        W68849  22.433  16.885   0.333
 2067W        W68850  14.568  30.989   3.570
 2068W        W68851  23.297  17.250   1.711
 2069W        W68852  13.114  35.614  12.373
 2070W        W68853   7.334  36.994   3.556
 2071W        W68854   6.925  42.256  13.929
 2072W        W68855  25.605  26.535   3.757
 2073W        W68856  31.833  38.093  13.492
 2074W        W68857  38.609  15.364   0.845
 2075W        W68858  17.092   6.812   4.945
 2076W        W68859  28.684  29.935   1.417
 2077W        W68860   5.791  20.242  14.884
 2078W        W68861  18.777  27.673  12.135
 2079W        W68862   9.447  40.392   2.194
 2080W        W68863  44.344  25.161  13.385
 2081W        W68864  22.907  33.366   1.800
 2082W        W68865  10.406  33.094  12.049
 2083W        W68866  42.871   5.649   3.210
 2084W        W68867   2.380  44.650  11.818
 2085W        W68868  17.276  44.313   1.192
 2086W        W68869  44.770  25.207  10.708
 2087W        W68870   4.788   2.940  14.379
 2088W        W68871   8.781  13.404  11.944
 2089W        W68872  37.472  23.108   1.856
 2090W        W68873   6.338   3.423   2.252
 2091W        W68874  42.283  27.726  13.975
 2092W        W68875  19.030  38.794  14.782
 2093W        W68876  40.181  27.160   4.968
 2094W        W68877   7.188  13.423   3.566
 2095W        W68878  41.779  12.409   0.491
 2096W        W68879   5.449   4.758   4.548
 2097W        W68880  22.824  42.843  10.250
 2098W        W68881  19.731  39.950  14.531
 2099W        W68882  42.818  21.725   1.174
 2100W        W68883   0.338  31.862  13.967
 2101W        W68884  35.059  41.994   3.389
 2102W        W68885  27.765  27.096   3.231
 2103W        W68886  32.261  39.615  12.931
 2104W        W68887  34.285   5.735  14.653
 2105W        W68888  28.183  11.245  13.920
 2106W        W68889  26.201  20.471  10.642
 2107W        W68890  20.446  11.053   2.114
 2108W        W68891  34.469  30.649  11.631
 2109W        W68892   6.951  19.303  13.933
 2110W        W68893  19.966  15.671  11.072
 2111W        W68894  32.154  15.330  11.189
 2112W        W68895  10.734  28.678  11.147
 2113W        W68896  42.494  41.936  14.506
 2114W        W68897  12.074   9.491   4.050
 2115W        W68898   8.317  36.466  12.559
 2116W        W68899  28.727   2.894   4.535
 2117W        W68900   9.851   2.680   3.315
 2118W        W68901  11.428  10.623  13.952
 2119W        W68902  31.130  16.743  10.487
 2120W        W68903  16.352   7.003  12.869
 2121W        W68904  37.839   0.928  12.135
 2122W        W68905  12.327   1.269   3.258
 2123W        W68906  18.706  29.847   4.556
 2124W        W68907  35.937   8.217   0.466
 2125W        W68908  44.082  22.975   2.380
 2126W        W68909  38.733  30.401  12.431
 2127W        W68910  34.643   7.618   3.568
 2128W        W68911   0.071  30.562   4.932
 2129W        W68912  14.183  30.518  11.502
 2130W        W68913  36.671  26.912  14.430
 2131W        W68914   0.057   2.908  14.864
 2132W        W68915  19.137  43.152  14.860
 2133W        W68916   6.803   6.120  13.020
 2134W        W68917   1.253  10.158   1.110
 2135W        W68918  34.806  16.529   2.624
 2136W        W68919   1.755  16.944   1.247
 2137W        W68920  34.108   9.258   1.638
 2138W        W68921  36.578   0.739   3.423
 2139W        W68922  24.375   7.883   4.898
 2140W        W68923  32.806  19.543  10.621
 2141W        W68924  36.555  16.098  10.999
 2142W        W68925  18.264  35.286   3.376
 2143W        W68926  44.808  24.940   4.573
 2144W        W68927  15.660  28.691   4.663
 2145W        W68928  22.808  37.281  11.144
 2146W        W68929  24.242   5.325  12.564
 2147W        W68930  21.701  40.550   4.130
 2148W        W68931   4.277  25.680   3.620
 2149W        W68932  29.145  16.690  11.281
 2150W        W68933  40.836  16.226  12.485
 2151W        W68934  11.581  39.612  14.502
 2152W        W68935  19.053  21.016  14.070
 2153W        W68936  14.339  28.433   3.611
 2154W        W68937  31.686  36.908  12.913
 2155W        W68938  30.038  16.973   0.927
 2156W        W68939  40.964  12.801   1.302
 2157W        W68940  37.852  23.172   0.916
 2158W        W68941   8.940   8.074  13.388
 2159W        W68942  10.646  13.625   1.455
 2160W        W68943  13.216  10.630  13.581
 2161W        W68944  44.756   9.721  13.969
 2162W        W68945  19.887  35.911  12.103
 2163W        W68946   6.191   5.797   3.489
 2164W        W68947  36.925  41.523  12.023
 2165W        W68948   3.390  35.380  13.845
 2166W        W68949  21.093   2.485  14.524
 2167W        W68950  26.739  24.776  10.692
 2168W        W68951  21.101  33.961   1.959
 2169W        W68952  36.587   5.246   4.799
 2170W        W68953  19.037  22.747  14.735
 2171W        W68954   7.440   7.277   0.718
 2172W        W68955  17.191  32.373   2.580
 2173W        W68956  20.702   1.193   1.664
 2174W        W68957  25.761  21.141   1.701
 2175W        W68958  11.882  37.435  13.517
 2176W        W68959  13.636   6.726  13.064
 2177W        W68960  35.378   3.183  11.101
 2178W        W68961  32.343  20.441   0.895
 2179W        W68962  24.749  36.176  13.366
 2180W        W68963  42.226  44.401   0.818
 2181W        W68964  22.924  35.341  12.143
 2182W        W68965  12.310  13.201   0.534
 2183W        W68966  27.537   1.916   3.219
 2184W        W68967   5.027  42.853  14.397
 2185W        W68968  23.526  32.988  14.958
 2186W        W68969  14.719  19.740   4.463
 2187W        W68970  37.758  24.240   1.601
 2188W        W68971  16.662  31.927  13.522
 2189W        W68972  26.196  11.898   2.209
 2190W        W68973  40.779  24.034   3.280
 2191W        W68974  25.044  16.206  10.702
 2192W        W68975  17.123  21.189   0.833
 2193W        W68976  27.728   6.313  13.532
 2194W        W68977   4.650  40.962  12.104
 2195W        W68978  39.895   1.309   1.426
 2196W        W68979   8.737   4.444   2.384
 2197W        W68980  25.947  44.322   0.461
 2198W        W68981  19.727  42.663  14.585
 2199W        W68982   8.669  10.699  14.318
 2200W        W68983   9.251  15.328  13.107
 2201W        W68984   2.020  25.210   4.656
 2202W        W68985  40.408  10.924   1.424
 2203W        W68986  13.373  37.629   3.159
 2204W        W68987  23.689  29.318   1.728
 2205W        W68988  41.451  28.186  12.916
 2206W        W68989  44.609   4.171   2.476
 2207W        W68990   2.013  14.828   1.679
 2208W        W68991  22.003  30.484  14.023
 2209W        W68992  22.927  14.265   0.980
 2210W        W68993  25.967  43.044  11.189
 2211W        W68994   0.255  17.577   2.605
 2212W        W68995  16.049  36.612  11.974
 2213W        W68996   0.740  23.211  13.953
 2214W        W68997  18.887   1.526  11.048
 2215W        W68998   4.298  20.904  13.065
 2216W        W68999   8.416  34.998   3.051
 2217W        W69000  25.225  36.744   2.813
 2218W        W69001  18.521  39.480   0.818
 2219W        W69002  32.093  12.695   0.727
 2220W        W69003   8.245   9.822   4.662
 2221W        W69004  30.630  21.138   2.534
 2222W        W69005  20.080   2.968  13.933
 2223W        W69006  28.562  27.211   4.681
 2224W        W69007  44.380  20.912  12.991
 2225W        W69008  31.728  25.991   2.789
 2226W        W69009   2.814  30.210  12.070
 2227W        W69010  26.524  27.407   0.056
 2228W        W69011  43.412  21.005  13.285
 2229W        W69012   6.678   8.601  14.326
 2230W        W69013  36.619   8.065  13.489
 2231W        W69014  37.570  13.057   2.714
 2232W        W69015  40.950  26.549  10.301
 2233W        W69016  21.386   9.087  12.085
 2234W        W69017  30.167  38.420  10.391
 2235W        W69018   7.570  41.414  11.548
 2236W        W69019  24.035  13.449   4.041
 2237W        W69020   1.412  38.630   3.696
 2238W        W69021   3.527   7.607   1.516
 2239W        W69022  37.566  32.057  14.506
 2240W        W69023   6.861  30.255  11.434
 2241W        W69024  17.950   8.163  11.725
 2242W        W69025   6.984  40.079  14.326
 2243W        W69026  34.124  13.076   0.342
 2244W        W69027  35.196  36.465   3.416
 2245W        W69028   6.687  27.686   2.282
 2246W        W69029  40.945  10.321  13.498
 2247W        W69030  24.895  28.494   0.737
 2248W        W69031  23.451  35.923  13.792
 2249W        W69032  36.625  13.615  11.976
 2250W        W69033  31.876  41.285  12.662
 2251W        W69034  11.300  36.653  12.525
 2252W        W69035  18.338  31.980  13.877
 2253W        W69036  12.573  22.009   1.005
 2254W        W69037  18.246  13.871   0.428
 2255W        W69038  44.268  39.242  13.703
 2256W        W69039  42.607  31.004   0.105
 2257W        W69040  12.938  22.606  14.083
 2258W        W69041  35.266  34.461  14.928
 2259W        W69042  31.294  10.566   4.321
 2260W        W69043  33.578  18.021   4.727
 2261W        W69044  44.063  24.966   1.755
 2262W        W69045  34.470  15.516   2.415
 2263W        W69046  37.067  37.947   1.733
 2264W        W69047  12.336   6.647   0.503
 2265W        W69048   0.894  24.698   2.356
 2266W        W69049   8.885  12.605   4.343
 2267W        W69050  10.981  36.869   4.039
 2268W        W69051  21.224  20.302  12.514
 2269W        W69052  17.117  43.951   3.385
 2270W        W69053  15.667   8.246  13.444
 2271W        W69054  19.199  21.551   2.273
 2272W        W69055   2.843  21.256   1.605
 2273W        W69056  31.989  44.002   4.951
 2274W        W69057  21.549  21.173   1.733
 2275W        W69058  14.334  27.134   0.630
 2276W        W69059  26.383  44.850   3.542
 2277W        W69060   1.847  25.241  12.515
 2278W        W69061   2.967   2.250  12.478
 2279W        W69062   8.855  17.153   4.360
 2280W        W69063  12.320  25.154  12.835
 2281W        W69064  18.323  42.530  13.494
 2282W        W69065  43.901  19.775  13.388
 2283W        W69066  18.689  39.982   2.975
 2284W        W69067  35.699  41.853   1.456
 2285W        W69068  16.299  23.206   1.360
 2286W        W69069  11.698  18.036   4.399
 2287W        W69070  31.527  27.870   0.544
 2288W        W69071  35.831  26.580  11.149
 2289W        W69072  21.170   3.662   0.025
 2290W        W69073  21.251   0.421   3.256
 2291W        W69074   2.846  40.512  12.055
 2292W        W69075  37.014  31.685   4.040
 2293W        W69076  26.517  43.403   2.704
 2294W        W69077  35.423  32.335  11.186
 2295W        W69078   0.554  12.689  14.817
 2296W        W69079   0.539  27.469  11.610
 2297W        W69080  33.312  41.892  13.425
 2298W        W69081  37.018  29.123   4.320
 2299W        W69082  30.526  35.984   1.423
 2300W        W69083   4.936  40.440  11.996
 2301W        W69084  39.529  25.147  12.540
 2302W        W69085   2.492  39.340  10.497
 2303W        W69086  23.019   8.085  12.066
 2304W        W69087  23.257  29.449  14.987
 2305W        W69088   1.160  35.378  13.411
 2306W        W69089  29.469  44.957   3.031
 2307W        W69090  23.643  18.970   3.203
 2308W        W69091  15.086  34.139   3.266
 2309W        W69092   9.861  18.577  12.140
 2310W        W69093  42.735   5.304   0.539
 2311W        W69094  34.799  31.120   1.705
 2312W        W69095  32.837   0.469  13.558
 2313W        W69096  44.004   3.212  14.940
 2314W        W69097   7.249  28.999   2.367
 2315W        W69098  22.993  36.379   0.363
 2316W        W69099  44.826  25.008  13.551
 2317W        W69100  30.049   9.906   1.569
 2318W        W69101  17.098  44.461   1.670
 2319W        W69102  18.146  22.577  11.588
 2320W        W69103  24.177  18.065  13.943
 2321W        W69104  41.390  24.315  14.553
 2322W        W69105   8.302  29.626  12.889
 2323W        W69106  28.735  35.943  13.065
 2324W        W69107  12.529  14.553  11.461
 2325W        W69108  15.682  21.341  11.806
 2326W        W69109   6.834  31.117   0.383
 2327W        W69110  25.707  44.106  14.561
 2328W        W69111  18.603  20.090  11.632
 2329W        W69112  41.932  32.176   2.781
 2330W        W69113  41.271  39.935   3.633
 2331W        W69114  31.233  41.259   2.755
 2332W        W69115  11.248  29.495   3.542
 2333W        W69116  26.113   2.246  14.943
 2334W        W69117  15.726  11.794   0.817
 2335W        W69118  10.229  31.020  13.493
 2336W        W69119   1.382  21.063  13.053
 2337W        W69120   6.126   8.511  11.466
 2338W        W69121  29.130  11.727  14.065
 2339W        W69122  26.937  22.688  11.722
 2340W        W69123  24.882   8.676   2.567
 2341W        W69124  22.417   1.953   4.921
 2342W        W69125  41.809  32.575  13.686
 2343W        W69126  15.949  20.474  14.116
 2344W        W69127  12.700  19.334   2.048
 2345W        W69128  31.094  14.426   1.177
 2346W        W69129  16.315   4.367   0.739
 2347W        W69130  29.532  17.520   3.168
 2348W        W69131   7.098  28.080   0.945
 2349W        W69132  26.496   2.458  13.963
 2350W        W69133  15.127  28.965  12.037
 2351W        W69134   6.603  18.961   0.506
 2352W        W69135   3.303  34.414   3.221
 2353W        W69136  40.569  23.537   0.234
 2354W        W69137  38.880  28.979   4.705
 2355W        W69138  26.153  33.470   0.321
 2356W        W69139   9.622  39.550  13.571
 2357W        W69140   0.269   4.008   2.696
 2358W        W69141   7.723  19.582   3.160
 2359W        W69142  41.686  39.997  10.615
 2360W        W69143  31.852  23.912  11.987
 2361W        W69144  13.758   7.970  11.498
 2362W        W69145  32.894  39.959   3.988
 2363W        W69146  14.177  34.216   2.362
 2364W        W69147   6.313  11.837  13.697
 2365W        W69148  15.098  26.708   2.803
 2366W        W69149   0.354  15.036  11.563
 2367W        W69150  40.597  38.126   2.280
 2368W        W69151  38.317  19.617   0.428
 2369W        W69152   6.230  28.412   0.935
 2370W        W69153  18.929  38.844   3.653
 2371W        W69154  20.099   7.289   0.350
 2372W        W69155  23.729  17.216  14.305
 2373W        W69156  18.203  29.112   1.213
 2374W        W69157   6.572  34.474   0.515
 2375W        W69158  11.366  11.149  10.713
 2376W        W69159  34.341  34.405  13.296
 2377W        W69160   0.389  19.094  13.595
 2378W        W69161  14.081  42.978   3.063
 2379W        W69162   2.512  10.191  13.016
 2380W        W69163  19.167  19.520  14.986
 2381W        W69164   6.699  22.099  13.884
 2382W        W69165  44.476   0.362   3.979
 2383W        W69166  10.684   9.800  12.980
 2384W        W69167  44.534  13.342  12.498
 2385W        W69168  11.915  43.336  13.030
 2386W        W69169   7.777  39.781  14.130
 2387W        W69170  43.348  21.343   4.266
 2388W        W69171  41.079   5.910  13.874
 2389W        W69172   0.418  37.113   0.462
 2390W        W69173   9.056  38.020   3.637
 2391W        W69174   1.620  33.369  14.105
 2392W        W69175  10.435   9.051   1.361
 2393W        W69176  14.190  16.762   2.289
 2394W        W69177  35.071  26.274  11.151
 2395W        W69178  24.712  12.190   3.275
 2396W        W69179   0.511  12.083  14.015
 2397W        W69180   1.394  26.424   4.664
 2398W        W69181  38.779  32.371  11.519
 2399W        W69182  27.458  28.096  14.418
 2400W        W69183  17.627   5.727  14.686
 2401W        W69184  39.160  31.566   2.828
 2402W        W69185  37.406  23.048  11.472
 2403W        W69186  11.306  12.399  14.917
 2404W        W69187  43.793  19.984  13.850
 2405W        W69188  44.389  16.736  12.371
 2406W        W69189  18.042  34.992   4.552
 2407W        W69190  38.321  30.052  14.087
 2408W        W69191  39.191  33.285  11.452
 2409W        W69192  44.055  26.139  11.073
 2410W        W69193   3.790  29.308  11.012
 2411W        W69194  18.166  32.701   2.854
 2412W        W69195  33.073  18.968   0.804
 2413W        W69196  35.434  23.099  11.461
 2414W        W69197  19.885  20.027   1.181
 2415W        W69198   5.435  25.391   1.724
 2416W        W69199  34.846  43.456   0.975
 2417W        W69200  18.371   9.131   4.087
 2418W        W69201  41.829   8.716  12.526
 2419W        W69202  38.760  21.691   1.709
 2420W        W69203  39.561  11.855  14.303
 2421W        W69204  26.927   4.448   1.989
 2422W        W69205  34.883   7.774  10.811
 2423W        W69206  42.058  16.047   3.778
 2424W        W69207  11.493  11.245  12.148
 2425W        W69208  23.668   0.408   4.233
 2426W        W69209  13.175   0.123  12.443
 2427W        W69210  14.710  22.272   1.817
 2428W        W69211  19.204  16.180   3.848
 2429W        W69212  15.223  19.649   0.503
 2430W        W69213  23.371   2.446  14.504
 2431W        W69214  25.077  19.021  12.401
 2432W        W69215  29.168  43.252   5.022
 2433W        W69216   3.026  32.532   4.700
 2434W        W69217  13.220  35.927   3.658
 2435W        W69218  18.123  40.567  12.044
 2436W        W69219  10.561  35.497  10.910
 2437W        W69220  20.615   5.454   2.238
 2438W        W69221  41.816  39.347   1.761
 2439W        W69222   7.986  11.954  10.401
 2440W        W69223  29.028  10.208  11.786
 2441W        W69224  10.310  26.151   3.842
 2442W        W69225  21.103  39.392   0.325
 2443W        W69226  10.497  43.266   4.022
 2444W        W69227  16.141   8.895   2.906
 2445W        W69228   8.468  23.651  14.924
 2446W        W69229  39.787   8.323   4.296
 2447W        W69230   6.151  32.697   4.090
 2448W        W69231  14.963   5.280   2.850
 2449W        W69232  19.763  34.430  10.772
 2450W        W69233   3.425  37.291  12.940
 2451W        W69234  31.183   8.769  12.155
 2452W        W69235  30.400  20.008   0.905
 2453W        W69236   4.053  32.767  11.168
 2454W        W69237  24.800  22.442  10.084
 2455W        W69238  32.125  26.924  12.674
 2456W        W69239   6.117  11.676  11.089
 2457W        W69240  36.386  11.639  13.865
 2458W        W69241  12.684  29.924   1.264
 2459W        W69242  41.524   4.827  11.017
 2460W        W69243  44.412   1.693  13.851
 2461W        W69244  41.456  12.837  11.691
 2462W        W69245   8.989  44.426  14.407
 2463W        W69246  36.905  35.316   3.695
 2464W        W69247   5.676  44.873   1.814
 2465W        W69248  31.422  20.255   0.910
 2466W        W69249  32.343  39.685   4.261
 2467W        W69250   9.871   4.227   0.360
 2468W        W69251   6.168  31.203   3.762
 2469W        W69252  27.846  19.085   4.048
 2470W        W69253  36.550  32.568  13.808
 2471W        W69254  10.729  18.197  12.355
 2472W        W69255  20.711  43.782   4.734
 2473W        W69256   7.397  15.049  13.275
 2474W        W69257   8.176  17.614   4.551
 2475W        W69258  39.195  37.417   2.128
 2476W        W69259   6.219  23.102  14.794
 2477W        W69260  38.138   4.211  14.000
 2478W        W69261  39.902   4.397   4.367
 2479W        W69262  44.842   8.637  12.451
 2480W        W69263  16.100  30.256   2.562
 2481W        W69264  41.290   5.731   1.307
 2482W        W69265  44.757  26.092  14.010
 2483W        W69266  25.981  37.492  14.489
 2484W        W69267   7.133   3.516   2.802
 2485W        W69268  10.790  23.399  13.792
 2486W        W69269  32.483   1.403  14.286
 2487W        W69270  13.603  20.780  13.491
 2488W        W69271  43.682  19.962   4.454
 2489W        W69272  39.118  35.643   0.430
 2490W        W69273   7.020  20.317  13.214
 2491W        W69274  26.023  27.319   3.480
 2492W        W69275  38.507  40.554  10.503
 2493W        W69276  39.389  23.433  11.535
 2494W        W69277   7.797  10.935   4.336
 2495W        W69278   7.987  32.053   3.752
 2496W        W69279  16.396   9.799  12.830
 2497W        W69280  39.918   5.782   0.907
 2498W        W69281  44.639  24.589  12.594
 2499W        W69282  31.599  33.422  12.546
 2500W        W69283  16.787   2.759  10.677
 2501W        W69284  18.288  13.649  10.671
 2502W        W69285  21.723  24.888   4.948
 2503W        W69286  32.059  10.651  11.979
 2504W        W69287  18.662   8.400  14.915
 2505W        W69288  35.574  13.576   1.850
 2506W        W69289  24.017  22.154  14.549
 2507W        W69290  31.576  32.997  14.413
 2508W        W69291  31.874  31.620   5.092
 2509W        W69292  37.149   4.984   0.242
 2510W        W69293  21.294  34.054  14.522
 2511W        W69294  14.561   5.366   4.828
 2512W        W69295  11.794  19.847  10.690
 2513W        W69296  34.659  38.796   4.999
 2514W        W69297  41.547   2.219  10.687
 2515W        W69298  25.291  17.752  11.206
 2516W        W69299  24.889  26.136   2.902
 2517W        W69300  27.519   1.643   3.699
 2518W        W69301  21.530   8.775   0.026
 2519W        W69302  35.919  35.437   4.590
 2520W        W69303  40.227  29.998   1.645
 2521W        W69304  10.599  15.882   4.105
 2522W        W69305  16.662  41.663   0.026
 2523W        W69306   3.367  13.918   2.300
 2524W        W69307  10.314  27.986   3.412
 2525W        W69308   9.076  38.960  11.117
 2526W        W69309  41.560  28.657   4.036
 2527W        W69310  19.986  24.519   1.237
 2528W        W69311  35.879  30.054  13.936
 2529W        W69312  35.497  14.394  12.868
 2530W        W69313  34.533   5.266  14.399
 2531W        W69314   4.719  16.592  14.990
 2532W        W69315   7.263  36.117  13.341
 2533W        W69316   2.910  26.497  12.167
 2534W        W69317  14.818  11.931  12.977
 2535W        W69318  40.748   7.997   2.876
 2536W        W69319  21.534  36.598   2.232
 2537W        W69320  31.347  19.395   2.739
 2538W        W69321   7.166   7.485   3.729
 2539W        W69322  38.432  31.634   3.041
 2540W        W69323   0.711   0.302  11.408
 2541W        W69324   0.228  29.020  14.799
 2542W        W69325  35.979  34.400   3.706
 2543W        W69326  18.356  28.975  12.443
 2544W        W69327  26.709   7.679   2.813
 2545W        W69328  13.022  13.999  11.982
 2546W        W69329  44.839  36.900  12.458
 2547W        W69330   5.827   5.610  13.111
 2548W        W69331  12.606   7.280   1.718
 2549W        W69332  25.026  20.032   2.769
 2550W        W69333  10.816   5.794   4.194
 2551W        W69334  29.053  17.107   1.343
 2552W        W69335  44.922  32.140  11.417
 2553W        W69336  31.512   8.730   4.298
 2554W        W69337   0.555   7.542  10.301
 2555W        W69338  10.266  32.588   0.373
 2556W        W69339  26.277  18.461   2.881
 2557W        W69340   6.969   2.587   0.766
 2558W        W69341  26.716  11.202   2.805
 2559W        W69342  22.363   3.969   3.763
 2560W        W69343  37.999  36.200  13.506
 2561W        W69344   8.334  36.829  14.750
 2562W        W69345   5.991  38.998  13.561
 2563W        W69346  19.051   0.347  14.470
 2564W        W69347  35.874  16.725  13.980
 2565W        W69348  31.954  25.307   2.840
 2566W        W69349  42.390  12.910   3.562
 2567W        W69350  27.572  22.814   0.396
 2568W        W69351  12.554   1.023  11.135
 2569W        W69352  17.047   9.889  13.587
 2570W        W69353   8.454  32.132   4.864
 2571W        W69354  23.126  32.284  11.196
 2572W        W69355  25.900  38.509   9.839
 2573W        W69356  14.806   1.473   3.304
 2574W        W69357  38.000  34.839  14.586
 2575W        W69358  23.304   3.170   3.960
 2576W        W69359  37.279  30.025   4.613
 2577W        W69360  18.520  13.718   4.131
 2578W        W69361  44.106  22.019   2.346
 2579W        W69362   1.884  15.505  14.236
 2580W        W69363  10.155  44.816   2.256
 2581W        W69364  35.396  26.459  14.877
 2582W        W69365  23.927  24.130  12.595
 2583W        W69366  18.678   8.466   2.128
 2584W        W69367   6.124  17.175  11.290
 2585W        W69368  30.249  37.957  12.549
 2586W        W69369  23.880  30.028   1.006
 2587W        W69370  27.670  43.878   0.508
 2588W        W69371  43.928  36.166   4.138
 2589W        W69372  20.817   9.543   3.677
 2590W        W69373  29.198  30.921  12.585
 2591W        W69374  30.860  20.538  14.704
 2592W        W69375  26.821  17.136  11.724
 2593W        W69376   1.702  41.062   2.698
 2594W        W69377  24.039  34.504   4.131
 2595W        W69378  37.986  40.923  11.533
 2596W        W69379   1.214   8.113   0.043
 2597W        W69380  16.651   0.358   0.778
 2598W        W69381  30.083  22.797  12.740
 2599W        W69382  10.597  40.011  14.013
 2600W        W69383  39.960  17.804  14.263
 2601W        W69384  27.506  28.687   2.729
 2602W        W69385   3.672  24.392   4.376
 2603W        W69386  44.174  37.116  13.041
 2604W        W69387  41.488  43.397  10.715
 2605W        W69388  42.097  19.739  11.011
 2606W        W69389  32.711  36.206   4.050
 2607W        W69390   7.848  30.236  11.549
 2608W        W69391  42.685  31.907  10.371
 2609W        W69392   5.470   7.392  12.973
 2610W        W69393  21.645  29.509   0.185
 2611W        W69394   9.670  22.093  11.608
 2612W        W69395  13.394  29.473  11.216
 2613W        W69396  13.986   4.206  14.940
 2614W        W69397  15.807  33.256   2.425
 2615W        W69398   6.859   4.311  12.515
 2616W        W69399  18.139  19.175  10.598
 2617W        W69400  31.034  28.991   1.640
 2618W        W69401   1.956  29.180  14.466
 2619W        W69402  14.601  40.660  14.871
 2620W        W69403  39.925  41.011  13.094
 2621W        W69404   0.927  17.802  14.272
 2622W        W69405  15.910  32.003  13.113
 2623W        W69406  40.250  43.920   0.763
 2624W        W69407  25.602  44.382   2.714
 2625W        W69408  18.960  29.610   4.128
 2626W        W69409  26.635  18.573   3.260
 2627W        W69410  22.229  29.188   3.939
 2628W        W69411   3.542   0.747   4.777
 2629W        W69412  30.570  15.250  14.783
 2630W        W69413  36.051  14.266  11.254
 2631W        W69414  18.829  16.922   4.244
 2632W        W69415  16.422  44.387   1.033
 2633W        W69416   4.636  15.547  11.667
 2634W        W69417  19.518  30.017   1.941
 2635W        W69418  23.756  19.122  10.928
 2636W        W69419  12.552   9.278  12.780
 2637W        W69420  25.312  21.146   3.575
 2638W        W69421  37.743  11.618  12.452
 2639W        W69422   2.218  29.007   2.684
 2640W        W69423  14.290  25.928   2.232
 2641W        W69424  11.827  17.868   3.675
 2642W        W69425  30.151  33.437   4.791
 2643W        W69426  21.664  10.807  11.602
 2644W        W69427   2.424  24.465  13.549
 2645W        W69428  13.389  17.786  12.614
 2646W        W69429   7.784  28.907  12.103
 2647W        W69430  15.013  15.712   0.016
 2648W        W69431  21.992  25.954   1.778
 2649W        W69432  35.206  36.160  11.229
 2650W        W69433  39.985  44.262  11.132
 2651W        W69434  32.140  23.239   3.614
 2652W        W69435  23.698  13.954  14.960
 2653W        W69436  36.833  29.064   4.811
 2654W        W69437   6.411  25.211   3.213
 2655W        W69438   4.370  36.247   2.102
 2656W        W69439  30.837  39.767   1.013
 2657W        W69440  21.952  12.203   0.532
 2658W        W69441  34.326  20.113  12.470
 2659W        W69442  23.293  11.797  13.877
 2660W        W69443  40.502  30.457   1.404
 2661W        W69444  43.727   6.360  13.418
 2662W        W69445  21.560  13.191  12.856
 2663W        W69446  14.800  18.702  12.428
 2664W        W69447   2.516  40.949  12.934
 2665W        W69448   4.114  12.391   4.597
 2666W        W69449  26.538   9.093   1.329
 2667W        W69450  36.899   4.214   3.740
 2668W        W69451  16.912  43.976  14.191
 2669W        W69452   5.431  34.413  14.742
 2670W        W69453  22.215  36.472   0.799
 2671W        W69454   7.158  10.714  11.602
 2672W        W69455  28.580  34.592   1.946
 2673W        W69456  26.581  36.253   1.326
 2674W        W69457  13.413  16.625  11.613
 2675W        W69458  15.558   7.925  14.467
 2676W        W69459  30.457  41.476   0.628
 2677W        W69460  23.006   7.399   0.038
 2678W        W69461  13.038   4.510  14.947
 2679W        W69462  36.452   0.407  14.256
 2680W        W69463  41.253  10.607  11.152
 2681W        W69464  14.303  20.587   2.378
 2682W        W69465  42.033   4.336   3.651
 2683W        W69466  35.949  15.338  14.387
 2684W        W69467  13.343  24.593  11.520
 2685W        W69468  16.586  11.607   2.274
 2686W        W69469  44.802  28.145   3.678
 2687W        W69470  12.593  41.243  12.550
 2688W        W69471   4.265  43.040  13.168
 2689W        W69472  38.594  10.383  14.736
 2690W        W69473  12.819  41.756   0.492
 2691W        W69474  16.550  29.157  12.968
 2692W        W69475  22.216  25.596  14.928
 2693W        W69476   5.435  21.364   1.002
 2694W        W69477   4.959   0.281   4.914
 2695W        W69478  23.946  27.761  10.781
 2696W        W69479  10.777  19.517  10.467
 2697W        W69480  32.667  33.105  14.006
 2698W        W69481   0.813  44.873   1.235
 2699W        W69482   7.968   8.644  14.768
 2700W        W69483  23.609  10.253  10.651
 2701W        W69484  10.323  41.871   2.596
 2702W        W69485  29.187  24.112   2.792
 2703W        W69486  16.649  43.810  13.792
 2704W        W69487  39.344  23.521   5.032
 2705W        W69488  13.947  11.140   1.288
 2706W        W69489   3.758  44.255  12.678
 2707W        W69490  32.159  15.683  10.720
 2708W        W69491   4.636   1.427  12.014
 2709W        W69492  30.969   9.293  13.945
 2710W        W69493  33.887  42.595   4.582
 2711W        W69494  44.076  25.117   2.671
 2712W        W69495  36.056  40.145   1.874
 2713W        W69496  13.288  12.733  14.535
 2714W        W69497  21.658  25.054  13.445
 2715W        W69498  18.992   9.081  13.556
 2716W        W69499  36.425  18.096   1.314
 2717W        W69500  20.205  11.552  11.973
 2718W        W69501  29.619  36.983   2.923
 2719W        W69502  19.920  40.971   4.456
 2720W        W69503  23.492  27.300   3.668
 2721W        W69504  20.654  28.559   4.142
 2722W        W69505  16.313  27.443  12.433
 2723W        W69506  12.675  20.013  10.944
 2724W        W69507  16.173  20.489   3.793
 2725W        W69508  24.395  37.441  13.041
 2726W        W69509  13.859  24.665   0.511
 2727W        W69510   6.809   9.774   3.663
 2728W        W69511  25.437  25.951   3.364
 2729W        W69512   8.760  20.788  11.556
 2730W        W69513  31.748   4.371  11.433
 2731W        W69514  40.292  29.407   4.275
 2732W        W69515  12.401  42.868   3.599
 2733W        W69516  25.670   5.166   1.470
 2734W        W69517  34.932  13.582   4.359
 2735W        W69518  42.657  32.918  14.947
 2736W        W69519  18.841  33.118  12.000
 2737W        W69520  10.943  37.669   2.724
 2738W        W69521  24.927   1.075  11.209
 2739W        W69522  16.243  13.534   5.374
 2740W        W69523   7.881  25.238   4.982
 2741W        W69524  33.721  23.970  13.130
 2742W        W69525  39.327  16.703  13.391
 2743W        W69526  30.569  42.892   2.298
 2744W        W69527  27.211  34.156  14.902
 2745W        W69528  31.987  32.124  14.328
 2746W        W69529  12.802   2.386   0.240
 2747W        W69530  18.441   0.873  13.649
 2748W        W69531  42.317  18.066  11.246
 2749W        W69532  21.499  22.919  13.928
 2750W        W69533   0.070  20.747  12.904
 2751W        W69534  38.882  35.272   3.945
 2752W        W69535   3.485   4.382  13.961
 2753W        W69536   1.943  44.780   0.712
 2754W        W69537  42.440  37.441  12.353
 2755W        W69538  26.316  24.121  12.437
 2756W        W69539  37.366   7.232   4.172
 2757W        W69540  39.986  12.241   2.539
 2758W        W69541  23.328  32.776   2.754
 2759W        W69542  38.253   1.998  12.644
 2760W        W69543  39.202  21.342   0.980
 2761W        W69544  34.932  12.708   1.736
 2762W        W69545  30.653  17.852  11.497
 2763W        W69546  44.390  25.505   2.451
 2764W        W69547  12.185   2.275  12.789
 2765W        W69548  37.845  43.319   4.272
 2766W        W69549  36.885  14.761   0.768
 2767W        W69550   8.820  43.070  11.326
 2768W        W69551   4.192  36.145   3.274
 2769W        W69552  38.921  13.209  13.843
 2770W        W69553  42.075  36.920   4.570
 2771W        W69554  33.430   5.669   0.991
 2772W        W69555  31.751  43.826  14.514
 2773W        W69556  14.053  29.581   1.742
 2774W        W69557  25.603  25.272  14.355
 2775W        W69558  38.433  14.363   4.595
 2776W        W69559  20.004  41.056   3.658
 2777W        W69560  10.759  19.924   4.506
 2778W        W69561  27.118  41.800   5.177
 2779W        W69562  26.690   2.908   0.275
 2780W        W69563  38.561  31.898  11.526
 2781W        W69564  38.468  18.291   1.677
 2782W        W69565  37.771  18.163   3.040
 2783W        W69566  17.952  43.000  12.548
 2784W        W69567  24.972  15.258  14.032
 2785W        W69568  29.019  40.688   3.266
 2786W        W69569  30.460  42.503  14.392
 2787W        W69570  23.092   5.337  12.591
 2788W        W69571   5.251  36.277  13.860
 2789W        W69572   4.176   4.322   4.929
 2790W        W69573  36.060   2.662  12.232
 2791W        W69574   2.231  38.540   0.443
 2792W        W69575  23.011  28.114   3.899
 2793W        W69576  25.858   0.571  13.398
 2794W        W69577  34.837  11.851  11.486
 2795W        W69578  43.603  21.079   4.619
 2796W        W69579  39.839   2.087   2.059
 2797W        W69580  12.202  36.571   3.920
 2798W        W69581   4.578  16.769   2.942
 2799W        W69582  25.730   1.591  13.349
 2800W        W69583  36.880  23.662   0.237
 2801W        W69584  29.198  36.003  11.221
 2802W        W69585  38.514   6.725   2.403
 2803W        W69586  19.201  25.814   3.212
 2804W        W69587  11.744   5.524  12.045
 2805W        W69588  21.327  43.576   1.900
 2806W        W69589  22.012  32.504  12.057
 2807W        W69590   3.718  17.593   2.848
 2808W        W69591  14.314   3.500   3.831
 2809W        W69592  10.278  10.579  12.674
 2810W        W69593   8.137  44.605   0.966
 2811W        W69594  26.333  27.807  14.758
 2812W        W69595   1.340  37.010  12.504
 2813W        W69596   1.276  36.966  14.439
 2814W        W69597  26.182  28.139  11.062
 2815W        W69598  39.439   1.749   4.277
 2816W        W69599  10.559  44.858  11.172
 2817W        W69600  36.960  14.097   3.416
 2818W        W69601  24.966  28.938   0.451
 2819W        W69602  40.334  36.520   3.700
 2820W        W69603  35.469   6.787   2.293
 2821W        W69604  20.645  16.109  13.949
 2822W        W69605  25.959  13.183  14.416
 2823W        W69606   8.163  19.967  14.805
 2824W        W69607  18.107  43.051  11.190
 2825W        W69608   7.272  44.517  13.596
 2826W        W69609   4.670   5.602   3.367
 2827W        W69610  35.759  17.608  14.190
 2828W        W69611  22.618  31.259   2.678
 2829W        W69612   5.857  24.992  14.389
 2830W        W69613   1.311  19.649  12.368
 2831W        W69614   2.589   8.680   4.620
 2832W        W69615   1.467   3.285  11.136
 2833W        W69616  39.696  42.295   2.592
 2834W        W69617   0.379  10.566  10.411
 2835W        W69618  19.125  38.381   3.685
 2836W        W69619  31.922   7.062  14.565
 2837W        W69620  44.446  41.902  13.817
 2838W        W69621  19.161   1.690  12.588
 2839W        W69622  14.929   1.907  10.398
 2840W        W69623  19.005   4.446   2.664
 2841W        W69624   4.905   2.246  10.734
 2842W        W69625  29.478  18.682  13.653
 2843W        W69626   0.361  39.457   3.838
 2844W        W69627  24.733  18.260   0.370
 2845W        W69628  18.193  27.545   3.364
 2846W        W69629  17.159  25.485  14.428
 2847W        W69630  15.539  20.312  11.521
 2848W        W69631  34.521  10.781   0.940
 2849W        W69632  14.210  14.674  10.710
 2850W        W69633  21.647  23.225   0.458
 2851W        W69634   1.872  20.622  13.794
 2852W        W69635  26.740  42.469  14.264
 2853W        W69636  23.099  39.665   4.558
 2854W        W69637  27.656  34.005   2.205
 2855W        W69638  17.051  16.672  14.314
 2856W        W69639  41.077  26.916  13.836
 2857W        W69640   9.765  32.993  14.855
 2858W        W69641  27.285  23.989  12.559
 2859W        W69642  14.037  30.615  12.865
 2860W        W69643  22.996  38.670  14.407
 2861W        W69644  23.694  38.922   4.174
 2862W        W69645  17.216  34.973  10.471
 2863W        W69646  37.818  18.082   0.670
 2864W        W69647  16.654  43.009   0.897
 2865W        W69648   5.603   6.264  12.425
 2866W        W69649  36.284   0.001   1.958
 2867W        W69650   4.792   2.511   1.280
 2868W        W69651  16.015  34.632   3.648
 2869W        W69652  36.771  15.565   3.251
 2870W        W69653  22.722   9.678  11.467
 2871W        W69654  14.446  18.074  10.427
 2872W        W69655  31.185  18.465  13.030
 2873W        W69656  36.902  23.037   3.825
 2874W        W69657  15.543  30.910   0.358
 2875W        W69658  31.653  24.710  14.565
 2876W        W69659  24.452   9.574   4.021
 2877W        W69660  29.615  29.835  13.386
 2878W        W69661   7.806   8.646  13.123
 2879W        W69662   5.302  33.206  10.555
 2880W        W69663   9.727  19.899  13.227
 2881W        W69664   0.833  42.358  13.803
 2882W        W69665  21.322  27.198   9.914
 2883W        W69666   6.744  23.036  14.920
 2884W        W69667  28.215  38.049  14.450
 2885W        W69668  36.024  12.305  14.403
 2886W        W69669  16.672  12.674  11.369
 2887W        W69670  16.800   8.629   0.692
 2888W        W69671  22.553  17.817   1.424
 2889W        W69672  14.122   1.959   2.414
 2890W        W69673  11.965  20.267   0.805
 2891W        W69674   7.803  38.783   4.325
 2892W        W69675  20.793  27.546  14.953
 2893W        W69676   7.814  15.343  12.067
 2894W        W69677  31.780  39.609  11.165
 2895W        W69678   2.900   7.749  12.094
 2896W        W69679  30.091  30.899  11.482
 2897W        W69680  24.499  39.409  13.826
 2898W        W69681   3.241  14.150   4.600
 2899W        W69682  34.627  10.817  12.007
 2900W        W69683  22.696  33.286   4.858
 2901W        W69684  44.472  41.579  10.544
 2902W        W69685   0.909  24.590   4.578
 2903W        W69686  34.592  40.695  13.921
 2904W        W69687   2.989  28.338  11.087
 2905W        W69688  36.005  15.736   0.312
 2906W        W69689   8.159   3.507  11.426
 2907W        W69690   1.308  23.627   2.785
 2908W        W69691  42.255   6.740  14.712
 2909W        W69692  19.374  16.721   1.235
 2910W        W69693   7.990  29.027   1.035
 2911W        W69694  35.659  38.094  14.105
 2912W        W69695  30.917  13.504   0.899
 2913W        W69696  37.537  11.672   2.329
 2914W        W69697  17.042  34.173   4.127
 2915W        W69698  33.127  36.597  13.879
 2916W        W69699  31.641   9.857   2.726
 2917W        W69700  13.369  36.029  12.156
 2918W        W69701  41.327  36.055  14.863
 2919W        W69702  28.662  28.013  10.992
 2920W        W69703  32.912  23.774  12.120
 2921W        W69704  40.330  11.755   4.311
 2922W        W69705  20.283  36.626  11.137
 2923W        W69706  43.024  44.012  11.086
 2924W        W69707  42.440   8.044   0.228
 2925W        W69708  10.906  13.715  12.492
 2926W        W69709   2.369  34.741   0.963
 2927W        W69710  35.060  43.303  10.127
 2928W        W69711   2.184  34.424   0.168
 2929W        W69712  11.678   0.466  11.984
 2930W        W69713  23.724  14.212  14.132
 2931W        W69714   1.531  11.584  12.641
 2932W        W69715  17.262  23.065   1.500
 2933W        W69716  15.366  17.751  12.085
 2934W        W69717   1.415  11.350  11.420
 2935W        W69718  19.124   6.701   3.299
 2936W        W69719  38.431  42.985  14.831
 2937W        W69720   9.904  14.949  11.738
 2938W        W69721   8.678  16.222  13.078
 2939W        W69722   4.459  11.123  11.875
 2940W        W69723   2.871  12.461   4.167
 2941W        W69724  13.406  33.901   4.302
 2942W        W69725  19.908  29.916  11.494
 2943W        W69726   2.587  35.561   3.321
 2944W        W69727   8.401  14.771   4.822
 2945W        W69728   8.256  24.512   3.723
 2946W        W69729  27.208  30.842  14.833
 2947W        W69730   4.760  35.541  14.380
 2948W        W69731  39.760  27.151  10.838
 2949W        W69732   3.359   0.536  11.576
 2950W        W69733   5.880  11.827   0.930
 2951W        W69734   2.572   8.862   0.649
 2952W        W69735   5.321  23.334  13.853
 2953W        W69736   8.430  15.366   4.535
 2954W        W69737  16.305  36.786  13.744
 2955W        W69738   9.191  10.282  13.844
 2956W        W69739   5.347  26.219   2.293
 2957W        W69740  43.345   2.819  13.276
 2958W        W69741  34.483  43.388  12.878
 2959W        W69742  38.086  44.984  12.910
 2960W        W69743  34.251   5.350   9.636
 2961W        W69744  36.873   1.752  12.789
 2962W        W69745  19.752  29.666  13.724
 2963W        W69746  40.408  20.491   4.749
 2964W        W69747  19.584  35.339   1.194
 2965W        W69748  41.145  24.255  13.714
 2966W        W69749   8.854  22.074   2.994
 2967W        W69750  37.487   7.706  13.020
 2968W        W69751  33.129   9.387  13.070
 2969W        W69752  44.988  21.832  12.036
 2970W        W69753  43.824  17.379   3.682
 2971W        W69754   7.262  32.730   4.237
 2972W        W69755  15.266  23.201   1.224
 2973W        W69756   2.704  32.124   1.268
 2974W        W69757  20.998  31.945  14.442
 2975W        W69758  15.707  18.300   1.017
 2976W        W69759  12.828  27.468   0.267
 2977W        W69760  12.854  10.681   4.565
 2978W        W69761  19.603   3.222   1.660
 2979W        W69762  26.558  16.656   2.862
 2980W        W69763  21.038  17.629   0.322
 2981W        W69764   6.456  39.395  12.032
 2982W        W69765  31.502  18.708  14.430
 2983W        W69766  31.342  21.612  13.267
 2984W        W69767  18.636  44.818  13.566
 2985W        W69768  39.537   9.153   2.326
 2986W        W69769  19.907   4.366  14.975
 2987W        W69770  20.602   9.071   3.638
 2988W        W69771  39.718   1.500   3.693
 2989W        W69772  37.337   4.450  13.553
 2990W        W69773  35.909  14.878  12.892
 2991W        W69774  37.566  22.583  11.309
 2992W        W69775   4.754  19.000   3.283
 2993W        W69776   4.415  15.545   2.388
 2994W        W69777  10.371  20.651  13.015
 2995W        W69778  39.089   3.136   1.100
 2996W        W69779  25.657  41.367  12.170
 2997W        W69780  12.382  29.078  13.917
 2998W        W69781  44.507  39.207   4.022
 2999W        W69782  36.196   6.520  11.582
 3000W        W69783   9.455  19.092   1.158
 3001W        W69784   2.670  10.840   2.889
 3002W        W69785  17.739  41.353   3.664
 3003W        W69786   4.875  26.929  12.061
 3004W        W69787  10.144  37.389  14.802
 3005W        W69788   1.502  30.641  11.561
 3006W        W69789  28.479  10.200   1.561
 3007W        W69790  22.935  37.552  13.837
 3008W        W69791  12.256   9.653  11.970
 3009W        W69792  27.231  33.648   1.388
 3010W        W69793  21.862  15.648   3.271
 3011W        W69794  25.530  29.188   2.381
 3012W        W69795  42.346   0.186  11.212
 3013W        W69796   6.637   0.326  13.007
 3014W        W69797  11.246  18.735  10.793
 3015W        W69798  14.641   8.211   1.673
 3016W        W69799  38.329   2.941   0.051
 3017W        W69800  30.876  20.029  12.409
 3018W        W69801  16.773   9.467  14.369
 3019W        W69802  35.733  16.737  14.524
 3020W        W69803  10.847   4.643   2.367
 3021W        W69804  24.202  17.206  13.453
 3022W        W69805  11.681   0.773   2.246
 3023W        W69806  25.181  20.625   0.933
 3024W        W69807  43.965  28.822   5.078
 3025W        W69808  15.598  15.221  11.007
 3026W        W69809  18.715  23.090   4.565
 3027W        W69810  19.575   1.234  10.723
 3028W        W69811  38.421  13.568  14.469
 3029W        W69812  31.473  31.729   3.704
 3030W        W69813  36.879  10.402   0.807
 3031W        W69814  41.539  21.469   2.600
 3032W        W69815  31.629  31.620  11.075
 3033W        W69816  20.534  17.800   2.771
 3034W        W69817  21.496   0.879  14.977
 3035W        W69818  42.863  32.962  11.139
 3036W        W69819  13.354  13.617   3.589
 3037W        W69820  38.930  29.428   3.792
 3038W        W69821  25.449  41.962   0.371
 3039W        W69822  25.123  19.559  14.487
 3040W        W69823  11.343   4.778  13.467
 3041W        W69824  36.263  30.501  10.726
 3042W        W69825  42.919  33.603  12.051
 3043W        W69826  28.036   2.283   4.387
 3044W        W69827  26.394  15.255  14.014
 3045W        W69828   0.756   1.316  11.830
 3046W        W69829  14.494  37.567  12.634
 3047W        W69830   0.048  19.356   1.145
 3048W        W69831   3.443  33.351  12.469
 3049W        W69832  25.652   0.535  10.728
 3050W        W69833   9.656  39.270   1.243
 3051W        W69834  40.510  42.048  11.069
 3052W        W69835  41.240   9.765   3.447
 3053W        W69836  10.885   5.300  13.868
 3054W        W69837  30.198   3.821  14.054
 3055W        W69838  39.088   4.215   3.693
 3056W        W69839  21.257  18.714   3.202
 3057W        W69840  25.699  30.144   1.218
 3058W        W69841  17.593  42.435  10.730
 3059W        W69842  35.455  33.693  10.664
 3060W        W69843  19.682  31.202  13.674
 3061W        W69844   4.709   8.089  11.130
 3062W        W69845  35.500   4.897  12.965
 3063W        W69846  19.453  29.272  13.845
 3064W        W69847  23.641  39.840  13.924
 3065W        W69848  29.570  11.612   2.079
 3066W        W69849   7.283  30.912   0.178
 3067W        W69850  33.422  22.276   4.008
 3068W        W69851  19.872   0.421  11.954
 3069W        W69852  29.674   6.359   4.448
 3070W        W69853  43.036  17.086  10.589
 3071W        W69854  31.705   8.714  11.091
 3072W        W69855  40.377  14.701   0.228
 3073W        W69856  38.913   2.357  10.895
 3074W        W69857  33.907   6.560  14.274
 3075W        W69858  40.987  29.286   2.345
 3076W        W69859  16.667   4.053   0.969
 3077W        W69860  12.136   6.865  13.616
 3078W        W69861  44.710  44.508   3.828
 3079W        W69862  37.417   0.218  10.716
 3080W        W69863  22.182  25.777  12.188
 3081W        W69864  36.003  25.111  10.650
 3082W        W69865   9.247  17.332  13.538
 3083W        W69866  24.917  11.627   3.286
 3084W        W69867  43.779  17.100  11.059
 3085W        W69868  28.380  15.868  10.959
 3086W        W69869  38.472  12.624  11.500
 3087W        W69870  41.681   6.222  14.533
 3088W        W69871  17.334  18.581  10.558
 3089W        W69872  39.442  12.110   3.742
 3090W        W69873  41.330  29.865  14.392
 3091W        W69874  28.692  10.196   0.550
 3092W        W69875  34.719  43.697  14.282
 3093W        W69876  27.128  22.136   3.430
 3094W        W69877  13.684  32.427   3.211
 3095W        W69878  23.087  14.985  12.853
 3096W        W69879  16.031  34.199   1.065
 3097W        W69880  15.148  42.006   2.936
 3098W        W69881   7.638  19.519   1.318
 3099W        W69882  31.009  42.760  14.016
 3100W        W69883   9.351  25.652  12.102
 3101W        W69884   5.421  38.760  12.048
 3102W        W69885   4.233   4.201  14.681
 3103W        W69886   9.241  23.969   1.633
 3104W        W69887   7.663  18.632   0.383
 3105W        W69888  28.736  43.931   4.731
 3106W        W69889  14.339  10.363   2.274
 3107W        W69890   4.063  18.717  11.604
 3108W        W69891  27.708   2.725  10.839
 3109W        W69892  27.774  18.057  13.139
 3110W        W69893  11.230   4.053  14.723
 3111W        W69894  20.191  39.559   4.599
 3112W        W69895   9.205  23.004  10.416
 3113W        W69896  33.219   6.786  12.963
 3114W        W69897  10.116   0.387   9.861
 3115W        W69898  31.509  32.179   4.396
 3116W        W69899   0.572  23.968  12.933
 3117W        W69900   8.005   8.690   2.316
 3118W        W69901  29.970  29.170   4.012
 3119W        W69902  20.067  15.818   5.477
 3120W        W69903  19.224  40.019   2.147
 3121W        W69904  40.269  39.069  13.720
 3122W        W69905  33.475   0.886  14.875
 3123W        W69906  16.596  32.338  14.709
 3124W        W69907  21.571  24.380   5.023
 3125W        W69908  22.998  35.289   1.269
 3126W        W69909  16.234  17.675   1.416
 3127W        W69910  15.324  30.415   0.290
 3128W        W69911  26.462  24.101   2.279
 3129W        W69912   0.592  26.515   0.870
 3130W        W69913  10.141   8.742   3.239
 3131W        W69914  22.129  34.570   1.892
 3132W        W69915  30.119  29.523   1.675
 3133W        W69916   5.346  24.596   3.665
 3134W        W69917  11.191   0.782   0.389
 3135W        W69918  36.405  25.685  12.200
 3136W        W69919  37.327  35.957   2.235
 3137W        W69920  25.375  26.527  13.848
 3138W        W69921  15.603  17.655   0.272
 3139W        W69922   0.843  39.721   0.751
 3140W        W69923  25.270  25.080   2.404
 3141W        W69924  21.719  14.911  12.075
 3142W        W69925  14.641   7.663   2.651
 3143W        W69926  39.973  39.260   0.689
 3144W        W69927  44.514  21.641  12.019
 3145W        W69928   0.958  31.939  10.761
 3146W        W69929   2.915  16.327   0.274
 3147W        W69930   0.546   3.408   1.285
 3148W        W69931   8.410  38.408   3.133
 3149W        W69932  16.510  13.732   4.070
 3150W        W69933  44.752  27.626  13.025
 3151W        W69934   0.996  10.107  14.027
 3152W        W69935  42.435  32.215   0.619
 3153W        W69936  35.984  21.734   0.631
 3154W        W69937  14.697   0.849   4.511
 3155W        W69938  40.301  30.099   0.185
 3156W        W69939  33.655  13.746  13.381
 3157W        W69940  35.826   0.894  10.972
 3158W        W69941  25.251  23.116   0.037
 3159W        W69942  10.297  17.713   4.219
 3160W        W69943  10.849  33.371  11.928
 3161W        W69944  25.096  23.926  14.402
 3162W        W69945  24.090  20.328  14.828
 3163W        W69946  38.537  33.831   3.272
 3164W        W69947   0.314  32.382  11.174
 3165W        W69948  31.043   0.373   0.023
 3166W        W69949  44.035  42.941  11.687
 3167W        W69950  10.749  25.616  13.499
 3168W        W69951   2.383  31.535   4.738
 3169W        W69952   1.502  14.724   1.789
 3170W        W69953  41.320  31.535   3.435
 3171W        W69954   4.364  21.536  14.349
 3172W        W69955  18.008   1.191  14.764
 3173W        W69956  19.962  25.025   3.754
 3174W        W69957  25.968  25.896   3.551
 3175W        W69958  15.584  12.108  13.440
 3176W        W69959  41.089  20.252   3.264
 3177W        W69960  23.029   6.804  13.835
 3178W        W69961   1.407   8.648  11.996
 3179W        W69962  38.617   7.256   3.666
 3180W        W69963  12.887  38.447   1.932
 3181W        W69964  11.437  34.435  13.117
 3182W        W69965  30.336  21.791   4.199
 3183W        W69966  11.307  18.259   4.637
 3184W        W69967   7.855  24.396   4.741
 3185W        W69968  12.611  18.803  14.489
 3186W        W69969   4.026  23.589  10.438
 3187W        W69970   9.666  24.184  13.918
 3188W        W69971  39.739  19.693   1.848
 3189W        W69972  34.837  14.581  12.106
 3190W        W69973  10.079   1.365  11.588
 3191W        W69974  35.991  21.245  12.025
 3192W        W69975  42.723  17.676   3.703
 3193W        W69976  32.490   7.766   3.552
 3194W        W69977  21.610  11.154   3.412
 3195W        W69978   0.849  39.606   4.607
 3196W        W69979  34.867  12.334  11.703
 3197W        W69980  38.780   4.226  13.211
 3198W        W69981  37.323   5.443  14.730
 3199W        W69982  29.011  33.601   0.729
 3200W        W69983  36.476  19.810   0.301
 3201W        W69984   0.875  30.081  12.457
 3202W        W69985  20.121  13.444   2.455
 3203W        W69986   9.352  14.925  14.478
 3204W        W69987  32.755  21.489  11.744
 3205W        W69988  14.698  40.509  14.335
 3206W        W69989  15.423  19.484  12.479
 3207W        W69990  36.450  13.836   2.147
 3208W        W69991   8.094  44.280   2.723
 3209W        W69992  20.265  22.114   1.225
 3210W        W69993  14.154  16.445   1.890
 3211W        W69994  36.292   9.344  13.535
 3212W        W69995   3.555  42.602  11.637
 3213W        W69996  43.755  26.541  12.582
 3214W        W69997  31.865  25.140  14.340
 3215W        W69998  37.590  23.356  13.476
 3216W        W69999  43.249  23.338   0.844
 3217W        W70000   3.374  30.006  14.429
 3218W        W70001  18.979  25.235  14.762
 3219W        W70002  15.733  30.984   0.946
 3220W        W70003  33.024  43.410   2.271
 3221W        W70004   5.338   8.723   3.293
 3222W        W70005  23.571  26.463  13.910
 3223W        W70006   4.165  16.054  11.722
 3224W        W70007  35.816  28.113   1.988
 3225W        W70008  22.032  41.268  13.393
 3226W        W70009  18.456  25.130  14.740
 3227W        W70010   8.587  34.933  14.443
 3228W        W70011  11.768  30.411  11.646
 3229W        W70012  16.821  19.305  13.988
 3230W        W70013   9.956  13.757   4.219
 3231W        W70014  27.637  20.271  10.729
 3232W        W70015  24.564  11.779   0.795
 3233W        W70016  19.489  22.503  11.281
 3234W        W70017  28.629  38.883   3.387
 3235W        W70018  21.224  42.396   4.313
 3236W        W70019  13.333  20.642  11.919
 3237W        W70020  43.965  43.537  11.973
 3238W        W70021  36.990   3.435  11.067
 3239W        W70022  33.661  25.458  13.915
 3240W        W70023  36.665  22.686  13.942
 3241W        W70024   1.391  20.685  14.030
 3242W        W70025  35.106  20.706  14.759
 3243W        W70026  17.246  30.350  11.659
 3244W        W70027  42.801  39.548  14.911
 3245W        W70028  42.942  27.957  14.485
 3246W        W70029   3.907  35.916   0.739
 3247W        W70030  25.215  29.461   4.213
 3248W        W70031  15.089  18.186   0.323
 3249W        W70032  29.376  41.843  11.979
 3250W        W70033   8.365  26.543   0.589
 3251W        W70034  11.088  19.521  13.105
 3252W        W70035   2.306  10.653  12.941
 3253W        W70036  26.967   8.027   4.080
 3254W        W70037  22.275  26.202   1.434
 3255W        W70038  16.328  33.092  13.468
 3256W        W70039  39.027  40.018  13.887
 3257W        W70040  40.102  40.740  14.975
 3258W        W70041   9.066  28.309   2.760
 3259W        W70042  16.731  20.562  11.529
 3260W        W70043  24.611  40.537  12.085
 3261W        W70044  29.995  32.590   2.291
 3262W        W70045  19.300  24.037   3.800
 3263W        W70046   1.746  10.057   1.227
 3264W        W70047  41.430  21.565   1.632
 3265W        W70048  17.408  19.771   1.939
 3266W        W70049  17.581  14.265   0.660
 3267W        W70050  33.902   5.613  12.095
 3268W        W70051  27.648  11.231  13.975
 3269W        W70052  35.331  15.803  13.952
 3270W        W70053  29.423  24.047  13.123
 3271W        W70054  33.956   0.896   0.109
 3272W        W70055  17.248  11.414   3.990
 3273W        W70056  33.556  21.416  11.174
 3274W        W70057   0.764  39.379  13.514
 3275W        W70058  15.734  32.094   2.810
 3276W        W70059  34.008  32.379   2.313
 3277W        W70060  25.065  23.567  14.784
 3278W        W70061  23.924  31.989   3.061
 3279W        W70062  23.969  29.133  13.097
 3280W        W70063  25.980  41.535  12.535
 3281W        W70064  26.035   9.592   0.630
 3282W        W70065  21.039  30.948  11.075
 3283W        W70066  39.198  44.250  10.149
 3284W        W70067  25.029  17.363  11.431
 3285W        W70068  25.771  29.537  14.774
 3286W        W70069  37.967  33.805   2.890
 3287W        W70070  32.093   9.194  13.073
 3288W        W70071   1.543  42.743  11.550
 3289W        W70072  42.836  43.436  14.470
 3290W        W70073   3.675  17.271   4.690
 3291W        W70074  17.287  35.945   3.720
 3292W        W70075  35.861  41.392  14.110
 3293W        W70076   2.797   5.320   0.917
 3294W        W70077  29.435  26.941   3.759
 3295W        W70078   3.991  34.460  13.018
 3296W        W70079  31.752   0.299   1.138
 3297W        W70080  27.019  14.567  13.904
 3298W        W70081  20.612  30.505  11.782
 3299W        W70082  15.480  37.167   2.647
 3300W        W70083  29.266   5.032   3.113
 3301W        W70084   4.113  11.309  11.118
 3302W        W70085  28.031   8.760  14.864
 3303W        W70086  29.481  27.052  11.950
 3304W        W70087  18.655   2.210   0.298
 3305W        W70088  13.771  39.877   2.967
 3306W        W70089  29.562  34.132  11.571
 3307W        W70090  36.565  11.062   3.710
 3308W        W70091  10.473  28.463  14.524
 3309W        W70092  23.779  19.625   2.683
 3310W        W70093   0.887  38.698   4.325
 3311W        W70094  12.753  43.174  13.103
 3312W        W70095  23.060  25.014   0.753
 3313W        W70096   9.246  35.288  13.850
 3314W        W70097  23.532  21.004   3.189
 3315W        W70098   6.984  31.035  14.474
 3316W        W70099  31.646  30.585   4.437
 3317W        W70100   5.881   7.492  14.812
 3318W        W70101  22.535  25.107  12.117
 3319W        W70102  10.430   0.233  12.546
 3320W        W70103  24.230   1.923  10.277
 3321W        W70104   4.487  30.063   3.712
 3322W        W70105   3.842  40.299   3.673
 3323W        W70106  29.645   3.582   3.378
 3324W        W70107   7.656  41.442   0.442
 3325W        W70108  28.178   5.479  11.122
 3326W        W70109  39.093  33.095  10.674
 3327W        W70110  14.192  28.570   1.763
 3328W        W70111  15.239  38.497   1.305
 3329W        W70112  33.971  33.989   1.204
 3330W        W70113  26.441   8.812   2.655
 3331W        W70114  11.224   3.207  13.058
 3332W        W70115  35.601  22.682  14.863
 3333W        W70116  31.161   8.371   2.704
 3334W        W70117  28.521  39.440  13.281
 3335W        W70118  20.769  32.880  14.337
 3336W        W70119   3.639   0.761  12.444
 3337W        W70120  34.845   9.849   3.517
 3338W        W70121   9.856  30.830   4.603
 3339W        W70122  22.525  29.162  14.925
 3340W        W70123  38.065  40.699   3.922
 3341W        W70124  31.109  32.050   2.095
 3342W        W70125  38.902  20.985   4.471
 3343W        W70126  29.293   7.282   3.204
 3344W        W70127  34.700  21.363  11.210
 3345W        W70128   4.895  20.613  11.089
 3346W        W70129  18.594  18.042  13.363
 3347W        W70130  43.433  30.771  14.749
 3348W        W70131   4.855  20.273   2.736
 3349W        W70132  41.531  18.645   1.432
 3350W        W70133  19.567  14.206   1.776
 3351W        W70134  20.337  20.686   3.005
 3352W        W70135  18.838   0.830   1.935
 3353W        W70136  30.950   4.162   1.203
 3354W        W70137  14.751  34.894  13.910
 3355W        W70138   2.788  34.330  14.501
 3356W        W70139  41.130  17.110  13.445
 3357W        W70140   4.016  19.062   1.740
 3358W        W70141  34.082   1.232  14.314
 3359W        W70142  40.856  39.003   3.867
 3360W        W70143  28.153  25.644  12.380
 3361W        W70144   7.149  43.450  12.353
 3362W        W70145  30.443  12.926   1.339
 3363W        W70146  11.208  30.722   0.752
 3364W        W70147  14.729  34.705   0.278
 3365W        W70148   6.171   2.656   1.274
 3366W        W70149  19.119   9.867  13.056
 3367W        W70150  40.342  23.743  10.100
 3368W        W70151  10.759  11.636  12.038
 3369W        W70152  30.532   4.230  10.638
 3370W        W70153  34.948  36.354   4.346
 3371W        W70154  26.437  11.839   4.194
 3372W        W70155  24.414  33.614   3.697
 3373W        W70156  37.921  21.632   3.667
 3374W        W70157  10.357  17.196   3.091
 3375W        W70158  40.572  32.046  11.607
 3376W        W70159  26.629   0.748   2.186
 3377W        W70160  26.779   8.272  13.844
 3378W        W70161  43.689  16.617  13.135
 3379W        W70162  42.301  44.201   3.541
 3380W        W70163   7.910  37.309   0.410
 3381W        W70164  12.903  29.092  13.939
 3382W        W70165  24.586  42.889   4.210
 3383W        W70166  33.069  30.611  10.770
 3384W        W70167  12.123   0.320   4.434
 3385W        W70168  30.728  12.925  11.120
 3386W        W70169  42.791  21.285   1.437
 3387W        W70170  38.742  22.981  14.349
 3388W        W70171  32.238  33.796   3.011
 3389W        W70172  25.106  18.560   4.636
 3390W        W70173  36.772  39.002  10.756
 3391W        W70174  10.889   4.782   1.301
 3392W        W70175  37.498  43.441  11.577
 3393W        W70176  33.138  38.543   3.867
 3394W        W70177  28.938  26.290  14.435
 3395W        W70178  25.062  25.967  14.203
 3396W        W70179  15.346  40.922   3.841
 3397W        W70180  23.917  13.736  13.361
 3398W        W70181   9.843   5.235   2.168
 3399W        W70182   8.816  20.373   4.150
 3400W        W70183  10.363  21.010   0.784
 3401W        W70184  11.247  35.875   1.568
 3402W        W70185  14.377  41.255  10.760
 3403W        W70186   2.510   8.849   3.636
 3404W        W70187  32.446  29.840  10.713
 3405W        W70188   7.976   4.125  11.221
 3406W        W70189   0.403  28.647  12.680
 3407W        W70190   4.118  11.238  14.796
 3408W        W70191  16.220  23.702   2.070
 3409W        W70192  24.587  41.188  14.555
 3410W        W70193  17.958   4.288  14.818
 3411W        W70194  41.640  13.167  11.234
 3412W        W70195  25.989  36.144  14.403
 3413W        W70196  33.719  13.697   1.920
 3414W        W70197  28.517  42.769  11.082
 3415W        W70198  44.139  44.958  12.889
 3416W        W70199  26.562  11.636  14.856
 3417W        W70200  14.214   1.442   1.912
 3418W        W70201  43.532  27.248   3.448
 3419W        W70202  32.003  13.058   4.037
 3420W        W70203   5.464   4.292  12.924
 3421W        W70204  32.941  11.380  13.764
 3422W        W70205   0.988  15.551   3.155
 3423W        W70206  17.057  20.780  12.433
 3424W        W70207  36.764  42.296   1.495
 3425W        W70208   3.210   0.362  12.433
 3426W        W70209  43.431   5.781   4.062
 3427W        W70210  22.456  26.679  11.163
 3428W        W70211   5.957  22.418  11.448
 3429W        W70212  33.855  10.640   5.034
 3430W        W70213  33.431  13.511   3.669
 3431W        W70214  39.877  42.671   4.967
 3432W        W70215  37.053  29.950   1.850
 3433W        W70216  14.257  23.257  11.976
 3434W        W70217  39.385  24.923  14.773
 3435W        W70218  31.623   4.163  14.255
 3436W        W70219  38.223  12.081  12.938
 3437W        W70220  36.974   1.964   4.629
 3438W        W70221   0.431   8.449   2.749
 3439W        W70222  16.688  15.756  13.271
 3440W        W70223  41.899   0.765  14.933
 3441W        W70224  43.329  44.846   2.823
 3442W        W70225  34.497  41.977  11.205
 3443W        W70226  21.541  23.233  11.441
 3444W        W70227   8.765  20.804   3.844
 3445W        W70228  39.784  10.309   2.482
 3446W        W70229  41.844   0.316   2.205
 3447W        W70230  21.856  23.688  11.410
 3448W        W70231  37.340  15.919   1.780
 3449W        W70232   5.677   9.844  13.010
 3450W        W70233  13.035  24.270  14.115
 3451W        W70234  12.045  29.139  14.386
 3452W        W70235   1.647  11.770  12.172
 3453W        W70236  24.001  16.100  12.008
 3454W        W70237  14.710  10.138   3.029
 3455W        W70238  37.452  12.136   3.976
 3456W        W70239   6.024   2.496  14.888
 3457W        W70240  44.454   6.247  10.952
 3458W        W70241  24.626  21.580  12.637
 3459W        W70242  36.542  34.037   0.951
 3460W        W70243  27.204  36.462  14.830
 3461W        W70244  19.022  34.161   4.197
 3462W        W70245  29.413  43.394   0.304
 3463W        W70246  29.364  14.208  12.967
 3464W        W70247  23.974  26.122   3.455
 3465W        W70248   9.437  14.320  11.489
 3466W        W70249  17.316  34.539   0.205
 3467W        W70250  14.017  33.326   4.261
 3468W        W70251  30.938  36.562  12.940
 3469W        W70252  15.071  23.778   4.160
 3470W        W70253  33.687  25.521   1.190
 3471W        W70254  37.270   8.239   5.010
 3472W        W70255  12.288  18.742  14.061
 3473W        W70256  37.376  26.093  10.574
 3474W        W70257  42.921  44.753  10.622
 3475W        W70258  38.554  18.101  11.701
 3476W        W70259  34.108  38.223  11.211
 3477W        W70260   0.963  44.802   3.094
 3478W        W70261   0.918  17.398  11.220
 3479W        W70262  10.579  24.243   0.418
 3480W        W70263  38.413  32.432   4.147
 3481W        W70264  40.877  40.062  11.525
 3482W        W70265  10.537  33.933   0.405
 3483W        W70266  27.196  29.305  13.153
 3484W        W70267  36.198  10.824   3.455
 3485W        W70268  39.536   8.930  11.641
 3486W        W70269  10.103   6.795  13.896
 3487W        W70270  31.352  38.376   3.662
 3488W        W70271   0.746  37.436  10.579
 3489W        W70272   5.695  27.999  14.883
 3490W        W70273   3.223  16.399   3.647
 3491W        W70274   9.903  14.368   2.398
 3492W        W70275  28.953   8.935  14.214
 3493W        W70276   3.350   8.820  12.581
 3494W        W70277  17.278  15.287  13.304
 3495W        W70278  27.124  15.791   2.896
 3496W        W70279   7.837  43.820   2.687
 3497W        W70280  14.168  44.992   1.465
 3498W        W70281  30.925   9.104   0.864
 3499W        W70282  27.473  36.159   2.134
 3500W        W70283  21.541  40.766  13.811
 3501W        W70284  23.322  42.512  13.088
 3502W        W70285  11.534  18.016   3.259
 3503W        W70286  15.548  24.687   1.322
 3504W        W70287  28.672   3.439   3.246
 3505W        W70288  16.582   7.195   0.293
 3506W        W70289  10.750  42.211  14.501
 3507W        W70290  38.426  42.570  10.373
 3508W        W70291   1.360  40.485  14.993
 3509W        W70292  43.961  34.090  12.600
 3510W        W70293  31.651  22.568  14.017
 3511W        W70294  38.461  20.597   0.379
 3512W        W70295  37.293  40.251  11.919
 3513W        W70296  32.933  34.325  11.740
 3514W        W70297  25.020  25.151  12.627
 3515W        W70298  22.114  39.980  11.951
 3516W        W70299   0.454  15.449   4.770
 3517W        W70300  19.899   3.205   4.114
 3518W        W70301  10.615  28.897  13.249
 3519W        W70302  35.868  39.387  12.451
 3520W        W70303  15.549  39.202   0.160
 3521W        W70304  13.315  12.981   4.929
 3522W        W70305  37.470   8.195  11.419
 3523W        W70306  44.229  32.595  10.690
 3524W        W70307  30.584  42.760  13.496
 3525W        W70308  28.167  30.555  10.786
 3526W        W70309  25.395  12.242   2.713
 3527W        W70310   4.475   7.445   3.341
 3528W        W70311  22.957  14.202   1.513
 3529W        W70312  22.620   9.653  12.377
 3530W        W70313  40.960   5.513   3.209
 3531W        W70314  20.121  38.852  12.075
 3532W        W70315  31.931  14.246  12.050
 3533W        W70316  18.171  20.653   2.790
 3534W        W70317  24.025  19.665   2.223
 3535W        W70318  31.539  28.587  14.855
 3536W        W70319  43.481  27.490   4.412
 3537W        W70320  39.770   7.401   0.894
 3538W        W70321  30.019  19.978  13.343
 3539W        W70322  30.553  17.743  12.892
 3540W        W70323   6.355  30.648  12.662
 3541W        W70324  44.905  31.708   1.698
 3542W        W70325  12.177  11.895   0.015
 3543W        W70326  24.484  14.233   3.839
 3544W        W70327   4.770   0.368  12.784
 3545W        W70328   7.699  36.994  11.810
 3546W        W70329  22.416  16.752  14.446
 3547W        W70330  25.051  11.819  12.564
 3548W        W70331  23.458  41.292   4.946
 3549W        W70332  18.927   5.258  14.033
 3550W        W70333  19.030   3.997   1.390
 3551W        W70334   5.122  42.588   3.466
 3552W        W70335  27.584  32.329   2.574
 3553W        W70336  42.536  21.845  12.847
 3554W        W70337  41.444  28.046   1.622
 3555W        W70338  15.304   5.766   4.701
 3556W        W70339   0.713  33.108   2.660
 3557W        W70340   1.766  37.580  10.404
 3558W        W70341  12.407  16.370  14.244
 3559W        W70342  18.930  35.596  11.691
 3560W        W70343  32.489   1.926  14.194
 3561W        W70344  15.197  28.936   4.659
 3562W        W70345  41.324  30.341   3.891
 3563W        W70346  35.909  10.442  14.496
 3564W        W70347   4.873  31.630   0.122
 3565W        W70348  16.286  30.162   0.080
 3566W        W70349  12.404  39.278   3.661
 3567W        W70350   6.624  38.852   9.880
 3568W        W70351  19.158   2.480  14.527
 3569W        W70352  21.528  39.968   0.707
 3570W        W70353  22.521  33.947  12.540
 3571W        W70354  33.479  37.815   5.044
 3572W        W70355   4.878  40.369  14.312
 3573W        W70356  20.594  20.702   3.466
 3574W        W70357   5.388  44.253   3.135
 3575W        W70358  29.950  21.749  14.998
 3576W        W70359  31.238  28.806   4.008
 3577W        W70360  30.433   1.048  11.992
 3578W        W70361  21.204  42.067   0.935
 3579W        W70362  31.942  26.041  12.153
 3580W        W70363  34.917  17.332  13.787
 3581W        W70364  18.564  31.160   1.351
 3582W        W70365   1.221  30.637   3.793
 3583W        W70366  21.640   9.075   3.949
 3584W        W70367  13.650  10.261   3.598
 3585W        W70368  17.223  39.110   0.905
 3586W        W70369  29.925  23.026   4.044
 3587W        W70370   1.499  20.110  12.160
 3588W        W70371  42.289  41.828  10.758
 3589W        W70372  20.900  23.071  14.828
 3590W        W70373  36.468  22.173   1.757
 3591W        W70374  13.656  16.346  12.007
 3592W        W70375  29.098  44.874  11.651
 3593W        W70376  29.515  30.420  11.596
 3594W        W70377  33.454  29.677  11.637
 3595W        W70378   3.945  40.451   4.668
 3596W        W70379  20.706   3.938  11.241
 3597W        W70380  27.676  35.578  13.998
 3598W        W70381  27.935  13.561  12.601
 3599W        W70382  22.022  42.865   2.435
 3600W        W70383  19.005  11.078  12.428
 3601W        W70384   3.360  25.238  10.653
 3602W        W70385  20.147  33.973  13.344
 3603W        W70386   9.892  11.829  14.932
 3604W        W70387  39.345  35.187   0.308
 3605W        W70388   2.965  19.507  14.538
 3606W        W70389  37.078   0.804   3.403
 3607W        W70390  21.189  39.004   5.088
 3608W        W70391  39.141   7.289  12.175
 3609W        W70392  34.507  17.516   3.637
 3610W        W70393   6.666  17.990   1.713
 3611W        W70394  33.994  20.902  11.978
 3612W        W70395  35.862  24.261  11.244
 3613W        W70396  31.116  20.972  14.537
 3614W        W70397  24.743  31.307  12.722
 3615W        W70398  16.876  29.429  13.294
 3616W        W70399   3.792  14.415   3.845
 3617W        W70400  44.885  28.929   2.167
 3618W        W70401  22.256  43.868   3.664
 3619W        W70402   2.191  42.417  12.517
 3620W        W70403   1.732  41.903  14.059
 3621W        W70404   4.363  39.466   4.571
 3622W        W70405  39.736   4.293  13.403
 3623W        W70406  18.672  32.153   1.336
 3624W        W70407  42.352  19.771   3.098
 3625W        W70408   6.835   3.046  12.896
 3626W        W70409   8.674  13.014  14.782
 3627W        W70410  33.957  25.249  12.929
 3628W        W70411  14.046  39.449   3.052
 3629W        W70412  20.110  16.862   0.789
 3630W        W70413  36.493  32.606   0.310
 3631W        W70414   8.383  27.908   3.403
 3632W        W70415   6.276  25.162   0.011
 3633W        W70416  14.736   8.216  12.828
 3634W        W70417   8.841  43.552  14.944
 3635W        W70418  13.564   9.362   3.217
 3636W        W70419  43.947  38.452  11.379
 3637W        W70420  41.322   6.684   3.609
 3638W        W70421   4.303   3.748   2.332
 3639W        W70422   9.396  23.043  11.870
 3640W        W70423  10.233  36.097  11.959
 3641W        W70424  19.749  44.179  14.464
 3642W        W70425   7.401  27.983   3.157
 3643W        W70426   2.755  19.029  12.184
 3644W        W70427  30.606  29.607   3.924
 3645W        W70428  17.209  35.594  12.969
 3646W        W70429   1.389   3.470   1.150
 3647W        W70430  25.153  31.439   1.326
 3648W        W70431  10.947   9.650   4.437
 3649W        W70432  20.171  11.793   4.799
 3650W        W70433  39.502  27.166   0.434
 3651W        W70434  41.492  23.651  11.932
 3652W        W70435  12.244  16.075  12.199
 3653W        W70436  37.587  16.935   0.565
 3654W        W70437  24.141  10.239   2.799
 3655W        W70438   2.479  23.366   1.716
 3656W        W70439   0.784  21.688   3.117
 3657W        W70440  23.409   5.628  14.983
 3658W        W70441   0.337   6.722  12.469
 3659W        W70442  10.159  15.880  14.927
 3660W        W70443  23.182  18.787   3.307
 3661W        W70444  20.629  14.238   0.010
 3662W        W70445  17.702  33.353   2.746
 3663W        W70446  11.707  39.780   9.786
 3664W        W70447  22.228  16.674  13.448
 3665W        W70448  39.550  14.794   3.368
 3666W        W70449  35.641  15.489   3.756
 3667W        W70450  12.331  10.816   1.718
 3668W        W70451   0.639  28.145  14.495
 3669W        W70452  17.196  13.771  12.990
 3670W        W70453  43.371  35.368  12.109
 3671W        W70454  14.257  17.771  14.550
 3672W        W70455   3.971   5.116   2.737
 3673W        W70456  19.059  35.678  13.904
 3674W        W70457  23.985   8.235  12.561
 3675W        W70458  36.159   6.161   1.987
 3676W        W70459  39.885  11.827   4.565
 3677W        W70460  29.756  24.293  14.116
 3678W        W70461  33.481   0.919   3.009
 3679W        W70462  38.139  34.920  12.630
 3680W        W70463  32.924  32.439   2.074
 3681W        W70464  35.692   9.167   4.107
 3682W        W70465  15.186  26.956   2.309
 3683W        W70466  18.009  37.485  14.715
 3684W        W70467  36.571  22.610  12.797
 3685W        W70468  40.596  24.024   2.790
 3686W        W70469  37.865  31.989  10.958
 3687W        W70470  23.217  34.649   3.125
 3688W        W70471  10.099   1.436  12.930
 3689W        W70472  32.070  31.511   2.229
 3690W        W70473  16.963  16.552   4.432
 3691W        W70474  40.010  10.115   1.054
 3692W        W70475  12.305  42.937   4.511
 3693W        W70476  44.213  29.639   1.786
 3694W        W70477  21.600  37.149  14.972
 3695W        W70478  20.919  30.920   2.629
 3696W        W70479  43.067  35.040  14.429
 3697W        W70480  26.477  33.668   2.402
 3698W        W70481   5.330  10.149   2.555
 3699W        W70482  40.002   8.143   4.739
 3700W        W70483  27.514  17.674  12.420
 3701W        W70484   6.143  41.023  14.240
 3702W        W70485  19.829  36.854  12.532
 3703W        W70486  13.459   0.219  14.874
 3704W        W70487  16.060  28.384   0.871
 3705W        W70488  30.270  40.365   5.112
 3706W        W70489   3.401   2.511   0.840
 3707W        W70490  26.946  30.305   4.982
 3708W        W70491  28.886  31.143   1.217
 3709W        W70492  35.028   0.796   4.880
 3710W        W70493  10.321  20.857  14.520
 3711W        W70494  31.571  32.413  14.200
 3712W        W70495  36.336   0.313   3.224
 3713W        W70496  24.649  35.646   0.795
 3714W        W70497  36.075  42.342   4.578
 3715W        W70498  23.726  21.194  14.056
 3716W        W70499  16.568  20.691   1.333
 3717W        W70500   2.916  38.657  11.086
 3718W        W70501   7.840  41.595  11.171
 3719W        W70502   9.648  23.536   3.602
 3720W        W70503  32.464  20.016  11.502
 3721W        W70504  14.531  27.095   3.759
 3722W        W70505  25.199  22.945   2.752
 3723W        W70506  25.097  37.542   2.398
 3724W        W70507  16.475   4.991   0.771
 3725W        W70508  34.591  13.266   0.975
 3726W        W70509  22.049  44.352  13.388
 3727W        W70510  31.605   4.800   0.413
 3728W        W70511  10.149  36.494   1.425
 3729W        W70512  37.482  29.277   1.526
 3730W        W70513  20.269  39.887   1.260
 3731W        W70514   6.328  39.816  12.395
 3732W        W70515  18.120  40.087   4.676
 3733W        W70516  27.284  35.827  13.059
 3734W        W70517   7.717   2.726  13.916
 3735W        W70518  42.115  38.524  13.423
 3736W        W70519  19.365  44.417  14.163
 3737W        W70520  41.926  11.950  11.663
 3738W        W70521  37.113  11.642  13.033
 3739W        W70522  15.700  11.350  13.968
 3740W        W70523  25.180  35.364  11.697
 3741W        W70524  23.426  14.844  13.369
 3742W        W70525  40.234  23.592   2.375
 3743W        W70526  21.606   7.837   0.225
 3744W        W70527  40.864   0.976   2.236
 3745W        W70528  33.956  38.009  14.950
 3746W        W70529  40.974  34.904  14.480
 3747W        W70530  43.779   2.451   3.114
 3748W        W70531  36.488  27.139   3.625
 3749W        W70532  18.754  29.741   2.331
 3750W        W70533  39.868  34.029   0.460
 3751W        W70534   3.970  33.367  13.612
 3752W        W70535  26.460  12.831  13.452
 3753W        W70536  10.239   2.487   4.508
 3754W        W70537  32.523  40.616  12.896
 3755W        W70538  21.741  10.446   4.144
 3756W        W70539  15.221  32.128   0.961
 3757W        W70540   0.591  39.820   0.266
 3758W        W70541  15.057   7.348  14.429
 3759W        W70542   8.445  18.274   1.348
 3760W        W70543  18.009  28.408   2.761
 3761W        W70544   7.351  34.994   2.544
 3762W        W70545  19.510  28.361   2.773
 3763W        W70546   5.758  44.972   3.892
 3764W        W70547   7.349  14.133   0.228
 3765W        W70548  35.866  24.526  13.834
 3766W        W70549  22.505  23.774  10.692
 3767W        W70550  41.645  35.477   1.346
 3768W        W70551  15.250   1.970   0.767
 3769W        W70552  10.200  29.186   3.621
 3770W        W70553  37.043   7.440  13.009
 3771W        W70554  44.244  30.936  13.359
 3772W        W70555   6.555   3.243   0.021
 3773W        W70556  38.408  12.044   4.070
 3774W        W70557  43.298  30.933   2.649
 3775W        W70558   8.202   6.876  13.110
 3776W        W70559   2.035  12.768   2.479
 3777W        W70560  15.115   2.401   4.143
 3778W        W70561   7.471  15.334   4.100
 3779W        W70562  17.780  34.628  11.585
 3780W        W70563  29.209  43.800   4.969
 3781W        W70564  23.260  25.027   1.904
 3782W        W70565  10.878  16.598  13.779
 3783W        W70566  30.592  18.225   3.241
 3784W        W70567  25.637  13.781  13.399
 3785W        W70568  29.502  26.225   4.128
 3786W        W70569  42.594  30.365  11.025
 3787W        W70570  19.162  20.185  10.879
 3788W        W70571   7.352  28.044  14.390
 3789W        W70572  13.343  16.299  14.288
 3790W        W70573   2.527   8.842  14.378
 3791W        W70574  13.812   4.233   2.139
 3792W        W70575   8.096  43.370   2.678
 3793W        W70576   8.154  29.651  10.622
 3794W        W70577  11.294  10.754   3.377
 3795W        W70578  18.578  19.214  11.705
 3796W        W70579  13.578   4.386   0.770
 3797W        W70580  28.876  26.832   4.985
 3798W        W70581  28.509  30.569   1.734
 3799W        W70582  14.439   5.802   2.216
 3800W        W70583  23.195  19.259   3.085
 3801W        W70584   0.299  11.577  13.227
 3802W        W70585  13.846   5.792   0.056
 3803W        W70586  22.175  20.339  10.326
 3804W        W70587  27.445  14.255  10.999
 3805W        W70588  35.650  43.263  10.731
 3806W        W70589  31.694  18.592  13.060
 3807W        W70590   8.725  39.192   0.783
 3808W        W70591  28.485  28.110  12.402
 3809W        W70592  44.616  25.743   3.237
 3810W        W70593  11.011  12.000   0.815
 3811W        W70594  38.616  42.945   0.742
 3812W        W70595  43.793   1.968  11.007
 3813W        W70596  18.578  31.366  12.364
 3814W        W70597  44.777  10.720   0.309
 3815W        W70598   8.198   4.461  11.959
 3816W        W70599  40.822  37.031  14.896
 3817W        W70600  10.543   0.563   0.866
 3818W        W70601  43.032  20.273  11.488
 3819W        W70602  35.918  10.372  12.571
 3820W        W70603  16.834  33.569  11.064
 3821W        W70604  23.796  29.130  12.389
 3822W        W70605   2.222   0.859   1.815
 3823W        W70606  18.645   4.791  10.745
 3824W        W70607   2.462  19.515  10.728
 3825W        W70608  37.886   7.305  13.604
 3826W        W70609  42.008  31.914   4.243
 3827W        W70610  32.423  13.286   4.232
 3828W        W70611  28.568  11.942  12.406
 3829W        W70612   2.429  29.346  12.006
 3830W        W70613  13.391   5.319  10.794
 3831W        W70614  29.609  28.521   1.832
 3832W        W70615  31.452  37.734  13.370
 3833W        W70616  12.137  14.404  13.640
 3834W        W70617  18.368  39.856  12.612
 3835W        W70618  34.006  10.835  13.930
 3836W        W70619  42.218   4.780  13.578
 3837W        W70620  34.381  12.189   2.405
 3838W        W70621   2.357  43.166   0.217
 3839W        W70622  29.619  29.536  13.801
 3840W        W70623  33.974  12.935  11.044
 3841W        W70624   4.707   3.845  12.099
 3842W        W70625  20.791  34.374   0.296
 3843W        W70626  26.231  12.603   1.764
 3844W        W70627  44.762  15.542   1.949
 3845W        W70628  14.154  24.953  13.346
 3846W        W70629  34.009  39.098  10.982
 3847W        W70630  21.700  11.858   3.671
 3848W        W70631  25.039  31.996  12.601
 3849W        W70632  32.131  29.193   3.910
 3850W        W70633  31.498  16.144  14.393
 3851W        W70634  25.040   2.277  12.057
 3852W        W70635   7.911   7.303   0.974
 3853W        W70636   0.442  11.734   0.687
 3854W        W70637  12.532  34.897   4.793
 3855W        W70638  16.374   2.325   3.714
 3856W        W70639  34.417  14.825  11.923
 3857W        W70640  32.637  12.714  10.572
 3858W        W70641  18.335  32.124  12.878
 3859W        W70642  24.758  31.402  11.056
 3860W        W70643  44.020  30.936  11.096
 3861W        W70644  36.143   6.173  13.108
 3862W        W70645  23.428  30.851  14.386
 3863W        W70646  33.459  23.732  10.809
 3864W        W70647   6.457   3.903  13.478
 3865W        W70648  24.343  19.207   4.888
 3866W        W70649  28.011  11.677   2.656
 3867W        W70650  12.975  20.804   4.953
 3868W        W70651  32.657   5.425   4.421
 3869W        W70652  15.561  42.438   4.667
 3870W        W70653  41.988   3.062  13.843
 3871W        W70654  22.456  40.544   3.532
 3872W        W70655  16.519  21.120   0.016
 3873W        W70656   5.797   0.963   4.558
 3874W        W70657   8.058  22.947   1.836
 3875W        W70658  11.872  33.519  11.274
 3876W        W70659  29.838  21.727   4.192
 3877W        W70660   9.453  24.775  14.827
 3878W        W70661   4.418  11.350   0.229
 3879W        W70662  29.037  35.538   3.665
 3880W        W70663  43.187  33.678   1.834
 3881W        W70664  13.007  38.771   1.416
 3882W        W70665  13.368  41.951   4.578
 3883W        W70666  43.724   5.896   3.642
 3884W        W70667   8.329  32.855   4.276
 3885W        W70668  38.717  39.608   5.078
 3886W        W70669  28.434   5.865   0.764
 3887W        W70670  15.737  41.338   1.805
 3888W        W70671   9.840  16.349   3.283
 3889W        W70672   1.309  40.601  12.989
 3890W        W70673  14.691  18.487  14.656
 3891W        W70674   2.241   1.789  12.150
 3892W        W70675  12.836  25.710   1.839
 3893W        W70676  30.382  26.607  11.124
 3894W        W70677  27.998  15.863  13.640
 3895W        W70678  39.190  32.107  13.464
 3896W        W70679  10.443  37.444   2.826
 3897W        W70680  35.375   9.823  14.797
 3898W        W70681  11.385  38.357   4.314
 3899W        W70682  28.197  24.971  12.174
 3900W        W70683   7.786  13.862   0.354
 3901W        W70684  36.087  22.744   4.260
 3902W        W70685  25.082  43.081   2.609
 3903W        W70686   0.828   0.824   1.678
 3904W        W70687   1.046  29.194  11.753
 3905W        W70688  20.979  34.486   3.705
 3906W        W70689  20.457  34.574  13.862
 3907W        W70690  30.881   7.419  12.071
 3908W        W70691  17.611  16.110  11.974
 3909W        W70692  29.047  38.379  13.020
 3910W        W70693  29.193   7.697  10.587
 3911W        W70694   2.669  40.003   2.790
 3912W        W70695  42.773  26.920  13.618
 3913W        W70696   5.799  31.303   1.446
 3914W        W70697  27.349  34.543  11.427
 3915W        W70698  23.516  13.668   1.590
 3916W        W70699  17.699  28.333  14.485
 3917W        W70700  10.820  22.225   2.415
 3918W        W70701  31.671  19.324   2.335
 3919W        W70702  14.672  30.610  11.579
 3920W        W70703  32.089  27.011  10.583
 3921W        W70704   0.339  22.239  11.027
 3922W        W70705  37.786  11.688  10.615
 3923W        W70706  11.413  43.701   4.087
 3924W        W70707  19.028  11.663   1.548
 3925W        W70708  26.591   0.739  12.441
 3926W        W70709  42.298   1.501  13.910
 3927W        W70710  23.938  38.992   0.369
 3928W        W70711   2.802   7.927  10.691
 3929W        W70712   2.632   5.016   2.413
 3930W        W70713   6.735  21.267  14.973
 3931W        W70714  34.442   7.935  12.103
 3932W        W70715  26.925  30.501  14.013
 3933W        W70716  36.522  28.856   3.061
 3934W        W70717  17.363  24.642  13.332
 3935W        W70718  20.207   8.407  12.852
 3936W        W70719  10.565  29.223  13.643
 3937W        W70720  37.601  18.226  14.448
 3938W        W70721  42.849   5.379   1.957
 3939W        W70722   0.479   6.768  11.501
 3940W        W70723  37.321  42.413   4.464
 3941W        W70724  17.664  12.555   5.386
 3942W        W70725  16.078   0.110  12.724
 3943W        W70726   2.729  20.742   1.429
 3944W        W70727  39.308  15.681  13.370
 3945W        W70728   6.398  23.030  12.549
 3946W        W70729   8.754  24.651   2.248
 3947W        W70730  25.215  39.945   1.870
 3948W        W70731  28.539  29.406  14.079
 3949W        W70732  13.135  38.358   1.096
 3950W        W70733  26.516  30.032  13.310
 3951W        W70734  11.637  37.217  10.212
 3952W        W70735  31.147   9.715  11.352
 3953W        W70736  12.225  24.422  12.880
 3954W        W70737   8.680   1.822   0.136
 3955W        W70738   0.501   9.206   3.272
 3956W        W70739  27.177  11.211   2.601
 3957W        W70740  28.455  44.277  12.089
 3958W        W70741  41.272  23.812  13.437
 3959W        W70742   1.166  27.743   4.944
 3960W        W70743  25.345  23.879  13.536
 3961W        W70744  14.425  39.408  13.928
 3962W        W70745  25.006  38.995   3.593
 3963W        W70746  30.215  38.577   1.262
 3964W        W70747  11.596  17.679  14.911
 3965W        W70748   2.669   9.857   3.008
 3966W        W70749   2.156  27.238  14.328
 3967W        W70750  28.608  40.081   4.003
 3968W        W70751   8.083  43.286  14.411
 3969W        W70752  10.834  37.959  13.869
 3970W        W70753  19.432  30.906  14.432
 3971W        W70754  29.541  28.022   1.987
 3972W        W70755  21.466   5.215   1.714
 3973W        W70756  36.935  41.110   1.249
 3974W        W70757  11.300  27.079   4.638
 3975W        W70758   4.316  38.627   0.980
 3976W        W70759  13.072  39.901  10.069
 3977W        W70760  16.656  25.946   3.822
 3978W        W70761   9.566  30.398  13.519
 3979W        W70762  32.416  27.228  13.925
 3980W        W70763   4.624  41.084   4.571
 3981W        W70764  10.911   2.710   0.721
 3982W        W70765  31.129  39.699   2.768
 3983W        W70766  20.564  10.862  11.631
 3984W        W70767  29.820  10.133  11.571
 3985W        W70768  39.233  29.899  13.407
 3986W        W70769  44.238  32.432   1.798
 3987W        W70770  23.259  44.839  11.531
 3988W        W70771  27.888  43.439   0.295
 3989W        W70772  24.438  43.072  13.105
 3990W        W70773   5.355  42.547   0.184
 3991W        W70774   7.721  41.443   4.626
 3992W        W70775  24.293  44.433  13.861
 3993W        W70776  40.312  20.585  13.482
 3994W        W70777  22.722   3.911  11.196
 3995W        W70778  13.316  11.530   3.471
 3996W        W70779  20.102  40.304   4.109
 3997W        W70780  11.057  29.664  12.003
 3998W        W70781   7.340  11.222  12.387
 3999W        W70782  42.335   3.887  12.075
 4000W        W70783   0.440   5.935  14.983
 4001W        W70784  12.246   5.857   2.018
 4002W        W70785  20.172  42.520   1.751
 4003W        W70786  34.905  35.140  13.053
 4004W        W70787   5.003   0.397  13.273
 4005W        W70788  13.143  34.508  14.965
 4006W        W70789  19.820  25.102  11.055
 4007W        W70790  21.264   6.021   0.759
 4008W        W70791  19.862  20.775   0.931
 4009W        W70792   2.328   6.824  11.935
 4010W        W70793  18.961   3.548  13.485
 4011W        W70794   9.211  40.942   4.164
 4012W        W70795  20.125  21.605  12.981
 4013W        W70796   8.997  18.031   4.447
 4014W        W70797  16.578  14.198   1.707
 4015W        W70798   2.413  36.934  14.506
 4016W        W70799  31.349  25.633  13.765
 4017W        W70800  32.709  41.938   4.701
 4018W        W70801   8.290  36.819  13.876
 4019W        W70802  23.068  23.414   4.092
 4020W        W70803  37.290  15.592   4.518
 4021W        W70804   6.581   4.179   1.300
 4022W        W70805   7.206  37.708  11.985
 4023W        W70806  12.739  31.199   0.757
 4024W        W70807  44.862  11.860   1.923
 4025W        W70808  10.004  29.615   4.228
 4026W        W70809   1.215  40.892  12.498
 4027W        W70810  14.275  21.465   0.851
 4028W        W70811  38.445  40.365  14.512
 4029W        W70812  42.412  44.929  10.720
 4030W        W70813  12.339  17.658  13.393
 4031W        W70814  26.224   6.406  13.403
 4032W        W70815  11.785   9.193   3.571
 4033W        W70816  13.265  29.478  13.744
 4034W        W70817  27.921  12.673  12.485
 4035W        W70818  19.732   9.870   1.483
 4036W        W70819  38.978  33.328   2.785
 4037W        W70820   5.916   4.978  11.534
 4038W        W70821  30.372  14.806   0.688
 4039W        W70822   4.226   0.698  13.548
 4040W        W70823  38.468  16.800   3.952
 4041W        W70824  34.636  25.712   1.508
 4042W        W70825  13.731  21.791  11.497
 4043W        W70826   9.574   1.392   4.500
 4044W        W70827  34.558  42.812  14.491
 4045W        W70828  24.932  18.990  12.893
 4046W        W70829  17.656  14.568  12.951
 4047W        W70830  11.413   9.563  11.562
 4048W        W70831  14.729   7.304  11.069
 4049W        W70832  24.376  23.967   3.263
 4050W        W70833  19.694  44.059  12.909
 4051W        W70834  38.094  29.948  10.749
 4052W        W70835  26.378  44.471   3.174
 4053W        W70836  26.021  17.840   3.121
 4054W        W70837  20.704  17.327   2.645
 4055W        W70838  11.289  35.651   3.557
 4056W        W70839  36.711  42.352  12.965
 4057W        W70840  23.559  44.414   1.001
 4058W        W70841  30.150  18.065   0.807
 4059W        W70842  35.610  10.998  11.378
 4060W        W70843   7.528   2.975   4.178
 4061W        W70844   7.912  27.886   3.197
 4062W        W70845  26.761  23.499  11.083
 4063W        W70846   7.882  21.604  14.549
 4064W        W70847   8.876  20.835  12.413
 4065W        W70848  25.529  34.166   3.372
 4066W        W70849  24.444  39.693  14.290
 4067W        W70850  43.756  33.590   3.137
 4068W        W70851   5.258  30.174   3.240
 4069W        W70852  42.290  15.680   4.384
 4070W        W70853  29.442  17.117  13.354
 4071W        W70854  14.137   7.793   0.809
 4072W        W70855  16.232  36.400  10.640
 4073W        W70856  24.431  20.969   1.818
 4074W        W70857  40.010   5.002   0.445
 4075W        W70858  29.997   6.502  11.555
 4076W        W70859  27.684   0.081   1.949
 4077W        W70860  15.581  25.529  12.139
 4078W        W70861  31.605  19.932  10.913
 4079W        W70862  42.571  22.065  14.922
 4080W        W70863  38.631  35.425   4.677
 4081W        W70864   5.698  21.738   2.698
 4082W        W70865  40.301  38.322  11.514
 4083W        W70866  31.090  41.212  12.940
 4084W        W70867  27.186  25.495   3.095
 4085W        W70868  33.525   6.450  12.046
 4086W        W70869  12.369  17.716   1.438
 4087W        W70870  44.089  13.902  13.153
 4088W        W70871  37.323  12.606  12.099
 4089W        W70872  39.034  42.396  14.372
 4090W        W70873  27.060   4.688   1.183
 4091W        W70874  32.146  30.362   4.583
 4092W        W70875   2.223  43.817   0.184
 4093W        W70876  34.080   3.711   4.153
 4094W        W70877  44.818  11.180  10.548
 4095W        W70878  30.210  22.214   0.858
 4096W        W70879  33.585  10.672  11.958
 4097W        W70880  24.478  17.900   1.985
 4098W        W70881   8.850   1.987  13.099
 4099W        W70882  15.723  27.561   0.472
 4100W        W70883   6.156  38.008  13.074
 4101W        W70884  22.037  32.351   3.243
 4102W        W70885   4.259  40.988   2.568
 4103W        W70886  16.646  29.471  11.719
 4104W        W70887   3.488  37.290   4.974
 4105W        W70888  10.127  41.516  12.279
 4106W        W70889   9.300   1.965   2.010
 4107W        W70890  36.579  11.402  10.088
 4108W        W70891  15.577  43.474   0.520
 4109W        W70892  14.259  36.410   2.589
 4110W        W70893   8.449  18.448   0.570
 4111W        W70894   3.012  21.582  13.030
 4112W        W70895  15.549  16.748  13.529
 4113W        W70896  27.641  28.399  10.473
 4114W        W70897  11.156  21.337  11.256
 4115W        W70898  36.070  33.546   3.337
 4116W        W70899  31.182  31.337   3.161
 4117W        W70900  36.466  24.466   4.706
 4118W        W70901  40.945   6.361   5.740
 4119W        W70902  16.722   5.203   4.103
 4120W        W70903  15.267  39.613  11.855
 4121W        W70904  14.845  19.235  13.010
 4122W        W70905  21.226   3.319   0.680
 4123W        W70906  14.381  18.190  11.832
 4124W        W70907   7.132  33.331  11.495
 4125W        W70908  41.318   3.484  10.797
 4126W        W70909  44.406  36.931  13.472
 4127W        W70910  42.242   7.942   2.222
 4128W        W70911  42.670   9.839   5.174
 4129W        W70912   1.459   8.377  13.737
 4130W        W70913  21.705  42.288   0.898
 4131W        W70914  12.186  11.550   1.215
 4132W        W70915  27.096  38.869  11.109
 4133W        W70916  18.706   7.754  12.053
 4134W        W70917   8.929  41.909   3.649
 4135W        W70918   7.418  18.472   5.192
 4136W        W70919  30.524   0.184  13.023
 4137W        W70920  15.297  23.311   4.120
 4138W        W70921  39.494  30.167  13.029
 4139W        W70922  32.344  27.949  11.010
 4140W        W70923  43.296  18.034  14.338
 4141W        W70924   5.586  29.653   0.957
 4142W        W70925  32.998  26.006  12.108
 4143W        W70926  17.099  29.941   4.500
 4144W        W70927   1.784  10.833   2.825
 4145W        W70928  31.161   7.857  11.923
 4146W        W70929  18.742  12.523   4.569
 4147W        W70930  10.763  34.173   2.282
 4148W        W70931  12.485   6.340  13.872
 4149W        W70932   4.746  16.736   3.747
 4150W        W70933  37.664  19.059  12.459
 4151W        W70934  38.476  27.389   3.999
 4152W        W70935  40.283  42.151  11.953
 4153W        W70936  26.311  15.140   0.244
 4154W        W70937  32.880  34.989   0.867
 4155W        W70938   6.476  26.145  11.105
 4156W        W70939  43.916  36.613  12.370
 4157W        W70940  26.425  13.091  14.087
 4158W        W70941  28.587  32.298  10.761
 4159W        W70942  31.203  18.622  12.205
 4160W        W70943   7.927  32.123  10.289
 4161W        W70944  34.328  25.481  11.093
 4162W        W70945  24.935   5.306   4.052
 4163W        W70946  23.413   7.310   0.360
 4164W        W70947   9.646   3.363   1.365
 4165W        W70948  29.909  42.989   1.631
 4166W        W70949  19.479  21.525   2.730
 4167W        W70950  10.817  42.962  10.698
 4168W        W70951  43.459  18.965   0.813
 4169W        W70952  25.827   4.813   2.429
 4170W        W70953   7.115  31.799  13.106
 4171W        W70954  24.973   6.421   4.284
 4172W        W70955  23.647  32.679   3.158
 4173W        W70956  34.434  17.674  10.343
 4174W        W70957  38.275  19.611  11.707
 4175W        W70958  38.568   5.027  11.978
 4176W        W70959  15.917   3.389   2.119
 4177W        W70960  21.463  17.861   0.983
 4178W        W70961  14.404   1.573   0.570
 4179W        W70962   6.401  43.303   4.774
 4180W        W70963   1.093   9.697   5.015
 4181W        W70964  11.220  30.835   4.523
 4182W        W70965  26.703   0.834   4.683
 4183W        W70966  41.613  36.489  14.914
 4184W        W70967  23.428  20.543  12.155
 4185W        W70968   0.692  26.735  14.955
 4186W        W70969  36.231   0.232   4.210
 4187W        W70970  29.745   8.703  13.801
 4188W        W70971  35.972  44.308   0.416
 4189W        W70972  21.066  27.638  10.944
 4190W        W70973  35.805   4.193  10.594
 4191W        W70974  40.126  33.996   1.505
 4192W        W70975  34.321  41.859   0.473
 4193W        W70976  35.045  11.584  12.314
 4194W        W70977  44.438   3.343   5.034
 4195W        W70978  37.915  37.970   4.133
 4196W        W70979   2.261  21.079   3.650
 4197W        W70980   9.598  19.960   1.828
 4198W        W70981  33.300  44.040  13.421
 4199W        W70982  11.728  22.910  12.373
 4200W        W70983  40.997  39.283  12.035
 4201W        W70984   6.703  35.861   1.305
 4202W        W70985  13.546  40.342   3.696
 4203W        W70986  14.919  33.918  14.822
 4204W        W70987  44.751   1.335  10.405
 4205W        W70988   3.752  17.156   3.344
 4206W        W70989   3.392  44.259   2.781
 4207W        W70990   6.442  33.016  12.660
 4208W        W70991   7.837   5.163   3.216
 4209W        W70992  39.256  16.187  14.875
 4210W        W70993   5.292   7.460  11.589
 4211W        W70994  10.928  33.175   3.055
 4212W        W70995   3.161  20.993   4.943
 4213W        W70996   3.012  23.113  12.073
 4214W        W70997  15.206  32.610   0.031
 4215W        W70998  42.268   9.328   1.391
 4216W        W70999  44.206  27.686  13.002
 4217W        W71000  10.839  30.483  11.529
 4218W        W71001   1.248   1.789   4.459
 4219W        W71002  38.519   5.037   3.751
 4220W        W71003   7.381  22.975   2.154
 4221W        W71004  37.010   5.711  10.970
 4222W        W71005  19.521  34.893  10.635
 4223W        W71006  36.464  20.748  13.431
 4224W        W71007   4.164  41.403   5.047
 4225W        W71008   0.026  15.855   0.728
 4226W        W71009  11.147  34.649  12.311
 4227W        W71010  23.722  12.121   0.518
 4228W        W71011  40.516  15.924   0.046
 4229W        W71012  23.806  30.585   0.737
 4230W        W71013  13.372  38.837   4.406
 4231W        W71014  39.587  21.888  14.687
 4232W        W71015  39.311  37.984  13.579
 4233W        W71016  19.307  13.402  13.412
 4234W        W71017   2.954   8.425   1.950
 4235W        W71018  17.011  17.439  13.879
 4236W        W71019  11.295  12.309  10.785
 4237W        W71020  38.800   9.009   4.349
 4238W        W71021  26.127   7.227   2.301
 4239W        W71022  31.477   5.011  13.324
 4240W        W71023  32.430  27.593   4.939
 4241W        W71024  18.028  43.483  11.946
 4242W        W71025   6.065  26.718  12.666
 4243W        W71026  33.464  13.365  12.124
 4244W        W71027  22.995  38.643  12.028
 4245W        W71028  37.027  16.268  11.174
 4246W        W71029  27.914   0.413   2.296
 4247W        W71030  43.458  28.463   0.395
 4248W        W71031  12.686  42.178   2.839
 4249W        W71032  36.370  39.851   0.403
 4250W        W71033  37.059  44.565  13.329
 4251W        W71034   5.207   3.425   4.601
 4252W        W71035  25.104  11.348  11.285
 4253W        W71036   2.493  29.511   2.783
 4254W        W71037   2.984  35.543   2.991
 4255W        W71038  26.776  19.635  10.369
 4256W        W71039  30.505   4.324  12.350
 4257W        W71040   3.214  28.371   0.475
 4258W        W71041  11.115  27.019  14.494
 4259W        W71042  43.586  37.258   1.668
 4260W        W71043  24.213  11.733   3.717
 4261W        W71044  17.321  31.185   0.043
 4262W        W71045  41.341  33.741  14.157
 4263W        W71046  41.097  42.939  11.183
 4264W        W71047  31.495  28.544   0.764
 4265W        W71048  23.222  39.676   2.862
 4266W        W71049  36.018   7.162   2.795
 4267W        W71050  36.646  33.279  12.014
 4268W        W71051  18.889  33.523   4.559
 4269W        W71052  23.097  24.024  11.349
 4270W        W71053  36.322  12.365  11.517
 4271W        W71054  38.389  38.128   0.142
 4272W        W71055  31.578  14.242   1.016
 4273W        W71056  43.654  26.339  12.132
 4274W        W71057  16.632   8.499   4.965
 4275W        W71058   5.284  23.303  12.169
 4276W        W71059  25.795  14.603  12.516
 4277W        W71060   2.115  20.141   4.590
 4278W        W71061  16.326  34.101  10.723
 4279W        W71062  21.186  28.485   4.109
 4280W        W71063  10.262  22.647   4.481
 4281W        W71064  28.306  24.165   4.103
 4282W        W71065  37.973  32.060   2.240
 4283W        W71066  24.261  43.451  11.538
 4284W        W71067  28.724  24.030   1.908
 4285W        W71068  41.424  31.848  10.666
 4286W        W71069  26.423  19.326   0.749
 4287W        W71070  26.661   9.569  10.169
 4288W        W71071   9.177  39.829   3.976
 4289W        W71072   3.568  11.745  10.715
 4290W        W71073  41.516  24.295  13.332
 4291W        W71074  41.110  32.125  14.418
 4292W        W71075  39.988   6.012  14.828
 4293W        W71076  10.202  32.130  13.544
 4294W        W71077  33.337  12.794   3.326
 4295W        W71078  29.081  26.551  11.442
 4296W        W71079  32.033  13.753  12.091
 4297W        W71080  24.907  14.152  14.784
 4298W        W71081  40.912  26.180  13.194
 4299W        W71082  43.450   0.713  10.099
 4300W        W71083  16.843  37.108  13.898
 4301W        W71084  28.254  37.005  12.904
 4302W        W71085  13.282  29.830   2.904
 4303W        W71086  14.833  44.230  11.345
 4304W        W71087  29.629  19.668   1.696
 4305W        W71088  15.808  23.573  10.283
 4306W        W71089   2.242  28.053  11.705
 4307W        W71090  19.302  27.180   0.341
 4308W        W71091  28.422   0.820  11.235
 4309W        W71092  38.991   4.392   4.187
 4310W        W71093   6.468   6.773  13.857
 4311W        W71094  34.163  39.756  13.991
 4312W        W71095  42.964  25.245   4.262
 4313W        W71096   6.691  22.522   1.769
 4314W        W71097  40.759  35.407  14.391
 4315W        W71098   4.062  12.736  12.931
 4316W        W71099   6.638  25.807   4.560
 4317W        W71100   9.808  24.486   4.154
 4318W        W71101  43.305  40.529  14.418
 4319W        W71102  10.317  24.176   0.958
 4320W        W71103  11.197  26.563   0.544
 4321W        W71104   5.284  23.846   5.167
 4322W        W71105  21.708  21.645   2.429
 4323W        W71106  16.504  31.957   0.488
 4324W        W71107  36.880  37.047   2.182
 4325W        W71108  14.045  17.318   1.441
 4326W        W71109   9.358  18.192   0.054
 4327W        W71110  19.345  38.430  12.541
 4328W        W71111  26.319   0.203  10.280
 4329W        W71112  13.824  26.632  13.494
 4330W        W71113  42.705  28.633   4.875
 4331W        W71114  23.623  34.192  13.885
 4332W        W71115  24.454  26.933   3.297
 4333W        W71116  34.884   0.326   0.323
 4334W        W71117  10.744   0.431  13.863
 4335W        W71118   8.865  29.186  14.354
 4336W        W71119   7.733  19.757  14.598
 4337W        W71120  20.534  43.292   2.741
 4338W        W71121   5.673  12.810   0.226
 4339W        W71122  31.578  15.810  13.458
 4340W        W71123  34.639  18.056   4.936
 4341W        W71124   2.796  35.998  13.130
 4342W        W71125   4.737   4.464   4.497
 4343W        W71126  42.699  38.830   2.884
 4344W        W71127  18.296  12.214  13.849
 4345W        W71128   9.641   7.843  13.153
 4346W        W71129  37.787  38.016   4.628
 4347W        W71130  23.064   9.686   5.036
 4348W        W71131  16.175  34.872   0.493
 4349W        W71132  17.156  17.953  13.869
 4350W        W71133   6.928  33.346  13.884
 4351W        W71134  38.953   1.702   0.905
 4352W        W71135  15.052  30.872   0.242
 4353W        W71136  19.684  18.520   4.578
 4354W        W71137  40.002  29.719   2.051
 4355W        W71138  41.660  33.064  12.605
 4356W        W71139  26.420  12.425  14.424
 4357W        W71140  26.662   0.454  14.106
 4358W        W71141  39.672   6.385   2.363
 4359W        W71142  43.235  21.205  11.038
 4360W        W71143  17.089  15.774   4.915
 4361W        W71144  42.471   2.907   3.708
 4362W        W71145  26.490  19.511   5.201
 4363W        W71146  11.878  28.771   0.715
 4364W        W71147  26.019   3.143   2.770
 4365W        W71148   4.607   3.526   0.541
 4366W        W71149  34.154  22.228  13.094
 4367W        W71150  43.656  35.957   3.112
 4368W        W71151   1.048  41.012  14.214
 4369W        W71152  34.216  43.790   4.201
 4370W        W71153  29.263  40.656   4.146
 4371W        W71154  40.744  10.498  12.076
 4372W        W71155   7.831  21.018   4.696
 4373W        W71156  18.690  20.663  10.701
 4374W        W71157  43.392  15.389   0.928
 4375W        W71158  26.667  20.555  10.822
 4376W        W71159  26.969  34.909  14.436
 4377W        W71160  40.930  44.802  14.902
 4378W        W71161  11.670  28.709  12.498
 4379W        W71162  42.464  32.733   4.175
 4380W        W71163  25.391  29.174  13.549
 4381W        W71164  30.496  30.381  13.441
 4382W        W71165  14.663  32.300  12.685
 4383W        W71166  16.856   3.089  12.846
 4384W        W71167  25.756  39.856   0.464
 4385W        W71168  29.030  23.964   3.673
 4386W        W71169  42.935  35.452  10.329
 4387W        W71170  41.475  30.440   1.816
 4388W        W71171  18.126  26.194  12.629
 4389W        W71172  28.631  12.776   1.490
 4390W        W71173  24.955  40.294  13.848
 4391W        W71174  33.521  17.190   0.630
 4392W        W71175  24.810  28.502  14.459
 4393W        W71176  18.580  11.196   4.693
 4394W        W71177  21.251  25.454  12.096
 4395W        W71178  13.109   1.735   1.924
 4396W        W71179   9.191  12.217   4.436
 4397W        W71180  15.209  38.306  14.541
 4398W        W71181  13.846  10.992   0.477
 4399W        W71182  20.610  10.674   3.383
 4400W        W71183  29.178   1.672   1.808
 4401W        W71184  32.234  19.734   5.067
 4402W        W71185  39.012   4.470   0.489
 4403W        W71186  32.741   0.360  11.094
 4404W        W71187  40.273  13.197   3.054
 4405W        W71188  34.021  36.947   3.679
 4406W        W71189  36.581  18.412  13.428
 4407W        W71190  13.219  33.610   2.676
 4408W        W71191  22.436  24.280  12.580
 4409W        W71192  19.117  42.468   1.723
 4410W        W71193  10.140  12.838  11.395
 4411W        W71194  40.951   5.450   2.312
 4412W        W71195  18.567  20.090   0.975
 4413W        W71196  10.846  15.420   1.479
 4414W        W71197  31.737  11.305   4.594
 4415W        W71198   0.239  14.719  11.161
 4416W        W71199   0.169  16.144   9.817
 4417W        W71200   0.804  34.986   2.271
 4418W        W71201  30.361  15.191  10.809
 4419W        W71202  34.451  44.262  12.108
 4420W        W71203   9.428  24.641   4.465
 4421W        W71204   4.830  28.890   4.145
 4422W        W71205  27.173  39.612  11.158
 4423W        W71206  36.663  17.201  14.552
 4424W        W71207  28.619   2.676  12.477
 4425W        W71208  15.415  30.826  12.986
 4426W        W71209  20.748  25.984   3.315
 4427W        W71210  21.681  42.321   4.104
 4428W        W71211   6.738  42.305   1.206
 4429W        W71212  13.537  36.382   0.330
 4430W        W71213  21.188   8.578   2.678
 4431W        W71214   3.418   6.771  13.425
 4432W        W71215  27.814  26.159   9.787
 4433W        W71216   5.475  40.839   1.823
 4434W        W71217  15.667  22.171   4.398
 4435W        W71218  30.568  17.077   1.695
 4436W        W71219  34.635   6.385   1.336
 4437W        W71220  41.438   5.766   4.813
 4438W        W71221  19.025  12.693  11.563
 4439W        W71222  26.158  13.429   0.700
 4440W        W71223  40.991  14.119   0.755
 4441W        W71224  15.154  28.993   1.327
 4442W        W71225   6.251   7.006  11.603
 4443W        W71226  26.793  35.188   3.644
 4444W        W71227  36.497   1.979  11.604
 4445W        W71228  22.080  24.893  11.886
 4446W        W71229  12.095   0.765  11.998
 4447W        W71230  12.832  12.608   2.894
 4448W        W71231  13.209  36.634  13.833
 4449W        W71232  29.262  37.552   2.196
 4450W        W71233  19.527  38.053  14.404
 4451W        W71234  40.998  31.968  12.879
 4452W        W71235   7.321  14.045  10.990
 4453W        W71236  16.738  17.580  11.368
 4454W        W71237   3.217  12.671  14.498
 4455W        W71238  24.249  21.554   2.890
 4456W        W71239  33.562  40.397   5.117
 4457W        W71240   9.960  39.874   2.703
 4458W        W71241  29.881  30.401   1.093
 4459W        W71242  12.457  36.655   3.209
 4460W        W71243  19.610  16.054   3.532
 4461W        W71244  15.276  12.361   2.937
 4462W        W71245   6.953  39.270  13.908
 4463W        W71246  31.727  43.773   5.335
 4464W        W71247   4.198  24.517   1.484
 4465W        W71248   1.797  21.056   0.212
 4466W        W71249  43.313  10.428   3.675
 4467W        W71250  14.306   1.972  14.506
 4468W        W71251  15.694  26.046  14.954
 4469W        W71252  44.085  34.040  12.024
 4470W        W71253  20.993  36.330  14.381
 4471W        W71254  43.476  19.720   0.059
 4472W        W71255  30.136   8.746  12.975
 4473W        W71256   9.399  12.772  13.523
 4474W        W71257  38.313   5.629  11.935
 4475W        W71258  22.838  12.837   1.360
 4476W        W71259  31.490  23.018  13.785
 4477W        W71260  19.768   1.424  13.285
 4478W        W71261  14.882  29.001  12.514
 4479W        W71262  20.665  32.401   0.308
 4480W        W71263   7.416  15.811   1.343
 4481W        W71264  38.416  24.779  13.429
 4482W        W71265  28.634   5.269  11.071
 4483W        W71266  43.544  23.509   0.398
 4484W        W71267  26.444  34.957  14.228
 4485W        W71268  30.692   8.306  13.602
 4486W        W71269  27.952   5.977  14.437
 4487W        W71270  31.115   2.199  13.753
 4488W        W71271  23.514   9.430   3.786
 4489W        W71272  16.242   4.665   3.096
 4490W        W71273   5.287  44.912   4.634
 4491W        W71274  38.161  43.545   3.328
 4492W        W71275   3.229   4.760   4.137
 4493W        W71276  19.092  24.265   4.244
 4494W        W71277   3.200  38.404  11.991
 4495W        W71278  16.856  11.255  11.690
 4496W        W71279  12.099  36.436   9.819
 4497W        W71280  22.054   7.518   0.802
 4498W        W71281  13.558  18.054  10.634
 4499W        W71282  13.714   5.884   4.609
 4500W        W71283  23.530   6.607  12.041
 4501W        W71284  22.180  28.437  12.903
 4502W        W71285  38.933  19.611  13.825
 4503W        W71286  15.745  12.113   1.668
 4504W        W71287  20.719   7.194   4.132
 4505W        W71288  16.864  11.164  12.189
 4506W        W71289  34.899  24.180   0.760
 4507W        W71290   1.809  10.093  11.653
 4508W        W71291   5.339  16.726   1.342
 4509W        W71292  43.370  12.108   2.281
 4510W        W71293  18.146  38.957  14.981
 4511W        W71294   0.568  41.858   2.588
 4512W        W71295  36.523  44.968  12.594
 4513W        W71296  36.550  26.514   3.302
 4514W        W71297   5.649   9.423  13.355
 4515W        W71298  21.026  21.806  14.831
 4516W        W71299  40.173  42.958   4.574
 4517W        W71300  43.612  31.006   2.225
 4518W        W71301  12.874  27.985   9.917
 4519W        W71302  41.327  12.626   4.636
 4520W        W71303  43.611  33.489  11.268
 4521W        W71304  27.492  22.457   1.755
 4522W        W71305  10.917   3.458   2.517
 4523W        W71306   4.426  30.076  12.550
 4524W        W71307  16.231   0.267   2.347
 4525W        W71308  28.175  38.305  12.790
 4526W        W71309  40.403  33.179   0.883
 4527W        W71310  14.404  41.526   2.258
 4528W        W71311   8.878  19.106  13.560
 4529W        W71312  29.632  24.250  14.851
 4530W        W71313  10.888  16.329  14.578
 4531W        W71314   5.163  23.734   3.172
 4532W        W71315  13.260  17.084   2.382
 4533W        W71316   6.589  33.510  12.720
 4534W        W71317  20.340  18.301  13.976
 4535W        W71318  44.083  43.878   1.652
 4536W        W71319  28.662   8.524   0.336
 4537W        W71320  32.423  25.241   4.971
 4538W        W71321  15.544  23.501  14.307
 4539W        W71322  25.400  11.012   0.111
 4540W        W71323  39.603  18.116   3.708
 4541W        W71324  10.340  43.258   1.420
 4542W        W71325  24.039  40.539   3.287
 4543W        W71326  26.216   7.373  13.948
 4544W        W71327  35.943  10.147  12.118
 4545W        W71328  26.914  29.889  11.550
 4546W        W71329  26.677  26.640   1.737
 4547W        W71330  23.420  37.917  12.299
 4548W        W71331  21.873  19.818  11.243
 4549W        W71332  10.086  24.801  11.770
 4550W        W71333   2.188  12.412  11.470
 4551W        W71334  40.491  39.061   4.211
 4552W        W71335  34.495   3.899  14.922
 4553W        W71336  41.599  25.376   2.257
 4554W        W71337  43.554   4.860  10.235
 4555W        W71338  33.840  23.535  11.174
 4556W        W71339  44.316  44.715  14.461
 4557W        W71340  17.239  30.201   0.468
 4558W        W71341  28.833  26.250  12.155
 4559W        W71342  21.119  13.045   0.035
 4560W        W71343  11.322  38.836  14.836
 4561W        W71344  22.096  13.584  11.058
 4562W        W71345  22.026   4.905  14.034
 4563W        W71346  26.197  11.230  14.898
 4564W        W71347  31.486  16.028  10.695
 4565W        W71348  17.497   3.475  13.602
 4566W        W71349  26.288  34.487   1.718
 4567W        W71350  20.038   8.390   3.262
 4568W        W71351  30.639  14.666  10.720
 4569W        W71352  43.406  16.652  14.817
 4570W        W71353  41.022  13.308   2.652
 4571W        W71354   7.100   4.213  11.159
 4572W        W71355   7.798   4.936  14.761
 4573W        W71356  30.066  20.366  14.655
 4574W        W71357  44.595   8.929  10.760
 4575W        W71358  19.652  33.780  13.406
 4576W        W71359  36.679  12.401  11.172
 4577W        W71360  33.044  39.978  10.952
 4578W        W71361  40.594  43.658  14.186
 4579W        W71362  16.336   3.442  10.320
 4580W        W71363  37.481  23.900  11.461
 4581W        W71364  31.439  29.265   1.756
 4582W        W71365  11.305  25.288  11.113
 4583W        W71366  30.972   3.031  10.710
 4584W        W71367  34.428  33.869   2.859
 4585W        W71368  35.116  35.699   5.011
 4586W        W71369   3.463  15.654   5.096
 4587W        W71370  11.825  41.399   4.172
 4588W        W71371  33.777  30.935  14.977
 4589W        W71372  13.673  21.526   3.041
 4590W        W71373  13.028  40.816   1.193
 4591W        W71374   1.802  32.468  13.694
 4592W        W71375  33.878  21.124   3.094
 4593W        W71376  31.146   4.674  14.858
 4594W        W71377   8.896  23.490  12.029
 4595W        W71378  25.146  21.162   4.091
 4596W        W71379  44.852  17.145  12.066
 4597W        W71380  23.156   5.812   5.181
 4598W        W71381   4.340  19.427  12.880
 4599W        W71382  17.585  35.552   3.568
 4600W        W71383   7.175  43.104   0.852
 4601W        W71384   7.348  25.447   1.861
 4602W        W71385  43.365  22.058  14.467
 4603W        W71386   0.449   4.020  11.649
 4604W        W71387  25.159   8.409   2.226
 4605W        W71388  10.267  36.641   2.247
 4606W        W71389  11.228  32.679  14.861
 4607W        W71390  40.509  39.621   3.249
 4608W        W71391   2.933  29.944  12.489
 4609W        W71392  13.224   4.045  14.423
 4610W        W71393  12.040   6.268   1.288
 4611W        W71394  10.154  39.928  13.478
 4612W        W71395  26.194   3.217  11.740
 4613W        W71396  25.063  11.948   2.387
 4614W        W71397   2.670  33.523   4.049
 4615W        W71398  25.515  18.291  14.887
 4616W        W71399  26.616  10.274  10.597
 4617W        W71400  38.328  43.116   4.231
 4618W        W71401  10.613   0.429  11.606
 4619W        W71402  14.393  31.533   4.564
 4620W        W71403   2.237  29.247   3.137
 4621W        W71404  29.628  41.330   1.210
 4622W        W71405   7.913  44.608   1.446
 4623W        W71406  37.116   9.582   0.453
 4624W        W71407   6.297  14.092   3.545
 4625W        W71408  31.709   1.613   1.422
 4626W        W71409  34.294  11.607   1.008
 4627W        W71410  20.966  36.448  11.568
 4628W        W71411  26.936  28.436  14.288
 4629W        W71412  12.135   8.952  12.588
 4630W        W71413  27.910  28.649   0.999
 4631W        W71414  14.779  35.983  11.230
 4632W        W71415  39.922  44.912  13.484
 4633W        W71416  29.669  34.914   3.344
 4634W        W71417  43.526   4.634  14.110
 4635W        W71418  28.551  34.150   2.849
 4636W        W71419  32.246  37.146   0.090
 4637W        W71420   4.167  13.212   3.285
 4638W        W71421  29.651  12.032  11.643
 4639W        W71422  21.054  39.092  14.911
 4640W        W71423   0.992   2.318   1.819
 4641W        W71424  16.336  36.860  12.354
 4642W        W71425  14.383  15.734   2.580
 4643W        W71426   1.068  39.638  11.054
 4644W        W71427  15.291   8.670  11.803
 4645W        W71428   2.471  14.734   3.301
 4646W        W71429  29.730  18.289   0.479
 4647W        W71430  27.620  27.041  13.396
 4648W        W71431  17.816  22.258  12.042
 4649W        W71432   8.277  23.588  11.865
 4650W        W71433   3.356  23.959   0.045
 4651W        W71434   7.868  33.573   4.482
 4652W        W71435  40.549  35.673  14.894
 4653W        W71436  22.188  10.204  14.243
 4654W        W71437  22.765   3.523  12.440
 4655W        W71438  16.114  13.571   2.832
 4656W        W71439  25.533  17.258   3.185
 4657W        W71440  10.855  33.013  14.938
 4658W        W71441  17.592  23.275  10.313
 4659W        W71442  38.948  26.722  14.430
 4660W        W71443   1.930   3.389   4.206
 4661W        W71444  13.707  15.749  11.218
 4662W        W71445  36.859  33.566  11.631
 4663W        W71446   1.378   5.697  10.754
 4664W        W71447   0.962   2.329   3.750
 4665W        W71448   7.327  19.002   2.484
 4666W        W71449  12.851  14.565   3.610
 4667W        W71450  28.608  16.226   3.888
 4668W        W71451  44.936   9.689   1.244
 4669W        W71452   9.038  22.538  11.221
 4670W        W71453  27.994  38.327  14.929
 4671W        W71454  43.627  44.506  11.631
 4672W        W71455  23.482  17.592   0.164
 4673W        W71456  18.773  43.971  11.943
 4674W        W71457  12.792  34.480   2.191
 4675W        W71458  14.450  37.253  10.285
 4676W        W71459  39.483  17.785   0.495
 4677W        W71460  33.520  13.042   4.603
 4678W        W71461  41.222  28.024   2.103
 4679W        W71462  43.452  13.635   2.237
 4680W        W71463  14.731   1.493   1.724
 4681W        W71464  15.232   3.712  14.241
 4682W        W71465   3.103  44.276  14.824
 4683W        W71466  13.321   4.582  12.017
 4684W        W71467  33.461  18.786   2.001
 4685W        W71468  30.453  12.160   0.711
 4686W        W71469  39.940  24.226  12.896
 4687W        W71470  43.261  28.730  11.616
 4688W        W71471  20.028  29.833   4.311
 4689W        W71472  28.514   4.431   4.158
 4690W        W71473   0.514  33.099   1.803
 4691W        W71474   2.837  24.709   4.882
 4692W        W71475  27.179  39.333   4.353
 4693W        W71476  13.307   5.774   4.147
 4694W        W71477  35.922   8.717   4.154
 4695W        W71478   1.548   2.398  11.313
 4696W        W71479  37.682  23.902  11.932
 4697W        W71480  25.131  14.243   1.259
 4698W        W71481  32.864  34.969  10.633
 4699W        W71482   5.938   9.910   0.829
 4700W        W71483  35.260  29.893   3.051
 4701W        W71484  34.629  40.097  12.573
 4702W        W71485  23.700  19.592   1.784
 4703W        W71486   3.792  21.207  11.471
 4704W        W71487  38.895  40.879  13.340
 4705W        W71488  26.543  14.325  12.133
 4706W        W71489  17.550  15.009   1.810
 4707W        W71490  30.754   1.920   1.683
 4708W        W71491  34.669  11.817   3.188
 4709W        W71492   7.534   2.804  11.129
 4710W        W71493  10.395   0.227  10.863
 4711W        W71494  11.886  11.225   2.355
 4712W        W71495  38.055  13.907   2.701
 4713W        W71496  17.245   0.440   4.625
 4714W        W71497  42.033  22.467   1.914
 4715W        W71498  38.810   9.720  11.580
 4716W        W71499   9.744  35.475   2.722
 4717W        W71500   3.241  32.782   2.077
 4718W        W71501  43.742  23.139   1.738
 4719W        W71502  40.052   3.858   1.841
 4720W        W71503  15.079  11.860  10.671
 4721W        W71504  27.289   3.716   3.208
 4722W        W71505  25.159  10.305  13.560
 4723W        W71506   3.857  27.478  11.143
 4724W        W71507  18.337  28.051   1.658
 4725W        W71508  27.086  31.387  13.671
 4726W        W71509  39.505   5.812   1.469
 4727W        W71510   5.277  29.668  14.003
 4728W        W71511   2.825  35.356   4.832
 4729W        W71512   4.974  33.633   5.107
 4730W        W71513   3.479  23.048   0.310
 4731W        W71514  30.580  23.697  12.477
 4732W        W71515   5.975  33.467  10.622
 4733W        W71516  17.359  42.315  13.415
 4734W        W71517   5.320   0.083   4.139
 4735W        W71518  21.660  19.733   4.096
 4736W        W71519  24.896   5.778  14.271
 4737W        W71520  24.302  27.961  13.393
 4738W        W71521  28.221  10.959   0.915
 4739W        W71522   9.477   1.755   2.460
 4740W        W71523   3.163  16.653  14.819
 4741W        W71524   9.704  32.854   1.233
 4742W        W71525  11.065  40.806  10.830
 4743W        W71526  20.202   6.374   1.169
 4744W        W71527  11.662   6.738  10.788
 4745W        W71528  42.511  17.742   3.242
 4746W        W71529   3.036  42.748   2.236
 4747W        W71530  43.304  13.269   1.372
 4748W        W71531  24.363  35.533  14.797
 4749W        W71532   7.693  22.216  11.081
 4750W        W71533  15.694  30.100   0.779
 4751W        W71534  23.744  29.453   4.059
 4752W        W71535  35.472   0.203  13.085
 4753W        W71536  20.883  44.277   3.603
 4754W        W71537  15.774  16.240   3.812
 4755W        W71538  33.579   7.015  12.123
 4756W        W71539  42.799  14.747   3.652
 4757W        W71540   4.243  20.114   4.124
 4758W        W71541   0.225  35.004   4.814
 4759W        W71542  29.009  14.781  12.379
 4760W        W71543  41.098   9.136   0.746
 4761W        W71544  38.809  40.460   2.398
 4762W        W71545  37.587   8.303   3.691
 4763W        W71546   8.332  10.703  12.962
 4764W        W71547  17.757  34.526   1.088
 4765W        W71548  33.128  44.907  10.410
 4766W        W71549   1.519   4.631   1.663
 4767W        W71550   5.898  24.676   4.790
 4768W        W71551   6.397   8.450  10.024
 4769W        W71552  29.130  13.709  13.106
 4770W        W71553  12.035   3.874  13.855
 4771W        W71554   5.822  26.648   1.967
 4772W        W71555  32.975  21.767   2.392
 4773W        W71556  40.387  18.008  14.925
 4774W        W71557   1.739  19.674   3.711
 4775W        W71558  24.060   6.448   1.642
 4776W        W71559  40.476  19.718   3.680
 4777W        W71560  18.300  20.456   3.272
 4778W        W71561  41.379  10.324  10.703
 4779W        W71562   6.718  36.922  13.005
 4780W        W71563  22.984  22.623   1.296
 4781W        W71564  26.450  29.934  12.385
 4782W        W71565  37.563  27.197  11.550
 4783W        W71566   3.253  24.007   3.164
 4784W        W71567   0.935  29.464   3.098
 4785W        W71568  32.550   0.880   0.209
 4786W        W71569  28.546  20.987   3.343
 4787W        W71570  42.577  26.454   1.881
 4788W        W71571  23.063  29.635   0.979
 4789W        W71572   8.938  21.821   2.148
 4790W        W71573  40.111   2.857  11.045
 4791W        W71574  29.471  33.968   2.197
 4792W        W71575   7.237  30.193   2.812
 4793W        W71576  14.268   5.448   4.200
 4794W        W71577  18.056  22.071   3.162
 4795W        W71578  32.523  33.906  14.412
 4796W        W71579  35.725   3.349  13.847
 4797W        W71580  16.332  19.171  13.837
 4798W        W71581  33.476  24.677   1.713
 4799W        W71582  27.663  24.984  13.527
 4800W        W71583   7.299  17.551  12.900
 4801W        W71584  16.600  25.106  11.555
 4802W        W71585  16.286   6.962  14.333
 4803W        W71586   4.421   7.877   1.424
 4804W        W71587  23.850  37.088   0.624
 4805W        W71588  21.244  21.129  11.097
 4806W        W71589   0.408  19.169  14.812
 4807W        W71590  25.127  19.644   0.489
 4808W        W71591   8.937  22.306  12.190
 4809W        W71592  28.069  10.191  10.558
 4810W        W71593  21.201  12.100  10.705
 4811W        W71594  37.234  25.996  13.349
 4812W        W71595  20.851  13.292   0.455
 4813W        W71596  43.828  21.702  11.278
 4814W        W71597  44.749   8.228  14.416
 4815W        W71598  13.398  19.847   2.851
 4816W        W71599  32.353  25.086  14.205
 4817W        W71600  43.218  18.666  13.924
 4818W        W71601  20.333   2.196   4.066
 4819W        W71602  12.273  34.130   4.657
 4820W        W71603  32.085  21.304   1.353
 4821W        W71604   4.645  34.441   1.472
 4822W        W71605  28.218  24.161   1.868
 4823W        W71606  21.152   2.613  13.899
 4824W        W71607  15.695  29.197   4.753
 4825W        W71608  23.146  32.410   3.158
 4826W        W71609  22.998  27.220   3.423
 4827W        W71610   2.747  37.153  12.151
 4828W        W71611   3.968  32.078   3.149
 4829W        W71612  20.308  20.047  10.743
 4830W        W71613  19.258  21.058  12.157
 4831W        W71614  20.666  31.739   2.860
 4832W        W71615  21.314  37.730  10.279
 4833W        W71616  37.990  33.138  12.417
 4834W        W71617   2.367  40.687  12.115
 4835W        W71618  23.659   6.912  12.972
 4836W        W71619  11.757  35.012   3.171
 4837W        W71620  25.531  35.378   2.881
 4838W        W71621   7.998  11.300   4.668
 4839W        W71622  27.939  32.631  14.808
 4840W        W71623  24.116  26.581  12.159
 4841W        W71624  26.540  41.757   3.845
 4842W        W71625   7.368  32.746  10.741
 4843W        W71626  22.688  18.279   0.240
 4844W        W71627  14.312  32.459  12.361
 4845W        W71628  33.167  25.719  10.904
 4846W        W71629  16.194  27.087   2.931
 4847W        W71630  41.163  34.387   2.650
 4848W        W71631  40.805  19.631   4.273
 4849W        W71632  21.737  19.780   1.738
 4850W        W71633  18.214  15.721   3.108
 4851W        W71634  30.852  25.659   3.652
 4852W        W71635  25.993  36.738   1.807
 4853W        W71636  20.151  21.873  13.463
 4854W        W71637  24.461  24.685   0.801
 4855W        W71638  19.139  19.994  13.965
 4856W        W71639   7.263  37.773  11.165
 4857W        W71640  19.702  33.787   3.764
 4858W        W71641   0.466  15.267  13.918
 4859W        W71642  12.053  41.059   1.289
 4860W        W71643  41.560  16.108  10.898
 4861W        W71644  25.504  43.281  12.438
 4862W        W71645  35.954  44.741  14.476
 4863W        W71646   3.659  29.026   2.198
 4864W        W71647  11.017  12.711   1.646
 4865W        W71648   6.538  11.649   2.725
 4866W        W71649  32.680  33.634  14.839
 4867W        W71650  12.334   4.680  12.943
 4868W        W71651  22.196  35.381  10.476
 4869W        W71652  19.150  40.364   3.304
 4870W        W71653  38.783  21.161  10.649
 4871W        W71654  14.175   3.416  14.605
 4872W        W71655  35.815  25.535  11.405
 4873W        W71656  28.028  39.069  11.120
 4874W        W71657   8.184  14.307  11.409
 4875W        W71658  16.848  19.205   2.724
 4876W        W71659   5.548  33.133  11.002
 4877W        W71660  29.572   9.150   2.246
 4878W        W71661  27.616  37.767   4.463
 4879W        W71662  28.679  44.050  14.431
 4880W        W71663  20.189  28.491  12.553
 4881W        W71664  16.736   6.847  14.070
 4882W        W71665  15.171  25.997   2.170
 4883W        W71666  25.170   5.421   4.527
 4884W        W71667   6.723  26.908   3.709
 4885W        W71668   8.288  21.552   3.903
 4886W        W71669   6.698   7.914  13.342
 4887W        W71670  10.805   4.810  10.704
 4888W        W71671   5.914  22.722  12.799
 4889W        W71672  43.406   0.977  14.922
 4890W        W71673  31.147  17.287   3.637
 4891W        W71674  23.785   8.568   1.406
 4892W        W71675  20.077   3.648  11.637
 4893W        W71676  34.351  40.525  12.648
 4894W        W71677  20.282  30.076   0.179
 4895W        W71678   9.275  31.598  13.310
 4896W        W71679  25.046  18.021   4.673
 4897W        W71680  10.312  23.017  11.999
 4898W        W71681  16.616   2.299   1.219
 4899W        W71682   3.223  15.166  13.511
 4900W        W71683   0.262  35.853   1.275
 4901W        W71684   9.477  21.980  13.822
 4902W        W71685   1.297  21.742   0.791
 4903W        W71686  20.735   1.499  11.947
 4904W        W71687  27.954   3.377  10.382
 4905W        W71688   7.711  32.395  12.395
 4906W        W71689  22.506  21.373  12.990
 4907W        W71690  18.759  38.758  12.100
 4908W        W71691   3.846  42.697   1.772
 4909W        W71692  33.897  36.368   1.972
 4910W        W71693  38.381  13.164  13.996
 4911W        W71694  29.848  38.294  14.264
 4912W        W71695   1.916  34.221  11.548
 4913W        W71696  27.434   3.237   3.518
 4914W        W71697  10.380  26.632  11.839
 4915W        W71698   8.270  30.155  12.815
 4916W        W71699   3.623  29.606   3.661
 4917W        W71700   8.304  38.080  13.242
 4918W        W71701  27.283  44.847  14.023
 4919W        W71702  37.086  27.209  14.234
 4920W        W71703  17.067  43.223  11.119
 4921W        W71704   2.646   8.826   2.057
 4922W        W71705   0.549   3.305  13.445
 4923W        W71706  35.452  18.521   4.487
 4924W        W71707  13.734  15.083  14.529
 4925W        W71708  16.535  34.548   0.050
 4926W        W71709  42.943  30.868  13.849
 4927W        W71710  19.941   6.850  14.007
 4928W        W71711  27.166  42.556   0.464
 4929W        W71712  17.484   0.303  12.690
 4930W        W71713  28.219  16.769  10.865
 4931W        W71714  40.805  34.554  11.126
 4932W        W71715  37.850  32.477  14.493
 4933W        W71716  34.084  39.064  11.907
 4934W        W71717  12.257  18.986   2.761
 4935W        W71718  43.855   7.396   0.473
 4936W        W71719  33.932   5.809   1.063
 4937W        W71720  26.733   1.216  12.518
 4938W        W71721  29.019   8.165  12.654
 4939W        W71722  42.142  37.164  11.979
 4940W        W71723   0.274  11.733   1.649
 4941W        W71724  42.594  17.652  13.279
 4942W        W71725  12.763  33.591   4.031
 4943W        W71726   8.520  21.571  13.317
 4944W        W71727   4.705   2.761   3.113
 4945W        W71728  40.509  16.383  11.086
 4946W        W71729   1.993  43.827  14.507
 4947W        W71730   7.256  36.534   4.431
 4948W        W71731  22.692  16.842  10.759
 4949W        W71732  29.706  37.354   2.110
 4950W        W71733  27.143   8.387   1.878
 4951W        W71734  25.743  30.680  11.062
 4952W        W71735  30.270  33.357   0.328
 4953W        W71736  42.344  36.456   0.443
 4954W        W71737  21.867  25.264   4.626
 4955W        W71738   0.399  31.668  12.337
 4956W        W71739   9.859  43.945   2.744
 4957W        W71740  29.022  15.625   1.278
 4958W        W71741  26.678  33.574   0.311
 4959W        W71742  36.317  43.505  12.965
 4960W        W71743  21.779  28.935   3.942
 4961W        W71744  21.185  13.550   0.107
 4962W        W71745   0.792  28.040  13.125
 4963W        W71746  34.446  29.484   2.260
 4964W        W71747  18.133  24.115   2.831
 4965W        W71748  16.651  39.324  14.485
 4966W        W71749   6.778  26.059  10.686
 4967W        W71750  44.822  42.541  12.031
 4968W        W71751  43.500  18.124  13.857
 4969W        W71752  17.700  27.698   0.084
 4970W        W71753  33.482  30.197  11.551
 4971W        W71754  21.098  20.800  10.563
 4972W        W71755  25.089  42.926  11.281
 4973W        W71756  10.957  20.121   0.739
 4974W        W71757  30.125  42.785   2.598
 4975W        W71758  24.488   6.254  14.623
 4976W        W71759   0.617  30.852  12.028
 4977W        W71760  20.514  28.810  10.891
 4978W        W71761  42.556  16.742  11.214
 4979W        W71762  43.746  44.309   0.182
 4980W        W71763  16.043  29.690  10.667
 4981W        W71764  16.275  17.317   3.591
 4982W        W71765  30.577  15.597   0.160
 4983W        W71766  26.682  17.685  11.501
 4984W        W71767  18.485  37.889   4.895
 4985W        W71768  37.624  18.152  10.679
 4986W        W71769  20.813  31.414   0.444
 4987W        W71770  24.129  33.092   2.196
 4988W        W71771  16.607  12.346  14.294
 4989W        W71772  29.648  39.827  12.654
 4990W        W71773   0.926  19.228  14.859
 4991W        W71774  10.908  16.686   3.832
 4992W        W71775  30.334  16.181   1.764
 4993W        W71776   6.232   8.027   2.434
 4994W        W71777  29.926   1.789   1.321
 4995W        W71778   2.335  43.355   4.241
 4996W        W71779  26.943  12.108   2.868
 4997W        W71780  32.396  30.510  13.355
 4998W        W71781  30.384  34.013  12.123
 4999W        W71782  13.716  23.574  10.593
 5000W        W71783  32.558  28.389  14.975
 5001W        W71784  30.641  44.739   1.858
 5002W        W71785  32.735  23.771   3.069
 5003W        W71786   3.612  28.226   4.026
 5004W        W71787   8.979  14.161  11.338
 5005W        W71788  30.714   9.680  14.200
 5006W        W71789  16.043  22.434  13.489
 5007W        W71790   4.629  24.295  14.460
 5008W        W71791  38.919  25.122   5.278
 5009W        W71792  14.415   2.199   2.770
 5010W        W71793  20.589  14.677  11.166
 5011W        W71794  29.359  10.707   2.174
 5012W        W71795  16.657  31.145   3.178
 5013W        W71796  18.210  37.048   2.459
 5014W        W71797  21.842  22.316   3.798
 5015W        W71798  22.973   9.950  12.630
 5016W        W71799   6.829   8.792   2.824
 5017W        W71800   1.823  14.774  10.711
 5018W        W71801  25.015   0.705   4.040
 5019W        W71802  36.507  15.833   9.842
 5020W        W71803  27.942   1.336  12.893
 5021W        W71804  24.851  33.888  13.604
 5022W        W71805   4.774  38.880   4.658
 5023W        W71806   4.898  10.475  12.283
 5024W        W71807  42.758   0.295  11.895
 5025W        W71808  44.381  16.148   3.135
 5026W        W71809   2.791  36.370   3.370
 5027W        W71810   2.268   7.914  14.024
 5028W        W71811  43.435  19.645   3.104
 5029W        W71812   0.756   8.292  12.384
 5030W        W71813  11.652  31.278  12.907
 5031W        W71814   5.726  43.490   1.118
 5032W        W71815  35.098   3.226  12.228
 5033W        W71816  27.490   9.114   2.098
 5034W        W71817  36.374  42.579  11.645
 5035W        W71818   4.886  39.532  14.938
 5036W        W71819  29.893  12.731  12.042
 5037W        W71820   8.864  35.540   0.054
 5038W        W71821  29.489  32.926   0.362
 5039W        W71822  11.155  21.996   0.487
 5040W        W71823  28.672  36.887  13.960
 5041W        W71824  23.083  28.619   2.345
 5042W        W71825  12.554  33.303   1.400
 5043W        W71826  13.250  18.235   3.639
 5044W        W71827  37.859   1.486   3.816
 5045W        W71828   6.566  10.153   0.299
 5046W        W71829   8.112  20.763   2.711
 5047W        W71830  15.966   1.223   2.649
 5048W        W71831   0.414   8.325  11.492
 5049W        W71832  16.592  19.803  13.075
 5050W        W71833  42.460  15.822   3.512
 5051W        W71834  40.604   7.729   0.165
 5052W        W71835  44.175  38.807   4.074
 5053W        W71836   3.240  10.648  13.378
 5054W        W71837  20.498  17.567   0.453
 5055W        W71838  22.716  17.199  14.398
 5056W        W71839   7.126  30.508  13.945
 5057W        W71840  15.631  31.451   1.172
 5058W        W71841  40.396  23.954  12.954
 5059W        W71842  19.545  36.287   4.513
 5060W        W71843  14.270  40.969   5.419
 5061W        W71844  15.538  16.779  14.400
 5062W        W71845  30.225  42.184   9.993
 5063W        W71846  41.957  19.038   0.363
 5064W        W71847  36.305  24.663  11.966
 5065W        W71848  28.883   8.970   4.914
 5066W        W71849   5.994   3.360  12.912
 5067W        W71850  15.980  39.754   1.174
 5068W        W71851  25.982  25.010   0.508
 5069W        W71852  10.280   0.886  12.612
 5070W        W71853  23.240   1.846   3.638
 5071W        W71854  13.408  24.050  12.938
 5072W        W71855   2.386   3.747   2.272
 5073W        W71856  28.634  21.438   4.655
 5074W        W71857  29.134  11.053  13.344
 5075W        W71858  28.438  16.640  10.419
 5076W        W71859  35.353  23.247   3.066
 5077W        W71860  19.743  18.357   1.366
 5078W        W71861  11.540  24.916  12.433
 5079W        W71862   6.699  17.480  10.703
 5080W        W71863  40.006  29.114  12.376
 5081W        W71864  10.328  16.314   3.452
 5082W        W71865  24.362  24.190  11.548
 5083W        W71866  13.110  12.180  11.491
 5084W        W71867   0.465  21.679  12.568
 5085W        W71868  33.317  17.117  14.381
 5086W        W71869  30.751  28.493   0.546
 5087W        W71870  34.864  17.439   0.731
 5088W        W71871  10.180   0.706   4.121
 5089W        W71872  42.444  32.565   1.779
 5090W        W71873  43.468  24.652   1.496
 5091W        W71874   9.317  37.828   1.080
 5092W        W71875  43.991   0.552  10.669
 5093W        W71876  14.730  25.039  14.600
 5094W        W71877  19.491   4.676   0.398
 5095W        W71878   2.706  35.230  14.367
 5096W        W71879  26.177   7.839   4.533
 5097W        W71880  41.504  28.041   3.730
 5098W        W71881  30.229  28.852  14.959
 5099W        W71882  10.305  12.315   3.152
 5100W        W71883  19.919   3.479  11.160
 5101W        W71884  40.826  16.704   3.714
 5102W        W71885   7.260  43.233  14.869
 5103W        W71886  12.379  28.886   0.737
 5104W        W71887  31.521  43.878  13.554
 5105W        W71888   6.840  29.415   1.239
 5106W        W71889   7.219  23.454   2.167
 5107W        W71890  41.767  36.823  10.519
 5108W        W71891  10.769  10.881   4.099
 5109W        W71892  23.201   5.363   4.463
 5110W        W71893  36.511   2.927  12.891
 5111W        W71894  15.646  37.976   0.894
 5112W        W71895  26.613   3.970  14.972
 5113W        W71896  42.361  38.595   3.901
 5114W        W71897  10.250  19.578  11.149
 5115W        W71898  29.790  18.286  12.861
 5116W        W71899  15.785  25.012   3.486
 5117W        W71900  39.917  29.645  13.825
 5118W        W71901  18.124  11.682  14.789
 5119W        W71902  26.407  13.443  12.399
 5120W        W71903  21.644  42.379   4.640
 5121W        W71904  39.500   3.326   2.483
 5122W        W71905  34.321  11.415   3.236
 5123W        W71906  17.759   4.286   2.639
 5124W        W71907  42.305   0.930  14.586
 5125W        W71908  25.368  36.261  11.907
 5126W        W71909  15.169   1.767  14.776
 5127W        W71910   6.763   1.186  11.068
 5128W        W71911  18.289   8.875   4.525
 5129W        W71912   0.977  29.739   0.906
 5130W        W71913  41.427  11.252   4.124
 5131W        W71914  31.355   9.310   1.242
 5132W        W71915  13.037   6.140   0.412
 5133W        W71916   8.287   8.847   2.815
 5134W        W71917   0.072  16.067   1.206
 5135W        W71918   8.300   6.904   4.867
 5136W        W71919   4.494  16.521  14.425
 5137W        W71920  17.969   5.882   1.401
 5138W        W71921  30.459  12.750  14.773
 5139W        W71922  33.422  35.916   0.256
 5140W        W71923  19.177   1.348   0.468
 5141W        W71924  26.282  16.007   1.396
 5142W        W71925  22.075  20.765   3.226
 5143W        W71926   2.368  24.574  12.148
 5144W        W71927   4.414  37.262   2.298
 5145W        W71928  27.060  37.092  12.510
 5146W        W71929  22.602  30.709  14.869
 5147W        W71930   1.000   5.265   4.743
 5148W        W71931  16.661  23.682  12.371
 5149W        W71932  26.450  30.472   2.973
 5150W        W71933  11.264   7.801   4.066
 5151W        W71934  26.017   1.719   0.756
 5152W        W71935  24.142   9.813   0.963
 5153W        W71936   0.732  41.091  12.499
 5154W        W71937  16.323   1.815   4.346
 5155W        W71938   5.268   7.818  14.832
 5156W        W71939  14.680  32.379  11.989
 5157W        W71940  22.371  28.061   5.447
 5158W        W71941  41.973  33.638   3.231
 5159W        W71942  32.693  39.048   0.970
 5160W        W71943  13.534  22.187   4.628
 5161W        W71944  12.138  31.943   3.761
 5162W        W71945   0.682  20.328  11.212
 5163W        W71946  43.531  19.506  11.678
 5164W        W71947  39.625  42.803  12.855
 5165W        W71948  44.442  31.516   1.908
 5166W        W71949  21.625   3.030   1.400
 5167W        W71950   9.108  28.421  12.488
 5168W        W71951  33.416  16.235  10.503
 5169W        W71952  16.027  33.509  12.577
 5170W        W71953  27.444  15.098  14.365
 5171W        W71954  17.667  20.554   1.838
 5172W        W71955  22.595  31.992   1.827
 5173W        W71956  27.105  18.640  14.176
 5174W        W71957  14.689   8.617  10.122
 5175W        W71958  15.244  23.574  10.646
 5176W        W71959  35.568  16.394   2.707
 5177W        W71960  26.225  38.817   4.937
 5178W        W71961  30.632  39.782  11.151
 5179W        W71962  21.109  25.605  10.760
 5180W        W71963  26.652  12.853   1.456
 5181W        W71964  12.186   4.054  14.801
 5182W        W71965   5.820  22.064   3.188
 5183W        W71966  24.255  37.821   1.359
 5184W        W71967   5.350  19.455   1.452
 5185W        W71968  42.358  28.067  14.379
 5186W        W71969  15.406  39.384   4.561
 5187W        W71970  25.606   4.747  11.357
 5188W        W71971   6.897  40.578   1.831
 5189W        W71972   9.331   5.155   0.852
 5190W        W71973   8.731  33.685   4.275
 5191W        W71974  39.060  11.704   3.613
 5192W        W71975  43.342  38.228  12.854
 5193W        W71976  18.696  11.376   2.812
 5194W        W71977  27.480  31.046  14.448
 5195W        W71978  11.423  43.004  13.443
 5196W        W71979  38.327  35.092   0.398
 5197W        W71980  13.780   2.494   4.265
 5198W        W71981  29.087  14.782  14.922
 5199W        W71982  18.630  21.723   1.528
 5200W        W71983  33.416  34.418  14.946
 5201W        W71984  28.053  21.108   3.547
 5202W        W71985  32.532   7.102   5.129
 5203W        W71986  14.521  42.634  11.430
 5204W        W71987  17.331  30.177  13.515
 5205W        W71988  19.318  14.580  11.613
 5206W        W71989  25.698  43.941  14.059
 5207W        W71990  22.107  28.545  11.499
 5208W        W71991  33.357  13.721   1.482
 5209W        W71992  28.164  17.236  14.811
 5210W        W71993  37.846  40.852  12.980
 5211W        W71994  16.740  21.695   3.148
 5212W        W71995  40.370  22.938  12.897
 5213W        W71996  10.008  19.084  14.234
 5214W        W71997  33.471  26.677   3.658
 5215W        W71998  22.498  28.230  14.564
 5216W        W71999  27.495   3.364   0.294
 5217W        W72000   1.992  28.157  11.158
 5218W        W72001   4.854  29.101   4.992
 5219W        W72002  27.711  42.438   1.416
 5220W        W72003  40.342  17.675   4.715
 5221W        W72004  18.792  24.760   0.833
 5222W        W72005   1.009  32.460  12.320
 5223W        W72006   2.727  41.210  14.995
 5224W        W72007  17.569  29.336   1.769
 5225W        W72008  10.467  30.534   3.957
 5226W        W72009  36.740   0.227   4.934
 5227W        W72010  25.252  35.035   3.823
 5228W        W72011  25.516  16.365  10.537
 5229W        W72012  16.075   4.882  13.177
 5230W        W72013  31.062  27.608  14.696
 5231W        W72014  19.707  20.382   3.267
 5232W        W72015  18.115  31.976  13.360
 5233W        W72016  43.994  40.251  10.483
 5234W        W72017  18.606   2.720  13.485
 5235W        W72018  14.500   9.165  11.581
 5236W        W72019   9.552  39.932   3.629
 5237W        W72020  21.034  33.157   5.575
 5238W        W72021  22.383  27.804   4.117
 5239W        W72022  14.790  20.706   0.955
 5240W        W72023  14.379  25.695   4.136
 5241W        W72024   0.040  14.049   5.012
 5242W        W72025   2.190   0.808   4.703
 5243W        W72026   4.144  13.837  14.177
 5244W        W72027  18.591  29.939  11.514
 5245W        W72028  30.736  41.559  13.824
 5246W        W72029  11.359   4.495  11.467
 5247W        W72030  42.509  28.548  11.226
 5248W        W72031   4.935  22.186   3.253
 5249W        W72032   1.930  33.966   0.224
 5250W        W72033  16.639  17.959   4.255
 5251W        W72034  33.786  43.306  11.110
 5252W        W72035  33.211  41.432  11.051
 5253W        W72036   5.443  21.497  11.090
 5254W        W72037  28.282  36.299   3.181
 5255W        W72038  30.042  41.809   0.704
 5256W        W72039  18.609   4.462   2.122
 5257W        W72040  34.853  40.104  14.408
 5258W        W72041   3.489   7.415  14.834
 5259W        W72042  36.523   9.026  13.193
 5260W        W72043  11.243  24.560   1.443
 5261W        W72044  23.775  40.151  11.092
 5262W        W72045  42.946   0.265   1.178
 5263W        W72046  41.961   2.382   4.525
 5264W        W72047  33.581   1.511  12.472
 5265W        W72048   9.748  13.442   2.877
 5266W        W72049  26.324  23.400  14.259
 5267W        W72050  10.469  37.026   3.161
 5268W        W72051  24.584   7.374  13.231
 5269W        W72052  15.580  25.995  13.857
 5270W        W72053  19.346  38.543   3.210
 5271W        W72054   7.345  43.684   0.225
 5272W        W72055  11.830   1.469   0.049
 5273W        W72056  11.570  21.249  13.344
 5274W        W72057  39.341  29.047   4.390
 5275W        W72058  11.700   7.680  14.860
 5276W        W72059  16.775  42.802  11.034
 5277W        W72060  23.042  33.488  14.023
 5278W        W72061  21.747  41.017   3.517
 5279W        W72062   1.846  21.414   3.684
 5280W        W72063   6.863  22.543   0.211
 5281W        W72064  12.626  19.353  12.765
 5282W        W72065  30.024  25.035   0.896
 5283W        W72066  22.184  13.679   2.817
 5284W        W72067  20.995  18.468  13.562
 5285W        W72068   7.206  36.873  11.698
 5286W        W72069  16.539  43.290   1.525
 5287W        W72070  23.480   2.502   1.319
 5288W        W72071   2.672  30.812   1.811
 5289W        W72072   2.690  37.555  14.078
 5290W        W72073  18.690  19.629  10.906
 5291W        W72074  33.945   5.435  10.945
 5292W        W72075  17.151  40.142  13.458
 5293W        W72076  41.137  37.430   1.992
 5294W        W72077  21.563  16.931  10.224
 5295W        W72078  21.638  23.637   4.522
 5296W        W72079   4.333  21.615  12.531
 5297W        W72080  34.032  17.216  13.623
 5298W        W72081  16.036  20.648   0.469
 5299W        W72082   8.701  34.574   2.201
 5300W        W72083   4.752  31.509   0.900
 5301W        W72084  38.961  15.336  10.791
 5302W        W72085  17.331  33.527   3.569
 5303W        W72086  43.386  20.653   3.224
 5304W        W72087  15.352   9.344   3.747
 5305W        W72088  17.703  31.671   0.622
 5306W        W72089  37.979  27.085   1.759
 5307W        W72090  31.442  27.664  10.709
 5308W        W72091  33.827   3.595  10.992
 5309W        W72092  17.282   6.412  14.937
 5310W        W72093  26.206  22.071   0.990
 5311W        W72094  35.398  28.168  13.048
 5312W        W72095   5.619  41.241  11.074
 5313W        W72096  23.752  20.245  13.281
 5314W        W72097  28.554   3.652  12.588
 5315W        W72098   2.090  15.615   0.808
 5316W        W72099  30.644  33.139  12.334
 5317W        W72100   1.643   0.129   0.293
 5318W        W72101   0.745  16.611   0.630
 5319W        W72102   4.358  25.137  12.389
 5320W        W72103  36.487  24.234   0.888
 5321W        W72104  28.167   7.116   4.024
 5322W        W72105  43.818  37.964  12.152
 5323W        W72106   9.600  33.361   1.266
 5324W        W72107  23.556  40.526   2.154
 5325W        W72108  37.859   1.056  14.825
 5326W        W72109  39.912   7.543   4.646
 5327W        W72110  31.901   1.386   0.537
 5328W        W72111  33.038  30.499   4.120
 5329W        W72112   3.753  40.115  13.852
 5330W        W72113   8.392  25.142   5.060
 5331W        W72114   6.893   0.916  14.539
 5332W        W72115  11.192  15.050   1.596
 5333W        W72116  30.915  20.681  14.160
 5334W        W72117   7.971  38.573   1.035
 5335W        W72118   1.463   7.754  11.351
 5336W        W72119  27.994  20.188   3.072
 5337W        W72120  24.228  25.648   2.635
 5338W        W72121   6.463   2.180  14.913
 5339W        W72122  15.619  15.605   3.279
 5340W        W72123  39.333   1.983   1.917
 5341W        W72124  18.028  17.862   1.426
 5342W        W72125   6.693   5.746   0.980
 5343W        W72126  36.974  26.977  10.859
 5344W        W72127  18.429  38.763   3.746
 5345W        W72128  36.426  44.955   0.340
 5346W        W72129  24.055  24.669  11.964
 5347W        W72130  23.042  28.572  14.909
 5348W        W72131  29.181  23.032   3.293
 5349W        W72132  30.037  15.847  11.546
 5350W        W72133  12.416  12.308   4.185
 5351W        W72134  37.305  33.048   1.805
 5352W        W72135  31.628  44.436  12.070
 5353W        W72136  25.968  35.883   3.665
 5354W        W72137  16.391  31.979  14.029
 5355W        W72138  41.780  41.341  10.335
 5356W        W72139  41.443  36.358  13.166
 5357W        W72140  41.895  16.845   2.147
 5358W        W72141  33.979  14.715   0.430
 5359W        W72142   5.907  11.335  11.861
 5360W        W72143   6.485  26.565  11.416
 5361W        W72144  34.524   6.596  13.668
 5362W        W72145  26.798  39.267   4.676
 5363W        W72146   2.926  19.807  13.798
 5364W        W72147  19.223  32.361   2.692
 5365W        W72148  28.301  13.238  10.772
 5366W        W72149  13.980   7.216   5.077
 5367W        W72150   0.872   2.967   4.841
 5368W        W72151  22.745  41.827   0.977
 5369W        W72152  11.115  43.396   1.866
 5370W        W72153  26.038  14.852   2.234
 5371W        W72154   5.784  44.627   0.816
 5372W        W72155  34.221  44.340   4.620
 5373W        W72156   7.914  36.750   0.080
 5374W        W72157  37.731   8.346   4.810
 5375W        W72158  43.554  44.363  13.822
 5376W        W72159   1.610  30.441   4.082
 5377W        W72160  31.053  16.830   3.442
 5378W        W72161  18.458  40.765   1.713
 5379W        W72162  36.645  44.834  10.919
 5380W        W72163  15.447  39.044   3.211
 5381W        W72164   3.672  36.393  14.008
 5382W        W72165  40.307  34.704  14.867
 5383W        W72166   4.473  14.337   4.544
 5384W        W72167  19.678  13.988   2.758
 5385W        W72168  28.364  25.593  10.950
 5386W        W72169   8.550  29.477   1.879
 5387W        W72170   5.702  43.343   1.619
 5388W        W72171   0.588  19.889   0.446
 5389W        W72172  42.349  28.513   2.756
 5390W        W72173  32.202  32.684   2.970
 5391W        W72174  21.596  44.643  12.356
 5392W        W72175   8.612  14.646   1.247
 5393W        W72176  35.089  28.041  13.503
 5394W        W72177  20.208  14.170  11.607
 5395W        W72178   1.160  13.823  12.484
 5396W        W72179  26.904  20.635  14.234
 5397W        W72180  43.173  42.455   1.706
 5398W        W72181   9.370   2.390   4.089
 5399W        W72182  11.151  24.934   0.287
 5400W        W72183  44.040  43.723  10.963
 5401W        W72184  28.257  22.005   0.867
 5402W        W72185   0.359  13.550  13.197
 5403W        W72186  24.460   8.381   2.637
 5404W        W72187  17.842  16.157  13.503
 5405W        W72188  15.685  40.137  14.164
 5406W        W72189  36.843  34.859   3.274
 5407W        W72190   4.744   3.011   0.428
 5408W        W72191  26.405  20.755   4.302
 5409W        W72192  21.088  44.931  10.647
 5410W        W72193  33.079  26.999   2.678
 5411W        W72194  35.331   3.735  12.820
 5412W        W72195  10.804  27.974   2.623
 5413W        W72196  43.163  18.728  11.905
 5414W        W72197  27.989  19.865   0.309
 5415W        W72198  40.083   9.258  10.748
 5416W        W72199  37.766  29.941  12.508
 5417W        W72200  26.823  13.571   4.276
 5418W        W72201  32.237   4.695  12.449
 5419W        W72202  37.775   8.725   0.921
 5420W        W72203  31.399  12.158   0.970
 5421W        W72204  31.268   2.374   1.339
 5422W        W72205  18.027  15.802   2.087
 5423W        W72206   5.398  14.503   4.301
 5424W        W72207  24.433  41.391   0.941
 5425W        W72208  22.669  21.059   3.178
 5426W        W72209  17.890  44.618   0.434
 5427W        W72210   4.716  38.312  11.652
 5428W        W72211  43.449  10.988   0.208
 5429W        W72212   5.261  17.319   3.235
 5430W        W72213  14.161   5.793   0.731
 5431W        W72214  20.249  29.457  10.680
 5432W        W72215   8.321  26.696  11.029
 5433W        W72216  39.355  38.989  13.358
 5434W        W72217  23.838  29.638  10.246
 5435W        W72218   2.982  21.578   0.704
 5436W        W72219  17.727   0.844  11.886
 5437W        W72220   0.943  37.936  12.649
 5438W        W72221  18.726  18.415   1.766
 5439W        W72222  22.178  14.398  10.646
 5440W        W72223   5.708  31.076   2.505
 5441W        W72224  34.550   9.856   9.785
 5442W        W72225  33.903  23.073   1.956
 5443W        W72226  13.346   0.785  12.421
 5444W        W72227  43.074   8.854  12.958
 5445W        W72228  11.211  27.821  11.225
 5446W        W72229  37.225  22.618   4.504
 5447W        W72230   3.209  39.004   0.458
 5448W        W72231  12.876   6.271  11.993
 5449W        W72232  24.425  23.095  11.122
 5450W        W72233  37.760   9.544   4.904
 5451W        W72234   0.294  18.086  12.535
 5452W        W72235   0.916  21.263  13.225
 5453W        W72236  16.798  41.921   1.839
 5454W        W72237  11.383   6.306  13.852
 5455W        W72238  12.339  35.877  12.064
 5456W        W72239   7.136  35.619   1.169
 5457W        W72240   9.184  34.510  11.630
 5458W        W72241  23.767  18.317  12.604
 5459W        W72242   7.856  28.031  12.083
 5460W        W72243  10.176  17.159   0.884
 5461W        W72244  33.885  41.508   1.221
 5462W        W72245  31.591  33.401   0.872
 5463W        W72246   3.280  16.269  11.594
 5464W        W72247   0.507  24.226  11.102
 5465W        W72248  43.235  23.545   2.960
 5466W        W72249  40.843  37.863  11.245
 5467W        W72250  21.498  40.836   0.727
 5468W        W72251  14.795  11.710   4.732
 5469W        W72252  42.497  31.776   1.367
 5470W        W72253  41.410  10.654  13.559
 5471W        W72254  21.188  22.742   4.341
 5472W        W72255   5.017  42.893   2.721
 5473W        W72256  12.132   7.126   0.667
 5474W        W72257  13.882  44.302  13.025
 5475W        W72258  21.509  34.000   1.665
 5476W        W72259  41.664  27.857  13.912
 5477W        W72260  15.856   6.145   3.792
 5478W        W72261  30.512  27.079  11.203
 5479W        W72262  38.535  10.097  14.314
 5480W        W72263  44.443  36.888  13.982
 5481W        W72264  40.531  10.395  10.370
 5482W        W72265  16.254  21.146  12.039
 5483W        W72266  42.846  21.433   4.136
 5484W        W72267  38.373  28.420   4.188
 5485W        W72268   9.166  24.037   0.260
 5486W        W72269   8.756  12.338   4.763
 5487W        W72270  16.309  22.048  13.298
 5488W        W72271  36.720  15.185   1.946
 5489W        W72272  30.553  16.511  12.191
 5490W        W72273  16.246  42.910   5.116
 5491W        W72274  41.075  25.478  14.968
 5492W        W72275  42.316  22.018   1.836
 5493W        W72276  30.985  21.502   2.670
 5494W        W72277  21.515  31.954  14.373
 5495W        W72278  39.023  16.527   2.263
 5496W        W72279   9.740  36.342  12.007
 5497W        W72280  36.738  14.821  12.222
 5498W        W72281  12.297  25.526  13.613
 5499W        W72282  31.212  25.984   2.779
 5500W        W72283   6.594  11.194   4.183
 5501W        W72284  44.034   7.740   1.789
 5502W        W72285  44.716   6.885  14.991
 5503W        W72286  38.816  42.500   2.079
 5504W        W72287  31.136  42.956  13.018
 5505W        W72288   1.034  34.049  12.522
 5506W        W72289  24.100  29.949   4.387
 5507W        W72290  38.090   3.434  12.504
 5508W        W72291  43.014  40.557  14.936
 5509W        W72292  29.490  36.079   3.844
 5510W        W72293  19.529  15.322   3.057
 5511W        W72294   4.237  42.859  10.173
 5512W        W72295  18.262  44.324   4.924
 5513W        W72296  24.202  18.203   4.224
 5514W        W72297  26.673  41.061   1.342
 5515W        W72298  31.490  14.817  13.901
 5516W        W72299  20.621  35.934   0.492
 5517W        W72300   1.938  18.677   1.143
 5518W        W72301  16.072  34.418  12.452
 5519W        W72302  12.584  35.383   3.532
 5520W        W72303  19.474   5.718  14.878
 5521W        W72304  14.673  11.833   2.432
 5522W        W72305  17.033   9.290   2.266
 5523W        W72306   8.928  18.163   0.380
 5524W        W72307   4.820  26.947   2.432
 5525W        W72308  39.286  21.283  13.957
 5526W        W72309  15.268  18.104   1.194
 5527W        W72310  11.837   7.424   2.464
 5528W        W72311  31.402   7.560  11.211
 5529W        W72312   8.193  22.047  12.457
 5530W        W72313  39.973  14.294   0.848
 5531W        W72314  22.441  44.828   1.479
 5532W        W72315   1.871  13.286  14.105
 5533W        W72316  28.324  30.550  12.544
 5534W        W72317  42.770   9.309   1.673
 5535W        W72318  17.811  44.265   4.041
 5536W        W72319  28.574   3.967  11.686
 5537W        W72320  44.191  29.056  13.669
 5538W        W72321  37.786  17.631  11.056
 5539W        W72322  38.450  44.042   4.190
 5540W        W72323  12.853  21.662  13.031
 5541W        W72324   8.680  14.640   4.096
 5542W        W72325  22.272  15.903  14.515
 5543W        W72326  29.969  26.548   1.260
 5544W        W72327   0.346  38.603  11.363
 5545W        W72328   8.144  27.460  14.051
 5546W        W72329  21.192   6.940  14.838
 5547W        W72330  42.625  41.891   3.463
 5548W        W72331  19.273  15.036  12.354
 5549W        W72332  22.684  14.599   4.031
 5550W        W72333  21.454  20.674  13.830
 5551W        W72334  39.880  21.931   0.813
 5552W        W72335  23.415  24.069   1.269
 5553W        W72336   4.678  25.334   1.278
 5554W        W72337  41.713   4.137  12.373
 5555W        W72338  29.403  10.685   3.060
 5556W        W72339   4.938   3.758  11.644
 5557W        W72340  25.820  34.872   3.634
 5558W        W72341  36.148  18.792   0.814
 5559W        W72342   3.981  20.635   0.264
 5560W        W72343   4.968  12.877  13.805
 5561W        W72344  42.071  11.111   0.755
 5562W        W72345  18.271  40.477  10.975
 5563W        W72346   5.622  41.764   3.046
 5564W        W72347  25.317  41.923   4.845
 5565W        W72348   1.360   5.843   1.193
 5566W        W72349  10.509  41.355  14.432
 5567W        W72350   7.289  24.318  11.156
 5568W        W72351  42.027  44.274  11.211
 5569W        W72352  40.797  18.808   1.709
 5570W        W72353  35.963  17.236  11.069
 5571W        W72354   0.657  27.065  13.036
 5572W        W72355   2.640  24.598  11.622
 5573W        W72356  44.825   3.738   2.683
 5574W        W72357  36.029  38.078  12.697
 5575W        W72358   7.915  27.093  12.236
 5576W        W72359  12.812   7.270  13.520
 5577W        W72360  19.880  18.124  13.852
 5578W        W72361  13.213  25.985   2.796
 5579W        W72362  24.969  39.418  11.551
 5580W        W72363   9.837   2.144  11.968
 5581W        W72364  36.360  37.953  11.942
 5582W        W72365  27.989   8.945   3.802
 5583W        W72366  30.459   4.755  11.468
 5584W        W72367   1.998  24.054   0.822
 5585W        W72368  13.788  40.048  14.895
 5586W        W72369  17.585  17.201  14.577
 5587W        W72370   4.519   9.539   2.685
 5588W        W72371  38.464  17.295  11.974
 5589W        W72372  27.392  22.809  11.522
 5590W        W72373  24.551  13.936  14.460
 5591W        W72374  31.266  39.618  11.196
 5592W        W72375  41.427   7.286  10.660
 5593W        W72376   3.284  33.985   4.699
 5594W        W72377   7.908  26.795  13.207
 5595W        W72378  23.082  16.681   4.559
 5596W        W72379  20.432  39.131   1.746
 5597W        W72380   9.082   3.967   2.491
 5598W        W72381  22.299  43.948  13.042
 5599W        W72382  40.808  25.218   2.723
 5600W        W72383  16.556  19.647   4.563
 5601W        W72384  42.493  15.121  13.387
 5602W        W72385  27.505  11.387  11.652
 5603W        W72386  26.525   3.840  12.592
 5604W        W72387   7.157  19.553   3.256
 5605W        W72388  41.136  21.945  13.493
 5606W        W72389   3.011  25.305   4.088
 5607W        W72390  38.103   9.891  13.398
 5608W        W72391   8.698  29.604  10.761
 5609W        W72392  31.388  41.771  14.894
 5610W        W72393   3.346  19.876  10.281
 5611W        W72394  32.983  44.976  13.496
 5612W        W72395  18.051  34.319   4.081
 5613W        W72396  30.950   1.044  13.363
 5614W        W72397  36.822   8.503   0.959
 5615W        W72398  11.822  17.160  14.399
 5616W        W72399  44.051  22.539   4.264
 5617W        W72400  10.256  44.730  12.454
 5618W        W72401  32.880  15.897  14.414
 5619W        W72402   8.354  10.763  10.968
 5620W        W72403   1.911  22.039   4.782
 5621W        W72404  19.595  15.655  14.699
 5622W        W72405  27.546  18.038   0.138
 5623W        W72406  16.205  20.229   1.733
 5624W        W72407  12.688   0.241  12.610
 5625W        W72408   3.358  18.135  13.557
 5626W        W72409  14.039   7.809  10.576
 5627W        W72410   3.452  17.806   2.405
 5628W        W72411  26.248  44.467  12.800
 5629W        W72412   6.506   0.881  10.661
 5630W        W72413   6.264  44.847   3.207
 5631W        W72414  18.118  32.307   1.530
 5632W        W72415  41.307   1.748   2.467
 5633W        W72416  29.586  40.590  12.150
 5634W        W72417  11.658   3.529  13.795
 5635W        W72418  28.541  22.380   2.259
 5636W        W72419  13.112  28.365   1.291
 5637W        W72420  36.401  20.786  10.449
 5638W        W72421   6.244  37.396   4.182
 5639W        W72422  20.070   1.510   0.493
 5640W        W72423  18.971   5.618  14.892
 5641W        W72424  28.209  33.086   4.360
 5642W        W72425  13.377  14.676  11.286
 5643W        W72426  43.273   0.948  12.976
 5644W        W72427  40.982  11.569  14.946
 5645W        W72428  28.997   4.933  11.192
 5646W        W72429  21.460  11.255   2.288
 5647W        W72430  25.638   4.873   3.468
 5648W        W72431  32.839  27.277   0.144
 5649W        W72432  19.595  39.502  14.249
 5650W        W72433   0.058  44.881  11.554
 5651W        W72434  41.194  31.909   3.989
 5652W        W72435  19.699  14.789  11.893
 5653W        W72436   6.434  19.379  13.940
 5654W        W72437  39.359  30.909   2.786
 5655W        W72438  34.378  42.744   1.019
 5656W        W72439   2.713  41.881  11.013
 5657W        W72440  17.109  11.000  10.806
 5658W        W72441  17.689  30.057   2.882
 5659W        W72442  29.950  42.536  14.299
 5660W        W72443   0.289  14.827   1.825
 5661W        W72444  41.808   2.518   0.934
 5662W        W72445  37.077  39.752  14.707
 5663W        W72446  40.507  17.643   0.386
 5664W        W72447  26.555  29.407   4.126
 5665W        W72448  38.628  32.800  12.366
 5666W        W72449  40.533  27.539   4.827
 5667W        W72450  24.431  35.009   4.519
 5668W        W72451  41.039  19.569   2.189
 5669W        W72452  20.831   7.807   3.632
 5670W        W72453  38.317  39.005  14.012
 5671W        W72454  35.349  38.535   4.431
 5672W        W72455  21.588   6.445   1.377
 5673W        W72456  11.750  12.721   1.015
 5674W        W72457   6.950  10.178   4.136
 5675W        W72458  44.217  34.039   1.406
 5676W        W72459  18.676  10.341  11.939
 5677W        W72460  42.789  43.242  14.956
 5678W        W72461  42.295   1.173   0.766
 5679W        W72462  19.058  22.169   4.339
 5680W        W72463  20.375  16.756  11.993
 5681W        W72464   4.359   0.555   3.704
 5682W        W72465  20.465   5.372  12.244
 5683W        W72466  10.886  40.856  14.326
 5684W        W72467  41.259  19.203  13.542
 5685W        W72468  18.229   7.676   2.333
 5686W        W72469  28.545   7.355   3.029
 5687W        W72470  19.525  33.798   0.263
 5688W        W72471  37.094  19.012   4.138
 5689W        W72472   2.571  18.156  10.812
 5690W        W72473  15.758  36.277   2.886
 5691W        W72474  28.007  41.403   2.592
 5692W        W72475  43.609   5.901   1.442
 5693W        W72476  33.312   5.432   1.480
 5694W        W72477  15.679   3.385   3.613
 5695W        W72478  17.057  35.784   2.098
 5696W        W72479  29.701  23.728  10.933
 5697W        W72480  29.549  29.886  11.636
 5698W        W72481  17.427   4.931   9.958
 5699W        W72482  19.248   3.984  14.359
 5700W        W72483  41.093  23.770  12.221
 5701W        W72484  22.159  14.691  14.893
 5702W        W72485  12.067  25.150  11.554
 5703W        W72486  23.926  42.985  14.747
 5704W        W72487  30.567   0.416  14.824
 5705W        W72488   3.346   5.664   0.290
 5706W        W72489  10.634  26.682   0.230
 5707W        W72490  39.777  14.668   2.757
 5708W        W72491  25.206   1.037   1.230
 5709W        W72492  24.177  23.137   3.885
 5710W        W72493  12.425  21.576   0.266
 5711W        W72494   3.384  16.921  13.001
 5712W        W72495   5.732   7.253   3.644
 5713W        W72496  39.088  25.033   0.905
 5714W        W72497   6.418  27.583  13.981
 5715W        W72498   1.751  36.959  11.061
 5716W        W72499  38.812  20.089   2.026
 5717W        W72500  15.058  38.196   3.326
 5718W        W72501  41.980  39.096  12.952
 5719W        W72502  11.709  26.549  10.236
 5720W        W72503   5.783   9.354   4.457
 5721W        W72504  44.580  16.538   2.397
 5722W        W72505  19.211  20.561   3.064
 5723W        W72506  30.674  17.615  14.353
 5724W        W72507  19.813  44.693   2.816
 5725W        W72508  33.000  17.714  10.424
 5726W        W72509  21.013  35.423  11.080
 5727W        W72510  42.338  23.159   3.911
 5728W        W72511  25.149  36.039  12.891
 5729W        W72512   5.627  28.762   1.076
 5730W        W72513  15.642  13.636  12.414
 5731W        W72514  21.440   1.893   4.143
 5732W        W72515  43.230  34.500   0.266
 5733W        W72516  30.179   2.825   3.858
 5734W        W72517  27.243  17.556   0.733
 5735W        W72518  17.360  37.825   0.999
 5736W        W72519  36.144  15.576   3.782
 5737W        W72520  33.024  31.649  10.621
 5738W        W72521  15.729  36.625  12.554
 5739W        W72522  27.082  39.045   3.932
 5740W        W72523  34.266  31.444   4.572
 5741W        W72524  25.537  37.173  10.296
 5742W        W72525  31.964   4.650   2.848
 5743W        W72526   0.486  26.075   5.078
 5744W        W72527  30.943  20.202  13.588
 5745W        W72528   9.642  30.038   0.959
 5746W        W72529  16.546  19.857   0.303
 5747W        W72530   3.229   1.021   4.368
 5748W        W72531  44.967   3.042   0.518
 5749W        W72532  19.393  26.470  14.745
 5750W        W72533  20.231   6.861   1.373
 5751W        W72534  31.730  38.506  12.259
 5752W        W72535  36.991  39.561   4.652
 5753W        W72536  42.362  30.054   3.148
 5754W        W72537   3.827  20.201  12.769
 5755W        W72538  36.307  42.208  11.302
 5756W        W72539  38.328  11.380  12.043
 5757W        W72540   5.285  36.365  10.682
 5758W        W72541  24.575   8.243   4.135
 5759W        W72542  31.824  39.776  13.733
 5760W        W72543  20.580  24.591  10.746
 5761W        W72544   7.713  16.071  11.640
 5762W        W72545  19.234   1.556   2.294
 5763W        W72546   5.836   3.240   4.618
 5764W        W72547  13.538  41.478   4.819
 5765W        W72548   3.150  19.671  13.319
 5766W        W72549  14.802   5.759   4.606
 5767W        W72550  38.296  38.965   0.903
 5768W        W72551  24.587  11.692  13.799
 5769W        W72552  42.016  40.811  11.594
 5770W        W72553  30.568   9.046  13.043
 5771W        W72554  28.403  43.297  12.114
 5772W        W72555  19.082  15.119   3.179
 5773W        W72556  29.293  38.772   4.073
 5774W        W72557  20.494  42.313  14.818
 5775W        W72558  37.912  16.875  12.973
 5776W        W72559  37.940  29.058   2.095
 5777W        W72560  44.793  31.966   1.263
 5778W        W72561  30.299  42.173   3.383
 5779W        W72562   6.395  28.468  13.530
 5780W        W72563  31.985  13.579  13.867
 5781W        W72564  31.180  20.411  12.590
 5782W        W72565  17.872  37.893  10.795
 5783W        W72566  29.533  42.901   0.101
 5784W        W72567  11.828  15.433  10.102
 5785W        W72568  11.369  23.990  11.471
 5786W        W72569  36.380   1.697  13.477
 5787W        W72570  22.019   5.470   2.374
 5788W        W72571  37.534  33.236   3.271
 5789W        W72572  43.150  27.271  14.075
 5790W        W72573  20.215  22.045   3.068
 5791W        W72574  11.884  15.769  11.789
 5792W        W72575  42.810  17.444   4.155
 5793W        W72576  30.677  10.907   1.688
 5794W        W72577  37.271  29.680   0.680
 5795W        W72578   7.292   7.910   2.813
 5796W        W72579  21.687   8.895   2.293
 5797W        W72580  10.860  34.974  11.238
 5798W        W72581   3.852  34.096   2.522
 5799W        W72582  36.411  17.486  11.181
 5800W        W72583  35.053  11.922  13.252
 5801W        W72584  12.740  36.908  12.432
 5802W        W72585  18.592  20.760   0.306
 5803W        W72586  40.281  34.993  10.767
 5804W        W72587  40.459  23.141  13.357
 5805W        W72588  18.034  42.787  13.870
 5806W        W72589  16.142  31.845   1.843
 5807W        W72590   2.240  44.498  10.217
 5808W        W72591  39.125  33.982   1.434
 5809W        W72592  23.798  20.650   2.709
 5810W        W72593  20.759  20.582  13.383
 5811W        W72594  27.832  43.874  10.948
 5812W        W72595  44.593  42.722  12.465
 5813W        W72596  11.836  13.647  12.483
 5814W        W72597  28.559  23.465  11.938
 5815W        W72598   3.939  29.031   3.864
 5816W        W72599  15.042  24.174   0.957
 5817W        W72600  30.687  37.366  13.934
 5818W        W72601   0.864  16.576  12.287
 5819W        W72602  38.092  26.177   0.506
 5820W        W72603  33.868  21.244  11.554
 5821W        W72604  17.342  17.983   0.457
 5822W        W72605  25.805  12.615  11.154
 5823W        W72606  35.443  16.342   3.955
 5824W        W72607   6.713  35.403  13.500
 5825W        W72608  15.811  25.509   4.724
 5826W        W72609  24.077  24.208  10.289
 5827W        W72610  38.114  29.441  11.625
 5828W        W72611   2.731   2.331   3.719
 5829W        W72612   3.827  20.682   2.842
 5830W        W72613  12.012   1.860   0.503
 5831W        W72614  26.046  39.564   0.830
 5832W        W72615  17.286  43.172  12.285
 5833W        W72616  38.601  11.351  13.434
 5834W        W72617  28.942   0.930   1.920
 5835W        W72618   1.991   2.259  13.955
 5836W        W72619  22.666  34.994   0.300
 5837W        W72620  28.458  35.882  14.839
 5838W        W72621  20.062  10.110  11.650
 5839W        W72622  16.472  37.385  14.980
 5840W        W72623  20.225  41.318   1.393
 5841W        W72624  10.827  42.101   3.657
 5842W        W72625  18.220  30.943   0.273
 5843W        W72626  39.448  17.635  12.988
 5844W        W72627  32.197  42.588   0.897
 5845W        W72628  33.445  32.028  12.602
 5846W        W72629  10.831  37.951   1.270
 5847W        W72630  14.272  27.102  14.615
 5848W        W72631  43.356  36.512  11.547
 5849W        W72632  21.093  25.283   4.978
 5850W        W72633   3.896  13.808   2.687
 5851W        W72634  26.704  37.112  10.753
 5852W        W72635  12.572  39.843  12.944
 5853W        W72636  19.528  28.389  11.883
 5854W        W72637  14.704   0.729   2.141
 5855W        W72638  18.284   7.642  13.433
 5856W        W72639  13.889  13.798  11.062
 5857W        W72640   4.847  26.568   3.277
 5858W        W72641  41.089   0.761  10.705
 5859W        W72642  37.830  12.737  12.094
 5860W        W72643  18.465  16.758  10.579
 5861W        W72644  28.400  17.593   3.413
 5862W        W72645  21.978   2.812   1.678
 5863W        W72646  34.552  29.180   3.185
 5864W        W72647  11.667  25.597  10.925
 5865W        W72648  34.324  34.955  13.415
 5866W        W72649  24.495  23.528   9.862
 5867W        W72650  14.275  37.517  12.164
 5868W        W72651  28.487  42.748   1.804
 5869W        W72652  18.117  25.539  14.959
 5870W        W72653  33.195  26.490  13.867
 5871W        W72654   3.649  43.349  10.735
 5872W        W72655  30.083  39.560  11.968
 5873W        W72656   5.311   8.119   4.199
 5874W        W72657  20.816  28.180  12.065
 5875W        W72658  20.680  28.119   1.244
 5876W        W72659  32.950  34.613  13.219
 5877W        W72660  13.295  13.364   1.290
 5878W        W72661   9.136   7.754   3.568
 5879W        W72662  43.066  33.331   1.465
 5880W        W72663   7.375  28.434  13.604
 5881W        W72664  18.156  16.854   0.772
 5882W        W72665  29.274  13.344  11.740
 5883W        W72666  35.366  39.559  11.625
 5884W        W72667  20.682   4.913   0.873
 5885W        W72668  35.603   1.643  12.769
 5886W        W72669  35.084  12.622  10.646
 5887W        W72670  16.176  20.148  10.722
 5888W        W72671  42.188  17.748   3.662
 5889W        W72672   1.365  12.356  13.744
 5890W        W72673  38.510   9.876   3.004
 5891W        W72674  40.371   0.343  11.533
 5892W        W72675  27.983   6.212   3.279
 5893W        W72676  15.552  34.383   3.388
 5894W        W72677   6.941  24.056   0.566
 5895W        W72678   0.968  14.624  12.178
 5896W        W72679  25.960  20.345   1.979
 5897W        W72680   3.888  32.026  10.676
 5898W        W72681  11.213  33.080  13.156
 5899W        W72682  34.256  21.637  12.943
 5900W        W72683  22.582  38.310   0.442
 5901W        W72684  23.155  40.987   1.200
 5902W        W72685  28.001  33.970  14.362
 5903W        W72686   8.025  44.022  11.674
 5904W        W72687  38.448  25.322  11.898
 5905W        W72688  20.506  19.657  11.744
 5906W        W72689  42.003  21.934  12.951
 5907W        W72690  41.479  27.097  12.507
 5908W        W72691  16.595  20.352   4.282
 5909W        W72692  17.954  18.133  11.507
 5910W        W72693  24.999  19.966  14.766
 5911W        W72694  40.913  44.275  14.966
 5912W        W72695  23.035  39.565   9.887
 5913W        W72696  23.535   9.358  13.320
 5914W        W72697  11.200  14.004   3.681
 5915W        W72698  26.716  18.929  13.490
 5916W        W72699  39.638  11.227   1.751
 5917W        W72700  10.623   9.361   2.781
 5918W        W72701  11.541   5.410  11.165
 5919W        W72702  32.312  31.077   0.721
 5920W        W72703  41.059  18.687  11.995
 5921W        W72704  39.783  24.921  11.183
 5922W        W72705  13.102  38.104   0.621
 5923W        W72706  39.388  12.282   1.697
 5924W        W72707   1.713  33.649   5.065
 5925W        W72708   6.274  18.223  14.366
 5926W        W72709   8.227   2.251  12.033
 5927W        W72710  13.142  15.091  13.903
 5928W        W72711   6.833  31.349  13.183
 5929W        W72712  32.720  38.027   4.240
 5930W        W72713  43.905  36.410  11.502
 5931W        W72714  26.220   0.747   0.796
 5932W        W72715  17.307  28.910   3.646
 5933W        W72716  13.723  24.840   4.132
 5934W        W72717  38.135  23.182  13.542
 5935W        W72718  24.948  27.896  12.895
 5936W        W72719   8.700   9.561  11.968
 5937W        W72720  44.732  43.508   2.431
 5938W        W72721   4.418  32.870   4.940
 5939W        W72722  42.610   5.657  14.004
 5940W        W72723  42.425  31.169   2.148
 5941W        W72724  41.223   7.787  11.643
 5942W        W72725   8.562  44.045   2.241
 5943W        W72726  32.506  19.479   0.443
 5944W        W72727  44.822   1.052   3.682
 5945W        W72728  24.011  33.907  13.736
 5946W        W72729  42.492  22.502  14.549
 5947W        W72730  23.970  13.134   4.576
 5948W        W72731  20.028  39.419  11.240
 5949W        W72732  20.681   5.615  10.999
 5950W        W72733  25.451   6.293  13.027
 5951W        W72734  32.187  17.708   3.325
 5952W        W72735  37.551  33.793   3.211
 5953W        W72736   0.475  20.935  10.739
 5954W        W72737  44.166  11.137   4.956
 5955W        W72738   3.463  24.453  14.446
 5956W        W72739  19.447  38.690  11.572
 5957W        W72740  28.112   6.480   2.340
 5958W        W72741   3.962  17.362   2.433
 5959W        W72742  26.727  27.040  12.440
 5960W        W72743  41.643  38.432  12.081
 5961W        W72744  19.088   4.503   4.884
 5962W        W72745  31.611  42.991   2.358
 5963W        W72746  36.849  37.759  11.079
 5964W        W72747  13.050  33.641   2.157
 5965W        W72748  22.621   1.249  12.049
 5966W        W72749  33.930  35.296  12.027
 5967W        W72750  30.853  18.472   4.483
 5968W        W72751   9.197   2.436  11.475
 5969W        W72752  20.902  29.876   1.989
 5970W        W72753  40.413  41.087   0.614
 5971W        W72754  25.431   3.349   0.648
 5972W        W72755  29.701  23.282  10.627
 5973W        W72756  10.344  40.824  12.476
 5974W        W72757  13.214  27.045  10.414
 5975W        W72758  10.360   1.947   4.590
 5976W        W72759   8.423  15.015  13.619
 5977W        W72760  19.609  15.788  13.399
 5978W        W72761  24.493  19.679   1.317
 5979W        W72762  12.176  20.660   4.923
 5980W        W72763   3.177  36.469  10.712
 5981W        W72764   1.236  21.046  10.368
 5982W        W72765  41.968  24.686   3.362
 5983W        W72766  33.084  25.258  12.857
 5984W        W72767  23.964   6.817   9.917
 5985W        W72768  34.538  18.692   1.699
 5986W        W72769  43.742   8.385   0.495
 5987W        W72770   7.656  15.108   2.225
 5988W        W72771  34.387  17.678   3.147
 5989W        W72772  20.005  27.194   1.186
 5990W        W72773  36.437  11.198   3.209
 5991W        W72774  39.434   2.186  12.085
 5992W        W72775  42.896  20.345  14.201
 5993W        W72776  18.881   9.627  13.508
 5994W        W72777   5.477   0.973   1.348
 5995W        W72778  33.953  41.339  13.921
 5996W        W72779  29.457  31.799   3.695
 5997W        W72780  14.087  16.561   4.517
 5998W        W72781  32.091  20.210   2.734
 5999W        W72782  10.710   4.485   4.795
 6000W        W72783  12.057   1.460   0.908
 6001W        W72784  12.268  13.239   3.975
 6002W        W72785  15.296  18.333  13.825
 6003W        W72786  44.897  16.538  14.313
 6004W        W72787  41.610  15.317  10.903
 6005W        W72788   0.518  29.704   2.936
 6006W        W72789  36.353  31.367   0.863
 6007W        W72790  17.849  38.619   1.168
 6008W        W72791  23.747  31.523   2.900
 6009W        W72792  13.204  39.945   5.120
 6010W        W72793  40.657  17.267   2.370
 6011W        W72794  38.013  13.652   0.261
 6012W        W72795  29.499   8.443  10.793
 6013W        W72796  38.925  44.547  12.618
 6014W        W72797  16.803  15.019  13.983
 6015W        W72798  23.748  18.141   3.691
 6016W        W72799  40.216   6.950  11.100
 6017W        W72800  15.440  33.118   0.551
 6018W        W72801  34.788  29.561  11.581
 6019W        W72802  28.082  26.954  13.135
 6020W        W72803  37.433  22.212  12.161
 6021W        W72804  14.214  21.560   3.514
 6022W        W72805   3.208  29.627   1.654
 6023W        W72806  25.294   0.682  11.482
 6024W        W72807  17.492  13.870  13.480
 6025W        W72808   0.807  26.206   2.077
 6026W        W72809  23.377  16.713   1.801
 6027W        W72810  38.484   8.759  13.117
 6028W        W72811   0.999  20.265  13.820
 6029W        W72812  20.155  22.047   2.567
 6030W        W72813   7.918  36.774   2.660
 6031W        W72814   1.708  44.383   2.280
 6032W        W72815   9.416  32.059  13.080
 6033W        W72816  42.954  14.345  13.325
 6034W        W72817   4.131  39.321   1.751
 6035W        W72818  28.143  10.870  11.978
 6036W        W72819  13.806  17.605  13.877
 6037W        W72820  19.651  16.111  14.940
 6038W        W72821  36.685  28.931   3.966
 6039W        W72822  10.776  11.870   1.321
 6040W        W72823  20.654  43.210  11.625
 6041W        W72824  40.802  24.653  12.561
 6042W        W72825  35.785   4.691   2.189
 6043W        W72826  22.169  31.870   0.220
 6044W        W72827  30.404  33.502   3.318
 6045W        W72828  25.601  25.839  14.424
 6046W        W72829  43.789  28.241   4.718
 6047W        W72830  13.121  33.044   3.613
 6048W        W72831  18.586  32.919  11.573
 6049W        W72832  26.651   8.927  13.187
 6050W        W72833  38.467  27.492   4.871
 6051W        W72834  23.751  31.732  11.036
 6052W        W72835  38.446  19.273  10.427
 6053W        W72836  18.280   2.752  12.458
 6054W        W72837  44.274  37.706   2.235
 6055W        W72838  30.239  44.631   0.611
 6056W        W72839  28.561  36.822   1.187
 6057W        W72840  29.634  32.966  13.340
 6058W        W72841  38.502   9.812   2.496
 6059W        W72842   9.692  23.110  10.901
 6060W        W72843  35.047  37.273   3.700
 6061W        W72844  21.262  18.016   4.588
 6062W        W72845  30.921  29.619  14.324
 6063W        W72846   9.781  19.789   0.847
 6064W        W72847  40.952  41.832  12.399
 6065W        W72848  44.759  34.465   4.367
 6066W        W72849   1.752  14.507   3.303
 6067W        W72850   7.719  32.735  12.001
 6068W        W72851  18.261   8.440   1.821
 6069W        W72852   6.651  27.946   4.106
 6070W        W72853  42.615  13.253  14.182
 6071W        W72854  20.595  23.955  12.939
 6072W        W72855  33.475  13.058  14.338
 6073W        W72856   6.280  12.849  13.025
 6074W        W72857   5.351  21.657   1.615
 6075W        W72858  36.641  16.236   1.326
 6076W        W72859  25.074  12.700  14.278
 6077W        W72860   5.019  10.346   4.554
 6078W        W72861  31.632  42.080   2.645
 6079W        W72862  31.892   6.818  11.630
 6080W        W72863  27.168  14.082  14.489
 6081W        W72864  25.615  41.942   2.879
 6082W        W72865  35.505  12.116  13.491
 6083W        W72866  23.184  21.254  12.461
 6084W        W72867  26.228  44.107  14.574
 6085W        W72868   1.462  31.351   2.317
 6086W        W72869   8.179  28.006  12.487
 6087W        W72870  13.806  35.074  14.197
 6088W        W72871  40.398  37.774   2.649
 6089W        W72872  13.946   3.158  11.585
 6090W        W72873  16.730  38.313   0.944
 6091W        W72874  32.074   3.684   0.353
 6092W        W72875  10.794  13.922  12.977
 6093W        W72876   5.117  20.276   4.557
 6094W        W72877  19.221  41.889  12.593
 6095W        W72878  33.318   0.986  14.144
 6096W        W72879  37.126  23.296   4.570
 6097W        W72880  15.568  11.641  11.535
 6098W        W72881   1.553  28.227  14.347
 6099W        W72882  24.326  22.780  11.570
 6100W        W72883  33.494  40.984   4.346
 6101W        W72884  27.185  16.107  14.323
 6102W        W72885  36.904  20.797  12.878
 6103W        W72886   1.876  24.815   4.996
 6104W        W72887  26.513   8.212  14.294
 6105W        W72888  31.412  25.262   0.786
 6106W        W72889  43.003   6.102   5.450
 6107W        W72890  10.087  36.797   9.817
 6108W        W72891   2.506   2.631  13.031
 6109W        W72892  25.122  24.485  11.048
 6110W        W72893  22.440  15.403  13.930
 6111W        W72894   1.493  42.070  14.974
 6112W        W72895   3.786  22.222   2.856
 6113W        W72896  25.132  28.632   4.613
 6114W        W72897   6.905   5.041   4.850
 6115W        W72898  32.953  25.586  11.406
 6116W        W72899   9.303   7.736  13.536
 6117W        W72900  20.774  38.488  14.860
 6118W        W72901  22.776  16.069   3.676
 6119W        W72902   2.795  35.926   3.657
 6120W        W72903  30.603  22.263  11.506
 6121W        W72904  41.951  34.686   1.973
 6122W        W72905  37.224  42.216  13.044
 6123W        W72906  22.399  26.948   4.557
 6124W        W72907   4.658  42.490   3.248
 6125W        W72908  38.585  34.607  14.409
 6126W        W72909  19.628  35.575  13.010
 6127W        W72910  13.821  33.670  14.480
 6128W        W72911  16.500  12.922   1.265
 6129W        W72912  42.027   9.867  11.071
 6130W        W72913  44.272  27.811   1.346
 6131W        W72914   3.983  29.245  14.562
 6132W        W72915   5.733   5.347  10.703
 6133W        W72916  14.126  23.495   1.898
 6134W        W72917  38.221   0.368  12.361
 6135W        W72918  36.588   1.260  12.082
 6136W        W72919  35.391   1.696  13.711
 6137W        W72920   1.983   1.963  10.677
 6138W        W72921  18.063   7.321  12.062
 6139W        W72922  26.179   5.817   3.456
 6140W        W72923  43.657  32.880   2.180
 6141W        W72924   7.314  20.549  14.932
 6142W        W72925  17.152  30.698  14.949
 6143W        W72926   3.706  13.753  11.484
 6144W        W72927  24.293  40.550  14.053
 6145W        W72928  21.724  33.835  14.316
 6146W        W72929  19.057  13.813   4.125
 6147W        W72930  16.585  23.535  14.403
 6148W        W72931  23.483  23.110  14.397
 6149W        W72932  41.425  17.572   1.908
 6150W        W72933  36.071  34.901  12.045
 6151W        W72934   6.646  41.973  11.781
 6152W        W72935  31.651  30.683   0.892
 6153W        W72936  39.946  31.226   0.742
 6154W        W72937  10.918   3.491   4.796
 6155W        W72938  26.221  22.453   1.344
 6156W        W72939  34.094   2.638   1.723
 6157W        W72940   0.015  18.205   2.778
 6158W        W72941   5.179  31.841  12.904
 6159W        W72942   4.802  42.808  10.762
 6160W        W72943  36.861   5.094   2.733
 6161W        W72944  35.614  27.263   2.226
 6162W        W72945   4.749  35.373   1.645
 6163W        W72946  29.735  33.513  14.287
 6164W        W72947  17.886  15.287   1.210
 6165W        W72948  16.172  39.844   4.231
 6166W        W72949  35.097  39.652  14.356
 6167W        W72950  30.332  25.694   3.717
 6168W        W72951  21.285  11.628  13.401
 6169W        W72952  28.102  40.822  13.898
 6170W        W72953  21.739  39.670   3.623
 6171W        W72954  22.577  37.392   3.245
 6172W        W72955  13.286   6.594   0.471
 6173W        W72956  21.638  18.616  10.721
 6174W        W72957  35.320   4.934   2.277
 6175W        W72958  13.114  14.803   3.229
 6176W        W72959  16.191   9.206   0.896
 6177W        W72960   4.902   6.855   2.831
 6178W        W72961   7.596   6.732   2.299
 6179W        W72962  18.024  39.046   3.861
 6180W        W72963  19.291   1.254   4.642
 6181W        W72964  12.182  35.604  12.465
 6182W        W72965  42.631   0.073   2.407
 6183W        W72966   9.643  39.108   0.742
 6184W        W72967  42.634  43.588  11.053
 6185W        W72968  29.697  41.256   1.751
 6186W        W72969   4.860  19.714  11.460
 6187W        W72970   8.594  18.670  14.678
 6188W        W72971  16.033  17.135  13.886
 6189W        W72972  28.540  44.936   2.842
 6190W        W72973   7.393  19.205  11.012
 6191W        W72974   1.609  44.327  14.811
 6192W        W72975  15.356  26.119   4.126
 6193W        W72976  32.822  32.624   4.568
 6194W        W72977  24.173  10.097   0.123
 6195W        W72978  34.923  44.531  12.092
 6196W        W72979  10.338  43.213  10.835
 6197W        W72980   5.900   0.356   1.857
 6198W        W72981  10.371  11.623  10.035
 6199W        W72982  13.760  36.553   1.239
 6200W        W72983  20.263   9.326   3.969
 6201W        W72984  20.860   1.864   5.015
 6202W        W72985  14.288   1.371   1.402
 6203W        W72986  36.537   7.602  14.898
 6204W        W72987  38.811  20.272  12.091
 6205W        W72988   2.866  19.740   1.736
 6206W        W72989  38.221  13.541  12.464
 6207W        W72990   7.565  31.519  14.952
 6208W        W72991  24.911   8.131   2.607
 6209W        W72992  21.232  17.353  12.870
 6210W        W72993  32.978  14.378   1.067
 6211W        W72994  35.904  13.817  11.517
 6212W        W72995  22.107  41.521   4.666
 6213W        W72996  32.001  35.353   4.034
 6214W        W72997  28.206  29.933  14.924
 6215W        W72998  21.030   8.593   1.223
 6216W        W72999   8.395  32.475   2.189
 6217W        W73000  22.552  40.296   0.033
 6218W        W73001  24.110   1.494   4.710
 6219W        W73002   9.384  41.441   4.400
 6220W        W73003  14.597  43.824  10.981
 6221W        W73004  18.276   2.685  13.984
 6222W        W73005  15.236  34.680  13.920
 6223W        W73006  16.396  37.986  14.232
 6224W        W73007  11.619  38.301   0.300
 6225W        W73008   6.583  32.144   2.838
 6226W        W73009  24.102  17.514  10.260
 6227W        W73010   1.788  19.145  11.170
 6228W        W73011  42.294  26.758   1.561
 6229W        W73012  13.312  12.798   2.838
 6230W        W73013   6.819  22.979  11.785
 6231W        W73014  19.291  28.270   1.715
 6232W        W73015  21.318  31.170   3.243
 6233W        W73016  15.304  24.593  11.571
 6234W        W73017   6.246  28.706  14.962
 6235W        W73018   4.227   0.307   0.850
 6236W        W73019  38.972  19.244  13.456
 6237W        W73020  20.955  23.759   5.071
 6238W        W73021   1.948  27.139   3.725
 6239W        W73022  41.838  36.051   3.199
 6240W        W73023   8.351   3.727  13.512
 6241W        W73024   4.807  38.954   3.736
 6242W        W73025  37.357  13.155   4.926
 6243W        W73026  38.974  39.579  11.133
 6244W        W73027   8.294  31.489   3.236
 6245W        W73028  10.234  25.285   4.120
 6246W        W73029  25.107  32.538  14.489
 6247W        W73030  20.058  24.251  13.933
 6248W        W73031  42.907  29.569   1.296
 6249W        W73032   4.157  31.151  10.680
 6250W        W73033   7.399  35.616   2.360
 6251W        W73034  21.511  17.103   1.621
 6252W        W73035   6.413  26.692  14.434
 6253W        W73036  29.337  41.449  12.687
 6254W        W73037  29.862   4.218  13.985
 6255W        W73038  37.312  29.711  10.798
 6256W        W73039   6.217  21.765   3.064
 6257W        W73040   7.134  30.060   4.798
 6258W        W73041  14.887  38.565  12.486
 6259W        W73042   4.142  29.962  13.007
 6260W        W73043  18.558  16.497   4.410
 6261W        W73044   5.332  19.086   1.857
 6262W        W73045  27.917  33.112   1.404
 6263W        W73046  35.021  17.238  10.776
 6264W        W73047  26.983  17.095  14.367
 6265W        W73048  20.221  28.860   3.133
 6266W        W73049  29.586  42.723  10.240
 6267W        W73050   6.436  41.836  11.116
 6268W        W73051  15.879  43.054  10.634
 6269W        W73052  21.751   4.797   1.784
 6270W        W73053   9.640  26.181  10.762
 6271W        W73054  12.754  20.198  14.920
 6272W        W73055  35.827  39.303  13.349
 6273W        W73056   1.706  12.062  12.599
 6274W        W73057  23.793   6.485  13.258
 6275W        W73058  17.634  40.615  12.650
 6276W        W73059  31.522   3.521   4.051
 6277W        W73060  16.737  11.975  12.661
 6278W        W73061  13.041  12.576   1.864
 6279W        W73062  23.581   3.983   1.834
 6280W        W73063  22.642   3.493   3.885
 6281W        W73064  13.006  14.258   1.729
 6282W        W73065  31.878  31.625  14.216
 6283W        W73066  28.190  12.503   0.768
 6284W        W73067  20.628  35.396   2.570
 6285W        W73068  44.984   1.650  12.759
 6286W        W73069  24.773   8.868  12.591
 6287W        W73070  31.938   0.533   2.150
 6288W        W73071  24.996  21.983   0.303
 6289W        W73072   8.463  10.245  14.401
 6290W        W73073  10.713  36.940  11.129
 6291W        W73074  10.821  38.453   1.111
 6292W        W73075   8.167  15.790   4.865
 6293W        W73076  17.898  14.758  11.607
 6294W        W73077  13.701  11.139   2.140
 6295W        W73078  12.373  13.168  11.804
 6296W        W73079  44.766  35.565   3.347
 6297W        W73080   6.206  29.788   2.075
 6298W        W73081  34.306  36.982   0.372
 6299W        W73082  27.053  23.741   3.688
 6300W        W73083  36.654  16.152  14.805
 6301W        W73084  42.365   8.409   1.001
 6302W        W73085  40.261  10.817  10.239
 6303W        W73086   7.928  29.344  14.482
 6304W        W73087  13.304  44.983   4.347
 6305W        W73088  29.652  42.584  11.904
 6306W        W73089   2.456  43.945   4.808
 6307W        W73090  43.868  35.934   1.831
 6308W        W73091   1.987  36.074   0.866
 6309W        W73092  13.334  41.958  13.284
 6310W        W73093   0.050  29.638  14.492
 6311W        W73094  28.083  43.401  11.193
 6312W        W73095  36.808  35.388  14.302
 6313W        W73096  25.570  10.675   2.364
 6314W        W73097  23.481  28.124   4.120
 6315W        W73098  31.010  14.860   2.912
 6316W        W73099  30.420  32.120  11.544
 6317W        W73100  27.187  14.940  10.778
 6318W        W73101  20.107  16.185  11.222
 6319W        W73102  29.337  27.750  12.686
 6320W        W73103  15.415  40.882  10.346
 6321W        W73104  15.754  17.139   4.057
 6322W        W73105   4.946  34.487   3.901
 6323W        W73106  24.099  25.635   0.329
 6324W        W73107  16.547  42.428  10.660
 6325W        W73108   2.881   9.144  14.578
 6326W        W73109  31.850  44.733  12.994
 6327W        W73110  20.784  23.508  13.822
 6328W        W73111   3.286  10.208   5.169
 6329W        W73112   1.401  24.741   4.745
 6330W        W73113  35.091  42.183  11.962
 6331W        W73114   9.314  21.168  13.346
 6332W        W73115  14.524  22.611  10.786
 6333W        W73116  31.751  17.350   5.015
 6334W        W73117  42.972  18.649   1.563
 6335W        W73118  26.041  43.116  13.148
 6336W        W73119  28.961  10.819   4.341
 6337W        W73120  24.641  41.341   2.826
 6338W        W73121  39.662   0.508  12.176
 6339W        W73122  22.139  30.285  11.078
 6340W        W73123  26.068   8.274  11.732
 6341W        W73124  17.028  34.478   2.792
 6342W        W73125   1.365   6.977   1.630
 6343W        W73126  30.716  24.838   1.987
 6344W        W73127   1.446  43.119  14.060
 6345W        W73128  38.560  41.298  13.414
 6346W        W73129  21.483  25.748   5.054
 6347W        W73130  26.194  14.657  13.475
 6348W        W73131  25.471  18.170  13.948
 6349W        W73132  16.821  18.679  11.188
 6350W        W73133  31.839  39.288  12.778
 6351W        W73134  20.560  37.043  12.925
 6352W        W73135  35.887  15.393  12.986
 6353W        W73136  40.745  31.412  12.746
 6354W        W73137  28.637  41.078   2.365
 6355W        W73138  26.706  40.875   9.764
 6356W        W73139  32.838  22.439   4.948
 6357W        W73140  31.410  31.390  14.343
 6358W        W73141  33.555  18.146   0.300
 6359W        W73142  34.394  39.652  12.476
 6360W        W73143  44.021   5.143  10.178
 6361W        W73144  13.655  38.513   4.663
 6362W        W73145  17.909  15.600   0.737
 6363W        W73146   7.725  42.069  12.542
 6364W        W73147  24.382   2.347  14.558
 6365W        W73148   6.254  38.923   3.709
 6366W        W73149  37.800  39.810   2.668
 6367W        W73150   5.945  35.520   4.238
 6368W        W73151   5.694  15.746   3.322
 6369W        W73152  33.438  27.130  14.926
 6370W        W73153   7.609   9.434   0.931
 6371W        W73154  30.806  17.697  13.533
 6372W        W73155  40.110  25.643  12.835
 6373W        W73156  32.899   3.723   2.892
 6374W        W73157  14.033  14.180  13.785
 6375W        W73158  18.696   1.250  11.919
 6376W        W73159  44.738   2.366   1.292
 6377W        W73160  18.341  13.772   0.941
 6378W        W73161  30.845  16.444   3.693
 6379W        W73162  38.287  32.946   0.030
 6380W        W73163   1.536   3.749  12.992
 6381W        W73164  33.553  33.587  13.846
 6382W        W73165  44.901  16.285   2.795
 6383W        W73166  13.746   1.276   1.305
 6384W        W73167  14.057  36.186   4.096
 6385W        W73168  39.417  18.324   4.699
 6386W        W73169  19.051  42.560  12.007
 6387W        W73170  38.280  22.115   3.807
 6388W        W73171  34.849  27.355   4.416
 6389W        W73172  25.117   8.933   3.561
 6390W        W73173  37.959   9.015  10.098
 6391W        W73174  30.031  31.545   2.397
 6392W        W73175  15.092  20.702  13.890
 6393W        W73176  29.637   9.640  12.368
 6394W        W73177  31.956  35.368  13.236
 6395W        W73178  12.269  16.169   1.727
 6396W        W73179  32.940  41.094  13.565
 6397W        W73180   2.455  10.464   1.125
 6398W        W73181   3.334  12.654   0.393
 6399W        W73182  44.883  39.900  11.131
 6400W        W73183  10.563  13.411   1.925
 6401W        W73184  27.596   7.448   2.870
 6402W        W73185   4.873  19.683  10.937
 6403W        W73186  42.171  13.280  13.426
 6404W        W73187  41.093   6.343  13.564
 6405W        W73188  32.075  16.476   1.459
 6406W        W73189  21.911  44.297   0.913
 6407W        W73190  41.434  25.204   3.168
 6408W        W73191   2.653  33.672  12.851
 6409W        W73192  33.410  29.393  13.105
 6410W        W73193  44.849  39.886  13.446
 6411W        W73194  35.301   0.796  11.013
 6412W        W73195   1.437  41.459   2.108
 6413W        W73196   1.215  18.728  13.796
 6414W        W73197  27.278  44.551   3.146
 6415W        W73198   4.362  44.487  14.335
 6416W        W73199  37.010   7.133   2.833
 6417W        W73200  13.495  28.760   1.262
 6418W        W73201  29.068  26.369   1.690
 6419W        W73202  30.558  11.979   3.948
 6420W        W73203  20.224   0.299  13.080
 6421W        W73204  10.173  28.641  11.593
 6422W        W73205  42.978  41.099  13.866
 6423W        W73206  16.568  12.767  13.904
 6424W        W73207   6.641   2.251  14.419
 6425W        W73208  39.625  40.309   4.529
 6426W        W73209  34.442  41.349   0.329
 6427W        W73210  16.132  22.082  14.867
 6428W        W73211  17.588  41.587  13.033
 6429W        W73212   9.196  30.660  13.788
 6430W        W73213   2.008  12.355  13.965
 6431W        W73214  10.358   5.532   4.104
 6432W        W73215  16.261  43.395   2.375
 6433W        W73216  18.670  36.547   3.634
 6434W        W73217   2.465   2.490  13.927
 6435W        W73218  19.996  26.503  10.971
 6436W        W73219  31.693   2.972  12.168
 6437W        W73220   1.367  19.651   0.877
 6438W        W73221   6.314  18.088  13.866
 6439W        W73222  12.361  43.619  11.046
 6440W        W73223  24.264  31.945  13.805
 6441W        W73224   4.685   0.543   0.880
 6442W        W73225  42.739  25.638  14.013
 6443W        W73226  10.080  28.488  12.451
 6444W        W73227   7.654   7.692  12.711
 6445W        W73228  40.546   6.130   2.328
 6446W        W73229  36.944  31.973  11.496
 6447W        W73230  13.634   7.945   0.412
 6448W        W73231   0.286  33.336   3.862
 6449W        W73232  29.209  17.631   0.697
 6450W        W73233  41.080   6.670  11.375
 6451W        W73234  40.460  20.907  13.895
 6452W        W73235  15.846   4.315  11.170
 6453W        W73236   2.730  21.158   0.057
 6454W        W73237  42.837  38.288   0.097
 6455W        W73238  33.329  14.343  11.665
 6456W        W73239   9.004  21.090  11.946
 6457W        W73240  44.233  31.137   1.079
 6458W        W73241  27.617  39.938   0.431
 6459W        W73242  31.079   0.933   1.738
 6460W        W73243   3.319  36.659   1.233
 6461W        W73244  25.953  21.586   4.635
 6462W        W73245  18.581  12.494  11.413
 6463W        W73246  11.224   7.739  11.611
 6464W        W73247  25.595   9.192   2.355
 6465W        W73248  36.369   6.265  13.547
 6466W        W73249  26.601  43.470  10.654
 6467W        W73250  18.420  28.441   4.304
 6468W        W73251  19.302   7.625  13.453
 6469W        W73252  22.999   5.746  14.648
 6470W        W73253  13.560  37.015  13.052
 6471W        W73254  42.850  13.027   3.816
 6472W        W73255  40.018  25.684  10.698
 6473W        W73256  23.225   6.888   4.443
 6474W        W73257  21.762  22.960   3.122
 6475W        W73258  28.348   6.761   1.966
 6476W        W73259  43.446  27.062  11.792
 6477W        W73260  32.042  44.469   0.693
 6478W        W73261  24.175  44.761   0.545
 6479W        W73262  35.127  31.467   4.199
 6480W        W73263   7.294  42.433   4.430
 6481W        W73264  22.658   6.214  10.372
 6482W        W73265  27.450  36.320   0.290
 6483W        W73266   9.969   9.747   0.360
 6484W        W73267  42.837  43.484   4.296
 6485W        W73268  34.096   6.470  13.373
 6486W        W73269  10.352  19.051  14.617
 6487W        W73270  37.414  23.874  14.363
 6488W        W73271   0.829  27.534  10.137
 6489W        W73272  16.791  15.398  12.580
 6490W        W73273  16.473  24.696   1.174
 6491W        W73274   7.240  21.578  12.579
 6492W        W73275  39.938   2.263   1.400
 6493W        W73276   5.272  13.312  13.847
 6494W        W73277  42.571  34.722  10.893
 6495W        W73278  28.735  15.625   0.405
 6496W        W73279  15.064  14.090   1.761
 6497W        W73280  38.893  16.207  11.419
 6498W        W73281   2.283  37.840  11.586
 6499W        W73282  42.695  20.561   3.548
 6500W        W73283   9.634  42.882  12.846
 6501W        W73284  21.065  25.453   2.975
 6502W        W73285  26.066  37.927   1.322
 6503W        W73286  40.074  36.631   3.273
 6504W        W73287   4.470  23.767  10.675
 6505W        W73288  39.986  15.254  10.712
 6506W        W73289   4.857  26.590  13.824
 6507W        W73290  42.254   2.562  13.910
 6508W        W73291  21.098  40.543   2.352
 6509W        W73292  32.148  34.095  11.274
 6510W        W73293  15.030  14.241  10.259
 6511W        W73294  32.907  43.437  14.304
 6512W        W73295   5.834  15.171  14.856
 6513W        W73296  29.934   8.400   2.211
 6514W        W73297  23.704  15.283   0.441
 6515W        W73298  15.699   4.114   4.135
 6516W        W73299  13.854   9.859   3.877
 6517W        W73300  22.147   1.535   2.232
 6518W        W73301  12.893  29.886   0.374
 6519W        W73302   9.324  27.749  10.547
 6520W        W73303  28.414  21.204  13.502
 6521W        W73304  23.814  27.779  13.455
 6522W        W73305  30.452  37.990  11.192
 6523W        W73306  11.233  22.892  14.388
 6524W        W73307   8.281  23.242  10.436
 6525W        W73308   5.395  18.793  10.627
 6526W        W73309  17.816   3.295  12.913
 6527W        W73310   5.183   0.905  11.678
 6528W        W73311   2.860  42.560  10.408
 6529W        W73312  30.550  16.097   0.335
 6530W        W73313  21.106  34.761   0.999
 6531W        W73314  44.759  40.463  12.164
 6532W        W73315  22.692   0.773  14.780
 6533W        W73316  41.457  36.604  11.183
 6534W        W73317  39.217  16.091   2.543
 6535W        W73318  40.540  42.351  13.756
 6536W        W73319  20.186   7.850   0.378
 6537W        W73320  38.113  38.388  12.363
 6538W        W73321  41.960   5.340  12.839
 6539W        W73322  21.697  20.618   0.372
 6540W        W73323  10.209  41.289   3.372
 6541W        W73324   4.490  31.971   0.797
 6542W        W73325  28.946  37.324   5.073
 6543W        W73326  22.728  40.449   3.962
 6544W        W73327  32.376  32.414   0.818
 6545W        W73328   2.296  10.793  14.887
 6546W        W73329  44.665  19.466  14.339
 6547W        W73330   2.968  20.514  11.078
 6548W        W73331  26.967  32.981   4.109
 6549W        W73332  17.603  20.589  11.215
 6550W        W73333  28.083  13.474   3.593
 6551W        W73334  41.857  15.074   4.665
 6552W        W73335   4.905  30.684  11.122
 6553W        W73336  12.597  42.857   4.089
 6554W        W73337  41.329  30.061   4.344
 6555W        W73338  24.145  19.342   3.341
 6556W        W73339   5.870  42.996   9.802
 6557W        W73340  19.662   7.760   2.832
 6558W        W73341  44.679  36.607  12.011
 6559W        W73342  33.767   4.741   3.280
 6560W        W73343  31.436  30.591  13.795
 6561W        W73344  42.403  11.941   9.932
 6562W        W73345   6.199  26.495  10.526
 6563W        W73346  11.106  32.183   0.723
 6564W        W73347  25.854  35.521   1.308
 6565W        W73348  41.748  36.312  10.592
 6566W        W73349  44.110  38.482   1.952
 6567W        W73350  13.027  37.521  14.997
 6568W        W73351  36.838  21.890   0.172
 6569W        W73352   0.722  40.768   3.339
 6570W        W73353  43.292   5.847   0.455
 6571W        W73354  10.101  31.145  12.986
 6572W        W73355   8.279  23.543   4.609
 6573W        W73356  32.766  19.531   4.153
 6574W        W73357  10.670   4.909  12.547
 6575W        W73358   1.853  30.912   2.454
 6576W        W73359  22.994   3.067  11.231
 6577W        W73360  43.944   6.892   3.726
 6578W        W73361  30.489  25.513   0.304
 6579W        W73362   8.232  32.447   1.263
 6580W        W73363  34.629   2.010  14.308
 6581W        W73364  34.770  43.779   0.392
 6582W        W73365  18.678  44.525  10.274
 6583W        W73366  30.325  32.381  12.966
 6584W        W73367  35.553  40.904   4.748
 6585W        W73368  27.458  23.712   0.258
 6586W        W73369  28.974   8.891   3.805
 6587W        W73370  33.584   6.054   9.757
 6588W        W73371  29.422  11.231  12.861
 6589W        W73372  27.726  36.100  14.434
 6590W        W73373  44.543  35.190  14.267
 6591W        W73374  13.231  37.274   2.802
 6592W        W73375   3.439   6.132  12.047
 6593W        W73376  11.686   3.325   1.778
 6594W        W73377  38.454  23.541  11.506
 6595W        W73378  38.166  18.996  12.596
 6596W        W73379  11.550  31.460  11.966
 6597W        W73380  29.371  21.021  12.782
 6598W        W73381   9.468  24.504   2.829
 6599W        W73382  37.375  37.940   1.313
 6600W        W73383  42.022  10.253   1.800
 6601W        W73384  19.025  17.712  11.062
 6602W        W73385   6.011  28.829  11.589
 6603W        W73386  34.503   4.728   2.589
 6604W        W73387  22.530  11.033  13.442
 6605W        W73388  10.223  38.556  14.402
 6606W        W73389  24.600  31.892  14.715
 6607W        W73390   2.909  32.329   0.771
 6608W        W73391  37.535  35.773   0.941
 6609W        W73392  17.776  16.531  14.770
 6610W        W73393  21.221  42.492  12.422
 6611W        W73394  40.445  26.939  12.190
 6612W        W73395  40.622  41.890  14.714
 6613W        W73396  25.503  44.570   0.411
 6614W        W73397  29.111  28.140  10.702
 6615W        W73398  20.097  14.769   0.936
 6616W        W73399   6.444  16.063  13.487
 6617W        W73400  34.445   6.535   3.138
 6618W        W73401  38.308  35.445   0.804
 6619W        W73402  17.473  28.058   4.693
 6620W        W73403  16.144  13.589  13.600
 6621W        W73404  25.426   1.475  12.031
 6622W        W73405  28.029  26.607   9.948
 6623W        W73406  13.857  42.245   3.132
 6624W        W73407  27.149  15.700   0.457
 6625W        W73408  40.421  34.341  13.291
 6626W        W73409  33.900  43.155   2.386
 6627W        W73410   1.298  43.525   3.500
 6628W        W73411  44.903   5.810   3.317
 6629W        W73412  27.648   4.554  11.489
 6630W        W73413  41.431   7.804   0.420
 6631W        W73414   8.488  41.728   2.328
 6632W        W73415  23.449  20.476   1.830
 6633W        W73416  22.651  14.983   1.905
 6634W        W73417   0.309  42.006   0.253
 6635W        W73418  44.819  19.710   0.774
 6636W        W73419   3.918  10.048   0.104
 6637W        W73420  11.154   8.437  12.137
 6638W        W73421   3.985  26.217  14.617
 6639W        W73422  29.194  38.050   3.401
 6640W        W73423  41.411  43.915  10.665
 6641W        W73424  18.186  16.376   5.207
 6642W        W73425   6.515  32.546   1.826
 6643W        W73426  27.694  19.969  12.394
 6644W        W73427   2.497   3.398  14.035
 6645W        W73428  21.781  19.621  12.257
 6646W        W73429  32.513  35.402  14.778
 6647W        W73430   7.354  41.265   3.444
 6648W        W73431  44.954   6.780  13.428
 6649W        W73432  10.423  43.287  12.938
 6650W        W73433  30.695   0.778   0.173
 6651W        W73434   1.376   4.336  11.484
 6652W        W73435  20.723  39.479   2.580
 6653W        W73436  16.031  25.995   1.770
 6654W        W73437  26.420  18.810   0.870
 6655W        W73438  23.716  34.606   2.255
 6656W        W73439   8.311  10.334  12.606
 6657W        W73440  33.139   6.315  13.776
 6658W        W73441  30.692  25.186   3.675
 6659W        W73442  40.613   2.872  11.129
 6660W        W73443  33.638  23.557  10.310
 6661W        W73444  31.405  10.864  11.709
 6662W        W73445   2.169  18.032   2.278
 6663W        W73446  29.565  18.571   4.177
 6664W        W73447   5.531  19.802  14.989
 6665W        W73448  11.201   0.375  11.680
 6666W        W73449  21.659  28.229  14.473
 6667W        W73450  34.269  23.180  12.849
 6668W        W73451  22.225  20.119   4.471
 6669W        W73452  41.615  30.512   5.100
 6670W        W73453  21.519  29.831   1.138
 6671W        W73454  17.287  40.102  11.604
 6672W        W73455  26.020  32.680  10.758
 6673W        W73456  31.593  22.769  11.619
 6674W        W73457  22.949  43.447   0.465
 6675W        W73458  20.704  42.525  13.946
 6676W        W73459  19.303  12.326  11.320
 6677W        W73460  34.977  29.891   3.703
 6678W        W73461  39.834  40.850  14.532
 6679W        W73462  15.842  25.707   1.359
 6680W        W73463  16.175   5.430  13.754
 6681W        W73464  23.453  17.518   0.931
 6682W        W73465   6.460  10.749   1.397
 6683W        W73466  18.049  38.906  13.505
 6684W        W73467  35.319  19.522  10.330
 6685W        W73468   4.246  40.202  10.464
 6686W        W73469  15.021  32.217   2.389
 6687W        W73470  28.508  19.733   2.743
 6688W        W73471   3.508  36.583  13.460
 6689W        W73472  38.837  43.930   0.802
 6690W        W73473  21.503   2.722   0.154
 6691W        W73474   2.963  33.413  13.950
 6692W        W73475  14.517  26.243   0.372
 6693W        W73476  18.668  10.546   3.212
 6694W        W73477  24.099  21.439  10.618
 6695W        W73478  17.322  35.478   4.638
 6696W        W73479   3.407  25.695   2.641
 6697W        W73480  40.938  32.509  12.510
 6698W        W73481  36.136  24.910  13.635
 6699W        W73482  24.310  34.994  13.782
 6700W        W73483  11.144  24.169   4.529
 6701W        W73484  38.573  25.691   2.438
 6702W        W73485  38.505  10.235   1.607
 6703W        W73486  29.472  37.879   1.339
 6704W        W73487  41.298  23.988  14.150
 6705W        W73488  15.781  24.803  11.578
 6706W        W73489  38.835  16.149   2.920
 6707W        W73490   1.295  35.783   2.133
 6708W        W73491  31.456  38.542   4.514
 6709W        W73492  32.912  29.403   1.912
 6710W        W73493  21.732  35.128   4.492
 6711W        W73494   7.989  28.225  12.973
 6712W        W73495  14.133  27.548  11.084
 6713W        W73496  33.917  42.590  11.582
 6714W        W73497  17.612   4.549   0.773
 6715W        W73498  22.839  11.434  13.556
 6716W        W73499   2.673   2.864  11.270
 6717W        W73500  34.177  27.530   2.431
 6718W        W73501  22.288  36.588  12.369
 6719W        W73502   8.052  12.300  14.419
 6720W        W73503   6.659  19.177  14.360
 6721W        W73504   4.345  11.472  14.321
 6722W        W73505   3.038   9.807   0.899
 6723W        W73506  39.802  38.035   1.825
 6724W        W73507  30.630  13.108   2.728
 6725W        W73508   3.362  38.135  10.764
 6726W        W73509   5.514  29.203   1.984
 6727W        W73510  30.746  18.314   0.410
 6728W        W73511  27.985   2.025   0.983
 6729W        W73512  25.721   4.092   3.576
 6730W        W73513   9.187   9.372   4.473
 6731W        W73514  11.983  16.615  13.412
 6732W        W73515  43.994  38.925  11.585
 6733W        W73516  33.845  28.442  12.116
 6734W        W73517  20.240  18.246  12.071
 6735W        W73518  36.003  19.213  14.865
 6736W        W73519   4.449  26.743  12.975
 6737W        W73520  17.703  32.708   4.404
 6738W        W73521  31.209  25.093  12.520
 6739W        W73522  44.760  19.226   4.137
 6740W        W73523  34.588  36.393  13.417
 6741W        W73524  41.399  17.035   1.915
 6742W        W73525  15.326  14.249   4.893
 6743W        W73526   5.839   5.478  11.701
 6744W        W73527  13.251  16.258   0.320
 6745W        W73528  36.718  26.020  13.172
 6746W        W73529  41.348  18.867  13.175
 6747W        W73530  30.910  35.768   3.629
 6748W        W73531  23.534  12.418   3.571
 6749W        W73532  33.122  41.068  14.471
 6750W        W73533  40.092  36.720  12.171
 6751W        W73534   4.771  15.293   4.125
 6752W        W73535  26.990  28.978  11.563
 6753W        W73536  43.723  18.572   0.595
 6754W        W73537  44.600  39.761  12.425
 6755W        W73538   2.349  10.666  13.886
 6756W        W73539  26.074   8.275   3.834
 6757W        W73540   5.127   3.473  13.527
 6758W        W73541  38.396  20.628  13.992
 6759W        W73542  39.620  39.504   0.975
 6760W        W73543  11.843  41.634   5.119
 6761W        W73544  14.016  13.326  12.126
 6762W        W73545   5.814  16.277   4.052
 6763W        W73546  28.001  12.348   4.587
 6764W        W73547  14.821  31.172  11.669
 6765W        W73548  33.343  40.398  12.544
 6766W        W73549   8.612  14.363   4.522
 6767W        W73550   6.081  29.593   0.736
 6768W        W73551   0.989  20.232  13.047
 6769W        W73552   0.196  26.856  14.995
 6770W        W73553   9.727  28.788   2.801
 6771W        W73554  32.354   3.677  14.900
 6772W        W73555  12.722  28.844   2.822
 6773W        W73556  24.694  37.584  13.445
 6774W        W73557  34.307   9.027   1.202
 6775W        W73558   9.664  33.705   4.256
 6776W        W73559  38.086  35.370  12.893
 6777W        W73560  12.078   2.040   3.293
 6778W        W73561  10.654   2.955  13.714
 6779W        W73562   4.172  23.681   0.334
 6780W        W73563  17.775  25.607   2.677
 6781W        W73564  24.624  30.231   0.600
 6782W        W73565  43.255   2.228  11.507
 6783W        W73566  32.135  34.591  11.142
 6784W        W73567  37.983  21.679  10.729
 6785W        W73568  27.160  16.261  13.826
 6786W        W73569  23.206  26.069   1.870
 6787W        W73570   6.277  33.972  11.892
 6788W        W73571   5.940  18.095  12.605
 6789W        W73572  14.744  19.299   3.352
 6790W        W73573  33.333  15.661  13.397
 6791W        W73574  32.438  12.375   0.957
 6792W        W73575  17.426  13.881   1.001
 6793W        W73576  16.246  10.274   0.783
 6794W        W73577  14.576   7.860   3.366
 6795W        W73578   6.538  34.006  12.866
 6796W        W73579  14.858  24.781   1.834
 6797W        W73580  28.472  38.284  10.923
 6798W        W73581  18.745  35.484   1.619
 6799W        W73582   6.000  17.609   2.843
 6800W        W73583   6.846  26.176   0.963
 6801W        W73584  20.074  14.103   4.067
 6802W        W73585   5.185  11.043   2.502
 6803W        W73586  39.425  23.273  12.428
 6804W        W73587  21.155  16.574  11.707
 6805W        W73588  40.732  26.041  11.699
 6806W        W73589   5.554  11.854   3.673
 6807W        W73590  16.191  33.490   0.333
 6808W        W73591  42.492  10.966   4.618
 6809W        W73592  12.097   7.266   1.758
 6810W        W73593   6.965  11.090  11.091
 6811W        W73594  13.070  15.010   0.703
 6812W        W73595  41.382  40.529   0.262
 6813W        W73596  32.942   2.958  13.969
 6814W        W73597  38.435  41.756  13.606
 6815W        W73598  37.041  18.036   2.162
 6816W        W73599  31.582   0.038  13.861
 6817W        W73600  44.573   0.852   4.113
 6818W        W73601  39.970   1.659  11.617
 6819W        W73602  32.547  26.544  10.625
 6820W        W73603  25.704  10.821  12.061
 6821W        W73604  28.440  43.586  14.394
 6822W        W73605  38.320  12.662   1.350
 6823W        W73606  23.046  40.214   4.630
 6824W        W73607  26.177   7.694   0.447
 6825W        W73608  34.033  17.536  12.077
 6826W        W73609  15.856  37.451   1.687
 6827W        W73610  44.832  22.106   1.707
 6828W        W73611  38.275   9.112   0.290
 6829W        W73612  36.198  36.856   4.076
 6830W        W73613  14.868  41.583   4.235
 6831W        W73614  19.916  42.200   3.206
 6832W        W73615   8.623  18.140   3.552
 6833W        W73616   2.486  25.511   2.754
 6834W        W73617  29.940  21.227  10.606
 6835W        W73618   8.583  32.484  13.953
 6836W        W73619   9.110  15.613   1.798
 6837W        W73620   7.299   8.409  12.951
 6838W        W73621  13.633  28.714  12.162
 6839W        W73622  26.247  38.411  14.223
 6840W        W73623  10.369  44.032   2.742
 6841W        W73624  20.638  12.630  14.184
 6842W        W73625  28.112  34.529  12.090
 6843W        W73626  35.328  41.172  14.031
 6844W        W73627  25.961   3.313   0.670
 6845W        W73628  34.153  32.878   2.399
 6846W        W73629  13.124  19.727  14.089
 6847W        W73630   1.741  24.236   1.855
 6848W        W73631  31.242  18.164  10.743
 6849W        W73632  12.383  15.007   2.075
 6850W        W73633   5.838  17.318   2.451
 6851W        W73634   0.200  38.364   4.491
 6852W        W73635  11.593  17.938   4.920
 6853W        W73636   1.342  34.213   1.777
 6854W        W73637  32.099   1.590  12.494
 6855W        W73638  24.414  35.489  13.047
 6856W        W73639  33.690  35.005   0.410
 6857W        W73640  13.356  18.314   2.692
 6858W        W73641   6.085  33.686   4.027
 6859W        W73642  33.833  27.226   3.227
 6860W        W73643  19.684  30.264   1.429
 6861W        W73644  39.747  33.415  11.570
 6862W        W73645  29.493   5.873   0.892
 6863W        W73646   6.734  38.994  10.918
 6864W        W73647  43.258   8.584   0.629
 6865W        W73648  33.991  21.400  12.490
 6866W        W73649  19.636  17.137  13.512
 6867W        W73650  39.149  13.929  10.658
 6868W        W73651  26.344  42.056  12.045
 6869W        W73652  37.937  42.825  14.943
 6870W        W73653  42.362  35.935  13.905
 6871W        W73654  10.144   5.321   1.149
 6872W        W73655  28.543  39.226   2.460
 6873W        W73656  37.632  25.205   1.802
 6874W        W73657   7.966  28.597  14.769
 6875W        W73658  11.887  28.246   0.823
 6876W        W73659   4.995  26.665   4.136
 6877W        W73660  27.983   5.190  10.708
 6878W        W73661  11.776   4.853  10.653
 6879W        W73662  14.845  34.041   3.724
 6880W        W73663  42.380  22.735  11.848
 6881W        W73664  32.057   0.373  13.900
 6882W        W73665  17.486  23.533   2.343
 6883W        W73666  15.181  33.090   1.822
 6884W        W73667   8.208  26.360  10.558
 6885W        W73668  41.804  36.785  11.921
 6886W        W73669  20.991  28.223   2.328
 6887W        W73670  35.045  35.102  12.098
 6888W        W73671  43.301  23.769  14.967
 6889W        W73672   0.257  17.527  12.935
 6890W        W73673  22.624   8.249   3.733
 6891W        W73674  28.914   8.872   4.313
 6892W        W73675   5.162  17.836   3.210
 6893W        W73676  11.213   0.307  10.770
 6894W        W73677  32.978  35.627  13.339
 6895W        W73678   0.186   0.798  13.072
 6896W        W73679   6.128  42.828   4.208
 6897W        W73680  15.564   1.491   2.862
 6898W        W73681   4.820   5.767   2.770
 6899W        W73682  19.302   6.442   2.848
 6900W        W73683  43.430  34.097   4.620
 6901W        W73684  19.095  29.495  14.247
 6902W        W73685  41.938  40.839  11.076
 6903W        W73686  32.966  36.356   2.872
 6904W        W73687   7.251  41.325  12.788
 6905W        W73688   9.629   6.454   2.913
 6906W        W73689  39.968  11.741   2.587
 6907W        W73690  27.237  29.148   2.756
 6908W        W73691  11.848  39.299  12.603
 6909W        W73692  18.922  17.552  12.189
 6910W        W73693   3.299  26.865   3.196
 6911W        W73694  35.891  30.113  10.650
 6912W        W73695  42.839  36.395  13.331
 6913W        W73696   4.198  37.586  14.785
 6914W        W73697   2.197  21.941  11.118
 6915W        W73698   3.670  32.670  13.043
 6916W        W73699  14.663  26.994   2.832
 6917W        W73700  42.941  34.882   2.210
 6918W        W73701   5.799  17.580  14.797
 6919W        W73702  24.645  39.448   4.517
 6920W        W73703   4.457  12.673   4.139
 6921W        W73704   4.866  38.300   0.262
 6922W        W73705  13.281  21.201  12.189
 6923W        W73706  19.143  34.703  14.061
 6924W        W73707   3.920   3.329  12.973
 6925W        W73708  12.192  27.414  11.111
 6926W        W73709   8.709  41.322  12.075
 6927W        W73710  34.127  29.155  13.597
 6928W        W73711   4.436  30.472  11.070
 6929W        W73712  19.278  43.938  14.397
 6930W        W73713   6.404  17.851   3.394
 6931W        W73714  14.291  44.180  14.287
 6932W        W73715  12.560  24.661   3.302
 6933W        W73716  33.452  11.314   1.948
 6934W        W73717  17.235  43.387   2.765
 6935W        W73718  24.787   9.794   2.798
 6936W        W73719   0.444  35.547   1.686
 6937W        W73720  28.575  17.604  12.380
 6938W        W73721  40.478  36.659  12.981
 6939W        W73722  34.323  18.196   0.106
 6940W        W73723  44.017  27.559  12.536
 6941W        W73724   0.531  31.517  11.521
 6942W        W73725   1.788  44.577  10.965
 6943W        W73726  39.819  13.917   3.745
 6944W        W73727  38.101  23.456  12.632
 6945W        W73728  37.464   9.728   4.516
 6946W        W73729   2.585  17.867  13.015
 6947W        W73730  23.487  15.821   2.331
 6948W        W73731   4.157  17.144   4.812
 6949W        W73732   7.299  16.630  11.651
 6950W        W73733  10.472  35.632  11.875
 6951W        W73734   2.890  40.521  14.210
 6952W        W73735  42.683  12.112  13.455
 6953W        W73736  26.227  14.668   2.685
 6954W        W73737  38.163  10.025  12.454
 6955W        W73738  34.765  44.802   2.310
 6956W        W73739   5.220  41.851   0.792
 6957W        W73740  44.741  18.148   2.253
 6958W        W73741  25.459  28.159   3.397
 6959W        W73742  31.015  17.103  12.604
 6960W        W73743  33.611   8.435   2.661
 6961W        W73744  10.181  12.619   1.926
 6962W        W73745  39.116  44.871  13.000
 6963W        W73746  37.841   0.679  13.472
 6964W        W73747  16.694  42.135  14.789
 6965W        W73748  22.252  25.247  14.116
 6966W        W73749   8.464   3.363   2.863
 6967W        W73750  30.120  31.451   4.272
 6968W        W73751  10.854  11.021   3.246
 6969W        W73752  39.874  19.649  13.632
 6970W        W73753  27.709   2.875  14.529
 6971W        W73754   3.282  21.171   0.813
 6972W        W73755   9.151   2.695  13.794
 6973W        W73756  12.799   9.434  10.748
 6974W        W73757  23.741  16.237   1.249
 6975W        W73758  22.580  14.569   0.723
 6976W        W73759   5.310  12.522   1.222
 6977W        W73760  28.808  15.866   1.681
 6978W        W73761  18.675  33.912   0.541
 6979W        W73762  13.682  25.977   0.138
 6980W        W73763  44.065   4.750  11.036
 6981W        W73764  12.842   7.736   1.859
 6982W        W73765  34.287  43.362  11.065
 6983W        W73766  27.093  35.887  11.142
 6984W        W73767   6.880  27.564  13.736
 6985W        W73768   2.012  11.691  13.474
 6986W        W73769  44.630  13.302   0.746
 6987W        W73770   4.235  39.546  12.432
 6988W        W73771  25.616  19.470   4.827
 6989W        W73772   5.405  33.387   1.611
 6990W        W73773  19.067  33.532  14.531
 6991W        W73774  26.563  18.363  12.923
 6992W        W73775  13.158  21.478   3.148
 6993W        W73776  24.133   4.821  12.000
 6994W        W73777  22.106  15.412  11.542
 6995W        W73778   3.980  17.511  14.459
 6996W        W73779  38.397  28.248  12.505
 6997W        W73780  26.932  20.486  12.559
 6998W        W73781  32.432   3.254   3.664
 6999W        W73782  20.162   6.163  13.477
 7000W        W73783  13.941   5.809   2.351
 7001W        W73784   1.811  42.308  11.580
 7002W        W73785  44.248   2.131  11.499
 7003W        W73786  38.844   5.914   2.891
 7004W        W73787  13.390  25.180  11.134
 7005W        W73788  32.912   7.937   3.155
 7006W        W73789  34.117  32.360   4.156
 7007W        W73790   8.306  36.143   4.119
 7008W        W73791   2.858  29.194  13.549
 7009W        W73792   8.843  11.704   0.025
 7010W        W73793  31.239   5.322   1.940
 7011W        W73794   0.809  28.174  11.237
 7012W        W73795  18.249  28.395  14.793
 7013W        W73796   8.174  38.080   1.657
 7014W        W73797   0.348  16.352  12.163
 7015W        W73798   2.295  17.476  14.922
 7016W        W73799  11.702  42.973  10.418
 7017W        W73800  20.184  23.441  14.410
 7018W        W73801  29.610   5.352   3.337
 7019W        W73802  44.254  13.184  13.366
 7020W        W73803  12.802  29.660  14.934
 7021W        W73804  41.496  23.090   0.917
 7022W        W73805  33.374  18.596  13.949
 7023W        W73806  32.340  34.624  13.832
 7024W        W73807  19.661   4.629  11.384
 7025W        W73808  24.508  17.103   2.180
 7026W        W73809   7.977  33.192  12.090
 7027W        W73810  10.359   6.793  11.227
 7028W        W73811   2.750  10.214   0.761
 7029W        W73812  31.379  35.894  10.452
 7030W        W73813  34.567  27.050   0.882
 7031W        W73814  41.199  27.613  14.034
 7032W        W73815  16.268  24.106   0.400
 7033W        W73816  10.292  14.258   3.387
 7034W        W73817  28.662  31.147  12.991
 7035W        W73818  23.247   6.963   4.982
 7036W        W73819  32.396  10.761  12.868
 7037W        W73820  24.182  34.102   3.769
 7038W        W73821   3.299  43.308  13.406
 7039W        W73822  14.025  17.102   4.530
 7040W        W73823   0.530  12.789  11.959
 7041W        W73824  16.608  19.656   2.829
 7042W        W73825   9.289  22.207   2.099
 7043W        W73826   9.348  44.207   0.343
 7044W        W73827  20.370  18.788   0.278
 7045W        W73828  31.920  13.198  10.607
 7046W        W73829  37.298  21.768   2.312
 7047W        W73830  26.984   8.130   2.935
 7048W        W73831   5.277  33.970   2.819
 7049W        W73832  23.444  43.031  11.540
 7050W        W73833  10.351   2.383  14.897
 7051W        W73834   9.971  26.446   4.795
 7052W        W73835   2.378  37.033  12.718
 7053W        W73836  11.157  22.963   4.501
 7054W        W73837  30.022   1.457  10.710
 7055W        W73838   7.978   0.806  13.539
 7056W        W73839  15.858   9.167  12.443
 7057W        W73840  26.150   0.514  12.530
 7058W        W73841  10.352   6.948  10.332
 7059W        W73842  12.051  34.516  13.376
 7060W        W73843  11.671   4.782  14.128
 7061W        W73844  14.257  21.406   4.821
 7062W        W73845   7.193  36.366   4.960
 7063W        W73846  22.828  16.578   3.693
 7064W        W73847   9.212  39.916  13.365
 7065W        W73848  27.165  20.167   1.335
 7066W        W73849   5.201   9.911   1.306
 7067W        W73850  44.303  18.818  14.431
 7068W        W73851  26.627   9.076  14.935
 7069W        W73852   9.413  36.726   3.207
 7070W        W73853  24.467   3.493   3.254
 7071W        W73854  31.559   0.535  13.823
 7072W        W73855  39.358  42.988  13.701
 7073W        W73856  28.464  20.074   4.864
 7074W        W73857  17.000  36.291  14.236
 7075W        W73858   5.778  30.952  13.786
 7076W        W73859  15.559   2.141   4.143
 7077W        W73860  19.160  28.744  10.518
 7078W        W73861  39.582  32.475   3.758
 7079W        W73862  28.089  44.760   0.339
 7080W        W73863  43.012  28.597  12.913
 7081W        W73864  15.479   3.425   1.287
 7082W        W73865  38.603  16.707  12.869
 7083W        W73866  36.388  27.848   2.746
 7084W        W73867   6.292  11.664  11.571
 7085W        W73868  12.340   0.315  12.214
 7086W        W73869  34.507  24.211  11.463
 7087W        W73870  13.089  16.039  12.208
 7088W        W73871   5.197  28.097  14.953
 7089W        W73872  23.776   8.256   0.649
 7090W        W73873  33.627  24.089   4.663
 7091W        W73874  27.995  12.996  12.859
 7092W        W73875   3.374  42.830   2.945
 7093W        W73876  44.909  42.142   2.022
 7094W        W73877  16.757  34.445   0.957
 7095W        W73878  13.998   3.207  13.858
 7096W        W73879   5.689  22.521  14.420
 7097W        W73880  35.559  37.622   4.502
 7098W        W73881  38.108  12.320  11.193
 7099W        W73882   2.632  44.782   0.324
 7100W        W73883   9.130  12.256   1.388
 7101W        W73884  31.193  30.076  13.331
 7102W        W73885   0.673  24.834  11.754
 7103W        W73886  27.436  14.737   4.617
 7104W        W73887  18.373  22.163  11.952
 7105W        W73888  13.525   5.867  14.581
 7106W        W73889  33.192  17.220   4.072
 7107W        W73890   4.706   5.286  10.641
 7108W        W73891  42.024   9.332  11.687
 7109W        W73892  23.563   4.849   2.859
 7110W        W73893   9.224  25.107  12.033
 7111W        W73894  30.951   5.931  12.938
 7112W        W73895   6.802  22.684  10.856
 7113W        W73896  35.893  40.350  13.887
 7114W        W73897  15.887   8.843  12.836
 7115W        W73898  15.073  24.918  13.347
 7116W        W73899   0.684  10.697   1.657
 7117W        W73900   2.196  17.234   3.754
 7118W        W73901  13.816  12.661  14.501
 7119W        W73902  24.216  35.991   1.461
 7120W        W73903  24.437  20.691   1.368
 7121W        W73904  33.020   5.460  14.403
 7122W        W73905  13.252  38.152  10.674
 7123W        W73906  31.473  27.712  14.404
 7124W        W73907   5.264  30.605  10.735
 7125W        W73908   3.823  38.576   4.643
 7126W        W73909  40.595   2.003  10.833
 7127W        W73910  17.769   8.834  11.383
 7128W        W73911  16.209  32.629   3.589
 7129W        W73912  33.057   2.433   3.792
 7130W        W73913  42.884  42.679  10.613
 7131W        W73914  37.458  30.985   3.572
 7132W        W73915  21.506  31.034  10.811
 7133W        W73916  18.457  22.103  13.926
 7134W        W73917   0.742  41.157   1.866
 7135W        W73918   3.759  23.773  13.387
 7136W        W73919   5.212  24.832  13.921
 7137W        W73920  25.496  22.217  13.565
 7138W        W73921  33.232   4.305   2.820
 7139W        W73922  18.059   0.738   4.731
 7140W        W73923  10.665   0.245   2.749
 7141W        W73924  34.647  20.696   3.723
 7142W        W73925  34.685  16.281   3.071
 7143W        W73926  11.983  32.195   0.407
 7144W        W73927  15.880  24.929  13.036
 7145W        W73928   3.881  38.277  13.557
 7146W        W73929  42.247  23.566  13.507
 7147W        W73930  10.877  28.618   2.233
 7148W        W73931  27.744  30.114  14.962
 7149W        W73932  22.294   9.446   1.843
 7150W        W73933  41.531   6.667  11.058
 7151W        W73934  17.747  23.960   4.180
 7152W        W73935  23.656  32.823  10.665
 7153W        W73936  21.536  12.179  12.634
 7154W        W73937  16.348   1.351   4.137
 7155W        W73938  27.501  18.367   2.300
 7156W        W73939  43.349  40.728  13.830
 7157W        W73940  23.072  18.335  13.831
 7158W        W73941  34.630   4.386  14.763
 7159W        W73942  14.109  35.951   1.289
 7160W        W73943   6.193  27.808   2.267
 7161W        W73944  39.038   0.147   5.057
 7162W        W73945  24.247  36.432   2.692
 7163W        W73946  42.249   9.226  14.288
 7164W        W73947  43.030   5.417  12.751
 7165W        W73948   0.550  43.784   3.051
 7166W        W73949  34.408  16.738   1.932
 7167W        W73950  21.661  29.724  14.699
 7168W        W73951  23.168  18.298   1.673
 7169W        W73952  39.636   2.041  11.528
 7170W        W73953  13.569  22.966   3.739
 7171W        W73954   9.956  39.834  11.450
 7172W        W73955   4.438  24.073   3.680
 7173W        W73956  38.946  36.921  13.887
 7174W        W73957  39.429  18.266   1.858
 7175W        W73958  26.039  33.600  12.576
 7176W        W73959   7.919  17.222  11.197
 7177W        W73960  14.095  32.868  13.280
 7178W        W73961   0.785  33.983   0.452
 7179W        W73962  13.633  32.803   2.788
 7180W        W73963  15.343  39.308  11.461
 7181W        W73964  20.716  20.161  12.538
 7182W        W73965  41.261  16.634  11.987
 7183W        W73966  13.282  13.817   1.739
 7184W        W73967  41.201  13.928  12.936
 7185W        W73968  44.433  44.905   2.156
 7186W        W73969  26.669  37.860  13.612
 7187W        W73970  25.968   7.805  12.067
 7188W        W73971   3.299   1.820  14.650
 7189W        W73972  10.243  30.130   3.685
 7190W        W73973  42.429  24.987   3.556
 7191W        W73974  23.182  10.401   3.252
 7192W        W73975  43.254  44.141  13.458
 7193W        W73976   1.733  28.650  11.197
 7194W        W73977  11.360  31.852   4.188
 7195W        W73978  41.855  25.630  12.373
 7196W        W73979   9.831  38.280  12.927
 7197W        W73980   2.925  21.838  12.589
 7198W        W73981  25.703   8.668  14.279
 7199W        W73982  21.419   1.932   1.806
 7200W        W73983  33.156  33.711  12.958
 7201W        W73984  31.964  33.427  14.336
 7202W        W73985  40.922  14.348  13.091
 7203W        W73986  31.440  33.961  14.620
 7204W        W73987  37.440  34.506   2.670
 7205W        W73988  23.120  35.036  12.498
 7206W        W73989   5.657   1.408   2.316
 7207W        W73990  29.729   0.848   0.786
 7208W        W73991  29.434  42.037   4.796
 7209W        W73992   4.762   1.298  13.057
 7210W        W73993  10.791   1.181   2.356
 7211W        W73994  18.378  14.689   1.688
 7212W        W73995  20.470   2.761  13.580
 7213W        W73996  39.538   5.855  11.537
 7214W        W73997  16.341  37.935  10.632
 7215W        W73998   5.670  27.915  13.484
 7216W        W73999  22.202  37.326  13.398
 7217W        W74000   6.139  10.762  14.540
 7218W        W74001  40.601  11.917   0.047
 7219W        W74002  34.999  17.632  12.893
 7220W        W74003  11.088  32.961  12.675
 7221W        W74004  25.515  19.825   0.797
 7222W        W74005  30.581  27.502   2.431
 7223W        W74006  31.954  12.765   4.718
 7224W        W74007  11.169  29.874  11.533
 7225W        W74008  43.104   5.759  13.971
 7226W        W74009  30.928  31.929   2.610
 7227W        W74010   0.271   1.022  11.189
 7228W        W74011  24.736  27.478   4.126
 7229W        W74012  37.949   9.213   0.891
 7230W        W74013  33.294   7.937   0.181
 7231W        W74014  28.145  29.676  11.413
 7232W        W74015   3.877  42.964   2.236
 7233W        W74016  42.403  20.425  14.429
 7234W        W74017  37.245  34.527  13.073
 7235W        W74018  19.209  11.312   3.442
 7236W        W74019  34.394  40.982   4.194
 7237W        W74020  19.042  25.096   2.810
 7238W        W74021  37.556  36.064   3.135
 7239W        W74022   8.656  25.569  10.315
 7240W        W74023  38.838  30.132  11.986
 7241W        W74024  38.887  12.851  14.299
 7242W        W74025  33.963  32.876   3.280
 7243W        W74026  33.677  31.938  13.065
 7244W        W74027   1.851  36.418   3.659
 7245W        W74028   5.185   1.789   0.728
 7246W        W74029   5.758  33.013   2.110
 7247W        W74030  11.294   7.401  12.052
 7248W        W74031  31.367   2.800  13.852
 7249W        W74032   0.707  37.068   1.810
 7250W        W74033  17.175  23.631   4.938
 7251W        W74034   3.931  40.736   1.766
 7252W        W74035  15.865   9.803  12.875
 7253W        W74036  28.626  16.694   2.152
 7254W        W74037   6.621  10.642   4.074
 7255W        W74038   0.718   8.000  14.411
 7256W        W74039   4.053  17.311   1.914
 7257W        W74040  36.293   7.416  12.602
 7258W        W74041  42.066  23.587   0.380
 7259W        W74042  26.489   7.157  13.074
 7260W        W74043   3.413   2.039  11.647
 7261W        W74044  44.913  31.861  12.712
 7262W        W74045  30.684  44.533  13.765
 7263W        W74046   4.288  32.023   4.895
 7264W        W74047  18.536  18.128   3.059
 7265W        W74048  23.707  14.119  13.615
 7266W        W74049  14.593  24.015   2.757
 7267W        W74050  31.455  28.923   2.162
 7268W        W74051   9.452   9.317  13.383
 7269W        W74052  32.910  39.581  14.851
 7270W        W74053  38.157  28.631   1.901
 7271W        W74054   0.242  29.846   0.344
 7272W        W74055   6.677  24.441   0.334
 7273W        W74056  30.476  41.323  13.316
 7274W        W74057  24.120  18.099   0.729
 7275W        W74058  28.158  15.191   4.702
 7276W        W74059  17.801  33.128   4.070
 7277W        W74060  19.014  39.883  11.564
 7278W        W74061  22.340   7.279   0.391
 7279W        W74062  25.930  23.114   4.693
 7280W        W74063  17.254  33.883   2.318
 7281W        W74064  38.957  32.409  13.918
 7282W        W74065   0.402   7.976   1.224
 7283W        W74066  10.484  38.545   1.495
 7284W        W74067  16.629  23.806  11.861
 7285W        W74068  10.180  21.179  10.472
 7286W        W74069  40.585   7.816   4.197
 7287W        W74070  25.720  20.277  14.311
 7288W        W74071   3.554  26.490   2.046
 7289W        W74072   2.235  15.102  13.445
 7290W        W74073  26.882  36.339   0.252
 7291W        W74074   3.630  20.198   1.226
 7292W        W74075  21.809  29.362   1.782
 7293W        W74076  23.988  39.883  12.093
 7294W        W74077  26.662  15.729   3.142
 7295W        W74078  18.776  10.104  10.424
 7296W        W74079   7.890  20.320  11.154
 7297W        W74080  36.913  24.512   0.799
 7298W        W74081   1.588  31.999  14.410
 7299W        W74082  44.431  28.158  13.192
 7300W        W74083  18.367  36.005  11.128
 7301W        W74084  14.214  24.485   0.855
 7302W        W74085   2.504  37.804   2.165
 7303W        W74086  24.899  39.742   3.968
 7304W        W74087  41.615  11.984   5.011
 7305W        W74088  27.618  24.831  12.283
 7306W        W74089  12.175  36.520   2.161
 7307W        W74090  26.192  37.775   2.856
 7308W        W74091  40.364  14.232  12.629
 7309W        W74092   4.631  36.449   1.038
 7310W        W74093  40.419   0.369   1.665
 7311W        W74094  29.102  30.352  14.012
 7312W        W74095   6.257   2.150   1.205
 7313W        W74096  38.899  17.763  12.954
 7314W        W74097  43.061   5.292  10.357
 7315W        W74098  26.196  33.439   1.204
 7316W        W74099  22.706  10.871  11.483
 7317W        W74100  11.958   5.042  12.945
 7318W        W74101   3.826  28.528   0.892
 7319W        W74102  21.626  32.447   2.351
 7320W        W74103   1.260   8.396  12.425
 7321W        W74104  34.429  15.605  11.547
 7322W        W74105   3.207  15.622   1.942
 7323W        W74106  39.403  31.071   3.653
 7324W        W74107  10.821   0.851  11.425
 7325W        W74108  13.696  15.348  10.737
 7326W        W74109  18.497  37.979  12.525
 7327W        W74110  32.529  38.455   0.517
 7328W        W74111  10.428  13.784  11.212
 7329W        W74112  36.595  13.976   4.588
 7330W        W74113  14.013  29.155   0.408
 7331W        W74114  41.146  41.704   3.396
 7332W        W74115  32.362   0.250   2.372
 7333W        W74116   1.265  35.598  14.368
 7334W        W74117   9.536  14.677   3.745
 7335W        W74118  34.633  44.381   2.577
 7336W        W74119  25.045  18.517  12.782
 7337W        W74120  26.270   0.912  13.385
 7338W        W74121  34.812   6.220  12.530
 7339W        W74122   4.856   4.318  14.920
 7340W        W74123  10.612  33.946  14.329
 7341W        W74124  16.219  10.823  12.116
 7342W        W74125   2.208  36.352   4.236
 7343W        W74126   6.715  25.708   3.232
 7344W        W74127  29.453  21.080   4.858
 7345W        W74128  12.868   2.207  12.014
 7346W        W74129   0.359   5.958   1.824
 7347W        W74130  43.752   2.164   1.437
 7348W        W74131  42.243  12.795  11.212
 7349W        W74132   9.928  11.806   1.370
 7350W        W74133   3.898  11.724  14.339
 7351W        W74134  13.306  16.011   2.648
 7352W        W74135   5.284  32.086  10.741
 7353W        W74136  26.098  31.658  12.379
 7354W        W74137  22.177  34.443  11.319
 7355W        W74138  33.289   1.029  13.131
 7356W        W74139  21.098  19.954  12.870
 7357W        W74140  11.709  15.299  12.603
 7358W        W74141  23.381  25.966  12.413
 7359W        W74142  20.312  21.124   3.603
 7360W        W74143  38.403   5.837   1.706
 7361W        W74144  39.355  44.818  12.541
 7362W        W74145  36.859  27.666   0.791
 7363W        W74146  36.355   9.226   0.731
 7364W        W74147  27.097  41.795   3.217
 7365W        W74148  11.110  26.729  14.943
 7366W        W74149  15.111  10.677   1.739
 7367W        W74150  14.547  25.976   3.704
 7368W        W74151   6.405  39.327  13.886
 7369W        W74152  28.891   6.238  14.805
 7370W        W74153   9.203  22.443  14.317
 7371W        W74154  34.496  25.064   3.617
 7372W        W74155   9.136   5.737   4.601
 7373W        W74156  13.298  29.855  10.894
 7374W        W74157   5.534  36.891  13.477
 7375W        W74158   8.375  28.217  12.053
 7376W        W74159  29.494  38.946   3.155
 7377W        W74160  15.717  20.682  12.617
 7378W        W74161  26.917  11.361  14.308
 7379W        W74162  41.894  15.895  13.945
 7380W        W74163   3.737  22.601   0.417
 7381W        W74164  44.837   1.460  13.644
 7382W        W74165  43.519   3.245  13.488
 7383W        W74166  30.300   8.895   4.988
 7384W        W74167  23.643  39.582   1.466
 7385W        W74168  16.336  29.489  11.073
 7386W        W74169   0.104  30.610   2.716
 7387W        W74170  23.553  19.044   4.099
 7388W        W74171   3.171  40.013   2.928
 7389W        W74172  32.544  43.760   3.711
 7390W        W74173  15.648  31.975   1.900
 7391W        W74174  28.211   7.308   2.255
 7392W        W74175  41.108  29.942   3.635
 7393W        W74176  28.938  14.209   1.278
 7394W        W74177  29.302   2.921  10.584
 7395W        W74178  18.536  20.557  12.392
 7396W        W74179   7.633  42.838   0.965
 7397W        W74180  35.158  44.187   4.308
 7398W        W74181   8.339   4.321  10.920
 7399W        W74182  42.480  16.320   3.649
 7400W        W74183  32.256   8.049   0.276
 7401W        W74184  10.851  13.992   3.200
 7402W        W74185  38.163  40.103  12.243
 7403W        W74186  34.509   1.508   0.653
 7404W        W74187  13.060  11.537   5.081
 7405W        W74188  29.850  16.589   4.758
 7406W        W74189  12.125   2.891   3.306
 7407W        W74190   8.185   5.940   0.747
 7408W        W74191  27.904  37.823  14.797
 7409W        W74192   9.296  23.329   3.289
 7410W        W74193   2.926   0.513  13.547
 7411W        W74194  23.269  19.140  11.043
 7412W        W74195  15.770  34.983  10.725
 7413W        W74196   1.407   2.722  14.823
 7414W        W74197   6.489   2.864   0.905
 7415W        W74198  18.800  42.474  13.744
 7416W        W74199  36.239   0.042  13.965
 7417W        W74200  21.530   0.262   3.685
 7418W        W74201  41.450  10.193   3.196
 7419W        W74202  16.559  43.413   0.551
 7420W        W74203  21.335  36.108   1.089
 7421W        W74204  26.769  44.370   0.219
 7422W        W74205  15.633  28.840  12.046
 7423W        W74206   5.971  28.333   2.369
 7424W        W74207  44.499  43.952   0.687
 7425W        W74208  29.032  27.976   4.192
 7426W        W74209  14.133  40.321   0.738
 7427W        W74210  17.007  16.212  13.091
 7428W        W74211  10.065  13.795  12.595
 7429W        W74212  34.240  34.025  12.958
 7430W        W74213  33.582  21.549   1.553
 7431W        W74214  35.579  23.685  14.858
 7432W        W74215  34.944   4.982   2.632
 7433W        W74216  42.422  18.655   3.161
 7434W        W74217  37.463  36.219   1.249
 7435W        W74218  18.199  20.179  12.396
 7436W        W74219  29.649  11.958   2.462
 7437W        W74220  20.694  39.133  14.285
 7438W        W74221   7.741  37.653   5.362
 7439W        W74222   7.188  19.487  12.506
 7440W        W74223   1.794  41.806   4.269
 7441W        W74224   1.008  43.457   2.306
 7442W        W74225  41.817  44.247  14.946
 7443W        W74226  11.372  40.437   3.063
 7444W        W74227  31.775   9.242  10.715
 7445W        W74228  24.632  11.172   3.203
 7446W        W74229  41.084   6.151   4.893
 7447W        W74230  43.756  42.870   2.668
 7448W        W74231   9.054  25.637  13.872
 7449W        W74232  33.425   4.359   3.288
 7450W        W74233  15.238  35.024   2.434
 7451W        W74234  44.252  10.178  14.666
 7452W        W74235   5.429  42.282   4.320
 7453W        W74236  20.692  44.708  10.916
 7454W        W74237  14.841  44.299  10.846
 7455W        W74238  40.622  16.221   3.699
 7456W        W74239  16.703   5.719  14.567
 7457W        W74240   1.673  18.174   3.817
 7458W        W74241  28.422  37.567   3.203
 7459W        W74242  14.411  18.406  13.267
 7460W        W74243   2.655  24.059  11.589
 7461W        W74244  22.253  25.607   3.531
 7462W        W74245   8.451  38.447  11.313
 7463W        W74246  33.214  37.562   0.930
 7464W        W74247  32.458   9.628   2.408
 7465W        W74248  26.932  31.122   1.086
 7466W        W74249   7.668  15.555  12.514
 7467W        W74250  33.113  23.556   2.783
 7468W        W74251  14.183  40.521  14.273
 7469W        W74252   2.517   9.752   0.887
 7470W        W74253  32.136  35.815   1.654
 7471W        W74254   5.022  26.217   1.305
 7472W        W74255   4.220  13.744  11.595
 7473W        W74256  28.115  23.577  12.156
 7474W        W74257   9.184   9.825   0.624
 7475W        W74258  29.582  17.722   2.676
 7476W        W74259   6.981  34.849  12.124
 7477W        W74260  26.059   6.044  11.077
 7478W        W74261  16.591  38.090   0.489
 7479W        W74262  38.042  26.637  11.926
 7480W        W74263  17.116  24.702  10.254
 7481W        W74264  33.351  21.104  14.580
 7482W        W74265  15.778   5.770   3.430
 7483W        W74266   1.595  15.368   3.679
 7484W        W74267  44.956  41.894  11.730
 7485W        W74268  12.744  42.875  14.547
 7486W        W74269  15.625  15.596  12.837
 7487W        W74270  21.205  23.115   3.423
 7488W        W74271   5.670  19.262   2.203
 7489W        W74272  14.666  33.658  14.422
 7490W        W74273  33.530  13.890  13.866
 7491W        W74274  44.610  35.453   3.832
 7492W        W74275  14.017  12.899  10.278
 7493W        W74276  34.885  14.564   4.035
 7494W        W74277  35.024  22.133  12.852
 7495W        W74278  13.742   2.707   2.282
 7496W        W74279  11.787  35.099  12.043
 7497W        W74280  39.584   4.883   1.336
 7498W        W74281   6.366  40.580  14.277
 7499W        W74282  25.298  21.310  10.403
 7500W        W74283   0.282  31.493  14.313
 7501W        W74284   7.314  39.580   2.762
 7502W        W74285  20.013  28.502  13.947
 7503W        W74286   1.335  27.358   2.636
 7504W        W74287   5.902   2.501   3.306
 7505W        W74288  12.134  10.672   2.267
 7506W        W74289  42.077  24.986  12.956
 7507W        W74290  12.606  12.631  13.970
 7508W        W74291  20.520  19.667   4.325
 7509W        W74292  44.771   2.191  11.585
 7510W        W74293  14.313   9.068  10.780
 7511W        W74294  32.881  23.956  14.358
 7512W        W74295  18.172  31.931   2.370
 7513W        W74296  26.971  31.129  12.391
 7514W        W74297  17.170   8.957   3.640
 7515W        W74298  23.974  11.776  12.564
 7516W        W74299  40.060  28.185  12.469
 7517W        W74300  22.410  42.785  12.525
 7518W        W74301  41.865  21.775  12.459
 7519W        W74302  30.589  14.094   1.856
 7520W        W74303  20.339   9.378   2.661
 7521W        W74304  36.458  32.830   1.308
 7522W        W74305  17.039  35.439  10.606
 7523W        W74306  31.660   9.157   4.022
 7524W        W74307  13.719  27.608   3.317
 7525W        W74308  33.197  35.164  12.410
 7526W        W74309  22.496  21.373  12.004
 7527W        W74310  16.004   3.341  12.585
 7528W        W74311  17.758  24.685  11.908
 7529W        W74312   1.122  11.078  11.744
 7530W        W74313   7.279  31.168   1.654
 7531W        W74314   5.337  19.674   0.542
 7532W        W74315  40.604   8.437  14.759
 7533W        W74316  37.630  14.431   1.027
 7534W        W74317  34.158  43.132  13.198
 7535W        W74318   4.321  15.850   3.457
 7536W        W74319  20.729  22.704  10.580
 7537W        W74320  16.687  22.736  10.597
 7538W        W74321   2.950  25.634   0.861
 7539W        W74322  18.991  22.170   2.170
 7540W        W74323  26.230  11.898   5.081
 7541W        W74324   7.464  34.414  12.933
 7542W        W74325   8.890  35.369  12.978
 7543W        W74326  29.506  43.188   3.698
 7544W        W74327  27.706  10.988   0.862
 7545W        W74328  44.349  17.093  14.862
 7546W        W74329  28.344  24.960  11.128
 7547W        W74330   4.719  37.783  13.937
 7548W        W74331  32.631  42.870   4.762
 7549W        W74332  27.661  15.548  14.229
 7550W        W74333  34.260  26.115  13.982
 7551W        W74334  44.051  34.948   0.442
 7552W        W74335  14.256   7.930  14.033
 7553W        W74336   2.101  34.851   3.716
 7554W        W74337  15.436  23.336   0.760
 7555W        W74338  12.059  31.005  13.103
 7556W        W74339  24.430  43.881  14.835
 7557W        W74340   6.248  23.229  14.293
 7558W        W74341  17.760   8.882   4.512
 7559W        W74342   3.732  29.112  13.638
 7560W        W74343  24.718  39.838   0.639
 7561W        W74344  31.298  29.652  12.681
 7562W        W74345  13.627   2.420  13.821
 7563W        W74346  27.316  12.897  12.994
 7564W        W74347  28.986  18.479  13.835
 7565W        W74348  29.058  13.624  10.437
 7566W        W74349  11.116  22.005   2.814
 7567W        W74350  36.645   9.298  13.950
 7568W        W74351  27.093  33.565  13.546
 7569W        W74352  12.847  36.521  12.774
 7570W        W74353  35.847   4.156   0.380
 7571W        W74354   2.965  12.307  12.848
 7572W        W74355  39.408  35.284  11.558
 7573W        W74356  21.523   6.821   3.228
 7574W        W74357  16.339  12.466  10.750
 7575W        W74358  12.607  38.551  13.490
 7576W        W74359  35.952  35.082   2.778
 7577W        W74360  37.549   2.539  12.071
 7578W        W74361   9.306   9.631   1.145
 7579W        W74362  40.334  33.330  14.332
 7580W        W74363  34.265  28.476   2.199
 7581W        W74364  37.133  33.409   0.805
 7582W        W74365  10.234  31.894   2.656
 7583W        W74366  37.996   3.439   3.125
 7584W        W74367  30.702  24.060   4.818
 7585W        W74368   8.213  18.142  14.700
 7586W        W74369  34.379   5.476   1.061
 7587W        W74370  21.920   8.601  13.089
 7588W        W74371  22.242  12.632  10.281
 7589W        W74372  35.473  24.662   4.381
 7590W        W74373  15.746   1.720  14.391
 7591W        W74374  33.099  30.635   2.327
 7592W        W74375  43.986  16.013   0.832
 7593W        W74376   2.169  26.501   3.763
 7594W        W74377  34.071  33.353  11.713
 7595W        W74378  38.878  42.458   0.760
 7596W        W74379   5.966  16.665  11.651
 7597W        W74380  25.111  12.806  11.620
 7598W        W74381  27.940  35.786  11.633
 7599W        W74382   7.412  10.623   0.728
 7600W        W74383  42.695  26.124  11.167
 7601W        W74384  34.310  11.367  14.678
 7602W        W74385  13.300  39.766  10.995
 7603W        W74386  12.752   6.348  14.606
 7604W        W74387  12.416  11.369   4.035
 7605W        W74388  32.508  30.961  14.315
 7606W        W74389   5.268   0.514   1.407
 7607W        W74390  12.747  14.517   0.796
 7608W        W74391  11.664   9.591  13.462
 7609W        W74392  10.918  34.068   3.646
 7610W        W74393  35.436   3.924   4.566
 7611W        W74394  28.489  37.919   0.501
 7612W        W74395  11.717  36.456  13.335
 7613W        W74396   8.144  34.359  11.647
 7614W        W74397  21.547  14.616   4.950
 7615W        W74398  42.304  28.492   3.609
 7616W        W74399  23.730  36.488   3.784
 7617W        W74400  39.090  40.914  12.871
 7618W        W74401  22.522  14.559  11.935
 7619W        W74402  22.771  21.462   2.726
 7620W        W74403  39.530   8.791   4.174
 7621W        W74404  19.042   6.851   4.574
 7622W        W74405  22.453  40.023   2.237
 7623W        W74406  40.650  13.734  12.608
 7624W        W74407  33.708  32.623   5.022
 7625W        W74408  27.057  40.380   0.637
 7626W        W74409  41.779  23.790   4.069
 7627W        W74410  27.042  30.200   2.959
 7628W        W74411  40.131  16.388  10.720
 7629W        W74412  29.154  17.587   2.385
 7630W        W74413  44.965   2.808  14.358
 7631W        W74414  18.987  19.174  13.338
 7632W        W74415  39.815  42.815  13.342
 7633W        W74416  15.184  32.263  10.689
 7634W        W74417  25.070  15.596  14.406
 7635W        W74418   0.760  33.074   0.445
 7636W        W74419  37.006  17.127   0.016
 7637W        W74420  42.007  37.544  10.479
 7638W        W74421  24.732   6.082   5.144
 7639W        W74422   0.663  41.501   1.398
 7640W        W74423  43.739  29.181   3.612
 7641W        W74424  19.474  16.315  11.822
 7642W        W74425  11.776  15.138  13.892
 7643W        W74426   8.394  20.458  11.215
 7644W        W74427  18.613  41.730  14.428
 7645W        W74428  43.858  26.013   4.512
 7646W        W74429  19.595  38.625   2.179
 7647W        W74430  44.429  11.035   4.097
 7648W        W74431  18.288  24.177  13.008
 7649W        W74432  22.064  10.205   3.368
 7650W        W74433  34.590  16.157   3.556
 7651W        W74434  10.270  17.408   2.615
 7652W        W74435  30.154  17.825   4.019
 7653W        W74436  33.912  34.944   4.365
 7654W        W74437   8.969   2.069   4.094
 7655W        W74438  22.744  41.398  14.842
 7656W        W74439  39.892  26.252   4.566
 7657W        W74440  19.221  43.399  14.376
 7658W        W74441  23.552   7.436   4.265
 7659W        W74442  39.080  33.578   0.726
 7660W        W74443  20.319  24.269   0.470
 7661W        W74444  16.163  19.097   1.637
 7662W        W74445   3.252  11.845   2.284
 7663W        W74446  44.260  28.709  14.979
 7664W        W74447  16.524  32.826  13.077
 7665W        W74448  43.334  11.038   2.688
 7666W        W74449  34.949  11.436   4.079
 7667W        W74450  35.766   6.535   0.830
 7668W        W74451  25.771  10.730  13.519
 7669W        W74452  23.479  15.559   1.883
 7670W        W74453  19.525  19.805   4.089
 7671W        W74454   4.419  14.301  14.054
 7672W        W74455   3.181  18.161   4.518
 7673W        W74456  18.111  10.309  10.764
 7674W        W74457  38.361  14.654  13.820
 7675W        W74458  32.870   3.983  11.150
 7676W        W74459  18.770  16.070   0.745
 7677W        W74460  28.036  34.467   0.253
 7678W        W74461  32.053  18.819  11.718
 7679W        W74462  44.504  19.284  13.847
 7680W        W74463   2.951  34.841   5.169
 7681W        W74464  18.774   3.175   2.620
 7682W        W74465  40.969   8.108   1.701
 7683W        W74466  40.909  29.100  14.032
 7684W        W74467  27.557  18.502  14.383
 7685W        W74468  18.675   7.820   2.117
 7686W        W74469  33.017  11.873   2.210
 7687W        W74470  22.123  25.533   2.035
 7688W        W74471  26.706  40.055   0.362
 7689W        W74472   7.846  37.085   3.458
 7690W        W74473  35.825  17.239  12.886
 7691W        W74474  15.094  20.088   0.204
 7692W        W74475   1.980   1.932   4.063
 7693W        W74476  10.233  30.219  10.732
 7694W        W74477   0.041  23.477   4.626
 7695W        W74478  32.553  13.158   4.705
 7696W        W74479  37.571  25.145  14.317
 7697W        W74480  25.429  12.938  12.891
 7698W        W74481  40.952  33.145   3.811
 7699W        W74482   3.634   1.440   0.396
 7700W        W74483  39.444  32.610   4.597
 7701W        W74484  17.215  41.570  13.836
 7702W        W74485   8.756  25.744   3.651
 7703W        W74486   6.589  12.686  14.902
 7704W        W74487  20.580  35.842   2.864
 7705W        W74488   9.375   2.889  13.359
 7706W        W74489  34.408  24.924  14.963
 7707W        W74490  37.585  38.478  14.015
 7708W        W74491   5.374   9.482  11.287
 7709W        W74492  36.146   3.869  13.590
 7710W        W74493  10.931  18.498   2.688
 7711W        W74494   4.209  14.640  11.543
 7712W        W74495  18.058  26.711  10.293
 7713W        W74496   3.615  10.397  11.244
 7714W        W74497  16.906   0.833   0.791
 7715W        W74498  40.266  33.658   3.661
 7716W        W74499  37.116  32.123  12.396
 7717W        W74500  26.710  14.540  13.442
 7718W        W74501  21.505  32.430  12.227
 7719W        W74502   2.381   2.151  11.539
 7720W        W74503  15.113  27.622  13.898
 7721W        W74504  27.711  41.528   1.292
 7722W        W74505  12.500  29.098   1.181
 7723W        W74506  13.495   8.216   2.280
 7724W        W74507  28.177  23.726   1.309
 7725W        W74508  32.998   3.047   1.287
 7726W        W74509  35.539  38.663  11.269
 7727W        W74510  16.308   8.058   0.219
 7728W        W74511  21.746  24.708   0.725
 7729W        W74512  42.948  42.427   3.840
 7730W        W74513  28.656  31.968  12.489
 7731W        W74514   4.645  38.090  11.177
 7732W        W74515  11.339  39.126  12.582
 7733W        W74516  18.960   9.579  11.956
 7734W        W74517  10.187  42.391  14.801
 7735W        W74518   3.503  43.547  12.889
 7736W        W74519   2.258  41.948   4.448
 7737W        W74520  26.790  19.939  14.959
 7738W        W74521   7.773   5.450   0.349
 7739W        W74522  27.660  39.659   4.163
 7740W        W74523  38.981  20.747  12.148
 7741W        W74524  37.064  40.011   3.669
 7742W        W74525  14.361  11.084  13.791
 7743W        W74526  43.854  21.211   4.124
 7744W        W74527  19.825  39.003  11.040
 7745W        W74528  22.803  33.442  14.510
 7746W        W74529  35.836  21.153   1.349
 7747W        W74530  42.303  42.608   2.740
 7748W        W74531  44.991  21.147   0.226
 7749W        W74532  39.466  21.770  14.071
 7750W        W74533   8.754  22.160   2.484
 7751W        W74534  30.260  28.459  13.114
 7752W        W74535   2.932  14.614  12.859
 7753W        W74536  26.074   3.932  13.450
 7754W        W74537  27.925  23.715   1.771
 7755W        W74538   8.648  28.170  11.567
 7756W        W74539  41.722  16.106   4.575
 7757W        W74540   9.439  11.390  12.613
 7758W        W74541  21.538  11.424   1.417
 7759W        W74542  29.552   4.891  10.703
 7760W        W74543  15.647  20.237  12.357
 7761W        W74544  39.667   1.366   4.541
 7762W        W74545  21.229  14.365  12.418
 7763W        W74546  39.627   8.339  14.985
 7764W        W74547   0.406  22.246   3.215
 7765W        W74548  14.223   7.392   1.348
 7766W        W74549  42.002  21.093   4.714
 7767W        W74550   3.198  42.960  11.671
 7768W        W74551  26.701   9.254   1.773
 7769W        W74552   2.493  30.147  11.669
 7770W        W74553  41.432  11.683   0.719
 7771W        W74554  44.467  41.619   4.030
 7772W        W74555   0.227  20.349   1.441
 7773W        W74556  31.234  24.648   0.512
 7774W        W74557  16.791   0.747  10.771
 7775W        W74558   4.274  35.298   3.744
 7776W        W74559  16.146  37.283  13.795
 7777W        W74560  22.695   2.447   4.043
 7778W        W74561  18.611   9.274  11.085
 7779W        W74562  25.041  34.254   4.843
 7780W        W74563  20.560  42.270   2.022
 7781W        W74564  14.259  25.453   2.016
 7782W        W74565  43.260  25.643   4.840
 7783W        W74566  36.542  10.240   1.209
 7784W        W74567  14.591  36.661   1.449
 7785W        W74568  41.432  38.389   1.939
 7786W        W74569  40.268   5.845   2.703
 7787W        W74570  32.924  38.050   3.749
 7788W        W74571  12.166  27.271  14.412
 7789W        W74572  11.601   1.148  12.466
 7790W        W74573  12.216  39.521  13.144
 7791W        W74574  37.297  16.548  13.502
 7792W        W74575  18.086  20.156  11.526
 7793W        W74576   4.416  31.755  12.463
 7794W        W74577  42.472   2.283  12.097
 7795W        W74578   0.376   9.424   1.184
 7796W        W74579  44.596  44.770  10.049
 7797W        W74580  32.443  12.039  11.327
 7798W        W74581  18.282  13.705   1.975
 7799W        W74582   3.727  24.519  11.333
 7800W        W74583  36.779  39.644   3.396
 7801W        W74584   3.245  37.483  14.513
 7802W        W74585  30.737  37.810  12.608
 7803W        W74586  41.767  32.380   0.804
 7804W        W74587  35.593   7.989  14.209
 7805W        W74588  40.011  11.365  12.491
 7806W        W74589   7.379  14.658   4.736
 7807W        W74590  25.692  23.030  10.617
 7808W        W74591  36.368  37.007   0.306
 7809W        W74592  30.343  18.836   0.418
 7810W        W74593  31.645   1.124  11.635
 7811W        W74594   6.381  42.802  14.109
 7812W        W74595  26.644  27.670   1.994
 7813W        W74596   0.988  19.760   3.269
 7814W        W74597  25.764   9.314   0.975
 7815W        W74598  21.750   2.052   0.495
 7816W        W74599  43.865   4.989   1.088
 7817W        W74600   6.287   5.926   1.238
 7818W        W74601   6.182  24.210   0.433
 7819W        W74602  40.332  18.261  13.924
 7820W        W74603  36.402   6.452   1.419
 7821W        W74604  11.790  34.877   0.203
 7822W        W74605   5.145   6.300   0.253
 7823W        W74606  38.001  20.522   1.400
 7824W        W74607   9.735  35.877  10.854
 7825W        W74608  15.205  11.673   4.420
 7826W        W74609   9.090   6.609   4.852
 7827W        W74610   2.226  10.645  11.252
 7828W        W74611   2.902   1.330  12.539
 7829W        W74612   9.186  30.986   2.424
 7830W        W74613  16.301   9.406  14.587
 7831W        W74614  16.604  38.018  12.907
 7832W        W74615  15.578   3.176   1.727
 7833W        W74616  32.397  30.995  14.892
 7834W        W74617  15.911  38.200   5.136
 7835W        W74618  39.352  26.006   2.798
 7836W        W74619  38.030   8.274  11.247
 7837W        W74620   2.480  29.539  13.960
 7838W        W74621  44.279  17.134   3.664
 7839W        W74622  21.719   0.492   1.409
 7840W        W74623   3.263   5.087   1.668
 7841W        W74624   3.389  34.401  12.335
 7842W        W74625  40.545   2.371   0.611
 7843W        W74626   5.845  19.664   1.367
 7844W        W74627  13.213  31.108   4.335
 7845W        W74628  30.631   9.313  11.665
 7846W        W74629  22.592  11.767   4.143
 7847W        W74630  21.174  24.161  11.198
 7848W        W74631  27.355  44.713   4.632
 7849W        W74632   7.615   9.827   1.336
 7850W        W74633  31.615   8.662  12.406
 7851W        W74634  33.198  44.270  14.887
 7852W        W74635  23.433  16.619  14.508
 7853W        W74636   6.797  23.393   4.789
 7854W        W74637  41.099  21.066  13.525
 7855W        W74638  22.858  27.590   4.177
 7856W        W74639  18.688   3.372   1.141
 7857W        W74640  36.884  40.082   4.571
 7858W        W74641  10.394  28.080  12.458
 7859W        W74642  12.926  24.978   0.820
 7860W        W74643  35.023  12.246   3.031
 7861W        W74644  10.005  36.677  11.111
 7862W        W74645   8.377  12.468  11.146
 7863W        W74646   3.659  43.605   1.928
 7864W        W74647   0.025  23.186   2.390
 7865W        W74648  17.046  29.412   4.511
 7866W        W74649  27.777  28.681   3.884
 7867W        W74650  13.556  22.670   1.693
 7868W        W74651   2.660  16.493  14.810
 7869W        W74652  41.407  27.974  14.347
 7870W        W74653   9.341   8.377   0.973
 7871W        W74654  16.258  22.908  13.406
 7872W        W74655  42.499  26.091  13.958
 7873W        W74656  37.411   3.979   1.944
 7874W        W74657  10.078   7.092  13.477
 7875W        W74658  41.938   2.962   3.685
 7876W        W74659  22.965  15.021  14.531
 7877W        W74660  28.690   9.626  11.008
 7878W        W74661  19.755  30.764   2.331
 7879W        W74662  26.254  41.703   3.039
 7880W        W74663  17.715   1.533  13.392
 7881W        W74664  43.303  32.213  13.469
 7882W        W74665   8.688  28.054  14.359
 7883W        W74666  39.231   5.696  11.924
 7884W        W74667  31.781  26.446   2.494
 7885W        W74668  21.673  21.661  12.724
 7886W        W74669  28.036   9.020   4.692
 7887W        W74670  32.138   2.837  14.330
 7888W        W74671  32.212   6.239  13.294
 7889W        W74672  33.074  29.329   3.319
 7890W        W74673  26.094  43.953  12.153
 7891W        W74674  30.630  27.570  13.883
 7892W        W74675   3.940  14.694   0.782
 7893W        W74676   9.501  15.425  14.504
 7894W        W74677  37.080  25.524  13.857
 7895W        W74678  26.944  13.193   1.821
 7896W        W74679   3.695   5.539  13.303
 7897W        W74680  35.083   5.738  12.421
 7898W        W74681  16.276  38.892  12.994
 7899W        W74682   2.524  21.678  12.950
 7900W        W74683  39.893  21.046  11.701
 7901W        W74684  37.893  41.792  12.004
 7902W        W74685  40.589  34.423   0.217
 7903W        W74686  22.800   2.403  13.343
 7904W        W74687  28.495  14.279   0.508
 7905W        W74688  34.304  20.863   2.917
 7906W        W74689  39.423  11.241  14.493
 7907W        W74690  15.134  24.551   5.133
 7908W        W74691  18.940  15.350   4.111
 7909W        W74692  28.182   2.400   1.830
 7910W        W74693  14.597  35.720   5.004
 7911W        W74694  35.807  20.594  13.605
 7912W        W74695  43.919  29.569  14.871
 7913W        W74696  38.967  38.303   2.740
 7914W        W74697  42.885  43.703  10.624
 7915W        W74698  20.293  43.547   3.118
 7916W        W74699   7.543   3.709  12.648
 7917W        W74700  23.063  34.527  12.381
 7918W        W74701  23.347   2.647   0.772
 7919W        W74702  30.631   9.304  12.594
 7920W        W74703  25.486   7.815   3.200
 7921W        W74704  12.412   5.330   3.654
 7922W        W74705   0.917  28.600  13.903
 7923W        W74706   1.237   6.698   3.174
 7924W        W74707  24.526  18.907  12.200
 7925W        W74708  33.034  14.062  14.583
 7926W        W74709  26.818   4.871   4.756
 7927W        W74710  29.955   8.658  10.762
 7928W        W74711  13.818   9.909  14.652
 7929W        W74712  37.658  14.698  13.069
 7930W        W74713  44.859  43.003   4.989
 7931W        W74714  28.959  15.980   2.658
 7932W        W74715  40.401  29.586   3.789
 7933W        W74716  36.916  15.755  11.188
 7934W        W74717  21.668  15.041  12.893
 7935W        W74718  20.176  32.617   1.965
 7936W        W74719  43.696   4.688   3.555
 7937W        W74720  40.292  44.003  14.410
 7938W        W74721  35.188  39.824  11.214
 7939W        W74722  14.807  37.455   0.658
 7940W        W74723   1.513   3.456   0.217
 7941W        W74724  23.731   3.666  14.023
 7942W        W74725  43.295  23.917  12.439
 7943W        W74726  22.096   1.129  12.003
 7944W        W74727  24.250  12.861  11.778
 7945W        W74728  18.783   8.883  14.003
 7946W        W74729  11.804  41.347  14.945
 7947W        W74730  20.359  41.477   2.802
 7948W        W74731  15.103   4.726  12.327
 7949W        W74732  13.638  27.166   2.480
 7950W        W74733  17.422  16.453  11.069
 7951W        W74734   0.506   3.224  12.041
 7952W        W74735  12.884  14.137   2.665
 7953W        W74736  32.611  26.844  14.926
 7954W        W74737  28.646   1.712  10.887
 7955W        W74738   3.163  33.542  14.426
 7956W        W74739  40.961  33.955   3.216
 7957W        W74740  37.362  14.822   4.166
 7958W        W74741   4.829  24.217  13.033
 7959W        W74742  25.440  41.466   0.864
 7960W        W74743  11.372  37.050  14.698
 7961W        W74744  44.943  29.454   3.087
 7962W        W74745  44.907  13.877   0.830
 7963W        W74746  28.843   7.407   3.449
 7964W        W74747  40.827  17.956  12.043
 7965W        W74748  13.864  35.634   1.949
 7966W        W74749  23.287  17.124   0.264
 7967W        W74750  25.315   4.247  12.527
 7968W        W74751  37.192  13.651   1.534
 7969W        W74752  29.030  41.054  14.172
 7970W        W74753   6.218  32.606   1.408
 7971W        W74754  11.393   8.162   4.447
 7972W        W74755   6.904  35.428  10.758
 7973W        W74756  36.855  28.169  13.894
 7974W        W74757   4.817  39.922   9.896
 7975W        W74758  17.687  41.309   2.759
 7976W        W74759   9.118  22.383   0.412
 7977W        W74760   0.488  14.546  11.651
 7978W        W74761  33.262  43.741  12.435
 7979W        W74762  22.647  16.105   0.845
 7980W        W74763  26.414  43.344  11.106
 7981W        W74764   0.523  39.783  12.125
 7982W        W74765  20.106  28.445   1.318
 7983W        W74766   1.901  22.559   2.323
 7984W        W74767  20.577  14.651  12.058
 7985W        W74768  37.636  34.822  14.974
 7986W        W74769   4.385  29.503   2.236
 7987W        W74770  14.564  36.725   4.388
 7988W        W74771  42.395  20.286   3.874
 7989W        W74772  21.250  22.163   1.218
 7990W        W74773  26.261  16.352   3.187
 7991W        W74774  19.081   3.492   2.347
 7992W        W74775   9.072  39.964   0.944
 7993W        W74776   0.043  30.085  13.970
 7994W        W74777  20.056  37.425   0.265
 7995W        W74778   9.883  28.052  12.662
 7996W        W74779  32.444  38.499   4.420
 7997W        W74780  23.643  40.347   3.991
 7998W        W74781  28.172  39.125  12.542
 7999W        W74782  17.340  42.394   1.371
 8000W        W74783  42.032  33.352  10.021
 8001W        W74784  22.081  28.271   4.363
 8002W        W74785  32.096   9.679   0.932
 8003W        W74786  33.526  40.527  13.035
 8004W        W74787  35.858  23.533   1.130
 8005W        W74788  10.140  13.320   2.185
 8006W        W74789  39.760  26.679   0.433
 8007W        W74790  19.312  36.988  12.636
 8008W        W74791  39.574  33.123   0.329
 8009W        W74792  21.991  14.322   4.624
 8010W        W74793   7.284  15.746  14.197
 8011W        W74794  23.150   5.314  11.250
 8012W        W74795  40.600   1.886  14.449
 8013W        W74796  30.562   0.483  14.304
 8014W        W74797  28.867  44.263  13.088
 8015W        W74798  18.638  44.151   2.406
 8016W        W74799  39.716  38.403  10.680
 8017W        W74800  41.407   0.694   3.313
 8018W        W74801  40.005   2.387  13.834
 8019W        W74802  26.119  23.698   2.353
 8020W        W74803   5.421  43.604  12.853
 8021W        W74804  18.734  26.007   4.456
 8022W        W74805  30.422  30.118  13.916
 8023W        W74806  40.066  19.712   1.011
 8024W        W74807  40.557  18.953  10.651
 8025W        W74808  32.529  23.313   0.224
 8026W        W74809  37.610  25.734   3.294
 8027W        W74810   5.853   9.447   1.680
 8028W        W74811  39.453   7.442   4.846
 8029W        W74812   0.804  16.779   2.819
 8030W        W74813  33.742  16.311  13.832
 8031W        W74814  41.996  16.567  10.412
 8032W        W74815   3.394  24.220   2.681
 8033W        W74816  25.965   7.275  14.384
 8034W        W74817   7.830   9.190  14.065
 8035W        W74818  32.462  39.808   3.779
 8036W        W74819  39.354  32.087   2.885
 8037W        W74820  13.833  15.677   4.934
 8038W        W74821   2.998  34.704   2.320
 8039W        W74822  26.294  13.121  11.990
 8040W        W74823  41.220   3.129  13.434
 8041W        W74824  36.046  35.423   1.703
 8042W        W74825  34.994  21.703   0.735
 8043W        W74826  13.599  23.608   0.503
 8044W        W74827  30.949  44.785   3.750
 8045W        W74828  44.081  14.423  13.029
 8046W        W74829  23.979  34.528  11.975
 8047W        W74830  43.358   3.753   3.452
 8048W        W74831  31.904   0.340  12.885
 8049W        W74832   7.974  42.957   4.474
 8050W        W74833  11.773  27.633  10.512
 8051W        W74834   8.278  30.162  12.300
 8052W        W74835  18.130  40.382   1.971
 8053W        W74836  19.973  39.929  13.316
 8054W        W74837  24.104  43.485  12.439
 8055W        W74838  40.363  37.435  12.509
 8056W        W74839   7.335  16.276  12.006
 8057W        W74840  11.145  36.393  12.105
 8058W        W74841   3.787  24.854  14.487
 8059W        W74842  19.613   9.866  14.993
 8060W        W74843  37.826  36.359   3.881
 8061W        W74844  13.265  16.527   3.155
 8062W        W74845  28.233  30.245  11.202
 8063W        W74846  24.707  23.609   1.915
 8064W        W74847  26.330  30.129  13.797
 8065W        W74848  35.290  15.761  13.439
 8066W        W74849  10.937  30.834   2.167
 8067W        W74850  19.593  15.309  12.659
 8068W        W74851  35.878  35.239  13.395
 8069W        W74852  37.924  31.659  13.463
 8070W        W74853   4.829  33.502   2.140
 8071W        W74854  17.556  35.413  13.297
 8072W        W74855  29.192  19.879  14.915
 8073W        W74856  42.434   6.188   4.231
 8074W        W74857  21.342   4.048   2.698
 8075W        W74858   6.985   5.490   2.695
 8076W        W74859  25.622   0.002  10.717
 8077W        W74860  33.628  25.512   0.669
 8078W        W74861  11.385  11.916  14.799
 8079W        W74862   4.868  44.814   4.110
 8080W        W74863  12.145  17.301   1.197
 8081W        W74864  12.143   2.249  11.532
 8082W        W74865  41.447  34.801  13.351
 8083W        W74866  36.220   3.450   0.943
 8084W        W74867  16.293  43.267  14.259
 8085W        W74868  41.304  29.310   0.209
 8086W        W74869   9.226  25.437   3.270
 8087W        W74870  12.007  12.267   1.769
 8088W        W74871   9.299  34.085   3.762
 8089W        W74872  33.625  25.704   3.652
 8090W        W74873  15.592  21.002   3.214
 8091W        W74874   1.769  13.157   0.005
 8092W        W74875  38.001   5.456   2.163
 8093W        W74876   8.356  25.302  10.697
 8094W        W74877  26.033  21.327  12.784
 8095W        W74878   4.902  35.048  11.586
 8096W        W74879   3.624  14.755  13.867
 8097W        W74880  43.030  40.315   3.039
 8098W        W74881   7.984  42.803  12.284
 8099W        W74882  35.128  34.469  14.386
 8100W        W74883  35.957  11.841  13.454
 8101W        W74884  17.107  10.938   1.350
 8102W        W74885   5.944   5.197  14.069
 8103W        W74886  20.050   0.818  11.503
 8104W        W74887   9.512  34.932   4.979
 8105W        W74888  37.102  34.014  11.469
 8106W        W74889  38.242  10.693  10.978
 8107W        W74890  32.505  19.672   5.506
 8108W        W74891  39.039  25.446   1.635
 8109W        W74892  38.029   0.455  13.898
 8110W        W74893  18.813   4.156  11.343
 8111W        W74894  31.429  27.279   1.702
 8112W        W74895  12.489  11.579  14.125
 8113W        W74896  37.305   0.333  12.037
 8114W        W74897  11.437  27.443  14.476
 8115W        W74898  36.905  39.270   1.942
 8116W        W74899  33.937   5.780   4.944
 8117W        W74900  10.963  15.826  12.055
 8118W        W74901  42.130  16.094  14.390
 8119W        W74902   7.615  23.544  11.611
 8120W        W74903  32.082  39.980   1.224
 8121W        W74904  30.397   4.212   1.837
 8122W        W74905  16.164   3.436  14.835
 8123W        W74906  28.964  43.771   1.498
 8124W        W74907  23.670  32.289   2.224
 8125W        W74908  17.810   7.829  13.502
 8126W        W74909  37.982  34.041  11.326
 8127W        W74910  26.060   6.449  14.710
 8128W        W74911  24.988  10.042  14.551
 8129W        W74912  37.911   9.280   4.470
 8130W        W74913  25.646  38.773  12.993
 8131W        W74914   4.856  18.677  10.703
 8132W        W74915  15.592  35.883   1.304
 8133W        W74916  27.995  34.119  12.461
 8134W        W74917  36.864   4.785  10.637
 8135W        W74918  20.969  33.841  13.438
 8136W        W74919  36.953  14.407  12.012
 8137W        W74920   1.607  38.261  11.202
 8138W        W74921  26.638  17.150  14.739
 8139W        W74922   3.407  44.996   0.750
 8140W        W74923  22.720  29.208   0.946
 8141W        W74924  22.691  33.658   3.026
 8142W        W74925  37.026  44.497  14.872
 8143W        W74926  41.006  14.035  14.573
 8144W        W74927   8.183  12.263   2.942
 8145W        W74928  15.529  30.862   4.163
 8146W        W74929  38.800  34.959   1.383
 8147W        W74930  10.760  26.536  12.832
 8148W        W74931   6.921  32.194  11.928
 8149W        W74932  42.807  26.523  12.119
 8150W        W74933  18.553  43.375  11.069
 8151W        W74934  37.433  10.722   3.387
 8152W        W74935  17.540  34.066   0.933
 8153W        W74936  43.640  32.968  14.830
 8154W        W74937  31.007  21.478  14.899
 8155W        W74938  10.071  32.544   2.184
 8156W        W74939  31.392  25.573  14.690
 8157W        W74940  29.720   2.001   0.415
 8158W        W74941  25.391  23.600  12.028
 8159W        W74942  42.984   5.314  10.875
 8160W        W74943  41.027  42.844  13.065
 8161W        W74944  28.719  37.104  14.412
 8162W        W74945  21.133  27.507   0.450
 8163W        W74946  36.811  44.386   4.953
 8164W        W74947  16.310  39.641  13.605
 8165W        W74948  38.339  31.634  14.579
 8166W        W74949  15.197  39.482   2.998
 8167W        W74950  23.345  29.566  13.572
 8168W        W74951  28.343  11.395   4.633
 8169W        W74952  19.692   9.062   5.101
 8170W        W74953   5.197  27.644  12.580
 8171W        W74954  10.022  27.590   1.654
 8172W        W74955  40.350  13.011   4.616
 8173W        W74956  36.448  42.359   0.299
 8174W        W74957  35.968  14.103   3.335
 8175W        W74958  43.798  41.542   4.572
 8176W        W74959   2.432  16.544  14.324
 8177W        W74960   2.587  32.441  11.006
 8178W        W74961  26.059   0.977   1.243
 8179W        W74962   6.172  39.215  11.585
 8180W        W74963  27.750   4.368  13.244
 8181W        W74964  10.551  33.103  14.536
 8182W        W74965   0.462  15.974   4.654
 8183W        W74966   9.953  38.379   1.377
 8184W        W74967  40.819   2.769   0.749
 8185W        W74968  18.282   8.050  14.822
 8186W        W74969  17.987  35.160   2.658
 8187W        W74970  28.090  42.336   2.657
 8188W        W74971  19.238  25.240  12.672
 8189W        W74972   1.852  22.162  10.413
 8190W        W74973  22.534   2.325  10.764
 8191W        W74974   4.908  37.962  13.478
 8192W        W74975  29.234   5.743   1.447
 8193W        W74976   2.737  34.376  12.004
 8194W        W74977  27.940  38.957   0.343
 8195W        W74978  44.413  10.848   2.826
 8196W        W74979  10.054  38.475   3.688
 8197W        W74980   2.663  33.417   2.024
 8198W        W74981  35.852  44.795  13.324
 8199W        W74982  40.858  39.251   3.335
 8200W        W74983  18.068  19.440   2.278
 8201W        W74984  19.030  41.870   3.216
 8202W        W74985  42.812  34.587  14.317
 8203W        W74986  30.775  21.348   0.388
 8204W        W74987  21.711  32.511  13.588
 8205W        W74988  26.463  27.884  14.257
 8206W        W74989  20.780  14.438   5.371
 8207W        W74990  18.600  12.035   4.528
 8208W        W74991  44.339  29.508  12.981
 8209W        W74992  13.111  11.150   3.824
 8210W        W74993   5.485   6.316  11.729
 8211W        W74994  28.667  11.737   4.851
 8212W        W74995  29.593  35.483  11.555
 8213W        W74996  40.758  23.522   4.858
 8214W        W74997  16.446   9.563  11.120
 8215W        W74998  21.536  30.059   4.268
 8216W        W74999  23.430  44.911  14.853
 8217W        W75000   9.267  40.692  11.576
 8218W        W75001  29.656  30.912   1.672
 8219W        W75002  41.736  31.699   2.783
 8220W        W75003   9.987  27.603   4.841
 8221W        W75004  32.904   5.873   3.550
 8222W        W75005  26.960   3.690   2.243
 8223W        W75006  30.178  36.400  14.971
 8224W        W75007   4.672  25.164   0.435
 8225W        W75008  37.700  39.894  11.212
 8226W        W75009  28.003  11.870   4.959
 8227W        W75010   7.717  19.012   4.475
 8228W        W75011  22.675  15.842   0.404
 8229W        W75012  10.594   7.645   0.771
 8230W        W75013  39.313  30.408  11.461
 8231W        W75014  38.380  35.481   3.095
 8232W        W75015   1.766  27.609   1.906
 8233W        W75016  20.134  20.029   1.706
 8234W        W75017  26.681  16.160  12.516
 8235W        W75018   3.829  12.434  11.143
 8236W        W75019   3.993  33.014  11.606
 8237W        W75020   6.434   8.527   2.328
 8238W        W75021   7.956  17.372  12.002
 8239W        W75022  43.284  10.689  13.978
 8240W        W75023  20.635   2.865   3.723
 8241W        W75024   1.346  33.134  14.541
 8242W        W75025  12.783  44.299  14.795
 8243W        W75026   0.280  27.522   4.074
 8244W        W75027   9.290  36.010   4.419
 8245W        W75028  25.302  36.989  13.875
 8246W        W75029  27.417  34.305  10.981
 8247W        W75030   5.644  30.568   2.419
 8248W        W75031  10.233  34.697   3.817
 8249W        W75032  43.667  42.834  14.229
 8250W        W75033  17.574  29.372  13.875
 8251W        W75034   3.410  30.912   2.838
 8252W        W75035  30.547   8.186   1.410
 8253W        W75036  43.889  26.266   0.488
 8254W        W75037  32.190   1.322   3.210
 8255W        W75038  21.666  30.217  14.904
 8256W        W75039  38.097   4.747   0.337
 8257W        W75040   1.928  20.555   2.141
 8258W        W75041   2.198  32.539   4.286
 8259W        W75042  10.054  20.409   4.184
 8260W        W75043  34.485  21.955   3.280
 8261W        W75044  33.324  15.115  14.358
 8262W        W75045  38.369  18.782   0.964
 8263W        W75046  30.850   7.821   2.723
 8264W        W75047  12.516  10.889  10.366
 8265W        W75048   5.388  17.270  14.812
 8266W        W75049  43.789  37.915   1.412
 8267W        W75050  30.309  24.194  13.399
 8268W        W75051  27.286  15.138  12.990
 8269W        W75052  12.627  28.334   2.805
 8270W        W75053  17.024  43.857   2.898
 8271W        W75054   9.786  10.053  11.817
 8272W        W75055  35.012  30.996  13.011
 8273W        W75056   0.859  39.610  13.998
 8274W        W75057   9.258   4.440   2.337
 8275W        W75058   0.230   5.978   0.469
 8276W        W75059  18.758  42.037  14.028
 8277W        W75060  23.534  29.460   2.194
 8278W        W75061  32.085  27.281   2.590
 8279W        W75062  26.483  11.368  13.431
 8280W        W75063  33.461  35.038   4.625
 8281W        W75064  16.245  37.867   5.362
 8282W        W75065  20.661  23.472   4.318
 8283W        W75066   4.227  36.569  14.749
 8284W        W75067  25.950   6.407   2.780
 8285W        W75068  23.525   7.702  13.977
 8286W        W75069  20.426  20.790  11.103
 8287W        W75070  22.239  42.214  11.353
 8288W        W75071  14.877   8.060   2.430
 8289W        W75072  29.427  12.110   0.231
 8290W        W75073  32.206  26.203   3.663
 8291W        W75074  27.147  38.125  13.456
 8292W        W75075  28.037  35.048   3.614
 8293W        W75076  33.387  44.870   0.772
 8294W        W75077  40.642  34.434  13.754
 8295W        W75078  16.960   7.283   5.133
 8296W        W75079  30.479  19.334   0.347
 8297W        W75080  40.723  40.868  12.874
 8298W        W75081  27.505   9.393  12.999
 8299W        W75082  26.786  29.706  14.970
 8300W        W75083  43.649  30.039  11.546
 8301W        W75084  10.312  31.105  10.499
 8302W        W75085   3.122  43.337   4.662
 8303W        W75086  12.268  15.419  11.611
 8304W        W75087  38.450  32.680   4.610
 8305W        W75088  21.171  29.589  10.758
 8306W        W75089   0.237  30.225   1.284
 8307W        W75090  10.266   8.717  14.812
 8308W        W75091  24.236   2.532   3.118
 8309W        W75092  19.872  32.508   4.696
 8310W        W75093  35.910  25.527   4.767
 8311W        W75094  40.651  34.510   1.963
 8312W        W75095  15.680  23.509   1.359
 8313W        W75096  15.167  19.293  13.842
 8314W        W75097  43.746  17.794  14.377
 8315W        W75098  37.971  11.185  14.780
 8316W        W75099  28.021  20.119   3.586
 8317W        W75100  13.882   8.709  12.847
 8318W        W75101   7.854   1.992   0.983
 8319W        W75102  29.776  18.222  11.728
 8320W        W75103  34.890  11.611   5.392
 8321W        W75104  36.492  16.932   3.319
 8322W        W75105  34.915  10.249  11.470
 8323W        W75106  33.636   7.714   4.651
 8324W        W75107  34.106  30.493   4.109
 8325W        W75108  25.281  17.249  11.003
 8326W        W75109  24.599  14.304   1.377
 8327W        W75110  38.363   4.474  11.137
 8328W        W75111   9.843   8.441  14.870
 8329W        W75112  40.554   8.999  10.886
 8330W        W75113  39.163  39.385   1.575
 8331W        W75114  38.894  20.511  11.220
 8332W        W75115  29.015  13.139   1.409
 8333W        W75116  31.703  19.476   3.096
 8334W        W75117  18.043  34.905   3.093
 8335W        W75118  30.991  27.743  10.992
 8336W        W75119  26.922  30.627   1.292
 8337W        W75120   9.633   2.131  11.478
 8338W        W75121  13.264  25.112   1.197
 8339W        W75122  17.309  24.460   1.062
 8340W        W75123  25.583  29.937   4.868
 8341W        W75124  15.216  34.336  11.981
 8342W        W75125  23.953  20.512   1.296
 8343W        W75126   1.624  16.751   0.783
 8344W        W75127  38.902   2.823   2.696
 8345W        W75128  21.318  19.813  11.156
 8346W        W75129  44.796   4.181   1.142
 8347W        W75130   9.077  34.028  11.605
 8348W        W75131  15.680  24.640   4.340
 8349W        W75132  15.727  36.390   0.433
 8350W        W75133  17.369   5.195   1.888
 8351W        W75134  27.573   5.211  14.865
 8352W        W75135   2.826  28.205   0.973
 8353W        W75136  24.151  15.779   2.720
 8354W        W75137  21.710  40.157   3.791
 8355W        W75138  28.997  36.416   0.351
 8356W        W75139   7.138   3.760  14.071
 8357W        W75140  38.841   9.394   1.687
 8358W        W75141   9.894   4.445   2.683
 8359W        W75142   6.147  19.328  13.465
 8360W        W75143   0.515  17.343   4.454
 8361W        W75144  29.877  10.706   2.164
 8362W        W75145  14.260  24.783   1.336
 8363W        W75146  27.496   7.999   0.849
 8364W        W75147   7.536  36.607  12.104
 8365W        W75148  14.323  11.249  11.710
 8366W        W75149  27.591  25.568   3.392
 8367W        W75150  43.659  44.364   0.899
 8368W        W75151  13.385  29.699   0.287
 8369W        W75152  17.797  41.934  14.791
 8370W        W75153  42.524   2.508  12.576
 8371W        W75154  22.899  44.826   9.751
 8372W        W75155  36.810   2.467   0.384
 8373W        W75156  44.993  19.597  10.827
 8374W        W75157  15.346  16.307  10.223
 8375W        W75158  29.938  25.624  12.473
 8376W        W75159   4.326  13.294   0.004
 8377W        W75160   1.422  38.546   3.167
 8378W        W75161  19.994  19.140  13.508
 8379W        W75162   5.766  26.080  13.354
 8380W        W75163  32.003  26.558  11.495
 8381W        W75164  37.132  18.019  10.662
 8382W        W75165  23.276  43.736  13.360
 8383W        W75166  35.118  39.116   1.298
 8384W        W75167  34.472  23.295   1.438
 8385W        W75168  33.006   4.795   1.093
 8386W        W75169   7.385  43.048   1.417
 8387W        W75170   0.178  27.716  12.119
 8388W        W75171  22.249  31.072  14.796
 8389W        W75172  26.696   6.469  13.998
 8390W        W75173  27.134  23.618  14.725
 8391W        W75174  43.673  15.658   4.086
 8392W        W75175  43.491  16.699  10.885
 8393W        W75176   4.321  10.876   1.630
 8394W        W75177  23.053  19.058   4.322
 8395W        W75178  26.744   0.619  13.626
 8396W        W75179  16.821  34.144   1.408
 8397W        W75180  14.452   4.960  13.025
 8398W        W75181   9.687  20.572  14.779
 8399W        W75182  33.962   7.903   1.659
 8400W        W75183   1.868  34.332   1.519
 8401W        W75184  18.086  44.848  14.869
 8402W        W75185  36.393  24.947   4.451
 8403W        W75186  28.038   0.014   1.136
 8404W        W75187  20.276  15.207  13.109
 8405W        W75188   1.484  11.265  12.188
 8406W        W75189  21.233   5.533   0.870
 8407W        W75190  37.091   5.320  13.068
 8408W        W75191  14.854  22.971   4.164
 8409W        W75192  32.465  28.945   0.798
 8410W        W75193  11.809  26.614   2.053
 8411W        W75194  10.816   3.151  12.402
 8412W        W75195   0.558   2.998   0.373
 8413W        W75196  26.279  13.118   4.076
 8414W        W75197  29.040  20.989   3.163
 8415W        W75198  20.605  18.201  10.377
 8416W        W75199  19.728  37.442   4.312
 8417W        W75200  37.436  44.238   0.008
 8418W        W75201  22.630  23.455  13.885
 8419W        W75202  38.828   1.983   3.956
 8420W        W75203   7.784  34.239   1.940
 8421W        W75204  43.912  27.728   4.707
 8422W        W75205  19.535  16.072   1.601
 8423W        W75206  25.503  36.392   4.288
 8424W        W75207  30.609  24.110   2.763
 8425W        W75208  11.329  18.995  14.574
 8426W        W75209   2.867  44.348   1.301
 8427W        W75210  32.013  11.359  11.172
 8428W        W75211  21.794  15.825  11.612
 8429W        W75212   1.384  18.218   0.744
 8430W        W75213   9.150  31.298  12.009
 8431W        W75214  38.278  21.040  13.736
 8432W        W75215  31.000  43.052  13.526
 8433W        W75216  17.099   5.335   9.908
 8434W        W75217  18.662   4.006  10.491
 8435W        W75218  13.759   7.419   5.501
 8436W        W75219   5.693  28.180  11.068
 8437W        W75220   6.978  33.974   1.688
 8438W        W75221  31.907  28.493   4.590
 8439W        W75222  23.031  10.363   0.433
 8440W        W75223  42.571  36.677   1.681
 8441W        W75224   4.628  16.526   4.201
 8442W        W75225  33.112  20.064   3.636
 8443W        W75226  34.629  26.362  10.850
 8444W        W75227   5.262  33.611   4.286
 8445W        W75228   8.630  29.233   2.320
 8446W        W75229  28.037   3.284  12.154
 8447W        W75230  40.425   4.948  14.509
 8448W        W75231  19.129  40.287   3.806
 8449W        W75232  30.697  43.872  13.018
 8450W        W75233  28.529  21.178  14.569
 8451W        W75234   6.854  28.913   1.757
 8452W        W75235   7.679  35.004  14.805
 8453W        W75236  29.531  32.756  11.706
 8454W        W75237  33.156  43.512  13.361
 8455W        W75238  31.412  25.780   0.791
 8456W        W75239  11.516  37.121  11.568
 8457W        W75240   7.386  27.060  14.482
 8458W        W75241  20.057  35.022   4.563
 8459W        W75242   3.389  20.501  11.730
 8460W        W75243  29.383   2.164  12.484
 8461W        W75244  29.596  24.478   4.219
 8462W        W75245   2.489   6.348   1.313
 8463W        W75246   4.964  27.090   0.911
 8464W        W75247  24.513  44.939   4.289
 8465W        W75248   8.398  13.991   4.184
 8466W        W75249   9.820  32.778   2.804
 8467W        W75250  18.216  25.899   4.270
 8468W        W75251  19.736  39.888   0.530
 8469W        W75252  30.431  20.636  10.257
 8470W        W75253  37.431   7.713   0.492
 8471W        W75254  36.026   3.661  11.751
 8472W        W75255   8.340  40.090   4.145
 8473W        W75256   4.570  10.841   0.355
 8474W        W75257  26.821  40.653  14.337
 8475W        W75258  13.432  35.540  10.813
 8476W        W75259  16.321   7.388  12.528
 8477W        W75260  38.927  39.522   2.577
 8478W        W75261   5.704  32.623   1.398
 8479W        W75262   2.191   2.967   1.222
 8480W        W75263  10.075   7.967  12.928
 8481W        W75264  22.207  33.368   3.116
 8482W        W75265   8.376  19.298   2.762
 8483W        W75266  27.618  36.798  12.513
 8484W        W75267   2.888   5.423   1.438
 8485W        W75268   9.414   3.424  13.498
 8486W        W75269  17.837  31.551   3.362
 8487W        W75270  21.087  41.423   3.275
 8488W        W75271  31.444  16.065   3.270
 8489W        W75272  14.590  15.570  12.048
 8490W        W75273  33.621  39.450  12.071
 8491W        W75274  13.380  21.950   3.017
 8492W        W75275  32.377  32.517  11.130
 8493W        W75276  27.110   5.216  14.307
 8494W        W75277  11.275  40.985   3.699
 8495W        W75278  24.667   5.045  14.932
 8496W        W75279  35.229  13.686  12.002
 8497W        W75280   7.481   0.004   4.483
 8498W        W75281  10.633  31.993  10.273
 8499W        W75282  31.688  33.309  13.044
 8500W        W75283  43.484  43.430   0.453
 8501W        W75284  44.543  22.158   3.538
 8502W        W75285  30.936  42.244  12.921
 8503W        W75286  17.301  27.574   1.547
 8504W        W75287  23.551   9.756  11.978
 8505W        W75288  17.616  39.849   9.576
 8506W        W75289  39.855  39.330  12.524
 8507W        W75290  10.647   9.953  11.535
 8508W        W75291   0.474  24.095   0.935
 8509W        W75292   1.972  41.570  13.253
 8510W        W75293  44.303  30.940  10.663
 8511W        W75294  13.095  15.282  12.501
 8512W        W75295   4.673  34.275   4.343
 8513W        W75296  11.738  17.235   4.252
 8514W        W75297  20.238  27.901  11.257
 8515W        W75298  35.466  41.905   2.946
 8516W        W75299  26.212  28.598   0.411
 8517W        W75300   1.182  43.258  12.648
 8518W        W75301  20.257  40.521   0.633
 8519W        W75302  20.704  25.955   0.060
 8520W        W75303  15.719  13.241   2.153
 8521W        W75304  17.134  26.974   3.405
 8522W        W75305  18.727  28.740   3.150
 8523W        W75306  13.205  25.944  11.566
 8524W        W75307  34.017  11.554  12.313
 8525W        W75308  40.422   1.176  13.806
 8526W        W75309  22.781  26.229   2.199
 8527W        W75310  44.271   3.988  12.073
 8528W        W75311   1.838  10.819  13.097
 8529W        W75312   0.390  35.042  14.469
 8530W        W75313  21.713  26.017  14.334
 8531W        W75314   8.924  44.510   0.315
 8532W        W75315  37.867   9.156  11.151
 8533W        W75316  33.502  26.262  14.273
 8534W        W75317  39.898   8.110  11.482
 8535W        W75318  40.423  11.828   0.958
 8536W        W75319  25.191  38.099   4.566
 8537W        W75320  17.535  11.184   1.428
 8538W        W75321   1.040  24.896   0.781
 8539W        W75322   5.546   8.367  10.629
 8540W        W75323   5.282   3.997   0.581
 8541W        W75324  18.138  13.401  14.343
 8542W        W75325  22.388  11.277  12.258
 8543W        W75326  13.068   6.915   2.721
 8544W        W75327  20.100  23.490   2.183
 8545W        W75328   9.600  33.224   4.077
 8546W        W75329  33.570  12.167  11.932
 8547W        W75330   6.793  34.961   4.663
 8548W        W75331  18.158  39.046   2.417
 8549W        W75332  43.412  10.660  11.761
 8550W        W75333  35.551   4.990  12.046
 8551W        W75334  40.749  32.296   3.785
 8552W        W75335  13.691  10.858   1.716
 8553W        W75336  27.285  23.191  13.429
 8554W        W75337  32.689  14.150   3.680
 8555W        W75338  32.687  24.615   4.186
 8556W        W75339   5.514   4.676  11.598
 8557W        W75340   8.856   9.399  14.842
 8558W        W75341  30.701  34.690  13.438
 8559W        W75342   5.894  27.742   2.677
 8560W        W75343   1.485  16.875   2.403
 8561W        W75344  32.929  26.043   3.138
 8562W        W75345  20.659  42.395   3.524
 8563W        W75346   0.430  41.769   4.088
 8564W        W75347  15.362  26.927   0.872
 8565W        W75348  26.138  11.727   0.165
 8566W        W75349  18.234  37.799  13.053
 8567W        W75350   0.627  34.505  13.979
 8568W        W75351   8.247  33.394  13.882
 8569W        W75352   6.265  39.857  14.850
 8570W        W75353   9.657   9.650   0.752
 8571W        W75354   2.254  24.898   4.176
 8572W        W75355   1.259  13.892  11.598
 8573W        W75356   5.173  23.727   4.140
 8574W        W75357  38.986  18.054   4.628
 8575W        W75358   2.878  40.907   4.047
 8576W        W75359  28.982   3.482   2.767
 8577W        W75360  36.004  12.865  11.952
 8578W        W75361  33.734  17.346   2.250
 8579W        W75362  23.554  44.431  14.308
 8580W        W75363   3.492  30.114   0.723
 8581W        W75364   2.422  20.233  12.522
 8582W        W75365  36.075  29.948  11.087
 8583W        W75366  11.897  12.249   0.886
 8584W        W75367  31.859  33.111   1.848
 8585W        W75368  32.364  30.030   4.974
 8586W        W75369   3.386   1.910   2.383
 8587W        W75370  39.534  21.238   3.130
 8588W        W75371  29.527   3.236  13.806
 8589W        W75372  34.083  31.005   0.415
 8590W        W75373  40.988   8.837   4.928
 8591W        W75374  31.866   3.486  12.128
 8592W        W75375   9.444   1.410   1.303
 8593W        W75376  10.018  35.473  12.133
 8594W        W75377  29.486  32.989   3.188
 8595W        W75378  34.349  20.077   2.294
 8596W        W75379  30.166  43.976  10.695
 8597W        W75380  22.646  32.939  12.331
 8598W        W75381  16.613  23.739  12.877
 8599W        W75382  37.365  12.337   3.086
 8600W        W75383  21.778  10.409  12.978
 8601W        W75384  23.282   2.591   3.036
 8602W        W75385   3.800   5.642   2.723
 8603W        W75386  21.168   6.912  13.446
 8604W        W75387   4.090  14.142   3.280
 8605W        W75388   8.170  33.931  13.990
 8606W        W75389  29.052   6.983   4.153
 8607W        W75390  41.260  36.510   2.219
 8608W        W75391  15.454   9.888   3.588
 8609W        W75392  36.545  41.799  10.438
 8610W        W75393  43.907  17.136  10.199
 8611W        W75394  20.747  16.557   3.113
 8612W        W75395  23.933  39.565  11.521
 8613W        W75396   9.919  27.009   2.770
 8614W        W75397   7.936   9.424   1.334
 8615W        W75398  37.711  25.707  12.266
 8616W        W75399   8.418   0.611  11.262
 8617W        W75400   5.359  11.374   2.854
 8618W        W75401  35.554   0.330   2.567
 8619W        W75402   4.827  43.221  11.079
 8620W        W75403  35.451  27.084   2.702
 8621W        W75404  31.310  32.486  11.053
 8622W        W75405  23.198  32.174  14.943
 8623W        W75406  39.163   6.285   2.259
 8624W        W75407  20.956   6.646  13.971
 8625W        W75408  36.418  34.817  10.450
 8626W        W75409  28.650  11.274   0.145
 8627W        W75410  11.918  30.502   2.275
 8628W        W75411  30.826   2.425  11.534
 8629W        W75412   5.598  19.553  11.982
 8630W        W75413  19.367  13.130  10.473
 8631W        W75414   9.582  25.639  13.900
 8632W        W75415   6.497   5.976  11.670
 8633W        W75416  33.956  29.228  10.894
 8634W        W75417  25.643  39.505  11.083
 8635W        W75418  12.788  41.255   0.261
 8636W        W75419  10.920  10.592  14.003
 8637W        W75420  40.724   8.739   2.519
 8638W        W75421  34.600   3.219  11.997
 8639W        W75422   7.275  39.814   0.928
 8640W        W75423  17.234  23.267  13.306
 8641W        W75424   0.357  27.377  13.814
 8642W        W75425  38.314   5.586   4.069
 8643W        W75426  33.821  33.412   0.739
 8644W        W75427  29.060  33.988   0.392
 8645W        W75428  33.565  11.101   0.551
 8646W        W75429   0.864   2.811   1.756
 8647W        W75430   6.225   9.295  12.135
 8648W        W75431  14.572  39.373   5.569
 8649W        W75432  44.060  37.034   0.402
 8650W        W75433  36.861  10.378   1.621
 8651W        W75434   0.841  33.361  10.588
 8652W        W75435  10.796  22.761   4.084
 8653W        W75436  34.378  26.948   3.744
 8654W        W75437   5.737  36.665   0.364
 8655W        W75438  31.206  42.007   1.209
 8656W        W75439   6.558  39.280   3.185
 8657W        W75440  20.171  14.656  14.304
 8658W        W75441   0.328   1.490  14.341
 8659W        W75442  43.259  17.574   2.870
 8660W        W75443  36.327   0.339  12.915
 8661W        W75444  21.673  27.721  14.372
 8662W        W75445  13.805   2.951   2.876
 8663W        W75446  13.330   2.313  13.287
 8664W        W75447  32.575  39.804  11.570
 8665W        W75448  13.757  39.474   1.717
 8666W        W75449  43.335  38.848   3.263
 8667W        W75450  18.035  32.853  14.836
 8668W        W75451  23.972   1.799   2.683
 8669W        W75452  41.450  26.657   4.331
 8670W        W75453  10.125   9.348   2.698
 8671W        W75454  44.643  37.023   0.869
 8672W        W75455  41.950  35.937   1.265
 8673W        W75456   4.136   9.181  12.585
 8674W        W75457  35.374   9.426   0.972
 8675W        W75458  41.695  31.376   1.025
 8676W        W75459  18.356  17.065  14.074
 8677W        W75460  39.427  44.993  13.398
 8678W        W75461   4.337   7.702  13.361
 8679W        W75462  31.168   7.587   4.109
 8680W        W75463   6.622  34.897   1.193
 8681W        W75464  44.233   2.665  11.492
 8682W        W75465  29.684  31.632   1.172
 8683W        W75466  25.669  39.094  10.237
 8684W        W75467   9.367  10.864   2.384
 8685W        W75468  12.515  40.298   3.742
 8686W        W75469  18.227  27.681  11.560
 8687W        W75470  44.797   7.360  11.624
 8688W        W75471  12.050  39.797   1.263
 8689W        W75472  44.313  36.210   1.868
 8690W        W75473  31.642   9.318  12.642
 8691W        W75474   2.967  18.852   4.649
 8692W        W75475   8.872  32.025  10.727
 8693W        W75476  18.659   2.444  14.827
 8694W        W75477   6.880  13.770  14.434
 8695W        W75478  26.032  24.518   2.927
 8696W        W75479  28.100  15.158  10.719
 8697W        W75480  15.235  34.977   0.319
 8698W        W75481  37.456  32.257   2.193
 8699W        W75482  30.602  33.580  12.583
 8700W        W75483  18.324  16.221   3.296
 8701W        W75484  41.273  22.040   0.487
 8702W        W75485  25.931  27.684  13.921
 8703W        W75486  23.739  26.900  10.619
 8704W        W75487  29.060  42.707  11.035
 8705W        W75488  23.955  16.787  14.508
 8706W        W75489   9.342  40.280  14.955
 8707W        W75490   4.290  11.137   3.889
 8708W        W75491  25.055  22.261  14.476
 8709W        W75492  27.541  11.381   3.158
 8710W        W75493  42.502  23.241  11.901
 8711W        W75494   8.511  20.198  10.758
 8712W        W75495  27.160   6.937   0.038
 8713W        W75496   4.793  28.937  12.508
 8714W        W75497  35.559  39.454   2.851
 8715W        W75498  10.338  25.776  11.870
 8716W        W75499   0.766  40.191   2.121
 8717W        W75500  37.975  13.598   4.511
 8718W        W75501  44.214   4.243   0.494
 8719W        W75502  44.105  20.768  11.171
 8720W        W75503   7.815   8.371  10.727
 8721W        W75504  10.780  19.273   3.892
 8722W        W75505   6.939  11.292   3.819
 8723W        W75506  14.662  20.283   3.300
 8724W        W75507  30.465  38.388   0.826
 8725W        W75508  39.369  31.923  12.033
 8726W        W75509  14.177   4.740  12.569
 8727W        W75510  12.688  32.801   1.388
 8728W        W75511   4.699  28.588   0.767
 8729W        W75512   9.020  24.560   0.863
 8730W        W75513  36.889  13.115  10.719
 8731W        W75514  33.409   5.016  12.562
 8732W        W75515  19.340   5.913   0.878
 8733W        W75516   0.300  42.464  11.187
 8734W        W75517  34.168  35.367   1.559
 8735W        W75518  41.756   4.867  12.685
 8736W        W75519  28.056  24.016   3.695
 8737W        W75520  35.736  43.181   3.665
 8738W        W75521   3.694   2.429   1.860
 8739W        W75522  38.960   0.425  12.892
 8740W        W75523  17.572  12.207  12.112
 8741W        W75524  17.861  13.343  13.510
 8742W        W75525   3.410  31.970  12.702
 8743W        W75526  44.245  26.159   0.873
 8744W        W75527  30.428  17.666  13.882
 8745W        W75528  20.762  14.425   2.934
 8746W        W75529   4.944  34.699  12.033
 8747W        W75530   0.618  29.669   3.841
 8748W        W75531  39.926  32.380   4.667
 8749W        W75532  39.182   4.324  11.606
 8750W        W75533  22.542   6.228   1.791
 8751W        W75534  24.219   3.054   3.123
 8752W        W75535  35.742  40.417  11.506
 8753W        W75536   6.865  23.175  13.972
 8754W        W75537  25.453  30.103   2.262
 8755W        W75538  31.093  38.735  14.102
 8756W        W75539   4.238  22.763  10.718
 8757W        W75540  10.561  24.935  11.616
 8758W        W75541   0.103  10.687  13.843
 8759W        W75542  41.472  41.840  12.379
 8760W        W75543  21.957  40.829  11.603
 8761W        W75544   1.411  12.787   0.676
 8762W        W75545   8.472  18.098   2.691
 8763W        W75546  30.494  10.789   0.209
 8764W        W75547  14.618  20.170   1.867
 8765W        W75548  24.415  38.017  13.351
 8766W        W75549  16.381  19.158  14.753
 8767W        W75550   4.778  10.434   0.824
 8768W        W75551  29.472   5.370  12.885
 8769W        W75552   2.238   6.284  13.448
 8770W        W75553  32.605  26.047  14.600
 8771W        W75554  26.911  38.260  10.289
 8772W        W75555  38.782  41.985   4.643
 8773W        W75556  15.792  13.219  10.855
 8774W        W75557   9.853   9.484  14.007
 8775W        W75558   5.465  28.440  12.111
 8776W        W75559  13.061  35.769  13.411
 8777W        W75560  25.268  35.496   4.600
 8778W        W75561  19.407  43.334   0.274
 8779W        W75562   5.955  13.310   3.931
 8780W        W75563   4.894  24.533   2.774
 8781W        W75564   8.995   6.692   1.296
 8782W        W75565   9.866  32.182   1.704
 8783W        W75566  12.132  37.428   2.836
 8784W        W75567   1.810  40.107  11.539
 8785W        W75568  33.232   4.840   3.364
 8786W        W75569  14.892  13.839   9.938
 8787W        W75570  40.028  39.861   3.269
 8788W        W75571  43.549  10.648  14.808
 8789W        W75572  26.494  32.664  13.416
 8790W        W75573  34.947  20.246  13.834
 8791W        W75574  16.021  18.645  14.402
 8792W        W75575   4.726  30.536   0.846
 8793W        W75576  44.068  33.129  12.923
 8794W        W75577  27.577  11.061  14.843
 8795W        W75578  23.370  35.321  14.859
 8796W        W75579  31.621  14.267   0.490
 8797W        W75580  31.352  34.376  12.678
 8798W        W75581  37.882   5.403  12.142
 8799W        W75582   0.310  13.179  10.159
 8800W        W75583   1.999  36.573   0.755
 8801W        W75584  32.404  37.369   3.174
 8802W        W75585  26.229   9.664   2.671
 8803W        W75586  14.246  40.243   1.693
 8804W        W75587  28.239  26.390  11.524
 8805W        W75588  35.483  39.734   0.182
 8806W        W75589   0.286   8.216  12.578
 8807W        W75590  28.518  40.100   0.286
 8808W        W75591  16.068  28.412   2.881
 8809W        W75592  26.442   0.070  14.477
 8810W        W75593  14.518  16.135   1.709
 8811W        W75594  35.805  38.953  13.806
 8812W        W75595  12.441  33.575  14.379
 8813W        W75596  27.207   1.204   1.411
 8814W        W75597  25.367  36.696   5.084
 8815W        W75598   0.842   0.368   1.910
 8816W        W75599  11.928  40.921  13.285
 8817W        W75600   0.856  29.490   1.384
 8818W        W75601  41.057  42.198   1.767
 8819W        W75602  41.396  15.510  12.687
 8820W        W75603  13.272  41.217  11.161
 8821W        W75604  41.972  35.856  10.768
 8822W        W75605  30.134  24.255   3.161
 8823W        W75606   0.302  29.946  10.785
 8824W        W75607   5.400  44.453  13.347
 8825W        W75608  44.547  27.469   0.544
 8826W        W75609   3.827  11.687   4.111
 8827W        W75610  30.910  15.320   1.427
 8828W        W75611  18.232  24.234  13.522
 8829W        W75612  21.711  42.008   1.900
 8830W        W75613  39.401   7.974  14.139
 8831W        W75614  17.432  34.979  13.538
 8832W        W75615  28.223  22.332  14.859
 8833W        W75616   1.367  17.406   4.048
 8834W        W75617  20.194  15.499   1.314
 8835W        W75618   5.524   2.659   0.814
 8836W        W75619   0.455  21.561   2.217
 8837W        W75620  39.019  33.217   1.838
 8838W        W75621  31.437  35.279  11.116
 8839W        W75622   1.441   0.156   3.071
 8840W        W75623  41.515  36.775   0.385
 8841W        W75624   0.287  43.797  13.774
 8842W        W75625  12.897  25.095   4.535
 8843W        W75626   1.665  33.299  10.498
 8844W        W75627  40.987  27.597   0.890
 8845W        W75628  22.137  15.148  11.083
 8846W        W75629  29.723  34.323  11.013
 8847W        W75630   3.959   6.201  13.160
 8848W        W75631   1.939   0.766   0.938
 8849W        W75632  20.828  10.662   4.286
 8850W        W75633   5.768  15.387   2.943
 8851W        W75634  25.081   5.468  11.474
 8852W        W75635   3.230  27.396  14.519
 8853W        W75636  21.569  25.766  11.530
 8854W        W75637  42.887  29.451  11.430
 8855W        W75638  29.857  44.645   1.682
 8856W        W75639  28.130  24.645  12.606
 8857W        W75640  37.022  40.766   1.852
 8858W        W75641  11.560  36.864   5.114
 8859W        W75642  23.052  34.367  11.362
 8860W        W75643  44.023  29.903   3.231
 8861W        W75644  22.344  21.637   0.326
 8862W        W75645   3.947   7.689   4.228
 8863W        W75646  20.855  34.377   1.411
 8864W        W75647  14.861  10.865  11.582
 8865W        W75648  33.438  28.606   1.653
 8866W        W75649  20.201  10.760  13.578
 8867W        W75650  16.529  17.287  13.833
 8868W        W75651  40.025   6.086   4.087
 8869W        W75652  14.425  35.029  12.071
 8870W        W75653  31.294  27.516   3.783
 8871W        W75654  36.048  42.314  12.505
 8872W        W75655   8.905   8.234  12.456
 8873W        W75656   9.815  17.161   2.708
 8874W        W75657  15.193  34.463   0.388
 8875W        W75658  34.920   9.309   3.644
 8876W        W75659  27.692  22.226  12.135
 8877W        W75660   1.229  19.594   3.689
 8878W        W75661  39.952   8.928  14.550
 8879W        W75662   3.487  20.544   1.820
 8880W        W75663   0.829  10.299   3.841
 8881W        W75664  24.535   0.530   4.055
 8882W        W75665  21.639  17.384   9.969
 8883W        W75666   7.444   8.645   0.870
 8884W        W75667  29.698  17.199  13.772
 8885W        W75668  21.701   9.246  14.977
 8886W        W75669  27.555   0.565   1.910
 8887W        W75670  10.916   6.869   4.625
 8888W        W75671  36.917  18.567   3.778
 8889W        W75672   7.716   1.730   3.717
 8890W        W75673  23.998   1.184   2.369
 8891W        W75674  20.336  28.115   0.294
 8892W        W75675   9.241  15.994   2.678
 8893W        W75676  21.057  28.354   0.924
 8894W        W75677   6.603   1.418  11.864
 8895W        W75678  27.547  10.335  13.021
 8896W        W75679   4.925  11.174   3.641
 8897W        W75680   2.765  33.099   0.362
 8898W        W75681  24.624  29.422   0.840
 8899W        W75682  42.408  17.181  13.948
 8900W        W75683  23.657  30.017   4.667
 8901W        W75684  33.064  34.823  12.034
 8902W        W75685  27.198  14.606   2.707
 8903W        W75686  43.245  33.108  11.468
 8904W        W75687  33.686   4.658  13.504
 8905W        W75688  17.919  37.485   3.117
 8906W        W75689  32.430   7.723  13.440
 8907W        W75690  42.294  24.990  13.821
 8908W        W75691  13.906  35.370   4.948
 8909W        W75692   2.583   0.857   2.728
 8910W        W75693  25.571  23.280  11.591
 8911W        W75694  44.443  20.117   0.833
 8912W        W75695  24.664  43.675  12.414
 8913W        W75696  11.852  23.920  12.612
 8914W        W75697   1.524  35.843   0.833
 8915W        W75698  14.042  11.395  12.125
 8916W        W75699  28.009   4.934  13.800
 8917W        W75700  21.509  13.104   2.262
 8918W        W75701  23.225   0.501   2.444
 8919W        W75702   3.901  29.982  12.543
 8920W        W75703   5.256   3.373  11.540
 8921W        W75704  31.790  25.532   0.550
 8922W        W75705   1.964  33.621  13.766
 8923W        W75706  21.787  22.149   2.437
 8924W        W75707  35.094  39.621   3.177
 8925W        W75708   9.566  24.394   1.869
 8926W        W75709   5.050  29.024  13.874
 8927W        W75710   1.228   6.575   0.808
 8928W        W75711   0.245   0.958  14.309
 8929W        W75712  18.485   9.253  13.502
 8930W        W75713  39.904  13.651   1.435
 8931W        W75714  38.696  42.910  11.583
 8932W        W75715   3.570  12.323   1.377
 8933W        W75716  35.622  28.154   3.762
 8934W        W75717  19.381  17.738   4.522
 8935W        W75718  27.760  16.380  14.981
 8936W        W75719  18.758  23.485   2.017
 8937W        W75720   6.753  22.331   3.158
 8938W        W75721  37.095  20.522  12.497
 8939W        W75722  34.952  34.982  14.468
 8940W        W75723  24.934  35.532  13.001
 8941W        W75724  36.409  39.331   2.084
 8942W        W75725  24.447  24.538  13.991
 8943W        W75726  11.896  26.204   1.053
 8944W        W75727   0.479   1.864   1.022
 8945W        W75728  27.058  33.620  11.115
 8946W        W75729  19.066  42.731   3.552
 8947W        W75730  22.355   3.176  11.485
 8948W        W75731  35.674  18.504   3.218
 8949W        W75732  42.950   6.198  10.694
 8950W        W75733  40.558  17.991   4.072
 8951W        W75734   2.007  20.146  12.205
 8952W        W75735  43.781  24.011  13.753
 8953W        W75736   3.991  36.822   4.185
 8954W        W75737   1.771  23.529  10.757
 8955W        W75738   2.723  11.151  11.622
 8956W        W75739   3.331   8.169   0.690
 8957W        W75740  23.474  13.554  11.217
 8958W        W75741   7.757  21.311   2.203
 8959W        W75742  40.460   9.553   4.454
 8960W        W75743  10.359   6.391   2.098
 8961W        W75744  22.456  26.466   3.689
 8962W        W75745  16.595  16.836  12.562
 8963W        W75746  27.536  12.578  14.939
 8964W        W75747  35.508  17.177  14.414
 8965W        W75748  15.422  24.990   3.102
 8966W        W75749  26.045  16.590   0.384
 8967W        W75750   6.987  21.104  13.786
 8968W        W75751  43.156  14.636  11.642
 8969W        W75752   6.938  39.573   4.035
 8970W        W75753  42.969  19.404  10.884
 8971W        W75754   5.504  37.407  11.959
 8972W        W75755   3.193   6.753   3.607
 8973W        W75756  30.861  36.901   4.199
 8974W        W75757  39.752  12.591   2.845
 8975W        W75758  37.248  11.652  12.538
 8976W        W75759  43.424  30.205   4.092
 8977W        W75760   6.410  13.865  13.873
 8978W        W75761   1.387   3.902   4.574
 8979W        W75762  22.852  20.261   0.678
 8980W        W75763  35.346  20.231   3.502
 8981W        W75764  32.369   3.778  10.641
 8982W        W75765  29.703  11.491   3.990
 8983W        W75766  30.184  31.364   4.806
 8984W        W75767  23.204  27.632  12.654
 8985W        W75768   5.374  21.791  10.626
 8986W        W75769  13.545   0.206   3.152
 8987W        W75770  19.278  29.634   3.705
 8988W        W75771  28.071  18.865  12.450
 8989W        W75772   3.677  20.211  14.237
 8990W        W75773  31.455  27.633   2.801
 8991W        W75774  39.797  13.717  14.474
 8992W        W75775  26.707  22.173   0.865
 8993W        W75776  35.081  14.203   0.555
 8994W        W75777  11.577  44.554   0.754
 8995W        W75778   1.825  37.985   1.091
 8996W        W75779   0.338  28.747   1.360
 8997W        W75780  37.046   3.789  13.880
 8998W        W75781   8.292   6.912  12.206
 8999W        W75782  41.628  24.023  13.758
 9000W        W75783  18.605  21.402   1.113
 9001W        W75784   6.538  22.767  13.990
 9002W        W75785   9.642  29.451  13.996
 9003W        W75786  25.624  30.654   3.133
 9004W        W75787  22.650  23.586  14.761
 9005W        W75788  28.273  18.242  13.053
 9006W        W75789  39.570  36.157  14.275
 9007W        W75790  19.042  25.493  13.077
 9008W        W75791  12.168  18.492   2.960
 9009W        W75792   0.994   0.331   2.923
 9010W        W75793   9.827  12.219  12.942
 9011W        W75794  31.947   8.373  14.514
 9012W        W75795  40.426  42.830   3.750
 9013W        W75796  42.888  25.435  14.454
 9014W        W75797   9.445  34.440  13.025
 9015W        W75798  29.422  43.694   3.535
 9016W        W75799  27.399  33.144   1.311
 9017W        W75800  10.139  23.091  14.943
 9018W        W75801  28.183  21.693  11.576
 9019W        W75802  30.705  13.971  11.979
 9020W        W75803  23.648  32.766   0.410
 9021W        W75804  41.952  32.552   1.322
 9022W        W75805  41.585   5.343  13.214
 9023W        W75806  20.017  44.402   1.207
 9024W        W75807  32.061  43.169  12.405
 9025W        W75808   6.816  40.787  10.709
 9026W        W75809  16.365  34.936   3.950
 9027W        W75810  33.633  19.508  11.965
 9028W        W75811  14.327  19.817   3.228
 9029W        W75812   3.329  14.534   3.539
 9030W        W75813  29.930  18.086  10.801
 9031W        W75814   1.349  33.978   1.302
 9032W        W75815  11.362  37.340   5.079
 9033W        W75816  22.711   2.876  10.835
 9034W        W75817   3.546   4.698  14.932
 9035W        W75818  44.710  30.437   3.709
 9036W        W75819  32.017  21.865  13.354
 9037W        W75820  39.219  36.806   1.446
 9038W        W75821  31.835  16.360   1.913
 9039W        W75822  24.411   2.461   2.246
 9040W        W75823  11.323  39.504  14.032
 9041W        W75824  15.190  11.606  12.837
 9042W        W75825  39.607   5.299   1.711
 9043W        W75826   7.523  23.592  10.619
 9044W        W75827  40.994  32.407  13.160
 9045W        W75828   4.688  25.640   3.298
 9046W        W75829  35.365  31.647  13.940
 9047W        W75830  15.169  24.670   0.914
 9048W        W75831   7.311  41.583  11.940
 9049W        W75832  34.360  37.151   4.099
 9050W        W75833  13.186  41.720  10.980
 9051W        W75834  20.479  31.284  10.515
 9052W        W75835  15.341  40.023  12.177
 9053W        W75836  12.542   0.492   4.205
 9054W        W75837  24.282  44.031   1.055
 9055W        W75838  16.176   6.319  13.605
 9056W        W75839  33.034  12.739   4.762
 9057W        W75840  17.762   6.602   0.972
 9058W        W75841  34.169  13.288  13.868
 9059W        W75842  13.106   0.301  10.676
 9060W        W75843  44.271  39.092  12.833
 9061W        W75844  10.384  14.921   3.998
 9062W        W75845  27.357  21.242   2.538
 9063W        W75846   8.897   1.895  14.105
 9064W        W75847  29.413  18.318   3.677
 9065W        W75848  20.074  31.442   5.091
 9066W        W75849  27.175  21.352   1.225
 9067W        W75850  28.539  39.024  12.934
 9068W        W75851  32.541  39.002   3.261
 9069W        W75852  25.592   8.281   4.005
 9070W        W75853  10.108  39.049   0.965
 9071W        W75854  15.478  25.932  12.974
 9072W        W75855   2.690   6.352   0.761
 9073W        W75856  34.962   6.886   2.278
 9074W        W75857   3.636  37.421  11.657
 9075W        W75858  35.516  10.913   1.186
 9076W        W75859  19.273  32.991   1.362
 9077W        W75860  32.519  36.114   2.797
 9078W        W75861  11.060  11.525  13.009
 9079W        W75862  17.520  21.227   3.097
 9080W        W75863  12.880   7.681  13.795
 9081W        W75864  12.781  18.132   4.484
 9082W        W75865  34.139  25.501   2.838
 9083W        W75866  12.296  38.886  14.835
 9084W        W75867  21.506  24.465   2.389
 9085W        W75868  41.465  26.821   3.082
 9086W        W75869  20.003  40.476  12.510
 9087W        W75870  19.232  23.302  12.223
 9088W        W75871  39.065   8.610   4.153
 9089W        W75872  44.445  19.791   0.423
 9090W        W75873  13.813  34.995   3.578
 9091W        W75874  16.280   5.156   2.912
 9092W        W75875  21.151  14.546   3.307
 9093W        W75876  31.130  28.057   4.528
 9094W        W75877  22.397  32.756  14.252
 9095W        W75878  33.889   2.856  13.560
 9096W        W75879   5.757   7.711  11.533
 9097W        W75880   6.229   3.835  13.016
 9098W        W75881  27.035  25.998   3.168
 9099W        W75882   3.403  40.034   5.257
 9100W        W75883  23.003  19.111  12.052
 9101W        W75884   9.860  23.974  14.993
 9102W        W75885  44.983   9.749  12.929
 9103W        W75886  42.474   2.410   4.508
 9104W        W75887  25.529  26.970  11.644
 9105W        W75888  38.270   9.751  13.963
 9106W        W75889  18.069  26.168   3.843
 9107W        W75890   8.217  38.023  10.527
 9108W        W75891   4.255  19.004  14.289
 9109W        W75892  36.332  22.815  14.422
 9110W        W75893  34.915   9.843   0.085
 9111W        W75894  21.326  19.077   1.267
 9112W        W75895  23.707   1.694   0.040
 9113W        W75896  11.092  23.181  14.799
 9114W        W75897  12.966  43.636  12.425
 9115W        W75898  29.148  39.077  11.707
 9116W        W75899  21.710   5.601  14.977
 9117W        W75900   3.699  38.946  14.471
 9118W        W75901  14.129  34.066   1.282
 9119W        W75902   8.825  40.910  13.217
 9120W        W75903  33.508  16.352  11.921
 9121W        W75904  10.311  40.878   3.084
 9122W        W75905  29.315   0.955   5.136
 9123W        W75906  14.819   8.540   0.738
 9124W        W75907  16.023  31.081   1.369
 9125W        W75908   5.676  43.956   2.816
 9126W        W75909  24.998  40.894  12.106
 9127W        W75910  20.976  41.743   4.082
 9128W        W75911  10.758  17.208   1.720
 9129W        W75912  26.990  12.606   0.634
 9130W        W75913   6.777  16.834  12.877
 9131W        W75914  21.147  44.665   2.713
 9132W        W75915  34.612  19.273   4.075
 9133W        W75916   7.342  41.756   3.193
 9134W        W75917  21.904  16.127   3.620
 9135W        W75918  13.918   8.713  11.963
 9136W        W75919  26.717  15.877  14.325
 9137W        W75920   9.732  44.697  12.560
 9138W        W75921   3.302  41.173  11.530
 9139W        W75922  13.082  19.563  14.968
 9140W        W75923  35.292   2.450  12.204
 9141W        W75924   8.488  20.653   3.048
 9142W        W75925  16.791  35.012  10.775
 9143W        W75926  40.855  39.795  11.090
 9144W        W75927   6.765  15.986  13.940
 9145W        W75928  31.411  38.562   0.905
 9146W        W75929  38.450  10.925  12.476
 9147W        W75930   5.305  37.376  12.423
 9148W        W75931   5.200  24.936  10.777
 9149W        W75932  41.119  19.579   5.240
 9150W        W75933   2.279  18.740  11.251
 9151W        W75934   1.931   5.025  11.494
 9152W        W75935  14.083  19.666  14.815
 9153W        W75936  12.135  35.593   4.226
 9154W        W75937  15.852  43.873   1.513
 9155W        W75938  35.881  43.017  11.213
 9156W        W75939  18.434   1.962  13.072
 9157W        W75940   3.350  40.308   3.867
 9158W        W75941  31.873  27.362  12.520
 9159W        W75942  39.344  16.370  14.029
 9160W        W75943  43.816   5.214   3.786
 9161W        W75944  42.292  36.902  13.029
 9162W        W75945  40.807   7.838  12.877
 9163W        W75946  24.176  23.564   0.251
 9164W        W75947   4.703   5.401   4.670
 9165W        W75948  37.965   6.926  13.958
 9166W        W75949  16.542   6.138   3.168
 9167W        W75950  42.262   3.495  13.826
 9168W        W75951  14.681   0.251   4.937
 9169W        W75952  23.782   2.710  14.782
 9170W        W75953  42.954  29.921  13.586
 9171W        W75954  21.219   1.007  10.773
 9172W        W75955  39.241  39.346  11.521
 9173W        W75956   4.344   3.851  10.961
 9174W        W75957   7.915  30.516  13.058
 9175W        W75958   8.725  42.089  11.640
 9176W        W75959   8.389  32.796  13.580
 9177W        W75960  33.144   9.916  14.843
 9178W        W75961   4.836  44.325   0.442
 9179W        W75962  26.474   4.428   1.733
 9180W        W75963  18.207  27.516   3.872
 9181W        W75964   8.670  42.405   2.809
 9182W        W75965  15.135  37.084   0.849
 9183W        W75966  44.271  42.268  14.632
 9184W        W75967  23.946   3.531   3.193
 9185W        W75968  42.998  30.454  11.996
 9186W        W75969  24.117  12.401  11.282
 9187W        W75970  21.170  15.671   1.650
 9188W        W75971  43.531  25.312  14.894
 9189W        W75972   8.395  39.936   1.658
 9190W        W75973  26.152  44.827  14.889
 9191W        W75974  14.086  42.089  11.119
 9192W        W75975  43.641  13.264  12.107
 9193W        W75976   2.719  31.124  14.311
 9194W        W75977  12.791   7.255  10.127
 9195W        W75978  40.010  34.666  14.435
 9196W        W75979  24.621  19.690  14.532
 9197W        W75980  12.358  28.235  13.031
 9198W        W75981  32.525  41.353  13.349
 9199W        W75982   6.622  10.151  11.963
 9200W        W75983  30.850  38.891   4.105
 9201W        W75984   8.233  26.563  13.503
 9202W        W75985  20.303  28.995  13.381
 9203W        W75986  33.267  31.632  11.067
 9204W        W75987   5.361  18.765   0.813
 9205W        W75988   2.459  42.996  13.805
 9206W        W75989  14.375  33.964  13.283
 9207W        W75990  22.685  13.599  14.093
 9208W        W75991  38.363  36.975   0.889
 9209W        W75992  43.064  34.949  12.080
 9210W        W75993  37.781  20.477   3.197
 9211W        W75994   6.357  34.988   2.227
 9212W        W75995  27.099  12.651   4.218
 9213W        W75996  17.184   8.774  12.698
 9214W        W75997  41.643  27.579  14.992
 9215W        W75998  28.884  28.533   2.297
 9216W        W75999  30.566  41.518  12.020
 9217W        W76000  10.871  25.834  14.479
 9218W        W76001   6.835  38.946   2.886
 9219W        W76002  43.249   3.666  13.525
 9220W        W76003  33.531  20.908  11.725
 9221W        W76004  17.359  30.882   0.889
 9222W        W76005  39.820   8.895   1.024
 9223W        W76006  17.112  25.199   4.021
 9224W        W76007  27.580  30.664  11.022
 9225W        W76008  17.754   9.522  14.238
 9226W        W76009  25.184   6.141   2.378
 9227W        W76010  18.783   9.661   4.886
 9228W        W76011  39.864   2.766   0.871
 9229W        W76012  14.092  41.878   3.769
 9230W        W76013   5.127  11.317  10.982
 9231W        W76014  31.993  36.289   1.803
 9232W        W76015  39.166  10.243   3.107
 9233W        W76016   5.844  31.699  13.276
 9234W        W76017  18.323   0.524   2.323
 9235W        W76018  35.917  21.968   2.903
 9236W        W76019  37.107  36.384   3.250
 9237W        W76020  12.750  38.588   2.832
 9238W        W76021  37.480  44.757  13.567
 9239W        W76022  32.398  38.567  14.001
 9240W        W76023  23.725  33.609   3.334
 9241W        W76024  19.065   8.534  13.715
 9242W        W76025   4.657  38.406  13.367
 9243W        W76026  21.175  23.565   2.686
 9244W        W76027  42.860  13.344  12.372
 9245W        W76028  25.494   6.641  10.656
 9246W        W76029  18.472  15.544  14.872
 9247W        W76030  11.793   2.920  11.698
 9248W        W76031  40.917  35.954   1.266
 9249W        W76032  20.752  11.685  13.425
 9250W        W76033  12.234  12.717  12.711
 9251W        W76034  32.058   5.428   0.901
 9252W        W76035  25.530   2.591  10.729
 9253W        W76036  34.597  42.418   2.255
 9254W        W76037  20.837  28.419  12.851
 9255W        W76038   0.350  13.774   0.567
 9256W        W76039  18.304   6.364  13.361
 9257W        W76040   1.786   3.969  12.150
 9258W        W76041  15.008   8.519   2.221
 9259W        W76042  20.722  13.899  11.604
 9260W        W76043  30.049  11.740   1.895
 9261W        W76044  44.539  29.995   4.686
 9262W        W76045  40.326  42.952   0.428
 9263W        W76046  17.393  39.471   0.167
 9264W        W76047  18.337  43.160   4.565
 9265W        W76048  41.076  10.608  11.635
 9266W        W76049  44.019  16.407  14.505
 9267W        W76050  38.087  19.086   2.378
 9268W        W76051  38.967  23.976  13.055
 9269W        W76052  31.523   4.447   3.461
 9270W        W76053  44.889  41.748   0.107
 9271W        W76054  18.450  26.297   3.493
 9272W        W76055  11.677  23.256   0.204
 9273W        W76056  39.174  13.675   9.723
 9274W        W76057  21.595  11.367  14.410
 9275W        W76058   3.242  34.473  11.319
 9276W        W76059   2.051   6.365   1.578
 9277W        W76060   7.277  40.021  10.677
 9278W        W76061  13.208  33.192   2.349
 9279W        W76062  34.396  39.603  13.355
 9280W        W76063  26.433  19.640   1.312
 9281W        W76064   3.964  30.600  13.026
 9282W        W76065  43.402  44.807   3.698
 9283W        W76066  44.480  36.315   2.387
 9284W        W76067  21.180   0.785  13.900
 9285W        W76068  37.025  22.031  13.289
 9286W        W76069  28.892  11.631   0.855
 9287W        W76070  28.596  40.827   0.909
 9288W        W76071  36.199  22.383  13.119
 9289W        W76072  18.546  11.222   4.158
 9290W        W76073   1.323  22.970  13.246
 9291W        W76074  25.281   1.034  13.953
 9292W        W76075  10.782  36.301   3.400
 9293W        W76076  32.867   7.166   3.340
 9294W        W76077   4.098  35.069  11.095
 9295W        W76078   5.866  41.858  13.042
 9296W        W76079  28.557  17.245   1.461
 9297W        W76080  30.940  19.609   0.329
 9298W        W76081  18.137  23.952   1.428
 9299W        W76082  36.844  22.791  11.055
 9300W        W76083  31.517   6.038  14.701
 9301W        W76084  32.541  43.905   3.210
 9302W        W76085  37.441   2.425   1.656
 9303W        W76086  18.678  14.249   1.604
 9304W        W76087  41.247  28.007   0.281
 9305W        W76088  43.464  31.154   1.335
 9306W        W76089  23.849   1.896   1.782
 9307W        W76090  21.676  41.440   4.415
 9308W        W76091  13.182  31.564   3.088
 9309W        W76092  11.697  10.480   1.929
 9310W        W76093  41.662  31.169   4.874
 9311W        W76094  11.982  35.792  14.253
 9312W        W76095  25.745  26.121  12.331
 9313W        W76096  25.627  41.478   2.303
 9314W        W76097  24.951   7.812   0.767
 9315W        W76098   3.489   5.412   3.215
 9316W        W76099   2.274  32.985   1.139
 9317W        W76100  41.320  22.221  10.690
 9318W        W76101  18.577   8.124  12.387
 9319W        W76102   1.739   4.180   4.883
 9320W        W76103  15.775  43.938  14.974
 9321W        W76104  11.437  35.391  13.067
 9322W        W76105  16.652  32.810  14.882
 9323W        W76106  31.570  25.057   0.346
 9324W        W76107  30.654  18.640  14.525
 9325W        W76108  23.612  29.154  14.436
 9326W        W76109  27.669  38.844   4.502
 9327W        W76110   7.701  17.137   3.143
 9328W        W76111  11.631  18.294  12.314
 9329W        W76112  13.152  18.615   2.312
 9330W        W76113   7.561   4.585   0.812
 9331W        W76114   8.227   3.012  14.513
 9332W        W76115   9.230  24.588   0.333
 9333W        W76116  41.029  27.732  13.554
 9334W        W76117  14.848  23.450   3.814
 9335W        W76118  43.151   2.615  14.269
 9336W        W76119   2.340  21.459   1.306
 9337W        W76120  17.613   9.315   1.607
 9338W        W76121   0.444  44.879   4.321
 9339W        W76122   4.826  14.647  14.380
 9340W        W76123  42.533   8.397   1.810
 9341W        W76124  43.579  23.782   1.267
 9342W        W76125  11.662  43.870   2.328
 9343W        W76126  17.958  10.639  13.284
 9344W        W76127  17.792  25.197  10.790
 9345W        W76128  30.572  12.118   2.667
 9346W        W76129   8.746  33.319  11.015
 9347W        W76130  36.984  35.785  11.553
 9348W        W76131  27.990   0.465   3.887
 9349W        W76132  30.122  27.148   2.263
 9350W        W76133   7.258  13.905   3.463
 9351W        W76134  28.181  11.383  12.028
 9352W        W76135  36.625  17.270  11.594
 9353W        W76136  37.432  32.831   2.285
 9354W        W76137  29.682  19.592  14.015
 9355W        W76138   1.715   0.438  11.705
 9356W        W76139   4.219  42.525  12.454
 9357W        W76140  17.337  21.208  13.267
 9358W        W76141   1.324  13.755   3.280
 9359W        W76142  39.733  16.225  11.623
 9360W        W76143   6.867  16.682   0.184
 9361W        W76144   8.922  36.482  14.460
 9362W        W76145  11.447  28.923  11.593
 9363W        W76146  27.957  41.256  11.571
 9364W        W76147  16.991   2.595   2.636
 9365W        W76148  22.308  41.238   5.045
 9366W        W76149  21.606  25.739  14.758
 9367W        W76150  10.354  26.688  10.825
 9368W        W76151  44.351   6.652   3.545
 9369W        W76152  36.082   4.988   4.086
 9370W        W76153  39.811  40.715  10.807
 9371W        W76154  26.532   4.894  13.631
 9372W        W76155   8.574  22.210  13.096
 9373W        W76156  32.626  18.075   5.486
 9374W        W76157   1.957  37.842  14.217
 9375W        W76158  16.317  17.215  11.108
 9376W        W76159  37.231  31.948   2.611
 9377W        W76160  10.226  27.669  13.176
 9378W        W76161  30.427  26.446   2.690
 9379W        W76162   6.192  33.143  14.419
 9380W        W76163  20.483  22.024  11.178
 9381W        W76164  36.983  25.818  14.290
 9382W        W76165   3.586  31.184   0.379
 9383W        W76166   2.919  12.105  12.082
 9384W        W76167  30.024  23.270  12.986
 9385W        W76168  39.609  14.764  12.495
 9386W        W76169  27.631  26.580  13.131
 9387W        W76170  21.108  32.851  11.125
 9388W        W76171  20.590  32.392  14.411
 9389W        W76172  18.212  38.566   4.616
 9390W        W76173   9.538   5.177   2.769
 9391W        W76174  29.053  24.595   0.896
 9392W        W76175  16.136  42.458   2.964
 9393W        W76176  44.744   6.257   2.875
 9394W        W76177  11.281  26.019   3.340
 9395W        W76178  26.708  33.909  14.041
 9396W        W76179  37.302  32.476  12.065
 9397W        W76180  19.724  12.186  11.601
 9398W        W76181  16.035   3.110   0.464
 9399W        W76182   7.847  19.325   2.658
 9400W        W76183  12.140  36.361  12.061
 9401W        W76184  38.479  15.753   2.937
 9402W        W76185  22.995   7.959  14.962
 9403W        W76186  43.346  35.495  13.129
 9404W        W76187  17.907  35.549  11.512
 9405W        W76188  28.018  38.326   0.986
 9406W        W76189  13.648  21.348   3.923
 9407W        W76190  17.243   6.454   4.134
 9408W        W76191  38.049  42.936  13.125
 9409W        W76192  12.646  39.332  14.844
 9410W        W76193  20.764  20.572  11.484
 9411W        W76194  11.883  25.041   4.909
 9412W        W76195  19.944  41.846   1.246
 9413W        W76196   0.950  37.917  10.711
 9414W        W76197  26.969  10.160   3.389
 9415W        W76198  43.890   5.245  11.066
 9416W        W76199  25.169  30.058  11.163
 9417W        W76200  33.174   8.382  14.931
 9418W        W76201  34.037  17.600   5.446
 9419W        W76202  20.653  22.226  14.143
 9420W        W76203  25.291  34.161   3.947
 9421W        W76204   1.070  28.180  14.176
 9422W        W76205   2.318  34.019  10.681
 9423W        W76206  39.862  18.117  13.800
 9424W        W76207  36.050  38.314  10.698
 9425W        W76208   3.761  17.633   0.414
 9426W        W76209  24.531   3.838   2.086
 9427W        W76210  42.192  20.694   3.571
 9428W        W76211  30.511  17.759   2.992
 9429W        W76212  42.942  30.627  14.313
 9430W        W76213  26.976  11.624  10.793
 9431W        W76214  13.543  17.848   2.533
 9432W        W76215  24.532  35.138   1.456
 9433W        W76216  37.321  33.708   5.125
 9434W        W76217  16.648  19.719   1.306
 9435W        W76218   0.823  42.507   2.462
 9436W        W76219  37.876  26.079   1.525
 9437W        W76220  31.113   6.792   1.295
 9438W        W76221  43.409  13.097   2.267
 9439W        W76222  22.641  29.618  10.678
 9440W        W76223   0.294  42.786  10.262
 9441W        W76224  32.627  16.382  13.107
 9442W        W76225   2.898  16.237   0.989
 9443W        W76226  16.900  43.037   2.357
 9444W        W76227  14.762  11.590   2.892
 9445W        W76228  40.363  20.506  12.963
 9446W        W76229  18.421  39.057  11.473
 9447W        W76230   2.839   6.850   2.426
 9448W        W76231  16.957  19.974   4.503
 9449W        W76232   6.924   7.151  12.073
 9450W        W76233   2.238  26.104  10.790
 9451W        W76234  28.774  27.910  14.963
 9452W        W76235  12.621  16.553   1.017
 9453W        W76236  16.572  44.244   3.173
 9454W        W76237  26.554  34.009   1.789
 9455W        W76238  11.091  20.215   4.144
 9456W        W76239   3.883   8.878   0.886
 9457W        W76240  11.783   7.282  11.909
 9458W        W76241  16.706   4.869   2.852
 9459W        W76242  18.420  15.793   3.578
 9460W        W76243  29.078   7.963  13.243
 9461W        W76244   3.794  14.574   3.344
 9462W        W76245  12.347  18.551   1.959
 9463W        W76246  44.110  25.916   2.282
 9464W        W76247  11.789  10.155   4.946
 9465W        W76248   6.799  44.059  14.012
 9466W        W76249  33.573  18.564  12.917
 9467W        W76250   4.475  43.832   4.713
 9468W        W76251  39.381   7.224   2.133
 9469W        W76252  38.282  16.593  11.206
 9470W        W76253  25.402  38.364  10.739
 9471W        W76254  30.321  19.414   2.061
 9472W        W76255  33.881  11.073   1.754
 9473W        W76256  14.703  27.872  12.478
 9474W        W76257  24.297  35.925  13.323
 9475W        W76258  12.044  25.143   2.642
 9476W        W76259  13.672  16.245   1.779
 9477W        W76260  17.579  20.297  11.627
 9478W        W76261  18.469  26.593   0.218
 9479W        W76262  27.608  23.199   2.479
 9480W        W76263  35.868   1.900   2.564
 9481W        W76264  44.877  34.061   1.676
 9482W        W76265  41.322  15.334  13.969
 9483W        W76266  39.732  17.001   1.386
 9484W        W76267  28.240  27.726   3.274
 9485W        W76268   3.350  21.647   3.628
 9486W        W76269  44.375  38.327   0.789
 9487W        W76270  35.357  29.450   2.807
 9488W        W76271  31.484  14.433   4.155
 9489W        W76272  31.364  21.788   4.905
 9490W        W76273  11.473  17.777  12.527
 9491W        W76274   2.066  15.604  10.263
 9492W        W76275  43.230  18.212   1.640
 9493W        W76276  33.397  26.062   1.893
 9494W        W76277  23.632  18.701   0.208
 9495W        W76278  21.438   1.382  12.622
 9496W        W76279   2.864  15.730   0.564
 9497W        W76280  38.671  25.517   5.022
 9498W        W76281  11.637  30.412   3.325
 9499W        W76282  18.981  24.664   0.344
 9500W        W76283   9.422   4.647   0.739
 9501W        W76284   5.601  37.510   3.670
 9502W        W76285   8.252  24.754   4.744
 9503W        W76286  21.695  37.891   4.813
 9504W        W76287  40.924  17.654  12.751
 9505W        W76288   5.134  28.100  12.342
 9506W        W76289   3.279  30.345  11.871
 9507W        W76290  36.332  22.620   5.068
 9508W        W76291  10.842  19.408   4.395
 9509W        W76292  25.652  34.631   1.157
 9510W        W76293  18.545  25.312   3.678
 9511W        W76294  41.546  20.710  13.463
 9512W        W76295  13.799  23.000  12.166
 9513W        W76296  21.968  11.147  11.898
 9514W        W76297   8.840  23.720   4.976
 9515W        W76298   2.133   4.676   3.267
 9516W        W76299   0.894   0.968  10.753
 9517W        W76300  11.813  14.103   1.742
 9518W        W76301  23.010  40.177   2.893
 9519W        W76302  25.642  39.874   3.067
 9520W        W76303  36.077  16.817  10.762
 9521W        W76304  18.331   5.826  13.527
 9522W        W76305  12.239  37.947   4.499
 9523W        W76306  42.214   6.610   4.458
 9524W        W76307  20.029   7.224   2.383
 9525W        W76308  25.869  13.166   0.351
 9526W        W76309  24.006  35.033   4.204
 9527W        W76310  22.614  24.056  11.161
 9528W        W76311   9.040  38.752  14.991
 9529W        W76312   3.754   6.798   1.850
 9530W        W76313   1.337  44.392  10.702
 9531W        W76314  42.001  36.817   3.530
 9532W        W76315  42.925  43.352   2.847
 9533W        W76316  32.134  32.442  10.670
 9534W        W76317  17.054  42.937  12.851
 9535W        W76318   6.790  24.209  12.836
 9536W        W76319   7.826  39.585  12.692
 9537W        W76320  37.257  42.823   0.454
 9538W        W76321  38.717  36.125   3.638
 9539W        W76322  38.914  28.316  11.479
 9540W        W76323   4.878  12.347   4.193
 9541W        W76324   5.049  35.810   1.759
 9542W        W76325   7.913  22.979  13.495
 9543W        W76326  31.848   4.220   2.022
 9544W        W76327  16.161  25.315  13.910
 9545W        W76328  17.497  43.150   3.213
 9546W        W76329  22.354  37.329   5.006
 9547W        W76330  23.194  33.923  12.122
 9548W        W76331   1.427  22.566   4.060
 9549W        W76332  43.954  36.712   4.245
 9550W        W76333   1.857  26.120   0.089
 9551W        W76334   8.923  18.110  10.604
 9552W        W76335   6.765   0.656   4.559
 9553W        W76336   9.613  40.871   2.172
 9554W        W76337  19.979  30.920  13.350
 9555W        W76338   9.925  11.274   1.307
 9556W        W76339  40.890  14.197  12.596
 9557W        W76340  28.031  26.457   1.360
 9558W        W76341  14.731   4.323   3.870
 9559W        W76342  42.785   0.487  11.104
 9560W        W76343  11.603  18.097  14.307
 9561W        W76344  11.746  36.660  12.848
 9562W        W76345  29.571  29.601  12.913
 9563W        W76346  17.040   3.499  13.365
 9564W        W76347  36.360  15.079  13.057
 9565W        W76348  41.015  27.197  13.401
 9566W        W76349   3.726  37.377  14.636
 9567W        W76350  35.513   5.682  11.248
 9568W        W76351  22.220  31.945  11.936
 9569W        W76352  19.483  21.837   0.216
 9570W        W76353  14.118  31.788  14.558
 9571W        W76354  12.433  43.423   4.186
 9572W        W76355  11.379  23.009  11.590
 9573W        W76356  39.413  27.642   4.995
 9574W        W76357   6.234   4.849   0.947
 9575W        W76358  37.877  21.272  13.951
 9576W        W76359  36.615  35.982   2.653
 9577W        W76360   4.897   2.259   2.896
 9578W        W76361  31.529  19.511  13.951
 9579W        W76362  42.893  26.298  10.690
 9580W        W76363   2.223  43.865   2.829
 9581W        W76364   8.069  44.021  12.237
 9582W        W76365  31.389   3.062  14.707
 9583W        W76366  16.957  34.824  14.911
 9584W        W76367   5.285  19.008  11.586
 9585W        W76368  11.371   0.313   2.183
 9586W        W76369  12.233  32.202   3.302
 9587W        W76370  43.519  32.464   1.210
 9588W        W76371   5.031  44.503  11.123
 9589W        W76372  29.134   5.856   2.834
 9590W        W76373   7.112  37.048   0.320
 9591W        W76374  34.242  19.225   0.447
 9592W        W76375  31.926  28.218   0.623
 9593W        W76376  18.718  11.637  14.416
 9594W        W76377  31.627  38.346   0.419
 9595W        W76378  41.253  11.107  11.062
 9596W        W76379  40.177  42.422   2.825
 9597W        W76380  38.647   3.357   0.363
 9598W        W76381  36.891   4.738   3.629
 9599W        W76382   6.901   7.650  12.045
 9600W        W76383  32.667   9.430  11.014
 9601W        W76384  15.047   7.244   2.051
 9602W        W76385  35.253   0.964  14.697
 9603W        W76386  15.847   9.864   5.132
 9604W        W76387   1.930  16.073   2.362
 9605W        W76388   6.694  22.466  13.522
 9606W        W76389   3.014  28.580   1.272
 9607W        W76390   8.249  22.240  11.946
 9608W        W76391  15.388  40.133  14.590
 9609W        W76392  30.499  30.424   0.394
 9610W        W76393   6.319  22.137  13.458
 9611W        W76394  41.600   1.192  12.592
 9612W        W76395  39.341  21.838   0.839
 9613W        W76396  41.855  38.779  13.778
 9614W        W76397   5.146  27.209   1.693
 9615W        W76398  21.652   9.912  13.012
 9616W        W76399  25.035  29.121  12.231
 9617W        W76400  42.689  12.176  11.125
 9618W        W76401  34.134  15.686   1.858
 9619W        W76402  12.129  38.594   2.343
 9620W        W76403  27.132   2.202  11.515
 9621W        W76404  31.861  20.990   1.691
 9622W        W76405   4.204  23.345  14.893
 9623W        W76406  40.771   4.603   2.824
 9624W        W76407   9.195  42.290   0.024
 9625W        W76408  42.536  23.611  11.486
 9626W        W76409   6.515   1.877   4.758
 9627W        W76410   4.598   3.481   1.398
 9628W        W76411  11.633  16.692  10.705
 9629W        W76412   7.993  36.373  12.170
 9630W        W76413  34.150  10.642   2.748
 9631W        W76414   4.380  34.039   1.725
 9632W        W76415  43.826  42.279   2.926
 9633W        W76416  19.848   3.966  11.966
 9634W        W76417  15.106  35.051  12.042
 9635W        W76418  38.830   5.721   4.177
 9636W        W76419  29.808  19.187  10.068
 9637W        W76420  33.918  10.342  14.509
 9638W        W76421   7.409   2.862   2.043
 9639W        W76422  38.909   8.969   2.846
 9640W        W76423  13.106   9.579   3.179
 9641W        W76424   6.503  30.079  11.106
 9642W        W76425  17.159  38.492  10.604
 9643W        W76426  30.354  22.973   9.882
 9644W        W76427  30.332  20.578   4.130
 9645W        W76428  22.973  22.967   3.862
 9646W        W76429  28.598  31.562   3.344
 9647W        W76430   1.779   5.439   1.966
 9648W        W76431  33.369   9.413  13.530
 9649W        W76432   0.997   9.889  12.868
 9650W        W76433  39.400   2.450  14.552
 9651W        W76434   2.971  10.058   1.804
 9652W        W76435   6.197  40.004   3.596
 9653W        W76436  27.839  25.420   1.688
 9654W        W76437  31.836   7.271   2.140
 9655W        W76438  29.032  33.859  14.907
 9656W        W76439  24.925   3.019   1.260
 9657W        W76440  11.867  10.699  11.466
 9658W        W76441   0.679  12.827   4.980
 9659W        W76442  26.701  20.117  10.554
 9660W        W76443  30.648   2.899   4.570
 9661W        W76444   5.856   5.722  14.093
 9662W        W76445   3.083  35.290  11.163
 9663W        W76446   6.912  35.110   2.860
 9664W        W76447  22.415  17.678  14.537
 9665W        W76448  27.561  26.903   1.932
 9666W        W76449   0.910  44.135   4.204
 9667W        W76450  32.743  18.624   4.629
 9668W        W76451  32.148   2.614   2.741
 9669W        W76452  14.234   1.334  10.731
 9670W        W76453  44.523  39.529   4.444
 9671W        W76454  31.193  25.309   3.837
 9672W        W76455  14.198  21.101   3.300
 9673W        W76456  44.589  15.165   2.277
 9674W        W76457  29.030  21.032   2.288
 9675W        W76458  16.349  33.394   0.810
 9676W        W76459   9.171  15.087  11.075
 9677W        W76460  27.576  13.732  10.779
 9678W        W76461  40.029  10.336   2.043
 9679W        W76462  30.092  33.228  13.436
 9680W        W76463  37.057  29.702  11.989
 9681W        W76464  41.799  30.431   0.971
 9682W        W76465  14.070  23.449  14.296
 9683W        W76466  11.670  17.815  10.649
 9684W        W76467   3.286  42.461   0.391
 9685W        W76468   7.790  14.246  11.097
 9686W        W76469   3.904  36.890  12.535
 9687W        W76470  28.274  23.711  14.592
 9688W        W76471   4.647  26.520   2.751
 9689W        W76472  19.945  43.342   0.194
 9690W        W76473  30.065  33.657  10.498
 9691W        W76474  21.168  44.680  11.123
 9692W        W76475  23.990   4.753   4.015
 9693W        W76476  34.577  42.984   4.029
 9694W        W76477  23.717  43.420  10.850
 9695W        W76478  12.368  13.255   3.335
 9696W        W76479  39.469  30.595   1.820
 9697W        W76480  16.388  25.142  11.084
 9698W        W76481  39.469   8.118  11.139
 9699W        W76482  25.200  39.347   4.143
 9700W        W76483  25.439  43.447   0.328
 9701W        W76484  35.435  40.038  10.788
 9702W        W76485   2.680  12.183   3.275
 9703W        W76486  41.799  18.770  10.759
 9704W        W76487   8.232  11.309  13.952
 9705W        W76488  38.518  18.704  14.032
 9706W        W76489  26.932  28.027  12.855
 9707W        W76490  25.994   5.836   2.722
 9708W        W76491  24.673  12.648   2.682
 9709W        W76492  38.317  20.679   2.308
 9710W        W76493  22.651  24.556  11.057
 9711W        W76494  19.312  12.825  11.167
 9712W        W76495   5.740  15.059  11.992
 9713W        W76496  26.202  11.899   0.672
 9714W        W76497   8.260  41.101   3.869
 9715W        W76498  36.378   3.015   2.136
 9716W        W76499  33.653  15.843   3.714
 9717W        W76500   5.194  38.821  10.213
 9718W        W76501  28.050  12.093  12.982
 9719W        W76502  15.096  37.886  14.266
 9720W        W76503  16.624   7.128  11.745
 9721W        W76504  31.296   9.371  10.592
 9722W        W76505  24.676  24.952   1.890
 9723W        W76506  15.052  28.081   0.063
 9724W        W76507   9.460  29.213   2.917
 9725W        W76508  44.728  19.591   2.715
 9726W        W76509  44.315  10.536   4.134
 9727W        W76510  10.391  38.696   2.381
 9728W        W76511  23.522  25.540   3.721
 9729W        W76512  32.458   1.394  12.101
 9730W        W76513  13.284  43.527  11.183
 9731W        W76514  11.777  14.578   4.090
 9732W        W76515  12.300  44.444  12.164
 9733W        W76516  32.510  12.026   4.756
 9734W        W76517  18.720  22.461   3.120
 9735W        W76518  25.404   1.287  11.140
 9736W        W76519  39.734  39.805   4.580
 9737W        W76520   5.260  23.813  14.034
 9738W        W76521  11.348  42.062   2.295
 9739W        W76522  10.796  37.932   2.304
 9740W        W76523  18.034  20.831  11.061
 9741W        W76524  28.640  17.101  14.947
 9742W        W76525  14.593  12.504   0.253
 9743W        W76526   6.881   5.133  12.544
 9744W        W76527  10.523  17.504   3.805
 9745W        W76528  11.662  12.511  13.557
 9746W        W76529  42.019  19.293   0.834
 9747W        W76530  14.559   2.727   2.707
 9748W        W76531  23.596  27.905   2.178
 9749W        W76532  12.651  31.441  13.016
 9750W        W76533  21.660  10.939  14.082
 9751W        W76534  16.765  15.352   3.877
 9752W        W76535   8.069  18.112   4.102
 9753W        W76536  29.875  33.308  10.129
 9754W        W76537  24.978   3.820  12.122
 9755W        W76538  33.990  38.027  13.139
 9756W        W76539   8.828  17.697   2.695
 9757W        W76540  12.327  31.425   4.608
 9758W        W76541  20.773  32.747   2.087
 9759W        W76542  40.458  25.255  12.866
 9760W        W76543  21.025   5.286   1.966
 9761W        W76544  27.867  25.430   3.816
 9762W        W76545  37.784  41.602  11.041
 9763W        W76546  25.486  36.724  12.062
 9764W        W76547  21.795  38.544  13.945
 9765W        W76548  42.271  27.636   1.364
 9766W        W76549  35.389  15.886  12.449
 9767W        W76550  20.025  32.507  13.776
 9768W        W76551  31.586  12.144  14.416
 9769W        W76552  13.164  39.956  11.823
 9770W        W76553  44.139  44.496   0.985
 9771W        W76554  41.981  10.687  12.046
 9772W        W76555  22.645  29.039  14.435
 9773W        W76556   6.797  29.829   0.911
 9774W        W76557   8.870  32.921  11.690
 9775W        W76558   4.259  41.569  13.177
 9776W        W76559  15.629  32.979   1.017
 9777W        W76560  29.100   4.259  14.374
 9778W        W76561  10.283  20.024  12.076
 9779W        W76562  25.183  40.740   3.051
 9780W        W76563  36.143   9.416   4.112
 9781W        W76564  37.026  25.047   3.272
 9782W        W76565  41.398  43.783   0.733
 9783W        W76566  42.845   1.313  12.109
 9784W        W76567  25.528  20.363   1.695
 9785W        W76568  19.092   9.807   4.041
 9786W        W76569  15.382  15.536  13.292
 9787W        W76570  28.516   2.710   2.701
 9788W        W76571  40.843  33.316   1.786
 9789W        W76572  12.327  36.922   2.736
 9790W        W76573  26.437  37.653   2.424
 9791W        W76574  40.058  20.735   1.717
 9792W        W76575  24.438  42.087  14.325
 9793W        W76576  17.139  32.577   3.060
 9794W        W76577   2.379  32.978   3.495
 9795W        W76578  13.120  13.270  13.392
 9796W        W76579   1.299  38.035  11.987
 9797W        W76580   4.915   5.149  13.938
 9798W        W76581  10.406  24.716   1.700
 9799W        W76582  36.401   8.748  11.999
 9800W        W76583   9.811  39.807  14.834
 9801W        W76584   9.197  33.720   4.510
 9802W        W76585  34.754  12.968   2.615
 9803W        W76586  29.795  35.441  13.878
 9804W        W76587   1.252  25.265   0.423
 9805W        W76588  11.717   2.154   2.530
 9806W        W76589   2.272   4.763  10.567
 9807W        W76590  41.176  26.704  12.612
 9808W        W76591  17.118   0.016   4.883
 9809W        W76592  11.305   6.978   3.135
 9810W        W76593  23.937   7.787  14.302
 9811W        W76594  10.862  24.476  14.955
 9812W        W76595  38.302  36.675  11.224
 9813W        W76596  33.180  43.213   2.734
 9814W        W76597   1.198  28.510   2.762
 9815W        W76598  19.469  22.472   2.924
 9816W        W76599  34.668  23.510   1.900
 9817W        W76600   0.991  19.663  11.961
 9818W        W76601  18.058  23.519   4.259
 9819W        W76602  38.037   2.381   2.682
 9820W        W76603  35.817  37.877  13.111
 9821W        W76604  21.485  20.071   2.697
 9822W        W76605  25.992  14.741  12.984
 9823W        W76606  18.940  20.663  12.016
 9824W        W76607   1.589  40.179   0.358
 9825W        W76608  19.906  44.999   3.227
 9826W        W76609  15.711   8.580   3.758
 9827W        W76610  36.745  16.566   3.086
 9828W        W76611  11.124  40.563   1.399
 9829W        W76612  16.118   0.638  12.864
 9830W        W76613  34.408  28.470  12.879
 9831W        W76614  42.037  12.821   1.249
 9832W        W76615   3.760  39.471  14.358
 9833W        W76616  11.223  22.551   4.825
 9834W        W76617   6.172  42.325   4.915
 9835W        W76618  21.078  15.123   0.927
 9836W        W76619  34.129   8.837  14.851
 9837W        W76620  43.253  10.739   4.217
 9838W        W76621  31.351  17.136  12.996
 9839W        W76622  16.130   3.968   1.006
 9840W        W76623  22.205   1.459  14.277
 9841W        W76624  36.178  34.508   1.714
 9842W        W76625   5.802  24.272  13.829
 9843W        W76626   9.486  19.155  14.316
 9844W        W76627  20.418  41.846  13.067
 9845W        W76628  42.690   6.795   0.767
 9846W        W76629   3.498  17.606  11.257
 9847W        W76630  33.091   3.879   0.734
 9848W        W76631   3.177  14.952   2.143
 9849W        W76632  30.015   0.375   4.521
 9850W        W76633  38.794  14.807  11.125
 9851W        W76634  40.407  32.871   2.389
 9852W        W76635  29.724  39.533   2.300
 9853W        W76636   2.411  32.972   4.625
 9854W        W76637   5.191  44.691   1.734
 9855W        W76638  11.162  40.188   1.765
 9856W        W76639  40.314  19.458  10.656
 9857W        W76640  41.952   4.939  13.160
 9858W        W76641  13.188  14.789  12.543
 9859W        W76642  33.494   5.502  11.670
 9860W        W76643  12.781  14.943  13.261
 9861W        W76644  16.819  35.487   2.960
 9862W        W76645   8.958  11.503   1.074
 9863W        W76646  44.377  17.767  12.512
 9864W        W76647  30.190   6.870   3.772
 9865W        W76648   7.264  37.622  14.324
 9866W        W76649   5.741   5.775  12.515
 9867W        W76650  11.706  13.317  12.106
 9868W        W76651  20.523  10.072   2.523
 9869W        W76652   5.634  36.453   2.377
 9870W        W76653  26.122  42.763   1.848
 9871W        W76654  30.838  11.916  11.273
 9872W        W76655  14.496  39.217   9.833
 9873W        W76656  25.161  34.630  14.303
 9874W        W76657  35.188  16.821  12.574
 9875W        W76658   1.467  22.476  10.633
 9876W        W76659  26.479   2.893   3.306
 9877W        W76660  32.485  29.023  12.433
 9878W        W76661  42.877  11.331  11.065
 9879W        W76662  24.882  43.356   3.354
 9880W        W76663  17.143  19.606   2.832
 9881W        W76664  42.592   1.530   4.640
 9882W        W76665   1.263  26.491  12.583
 9883W        W76666  16.833  43.970  13.320
 9884W        W76667   1.890  10.857  14.087
 9885W        W76668  39.810  10.827  12.174
 9886W        W76669  33.849   7.476  13.246
 9887W        W76670  33.151   7.908   4.677
 9888W        W76671  17.267  41.152   3.804
 9889W        W76672  29.520   1.073   1.204
 9890W        W76673   8.703  34.035  14.815
 9891W        W76674  23.963  38.850  13.392
 9892W        W76675  20.076  24.997   2.904
 9893W        W76676  16.032  12.381  13.387
 9894W        W76677  13.361  26.097  14.702
 9895W        W76678  41.179  23.377   3.554
 9896W        W76679  11.790  23.970   0.895
 9897W        W76680  44.506  18.741  12.606
 9898W        W76681  31.811  27.942   0.108
 9899W        W76682  40.120   0.983  12.609
 9900W        W76683   3.461  26.127  14.841
 9901W        W76684  44.738  31.036  13.351
 9902W        W76685  38.953   0.037   4.251
 9903W        W76686  40.783  20.945   4.948
 9904W        W76687  16.873  44.058  12.799
 9905W        W76688   5.320  13.743   3.722
 9906W        W76689   0.812  13.717   2.346
 9907W        W76690  40.576  28.659  12.895
 9908W        W76691  31.312  30.579  12.006
 9909W        W76692  20.798  37.058  13.385
 9910W        W76693  42.995  44.768   1.821
 9911W        W76694   5.097  21.718   2.551
 9912W        W76695   4.404  44.837   4.472
 9913W        W76696   9.810   0.237   1.926
 9914W        W76697  39.845  26.491  14.441
 9915W        W76698   6.309  17.811  10.712
 9916W        W76699  42.286  24.227  14.502
 9917W        W76700  31.093  17.879  14.562
 9918W        W76701  17.615  39.460   1.791
 9919W        W76702  22.137  35.420   0.897
 9920W        W76703  34.962  32.284  12.438
 9921W        W76704  15.170  18.691  14.695
 9922W        W76705  20.420   7.155  14.926
 9923W        W76706  22.031  30.984  14.309
 9924W        W76707  41.015   9.180  10.710
 9925W        W76708  31.560  17.770  11.647
 9926W        W76709  17.508  12.786   3.979
 9927W        W76710  20.833  21.174   3.586
 9928W        W76711   8.352  39.354  11.131
 9929W        W76712  20.919   6.243  14.793
 9930W        W76713  31.996  11.179   4.150
 9931W        W76714  17.800  35.467   0.988
 9932W        W76715   4.432  11.944   1.740
 9933W        W76716  34.058  25.127   1.692
 9934W        W76717  42.344  26.606   2.825
 9935W        W76718  37.144  40.984   3.649
 9936W        W76719   9.914  13.707  11.198
 9937W        W76720  35.018   4.304  14.391
 9938W        W76721  28.569  14.350  14.114
 9939W        W76722  36.696  30.885  13.499
 9940W        W76723   9.840  15.347   0.423
 9941W        W76724  42.884   5.217  14.957
 9942W        W76725  16.399   8.710   4.369
 9943W        W76726  19.683  24.183  13.433
 9944W        W76727  30.848  21.451  10.315
 9945W        W76728  42.126  17.058  10.519
 9946W        W76729   6.456  25.686  13.524
 9947W        W76730  11.327   4.462   1.312
 9948W        W76731  25.798  29.191   1.372
 9949W        W76732   3.226   9.829   4.828
 9950W        W76733  38.777  42.920   0.239
 9951W        W76734  12.837  11.263  14.453
 9952W        W76735  16.348  33.433  10.198
 9953W        W76736  12.652  13.646   2.725
 9954W        W76737  42.718   7.384  11.408
 9955W        W76738  28.020  33.172  12.038
 9956W        W76739   2.866  40.384   1.108
 9957W        W76740  17.245  21.136  13.782
 9958W        W76741   1.939  29.956   2.183
 9959W        W76742  21.176  13.540  13.411
 9960W        W76743  42.557  12.833   1.311
 9961W        W76744   4.733  28.629  13.959
 9962W        W76745  42.400  37.364  11.579
 9963W        W76746  21.275  16.578  10.663
 9964W        W76747  25.822  25.597  14.003
 9965W        W76748  15.653  19.008  12.576
 9966W        W76749  24.503  17.722  12.567
 9967W        W76750  39.333  20.201  13.939
 9968W        W76751  43.771  44.476   3.859
 9969W        W76752   7.231  38.479   0.389
 9970W        W76753  29.684   4.448   3.669
 9971W        W76754  35.934  35.906  13.457
 9972W        W76755   0.666  35.582  12.729
 9973W        W76756  29.042  32.634   0.514
 9974W        W76757  13.238  27.630  11.634
 9975W        W76758  23.497   9.850   2.170
 9976W        W76759  12.811  36.392  14.082
 9977W        W76760  27.616  21.662   2.331
 9978W        W76761  19.048  15.192  12.779
 9979W        W76762  22.220  32.098   3.646
 9980W        W76763  30.999  10.938  13.833
 9981W        W76764  40.895  27.437  11.551
 9982W        W76765  39.762  17.720  13.427
 9983W        W76766  41.939  23.094   0.617
 9984W        W76767   4.431   4.780   4.739
 9985W        W76768  11.270  25.934  14.168
 9986W        W76769   6.396  38.680  14.471
 9987W        W76770  34.789  37.315   1.902
 9988W        W76771   3.852  34.392   4.030
 9989W        W76772   6.889   3.396  12.412
 9990W        W76773  35.018  36.842   4.627
 9991W        W76774  30.412   1.462  12.784
 9992W        W76775  24.569   0.504   0.769
 9993W        W76776  14.719  28.698  12.988
 9994W        W76777   4.775   4.869   2.985
 9995W        W76778   2.073  37.617   2.435
 9996W        W76779   5.744  15.737   4.806
 9997W        W76780  13.374  20.707  14.441
 9998W        W76781  40.891  41.805  12.935
 9999W        W76782  18.766   5.377   0.460
10000W        W76783  31.406   1.287   0.435
10001W        W76784  40.327  15.081  11.158
10002W        W76785  40.992  17.648   1.233
10003W        W76786  21.506  32.333   1.858
10004W        W76787  43.900  30.022   4.076
10005W        W76788  22.056  40.258   3.198
10006W        W76789  10.131  19.879   1.820
10007W        W76790   3.017  41.868   3.614
10008W        W76791  12.389  41.866  13.357
10009W        W76792  19.478  22.081   1.939
10010W        W76793  25.964  30.027   2.333
10011W        W76794  16.661  36.111   0.222
10012W        W76795  25.934  28.158   3.159
10013W        W76796  16.407  24.966   1.614
10014W        W76797  12.980   0.073   2.417
10015W        W76798  13.327  40.275  14.776
10016W        W76799  15.302  26.530  12.954
10017W        W76800  17.325   5.503   4.550
10018W        W76801  21.611  31.519   1.387
10019W        W76802  19.007   5.560   1.319
10020W        W76803  17.483  20.267  14.226
10021W        W76804  32.411  39.964   3.236
10022W        W76805  39.647   7.202  13.034
10023W        W76806  31.804   8.751   1.242
10024W        W76807  43.424   5.944  13.432
10025W        W76808   4.427  15.603   3.901
10026W        W76809   4.472  28.562   0.233
10027W        W76810  35.381  23.231   1.736
10028W        W76811  17.281  38.381  12.337
10029W        W76812  24.212   5.479   1.382
10030W        W76813  22.613  12.389  14.732
10031W        W76814  14.315  43.708   4.472
10032W        W76815  27.654  23.298   1.958
10033W        W76816  42.459   3.343  11.055
10034W        W76817  24.928  41.548   1.805
10035W        W76818  43.987  19.255  13.354
10036W        W76819  43.885  23.846   3.681
10037W        W76820  20.057  16.657  13.090
10038W        W76821  35.529  29.477  11.201
10039W        W76822  10.624  19.976   2.733
10040W        W76823  30.428  24.763  12.877
10041W        W76824   4.109  27.126  13.517
10042W        W76825   8.892  27.553  14.434
10043W        W76826  13.401   8.253   0.878
10044W        W76827  27.500  14.047  13.479
10045W        W76828  43.544  43.923  11.150
10046W        W76829  23.722  38.885  10.738
10047W        W76830  40.841  33.647   4.682
10048W        W76831  34.431  32.799   1.145
10049W        W76832  31.065  14.277  12.188
10050W        W76833  27.574   0.690  10.976
10051W        W76834  33.879  10.800  11.554
10052W        W76835  17.660  18.452   4.919
10053W        W76836  20.399  29.884  12.387
10054W        W76837  21.319  41.457   2.462
10055W        W76838  34.744  13.589  12.141
10056W        W76839  32.109  12.265   4.539
10057W        W76840  42.989  16.255   3.490
10058W        W76841  41.334  16.641  13.354
10059W        W76842  17.498  17.550  13.057
10060W        W76843  30.511  20.104  10.237
10061W        W76844  11.336  33.452  12.822
10062W        W76845  25.277  33.162  13.013
10063W        W76846  37.425  20.094  13.934
10064W        W76847  42.451  24.833  11.111
10065W        W76848  42.943  41.040   1.738
10066W        W76849  18.331   5.515   2.806
10067W        W76850  24.593   4.485  12.120
10068W        W76851   6.764  30.468   4.829
10069W        W76852  16.299  40.659  13.443
10070W        W76853   3.227   3.506  11.570
10071W        W76854   2.450  20.227   3.672
10072W        W76855  42.823  44.490  11.054
10073W        W76856  29.435  26.908   5.061
10074W        W76857  42.922  32.080  11.363
10075W        W76858  34.184  19.020   3.117
10076W        W76859  11.091   2.880  11.014
10077W        W76860  20.285   4.672  11.785
10078W        W76861  21.966   9.201  14.220
10079W        W76862  12.589   0.048   2.804
10080W        W76863  35.601   9.357   2.658
10081W        W76864  31.080  14.885   3.809
10082W        W76865  12.919  13.581  11.496
10083W        W76866  26.716  11.875  11.670
10084W        W76867  38.015  39.525  10.957
10085W        W76868  10.319  18.234  14.873
10086W        W76869   9.918  38.470   2.292
10087W        W76870  41.578   9.809  13.708
10088W        W76871  30.624  39.374  14.247
10089W        W76872  44.292  37.466  13.432
10090W        W76873  40.998  42.277  13.181
10091W        W76874  31.152  43.505  11.631
10092W        W76875  16.790   8.166  14.838
10093W        W76876  32.958  13.653  12.878
10094W        W76877  41.206  42.303  12.309
10095W        W76878  41.052   1.673  14.378
10096W        W76879  21.540  20.334   4.708
10097W        W76880  22.068   6.524   4.438
10098W        W76881   5.937  36.880  14.364
10099W        W76882  26.092  29.119  14.696
10100W        W76883   9.965  40.894   0.372
10101W        W76884  28.433  38.372   0.233
10102W        W76885   8.212  16.558  13.036
10103W        W76886  19.829  39.723  11.595
10104W        W76887  40.874   8.650  13.542
10105W        W76888  30.009  15.921  14.216
10106W        W76889   5.809  42.372  13.047
10107W        W76890  31.360  27.739  11.631
10108W        W76891  33.497  29.591   3.580
10109W        W76892  25.520   6.881   3.664
10110W        W76893  35.977  13.978   2.390
10111W        W76894  25.203   4.413   4.713
10112W        W76895  19.511  21.556   3.643
10113W        W76896  29.550  12.330  12.052
10114W        W76897  38.236   8.407   4.594
10115W        W76898  39.820   2.838   4.913
10116W        W76899  31.881  15.223  13.538
10117W        W76900  18.535  13.842  10.270
10118W        W76901  24.269  14.868  12.335
10119W        W76902  41.608  30.538   4.279
10120W        W76903  36.608   6.128   4.514
10121W        W76904  24.271  38.160   0.020
10122W        W76905  40.035  21.432   4.621
10123W        W76906  15.116   7.207   2.600
10124W        W76907   3.957  41.246  11.275
10125W        W76908  18.791  41.476   2.655
10126W        W76909  29.903   9.882  12.015
10127W        W76910  42.363  10.653   2.978
10128W        W76911  18.233  15.405   0.315
10129W        W76912  28.119   9.525   2.036
10130W        W76913  16.745  42.386   3.742
10131W        W76914  10.325   1.458   3.200
10132W        W76915  34.373  28.791  13.992
10133W        W76916   8.716  44.956   0.482
10134W        W76917  30.245  39.406   2.314
10135W        W76918  26.647  29.180  14.806
10136W        W76919  34.221  31.851  11.161
10137W        W76920  15.534  16.048   1.691
10138W        W76921  31.667  23.988  13.041
10139W        W76922  36.059  28.072  13.508
10140W        W76923  31.907   9.505   3.039
10141W        W76924  11.589  37.852  12.274
10142W        W76925   8.350  14.859   3.778
10143W        W76926  37.627  31.235  13.174
10144W        W76927  35.652  28.586  12.436
10145W        W76928  23.745  43.809  12.621
10146W        W76929  27.206  36.941   0.917
10147W        W76930  40.549  22.302  11.506
10148W        W76931   7.275   3.012   2.822
10149W        W76932   2.937  36.445   2.886
10150W        W76933  14.789  38.363   2.913
10151W        W76934  30.560  31.132   4.320
10152W        W76935  15.022  38.117   5.332
10153W        W76936  41.788  16.633  13.575
10154W        W76937  22.690  41.611  14.371
10155W        W76938  10.613  33.021   3.453
10156W        W76939  23.554  41.767  12.444
10157W        W76940  37.265  30.584  10.851
10158W        W76941  19.638  38.948  11.976
10159W        W76942  33.706  10.697   1.401
10160W        W76943  42.402   5.245   1.729
10161W        W76944   4.138  15.102   2.282
10162W        W76945  32.676  32.646  12.611
10163W        W76946  37.915   8.901   3.700
10164W        W76947  30.561  22.768  11.632
10165W        W76948  19.154  29.950  13.039
10166W        W76949   6.484  42.999   2.429
10167W        W76950  23.109  18.111   4.013
10168W        W76951  42.530  19.509  13.245
10169W        W76952   5.294  44.961  13.298
10170W        W76953  13.398  32.186  12.114
10171W        W76954  26.568  18.083   3.132
10172W        W76955  17.054  17.632   1.321
10173W        W76956  25.710  38.786  14.003
10174W        W76957  32.856  10.312   0.368
10175W        W76958  38.303  28.971   4.912
10176W        W76959  32.997  18.843   3.262
10177W        W76960  11.145  31.231   0.757
10178W        W76961  30.849  25.164  10.234
10179W        W76962   2.192   7.306  11.764
10180W        W76963   8.380  13.607   2.725
10181W        W76964  36.704   2.534   3.766
10182W        W76965   7.628   4.333  13.342
10183W        W76966  12.538  35.249  13.334
10184W        W76967  19.765   6.334  14.373
10185W        W76968  12.899  44.033  14.344
10186W        W76969  31.448  41.927  10.794
10187W        W76970   4.239  20.280  14.972
10188W        W76971   4.323  42.990   1.981
10189W        W76972  13.591  41.594   4.291
10190W        W76973  13.741   3.491  12.467
10191W        W76974  26.564  12.744   9.618
10192W        W76975  22.750   9.650   0.800
10193W        W76976   2.469  14.162   0.469
10194W        W76977   9.365  10.373   1.301
10195W        W76978  36.516  38.601  14.464
10196W        W76979  33.787   8.360  12.536
10197W        W76980   8.576  21.592  11.209
10198W        W76981  43.222  38.551   4.535
10199W        W76982   2.048  13.956   2.121
10200W        W76983   8.093  42.062   1.787
10201W        W76984  16.588   1.920   0.032
10202W        W76985  15.262  36.454   0.185
10203W        W76986   5.952  43.665   3.666
10204W        W76987  24.257   3.656   1.415
10205W        W76988  20.143  20.830  12.049
10206W        W76989  24.054   0.596   0.896
10207W        W76990   8.926  14.767  14.208
10208W        W76991  16.375  11.297  12.005
10209W        W76992   7.893  38.867   1.461
10210W        W76993  20.153  32.078  13.006
10211W        W76994   6.403  24.862  12.043
10212W        W76995  33.453  26.106  12.985
10213W        W76996   7.510  31.851  10.465
10214W        W76997   1.456  42.473   4.245
10215W        W76998  15.858  34.994  13.826
10216W        W76999  21.625  41.833   4.770
10217W        W77000  22.156  35.426   3.071
10218W        W77001  15.388  18.035  10.288
10219W        W77002  17.689  13.122  14.991
10220W        W77003  32.407   3.044  13.946
10221W        W77004  40.971  40.823   4.068
10222W        W77005  43.791  16.350   1.878
10223W        W77006  40.293  27.947   0.316
10224W        W77007  41.018  17.562  14.152
10225W        W77008  41.212   9.353  12.136
10226W        W77009  25.975  17.914  13.973
10227W        W77010  22.329  21.374   2.435
10228W        W77011  20.647  40.511   4.111
10229W        W77012   3.709  22.232   0.890
10230W        W77013   3.647   2.508  13.397
10231W        W77014  39.203   5.632  11.148
10232W        W77015   9.135  10.108  11.535
10233W        W77016   3.731  35.399   2.040
10234W        W77017  33.439   4.876   1.670
10235W        W77018  26.088  23.188  10.917
10236W        W77019  31.638  23.335   0.910
10237W        W77020   6.504  20.354   3.277
10238W        W77021   5.980  44.150   3.812
10239W        W77022   6.857  37.312  11.564
10240W        W77023  31.003   1.765  11.980
10241W        W77024  40.440  38.047  11.007
10242W        W77025  15.981  19.033   4.349
10243W        W77026  10.254  19.441   3.896
10244W        W77027   0.398   7.474   1.074
10245W        W77028  27.273  43.147   3.383
10246W        W77029  20.073  43.238  14.713
10247W        W77030  27.748  40.044   4.510
10248W        W77031  27.779  34.535   1.357
10249W        W77032  17.148  34.170  10.757
10250W        W77033  27.627  20.025   4.899
10251W        W77034  21.729  36.160  13.985
10252W        W77035   9.866   1.217   2.369
10253W        W77036  37.350  17.166  13.756
10254W        W77037  30.737  21.527   2.180
10255W        W77038  15.333  10.566  13.859
10256W        W77039  31.443  12.714  12.331
10257W        W77040   4.523   5.579  14.718
10258W        W77041  31.439  21.239   2.601
10259W        W77042  31.452  31.982   0.996
10260W        W77043  22.293  32.052  11.033
10261W        W77044  29.790  36.583   0.297
10262W        W77045   1.609  42.914  14.906
10263W        W77046   5.865   9.969   1.800
10264W        W77047  28.181  40.818  13.043
10265W        W77048  31.107  43.313   1.948
10266W        W77049  37.827  40.701   2.247
10267W        W77050  24.641   2.774   0.777
10268W        W77051   3.206  25.268   0.287
10269W        W77052  35.014   9.886   4.321
10270W        W77053   0.956   6.760  13.628
10271W        W77054   8.422  31.521   4.223
10272W        W77055  27.998  18.966   3.183
10273W        W77056   6.355  29.520   3.030
10274W        W77057  11.287  43.902  12.197
10275W        W77058  25.660  14.719  13.388
10276W        W77059  12.670   6.552   4.133
10277W        W77060  33.444   2.187   2.223
10278W        W77061  38.528  19.678   2.220
10279W        W77062  14.747  16.419   1.338
10280W        W77063  44.801  25.670   0.378
10281W        W77064   8.567  12.424  11.617
10282W        W77065   8.904  29.421   1.211
10283W        W77066  29.886  15.089   4.108
10284W        W77067  27.526  43.792   4.128
10285W        W77068  15.794  11.059  10.238
10286W        W77069   3.727   2.592  14.583
10287W        W77070   0.683  11.407  10.300
10288W        W77071  33.115   6.311   9.610
10289W        W77072  42.080  29.686   3.382
10290W        W77073  44.874  41.760  14.068
10291W        W77074  42.074   2.217   2.151
10292W        W77075   1.314  28.793   3.182
10293W        W77076  40.872   6.359  14.070
10294W        W77077  27.170  35.044   3.295
10295W        W77078  22.609  44.782   3.373
10296W        W77079   5.996   0.751  11.994
10297W        W77080   9.405  11.257   1.215
10298W        W77081  37.130  44.471   4.564
10299W        W77082  21.626  16.765   0.313
10300W        W77083  44.263   9.697  13.857
10301W        W77084  35.286  12.967  13.535
10302W        W77085  25.522  23.951   4.639
10303W        W77086  42.431  20.698   2.170
10304W        W77087   1.367   7.405   3.764
10305W        W77088  41.837  15.390  10.417
10306W        W77089  14.249  16.179   0.535
10307W        W77090  39.830  14.549   4.586
10308W        W77091  39.575  30.542  11.906
10309W        W77092   4.395  32.390   2.630
10310W        W77093  34.394   0.780   3.766
10311W        W77094  36.615   2.432   2.076
10312W        W77095  37.552   8.581  14.414
10313W        W77096  15.670  30.083   4.590
10314W        W77097  18.276  28.589   2.329
10315W        W77098  43.790   0.871  11.622
10316W        W77099   6.152  41.769  14.805
10317W        W77100  35.510   2.387  10.765
10318W        W77101  12.745  36.572   1.649
10319W        W77102  27.697  24.134   1.960
10320W        W77103   3.325  34.639   1.443
10321W        W77104  27.504   7.934  12.639
10322W        W77105  18.266  44.444   2.737
10323W        W77106  19.558  18.731  12.398
10324W        W77107  22.304   7.738   2.009
10325W        W77108  35.098  14.867   1.717
10326W        W77109  31.195  31.405  13.568
10327W        W77110  41.781  20.421   1.651
10328W        W77111  25.408  30.594   1.344
10329W        W77112  28.663  30.111   4.645
10330W        W77113  38.828  14.919  12.781
10331W        W77114   0.458  28.728   4.602
10332W        W77115  43.962   4.033   4.356
10333W        W77116  25.667   5.257  13.612
10334W        W77117  24.793  44.217   3.925
10335W        W77118  17.771  32.877   2.528
10336W        W77119  12.802  43.283   3.816
10337W        W77120  24.880   3.808   4.076
10338W        W77121  26.820  33.208  12.567
10339W        W77122  38.062  21.961  13.432
10340W        W77123  42.843  42.947  14.279
10341W        W77124  43.775  15.576   0.620
10342W        W77125  39.106  39.487   4.615
10343W        W77126  33.486   5.857  13.304
10344W        W77127  34.418  18.269  11.005
10345W        W77128  29.186  28.745   1.617
10346W        W77129   7.288  32.081   1.176
10347W        W77130  43.599  30.058   3.636
10348W        W77131   2.740  23.546   2.157
10349W        W77132  37.839  30.007   0.011
10350W        W77133  33.362  44.413   1.387
10351W        W77134  39.504  25.691   3.252
10352W        W77135  17.618  30.997   1.313
10353W        W77136   5.809   7.963  12.572
10354W        W77137  25.543   6.669  11.545
10355W        W77138   1.395  35.507   1.681
10356W        W77139  10.902  27.082   3.256
10357W        W77140  27.969   6.348   1.865
10358W        W77141  28.633  26.547   1.936
10359W        W77142  30.381  37.343   4.207
10360W        W77143  20.274  39.500  13.447
10361W        W77144  44.893  17.695   4.309
10362W        W77145  30.606  27.888   2.794
10363W        W77146  29.844  33.913  13.851
10364W        W77147  24.577  22.804   0.525
10365W        W77148  32.963  23.989   1.708
10366W        W77149  42.261  37.792   0.885
10367W        W77150   8.166  27.076   3.864
10368W        W77151  38.462  24.770   0.235
10369W        W77152  37.989  27.719   2.369
10370W        W77153  36.387   5.485  12.047
10371W        W77154  11.246   2.416   0.327
10372W        W77155  43.457  26.368   1.425
10373W        W77156  27.205   5.250   3.735
10374W        W77157  29.601  37.387   2.607
10375W        W77158  32.804  27.863   3.172
10376W        W77159  16.660   3.506   0.811
10377W        W77160  19.569  38.921  12.526
10378W        W77161  18.262  25.713  14.101
10379W        W77162  33.517  25.004  13.025
10380W        W77163  28.087  21.948  10.588
10381W        W77164  24.005  12.273  12.481
10382W        W77165  26.280  39.465   3.952
10383W        W77166  21.769  30.930   3.170
10384W        W77167  40.386  21.818  12.402
10385W        W77168  39.281  13.636   0.851
10386W        W77169  11.200   1.288  13.910
10387W        W77170  13.116  35.546   4.621
10388W        W77171  25.442  18.342  11.113
10389W        W77172   9.987  22.787   3.167
10390W        W77173   1.335  30.171  10.640
10391W        W77174  30.624  21.500   4.482
10392W        W77175  16.291  19.981   3.693
10393W        W77176  31.585   2.392  12.040
10394W        W77177  19.907  27.726  14.555
10395W        W77178  23.151   4.755   3.761
10396W        W77179   9.307  36.946   2.191
10397W        W77180  19.473  30.897   3.718
10398W        W77181  14.134  22.438   3.039
10399W        W77182  24.423  27.243  10.227
10400W        W77183  35.568  23.220   0.780
10401W        W77184   7.353  13.248  11.660
10402W        W77185  43.456  17.068   9.886
10403W        W77186  35.185  17.425   1.508
10404W        W77187  44.919  16.284  11.219
10405W        W77188  10.838   9.418   4.950
10406W        W77189  19.300  28.960   3.321
10407W        W77190  12.494   4.082   2.398
10408W        W77191  41.197  13.822   3.535
10409W        W77192   7.457   6.648  12.580
10410W        W77193   5.732  29.515   3.798
10411W        W77194   7.858  34.426   2.419
10412W        W77195   4.299  16.283  11.274
10413W        W77196  12.117  29.986   3.892
10414W        W77197  11.635  16.776   4.461
10415W        W77198   0.326   2.410  12.460
10416W        W77199  43.903  15.155   0.914
10417W        W77200  18.138   7.907   3.715
10418W        W77201  21.239  14.145   2.959
10419W        W77202  40.507  24.519  10.733
10420W        W77203  10.139   8.913  13.017
10421W        W77204   1.459  44.022   0.772
10422W        W77205  10.945  43.892   4.148
10423W        W77206  39.244  24.707  12.522
10424W        W77207  26.595   3.423   0.087
10425W        W77208  34.988   4.946  12.841
10426W        W77209   0.709  29.141  14.626
10427W        W77210   4.408  19.902  13.072
10428W        W77211   2.770   9.740  12.976
10429W        W77212  35.878  19.163  12.859
10430W        W77213  21.548  35.344   0.269
10431W        W77214  30.024  26.928  11.307
10432W        W77215  36.809   4.402  13.043
10433W        W77216   0.474   4.380   0.274
10434W        W77217  26.898  34.499  12.925
10435W        W77218   7.813  15.043  12.499
10436W        W77219  31.874   3.481   4.758
10437W        W77220  13.229  20.243  14.205
10438W        W77221  29.669  43.339  14.847
10439W        W77222  17.510  37.458  14.488
10440W        W77223  12.127  31.475  12.808
10441W        W77224  12.602  35.235   0.788
10442W        W77225  32.038  39.717  11.614
10443W        W77226  25.145  36.517  13.435
10444W        W77227  17.724  37.302  12.482
10445W        W77228  13.204  25.467   3.035
10446W        W77229   6.522  15.587   2.609
10447W        W77230   7.924  15.082  11.586
10448W        W77231  30.073  41.817  10.348
10449W        W77232  39.905  17.855   3.315
10450W        W77233  25.244   4.447  11.580
10451W        W77234  23.432  35.426  12.197
10452W        W77235   9.299   1.238   0.455
10453W        W77236  24.931   0.702  14.314
10454W        W77237  29.863  33.886  11.232
10455W        W77238   3.819  30.645   0.231
10456W        W77239  44.131  12.601  10.504
10457W        W77240  35.738  22.085  13.055
10458W        W77241   6.378  41.929   1.425
10459W        W77242  22.100  11.056  13.775
10460W        W77243  26.384  10.006  10.179
10461W        W77244  25.980  19.900  14.024
10462W        W77245   2.442  19.354  14.453
10463W        W77246  40.371  17.263  11.193
10464W        W77247  34.089  11.774   4.290
10465W        W77248  42.775  28.681  10.343
10466W        W77249  29.678  24.955  13.432
10467W        W77250  17.826  18.306  12.180
10468W        W77251  12.036  19.263   3.147
10469W        W77252  13.475  21.484   0.340
10470W        W77253  23.505  17.270   4.798
10471W        W77254  39.359   8.766   3.699
10472W        W77255  27.476  32.876  10.714
10473W        W77256  12.160  41.089  11.607
10474W        W77257   5.888  16.752  11.097
10475W        W77258  12.264  41.338  11.187
10476W        W77259  27.105  38.554  10.694
10477W        W77260  10.854   1.812  14.034
10478W        W77261   3.925  27.951   2.030
10479W        W77262  20.469   1.496  11.170
10480W        W77263  43.870   9.115  12.614
10481W        W77264  10.079  34.019  14.369
10482W        W77265  25.033  32.966  11.651
10483W        W77266  12.914  23.344  12.540
10484W        W77267  22.820  10.534  11.129
10485W        W77268  12.116   7.601   1.327
10486W        W77269   9.211  39.940   2.277
10487W        W77270   0.187  23.622  11.896
10488W        W77271  10.630  18.508   3.109
10489W        W77272  10.914  16.843  12.493
10490W        W77273  27.088  17.157   2.200
10491W        W77274   2.321  32.100   3.609
10492W        W77275   5.804  44.702  10.662
10493W        W77276  33.993   5.412  11.462
10494W        W77277  30.581  30.647   0.878
10495W        W77278  33.624  41.468   0.758
10496W        W77279  36.289  26.658  13.056
10497W        W77280  44.302  27.585  14.780
10498W        W77281  19.495  15.794  12.462
10499W        W77282   7.923  37.387  10.259
10500W        W77283  11.656  10.860   4.186
10501W        W77284   3.944  39.833   2.866
10502W        W77285  36.397  40.700   2.270
10503W        W77286  11.864  21.148   0.736
10504W        W77287  26.818  27.209   4.508
10505W        W77288  20.798  16.417  10.616
10506W        W77289  43.869  44.555  10.645
10507W        W77290   2.185   1.306   0.392
10508W        W77291  27.035   2.016   1.784
10509W        W77292  39.721  36.030  14.812
10510W        W77293  44.612  40.553  11.685
10511W        W77294  19.501  23.992  10.830
10512W        W77295  21.274  26.669  14.993
10513W        W77296  27.506   5.894   2.705
10514W        W77297  33.383   5.400   0.068
10515W        W77298  43.316   5.609  11.514
10516W        W77299  39.576   3.319   0.805
10517W        W77300   6.124  15.058   0.825
10518W        W77301  33.667   8.836  13.072
10519W        W77302  20.391  26.714  14.032
10520W        W77303  10.849   6.765   4.132
10521W        W77304   7.671  31.684   0.449
10522W        W77305   5.855  31.408   4.142
10523W        W77306  23.120   2.283  11.420
10524W        W77307  40.022   3.232   0.555
10525W        W77308   9.771  39.513  12.227
10526W        W77309  33.210   2.326  13.292
10527W        W77310  33.157  17.553  12.284
10528W        W77311  22.207   9.985   2.561
10529W        W77312  22.135  26.033   4.839
10530W        W77313   6.441  35.921   3.873
10531W        W77314   8.628   0.213  11.757
10532W        W77315   2.944  43.973  13.456
10533W        W77316  21.528  43.401  11.586
10534W        W77317  33.482  44.874  12.027
10535W        W77318  23.939  33.405  10.309
10536W        W77319  36.928  21.236   4.303
10537W        W77320  36.383  35.091  13.345
10538W        W77321  21.568  17.112   0.723
10539W        W77322  26.103  28.475   4.930
10540W        W77323  42.120   1.278  12.551
10541W        W77324   8.463  23.791   4.187
10542W        W77325  14.618  19.625   2.368
10543W        W77326  32.309  31.625   0.450
10544W        W77327  15.003   9.214  12.998
10545W        W77328  20.515  19.156   3.086
10546W        W77329  36.986   4.295  10.709
10547W        W77330   7.115  20.001  12.472
10548W        W77331  39.364  33.765  11.408
10549W        W77332  14.736  22.701  12.489
10550W        W77333  19.681  28.362  10.875
10551W        W77334  22.567  26.928  14.719
10552W        W77335  37.296  11.241   0.022
10553W        W77336  37.348  28.507  13.187
10554W        W77337   4.201   5.869   1.153
10555W        W77338  37.930  15.294  12.567
10556W        W77339  31.720  37.363  12.015
10557W        W77340   2.731  11.101   1.896
10558W        W77341  30.472   4.360   2.342
10559W        W77342   6.449  13.909   2.242
10560W        W77343  29.695  13.278   3.557
10561W        W77344   4.911  24.217   4.106
10562W        W77345  41.842  23.216   4.100
10563W        W77346   3.173  23.024  11.561
10564W        W77347  12.868  18.281  14.794
10565W        W77348  23.109  40.955  12.992
10566W        W77349  22.701  24.680  14.331
10567W        W77350  25.080  43.558   4.624
10568W        W77351  25.936  29.587   1.678
10569W        W77352  42.356  38.329  10.626
10570W        W77353  13.651   8.236  12.869
10571W        W77354  32.583  33.556   3.344
10572W        W77355  23.223  38.769   1.384
10573W        W77356  15.315  20.011   3.785
10574W        W77357  41.207  20.166   2.748
10575W        W77358  28.553  20.850   2.165
10576W        W77359  29.453   8.605   3.657
10577W        W77360  22.699   2.353  11.723
10578W        W77361   2.023  10.792   3.904
10579W        W77362  34.566  11.685   4.562
10580W        W77363   1.263  39.390   4.863
10581W        W77364  30.513   3.934  11.082
10582W        W77365   1.301  10.630   0.304
10583W        W77366  16.974  11.262   3.168
10584W        W77367  27.585  32.127  13.102
10585W        W77368   9.882  43.540   1.347
10586W        W77369   4.664  26.433  13.329
10587W        W77370  30.144  16.234   4.578
10588W        W77371  14.164  28.675   3.198
10589W        W77372  21.725   5.685   0.815
10590W        W77373  11.630  42.646   1.039
10591W        W77374  32.416  15.402  11.644
10592W        W77375  25.009  25.163  13.149
10593W        W77376   0.765  17.517  12.732
10594W        W77377  24.565  14.755  10.479
10595W        W77378  42.223  44.495  12.441
10596W        W77379  21.662  41.267  12.610
10597W        W77380   7.708  26.523   1.353
10598W        W77381  21.669  29.392   4.808
10599W        W77382  10.963  26.286   0.180
10600W        W77383  16.085  25.071  14.353
10601W        W77384  10.647   6.226   1.344
10602W        W77385  11.340   2.768  11.536
10603W        W77386   7.760  24.289   3.656
10604W        W77387   8.536  34.141   4.109
10605W        W77388  34.340  38.391  12.980
10606W        W77389  24.699  10.223  13.266
10607W        W77390  37.066   9.194   4.178
10608W        W77391  14.616  22.654  11.672
10609W        W77392  36.040  23.132  12.274
10610W        W77393  31.156   8.352  12.454
10611W        W77394   9.283  24.571   2.296
10612W        W77395  23.141   4.314  14.486
10613W        W77396  19.204  10.280   3.864
10614W        W77397  26.388   4.324  14.343
10615W        W77398  15.094  19.664  12.869
10616W        W77399   8.014  35.456  13.328
10617W        W77400  16.180   9.870   2.294
10618W        W77401  25.135   6.171  14.005
10619W        W77402  21.107  11.109  11.787
10620W        W77403  27.632  24.575   0.709
10621W        W77404   3.857  40.514  14.238
10622W        W77405  13.591  37.421  14.933
10623W        W77406  34.127  12.629  10.665
10624W        W77407  18.795  30.969  13.608
10625W        W77408  14.630  41.990   0.326
10626W        W77409  18.444  30.900  12.522
10627W        W77410  10.715  21.058  11.378
10628W        W77411   2.936  22.555   1.224
10629W        W77412  37.577  35.254  14.717
10630W        W77413  35.523  23.734   0.764
10631W        W77414  27.044  16.704  11.537
10632W        W77415  10.024  23.333  13.558
10633W        W77416  11.332  30.343  11.424
10634W        W77417  26.683  43.706   4.984
10635W        W77418  25.613  23.992   3.652
10636W        W77419  11.805  14.375   1.289
10637W        W77420  14.564   0.258  12.523
10638W        W77421  22.699  10.706   0.250
10639W        W77422  21.494  17.590   3.683
10640W        W77423  29.379  10.138   5.283
10641W        W77424  23.638   3.471  13.358
10642W        W77425   1.146  28.076  14.688
10643W        W77426  25.106  10.551   3.845
10644W        W77427  17.868  44.309  10.595
10645W        W77428  18.915  14.216  12.257
10646W        W77429  43.384  31.756   4.054
10647W        W77430  21.577   8.638  11.622
10648W        W77431  41.436  30.933  12.402
10649W        W77432  27.727   7.819  10.718
10650W        W77433  25.682  35.943   1.055
10651W        W77434  34.473  34.122  11.445
10652W        W77435   2.688   6.868  14.926
10653W        W77436   1.381   6.276   4.412
10654W        W77437   1.093   0.321   0.992
10655W        W77438  34.839  20.238   3.600
10656W        W77439  28.549  25.035   0.324
10657W        W77440   9.676  31.163   2.603
10658W        W77441  23.784  33.353   4.195
10659W        W77442   7.359  12.736   1.330
10660W        W77443   9.281   0.844  12.672
10661W        W77444  22.748  11.695   2.126
10662W        W77445  18.012  13.059  11.010
10663W        W77446   7.729  14.885   2.678
10664W        W77447   2.683  22.847  13.448
10665W        W77448  36.336  37.578  11.601
10666W        W77449  10.646  19.984   1.686
10667W        W77450   5.059  18.130  14.016
10668W        W77451  33.183  35.441   3.634
10669W        W77452  26.532  20.293  12.884
10670W        W77453  32.026   2.237  11.851
10671W        W77454  42.732   3.400   0.909
10672W        W77455  24.482  33.804   1.434
10673W        W77456   1.770  38.815   0.447
10674W        W77457  35.418   9.429   5.065
10675W        W77458  11.666  16.493   3.222
10676W        W77459  23.048  37.298  12.601
10677W        W77460  12.275  41.806   1.762
10678W        W77461  33.128  35.115   1.308
10679W        W77462  30.012  23.373   3.272
10680W        W77463  14.658   5.848  14.377
10681W        W77464   6.766  42.743  10.821
10682W        W77465  27.525  19.594   1.817
10683W        W77466  17.005  12.862  12.650
10684W        W77467  31.018  32.973   4.825
10685W        W77468  20.098   9.560  11.611
10686W        W77469  24.730  19.206   1.215
10687W        W77470   1.714   7.298  12.417
10688W        W77471  14.833  44.619   3.754
10689W        W77472   1.188   3.932   2.756
10690W        W77473  11.283  38.410  12.927
10691W        W77474  29.942  37.483   0.683
10692W        W77475  31.884  19.502  13.387
10693W        W77476  42.650  10.893   9.884
10694W        W77477   1.675   6.968  14.919
10695W        W77478  44.092  42.113   0.102
10696W        W77479   3.339  25.925  13.073
10697W        W77480  32.819  40.356   0.583
10698W        W77481   1.568  18.369   0.276
10699W        W77482  39.303   3.675   1.059
10700W        W77483  25.323   6.466   3.898
10701W        W77484  35.728   2.334   2.312
10702W        W77485  16.155  40.155  13.484
10703W        W77486  40.737  21.046   2.719
10704W        W77487   3.003  17.265   4.762
10705W        W77488  35.315  12.128   2.262
10706W        W77489   5.730   2.720  14.417
10707W        W77490  26.334  39.307  12.877
10708W        W77491  15.086  42.721   4.064
10709W        W77492  38.898  36.869   2.732
10710W        W77493  19.403  30.068  11.427
10711W        W77494  24.541  40.564   2.222
10712W        W77495  10.462  28.074  14.876
10713W        W77496  11.652  30.138   3.787
10714W        W77497   0.698  44.774   3.536
10715W        W77498  19.589  33.500  14.331
10716W        W77499  30.932  38.083   3.765
10717W        W77500  42.078  30.527  14.478
10718W        W77501  26.725  22.539   3.349
10719W        W77502  14.887  29.508   0.350
10720W        W77503  24.624   8.691   1.512
10721W        W77504  11.373  13.878  14.252
10722W        W77505  13.671   4.557  13.690
10723W        W77506  40.328  35.313   3.234
10724W        W77507  23.788   4.639  11.600
10725W        W77508  20.251  10.749   4.776
10726W        W77509  35.672  17.181   4.222
10727W        W77510  36.155   0.807  14.357
10728W        W77511  12.576  13.898   4.230
10729W        W77512  32.106  23.353   4.118
10730W        W77513  17.738  34.285   0.090
10731W        W77514   4.148  33.588   4.265
10732W        W77515  23.760  34.693  13.860
10733W        W77516  41.455   1.513  11.637
10734W        W77517   2.966  23.633  13.856
10735W        W77518   0.501  20.954  13.093
10736W        W77519  10.241  15.280   2.260
10737W        W77520   6.333  14.007   4.567
10738W        W77521  32.433  33.323  10.983
10739W        W77522  33.160   1.939   4.737
10740W        W77523   3.341  42.694  10.223
10741W        W77524  27.187  28.143  10.190
10742W        W77525  33.619   3.416   2.561
10743W        W77526   9.294   9.222   3.142
10744W        W77527  22.968  27.553   0.729
10745W        W77528  37.798  12.645   2.922
10746W        W77529  20.303  39.618   0.368
10747W        W77530  13.864   6.299  10.548
10748W        W77531  21.270  10.851   4.715
10749W        W77532  36.147  41.275   2.916
10750W        W77533  18.041  34.122  10.614
10751W        W77534  39.983  38.963   4.838
10752W        W77535  10.109  41.708   0.784
10753W        W77536   9.252   7.419   0.805
10754W        W77537  28.117  33.967   2.453
10755W        W77538  38.937  38.844  10.739
10756W        W77539  31.642   0.961   4.556
10757W        W77540  22.954   6.264  13.006
10758W        W77541  17.381  26.629   0.076
10759W        W77542   0.817  11.148  14.901
10760W        W77543  43.165   1.292   0.406
10761W        W77544   6.401  17.185  14.270
10762W        W77545  30.863   6.676  13.904
10763W        W77546   9.292  26.956  14.368
10764W        W77547   7.624  36.312  14.522
10765W        W77548  27.865  34.502  11.202
10766W        W77549  15.086  28.450   4.386
10767W        W77550   7.048   3.850   0.388
10768W        W77551  27.661  10.410   3.698
10769W        W77552  29.938  30.418   4.695
10770W        W77553  26.544  11.644   0.932
10771W        W77554  12.794  29.911   2.672
10772W        W77555   9.616  35.195  11.569
10773W        W77556  19.090  39.048  13.937
10774W        W77557  27.776  40.372  11.270
10775W        W77558  44.082  11.932  12.087
10776W        W77559  29.827  15.386  11.624
10777W        W77560  43.312   2.837  12.759
10778W        W77561  22.831  41.043   5.025
10779W        W77562  43.764  42.076  10.778
10780W        W77563   5.391  10.206   1.990
10781W        W77564  27.166  18.213   3.891
10782W        W77565  16.273  40.799  12.129
10783W        W77566  41.022   0.841  14.274
10784W        W77567   5.615  24.543  12.508
10785W        W77568  42.082  26.442  14.862
10786W        W77569  43.102  30.254  10.830
10787W        W77570  39.373  17.627   2.466
10788W        W77571   1.246  10.620  10.381
10789W        W77572  24.418  42.292   2.857
10790W        W77573  38.000  19.106   0.708
10791W        W77574  34.025  20.175   3.215
10792W        W77575  10.726  26.451  13.782
10793W        W77576   2.373  30.726  10.259
10794W        W77577  27.085  32.979  14.814
10795W        W77578  44.446  33.811  13.872
10796W        W77579  38.980  28.495  10.013
10797W        W77580  23.085  26.340  14.003
10798W        W77581  20.080  12.973   0.407
10799W        W77582   2.523  37.823  14.969
10800W        W77583   3.536  27.134  12.239
10801W        W77584  18.544  15.318   4.451
10802W        W77585  26.027  13.351  13.900
10803W        W77586   8.712  16.741   0.855
10804W        W77587  14.362  40.893   3.706
10805W        W77588  34.148  21.378  11.129
10806W        W77589  28.990  16.272   3.067
10807W        W77590  30.589  19.711  11.596
10808W        W77591  29.233  18.772  11.214
10809W        W77592   7.506  26.231   0.258
10810W        W77593  23.587   0.539  13.566
10811W        W77594  37.098  33.564   3.286
10812W        W77595   2.452  14.861  12.932
10813W        W77596   8.782  28.571   4.542
10814W        W77597   7.248   2.013   2.770
10815W        W77598  43.028  24.542  12.064
10816W        W77599  22.214  23.386  11.656
10817W        W77600  31.723  27.529   1.380
10818W        W77601  18.149  21.663  13.929
10819W        W77602  13.449   0.223  13.078
10820W        W77603  25.644  43.069  11.947
10821W        W77604  23.618  13.827  14.477
10822W        W77605  28.076   5.126  12.063
10823W        W77606  23.959  15.284   4.599
10824W        W77607  22.593   2.719   4.473
10825W        W77608  16.255  17.131   2.691
10826W        W77609  42.274  44.093   3.025
10827W        W77610  20.688  24.483  13.792
10828W        W77611  19.851  32.494  14.721
10829W        W77612  42.979  36.494   4.626
10830W        W77613  28.128  21.066   0.926
10831W        W77614  40.575  36.289   2.469
10832W        W77615  12.374  27.713  13.080
10833W        W77616   9.889   5.523   2.602
10834W        W77617  28.505  39.729  11.122
10835W        W77618  44.044  35.625   2.676
10836W        W77619  28.201  41.868  14.123
10837W        W77620  10.968   6.607  10.379
10838W        W77621  14.993   9.030   0.811
10839W        W77622  14.562  36.823   2.830
10840W        W77623  35.684  30.541  13.914
10841W        W77624  20.052  38.615   2.401
10842W        W77625  14.875   6.483  14.953
10843W        W77626  41.333  35.336   1.756
10844W        W77627  34.773  20.517   1.686
10845W        W77628  30.434  32.712  13.892
10846W        W77629   3.161  33.360   4.033
10847W        W77630   7.917  18.913  12.986
10848W        W77631  30.462  27.442   4.184
10849W        W77632  25.577  16.044   4.608
10850W        W77633  31.633  23.474  10.698
10851W        W77634  13.369  19.572  14.541
10852W        W77635   3.260  39.570  12.439
10853W        W77636  21.121  35.010   4.529
10854W        W77637  31.125  24.768   2.579
10855W        W77638  31.865  18.133   3.310
10856W        W77639  15.233  38.709  13.430
10857W        W77640  23.120  10.932  11.773
10858W        W77641  39.645  25.189   1.839
10859W        W77642  33.517   6.356  14.585
10860W        W77643  20.675  26.457  10.209
10861W        W77644  30.478  21.643  13.306
10862W        W77645  41.078  34.485  11.582
10863W        W77646  22.456  23.414  12.905
10864W        W77647  10.006  15.832  12.081
10865W        W77648  20.255  11.957   0.736
10866W        W77649  28.261   1.331   4.939
10867W        W77650  39.905   4.627  12.376
10868W        W77651  26.229  22.415  13.889
10869W        W77652  29.409  28.719  14.335
10870W        W77653  28.540  35.073  13.893
10871W        W77654  17.721  30.425  11.425
10872W        W77655  31.948  42.344   3.072
10873W        W77656  16.016   9.327   3.181
10874W        W77657  23.803  23.610  11.146
10875W        W77658  15.712  38.874  11.157
10876W        W77659  36.417  17.646   1.926
10877W        W77660   6.447  37.980  13.586
10878W        W77661  12.675  34.455   4.557
10879W        W77662  44.326  33.639  10.680
10880W        W77663  42.389   6.562   0.219
10881W        W77664  19.470  18.675  10.974
10882W        W77665   4.230   0.302   2.222
10883W        W77666  34.663  35.322   4.179
10884W        W77667  29.633  35.249  10.756
10885W        W77668   4.863   1.152   4.221
10886W        W77669  34.116  27.126   2.805
10887W        W77670  43.001  41.059   0.865
10888W        W77671  32.685  24.404  10.733
10889W        W77672  32.456  42.533  14.818
10890W        W77673   9.935   6.682   3.444
10891W        W77674   2.676  40.197  12.507
10892W        W77675  16.983   0.906   4.716
10893W        W77676   7.453  36.126  11.955
10894W        W77677  35.550   1.039  13.561
10895W        W77678   8.409  28.984   1.874
10896W        W77679  39.387  38.456  13.334
10897W        W77680   3.292  30.804   2.330
10898W        W77681  22.082   9.615  12.956
10899W        W77682  38.366   4.911  10.451
10900W        W77683  27.795   8.354  13.988
10901W        W77684   6.189   5.473   1.517
10902W        W77685   2.348  14.258   4.717
10903W        W77686   2.528   0.383  14.021
10904W        W77687  14.791  18.281  13.600
10905W        W77688  34.696  26.834   3.345
10906W        W77689  29.075  33.591  14.343
10907W        W77690  34.147   3.984   3.226
10908W        W77691  27.032  38.113   1.406
10909W        W77692  30.662  10.749  10.640
10910W        W77693   4.828  14.891   3.830
10911W        W77694  41.186  13.250  11.527
10912W        W77695  14.618  22.172  12.573
10913W        W77696   4.275  30.056   3.226
10914W        W77697  19.172  41.279   3.788
10915W        W77698  11.159   4.258   4.994
10916W        W77699  27.487  14.216   2.350
10917W        W77700  16.877  34.932   4.138
10918W        W77701  13.459  30.992  12.697
10919W        W77702  40.491  25.969  12.660
10920W        W77703  37.879  34.850  13.591
10921W        W77704  11.831   0.686  12.431
10922W        W77705  30.516   0.205  12.501
10923W        W77706  11.509  36.371  11.043
10924W        W77707  29.879   8.902   3.795
10925W        W77708  32.597  43.993   0.675
10926W        W77709  33.045  25.514   4.463
10927W        W77710  31.746  38.454   3.350
10928W        W77711  38.973  39.381  14.941
10929W        W77712   4.663  33.773   4.200
10930W        W77713  24.989  41.328  11.842
10931W        W77714  18.674  36.277   2.745
10932W        W77715  36.171  41.982  12.124
10933W        W77716  28.007  44.179   1.742
10934W        W77717  12.856  19.122  14.844
10935W        W77718  16.682  20.324   3.729
10936W        W77719  16.225   4.383  14.275
10937W        W77720  35.555   2.904  12.126
10938W        W77721  36.334   4.727  13.394
10939W        W77722  39.369   1.350  12.667
10940W        W77723  23.016  28.046  12.875
10941W        W77724   3.043  15.523  13.059
10942W        W77725  25.552  10.318   1.661
10943W        W77726   7.845   2.174   4.678
10944W        W77727  41.771  38.340  13.056
10945W        W77728  23.186  30.244   4.628
10946W        W77729  12.225  15.412  13.913
10947W        W77730   7.302   1.906   1.887
10948W        W77731  43.801  15.606   1.162
10949W        W77732  37.126  18.680   1.086
10950W        W77733  26.546  10.212   3.656
10951W        W77734   7.356  32.244   4.133
10952W        W77735  42.982   9.436   4.992
10953W        W77736  40.909  20.779  11.570
10954W        W77737   1.189  34.032  13.035
10955W        W77738  30.063  41.783  13.896
10956W        W77739  19.256  24.524   0.769
10957W        W77740  35.499  11.607  13.605
10958W        W77741  12.322  10.416   0.291
10959W        W77742   5.148  35.047   0.200
10960W        W77743  27.103  37.069   1.402
10961W        W77744  26.085   4.589  11.248
10962W        W77745  25.364  13.288   0.310
10963W        W77746  29.005  15.590  10.971
10964W        W77747  32.840  25.262  14.250
10965W        W77748  40.354   9.333  12.593
10966W        W77749  29.079  25.683  12.612
10967W        W77750  28.955  13.088   2.327
10968W        W77751  18.029   3.773  11.709
10969W        W77752  37.932  33.952  11.985
10970W        W77753  30.119  34.184  12.981
10971W        W77754   4.919   8.149   2.669
10972W        W77755  36.628  33.085   0.505
10973W        W77756  11.591  31.409  10.718
10974W        W77757  29.893   1.522  14.451
10975W        W77758  37.469  11.267  10.718
10976W        W77759  34.143  12.830   2.166
10977W        W77760  15.335   7.865  13.564
10978W        W77761  12.218   0.962  12.866
10979W        W77762  28.656   3.355   4.780
10980W        W77763  21.128   1.984   3.118
10981W        W77764  14.535  24.105   0.983
10982W        W77765  19.536  20.822  14.015
10983W        W77766   3.384   3.302  14.949
10984W        W77767   7.009  34.685  13.900
10985W        W77768  26.090  19.578  14.426
10986W        W77769  36.790  41.604   1.192
10987W        W77770  13.452   1.882   2.752
10988W        W77771  43.362  34.504  12.104
10989W        W77772  27.091   2.381  12.063
10990W        W77773  28.881  41.880  11.947
10991W        W77774   0.339  13.665  11.969
10992W        W77775  22.056  29.618   2.585
10993W        W77776  29.390  34.596   0.860
10994W        W77777   5.418  43.035   0.381
10995W        W77778  32.703  20.779   3.591
10996W        W77779  18.113  19.058   3.442
10997W        W77780   0.779  28.464   0.367
10998W        W77781   5.159  15.690   0.937
10999W        W77782  35.700  40.962   3.823
11000W        W77783  18.132  12.181   1.801
11001W        W77784  41.880  23.315   2.825
11002W        W77785   0.912  29.659  11.946
11003W        W77786  26.479  23.713   1.954
11004W        W77787  25.880  33.813   1.329
11005W        W77788   8.468  28.523   4.070
11006W        W77789  11.642  38.349  12.394
11007W        W77790  44.134  26.963  13.900
11008W        W77791  16.610  12.605  11.886
11009W        W77792  23.947  24.709  14.876
11010W        W77793  14.729  43.017  12.042
11011W        W77794   7.352  37.529  13.348
11012W        W77795  32.992  16.564  11.991
11013W        W77796   2.254  28.154   5.169
11014W        W77797  12.963  40.042  14.409
11015W        W77798   7.747  40.234  13.793
11016W        W77799  25.934  33.212  10.750
11017W        W77800  39.977   1.485   4.149
11018W        W77801  18.048  41.806   3.224
11019W        W77802   2.280  14.177   4.215
11020W        W77803   7.902  16.251   4.042
11021W        W77804   5.953  27.133   0.071
11022W        W77805   7.889  38.464   2.297
11023W        W77806  43.790  42.020   2.101
11024W        W77807  29.882   8.279  12.844
11025W        W77808   8.199  28.166  10.826
11026W        W77809  30.621  42.504   3.177
11027W        W77810  35.610  10.805   1.668
11028W        W77811  29.068   7.770   2.597
11029W        W77812  44.822   9.905  13.488
11030W        W77813  26.626  42.654   5.025
11031W        W77814   8.066  22.993  12.992
11032W        W77815   5.162  14.315  14.886
11033W        W77816  30.019  42.610  12.895
11034W        W77817  27.125  23.177  11.781
11035W        W77818  17.335  42.648   4.735
11036W        W77819  25.906  27.566   9.536
11037W        W77820  31.890  21.270  14.911
11038W        W77821  43.868  41.895  11.239
11039W        W77822  44.934  36.782   2.836
11040W        W77823  27.554  20.048   3.362
11041W        W77824  31.554  20.751  14.409
11042W        W77825  44.457  28.269   1.472
11043W        W77826  15.621  38.477   2.343
11044W        W77827  28.856  14.595   4.691
11045W        W77828   1.320  31.952  14.868
11046W        W77829  25.996  41.055   0.888
11047W        W77830  19.544   7.940  11.625
11048W        W77831  34.584  27.880  11.075
11049W        W77832   9.390  27.865   2.912
11050W        W77833  15.802  31.519  11.522
11051W        W77834  19.499   4.471  14.650
11052W        W77835  29.645   6.093  13.569
11053W        W77836  32.451  29.172   4.641
11054W        W77837   1.055  28.714   1.821
11055W        W77838   8.290   7.626   4.125
11056W        W77839  11.128  24.293  11.134
11057W        W77840  30.156  13.864   2.802
11058W        W77841  18.129  38.760  14.508
11059W        W77842   2.790  42.466   5.075
11060W        W77843  31.836  12.698  11.642
11061W        W77844   7.389  31.162  12.371
11062W        W77845  11.077   5.973  11.572
11063W        W77846   8.765  36.666  13.433
11064W        W77847  40.477  42.543   4.268
11065W        W77848  12.298  34.969   5.602
11066W        W77849  15.084  32.602   4.125
11067W        W77850  43.887   4.950  11.487
11068W        W77851  21.018   7.165  12.919
11069W        W77852  28.405  19.752  14.335
11070W        W77853   2.746  22.016  12.144
11071W        W77854  29.456  34.734  13.966
11072W        W77855  12.304   0.819  11.532
11073W        W77856  18.670   7.335   2.852
11074W        W77857  26.171  32.026   3.836
11075W        W77858  29.634  17.189   5.371
11076W        W77859  29.541  33.945   1.176
11077W        W77860  31.407  36.587  14.144
11078W        W77861  14.076   8.893   4.432
11079W        W77862   3.245  39.991  13.828
11080W        W77863   4.797  17.228  10.766
11081W        W77864  29.087  37.104  13.717
11082W        W77865   5.922  37.255   1.283
11083W        W77866  23.822  24.461  13.293
11084W        W77867   8.695  22.621   2.672
11085W        W77868  18.939  34.854  11.694
11086W        W77869  16.602  23.985   1.784
11087W        W77870  39.943  22.596   0.277
11088W        W77871  24.379   5.209  13.086
11089W        W77872  30.360  39.413  12.433
11090W        W77873   9.222  39.012  10.628
11091W        W77874  26.162  32.854   2.761
11092W        W77875   3.571  19.082   1.324
11093W        W77876  29.136  42.358  13.236
11094W        W77877  33.245  24.579   0.751
11095W        W77878  37.866  19.561   2.867
11096W        W77879  14.264  12.711  12.694
11097W        W77880  41.510  13.428   2.775
11098W        W77881  29.575  38.902   1.688
11099W        W77882  38.199  40.414  14.048
11100W        W77883  41.671  37.753  12.587
11101W        W77884  31.162  43.908  10.764
11102W        W77885  15.577  32.446  13.845
11103W        W77886   7.848  13.660   2.257
11104W        W77887  22.869  36.884   2.771
11105W        W77888   2.831  22.379  12.490
11106W        W77889  24.231  30.565  13.172
11107W        W77890  39.111  32.841   2.642
11108W        W77891  40.496  27.762  10.650
11109W        W77892  23.622   5.812  12.718
11110W        W77893  28.539  44.501   3.113
11111W        W77894  26.697   0.487  12.014
11112W        W77895  19.294  34.173   2.939
11113W        W77896  25.475  16.191   4.109
11114W        W77897  30.602  37.774  10.750
11115W        W77898  18.279  37.909  14.899
11116W        W77899  19.572  35.863   1.266
11117W        W77900  16.232   1.490   3.593
11118W        W77901  20.522   2.530   0.677
11119W        W77902  18.863  14.721  11.350
11120W        W77903  16.261  34.210  12.033
11121W        W77904  34.154  28.160   1.787
11122W        W77905   9.938   7.829  14.516
11123W        W77906  44.469  39.450   3.568
11124W        W77907  15.622  14.411  14.506
11125W        W77908  31.441   6.733   0.824
11126W        W77909  29.151   5.440  14.369
11127W        W77910   1.815  33.578   4.121
11128W        W77911   7.921   6.480  13.779
11129W        W77912  31.744  31.093   4.933
11130W        W77913   0.581   3.294   2.386
11131W        W77914  19.289   2.762  12.115
11132W        W77915  16.783   0.250  14.902
11133W        W77916  44.156  14.849  10.719
11134W        W77917  27.384  19.602  12.553
11135W        W77918  18.897  12.132  14.538
11136W        W77919  27.877   0.856   2.867
11137W        W77920  39.449  28.950  11.550
11138W        W77921  24.230   8.560  11.621
11139W        W77922   5.320  18.836  13.502
11140W        W77923  15.208   2.093  10.790
11141W        W77924  11.272   0.307   3.205
11142W        W77925  11.785  24.013   1.792
11143W        W77926  11.426  11.859  11.037
11144W        W77927  39.140  24.631   2.907
11145W        W77928  16.995   6.108  11.035
11146W        W77929  30.993  14.522  14.933
11147W        W77930  30.526  24.982  10.607
11148W        W77931  12.314  26.787   2.871
11149W        W77932  44.731  28.935  14.953
11150W        W77933   3.115  30.095  11.133
11151W        W77934   4.912   7.580   1.223
11152W        W77935  40.863  41.707  13.451
11153W        W77936   2.863  32.484  12.349
11154W        W77937  39.591   3.945  13.069
11155W        W77938  37.490  27.208   0.515
11156W        W77939   7.961   9.333  11.665
11157W        W77940  42.945   3.812   3.126
11158W        W77941  14.888  13.404   3.202
11159W        W77942   7.760  20.560  11.593
11160W        W77943   3.127  22.282  11.114
11161W        W77944  22.601  39.296   0.332
11162W        W77945  17.375  12.615  13.559
11163W        W77946  37.852   3.241  12.969
11164W        W77947   8.146  14.838  14.440
11165W        W77948   6.729  32.461   2.345
11166W        W77949   6.195   8.957   2.150
11167W        W77950  22.925   7.698   0.869
11168W        W77951  14.838  12.316  13.876
11169W        W77952  42.632  33.999  14.828
11170W        W77953  17.104   3.790  11.601
11171W        W77954  34.396  23.922   1.839
11172W        W77955  28.849  43.367   2.576
11173W        W77956  24.895  20.655  14.415
11174W        W77957  29.185  23.471  14.869
11175W        W77958  17.717   1.877  13.799
11176W        W77959   9.211  17.362  14.982
11177W        W77960   2.233  44.755   1.186
11178W        W77961  17.165  13.038  11.021
11179W        W77962  10.044  24.057   3.674
11180W        W77963  12.115  42.469  12.934
11181W        W77964   7.450   8.672  14.948
11182W        W77965  31.045  24.296   3.548
11183W        W77966  39.225   5.859  12.843
11184W        W77967  21.702   0.702   2.356
11185W        W77968  23.113  33.156  12.942
11186W        W77969   5.850   9.136   1.227
11187W        W77970  10.088   6.548   5.031
11188W        W77971  38.552  37.625  12.915
11189W        W77972  11.057   3.463   3.571
11190W        W77973  32.430  41.771  12.045
11191W        W77974  35.406  40.936   1.941
11192W        W77975   2.410  22.834  12.009
11193W        W77976  43.290  42.427  13.406
11194W        W77977  11.203  22.231   3.697
11195W        W77978  11.801  19.090  14.848
11196W        W77979  22.406  22.520  12.317
11197W        W77980  40.927  17.067  10.426
11198W        W77981  40.039  38.810   4.338
11199W        W77982  38.574   3.381  10.753
11200W        W77983  19.509  12.730   3.374
11201W        W77984  16.911   1.402  11.966
11202W        W77985  29.162   8.287   1.185
11203W        W77986  33.379  12.596  14.764
11204W        W77987  10.284  21.328  11.483
11205W        W77988  35.485   1.435  14.512
11206W        W77989  17.314  24.558  11.645
11207W        W77990  22.695   8.977   1.346
11208W        W77991  44.922  23.323  13.107
11209W        W77992  36.929  18.633  12.390
11210W        W77993  27.966   8.229  12.450
11211W        W77994  29.617  24.995   2.611
11212W        W77995  18.508  41.772  11.122
11213W        W77996   2.878  42.470  14.529
11214W        W77997  40.257  37.974  12.155
11215W        W77998  23.758   8.175  10.746
11216W        W77999  43.999  17.656  10.307
11217W        W78000  15.551  19.716   5.031
11218W        W78001  17.168   5.641   2.428
11219W        W78002   4.285  10.131   5.260
11220W        W78003   6.429  41.740   3.079
11221W        W78004  17.301  19.007  12.036
11222W        W78005   2.452  23.667  12.982
11223W        W78006   0.221   2.413   3.762
11224W        W78007  13.989   5.416   0.388
11225W        W78008  36.373   3.955   0.511
11226W        W78009  11.083  16.834   1.843
11227W        W78010  41.976  27.984   0.755
11228W        W78011   8.177   1.816   2.842
11229W        W78012  30.648  17.222  11.448
11230W        W78013   4.398   8.917   3.905
11231W        W78014  31.457  24.627   0.046
11232W        W78015  33.527  11.684  11.032
11233W        W78016  30.565  17.593   0.841
11234W        W78017  20.571  32.336   3.293
11235W        W78018  19.903   6.895   3.769
11236W        W78019   4.674  44.239   2.735
11237W        W78020  13.602  40.464   0.780
11238W        W78021  34.965  16.042   3.890
11239W        W78022   1.577   3.784  13.870
11240W        W78023  35.488   4.518   0.516
11241W        W78024  43.510  29.925  12.438
11242W        W78025   4.574   4.923   4.265
11243W        W78026  27.585  12.488   2.300
11244W        W78027  14.250  21.985   3.245
11245W        W78028  39.959  38.811  12.557
11246W        W78029  13.732  40.812  13.973
11247W        W78030  10.918  23.629  11.550
11248W        W78031  10.643  38.184   0.249
11249W        W78032  31.121  38.527   0.486
11250W        W78033  34.628  12.279  14.327
11251W        W78034  36.994  12.887  14.164
11252W        W78035   7.398   5.770  14.659
11253W        W78036  40.462   2.409  13.570
11254W        W78037  38.805  12.854  14.852
11255W        W78038   9.551  39.503   0.415
11256W        W78039   2.420  31.708   1.922
11257W        W78040  16.369  17.567   4.055
11258W        W78041   1.119  33.487  13.964
11259W        W78042  11.057   7.110  12.497
11260W        W78043  32.006  17.802   3.826
11261W        W78044  11.892   4.356  13.884
11262W        W78045  10.125  40.933  11.169
11263W        W78046  37.694   1.729  10.615
11264W        W78047  41.830  15.064  12.044
11265W        W78048  42.093  43.625   3.163
11266W        W78049   2.402  40.596   0.940
11267W        W78050  22.281  34.513  11.825
11268W        W78051  28.956  32.355   3.676
11269W        W78052  16.146  31.570   4.006
11270W        W78053  29.929  29.909  14.855
11271W        W78054  38.393   6.777  12.829
11272W        W78055  44.073   4.857   1.552
11273W        W78056  11.635  20.671  11.677
11274W        W78057  26.669  29.409   0.797
11275W        W78058  22.864  36.307   5.272
11276W        W78059   2.025   5.859  10.876
11277W        W78060  37.045   6.211  14.080
11278W        W78061  43.218  39.494  11.611
11279W        W78062  21.966   2.281  12.672
11280W        W78063  41.563  32.647   3.943
11281W        W78064  41.147  36.582   4.216
11282W        W78065  18.192  12.702   1.683
11283W        W78066  35.352  26.754  14.402
11284W        W78067  27.536  17.558  11.904
11285W        W78068   5.294   3.258  14.810
11286W        W78069  12.939  24.332   4.069
11287W        W78070  30.592  40.847   3.883
11288W        W78071   9.331  38.761   1.494
11289W        W78072  16.926  13.706   0.807
11290W        W78073  27.673  15.663  11.878
11291W        W78074   1.052   3.826  13.986
11292W        W78075   8.334  33.618  11.084
11293W        W78076  22.564  35.849   4.360
11294W        W78077  39.279  43.392  14.940
11295W        W78078  44.255   1.196   4.350
11296W        W78079  13.176   8.570  12.058
11297W        W78080  22.164  43.029   1.018
11298W        W78081  29.587   2.737   1.229
11299W        W78082  24.610  19.796  12.865
11300W        W78083  13.369  40.465  13.889
11301W        W78084  13.065  26.060  13.368
11302W        W78085   8.350   1.022  13.020
11303W        W78086  41.474  14.264   3.499
11304W        W78087  27.526  26.605   9.750
11305W        W78088  36.209   0.904  10.601
11306W        W78089  36.970  20.922   3.913
11307W        W78090   5.686   3.846  13.919
11308W        W78091  14.388  42.004  12.497
11309W        W78092  18.945   7.289  14.856
11310W        W78093   9.421  14.613   0.680
11311W        W78094  43.774  28.566   2.927
11312W        W78095   2.739  41.529   3.325
11313W        W78096  20.620   3.850   4.329
11314W        W78097  12.481  38.764   3.673
11315W        W78098   8.461  14.816  10.660
11316W        W78099   4.956   8.637   1.527
11317W        W78100  17.793  33.452  14.586
11318W        W78101  30.377   0.073  13.524
11319W        W78102   7.459  31.039  14.698
11320W        W78103  36.362  21.994   0.867
11321W        W78104   9.159  31.603   1.264
11322W        W78105  32.338  44.328   1.439
11323W        W78106  40.778  12.088   0.662
11324W        W78107  35.537  36.031  13.114
11325W        W78108  29.081   1.473  10.723
11326W        W78109  10.916  19.987  10.720
11327W        W78110   0.924   6.946  11.709
11328W        W78111  18.846  27.132   4.870
11329W        W78112  43.116  36.360   0.004
11330W        W78113  42.946  25.965   0.321
11331W        W78114  44.989  41.102   3.814
11332W        W78115   8.864  31.182   0.409
11333W        W78116  41.311   4.028  10.733
11334W        W78117  42.606   5.835  14.863
11335W        W78118  16.653  39.232  12.360
11336W        W78119  35.061   6.420  13.789
11337W        W78120  15.229  21.876  14.949
11338W        W78121  35.650  18.826  11.770
11339W        W78122  17.820   3.897  13.550
11340W        W78123  14.314   9.684  12.519
11341W        W78124  16.857  10.782   4.582
11342W        W78125  44.405  12.329  14.303
11343W        W78126  12.797  10.809   0.322
11344W        W78127  21.108  32.463  14.424
11345W        W78128  23.250  16.301   3.617
11346W        W78129  25.008  34.797   3.401
11347W        W78130  23.041  32.726   4.530
11348W        W78131  43.541  24.018  13.308
11349W        W78132  10.097  41.820   4.237
11350W        W78133  26.929  25.190  13.032
11351W        W78134  42.476  39.578   2.337
11352W        W78135   3.694  25.783  12.264
11353W        W78136  23.068  37.370   2.752
11354W        W78137  33.390  44.275   4.109
11355W        W78138  18.030  34.365  13.905
11356W        W78139  35.020  27.052  10.421
11357W        W78140  34.237  34.578   4.532
11358W        W78141  41.919  43.471  11.636
11359W        W78142  32.121  43.531   4.758
11360W        W78143  38.556  18.232   2.337
11361W        W78144  31.967  34.121   3.336
11362W        W78145  20.115  42.885  14.319
11363W        W78146  37.256  37.362   3.192
11364W        W78147  37.980  33.532  13.748
11365W        W78148  33.660  44.007   1.473
11366W        W78149  19.725  33.590   1.754
11367W        W78150  37.437  17.059   4.536
11368W        W78151  21.631  14.111   4.978
11369W        W78152  28.719  26.895   1.075
11370W        W78153   7.170  33.536  11.963
11371W        W78154  26.050  43.498  12.388
11372W        W78155  40.714  40.810  11.941
11373W        W78156  39.313  29.448  14.885
11374W        W78157  24.325  41.618  10.641
11375W        W78158   0.554  24.639  14.118
11376W        W78159  14.509   1.031   1.767
11377W        W78160  35.669  39.981  11.237
11378W        W78161  43.709   5.013   0.534
11379W        W78162  19.748  25.618  11.061
11380W        W78163  14.158  27.612  12.821
11381W        W78164   2.192  33.978  12.874
11382W        W78165  22.120  25.129   3.404
11383W        W78166  24.636  10.636  12.925
11384W        W78167  14.642  26.723  14.575
11385W        W78168  18.998  40.762   0.318
11386W        W78169  26.766  35.746   2.345
11387W        W78170   0.433  41.781  13.783
11388W        W78171   3.022  35.927   2.623
11389W        W78172  16.651   1.412  13.831
11390W        W78173   8.423  21.617   4.902
11391W        W78174  29.817  40.302  10.683
11392W        W78175  19.478   2.981   4.575
11393W        W78176  42.259  16.449  12.093
11394W        W78177  19.106  44.288  11.667
11395W        W78178  32.692  18.813  14.470
11396W        W78179  40.531  13.396  14.862
11397W        W78180  38.048  11.210   3.111
11398W        W78181  44.428  33.607   2.238
11399W        W78182  43.561  13.218  14.036
11400W        W78183  25.572  37.809  12.037
11401W        W78184  33.741  17.130  10.915
11402W        W78185  36.425  26.241  10.550
11403W        W78186  22.165  21.530  12.557
11404W        W78187  36.324  43.080   2.431
11405W        W78188  43.726  37.953   0.396
11406W        W78189  27.733  33.932   4.301
11407W        W78190  23.440  31.946   2.882
11408W        W78191  15.709  29.402  14.365
11409W        W78192  27.168   5.709   1.667
11410W        W78193  38.073  21.015  11.859
11411W        W78194  22.664  41.253  12.427
11412W        W78195  11.400   1.271  14.809
11413W        W78196  35.247  43.046   0.137
11414W        W78197  32.250  39.120   0.748
11415W        W78198   3.317  17.172   1.151
11416W        W78199  36.546   4.850  12.917
11417W        W78200  27.289   3.829  11.940
11418W        W78201   8.766  21.481   1.165
11419W        W78202  15.910   6.121  10.669
11420W        W78203  18.482  13.031   5.375
11421W        W78204  25.779  35.428   2.157
11422W        W78205  29.137  44.242   1.280
11423W        W78206  44.162  21.742  13.360
11424W        W78207  24.538  44.862  12.587
11425W        W78208   4.495   0.122  11.305
11426W        W78209   9.698  22.440   2.839
11427W        W78210  41.253   7.768   1.972
11428W        W78211   0.034  34.213   3.223
11429W        W78212   3.688  42.802   4.083
11430W        W78213  33.973   3.457   0.991
11431W        W78214  35.155  38.994  14.952
11432W        W78215  33.478  26.449  10.634
11433W        W78216   9.143   4.647  10.301
11434W        W78217  23.615  21.271   3.656
11435W        W78218  31.594   2.333  13.915
11436W        W78219   2.003   6.393  11.616
11437W        W78220  25.136  39.679  11.127
11438W        W78221   0.737   4.532  10.561
11439W        W78222   2.435  34.062   0.451
11440W        W78223  35.633  19.065   3.218
11441W        W78224  36.341  42.653   1.693
11442W        W78225   7.860   6.305   2.317
11443W        W78226  36.956  11.309   3.910
11444W        W78227   3.171  10.169  11.044
11445W        W78228  32.509  28.538   1.426
11446W        W78229  33.176   0.122  14.383
11447W        W78230  17.060  27.013   2.411
11448W        W78231  39.053  20.819  11.623
11449W        W78232   6.340  40.963   1.270
11450W        W78233  24.729  30.873   0.917
11451W        W78234  39.775  18.454  11.470
11452W        W78235  32.419   9.498   3.127
11453W        W78236  23.179  25.717  14.037
11454W        W78237   7.375  44.494   2.286
11455W        W78238   6.737  37.076  11.076
11456W        W78239  12.969  38.482  11.523
11457W        W78240  14.040  36.241  13.513
11458W        W78241  37.022   4.471   0.320
11459W        W78242  13.593  24.163  11.609
11460W        W78243  19.295  40.781   0.740
11461W        W78244  14.232  22.238  14.978
11462W        W78245  15.460  39.708  14.870
11463W        W78246  37.238   8.911   2.291
11464W        W78247  18.139   1.408   0.282
11465W        W78248   7.359   9.676  11.217
11466W        W78249  18.193  27.575   4.377
11467W        W78250  30.645  15.035  14.321
11468W        W78251  36.405  20.648   2.888
11469W        W78252  44.171  28.958   3.753
11470W        W78253  30.007  16.638   4.235
11471W        W78254  43.736  27.400  10.639
11472W        W78255  32.801  43.485  12.073
11473W        W78256  37.532  37.566  10.819
11474W        W78257  30.757  18.912  13.816
11475W        W78258  27.385  35.029   4.099
11476W        W78259  23.928  26.899   3.321
11477W        W78260  13.813  38.871  13.495
11478W        W78261  25.639  39.869  14.549
11479W        W78262  32.930  37.131   4.049
11480W        W78263  29.227   0.443  11.988
11481W        W78264  24.668  23.364   5.371
11482W        W78265   0.021   0.319   3.270
11483W        W78266  15.602  22.592  14.605
11484W        W78267  17.109  21.771   2.807
11485W        W78268  40.770  24.524   0.391
11486W        W78269  33.578   4.615   3.736
11487W        W78270   1.996  33.876   2.221
11488W        W78271  39.312  39.204   2.398
11489W        W78272  27.926  19.552  14.888
11490W        W78273  12.265  27.315   4.158
11491W        W78274  39.623  12.289  11.143
11492W        W78275  17.334  42.890   1.412
11493W        W78276   6.111   1.953  13.116
11494W        W78277  38.394   8.476  13.539
11495W        W78278  20.424  28.708  12.957
11496W        W78279  33.410  18.643   3.008
11497W        W78280  10.928  25.882   1.040
11498W        W78281  40.097  37.411   1.794
11499W        W78282   5.392  15.301   4.629
11500W        W78283   2.879  20.682  14.892
11501W        W78284  28.038  23.456   4.521
11502W        W78285  38.791  29.706   4.233
11503W        W78286   7.372  31.898  14.190
11504W        W78287  24.215  27.088  11.480
11505W        W78288  11.265  11.642  11.890
11506W        W78289   3.239  13.155  11.872
11507W        W78290  32.350  23.200  10.374
11508W        W78291  42.893  27.403   2.783
11509W        W78292  40.582  26.293   0.007
11510W        W78293  39.401  43.897   3.725
11511W        W78294  35.372  28.172  14.213
11512W        W78295   4.851  24.702   0.634
11513W        W78296  14.585   1.807   4.169
11514W        W78297  23.993  25.518   2.204
11515W        W78298  22.602  27.718  13.417
11516W        W78299  44.917   9.176   1.217
11517W        W78300  40.285   7.792  14.770
11518W        W78301  19.287   5.857   2.304
11519W        W78302   5.532  13.951  11.204
11520W        W78303  38.953   5.384  10.710
11521W        W78304   8.365  20.239  12.948
11522W        W78305  37.553  35.134  12.077
11523W        W78306  39.115   1.390   4.440
11524W        W78307  21.506  10.135  11.696
11525W        W78308  37.034  21.110   3.440
11526W        W78309  27.178   5.019   2.876
11527W        W78310  23.366  30.116  12.523
11528W        W78311  42.790  20.848  12.113
11529W        W78312  21.465  26.497  11.961
11530W        W78313  30.339  29.943  11.266
11531W        W78314   2.761  23.417  14.306
11532W        W78315   2.072   7.618   0.608
11533W        W78316  25.475  16.896  14.719
11534W        W78317  24.112  11.571  14.932
11535W        W78318  23.772   3.455  11.600
11536W        W78319  25.933   6.335  10.655
11537W        W78320  24.460  26.425   2.280
11538W        W78321  13.801   9.823   3.364
11539W        W78322  41.500  27.686  11.855
11540W        W78323  40.614  42.446   3.226
11541W        W78324  41.758  11.865   4.533
11542W        W78325  36.626   8.598  11.565
11543W        W78326  12.395  25.566  11.755
11544W        W78327  26.612  21.549   2.902
11545W        W78328  25.490  27.900  10.695
11546W        W78329  44.314  31.185   4.181
11547W        W78330   6.009   5.770  14.717
11548W        W78331  29.596  29.423   0.490
11549W        W78332   2.835  27.122   0.267
11550W        W78333  30.872  22.262  10.762
11551W        W78334  10.060   2.896  11.102
11552W        W78335  28.936  14.080   4.522
11553W        W78336   6.153  34.203   0.327
11554W        W78337   2.223  18.002  11.643
11555W        W78338  20.180  33.479  12.501
11556W        W78339  38.046   4.724  13.039
11557W        W78340  22.349   6.171  13.616
11558W        W78341   3.928  25.772  11.744
11559W        W78342  19.303   2.815  10.727
11560W        W78343  40.736   7.733   1.989
11561W        W78344  24.600  43.727   4.649
11562W        W78345  16.803  14.387   1.311
11563W        W78346  42.801  33.172   0.379
11564W        W78347   1.415  15.233   3.215
11565W        W78348  22.252   7.099  13.485
11566W        W78349  22.776  17.699  13.001
11567W        W78350  32.954  44.951   0.501
11568W        W78351  31.916  41.629   3.635
11569W        W78352  24.356  33.244   4.932
11570W        W78353  27.343  10.069   2.397
11571W        W78354  32.610  16.623   2.305
11572W        W78355   6.975  26.560  11.576
11573W        W78356  19.298   5.218  14.822
11574W        W78357  35.282  30.492  14.307
11575W        W78358  13.345  38.563   0.674
11576W        W78359  16.270  30.710   5.021
11577W        W78360  27.667  44.313   3.385
11578W        W78361   6.231  13.163  12.103
11579W        W78362  15.479  18.622   3.643
11580W        W78363  42.016  28.961  12.029
11581W        W78364  17.109  34.483  10.344
11582W        W78365  35.598  38.031  11.779
11583W        W78366  29.363  37.808  11.033
11584W        W78367  42.560  17.365  12.398
11585W        W78368  10.986   6.208   2.382
11586W        W78369   8.968  26.919  13.555
11587W        W78370   7.817  43.238  11.455
11588W        W78371  38.593   4.314   0.219
11589W        W78372  30.527  39.599  11.617
11590W        W78373  33.685   7.899  14.356
11591W        W78374  23.786  43.926   1.137
11592W        W78375  10.389  41.248   0.754
11593W        W78376  39.626  33.996   1.503
11594W        W78377   2.314  27.962  10.347
11595W        W78378  22.509  10.265  14.627
11596W        W78379  39.911  27.057  13.032
11597W        W78380  13.308  15.727   3.642
11598W        W78381  36.866  18.846   2.399
11599W        W78382  22.182  35.047  12.592
11600W        W78383  11.140   7.887  13.877
11601W        W78384  19.453  39.463   1.734
11602W        W78385  24.622  39.783   4.905
11603W        W78386  44.091  18.767  13.493
11604W        W78387  17.675  22.285  14.507
11605W        W78388  14.957   1.147   4.897
11606W        W78389  27.987  12.701  14.057
11607W        W78390  26.316   0.109   4.529
11608W        W78391  38.293  25.668  12.950
11609W        W78392  32.019   9.217  11.752
11610W        W78393   7.690  28.593   0.213
11611W        W78394  28.882  43.139   2.101
11612W        W78395  35.917  30.939  12.390
11613W        W78396  43.942  32.352   2.743
11614W        W78397  35.059  33.105   2.811
11615W        W78398  18.552   4.349   1.574
11616W        W78399  37.796  29.534  10.793
11617W        W78400  36.802   5.840   0.278
11618W        W78401  44.570  30.736   4.970
11619W        W78402   6.500   5.665   2.663
11620W        W78403  38.258  42.899  12.651
11621W        W78404  12.851  23.530  14.453
11622W        W78405  19.560  35.663  13.930
11623W        W78406  41.374  36.258   3.586
11624W        W78407  21.257   7.498  14.196
11625W        W78408  38.513   2.333  11.829
11626W        W78409  39.033  16.006   3.951
11627W        W78410  17.778  19.807  11.744
11628W        W78411   9.882  34.488   2.203
11629W        W78412   2.249  18.645   2.742
11630W        W78413   0.838  26.916  11.751
11631W        W78414  36.821  13.856   0.838
11632W        W78415  36.087  14.982   3.145
11633W        W78416  40.101  27.638   2.411
11634W        W78417  36.382  16.220   3.877
11635W        W78418  25.460   5.580  12.594
11636W        W78419  42.075  24.545  14.997
11637W        W78420  16.492  36.133   4.213
11638W        W78421   8.831  35.649   2.245
11639W        W78422  20.608  26.533  11.641
11640W        W78423   8.981  26.165  14.562
11641W        W78424  42.488  42.799  11.537
11642W        W78425   9.888  30.921  14.899
11643W        W78426   6.839  10.432  14.930
11644W        W78427   7.160  32.255  10.689
11645W        W78428  13.590  19.975   3.322
11646W        W78429  13.268  13.756  10.763
11647W        W78430  31.071  20.428   2.780
11648W        W78431  42.307   9.205   2.422
11649W        W78432  15.604   9.098   2.232
11650W        W78433  24.814  28.120  13.339
11651W        W78434  37.935  36.235   1.497
11652W        W78435  28.132  23.813   2.245
11653W        W78436   9.996   8.650   9.896
11654W        W78437   3.762  37.589   3.712
11655W        W78438   7.862  41.331  14.501
11656W        W78439  27.851  39.198   1.866
11657W        W78440   2.968   0.435   1.291
11658W        W78441  43.527   0.242   0.513
11659W        W78442   0.281  13.621   2.361
11660W        W78443  29.006  10.260   4.224
11661W        W78444   9.270   2.619   4.724
11662W        W78445  23.900  40.704   0.822
11663W        W78446  34.410  32.043  10.730
11664W        W78447  40.760  18.786   3.750
11665W        W78448  41.288  38.698  12.440
11666W        W78449  18.383  19.643   4.601
11667W        W78450  34.732  44.259   4.583
11668W        W78451  26.790   1.342   4.725
11669W        W78452  36.542  21.960  11.058
11670W        W78453  27.164  13.403  11.601
11671W        W78454  40.475  38.424  13.398
11672W        W78455  34.522  34.933   0.314
11673W        W78456  14.641   3.354   0.980
11674W        W78457  28.801  26.790   4.434
11675W        W78458  35.717  24.096   2.538
11676W        W78459  28.932  35.933  13.529
11677W        W78460  32.121  30.957  13.456
11678W        W78461  17.576  10.698   3.112
11679W        W78462  41.222   0.515   5.094
11680W        W78463  21.163  25.678  12.554
11681W        W78464   1.015  11.928   2.810
11682W        W78465  27.422  15.551  11.129
11683W        W78466   3.187   5.570   1.849
11684W        W78467  40.509  43.224  14.460
11685W        W78468  15.804  10.692  11.466
11686W        W78469  27.431  20.616   0.509
11687W        W78470  25.266  11.024  11.670
11688W        W78471  29.681  15.049  14.402
11689W        W78472  40.595  18.149   0.369
11690W        W78473  23.921   5.440   4.974
11691W        W78474  30.095  33.752   3.946
11692W        W78475  36.451  10.725   1.392
11693W        W78476  13.699  37.920   3.412
11694W        W78477   9.824   2.739   3.866
11695W        W78478  24.539  41.738  12.592
11696W        W78479  10.906  26.720   4.608
11697W        W78480  39.393  11.056   4.965
11698W        W78481  29.032  36.712  14.581
11699W        W78482  43.837  42.863   2.159
11700W        W78483  39.937  20.618   0.721
11701W        W78484  28.665  10.116  12.175
11702W        W78485   1.784  13.980   3.375
11703W        W78486   2.534  20.248  11.217
11704W        W78487  28.617  36.847  12.569
11705W        W78488   8.637  36.630   2.162
11706W        W78489  37.290  23.605   3.194
11707W        W78490  22.901  35.652  13.114
11708W        W78491  19.741  34.525  11.732
11709W        W78492  41.902  39.500  13.540
11710W        W78493  17.167  29.477  11.644
11711W        W78494  38.956   0.515  10.736
11712W        W78495  12.317  11.920   2.810
11713W        W78496  41.791  42.333  11.204
11714W        W78497  35.520  43.840   0.798
11715W        W78498  37.433  37.643   4.843
11716W        W78499  12.570  13.554  10.646
11717W        W78500   2.322   3.863   2.768
11718W        W78501  13.226  24.277  13.377
11719W        W78502  35.040   4.459   2.581
11720W        W78503  10.913  31.930  13.064
11721W        W78504  19.173  14.436   1.478
11722W        W78505  32.338  24.257   4.056
11723W        W78506  23.071  41.295  10.759
11724W        W78507  25.110  14.358  11.516
11725W        W78508  27.534  20.438  12.518
11726W        W78509  33.587  24.436  10.126
11727W        W78510  39.464  31.991   0.928
11728W        W78511  27.552  33.824  11.023
11729W        W78512  16.195  23.942  11.500
11730W        W78513   1.612  34.069  11.934
11731W        W78514   0.902  42.248   2.902
11732W        W78515  39.455   1.489   3.224
11733W        W78516  41.299  19.687  10.583
11734W        W78517  20.322   1.819  14.614
11735W        W78518  41.275  22.175   4.092
11736W        W78519  12.073   0.469   3.934
11737W        W78520  20.968  41.998  13.088
11738W        W78521  24.970  42.004   4.467
11739W        W78522  29.677  25.262   1.229
11740W        W78523  32.850   0.379   4.621
11741W        W78524  16.557   0.948  14.062
11742W        W78525  23.016   6.437  14.994
11743W        W78526   8.440   7.945  11.644
11744W        W78527  40.413  24.236  11.612
11745W        W78528  18.252  15.919   0.174
11746W        W78529  18.399  18.142   3.551
11747W        W78530  39.953  12.724  10.444
11748W        W78531  30.079  23.914  11.216
11749W        W78532  13.699  42.224   1.434
11750W        W78533  37.949  24.878  12.637
11751W        W78534  30.426  19.778  12.591
11752W        W78535  36.410  18.411  10.435
11753W        W78536  30.155   5.681  14.438
11754W        W78537  41.077  28.160   4.703
11755W        W78538  21.693  39.422  14.476
11756W        W78539  28.686  24.102   2.761
11757W        W78540  40.945  21.320  11.641
11758W        W78541  44.026  22.025   4.436
11759W        W78542  10.358  34.485  14.323
11760W        W78543  38.321  41.322  13.896
11761W        W78544  17.118   8.652   2.723
11762W        W78545  31.203  25.119  14.952
11763W        W78546  37.973  28.645   0.468
11764W        W78547  20.111  35.442   1.801
11765W        W78548  20.935   5.246   0.562
11766W        W78549  14.915   2.333   2.703
11767W        W78550  43.884  16.931   0.043
11768W        W78551  17.699  34.152  13.173
11769W        W78552  17.427  28.136  10.686
11770W        W78553   9.971   6.176   0.082
11771W        W78554  17.775  24.688  10.835
11772W        W78555  15.541  40.551   1.380
11773W        W78556  11.900  30.184   0.396
11774W        W78557  15.175  20.971   1.237
11775W        W78558  44.061  35.354   1.414
11776W        W78559  34.588  39.294  12.019
11777W        W78560  20.636  37.465   0.961
11778W        W78561  12.786  10.906   3.201
11779W        W78562  11.628  34.815   3.644
11780W        W78563   3.444  25.601  14.990
11781W        W78564  23.901   2.549   2.270
11782W        W78565   5.643  44.465   2.682
11783W        W78566  16.332  25.025  12.830
11784W        W78567  28.801  25.191  12.964
11785W        W78568  31.413  31.054   1.185
11786W        W78569  43.665  12.563   2.847
11787W        W78570  43.808  32.533  10.404
11788W        W78571  37.839   6.126  14.453
11789W        W78572  14.612  38.547  12.979
11790W        W78573  40.411   9.911  10.552
11791W        W78574   9.581   5.457  14.455
11792W        W78575  34.003  30.819  11.885
11793W        W78576  16.205  32.968   2.248
11794W        W78577  10.598  40.405   3.302
11795W        W78578  22.567  32.269   4.959
11796W        W78579  29.224  34.267   4.044
11797W        W78580  12.592  15.788  14.766
11798W        W78581   3.090  40.358   1.578
11799W        W78582  36.047  44.482  11.353
11800W        W78583  14.629  36.650  10.613
11801W        W78584  30.650  37.160   3.803
11802W        W78585  10.288  16.619   0.922
11803W        W78586   8.735  11.084  12.266
11804W        W78587   2.990  15.065  14.934
11805W        W78588  33.116  26.010  13.378
11806W        W78589   2.363  43.296   1.602
11807W        W78590  34.140  13.329  12.141
11808W        W78591   2.063  15.374   1.684
11809W        W78592   3.512  32.903  14.770
11810W        W78593  14.837  27.532   3.643
11811W        W78594  15.670  38.145   3.761
11812W        W78595  16.580   7.204   4.149
11813W        W78596  35.860   9.542  12.948
11814W        W78597  37.591  15.304   0.229
11815W        W78598  36.350   2.266   3.279
11816W        W78599  17.656  27.665  10.740
11817W        W78600  29.901  36.521   0.809
11818W        W78601  41.803  23.941  11.651
11819W        W78602   3.606  35.174  11.199
11820W        W78603  14.743  31.451  11.030
11821W        W78604   6.171  29.733   2.596
11822W        W78605  15.615  10.086   1.083
11823W        W78606  27.641  18.615  12.547
11824W        W78607  31.446  22.261  14.393
11825W        W78608  17.079  24.051   3.524
11826W        W78609  24.946  42.160  10.461
11827W        W78610  19.589  38.058  12.839
11828W        W78611  18.627   2.615   3.249
11829W        W78612  23.076   7.246   4.114
11830W        W78613  39.901  33.410   1.817
11831W        W78614  42.227  20.654   1.695
11832W        W78615   1.999  36.337  13.426
11833W        W78616  29.851  37.006  14.269
11834W        W78617   7.770  36.579   3.188
11835W        W78618   5.921  21.787   3.654
11836W        W78619  37.538  26.635  14.047
11837W        W78620  23.674  17.630   1.926
11838W        W78621  21.116   8.935  13.393
11839W        W78622   4.306  28.873  11.345
11840W        W78623  20.584   5.956  11.410
11841W        W78624  30.301  44.849   1.482
11842W        W78625  42.536   1.343  14.789
11843W        W78626  36.233  14.784  12.493
11844W        W78627  43.046   3.808   5.231
11845W        W78628  28.061   1.300   4.461
11846W        W78629  43.000  32.446  11.012
11847W        W78630  33.951  37.762   0.421
11848W        W78631   7.798  21.077  13.657
11849W        W78632  18.697  43.323  14.229
11850W        W78633  34.164  43.697  12.619
11851W        W78634  39.849  18.256   0.934
11852W        W78635  32.706  17.282   3.891
11853W        W78636  16.143  43.924   3.022
11854W        W78637  11.562  39.469  10.274
11855W        W78638  30.650   5.809   2.086
11856W        W78639   3.518  31.604   4.722
11857W        W78640  17.783  21.060  13.720
11858W        W78641  34.465  10.066   3.919
11859W        W78642   5.446  10.947  11.093
11860W        W78643  27.851   2.270  11.432
11861W        W78644   2.280  32.386  13.107
11862W        W78645   0.292  31.598  10.714
11863W        W78646  37.167  41.589   3.577
11864W        W78647  38.972  17.452   2.752
11865W        W78648   2.427  25.603  10.837
11866W        W78649  32.894  29.573  11.964
11867W        W78650  32.633  42.000   1.291
11868W        W78651  21.060   5.242   4.109
11869W        W78652  36.785  31.857   3.481
11870W        W78653  16.206   8.312   3.066
11871W        W78654  29.561  31.450   2.203
11872W        W78655  15.800  42.792  14.181
11873W        W78656   5.963  37.398   4.642
11874W        W78657   2.481   7.639  11.482
11875W        W78658  33.303   3.841   4.808
11876W        W78659  29.636  14.619  13.174
11877W        W78660  26.976  19.519  12.929
11878W        W78661  27.217  11.915   1.477
11879W        W78662  13.240  20.191  11.626
11880W        W78663  30.519  16.034  12.019
11881W        W78664  40.418  40.634  11.123
11882W        W78665   8.370  14.131   2.725
11883W        W78666   5.353   1.884  12.563
11884W        W78667  20.810  40.201  11.455
11885W        W78668  21.182  42.727  10.049
11886W        W78669  17.395  43.649  12.999
11887W        W78670  22.435  11.240  10.463
11888W        W78671   0.795  43.836   1.007
11889W        W78672  41.343  44.794   2.771
11890W        W78673   1.906   6.113   4.146
11891W        W78674  13.401  38.062  12.014
11892W        W78675  32.533  23.680  11.285
11893W        W78676  31.857  14.066   1.621
11894W        W78677   9.392  21.663  11.663
11895W        W78678  10.529  17.273   2.163
11896W        W78679  35.150  41.909  14.447
11897W        W78680  19.256  36.774   0.029
11898W        W78681  24.180   8.533   1.754
11899W        W78682   7.169  25.936   4.151
11900W        W78683  42.916  19.754  13.006
11901W        W78684  30.507  12.607  11.534
11902W        W78685  42.018   9.413   0.743
11903W        W78686  25.707   3.553   4.545
11904W        W78687  31.490  15.748   0.340
11905W        W78688   8.275  39.056   0.309
11906W        W78689  27.967  12.862   4.582
11907W        W78690   1.170  26.145   3.407
11908W        W78691   6.371  10.275   5.178
11909W        W78692  23.447   8.800  12.987
11910W        W78693  34.892  38.375   4.250
11911W        W78694  26.990   8.353  10.673
11912W        W78695  37.891  22.562  11.737
11913W        W78696  37.394  26.744   4.631
11914W        W78697   8.640  19.153  13.114
11915W        W78698  28.150  17.470   0.755
11916W        W78699  39.480  44.441  11.150
11917W        W78700  13.496  35.017   0.771
11918W        W78701  28.546  39.401   3.227
11919W        W78702  40.035  23.561   3.713
11920W        W78703   4.148  24.639  13.293
11921W        W78704  32.154   3.144   2.843
11922W        W78705  31.467   1.728   3.395
11923W        W78706  11.552  25.606  13.251
11924W        W78707  32.176  29.205  11.091
11925W        W78708  38.518   7.890   5.716
11926W        W78709   7.859  31.535   1.874
11927W        W78710   1.630  23.207   3.645
11928W        W78711  12.681   8.222   1.939
11929W        W78712  15.751  11.201   1.377
11930W        W78713  34.042  29.021   3.360
11931W        W78714  19.180  29.487   0.742
11932W        W78715   7.953   5.656  14.115
11933W        W78716   2.960   2.804  11.683
11934W        W78717  17.776  36.453   0.962
11935W        W78718   4.777  22.995   1.508
11936W        W78719  41.281  18.214  12.080
11937W        W78720  24.844   5.329  13.976
11938W        W78721  39.708  28.810   2.185
11939W        W78722  44.755   6.243  13.463
11940W        W78723  16.428  34.098  14.726
11941W        W78724  24.446  41.741   4.614
11942W        W78725  31.372  14.658   0.801
11943W        W78726  12.135  14.553  11.788
11944W        W78727  22.032   5.049   4.501
11945W        W78728   6.464   0.605  14.698
11946W        W78729  33.043   6.566   1.925
11947W        W78730  44.885  37.077   2.403
11948W        W78731  14.278  10.203   1.429
11949W        W78732  36.844  33.106   1.530
11950W        W78733  42.488   3.818   1.737
11951W        W78734  43.541   7.312  14.231
11952W        W78735  18.680  23.268   1.476
11953W        W78736   9.215  40.759   3.675
11954W        W78737   2.400   6.286  10.705
11955W        W78738   3.671   4.224  14.780
11956W        W78739  11.323  10.865  14.907
11957W        W78740  41.535  36.545  13.627
11958W        W78741  26.394  35.578   3.550
11959W        W78742  26.184  16.357   1.777
11960W        W78743  22.696  21.603  12.509
11961W        W78744   2.400  32.161   1.677
11962W        W78745   9.186  12.760  12.551
11963W        W78746  37.117  38.021  12.547
11964W        W78747  33.849   3.280   4.339
11965W        W78748  36.850  20.465  14.332
11966W        W78749  35.436   8.083   1.370
11967W        W78750  19.210  13.582  12.665
11968W        W78751   7.237  38.860  13.759
11969W        W78752  38.825  20.865   1.700
11970W        W78753   7.899  34.798  12.035
11971W        W78754  43.866  27.943  14.849
11972W        W78755  31.557  32.027   0.473
11973W        W78756  31.991  39.474   4.675
11974W        W78757  31.226  19.924   2.736
11975W        W78758  22.899  32.556   1.796
11976W        W78759  44.262   0.939   3.158
11977W        W78760   7.928  19.086   1.163
11978W        W78761  20.566  37.780   1.359
11979W        W78762  39.448  36.988  13.915
11980W        W78763  35.591  15.399  11.679
11981W        W78764  19.125  12.364   3.337
11982W        W78765  30.289  13.248  14.915
11983W        W78766   3.961   6.807   4.387
11984W        W78767   2.741  12.173   1.680
11985W        W78768   6.390  43.014   3.791
11986W        W78769   7.893  11.177  11.233
11987W        W78770  10.898  15.192  14.414
11988W        W78771   5.832  12.715  11.578
11989W        W78772  26.426  38.565   3.244
11990W        W78773  39.438  23.624   1.527
11991W        W78774   1.483  16.312   0.564
11992W        W78775  13.155   6.315  14.925
11993W        W78776  38.785  31.458   0.726
11994W        W78777  10.463  39.382  10.218
11995W        W78778  38.720  23.928  11.205
11996W        W78779  11.999  11.101  12.080
11997W        W78780  36.124  24.297   1.270
11998W        W78781  19.479  24.543  14.395
11999W        W78782  20.829  12.940  11.963
12000W        W78783  22.700  19.982  14.791
12001W        W78784  42.082   3.783   2.853
12002W        W78785  12.932  29.960  10.504
12003W        W78786   7.507   5.427   2.697
12004W        W78787   9.585  18.769  11.725
12005W        W78788  23.703   7.696   1.422
12006W        W78789   0.694   5.131   0.860
12007W        W78790  14.640  19.153   1.973
12008W        W78791   5.123  36.714  11.053
12009W        W78792  44.886  26.889   2.237
12010W        W78793   9.320  15.794   1.352
12011W        W78794  31.862  41.029   3.190
12012W        W78795  20.069  28.392  11.207
12013W        W78796   2.305  38.824   3.616
12014W        W78797  22.127  31.076   3.537
12015W        W78798  30.724   5.331   1.907
12016W        W78799   5.927  13.373  14.419
12017W        W78800  38.982   7.435   4.602
12018W        W78801  24.547  18.730  12.700
12019W        W78802  31.520   9.863  14.452
12020W        W78803  30.439   9.443  10.753
12021W        W78804  33.530  39.069  11.188
12022W        W78805  19.228   9.414   3.718
12023W        W78806  42.021   6.299  10.860
12024W        W78807  40.465  41.144   3.300
12025W        W78808  30.689   3.024  11.137
12026W        W78809  16.033   2.020  13.294
12027W        W78810  43.128  10.717  12.165
12028W        W78811   5.765   9.560  14.454
12029W        W78812   4.307   3.141  13.752
12030W        W78813  13.259  39.228  12.600
12031W        W78814   1.142   4.511   3.090
12032W        W78815   8.251  11.820  14.287
12033W        W78816  44.931  33.493  12.540
12034W        W78817   3.136  14.051   3.650
12035W        W78818  18.836  34.340  14.297
12036W        W78819  35.349  13.057  14.434
12037W        W78820   5.140   4.452   4.827
12038W        W78821  35.393  36.638  14.357
12039W        W78822  35.989  12.615   1.811
12040W        W78823  13.117  18.728  13.133
12041W        W78824   0.974  39.002   1.294
12042W        W78825   4.139  17.081  12.812
12043W        W78826  25.154  13.166   3.146
12044W        W78827   3.749  18.457  14.404
12045W        W78828  15.047  26.220   0.437
12046W        W78829   6.425  23.054  11.468
12047W        W78830   9.220   2.262   0.695
12048W        W78831  25.874  29.321   0.312
12049W        W78832  33.884  12.368   0.819
12050W        W78833  37.954  39.870  10.580
12051W        W78834   5.352  17.014   4.483
12052W        W78835  12.765  19.016   1.617
12053W        W78836  39.114  22.558  12.133
12054W        W78837  25.059  42.394   0.823
12055W        W78838  25.637  36.146   3.376
12056W        W78839  33.960  21.210   3.597
12057W        W78840  18.517   6.870   4.619
12058W        W78841  11.171   0.195  14.010
12059W        W78842  15.372  30.364   4.163
12060W        W78843   0.501   1.694  14.809
12061W        W78844  25.104   6.471  11.360
12062W        W78845  10.686  36.032  13.922
12063W        W78846  25.960  10.079   3.297
12064W        W78847  10.094  43.251   0.971
12065W        W78848  26.647  24.305   3.701
12066W        W78849   2.393   6.154  12.565
12067W        W78850  27.572   0.690   0.942
12068W        W78851  43.774  29.476  12.413
12069W        W78852   9.901   1.963   2.615
12070W        W78853  28.058  33.445   3.603
12071W        W78854  30.234   7.202   3.045
12072W        W78855  24.621  31.372   2.568
12073W        W78856  10.995  26.659   2.416
12074W        W78857  39.723   9.044   5.467
12075W        W78858  21.325  14.687  10.325
12076W        W78859  27.479   6.399  11.547
12077W        W78860  20.112   4.635   1.305
12078W        W78861  22.531  16.640  13.023
12079W        W78862  26.079  39.539   9.863
12080W        W78863  33.212   8.352   3.276
12081W        W78864  30.149  27.441   0.348
12082W        W78865  39.279   9.914  13.978
12083W        W78866   9.337  35.597   0.238
12084W        W78867  10.149  37.803   4.453
12085W        W78868  34.831  33.477  14.201
12086W        W78869  40.607  14.931  11.607
12087W        W78870   7.581  23.120  14.353
12088W        W78871  38.567   2.383  12.811
12089W        W78872   9.242  32.567  11.509
12090W        W78873  15.555  27.803  13.258
12091W        W78874  41.080   7.877   0.031
12092W        W78875  35.003  34.402  12.484
12093W        W78876  11.254   3.095   0.900
12094W        W78877  43.921  31.379  13.409
12095W        W78878  12.635  15.509  12.430
12096W        W78879  39.667  15.857  11.179
12097W        W78880  30.106  16.279  12.405
12098W        W78881  34.980  10.168   3.879
12099W        W78882  16.188  41.318   3.795
12100W        W78883   3.225   7.900  12.498
12101W        W78884  23.052  38.784  13.396
12102W        W78885  28.811   6.824  10.755
12103W        W78886  32.399   7.744   2.716
12104W        W78887  20.524  33.121   2.832
12105W        W78888  12.915  25.519  11.655
12106W        W78889  11.213  42.291   2.899
12107W        W78890  10.618   9.630   0.804
12108W        W78891  21.251  24.486  11.999
12109W        W78892  29.053  23.138  10.796
12110W        W78893   0.569   0.235   3.205
12111W        W78894  27.574   5.296   1.517
12112W        W78895  32.621  14.287  12.315
12113W        W78896   1.776  32.447  14.234
12114W        W78897  36.858  19.595   3.643
12115W        W78898  41.698   8.135  12.480
12116W        W78899   2.475  24.569   0.335
12117W        W78900  22.775  13.131   3.960
12118W        W78901   2.971   0.142   1.712
12119W        W78902   9.769  37.970  11.677
12120W        W78903  25.208  43.010   1.595
12121W        W78904   6.962  17.399  12.017
12122W        W78905  28.704  26.379   0.947
12123W        W78906   9.931   6.883   1.198
12124W        W78907   4.806   6.695   1.031
12125W        W78908  20.563  12.325  14.821
12126W        W78909  37.170  33.910  14.304
12127W        W78910   2.951  30.836   0.880
12128W        W78911  24.908   3.992   4.567
12129W        W78912  12.043  22.469  11.826
12130W        W78913  23.758  28.808   2.733
12131W        W78914  21.101  14.027  14.911
12132W        W78915  13.899  41.852   4.712
12133W        W78916  41.020  32.064   1.197
12134W        W78917  28.036   1.880   1.899
12135W        W78918  31.909  29.111   3.372
12136W        W78919   7.228   8.230   4.237
12137W        W78920  10.401  30.373   4.950
12138W        W78921  16.025  38.595   3.080
12139W        W78922  14.861  30.669   3.827
12140W        W78923  35.292  12.322  14.966
12141W        W78924  14.150  18.303  12.839
12142W        W78925  16.684   2.666  12.590
12143W        W78926  33.849   3.479   2.069
12144W        W78927  23.071  29.486   3.555
12145W        W78928  24.299   2.413   0.934
12146W        W78929  23.093  23.537  10.650
12147W        W78930  44.518  17.256  12.477
12148W        W78931  20.648   6.427   2.457
12149W        W78932  13.148  28.250   1.825
12150W        W78933  36.188  30.498  13.973
12151W        W78934  39.870  43.975   3.512
12152W        W78935  12.957  20.304   0.389
12153W        W78936  13.236  42.362   2.080
12154W        W78937   0.951   2.952  14.691
12155W        W78938  28.080  36.048   1.223
12156W        W78939   8.194  27.297   0.310
12157W        W78940  11.473  37.313  11.096
12158W        W78941  37.075  38.766  11.115
12159W        W78942  25.472   1.375   3.414
12160W        W78943  26.332  13.645   4.170
12161W        W78944   7.118  10.158  10.490
12162W        W78945  24.533  13.560  11.234
12163W        W78946   5.431  21.761   0.672
12164W        W78947  11.277   6.256  10.682
12165W        W78948  27.490  19.465   2.719
12166W        W78949   6.625  43.265  14.069
12167W        W78950  39.741  21.193   4.251
12168W        W78951  22.087  38.257   4.823
12169W        W78952  19.184  30.434   1.705
12170W        W78953  16.856   2.124   3.665
12171W        W78954  34.472   9.380   9.986
12172W        W78955  44.291   3.755   0.304
12173W        W78956   0.000  12.363   1.837
12174W        W78957   8.728  10.629  12.534
12175W        W78958   5.706   7.931   3.108
12176W        W78959  21.764   5.655   1.694
12177W        W78960  31.472   8.757  10.626
12178W        W78961  31.905  10.948  13.889
12179W        W78962  28.516  17.969   3.065
12180W        W78963  28.553  38.322   4.731
12181W        W78964  38.946  10.593   0.041
12182W        W78965  38.536  19.767   1.276
12183W        W78966  37.251  42.049   0.267
12184W        W78967  18.223  12.628   3.168
12185W        W78968   6.930  26.224   4.516
12186W        W78969  40.658  30.958   2.779
12187W        W78970  25.005  26.756  14.564
12188W        W78971  14.724  10.286  10.244
12189W        W78972   7.329  26.454   1.684
12190W        W78973  17.785  17.178   2.801
12191W        W78974  23.621  36.044   2.114
12192W        W78975  43.216  16.573  13.891
12193W        W78976  30.542   4.422   1.374
12194W        W78977  41.900  42.496  14.294
12195W        W78978  15.524  18.025  12.495
12196W        W78979  18.114  27.899  14.824
12197W        W78980   8.336  40.320   0.816
12198W        W78981  17.174   6.288  12.065
12199W        W78982  38.522   5.190  13.871
12200W        W78983  32.845  34.809   2.976
12201W        W78984  20.987  23.076   4.675
12202W        W78985  29.107  19.535  11.252
12203W        W78986  11.357  21.575   3.027
12204W        W78987   2.002  16.489  12.899
12205W        W78988  24.403   4.687   0.204
12206W        W78989  20.664  34.475  14.360
12207W        W78990  25.989  14.896  13.916
12208W        W78991   8.430  39.698  11.571
12209W        W78992  21.348  35.475   4.581
12210W        W78993  35.114  10.442  11.035
12211W        W78994  30.907  38.569  11.579
12212W        W78995   8.452  24.951   2.545
12213W        W78996   4.626  23.950  11.998
12214W        W78997   2.278  40.320  11.575
12215W        W78998   6.982  27.209  14.899
12216W        W78999  12.808  11.936  13.140
12217W        W79000   1.928  35.055   0.893
12218W        W79001  31.061   5.131   3.419
12219W        W79002   5.879   1.428  12.749
12220W        W79003  31.046  25.509  14.292
12221W        W79004   5.194  43.080  11.617
12222W        W79005   0.329  15.317   3.878
12223W        W79006  40.542  35.941  14.435
12224W        W79007  39.961  33.035   2.205
12225W        W79008  31.411   6.447  10.233
12226W        W79009  25.619  17.341  14.489
12227W        W79010  43.458  13.240  14.551
12228W        W79011  28.255  34.054  10.442
12229W        W79012  36.116  13.255   4.543
12230W        W79013  25.938  21.056  10.709
12231W        W79014  21.033   8.745  10.899
12232W        W79015  21.429  18.810  13.421
12233W        W79016  20.218  43.737   2.266
12234W        W79017  29.637  40.033  12.161
12235W        W79018  27.511   1.786  13.539
12236W        W79019  41.290  21.088  14.024
12237W        W79020  43.406   5.767   0.976
12238W        W79021  28.742  10.585  11.978
12239W        W79022  10.766  41.443   1.955
12240W        W79023  11.748  26.703   3.731
12241W        W79024  20.357  26.286   3.203
12242W        W79025   7.908  36.893   4.425
12243W        W79026  10.126  41.843   1.599
12244W        W79027   8.482  28.619  11.724
12245W        W79028   2.708  14.260   3.237
12246W        W79029  38.516  27.083  14.415
12247W        W79030   5.368  14.493  14.428
12248W        W79031  20.072  43.004  13.380
12249W        W79032  20.103   6.472  13.028
12250W        W79033  23.194  31.215   0.460
12251W        W79034  24.553  27.776   1.760
12252W        W79035  41.427  32.380  14.016
12253W        W79036  23.498  24.955   1.051
12254W        W79037  43.772  35.143  13.644
12255W        W79038   4.983   9.826  11.261
12256W        W79039  30.960   4.529  13.453
12257W        W79040  13.525  30.272   4.883
12258W        W79041   0.003   6.704   2.797
12259W        W79042  24.499   6.903   5.021
12260W        W79043   2.737  27.908   2.849
12261W        W79044  21.124  32.547   3.256
12262W        W79045   4.769   3.731   2.580
12263W        W79046   5.143  11.404  14.801
12264W        W79047  25.253   9.698  11.959
12265W        W79048   4.604  24.766   3.286
12266W        W79049  27.620   2.450  12.262
12267W        W79050   3.481   8.606  14.481
12268W        W79051  23.613   7.905   2.901
12269W        W79052   0.575   9.554   5.005
12270W        W79053  11.687  35.119  10.596
12271W        W79054  33.905  12.251   4.425
12272W        W79055  14.118  25.281   1.446
12273W        W79056   2.449  39.781   1.815
12274W        W79057  43.979  41.813  14.530
12275W        W79058  39.329  23.636  14.132
12276W        W79059  41.931  26.097   3.363
12277W        W79060   0.387   4.506   2.657
12278W        W79061  36.061  22.946  14.843
12279W        W79062  11.544   3.372  11.709
12280W        W79063  41.041  38.339  11.211
12281W        W79064  21.550   4.433  12.498
12282W        W79065  28.634  28.420  12.820
12283W        W79066   2.350  36.780  12.281
12284W        W79067   3.205  21.562  11.610
12285W        W79068  14.747   6.464  10.709
12286W        W79069  20.109  30.484   0.524
12287W        W79070  44.525   1.487  12.617
12288W        W79071  23.623  18.062   1.547
12289W        W79072   2.370  37.947  10.677
12290W        W79073  31.115  25.986  10.820
12291W        W79074  40.508  15.400  14.975
12292W        W79075  28.246  11.944   3.737
12293W        W79076  25.890  29.714  11.556
12294W        W79077   7.977  30.197   0.419
12295W        W79078  29.029  34.150   3.197
12296W        W79079  16.333  32.743   2.695
12297W        W79080   4.987  16.672  14.543
12298W        W79081   0.086  43.698  11.112
12299W        W79082  39.748  30.682   3.667
12300W        W79083  28.155  11.163   2.549
12301W        W79084  33.978  41.009   4.564
12302W        W79085  32.652  26.049   2.705
12303W        W79086  24.755  35.463   4.507
12304W        W79087  20.520  33.823   4.005
12305W        W79088   6.679  35.494   0.943
12306W        W79089  38.149  43.593  13.912
12307W        W79090  30.650  16.702  13.481
12308W        W79091  34.228  43.797  14.392
12309W        W79092   9.639   8.434  11.694
12310W        W79093  21.684   0.917  11.418
12311W        W79094  36.333  15.837   3.379
12312W        W79095  31.491  34.419  10.723
12313W        W79096  16.208  30.071   3.849
12314W        W79097  34.829  28.408   4.026
12315W        W79098  10.181   7.254  14.861
12316W        W79099  31.551  33.430   2.673
12317W        W79100  26.430  21.027  11.500
12318W        W79101  39.484  28.902   1.289
12319W        W79102  19.781  26.021  12.197
12320W        W79103  36.016  27.982   1.521
12321W        W79104   1.397  10.233  14.721
12322W        W79105  34.093   5.904   0.126
12323W        W79106  33.806   3.822  13.632
12324W        W79107   2.510  26.486   1.788
12325W        W79108   6.595  24.663   4.182
12326W        W79109  43.615   4.803   4.047
12327W        W79110  28.165   1.799  12.883
12328W        W79111  44.451  41.889  14.332
12329W        W79112  40.628  33.298   1.332
12330W        W79113  16.218  38.416   2.130
12331W        W79114  11.292   5.974   1.680
12332W        W79115  13.733  17.247   0.295
12333W        W79116  11.771  35.925  11.008
12334W        W79117  28.480  20.112   3.829
12335W        W79118  25.779  22.199  13.993
12336W        W79119  33.277  29.698   2.211
12337W        W79120  19.194  33.953  14.240
12338W        W79121  29.530  22.996  14.292
12339W        W79122  26.306  21.822  11.076
12340W        W79123  14.563  34.195  10.696
12341W        W79124  24.528   2.581  13.399
12342W        W79125  27.489  21.992  13.117
12343W        W79126  14.727  17.408  13.809
12344W        W79127   0.978   8.221   2.688
12345W        W79128  22.574  20.059   2.185
12346W        W79129  33.647  19.705  14.884
12347W        W79130   2.220  38.561  13.044
12348W        W79131  21.135  35.905  14.644
12349W        W79132   2.669   2.303  13.430
12350W        W79133  39.295  36.919  11.828
12351W        W79134  13.125  23.640   0.287
12352W        W79135   3.717   4.553   4.112
12353W        W79136  14.775  17.804   9.434
12354W        W79137  39.492   5.902   2.328
12355W        W79138  10.892  44.986  12.465
12356W        W79139  11.161   2.755   2.966
12357W        W79140  22.768  21.703  13.290
12358W        W79141   9.785   5.969  13.366
12359W        W79142  23.157   9.914  13.974
12360W        W79143  10.413  39.382  11.114
12361W        W79144  14.869   3.841  10.408
12362W        W79145  43.893  14.854   1.736
12363W        W79146  12.282  10.921   0.362
12364W        W79147  28.417   1.685   3.187
12365W        W79148   1.344  16.340   0.054
12366W        W79149  37.895  30.100  13.581
12367W        W79150  22.689   3.555   1.776
12368W        W79151  41.650  10.643   2.266
12369W        W79152   5.163  18.074   2.424
12370W        W79153  21.932  26.462   2.337
12371W        W79154  31.938  19.787  12.137
12372W        W79155  33.288  36.893  14.496
12373W        W79156  24.269  19.735   4.797
12374W        W79157   5.723   6.904   0.643
12375W        W79158  35.044   3.809   4.253
12376W        W79159  16.762  18.553   3.106
12377W        W79160  38.729  18.906  10.650
12378W        W79161  10.441  16.149  11.972
12379W        W79162  41.040  40.539  10.682
12380W        W79163  25.122   7.834   1.278
12381W        W79164  13.666  32.151  13.973
12382W        W79165  22.644  13.373  12.753
12383W        W79166  20.461  33.687  14.689
12384W        W79167  21.453   2.946   1.880
12385W        W79168  11.282   0.008   4.524
12386W        W79169  43.713  35.905   4.571
12387W        W79170   9.690  30.497  14.003
12388W        W79171  29.170  42.930   2.812
12389W        W79172  22.039  27.025  12.404
12390W        W79173  42.034  13.197  14.907
12391W        W79174  40.094  27.544  10.909
12392W        W79175  11.300  37.384   0.881
12393W        W79176   3.191  23.972   0.531
12394W        W79177  22.962   8.131  13.399
12395W        W79178  38.428  11.400  14.908
12396W        W79179  10.409  17.018   4.570
12397W        W79180   1.748  44.597   0.251
12398W        W79181   5.882  39.629   3.456
12399W        W79182   3.652  34.099  11.180
12400W        W79183  33.809  11.160  12.046
12401W        W79184  40.086  40.585  14.008
12402W        W79185  15.168  27.937  11.961
12403W        W79186  41.338   9.314  11.142
12404W        W79187   8.891  38.273   3.143
12405W        W79188  23.760  32.638   3.662
12406W        W79189  26.744  34.982  12.687
12407W        W79190  12.606  36.131   2.407
12408W        W79191  44.637  40.477  14.057
12409W        W79192  41.113  34.939  11.249
12410W        W79193  12.331  34.834  13.025
12411W        W79194   9.111  35.013  14.315
12412W        W79195  25.159  23.541   0.294
12413W        W79196   0.722  21.853   4.113
12414W        W79197  19.243  39.774   0.159
12415W        W79198  34.976  38.074   3.280
12416W        W79199   1.817   6.094   1.204
12417W        W79200  37.400  22.534   2.764
12418W        W79201   7.495  36.084   4.606
12419W        W79202  40.874  15.917   2.165
12420W        W79203  37.764  35.327  13.319
12421W        W79204  39.762  29.911   1.391
12422W        W79205   6.103  16.582  13.752
12423W        W79206  32.974  22.671  11.036
12424W        W79207  41.144   1.046   3.674
12425W        W79208  22.412  18.745   1.841
12426W        W79209  13.576   4.252  13.285
12427W        W79210  13.740  16.040  13.359
12428W        W79211  12.623  41.289  11.598
12429W        W79212  21.198   7.784   1.441
12430W        W79213  42.308   0.273  14.436
12431W        W79214   3.560  25.991   0.335
12432W        W79215  13.719   8.587   1.221
12433W        W79216   6.490   0.629   1.411
12434W        W79217  34.377  21.010  14.907
12435W        W79218  20.922  14.628  13.379
12436W        W79219  18.495  13.331   2.775
12437W        W79220  34.008  34.060  12.518
12438W        W79221  39.170  14.423   3.258
12439W        W79222  10.353  42.707  14.216
12440W        W79223  23.021   2.173  14.193
12441W        W79224  39.788  36.941   4.073
12442W        W79225  11.876   9.224   0.414
12443W        W79226  37.797   4.478   0.757
12444W        W79227  19.019  33.191  13.037
12445W        W79228   2.159   6.912   3.407
12446W        W79229  37.978  16.339  11.583
12447W        W79230   7.122  34.438  13.424
12448W        W79231  41.805  41.831   4.184
12449W        W79232  38.052  23.228   0.032
12450W        W79233  16.334  44.762  13.028
12451W        W79234  36.077  36.845  12.981
12452W        W79235  20.969  34.599  13.915
12453W        W79236  14.262  33.360  10.805
12454W        W79237  10.117  30.184  13.925
12455W        W79238  16.136  35.046   2.936
12456W        W79239  10.218  20.642   1.108
12457W        W79240  11.405   6.387   4.109
12458W        W79241   3.030  10.899   3.824
12459W        W79242  26.165   0.288  12.066
12460W        W79243  18.722   5.752   1.860
12461W        W79244   1.645  24.091   2.380
12462W        W79245  11.692  36.242  14.355
12463W        W79246   4.954  37.665   3.120
12464W        W79247  11.673  19.308  11.619
12465W        W79248  14.319  38.287   1.276
12466W        W79249   9.723   2.759   1.320
12467W        W79250  19.919  15.663  10.544
12468W        W79251   0.433  37.862  10.749
12469W        W79252  34.065  28.714   2.606
12470W        W79253   9.651  16.141  12.848
12471W        W79254  40.007  19.494   4.394
12472W        W79255  41.971   1.926   0.327
12473W        W79256  41.512   2.715   3.460
12474W        W79257  32.443  29.655  14.214
12475W        W79258  31.027   9.660   3.327
12476W        W79259  30.837  23.240  12.519
12477W        W79260  26.106   2.749  11.536
12478W        W79261   8.461   3.752  14.968
12479W        W79262  17.465  42.430  12.055
12480W        W79263  36.360  32.541  14.821
12481W        W79264  40.345  39.760  10.841
12482W        W79265  40.018  41.516   4.584
12483W        W79266  43.991  23.522  13.852
12484W        W79267  24.075  44.431   1.876
12485W        W79268  10.258   0.005   3.583
12486W        W79269  13.792  22.321  13.544
12487W        W79270  16.015  12.978   4.654
12488W        W79271   2.469   3.708  11.477
12489W        W79272  22.905  21.046   4.794
12490W        W79273   8.760  39.294   0.228
12491W        W79274   1.792   3.902   0.346
12492W        W79275  26.268  17.450  12.803
12493W        W79276   0.932  22.569   0.827
12494W        W79277  25.530  10.196   2.171
12495W        W79278  18.765  35.563  14.802
12496W        W79279  36.474   9.360  11.004
12497W        W79280  11.088  24.412   0.430
12498W        W79281  39.971  11.779  11.681
12499W        W79282   1.310   8.226  13.282
12500W        W79283   7.720  35.127  10.846
12501W        W79284   2.818  16.828   0.204
12502W        W79285  17.078  18.323  10.925
12503W        W79286  38.139   8.445   2.284
12504W        W79287   9.795  36.829   2.335
12505W        W79288  18.657  35.513   4.544
12506W        W79289  23.469  21.542   4.090
12507W        W79290  44.715  37.276  14.755
12508W        W79291  10.739  44.884   0.271
12509W        W79292  14.568  31.916  13.435
12510W        W79293  20.948  25.501  14.353
12511W        W79294   3.881  27.491   1.729
12512W        W79295  35.066  11.965   1.321
12513W        W79296  14.681   4.139   4.341
12514W        W79297  39.976  30.210   0.602
12515W        W79298  33.642  44.551   4.487
12516W        W79299   6.388   7.920  12.903
12517W        W79300  32.835   0.917  13.319
12518W        W79301   5.319  17.944  13.489
12519W        W79302  43.496  29.978  13.664
12520W        W79303  31.949  36.312   4.512
12521W        W79304  21.755   5.425  11.569
12522W        W79305  42.087   4.206   3.140
12523W        W79306  29.912  27.136   3.625
12524W        W79307  40.343  29.465  14.468
12525W        W79308  20.617  20.548  10.675
12526W        W79309  40.394  23.068  10.794
12527W        W79310  15.853   2.355   3.767
12528W        W79311   7.847  15.519  13.578
12529W        W79312   0.435  38.589   4.088
12530W        W79313  27.040  36.854   4.923
12531W        W79314  33.672  44.550   0.452
12532W        W79315  15.754   6.893   0.174
12533W        W79316  29.445  20.955  14.948
12534W        W79317   6.104  16.309   1.731
12535W        W79318   7.339  30.433   0.372
12536W        W79319  28.238  24.630   4.733
12537W        W79320   4.183  40.439  13.804
12538W        W79321  19.233  27.537   2.430
12539W        W79322  41.131  43.901  11.100
12540W        W79323  31.658   6.897  12.076
12541W        W79324  23.503   1.190   2.237
12542W        W79325  36.698  28.527  11.144
12543W        W79326  29.432  14.826   4.026
12544W        W79327  18.711  43.805  14.468
12545W        W79328  26.936  37.596  12.581
12546W        W79329  19.664  11.633  14.459
12547W        W79330  36.565  23.182  11.172
12548W        W79331   7.391  17.594   4.003
12549W        W79332  34.134  20.604   2.454
12550W        W79333  13.984  24.942   4.554
12551W        W79334  10.750  25.858   3.626
12552W        W79335   6.909  35.571  13.037
12553W        W79336  36.878  30.519   0.731
12554W        W79337  42.976  27.119  13.199
12555W        W79338  32.979  15.767  13.000
12556W        W79339  25.259   3.156   4.184
12557W        W79340  34.300  22.221   0.953
12558W        W79341  39.846  23.536  14.003
12559W        W79342  25.978   0.068  13.431
12560W        W79343  38.635  29.650  13.984
12561W        W79344   1.919   9.472  14.947
12562W        W79345  16.124   8.342   1.179
12563W        W79346   3.579  27.748   3.293
12564W        W79347  35.159   6.375   2.230
12565W        W79348  30.260   4.930  10.810
12566W        W79349  41.340  21.705  12.426
12567W        W79350  14.347  34.406   0.470
12568W        W79351  21.623  42.531   3.104
12569W        W79352  15.500  10.684   3.322
12570W        W79353   7.353  25.700  14.975
12571W        W79354   4.287  41.781  13.643
12572W        W79355  13.577  11.081   0.938
12573W        W79356  26.949  23.665  10.556
12574W        W79357  42.004   0.771  12.448
12575W        W79358   2.957  37.126   1.318
12576W        W79359  19.093   6.578  13.647
12577W        W79360  40.857   3.819  10.607
12578W        W79361  44.354  30.056   2.821
12579W        W79362   7.097  36.383  11.572
12580W        W79363  41.927  22.927   3.683
12581W        W79364  33.663   4.393   0.708
12582W        W79365  40.102  17.323   4.106
12583W        W79366  37.326  44.454   3.116
12584W        W79367  35.090  25.830  13.950
12585W        W79368  10.806   7.769  10.795
12586W        W79369   1.765  34.583   3.366
12587W        W79370  28.449  30.873   1.215
12588W        W79371   8.795  38.904   4.100
12589W        W79372  44.831  25.272   3.234
12590W        W79373  38.058  40.748  10.790
12591W        W79374  10.840  41.919   0.390
12592W        W79375   3.371  19.784   0.920
12593W        W79376  20.430   3.215   2.303
12594W        W79377  19.162  43.028  11.246
12595W        W79378   9.128  38.454   3.964
12596W        W79379  22.080  29.680  12.440
12597W        W79380  21.643  26.052  11.111
12598W        W79381   8.320  28.573   1.003
12599W        W79382  13.312  44.028  11.202
12600W        W79383  35.776  19.263  10.332
12601W        W79384  23.307  43.896   1.310
12602W        W79385  31.167  40.330  14.935
12603W        W79386  35.541   4.238   2.652
12604W        W79387  24.991   4.746   4.076
12605W        W79388  16.306  20.770  13.323
12606W        W79389  29.609  31.415  13.458
12607W        W79390  17.143  35.061   2.826
12608W        W79391   4.354  42.305   2.840
12609W        W79392  23.773  26.709   4.784
12610W        W79393  14.600  29.916   0.937
12611W        W79394  14.688  35.359   4.651
12612W        W79395  38.347  24.554  12.384
12613W        W79396  24.799   5.439   1.330
12614W        W79397  29.827   8.989   2.841
12615W        W79398  39.991  25.912   4.153
12616W        W79399  39.535  27.044   3.774
12617W        W79400   5.256  15.103  12.178
12618W        W79401  23.049  22.152  10.702
12619W        W79402  18.286  30.488   4.936
12620W        W79403  26.285   7.821   3.674
12621W        W79404   5.701  10.767  13.569
12622W        W79405  36.715  40.533   2.705
12623W        W79406  25.591  34.901  14.300
12624W        W79407  44.528  30.594   0.483
12625W        W79408   4.935   6.640  12.984
12626W        W79409  11.578   1.416  10.890
12627W        W79410   5.690  34.907   3.754
12628W        W79411  24.498   9.525   0.188
12629W        W79412  37.875  20.256  14.259
12630W        W79413  18.719  34.610  12.099
12631W        W79414  25.638  13.353   1.368
12632W        W79415   3.703  19.119   4.159
12633W        W79416  41.901   8.331   3.090
12634W        W79417  39.866  42.934   1.639
12635W        W79418   5.531  20.722   1.879
12636W        W79419  35.606   6.925   0.509
12637W        W79420  20.838  25.067  14.630
12638W        W79421  40.690  42.925   4.616
12639W        W79422  41.930  14.867  11.099
12640W        W79423  43.883  20.667   3.144
12641W        W79424  28.323   8.398  11.146
12642W        W79425  24.953  40.552  13.396
12643W        W79426   1.654   1.426  10.918
12644W        W79427   8.886   8.411   4.179
12645W        W79428  43.962  10.496   1.530
12646W        W79429  29.208   9.366  12.423
12647W        W79430  37.688  16.163  12.884
12648W        W79431  13.615  20.471   4.187
12649W        W79432  10.736  19.868  13.476
12650W        W79433  30.162  30.837   1.714
12651W        W79434  36.045   1.765  10.856
12652W        W79435  39.367  40.241   3.665
12653W        W79436  44.597  30.542   2.830
12654W        W79437  33.065  33.469   0.715
12655W        W79438  42.239  10.777  12.508
12656W        W79439  27.393  34.008   2.641
12657W        W79440  21.596   7.754   0.966
12658W        W79441   6.342  39.854   5.213
12659W        W79442   8.159  42.473   2.857
12660W        W79443   5.902  16.173  13.463
12661W        W79444  37.372   1.521   1.773
12662W        W79445   4.301  30.544   3.805
12663W        W79446  20.703  23.518  12.078
12664W        W79447  36.102  13.717  13.383
12665W        W79448   9.460  39.295  12.599
12666W        W79449  23.409   7.730   4.728
12667W        W79450  33.921  32.677   1.792
12668W        W79451  39.709  42.974   3.772
12669W        W79452   7.781  43.744  11.259
12670W        W79453   6.942  25.442   0.249
12671W        W79454  30.056  27.057  14.882
12672W        W79455  11.393  26.560   4.587
12673W        W79456  39.985   0.659   0.388
12674W        W79457  21.366  30.044   2.872
12675W        W79458  12.480  44.783  13.998
12676W        W79459  25.487   9.171  11.134
12677W        W79460  18.096  10.827  10.747
12678W        W79461  39.303  44.376  12.979
12679W        W79462   3.911  28.802   1.337
12680W        W79463  32.843  27.518   2.755
12681W        W79464  26.243  10.188   2.817
12682W        W79465   2.657   8.474  14.764
12683W        W79466  12.943  29.543   2.285
12684W        W79467  35.148  20.111  11.151
12685W        W79468  17.464  12.335   9.795
12686W        W79469  36.393  11.943  14.346
12687W        W79470   0.054  44.008   3.184
12688W        W79471   1.911  43.426   1.317
12689W        W79472  17.296  11.763  13.488
12690W        W79473  25.497  17.809   3.894
12691W        W79474  15.006  11.180   0.880
12692W        W79475  26.100  18.844   4.951
12693W        W79476  17.893  40.380  13.933
12694W        W79477  44.818  31.606  10.927
12695W        W79478  19.109  11.811  10.538
12696W        W79479   3.403   9.259   2.244
12697W        W79480  17.519  10.924   3.986
12698W        W79481   7.352  13.096   0.690
12699W        W79482  24.572  29.640  14.901
12700W        W79483  41.949   8.968   1.662
12701W        W79484  33.597  44.397  11.863
12702W        W79485  12.766  43.339  11.226
12703W        W79486  37.451  13.587  14.898
12704W        W79487  41.892  12.069   5.433
12705W        W79488  13.291  31.363  10.752
12706W        W79489  36.623   0.809   0.936
12707W        W79490   9.860  42.439  12.067
12708W        W79491  21.036  21.064   1.918
12709W        W79492   7.267   1.670  14.970
12710W        W79493   9.862   5.356  12.499
12711W        W79494  35.000   2.664   1.992
12712W        W79495  24.726  26.728  13.529
12713W        W79496  13.169  26.062   3.680
12714W        W79497  15.400   2.831   0.911
12715W        W79498  24.937   7.132  12.960
12716W        W79499  37.426  23.884   3.612
12717W        W79500   4.199  39.490  10.424
12718W        W79501  44.999  30.941  12.728
12719W        W79502  20.400  28.728  11.420
12720W        W79503  26.565  43.906  12.942
12721W        W79504   5.395   6.233  10.880
12722W        W79505   1.387  34.830  11.118
12723W        W79506  32.503   6.481  11.170
12724W        W79507   1.181  23.571  13.945
12725W        W79508  41.598  15.653   0.550
12726W        W79509  41.037  44.548   0.373
12727W        W79510  21.013  23.217   5.156
12728W        W79511  18.680  28.229  13.620
12729W        W79512   2.811  11.133  12.936
12730W        W79513  35.566   0.894   4.317
12731W        W79514  41.323  25.192   2.662
12732W        W79515   7.989  28.484  14.256
12733W        W79516  16.982   4.249   4.193
12734W        W79517  40.899   8.877   3.850
12735W        W79518   7.124   0.068   3.715
12736W        W79519   3.548  35.929   4.052
12737W        W79520   0.172   6.348  10.591
12738W        W79521  15.771  24.267  13.160
12739W        W79522  43.294  25.159   2.945
12740W        W79523  32.847  30.036   0.939
12741W        W79524  29.684   5.748   4.101
12742W        W79525  24.083  15.065   2.348
12743W        W79526  20.043  30.962   0.322
12744W        W79527   4.402  24.513  12.009
12745W        W79528  30.401  43.922   3.166
12746W        W79529  10.893  30.322   2.289
12747W        W79530   2.909  36.417  12.887
12748W        W79531  32.911  15.737  12.429
12749W        W79532   3.840  34.989   0.248
12750W        W79533   6.338  24.020   2.393
12751W        W79534  11.547  30.356  10.820
12752W        W79535  28.539  35.293   3.656
12753W        W79536  28.776   0.758  14.035
12754W        W79537  29.005  42.302  10.694
12755W        W79538  29.008  34.919   2.804
12756W        W79539  10.658  11.493   3.286
12757W        W79540  22.597  41.862  11.462
12758W        W79541  11.249   5.736   0.719
12759W        W79542  21.224  26.103   3.811
12760W        W79543   7.267  14.972  12.407
12761W        W79544  26.969  28.558   0.960
12762W        W79545  35.519  41.211  14.868
12763W        W79546  25.744  13.804  12.877
12764W        W79547   6.241  29.130   0.480
12765W        W79548   2.840  29.441   0.968
12766W        W79549  20.483  27.447   4.356
12767W        W79550  24.889  23.427  14.315
12768W        W79551  36.406  41.213   2.373
12769W        W79552  22.259  18.079   0.520
12770W        W79553  20.821  38.302  13.903
12771W        W79554  44.762  30.724   4.127
12772W        W79555   1.117  11.293   2.235
12773W        W79556  43.230  43.813   2.137
12774W        W79557  27.226  22.957  13.922
12775W        W79558  31.692  12.284   4.844
12776W        W79559   4.759  21.636   2.971
12777W        W79560  35.099   0.424  12.128
12778W        W79561  13.244  22.229  14.948
12779W        W79562  22.713  28.990   1.425
12780W        W79563  23.201  25.548   1.948
12781W        W79564  12.078  39.362  14.520
12782W        W79565  28.171  32.133   1.922
12783W        W79566  20.114  29.974   0.703
12784W        W79567  18.645  14.352  13.015
12785W        W79568  12.573  39.832   1.279
12786W        W79569  44.393  23.267  11.608
12787W        W79570   9.268  16.180  12.419
12788W        W79571  18.750  15.761   0.278
12789W        W79572  19.967  11.938   1.841
12790W        W79573   2.620  29.429   3.721
12791W        W79574  38.791  39.052   2.312
12792W        W79575  36.856  25.397  12.097
12793W        W79576   6.758  19.636  11.488
12794W        W79577  42.653  11.719   4.077
12795W        W79578  18.493   6.416   3.782
12796W        W79579  27.224  22.103   0.906
12797W        W79580  39.594  35.115   2.859
12798W        W79581  35.001   5.199   1.953
12799W        W79582   2.204  10.138  11.193
12800W        W79583   0.992  43.698  13.492
12801W        W79584  24.642  10.718   3.971
12802W        W79585   0.286   4.306   1.314
12803W        W79586   7.689  44.452   4.018
12804W        W79587  40.993  16.659  12.817
12805W        W79588   1.805  15.771   2.765
12806W        W79589  37.073  12.062  11.253
12807W        W79590  11.339   3.706   2.721
12808W        W79591   8.277  21.079  13.405
12809W        W79592  37.250  10.900   0.445
12810W        W79593  15.632  43.494  14.457
12811W        W79594  10.609  32.816  12.569
12812W        W79595  32.858  39.028   1.735
12813W        W79596  39.787  32.973   3.126
12814W        W79597  27.460  26.936  10.474
12815W        W79598   4.211  19.268   4.150
12816W        W79599  27.833  43.446   2.791
12817W        W79600   5.314  42.573   2.985
12818W        W79601  14.323   2.894  11.415
12819W        W79602  33.415  14.732  14.718
12820W        W79603  20.938   5.926   3.247
12821W        W79604   4.070   6.376   4.674
12822W        W79605  33.346   2.958  10.716
12823W        W79606  11.432  14.587   2.814
12824W        W79607  11.645  14.039   4.970
12825W        W79608  11.523   3.832  11.952
12826W        W79609  42.862  22.218   1.006
12827W        W79610  37.858  39.992   0.728
12828W        W79611  43.752  38.845   2.093
12829W        W79612  13.128   6.934   3.250
12830W        W79613  43.352  33.706  14.453
12831W        W79614  29.815  42.479   0.227
12832W        W79615  38.090  25.544  10.649
12833W        W79616   2.971  41.856   0.801
12834W        W79617   4.742  11.768  13.023
12835W        W79618  37.557  17.205  11.764
12836W        W79619  37.038  27.711   3.587
12837W        W79620  10.837   6.862   1.375
12838W        W79621  22.057  19.136  14.706
12839W        W79622  28.171  35.470  14.987
12840W        W79623  44.514  36.932   4.189
12841W        W79624  36.910  23.150  11.615
12842W        W79625  22.292  30.190   0.461
12843W        W79626  24.167   6.425  14.217
12844W        W79627  16.549  32.032  12.635
12845W        W79628   7.419  27.212  11.993
12846W        W79629  25.620  44.940   0.052
12847W        W79630  27.478  31.309  13.265
12848W        W79631  16.918  27.740  11.270
12849W        W79632  20.034  16.015   9.921
12850W        W79633  16.329  33.699   3.763
12851W        W79634  44.898  41.994   0.574
12852W        W79635   4.810   2.041  10.255
12853W        W79636  19.612  14.783  13.804
12854W        W79637  32.480  39.301  14.909
12855W        W79638  39.406  41.139  13.988
12856W        W79639  41.535  26.171   4.615
12857W        W79640   5.442  39.566  12.937
12858W        W79641   2.961  33.487  14.985
12859W        W79642   3.449  18.157  14.109
12860W        W79643   0.635  44.805  13.947
12861W        W79644  20.407   6.905   3.792
12862W        W79645   0.713  22.755  12.182
12863W        W79646  34.714   5.402  11.500
12864W        W79647  40.452  12.661   4.193
12865W        W79648   7.484   7.820  13.618
12866W        W79649  15.703  36.139   3.538
12867W        W79650  23.719  43.936  14.307
12868W        W79651  15.370  38.234  13.338
12869W        W79652  27.400  40.302  13.907
12870W        W79653   2.496   8.566  11.189
12871W        W79654  13.619  33.201   3.658
12872W        W79655  29.536   0.084  11.809
12873W        W79656  14.260  35.925   1.767
12874W        W79657  31.482  17.387  12.551
12875W        W79658  24.803  17.714  13.497
12876W        W79659  39.719  37.337   2.152
12877W        W79660  20.960  37.158  12.011
12878W        W79661  21.877  27.497   1.426
12879W        W79662  19.845  36.053  14.142
12880W        W79663  35.071  37.609  13.556
12881W        W79664  20.084  18.567  14.879
12882W        W79665  41.326  24.439  10.736
12883W        W79666  27.208  20.798   2.767
12884W        W79667  30.948  10.124   4.153
12885W        W79668  35.307  39.772  12.091
12886W        W79669  28.954  44.822   3.192
12887W        W79670   1.665   9.538  13.570
12888W        W79671  23.698  12.672  12.609
12889W        W79672   1.993  11.863  10.735
12890W        W79673  44.156  32.366  12.630
12891W        W79674  38.258  26.456   2.981
12892W        W79675   7.884  34.974   3.050
12893W        W79676  29.163  43.909  14.277
12894W        W79677  27.518  20.306   0.979
12895W        W79678  10.462  42.333   1.900
12896W        W79679  18.620  22.936  11.569
12897W        W79680  18.170  44.831  12.803
12898W        W79681   5.316  36.087  11.107
12899W        W79682  30.231  20.263   5.002
12900W        W79683  33.258  23.106  11.562
12901W        W79684  16.541  36.791  11.555
12902W        W79685  26.962  23.084   1.235
12903W        W79686  37.394  19.229   4.530
12904W        W79687  12.210  13.764   3.889
12905W        W79688  16.169  27.092   3.444
12906W        W79689  31.432  30.677   2.724
12907W        W79690  40.531  26.641   3.218
12908W        W79691   8.172  22.800  11.251
12909W        W79692  15.639   6.631   3.815
12910W        W79693   5.141  31.131  10.640
12911W        W79694  28.646  31.614   0.013
12912W        W79695  42.975  31.839   1.832
12913W        W79696  37.546  12.541  13.905
12914W        W79697  25.755  34.597   1.682
12915W        W79698  37.543  20.582   1.975
12916W        W79699  19.710  29.319   3.570
12917W        W79700  12.985  20.981  10.776
12918W        W79701  17.367  44.015  12.658
12919W        W79702  38.096  33.443   1.774
12920W        W79703  40.118  22.307  12.847
12921W        W79704  29.823  21.004  11.053
12922W        W79705  33.378  38.498   1.032
12923W        W79706  30.648  14.325  12.523
12924W        W79707   2.696  38.514  11.954
12925W        W79708  38.541  28.045  14.913
12926W        W79709  37.868  29.116  12.847
12927W        W79710  13.189  21.746   3.651
12928W        W79711  37.647  38.461   4.271
12929W        W79712  28.629   7.317  13.644
12930W        W79713   7.341  38.440   4.922
12931W        W79714   6.380  26.294   4.479
12932W        W79715   2.778  42.259  14.996
12933W        W79716  24.734  22.713  11.256
12934W        W79717  11.276  29.086   4.314
12935W        W79718  18.173  38.447  12.077
12936W        W79719  34.040  10.353  11.260
12937W        W79720  20.787  22.799  11.529
12938W        W79721  35.510  33.292  12.900
12939W        W79722  27.888   2.646   1.407
12940W        W79723  17.893   3.321   4.054
12941W        W79724  19.906  11.558   9.985
12942W        W79725  37.326  31.861   3.654
12943W        W79726  19.991   1.700   3.653
12944W        W79727  29.604  43.081  11.629
12945W        W79728  22.642  32.925   0.177
12946W        W79729  12.746  28.571   1.930
12947W        W79730   1.469  26.983   2.238
12948W        W79731  15.704   1.215   0.928
12949W        W79732   9.023  24.804  13.975
12950W        W79733   9.443  28.338  12.868
12951W        W79734   3.828  24.990  10.710
12952W        W79735  18.811  37.401   1.924
12953W        W79736  13.240  44.809  13.380
12954W        W79737  25.166   6.814  12.341
12955W        W79738  38.954  42.378  11.584
12956W        W79739  33.320  13.234   1.265
12957W        W79740  20.310  38.359  14.039
12958W        W79741  21.885  12.320   0.018
12959W        W79742  23.959   1.648  10.635
12960W        W79743  38.498  17.142  13.435
12961W        W79744  44.730  23.640   0.948
12962W        W79745  15.233  10.423   1.303
12963W        W79746  23.503   7.398   3.748
12964W        W79747  44.522  33.567  11.158
12965W        W79748  35.338   2.429   4.139
12966W        W79749  24.156  23.598   3.617
12967W        W79750  12.088   9.217  13.024
12968W        W79751  38.856  36.353   2.814
12969W        W79752  26.155  29.484   3.797
12970W        W79753  18.594  15.390   3.227
12971W        W79754  15.309  33.497   0.896
12972W        W79755   1.389  36.550   2.286
12973W        W79756  32.065  26.368  10.709
12974W        W79757  37.957  30.731  11.991
12975W        W79758  27.414  40.828   2.231
12976W        W79759  10.401  40.627   4.097
12977W        W79760  30.919  12.314   2.321
12978W        W79761  35.087  28.453   2.659
12979W        W79762  21.261  12.084   4.064
12980W        W79763   0.913   3.856  14.486
12981W        W79764  12.639  44.590   1.834
12982W        W79765  10.773  40.194  14.898
12983W        W79766  29.681   8.450   3.099
12984W        W79767   5.138   0.512   2.341
12985W        W79768  39.425  12.792  11.142
12986W        W79769  44.302  22.507   2.301
12987W        W79770  20.292  43.929   1.302
12988W        W79771  39.908  18.201  13.296
12989W        W79772  10.691   7.457  12.402
12990W        W79773   6.622  23.490   3.648
12991W        W79774  14.165   9.787  13.493
12992W        W79775  24.239  28.514   3.762
12993W        W79776   6.639  35.979   4.332
12994W        W79777  40.262  27.451  11.416
12995W        W79778  12.348  31.877  13.058
12996W        W79779   2.477   9.811  12.498
12997W        W79780  40.244  29.928  11.971
12998W        W79781   9.840  25.429  13.434
12999W        W79782  13.968  35.702   4.203
13000W        W79783  33.864  30.611  12.354
13001W        W79784  33.224  19.473   0.823
13002W        W79785  32.668   1.614   1.851
13003W        W79786  22.166  10.113  12.811
13004W        W79787  32.859  23.125  10.350
13005W        W79788  14.615   1.946  11.557
13006W        W79789  12.378  12.872  13.532
13007W        W79790  22.991  28.780   0.834
13008W        W79791  44.669   9.084  12.674
13009W        W79792  23.075  13.262  14.049
13010W        W79793  15.617  20.839  13.966
13011W        W79794  14.741  25.085   1.007
13012W        W79795   8.021   5.684  12.241
13013W        W79796  22.027  36.366  10.639
13014W        W79797  41.323  15.690   3.421
13015W        W79798  34.627  18.622   0.272
13016W        W79799  34.045  33.036   1.417
13017W        W79800  27.877  34.918   4.105
13018W        W79801  33.644  17.441  12.408
13019W        W79802  25.810   6.394  12.041
13020W        W79803  32.749   2.952   1.909
13021W        W79804  32.838  35.771  14.579
13022W        W79805  34.144   1.732   1.833
13023W        W79806  17.060  18.162   3.261
13024W        W79807   2.226  44.804   4.235
13025W        W79808  28.344  43.895  12.422
13026W        W79809  23.158  38.262   1.374
13027W        W79810  34.282  30.078  14.377
13028W        W79811  31.544  40.850  12.618
13029W        W79812   8.804  11.439  11.450
13030W        W79813  40.739  30.082   1.692
13031W        W79814  12.385  20.143   4.905
13032W        W79815  24.620  39.498   2.805
13033W        W79816  21.603  42.583  14.435
13034W        W79817  38.817   8.132   1.362
13035W        W79818   9.071   4.318  13.441
13036W        W79819  29.101  28.788   2.732
13037W        W79820   5.087  43.007   4.144
13038W        W79821   5.366  33.670   0.711
13039W        W79822   7.266  13.380   1.182
13040W        W79823  19.159  29.581  11.226
13041W        W79824  16.272  27.599  13.770
13042W        W79825  18.906  12.476   5.087
13043W        W79826  17.172   3.631   3.612
13044W        W79827   5.465  22.372   4.107
13045W        W79828  11.839  19.595  12.478
13046W        W79829  37.858  14.850   4.099
13047W        W79830  18.087  21.331  11.071
13048W        W79831  21.031  44.448   2.257
13049W        W79832  40.817  42.305   1.085
13050W        W79833  27.693  11.107  12.065
13051W        W79834  22.760  18.337   3.727
13052W        W79835   7.970  30.113  11.063
13053W        W79836  36.562  41.378  11.640
13054W        W79837  17.339   2.297  14.522
13055W        W79838   0.216  36.837   3.728
13056W        W79839  25.968  21.904  11.491
13057W        W79840  15.829   9.287   2.680
13058W        W79841  17.878  21.117  11.485
13059W        W79842  32.536  12.306   0.445
13060W        W79843  22.568  32.986   3.175
13061W        W79844   5.812  36.091  11.314
13062W        W79845  24.675  28.260  12.086
13063W        W79846  24.536  32.172  12.524
13064W        W79847   0.446  36.237   3.047
13065W        W79848  19.066  14.951   0.311
13066W        W79849  32.396  17.050   4.239
13067W        W79850  37.849  34.452  11.924
13068W        W79851  12.564  20.752  12.655
13069W        W79852  35.525  41.880   0.961
13070W        W79853  11.700   0.679   5.116
13071W        W79854   2.972  30.357   2.768
13072W        W79855  41.146  28.943  14.875
13073W        W79856  13.626   3.884   0.863
13074W        W79857  24.016  41.445  12.463
13075W        W79858  33.273  38.093   4.142
13076W        W79859  38.158  22.916  12.055
13077W        W79860   7.317  10.960   3.657
13078W        W79861   4.986  16.293   3.919
13079W        W79862  15.125  30.129  11.017
13080W        W79863  10.263   0.568   2.717
13081W        W79864  42.796  11.819  10.752
13082W        W79865  30.055  16.886   2.464
13083W        W79866  42.704  41.321   0.317
13084W        W79867  23.531  25.877   1.168
13085W        W79868  11.642  42.545   3.284
13086W        W79869  35.038  20.836   0.772
13087W        W79870  18.645   3.171   3.119
13088W        W79871  42.970  39.750   1.236
13089W        W79872  35.397   9.134  11.081
13090W        W79873  35.306  19.710  11.721
13091W        W79874  16.740  41.876  12.034
13092W        W79875  14.339  14.803   1.880
13093W        W79876  29.398  22.650   1.796
13094W        W79877   3.305  40.784  12.018
13095W        W79878  30.683  38.330   1.298
13096W        W79879  15.734  23.158  10.611
13097W        W79880  17.573  12.615  14.072
13098W        W79881   0.609   8.901   0.477
13099W        W79882   7.186  19.734   1.439
13100W        W79883  19.707  26.558  12.030
13101W        W79884  43.862  40.195  13.319
13102W        W79885   7.030   6.955  12.540
13103W        W79886  40.117  35.660  12.898
13104W        W79887  29.426   3.041  11.250
13105W        W79888   2.123  42.862  14.857
13106W        W79889   5.758  43.470   2.647
13107W        W79890  35.172  24.138   2.456
13108W        W79891  25.948  42.455  13.873
13109W        W79892  17.399   0.753   0.888
13110W        W79893  23.615   1.362  14.295
13111W        W79894   5.021  41.654  13.146
13112W        W79895   8.442  17.673   0.865
13113W        W79896  11.171  19.055   1.833
13114W        W79897  38.021  23.131   3.130
13115W        W79898  24.459  12.574   0.691
13116W        W79899  37.408  36.649   0.958
13117W        W79900  42.738  33.591  13.081
13118W        W79901   0.857  24.143   0.601
13119W        W79902  19.472  43.365  10.999
13120W        W79903   7.151  41.594   0.473
13121W        W79904   3.965  18.218  10.890
13122W        W79905  10.695  43.494   3.260
13123W        W79906  41.070  39.016  11.609
13124W        W79907   5.678  21.970   0.247
13125W        W79908   3.423  38.588  11.015
13126W        W79909  28.258  32.750   4.812
13127W        W79910  12.720  22.385   0.028
13128W        W79911  38.494  14.288   0.716
13129W        W79912  14.778  37.482  12.081
13130W        W79913  18.689  42.411   3.985
13131W        W79914  36.068  18.684  12.916
13132W        W79915  24.696   7.857  11.741
13133W        W79916   1.995  15.857  11.586
13134W        W79917  26.452  28.111  11.502
13135W        W79918   9.122  24.237   4.609
13136W        W79919   2.029  30.981  14.835
13137W        W79920  41.856  27.230  11.242
13138W        W79921  31.065   8.596  10.305
13139W        W79922   4.126  28.478   2.747
13140W        W79923  34.572  25.048  12.413
13141W        W79924  32.170  32.071   1.916
13142W        W79925  30.366  36.820   4.092
13143W        W79926  39.488  30.578   4.923
13144W        W79927   1.172  27.364   4.026
13145W        W79928  40.839  25.722   4.670
13146W        W79929   1.302  25.433   3.106
13147W        W79930  34.755  44.486   5.024
13148W        W79931  17.171   0.964   3.202
13149W        W79932   8.685  34.598  13.435
13150W        W79933   6.483   4.280  12.879
13151W        W79934  34.462   9.413  10.987
13152W        W79935  33.528  35.622   0.806
13153W        W79936  18.271  40.758  12.551
13154W        W79937   8.619   4.373  14.719
13155W        W79938  39.003  44.840   0.011
13156W        W79939  26.003  13.209   3.620
13157W        W79940  15.524  14.245   3.869
13158W        W79941  34.759   2.286   2.281
13159W        W79942  34.505  17.852  12.902
13160W        W79943   9.640  26.448  13.602
13161W        W79944   1.047  34.635   1.952
13162W        W79945  35.238  31.531  12.185
13163W        W79946  30.439  38.796   3.160
13164W        W79947   3.909  15.590  13.641
13165W        W79948  20.759  14.367  10.755
13166W        W79949  38.454  39.701  12.089
13167W        W79950  10.638  23.019   4.554
13168W        W79951  23.061  35.672  14.587
13169W        W79952  31.511  16.779  13.807
13170W        W79953  37.355  39.803  14.274
13171W        W79954  35.010  25.003  10.712
13172W        W79955  22.520  38.097  14.983
13173W        W79956  22.016  34.544  13.783
13174W        W79957  20.053  28.149  11.678
13175W        W79958  23.212  23.171  11.547
13176W        W79959  37.017  25.487  10.796
13177W        W79960  20.170  21.079  10.717
13178W        W79961  11.436  43.938  14.397
13179W        W79962  26.413  32.904   3.218
13180W        W79963   6.770  18.692  12.476
13181W        W79964  12.539  25.302  14.945
13182W        W79965  18.299  40.334  13.044
13183W        W79966  26.984  16.765  13.807
13184W        W79967  30.437  31.538  12.582
13185W        W79968   9.821  42.037   2.361
13186W        W79969   7.802   1.279   0.286
13187W        W79970  32.589   2.862   2.950
13188W        W79971  39.983  13.344  13.268
13189W        W79972  40.614  18.670   0.234
13190W        W79973  31.984  38.376  14.982
13191W        W79974  28.472   6.108   4.046
13192W        W79975  31.024   6.422   3.670
13193W        W79976   7.891  32.898  10.684
13194W        W79977   2.793  41.524   0.440
13195W        W79978  27.711  26.084  10.640
13196W        W79979  20.592   0.357   1.714
13197W        W79980  15.817  22.635   2.264
13198W        W79981  38.901  37.168   3.590
13199W        W79982  18.323   7.720   0.414
13200W        W79983  39.392  17.848   4.910
13201W        W79984  43.845  14.478   2.262
13202W        W79985  11.662  38.944   1.594
13203W        W79986  34.028  19.495   1.543
13204W        W79987  41.799  32.612  14.917
13205W        W79988  38.205  32.718  14.196
13206W        W79989   7.979  26.647   0.923
13207W        W79990   3.407   8.298  13.386
13208W        W79991  11.564   5.157   3.019
13209W        W79992  42.251  18.170   3.338
13210W        W79993  14.916  39.446   4.782
13211W        W79994   2.321  44.031   0.656
13212W        W79995  20.724   8.268   0.631
13213W        W79996  17.335  37.235  13.999
13214W        W79997  27.648  10.392  11.207
13215W        W79998  42.749  24.962  11.529
13216W        W79999  19.293  27.874   1.229
13217W        W80000   3.531  42.949   1.452
13218W        W80001  12.207  13.764   1.746
13219W        W80002  25.275   6.396   0.249
13220W        W80003  23.617  29.397   4.550
13221W        W80004  33.017   7.098   1.881
13222W        W80005  21.733  38.619  11.582
13223W        W80006  29.432  19.156   4.272
13224W        W80007  43.530  44.148  14.287
13225W        W80008  16.827  18.808  12.060
13226W        W80009  35.616  42.497   3.663
13227W        W80010   5.714  40.834  10.719
13228W        W80011   6.236   7.845   1.230
13229W        W80012   8.857   5.382  12.609
13230W        W80013  18.604  27.539   4.711
13231W        W80014  44.254  16.975   0.955
13232W        W80015  10.585   4.406  13.458
13233W        W80016   2.276  39.862  12.525
13234W        W80017  20.010  29.017  12.931
13235W        W80018  39.568  27.608   4.462
13236W        W80019  24.267   1.584   0.523
13237W        W80020  27.754  35.433   4.040
13238W        W80021  31.395  36.066  14.090
13239W        W80022  13.839   1.587   2.616
13240W        W80023  16.240   0.220  14.951
13241W        W80024   9.955   2.382   4.916
13242W        W80025  34.987  20.258   3.080
13243W        W80026   3.846   6.140   1.437
13244W        W80027  23.074  16.287   0.582
13245W        W80028   8.171  34.475  13.395
13246W        W80029  27.218  37.894  12.985
13247W        W80030  29.525  12.348   2.796
13248W        W80031  42.537  15.249  13.913
13249W        W80032  16.724  40.347   1.623
13250W        W80033  24.929  39.267  14.053
13251W        W80034  42.255   3.243   0.803
13252W        W80035  38.766  12.892  11.133
13253W        W80036   6.145  15.272   4.149
13254W        W80037  13.261  43.552   1.363
13255W        W80038  41.527  32.848  13.066
13256W        W80039   8.772   5.395   2.292
13257W        W80040   3.315  41.294  12.030
13258W        W80041  26.604   5.653   4.195
13259W        W80042  19.662  10.488   2.317
13260W        W80043   5.919   6.702  12.535
13261W        W80044  36.892  24.749   1.860
13262W        W80045  37.541  28.596  14.527
13263W        W80046  16.176  22.271   4.300
13264W        W80047  16.574  39.476   4.718
13265W        W80048  21.409  11.236   4.410
13266W        W80049  29.973  26.780  11.864
13267W        W80050   2.619  34.425   2.656
13268W        W80051   4.802  29.941   3.079
13269W        W80052   7.462  14.506  12.441
13270W        W80053  40.593  19.397  11.934
13271W        W80054  41.108  27.935  11.644
13272W        W80055  28.668  37.979   3.390
13273W        W80056   2.900   1.378   4.569
13274W        W80057  37.712  20.990  14.970
13275W        W80058  35.606  30.257  14.889
13276W        W80059  37.645  28.150   3.247
13277W        W80060   0.028   1.612   0.033
13278W        W80061   1.373  17.062  12.086
13279W        W80062  11.430   1.316  10.395
13280W        W80063  21.130  29.300  12.344
13281W        W80064  18.086  20.799   3.635
13282W        W80065  33.749  13.809  14.970
13283W        W80066  22.150  13.091   1.670
13284W        W80067  41.352  31.133  11.191
13285W        W80068  14.567  11.800  10.687
13286W        W80069   5.804   0.054  14.861
13287W        W80070  35.990  17.710  11.321
13288W        W80071  15.988  18.217  11.129
13289W        W80072   0.741  12.241   2.307
13290W        W80073  10.345  36.034   3.295
13291W        W80074  15.167  35.929   0.137
13292W        W80075  11.320  36.550   5.452
13293W        W80076  25.972   9.691  14.846
13294W        W80077  25.235  11.486  12.997
13295W        W80078  13.430  10.005  10.548
13296W        W80079   4.253   2.996  13.264
13297W        W80080  38.705   5.441  14.339
13298W        W80081   8.956   5.616  13.803
13299W        W80082   8.678   1.909   1.248
13300W        W80083  18.349  24.485   0.924
13301W        W80084  17.594  20.722  12.454
13302W        W80085  37.423  36.554   2.871
13303W        W80086  38.558  21.724   2.990
13304W        W80087  34.504  22.286  14.198
13305W        W80088   5.524   4.473   1.954
13306W        W80089   6.218   5.737   4.017
13307W        W80090  31.710  35.039  12.377
13308W        W80091  14.617  36.094   3.350
13309W        W80092   4.091  13.702   4.315
13310W        W80093  30.082  41.055  10.999
13311W        W80094  12.332  15.639   3.791
13312W        W80095  31.132  20.211   1.362
13313W        W80096   5.192  11.601  14.240
13314W        W80097  43.779  22.663  13.411
13315W        W80098  15.881  16.262   0.688
13316W        W80099  35.058  15.094   2.658
13317W        W80100  27.098   4.982  13.821
13318W        W80101  36.205  17.701   2.406
13319W        W80102  31.047  18.380  10.298
13320W        W80103  42.147  27.164  12.474
13321W        W80104  29.053  30.622   0.451
13322W        W80105  15.238   0.212  14.723
13323W        W80106  28.645  28.129  10.468
13324W        W80107   0.101  12.739  12.884
13325W        W80108  18.182  33.171   2.628
13326W        W80109  30.210  23.449   4.256
13327W        W80110  38.002  20.632   3.656
13328W        W80111  18.043  21.765  12.024
13329W        W80112  39.791  34.625  14.901
13330W        W80113  35.109   0.398   2.875
13331W        W80114  14.400  28.496   2.373
13332W        W80115  18.659  30.156   3.289
13333W        W80116  10.848  38.452  14.428
13334W        W80117   8.207  11.149   1.150
13335W        W80118   1.866  25.624  14.884
13336W        W80119  19.056  22.252   0.302
13337W        W80120  43.987  38.708  10.942
13338W        W80121  32.511  11.219   0.955
13339W        W80122  39.329  19.222   3.677
13340W        W80123  10.652  30.052  13.989
13341W        W80124  24.228  37.978   4.751
13342W        W80125  12.937  21.475   0.271
13343W        W80126   2.972  38.422   0.671
13344W        W80127   5.940  11.851   4.054
13345W        W80128  24.576  21.342  11.085
13346W        W80129  38.179  40.456  11.758
13347W        W80130  34.831  18.633  11.092
13348W        W80131   7.250  32.161  12.308
13349W        W80132  33.046   3.982   3.459
13350W        W80133  19.241  23.186  14.514
13351W        W80134  40.317   8.173   0.406
13352W        W80135  30.119   9.700   3.163
13353W        W80136  22.084  37.392   3.099
13354W        W80137  42.315  19.614  13.707
13355W        W80138  21.955  16.312   4.091
13356W        W80139   8.207  13.465  14.155
13357W        W80140   6.541  32.920  10.958
13358W        W80141  44.310  39.364  11.597
13359W        W80142  20.716  27.413  10.654
13360W        W80143   2.844   5.602   4.712
13361W        W80144  15.033  23.783   2.854
13362W        W80145  18.527   2.156  13.581
13363W        W80146   7.634  13.055   3.269
13364W        W80147  22.448   4.487   2.148
13365W        W80148   2.214  17.753   3.140
13366W        W80149  28.122  12.727  12.033
13367W        W80150  16.719   4.719   0.388
13368W        W80151  32.967  39.550  10.665
13369W        W80152   3.570  28.739   4.137
13370W        W80153  18.015  40.638   2.407
13371W        W80154  19.642  24.428  12.969
13372W        W80155  36.718  13.408  14.479
13373W        W80156  10.748  27.643  14.791
13374W        W80157   5.313  18.071   1.931
13375W        W80158  14.961  42.776   3.440
13376W        W80159  25.826   9.180   3.310
13377W        W80160  15.706  12.174   3.159
13378W        W80161  14.498  43.999   4.052
13379W        W80162   3.536  20.194   2.208
13380W        W80163  33.564   2.814  12.823
13381W        W80164   8.234  10.768   4.548
13382W        W80165   3.614   0.938   2.794
13383W        W80166   8.733   5.565   0.509
13384W        W80167  37.365  25.399  12.000
13385W        W80168  25.369   7.849  11.217
13386W        W80169  19.575  20.018  11.124
13387W        W80170  31.846  15.004  11.578
13388W        W80171  24.789   3.468   2.798
13389W        W80172   5.943  24.663  11.128
13390W        W80173  44.747  33.439  12.072
13391W        W80174   4.267  11.989   4.926
13392W        W80175  27.765  32.952  11.146
13393W        W80176   6.972  39.157  13.389
13394W        W80177  19.177  16.886   1.871
13395W        W80178  37.203  11.747   4.655
13396W        W80179   9.399  25.476   4.230
13397W        W80180   3.752   9.340   3.541
13398W        W80181  33.035  24.626  11.136
13399W        W80182  34.084  40.302  14.720
13400W        W80183  38.149   1.092  13.587
13401W        W80184   0.581   6.385   3.258
13402W        W80185  31.423   2.744  12.994
13403W        W80186  16.161  20.658  14.550
13404W        W80187   8.696   3.839   1.700
13405W        W80188  16.193   1.427  10.641
13406W        W80189  35.230  31.727   2.734
13407W        W80190  44.619  10.872  13.401
13408W        W80191   4.224  21.952  12.918
13409W        W80192  10.224  33.749   0.004
13410W        W80193   8.152  37.464  11.210
13411W        W80194   7.359  26.547  13.083
13412W        W80195  14.064  36.288   3.589
13413W        W80196  40.453  39.570   1.395
13414W        W80197  30.945  35.962  13.822
13415W        W80198  24.953  32.478  12.437
13416W        W80199  24.450  29.443  11.032
13417W        W80200  25.241  30.931   0.902
13418W        W80201  39.781  35.202   3.782
13419W        W80202  40.384  42.894   1.479
13420W        W80203  27.179  42.360  12.866
13421W        W80204   3.441   5.685   2.306
13422W        W80205   7.330   8.126   4.736
13423W        W80206  11.857  12.983  10.657
13424W        W80207   6.040   7.494   2.256
13425W        W80208  30.620  41.760   3.365
13426W        W80209  25.757   0.978   3.623
13427W        W80210  39.882  20.495   3.630
13428W        W80211  17.954  18.938  13.382
13429W        W80212  21.682  20.022  12.599
13430W        W80213  23.572  11.764  10.718
13431W        W80214  10.004  42.548   3.676
13432W        W80215  22.207  40.431   4.064
13433W        W80216  15.596   0.856  12.079
13434W        W80217  15.543  39.464   1.219
13435W        W80218   9.841  37.571  13.468
13436W        W80219  17.463  28.602  13.477
13437W        W80220   6.711  17.164  14.832
13438W        W80221   4.667  34.970  13.791
13439W        W80222   1.722  26.750  12.574
13440W        W80223  39.058   4.144  10.266
13441W        W80224  35.444  44.419  12.102
13442W        W80225   5.144  38.485   2.023
13443W        W80226   7.855  40.117   1.716
13444W        W80227   9.633  11.630  11.032
13445W        W80228  19.253  38.796  12.970
13446W        W80229   7.622  31.496  13.890
13447W        W80230  27.879  38.447   2.490
13448W        W80231  37.460   1.305  11.641
13449W        W80232  35.812  21.045  14.713
13450W        W80233  14.282  41.259   1.824
13451W        W80234  30.622  19.418  13.779
13452W        W80235  16.015  37.886  12.034
13453W        W80236   4.642  39.245   0.426
13454W        W80237   1.127  41.928   1.320
13455W        W80238  42.432  43.615  12.998
13456W        W80239   6.851  37.850  14.546
13457W        W80240  23.629  10.351  10.077
13458W        W80241  21.077  43.031  10.620
13459W        W80242  38.526  30.423  12.903
13460W        W80243  13.658  42.986  14.052
13461W        W80244   5.165  26.508   2.690
13462W        W80245   7.601  41.070  11.167
13463W        W80246  19.250  20.575   2.079
13464W        W80247  28.485  12.704  11.668
13465W        W80248  15.139   2.297  14.707
13466W        W80249  21.066   9.447  11.180
13467W        W80250  18.037   0.753  11.448
13468W        W80251   5.746  25.090  11.401
13469W        W80252  16.863  35.049   5.123
13470W        W80253  25.113  20.009   4.826
13471W        W80254  24.511  27.154   0.315
13472W        W80255  36.066  29.839   0.505
13473W        W80256  33.812  37.136  12.453
13474W        W80257  37.480   7.057  13.774
13475W        W80258   9.703  44.704  11.535
13476W        W80259  33.832  28.126   3.343
13477W        W80260  40.739   6.374  10.668
13478W        W80261  11.834  44.278  14.484
13479W        W80262  36.411  26.473   2.635
13480W        W80263  21.542  24.039  12.131
13481W        W80264  27.763  13.197  10.709
13482W        W80265  38.486   1.376  12.661
13483W        W80266  34.120  25.749   4.525
13484W        W80267   4.407  26.066   4.368
13485W        W80268  40.483  11.823   1.870
13486W        W80269   6.341  23.558   0.992
13487W        W80270  38.398  20.159  14.745
13488W        W80271  35.174   5.001   3.184
13489W        W80272  34.541   8.944  10.298
13490W        W80273  37.128   8.891  12.456
13491W        W80274   2.590  16.808   0.686
13492W        W80275  27.987   0.764  10.655
13493W        W80276  32.505  10.360  10.582
13494W        W80277  33.523  43.341   0.867
13495W        W80278   8.283   5.441   3.271
13496W        W80279  16.116  16.830   1.697
13497W        W80280  16.968  16.036   3.228
13498W        W80281  21.415  25.514   0.187
13499W        W80282  30.029  38.443   4.103
13500W        W80283  20.740  23.881  11.228
13501W        W80284  34.451  32.577  13.947
13502W        W80285  36.941  35.421   1.763
13503W        W80286  13.285   1.439   1.508
13504W        W80287  42.913  10.894  12.948
13505W        W80288   7.622  27.040   0.972
13506W        W80289  40.959  25.636   0.858
13507W        W80290   3.459  28.193  13.496
13508W        W80291  40.909  20.737   1.181
13509W        W80292  27.426  37.074  11.632
13510W        W80293  16.473  30.076   1.219
13511W        W80294  32.096  17.364  13.713
13512W        W80295  22.189  36.684   1.765
13513W        W80296   0.662  12.994   9.799
13514W        W80297   0.338  15.448  10.665
13515W        W80298  31.539  32.035   4.904
13516W        W80299  15.575  43.588   3.383
13517W        W80300   1.339  23.144  13.710
13518W        W80301  10.442   0.640  11.152
13519W        W80302  10.733  13.376  12.092
13520W        W80303  13.506  12.543   2.086
13521W        W80304  38.053  43.787   1.078
13522W        W80305  14.725  42.479   3.766
13523W        W80306  13.693   7.297   4.653
13524W        W80307  42.805   3.775   4.233
13525W        W80308  18.265  13.803  11.625
13526W        W80309  14.604  29.216   3.382
13527W        W80310  29.334   9.686   3.619
13528W        W80311   6.406   6.441  10.790
13529W        W80312   1.626   2.741  12.633
13530W        W80313   2.081  40.807   0.598
13531W        W80314  19.173  23.687   4.625
13532W        W80315   9.219  31.020  14.483
13533W        W80316   4.647  33.887  14.741
13534W        W80317  21.330   4.950   3.763
13535W        W80318   0.419  21.247   0.858
13536W        W80319  35.303  33.435  12.463
13537W        W80320  12.711  41.046  12.049
13538W        W80321  36.463   6.913   0.441
13539W        W80322  18.045  22.179   2.097
13540W        W80323   6.696  17.507   1.451
13541W        W80324   4.176  12.052  13.467
13542W        W80325   2.729  21.132   0.589
13543W        W80326  35.523  22.365  13.599
13544W        W80327  31.211  35.815  14.957
13545W        W80328  25.121  23.739  13.093
13546W        W80329  35.603  25.509   2.693
13547W        W80330  12.420  44.343   4.008
13548W        W80331  39.604   2.390   0.034
13549W        W80332  41.764  12.359   4.610
13550W        W80333  30.544  28.411   2.752
13551W        W80334  30.489   4.164   0.919
13552W        W80335  27.751  35.696   1.407
13553W        W80336  20.300  16.996   3.217
13554W        W80337  10.167   1.088  11.142
13555W        W80338  37.909  12.223   4.748
13556W        W80339  11.132  25.157   3.361
13557W        W80340  35.459  40.600  12.387
13558W        W80341   4.422  23.523   2.128
13559W        W80342  40.352  16.644  12.446
13560W        W80343   5.864  22.643  14.910
13561W        W80344  40.256  11.310   4.069
13562W        W80345  44.028  32.460   1.275
13563W        W80346   2.022  28.276   2.424
13564W        W80347   8.576  27.954  11.111
13565W        W80348  24.085  32.621   2.420
13566W        W80349  40.435  29.881  12.844
13567W        W80350  12.334  23.103   1.516
13568W        W80351  27.623  21.163  12.220
13569W        W80352  15.082  33.992   5.544
13570W        W80353   3.825   5.118   0.079
13571W        W80354  29.615  28.912   2.761
13572W        W80355  33.982   3.380  11.753
13573W        W80356  29.742  20.113  10.677
13574W        W80357  24.617  39.800  10.921
13575W        W80358  40.831  11.433  11.177
13576W        W80359  26.977  17.933   1.544
13577W        W80360   0.284  25.051  13.806
13578W        W80361  21.486   5.009  14.062
13579W        W80362  19.294  12.135   5.220
13580W        W80363   1.158  17.761   1.385
13581W        W80364  30.396   7.912  13.902
13582W        W80365  14.192   3.413   0.612
13583W        W80366  43.171  41.345  12.999
13584W        W80367  40.025  44.470  14.347
13585W        W80368   2.806  22.094   1.419
13586W        W80369  28.923  17.515   3.389
13587W        W80370  13.652  18.580  12.302
13588W        W80371  32.009   8.939   4.317
13589W        W80372  29.901   4.811   1.833
13590W        W80373  29.434  42.866   1.901
13591W        W80374  22.502  10.355  10.703
13592W        W80375  37.915  32.426   4.845
13593W        W80376  10.061  11.305   1.816
13594W        W80377  14.746   8.183  14.052
13595W        W80378  19.316  24.638   2.847
13596W        W80379   9.903  11.513  11.457
13597W        W80380   4.147  29.739   0.626
13598W        W80381  30.772  26.648   3.584
13599W        W80382  10.600  37.747   4.705
13600W        W80383  39.074  14.281   1.175
13601W        W80384  36.009  14.797   0.272
13602W        W80385  21.185  28.516  13.431
13603W        W80386   2.951   6.215  12.202
13604W        W80387  41.357  42.183   3.724
13605W        W80388  17.260  10.844   0.473
13606W        W80389  19.687  12.066  12.525
13607W        W80390   8.375  29.023  14.276
13608W        W80391  25.707   3.770   0.480
13609W        W80392  13.304  22.796  14.389
13610W        W80393  35.137  33.602  14.596
13611W        W80394  26.868  10.314   2.471
13612W        W80395   3.721  30.416  13.434
13613W        W80396   9.978  20.954  12.171
13614W        W80397   9.224  43.006  12.555
13615W        W80398   8.822  18.640   2.805
13616W        W80399  13.848  44.344  14.035
13617W        W80400  36.986  21.810  14.686
13618W        W80401   7.233   3.817   3.227
13619W        W80402  15.754  40.931   4.527
13620W        W80403  19.704  32.212   2.528
13621W        W80404  30.996  14.258   4.147
13622W        W80405   0.737  20.940  11.608
13623W        W80406  22.035  23.356   0.836
13624W        W80407  28.107  42.225   0.637
13625W        W80408  31.092  17.556   0.063
13626W        W80409  28.062  30.187   2.207
13627W        W80410  18.834   6.859  13.278
13628W        W80411  26.666   8.907   3.679
13629W        W80412  28.015   5.545   1.398
13630W        W80413  26.222  23.080   0.797
13631W        W80414  37.488   3.452   3.222
13632W        W80415  10.863  21.557   1.698
13633W        W80416  30.009  26.453  11.453
13634W        W80417   3.344  18.243   3.298
13635W        W80418   9.198   6.972  13.054
13636W        W80419  20.611  35.622   4.143
13637W        W80420  22.343  33.515   2.641
13638W        W80421  28.904   4.061   4.164
13639W        W80422   8.293  36.418   0.824
13640W        W80423  41.653  21.069  10.308
13641W        W80424  15.634  23.380  14.840
13642W        W80425  41.861  44.515  14.041
13643W        W80426  42.832  16.167  12.145
13644W        W80427  28.053  23.173   0.463
13645W        W80428  24.472   6.951   3.696
13646W        W80429  21.784  37.969   2.883
13647W        W80430  32.657  23.597  10.474
13648W        W80431   7.842  12.249   4.580
13649W        W80432  26.226   9.791   3.648
13650W        W80433  23.384  12.330  11.558
13651W        W80434   5.434  44.499  14.352
13652W        W80435  21.109  27.210   3.833
13653W        W80436  18.427  25.814   3.636
13654W        W80437  36.799  42.864   2.358
13655W        W80438   0.206  33.156  14.026
13656W        W80439  30.568   1.940  12.857
13657W        W80440   1.163  27.669  11.137
13658W        W80441   4.814  35.636   1.220
13659W        W80442   0.076  41.397  13.332
13660W        W80443   4.212  34.089   4.249
13661W        W80444  11.183   1.852   1.923
13662W        W80445  27.326  41.815   0.926
13663W        W80446  24.400  31.929   3.281
13664W        W80447  27.389  23.994   3.251
13665W        W80448  27.279  44.930   1.667
13666W        W80449  24.806   4.276   3.840
13667W        W80450   2.925  25.174   2.690
13668W        W80451  34.831  35.094   3.153
13669W        W80452   7.059  12.121  12.435
13670W        W80453  36.766  19.295  12.642
13671W        W80454  13.061  11.435   0.808
13672W        W80455  20.082  27.530   3.533
13673W        W80456  14.153   5.852  11.841
13674W        W80457  33.453  12.457   3.688
13675W        W80458  42.565   7.073   3.228
13676W        W80459  41.389  26.729   1.728
13677W        W80460  44.838  10.369   3.953
13678W        W80461  33.211  17.443   2.331
13679W        W80462   8.813  18.145   3.079
13680W        W80463  12.287  33.604   4.198
13681W        W80464  19.227  16.784   0.291
13682W        W80465  36.788  38.478  12.537
13683W        W80466  44.533   7.834   1.069
13684W        W80467  20.164  19.947   5.012
13685W        W80468  31.075  15.580   4.613
13686W        W80469  30.912   5.633   0.317
13687W        W80470  25.701  31.540   0.407
13688W        W80471  26.475  21.737  11.560
13689W        W80472  10.526  39.072  11.938
13690W        W80473  41.172   2.918  12.950
13691W        W80474  12.365  17.494   1.900
13692W        W80475   3.155   3.984  13.879
13693W        W80476  34.893  21.188  14.089
13694W        W80477  36.499  19.683   3.995
13695W        W80478   2.480  25.073   1.450
13696W        W80479  42.753  22.770   2.291
13697W        W80480  15.309  43.702  14.884
13698W        W80481  24.037   8.678   2.713
13699W        W80482  30.847  15.878  10.985
13700W        W80483  20.583   9.180  13.540
13701W        W80484  15.670  25.756  11.091
13702W        W80485  28.633  23.132  14.767
13703W        W80486  10.249  12.963  11.882
13704W        W80487   7.225  41.202  12.284
13705W        W80488  38.048  32.375   2.743
13706W        W80489  23.959   5.963  14.376
13707W        W80490  38.814  22.218  11.678
13708W        W80491  27.995   7.900  14.725
13709W        W80492  31.132   7.083   4.121
13710W        W80493  12.467  42.785  10.984
13711W        W80494  12.655  21.283  11.049
13712W        W80495  27.501   9.381   3.814
13713W        W80496  20.130  23.950  13.520
13714W        W80497  37.438  17.776   1.931
13715W        W80498   5.332  43.170  14.887
13716W        W80499  43.555  17.150  10.584
13717W        W80500   2.368  44.774   3.320
13718W        W80501  19.982  37.474  10.908
13719W        W80502   6.033  28.119   0.494
13720W        W80503  42.858  22.012   0.380
13721W        W80504  38.779  39.946   2.860
13722W        W80505  29.359  27.717   1.246
13723W        W80506  17.276  25.591   2.848
13724W        W80507  25.707  42.788  14.169
13725W        W80508  12.826   5.202   2.064
13726W        W80509  41.302   0.852   4.204
13727W        W80510  26.901  39.945   3.650
13728W        W80511  25.165   4.751   1.830
13729W        W80512  15.147  38.942  11.165
13730W        W80513  19.054  13.701  11.158
13731W        W80514   9.805  19.301  13.821
13732W        W80515  24.966   8.374  12.593
13733W        W80516  20.047  26.565  13.342
13734W        W80517  20.764   1.967   1.375
13735W        W80518  21.091  42.651  14.546
13736W        W80519   0.362  27.406   0.737
13737W        W80520  13.666  14.318   2.218
13738W        W80521  42.713   1.234  14.325
13739W        W80522   2.330  41.764   3.115
13740W        W80523   4.803  31.094  14.929
13741W        W80524  25.003  24.189  12.762
13742W        W80525  14.873  19.971  12.075
13743W        W80526   0.797  14.365  13.539
13744W        W80527   5.792  31.491  13.736
13745W        W80528  26.124  16.039   0.497
13746W        W80529  15.454  26.938  13.491
13747W        W80530  10.865  18.642  12.586
13748W        W80531  13.867  35.056   1.155
13749W        W80532   8.820  35.096  13.460
13750W        W80533  15.830  12.751  14.597
13751W        W80534  19.223  14.209  13.822
13752W        W80535   1.506  37.872  14.488
13753W        W80536  13.834  16.514   2.576
13754W        W80537   8.260  40.263   3.642
13755W        W80538  31.466   5.916   1.836
13756W        W80539   7.248  21.234   3.995
13757W        W80540  12.088  16.174   1.244
13758W        W80541  27.349  12.714  13.478
13759W        W80542  30.021   7.389   1.319
13760W        W80543  12.867   7.772  12.870
13761W        W80544  12.593  10.082  12.906
13762W        W80545  43.039  28.393  13.519
13763W        W80546   0.365  30.682   2.207
13764W        W80547  40.397  23.245   0.859
13765W        W80548  10.849   8.858   2.671
13766W        W80549   1.407  40.932  11.972
13767W        W80550  38.320   8.283  13.013
13768W        W80551  35.621  31.429  13.561
13769W        W80552  40.903  22.499  12.216
13770W        W80553  37.641  13.713  10.758
13771W        W80554  43.378   6.193   1.817
13772W        W80555  43.739  10.807   3.346
13773W        W80556  31.392  37.390  11.568
13774W        W80557  17.978  20.662  14.012
13775W        W80558  23.386   5.384  13.035
13776W        W80559   8.236   8.906  12.385
13777W        W80560  20.915  18.109   0.515
13778W        W80561  33.979  41.423  10.683
13779W        W80562  16.059   8.895   2.389
13780W        W80563  44.992  25.167  12.610
13781W        W80564  41.303   0.628   0.268
13782W        W80565  38.374  36.342   1.736
13783W        W80566  42.433  38.019  13.962
13784W        W80567   5.330   6.587   4.057
13785W        W80568   6.973   0.256   2.109
13786W        W80569  37.667  40.305  11.509
13787W        W80570  42.373  25.005   4.624
13788W        W80571  39.507   1.088   1.169
13789W        W80572  15.136   4.648   3.203
13790W        W80573  30.251  28.061  13.460
13791W        W80574  42.239   7.115  12.307
13792W        W80575  25.055  16.913  11.704
13793W        W80576  11.200  40.972   4.220
13794W        W80577   4.974  31.337   2.296
13795W        W80578  17.584  33.805   1.797
13796W        W80579  42.602  41.501   2.749
13797W        W80580  30.407  24.250  12.911
13798W        W80581  35.536  16.706   0.401
13799W        W80582  41.103  14.593  12.327
13800W        W80583   0.393  35.265   2.165
13801W        W80584  42.381  41.470  14.298
13802W        W80585  11.099  33.346   1.255
13803W        W80586   2.899   8.675   1.411
13804W        W80587  28.472  35.572  11.286
13805W        W80588  23.872  18.127   5.051
13806W        W80589  20.283  33.135   3.287
13807W        W80590  39.871  43.927  10.741
13808W        W80591  44.918  27.723   1.862
13809W        W80592   0.094   3.188   2.220
13810W        W80593  24.754  42.274  13.487
13811W        W80594  34.578  15.314  13.719
13812W        W80595  36.102  18.124  12.588
13813W        W80596  19.195  18.757  13.600
13814W        W80597  24.044  29.345  11.881
13815W        W80598  38.087  19.764  14.351
13816W        W80599  17.928  27.780  11.165
13817W        W80600  11.889  40.804  12.776
13818W        W80601  11.959  25.797  11.596
13819W        W80602  27.131  39.607  13.418
13820W        W80603   9.189   8.473  14.180
13821W        W80604  11.804  26.401  12.886
13822W        W80605  18.168  43.239  10.717
13823W        W80606  43.791   9.271  13.112
13824W        W80607  18.161  23.498  10.699
13825W        W80608  33.562  33.199  11.493
13826W        W80609  15.937   5.206  11.516
13827W        W80610  10.050  17.736  12.980
13828W        W80611   1.340  22.275  11.113
13829W        W80612  41.266  39.550  12.807
13830W        W80613  20.003  41.006   2.768
13831W        W80614  44.365  44.323  12.185
13832W        W80615  35.104  20.782  12.906
13833W        W80616  34.876  21.908  12.407
13834W        W80617  39.096  41.227   1.839
13835W        W80618  15.634  30.600  14.910
13836W        W80619  32.919  14.168  13.081
13837W        W80620  43.796  28.964  12.399
13838W        W80621  28.182  26.978  12.568
13839W        W80622  11.569  43.428  14.329
13840W        W80623  35.376   5.010  14.865
13841W        W80624  16.667  24.997   3.804
13842W        W80625  40.078  20.190  14.363
13843W        W80626  34.856  16.983   2.834
13844W        W80627  38.816  22.039  10.267
13845W        W80628  30.843  17.276   1.275
13846W        W80629   9.713  39.898  13.192
13847W        W80630  13.830  42.802  12.511
13848W        W80631  15.466   6.152  12.656
13849W        W80632  36.595  32.817  12.543
13850W        W80633  42.051  31.825  14.529
13851W        W80634  33.179  19.893  14.996
13852W        W80635  19.128  44.052  11.219
13853W        W80636   4.907  44.843  12.048
13854W        W80637  35.085  32.344  11.575
13855W        W80638  30.648  42.313  10.902
13856W        W80639  24.225   6.397   2.385
13857W        W80640  11.915   2.079   4.473
13858W        W80641   9.533  39.050  13.823
13859W        W80642  44.949   4.663   1.076
13860W        W80643  12.506  34.394  12.085
13861W        W80644  33.217  17.762  10.891
13862W        W80645  13.701  19.518  12.468
13863W        W80646  22.936  21.125   0.940
13864W        W80647  44.943  18.819  13.415
13865W        W80648  20.264  31.412  14.408
13866W        W80649   4.872   5.467  11.242
13867W        W80650   1.271   7.325  13.541
13868W        W80651  11.659  23.663   4.225
13869W        W80652  42.620  22.065   3.075
13870W        W80653   6.652  41.823  14.064
13871W        W80654  22.037  30.135   4.228
13872W        W80655  17.801   4.145  11.976
13873W        W80656  13.592   5.129   4.073
13874W        W80657  32.857  34.639  13.723
13875W        W80658  13.379   7.627   3.693
13876W        W80659  43.727   7.231  12.181
13877W        W80660   2.740   3.280  11.596
13878W        W80661  40.468   4.633   2.386
13879W        W80662  42.539  32.427  10.313
13880W        W80663   8.950  38.702  12.972
13881W        W80664  42.872  28.376  11.604
13882W        W80665  14.843  26.233   3.263
13883W        W80666   1.682  16.273  12.548
13884W        W80667   6.020   6.781   1.377
13885W        W80668  33.021   2.357  11.404
13886W        W80669  29.570  23.183   3.698
13887W        W80670  38.871   3.531   1.339
13888W        W80671  23.267  31.734   0.405
13889W        W80672  11.186  26.733   5.044
13890W        W80673  41.261   3.512   3.748
13891W        W80674   7.614   1.950  12.605
13892W        W80675  36.151  23.609  12.428
13893W        W80676  35.332  20.340   5.459
13894W        W80677   8.928  29.432  12.612
13895W        W80678  34.281   6.282  12.478
13896W        W80679  35.045  37.655  14.485
13897W        W80680  21.052  33.896  12.578
13898W        W80681   9.243   3.508   2.317
13899W        W80682  16.152   6.980  11.543
13900W        W80683  26.433   9.188  11.438
13901W        W80684  37.572  30.965  11.670
13902W        W80685  42.287  35.423  14.556
13903W        W80686  26.177  27.491   1.778
13904W        W80687  32.664  10.055  12.459
13905W        W80688  35.598   8.703  13.531
13906W        W80689  44.105  43.798   4.052
13907W        W80690  22.872  34.681   0.757
13908W        W80691   0.070  22.959   2.843
13909W        W80692  19.402   4.142   5.093
13910W        W80693   3.753  14.622  13.377
13911W        W80694  22.707  10.834  12.956
13912W        W80695   1.563  30.777  14.807
13913W        W80696  21.550  15.173   4.271
13914W        W80697  33.949  12.305  12.633
13915W        W80698  10.451  26.352   5.011
13916W        W80699   7.938  12.475   4.113
13917W        W80700  35.487  12.530  13.832
13918W        W80701   0.862  42.047   1.729
13919W        W80702   7.830  42.520  13.950
13920W        W80703  17.193  19.230  12.490
13921W        W80704  10.983  37.059   1.108
13922W        W80705  25.981  12.732  14.742
13923W        W80706   1.805   9.546   1.295
13924W        W80707   7.923  15.214   3.043
13925W        W80708  41.575  31.169  11.974
13926W        W80709   9.489  39.048  11.996
13927W        W80710  32.639   7.130  11.625
13928W        W80711  15.596  37.947   4.795
13929W        W80712   3.010  23.188   4.395
13930W        W80713  13.343  19.915  12.454
13931W        W80714  26.542  32.533  10.825
13932W        W80715   3.164  22.197   0.921
13933W        W80716  36.590  44.790   4.712
13934W        W80717  21.119  29.922  12.851
13935W        W80718  34.468  35.753  10.889
13936W        W80719  29.444  16.231  13.065
13937W        W80720  35.284  39.626   1.858
13938W        W80721  27.494  39.211  11.135
13939W        W80722  42.758   7.808   1.371
13940W        W80723   2.489  23.162   0.853
13941W        W80724   6.659   9.118  11.921
13942W        W80725  20.560   6.437   3.754
13943W        W80726   6.717   0.730   0.949
13944W        W80727   5.227  41.086  10.765
13945W        W80728  41.040  22.440  13.669
13946W        W80729  36.057  15.010   4.901
13947W        W80730  34.159  10.942  12.982
13948W        W80731  22.237  25.464   0.780
13949W        W80732  14.186   3.048  12.915
13950W        W80733   9.614  41.542  14.578
13951W        W80734   8.593  31.027  10.756
13952W        W80735  36.248  27.167  14.619
13953W        W80736  41.757  31.026  14.335
13954W        W80737  15.642  26.736   2.234
13955W        W80738  21.512  10.935  12.096
13956W        W80739  20.980   5.121  14.052
13957W        W80740   5.085  37.218  10.821
13958W        W80741  11.766  12.476  10.603
13959W        W80742  21.203   4.399   0.255
13960W        W80743  36.124  41.934   4.272
13961W        W80744  28.732   1.248  13.861
13962W        W80745  21.104  25.761  14.825
13963W        W80746  12.526  11.183  13.766
13964W        W80747  16.741  37.927  11.502
13965W        W80748  20.564   9.654  10.787
13966W        W80749  34.534  19.965  13.752
13967W        W80750  39.337  18.406  11.167
13968W        W80751   3.604  29.306   4.949
13969W        W80752  15.533   6.649   4.858
13970W        W80753   7.894  36.539  14.126
13971W        W80754  37.567  41.288   3.502
13972W        W80755  11.019  33.600  10.327
13973W        W80756  38.735  39.870  13.435
13974W        W80757  36.648   2.082  12.467
13975W        W80758  33.416  12.083  14.847
13976W        W80759   8.214  40.449   3.101
13977W        W80760  23.104  26.453  11.747
13978W        W80761   9.898  37.485  12.418
13979W        W80762  28.032  16.038  11.872
13980W        W80763  35.005  12.643   4.802
13981W        W80764  43.228   4.165   0.306
13982W        W80765  29.482  25.483   1.684
13983W        W80766  33.478  26.567   4.205
13984W        W80767  44.415  34.844   0.794
13985W        W80768   2.787  29.596   1.953
13986W        W80769   0.372  36.351   1.288
13987W        W80770   9.898  10.763   3.557
13988W        W80771  36.007  12.202   0.180
13989W        W80772  38.900  14.137   4.473
13990W        W80773  24.134  42.077   1.336
13991W        W80774   0.761   8.753  13.910
13992W        W80775  25.680   3.815   4.986
13993W        W80776  15.371  26.592   4.332
13994W        W80777  18.706  32.542   2.808
13995W        W80778  12.518  14.864   3.287
13996W        W80779   0.407   0.473  14.414
13997W        W80780   5.662  35.885  12.287
13998W        W80781  29.638  28.028  12.352
13999W        W80782  26.123  13.573  11.150
14000W        W80783  14.861  22.669   4.834
14001W        W80784  30.995  23.559   0.859
14002W        W80785   3.405   4.475   0.737
14003W        W80786  32.726  36.019  14.135
14004W        W80787  17.294  43.278  14.371
14005W        W80788  33.077  41.944  10.722
14006W        W80789  32.984  23.990  10.635
14007W        W80790  41.876  30.534  14.985
14008W        W80791  15.210  19.594   3.249
14009W        W80792   2.272   0.391  14.981
14010W        W80793  23.848   9.308   4.706
14011W        W80794  16.521  14.884  13.423
14012W        W80795  43.991  26.747   0.217
14013W        W80796  15.211  16.849  11.066
14014W        W80797  22.506   1.139   3.865
14015W        W80798  22.038  37.895   0.003
14016W        W80799  36.942  12.611  10.792
14017W        W80800  11.488  29.947  11.120
14018W        W80801   1.887  34.084   3.220
14019W        W80802  31.427   6.524  11.564
14020W        W80803  18.749   1.028  11.061
14021W        W80804  14.718  32.726   2.477
14022W        W80805   6.520  28.578  12.167
14023W        W80806   2.229  26.603   4.998
14024W        W80807   5.606  37.526  14.176
14025W        W80808  29.636  33.866  10.746
14026W        W80809   2.419  19.573   1.946
14027W        W80810   6.184  28.522  13.990
14028W        W80811  12.921  12.865  11.112
14029W        W80812   6.142  34.659  11.735
14030W        W80813  18.082   3.914  11.176
14031W        W80814   3.835  16.393   1.033
14032W        W80815  11.821   3.450   2.816
14033W        W80816  10.179  22.358  14.355
14034W        W80817   0.529  42.015   4.547
14035W        W80818  29.382  22.630   3.022
14036W        W80819   4.082  10.321  12.027
14037W        W80820  20.188   6.547   4.120
14038W        W80821  18.275  22.900   1.425
14039W        W80822   3.148  22.133   3.624
14040W        W80823  16.154  11.746   1.915
14041W        W80824   8.372  26.772   0.144
14042W        W80825   8.236  22.296   0.767
14043W        W80826  17.605  28.182  11.162
14044W        W80827   6.146  40.961   2.388
14045W        W80828  27.670  30.392   3.255
14046W        W80829  21.210  39.360   2.375
14047W        W80830  30.402  16.107   2.711
14048W        W80831  37.105  37.498   1.403
14049W        W80832  43.331  39.025  12.502
14050W        W80833  32.540  36.002  14.968
14051W        W80834  32.398   9.804   1.917
14052W        W80835  41.194  20.000   4.278
14053W        W80836  19.602  19.181  13.179
14054W        W80837   6.953  11.171  14.416
14055W        W80838   9.837  15.864   0.410
14056W        W80839  16.225  11.904  13.547
14057W        W80840   8.192  11.335   2.023
14058W        W80841  28.954  14.826   4.238
14059W        W80842  21.775   9.910  14.402
14060W        W80843  32.915  10.316   3.178
14061W        W80844  19.738  21.651   1.783
14062W        W80845  15.386  22.224   1.288
14063W        W80846  14.343   9.778   4.379
14064W        W80847  42.020  23.825  10.296
14065W        W80848  42.576  28.052  14.881
14066W        W80849  44.946  41.849  13.576
14067W        W80850  23.028   7.699  13.853
14068W        W80851  35.020  23.289   4.083
14069W        W80852  20.973  15.712  14.819
14070W        W80853  26.900  10.625  14.888
14071W        W80854  17.586  29.852   1.908
14072W        W80855  21.119  19.543  13.474
14073W        W80856   0.797  32.038   3.115
14074W        W80857  43.394  28.128  13.848
14075W        W80858  12.882   2.430   3.207
14076W        W80859  19.829  13.503   2.891
14077W        W80860  26.949  17.004   2.681
14078W        W80861  41.842  20.639   3.173
14079W        W80862  21.387  20.879   9.815
14080W        W80863  32.088  30.629   4.136
14081W        W80864  34.093  27.958   3.750
14082W        W80865  20.048  20.342  11.948
14083W        W80866  39.281  37.663  10.493
14084W        W80867  30.053   2.736  14.936
14085W        W80868  40.504  34.858  13.481
14086W        W80869   6.944  19.234  11.242
14087W        W80870  42.495  19.250   1.668
14088W        W80871  21.753   9.120  12.470
14089W        W80872  38.731  14.735   1.252
14090W        W80873   9.305  18.971   3.084
14091W        W80874  30.578  16.341   2.270
14092W        W80875  10.612  19.680  12.982
14093W        W80876  13.118  11.451  12.948
14094W        W80877   2.928  20.581  12.006
14095W        W80878  32.666  31.411  14.521
14096W        W80879  14.815  16.921   1.237
14097W        W80880   3.698  18.139   4.615
14098W        W80881  42.050  36.458   4.172
14099W        W80882  10.826   5.295   1.346
14100W        W80883  17.180  43.057   1.882
14101W        W80884  42.869  43.108   1.074
14102W        W80885  37.842  12.015  11.615
14103W        W80886  44.570  29.927   3.816
14104W        W80887  28.989  19.628   3.593
14105W        W80888  25.284  16.570   5.073
14106W        W80889  25.951  18.663  12.558
14107W        W80890  25.093  21.636   0.654
14108W        W80891  16.121   4.318   4.605
14109W        W80892   2.836   7.134   0.382
14110W        W80893  10.420   9.897   3.604
14111W        W80894   3.463   5.234   2.688
14112W        W80895  26.257  15.880  12.490
14113W        W80896  30.941  29.967  12.420
14114W        W80897  30.605   7.897   3.364
14115W        W80898  12.169  11.912  14.419
14116W        W80899  35.293  31.425  11.672
14117W        W80900  44.642   1.607   3.638
14118W        W80901  11.834  34.510   3.284
14119W        W80902  42.300  14.620  14.975
14120W        W80903   9.549   8.803   5.063
14121W        W80904  34.011  19.216  11.118
14122W        W80905  22.521  29.639   2.878
14123W        W80906   8.924  30.973   3.315
14124W        W80907  23.037  29.361  14.236
14125W        W80908  44.401  36.131  14.429
14126W        W80909  31.587   4.979  13.823
14127W        W80910   3.883   0.097   1.892
14128W        W80911  12.734   0.947   3.341
14129W        W80912  34.812   9.154  10.722
14130W        W80913  30.869  28.552   1.429
14131W        W80914   2.405  39.623   4.213
14132W        W80915   4.193  35.485  12.003
14133W        W80916  21.963  40.921  12.974
14134W        W80917  44.341  30.902  11.489
14135W        W80918   7.861   6.641  12.070
14136W        W80919   6.729  13.417  10.463
14137W        W80920  37.453  19.227  11.956
14138W        W80921  24.808  33.795  10.821
14139W        W80922   2.016  42.498  12.019
14140W        W80923  15.557  10.351  11.779
14141W        W80924   6.198   0.378   3.258
14142W        W80925  31.163  41.281  13.894
14143W        W80926  44.533   3.165  13.506
14144W        W80927   3.799   3.372   0.750
14145W        W80928  35.465  14.886   4.127
14146W        W80929  11.620  18.582  14.798
14147W        W80930  34.871  41.900  14.932
14148W        W80931  41.439   3.369  13.015
14149W        W80932  39.735  41.197  11.121
14150W        W80933  13.345   2.963   4.565
14151W        W80934  27.194  16.293   3.080
14152W        W80935  25.002  23.281  12.919
14153W        W80936  38.283  30.035  11.647
14154W        W80937   0.781   9.913  10.984
14155W        W80938  25.059   9.175   4.020
14156W        W80939  30.151  20.815   5.304
14157W        W80940  32.794  38.424   4.825
14158W        W80941   9.090  36.852   0.808
14159W        W80942  38.577   9.872   0.688
14160W        W80943   1.371  29.002  10.464
14161W        W80944  31.133  18.633   0.268
14162W        W80945   0.897  14.213   4.357
14163W        W80946  14.309  22.627   2.191
14164W        W80947   7.015  37.826   0.930
14165W        W80948  43.985  43.309   4.480
14166W        W80949  40.422  17.164  12.594
14167W        W80950  12.429  30.151   0.412
14168W        W80951  32.414  29.387   2.658
14169W        W80952  44.522  14.030  11.082
14170W        W80953  42.539  13.680   1.535
14171W        W80954  16.569   1.268   2.045
14172W        W80955  35.229  38.040   4.573
14173W        W80956  17.511  11.129   4.847
14174W        W80957  14.246  35.031   2.122
14175W        W80958  26.395  32.610   1.310
14176W        W80959  39.035  13.103   1.638
14177W        W80960  33.583   8.471   1.210
14178W        W80961  15.743  43.079  11.568
14179W        W80962  20.633  11.231  12.006
14180W        W80963   1.451  40.964   2.241
14181W        W80964  19.583   7.123   2.088
14182W        W80965  22.659  38.869   4.252
14183W        W80966  37.414  22.259  14.453
14184W        W80967   8.488   9.292  11.582
14185W        W80968  33.115  25.426   2.875
14186W        W80969  39.558  29.849   2.256
14187W        W80970  29.585  36.389   4.678
14188W        W80971   4.157  26.044   1.317
14189W        W80972   8.296  22.727  14.747
14190W        W80973  10.571  25.451  11.563
14191W        W80974  37.870  20.407  13.769
14192W        W80975  28.937  18.382  13.308
14193W        W80976  19.531  16.713   3.209
14194W        W80977   5.472  33.632  10.806
14195W        W80978  18.028  41.313   4.106
14196W        W80979  11.676   2.346  14.518
14197W        W80980  23.384  12.326  10.719
14198W        W80981  20.867  27.927   0.297
14199W        W80982  38.044   7.906   1.400
14200W        W80983  19.961  29.140  11.482
14201W        W80984  30.152  42.915  13.290
14202W        W80985  37.873  43.080   3.460
14203W        W80986  33.447  16.778   3.842
14204W        W80987  31.599  35.966   1.962
14205W        W80988   2.487  28.021  14.443
14206W        W80989  14.217  26.508   4.518
14207W        W80990  41.603   0.860  10.659
14208W        W80991  29.734  18.899  11.213
14209W        W80992   0.125  13.668  10.325
14210W        W80993  39.920  10.327  13.930
14211W        W80994  39.853  37.482   3.675
14212W        W80995  41.919   3.155  10.396
14213W        W80996  22.251  26.976  11.541
14214W        W80997  35.395  33.681   3.784
14215W        W80998  12.341  34.898   3.946
14216W        W80999  13.056  34.491   2.644
14217W        W81000  29.438  42.347   2.115
14218W        W81001  37.334  24.275  10.993
14219W        W81002  23.765  32.191   1.522
14220W        W81003  26.493   9.573  14.860
14221W        W81004   6.174   4.435  10.429
14222W        W81005  22.076  29.413   3.054
14223W        W81006   1.341  39.433  13.964
14224W        W81007   7.796  18.772  12.092
14225W        W81008  10.744   8.617  11.848
14226W        W81009  44.133   8.670  13.341
14227W        W81010  44.077  29.911  12.367
14228W        W81011  31.409  37.518   3.307
14229W        W81012  40.064  11.871  12.553
14230W        W81013   2.680   0.236   3.529
14231W        W81014   0.398  37.285  13.928
14232W        W81015  32.519  31.936   0.934
14233W        W81016  14.169   6.227   2.641
14234W        W81017   1.039  24.193  13.010
14235W        W81018  22.169   4.545  14.395
14236W        W81019  36.433  20.309   0.217
14237W        W81020  20.735   4.946   4.483
14238W        W81021   3.405  39.279  12.032
14239W        W81022  42.686  39.363  11.517
14240W        W81023  37.611   4.278  11.633
14241W        W81024  30.126  25.276  12.143
14242W        W81025   1.537  31.130  12.136
14243W        W81026  44.941  17.703   3.335
14244W        W81027  34.381   1.186  13.016
14245W        W81028  16.107   9.616  12.418
14246W        W81029  35.331  39.451  14.771
14247W        W81030  23.756   7.926  11.562
14248W        W81031  31.864   2.792   3.146
14249W        W81032  11.894  13.840  14.411
14250W        W81033  23.059   1.594  10.647
14251W        W81034  25.654   0.829  11.151
14252W        W81035  24.289  19.595  10.891
14253W        W81036  18.061  21.239   4.446
14254W        W81037  31.657   7.435  11.663
14255W        W81038   6.264   5.687  12.530
14256W        W81039   2.015  10.201   0.291
14257W        W81040  43.384  36.041  13.910
14258W        W81041  25.228  13.877  11.658
14259W        W81042   1.761  26.437  14.296
14260W        W81043  37.333  22.779   0.379
14261W        W81044  12.009  25.949  12.069
14262W        W81045  37.783  38.369   2.755
14263W        W81046  17.297  30.038  12.974
14264W        W81047   6.285   5.865  13.799
14265W        W81048  22.196   6.079   3.597
14266W        W81049  35.537  19.162  13.506
14267W        W81050   6.992  28.636  13.883
14268W        W81051  38.385  25.946   2.902
14269W        W81052  43.933  24.943  14.894
14270W        W81053  37.104   5.916  12.419
14271W        W81054  18.845  29.645   1.612
14272W        W81055  21.343  24.743  12.439
14273W        W81056  13.108  37.441   3.663
14274W        W81057  12.643  16.490   3.713
14275W        W81058  43.724  30.511   0.994
14276W        W81059  38.037  39.568   1.775
14277W        W81060  40.694  37.530   4.071
14278W        W81061  13.789  10.647  11.669
14279W        W81062   7.940   4.910  12.032
14280W        W81063   1.696  13.741  12.945
14281W        W81064  37.459  13.807  14.433
14282W        W81065   3.001   5.880  14.261
14283W        W81066  11.849  33.165   2.604
14284W        W81067  44.265  41.755   0.423
14285W        W81068  13.776   3.836   4.921
14286W        W81069  15.259  38.935   5.124
14287W        W81070  29.393  14.927   3.530
14288W        W81071  19.775  24.093  14.337
14289W        W81072   9.621  11.580   4.121
14290W        W81073  28.219  11.600  14.683
14291W        W81074   4.251   5.247  10.973
14292W        W81075  17.998  17.220   4.519
14293W        W81076  23.047  25.296   2.797
14294W        W81077   6.942  10.855   1.232
14295W        W81078  22.963   7.578  13.366
14296W        W81079  40.442  30.835   2.292
14297W        W81080  26.619  27.632  11.649
14298W        W81081  13.619   4.820   3.215
14299W        W81082  33.388  13.611  11.015
14300W        W81083   9.238  12.135  11.439
14301W        W81084  17.771  14.319  13.375
14302W        W81085  22.769  22.600  13.436
14303W        W81086  11.732  16.698  14.771
14304W        W81087  26.703  41.407   3.091
14305W        W81088  38.530  10.610   2.429
14306W        W81089  19.700  38.343  12.175
14307W        W81090  25.531  28.581  14.882
14308W        W81091   7.247  20.036   3.443
14309W        W81092  36.446  24.903   5.019
14310W        W81093   3.822   5.711  10.422
14311W        W81094  24.923  27.015   4.105
14312W        W81095  40.926  25.613  13.569
14313W        W81096   5.522   7.600  11.093
14314W        W81097   2.220  36.945   1.881
14315W        W81098   7.782   4.920  13.792
14316W        W81099  11.654   5.052  10.182
14317W        W81100  29.234  43.531  12.514
14318W        W81101  44.339  43.017   2.408
14319W        W81102  43.260   0.835  11.501
14320W        W81103  36.041  44.861   0.834
14321W        W81104  24.791  13.772  13.024
14322W        W81105  40.717  35.357  13.497
14323W        W81106  30.807  28.952  10.502
14324W        W81107  13.204   7.475   5.500
14325W        W81108  34.381  22.227  13.690
14326W        W81109  23.710  20.116  11.131
14327W        W81110  29.915  12.740   2.157
14328W        W81111  34.455  35.592   3.774
14329W        W81112  13.075  25.405  13.975
14330W        W81113  10.413  44.349   2.333
14331W        W81114  39.383   5.158   4.750
14332W        W81115   3.400  32.045   2.791
14333W        W81116  39.613  31.660   3.040
14334W        W81117  18.879  42.369   4.920
14335W        W81118  27.478   3.544   2.155
14336W        W81119  29.233  10.545  13.460
14337W        W81120  28.261  14.387  14.972
14338W        W81121  38.891  41.065  14.138
14339W        W81122  22.217  25.031   3.900
14340W        W81123  27.438  44.207  12.020
14341W        W81124  41.444  39.755   0.053
14342W        W81125   2.392   7.300  14.818
14343W        W81126  19.582  27.467   1.754
14344W        W81127  42.403  12.617   2.240
14345W        W81128  18.840  18.291   1.281
14346W        W81129  36.988  32.446   4.734
14347W        W81130   4.526  36.698   4.062
14348W        W81131  17.147  22.129   1.222
14349W        W81132  31.925  38.571   3.830
14350W        W81133   9.514  23.545  14.884
14351W        W81134  33.164  12.302  14.002
14352W        W81135  22.131  43.538  14.719
14353W        W81136  24.179   4.312  11.841
14354W        W81137  44.600  35.026   3.175
14355W        W81138  18.774   6.651  12.823
14356W        W81139  23.081  37.258   3.908
14357W        W81140  44.343  25.791  12.028
14358W        W81141  31.511  11.770   4.859
14359W        W81142  22.170   0.756   1.830
14360W        W81143   0.721  38.847  13.480
14361W        W81144  21.686   4.523  14.053
14362W        W81145  38.423  24.064  11.599
14363W        W81146   1.688  40.624  12.350
14364W        W81147   6.816  34.567  10.650
14365W        W81148  37.584   0.676  10.955
14366W        W81149  13.731  44.368   4.574
14367W        W81150   6.234   3.103   3.544
14368W        W81151  15.827  20.560  10.665
14369W        W81152  21.560  17.045  13.760
14370W        W81153   4.868   1.396   2.811
14371W        W81154  42.051   6.295  14.913
14372W        W81155  29.474  22.259   2.136
14373W        W81156  18.085   2.814  12.957
14374W        W81157   5.890  40.033  13.588
14375W        W81158   7.768  38.932  14.536
14376W        W81159  39.621  22.514  11.241
14377W        W81160   6.584  30.990   3.494
14378W        W81161  27.624  14.027  12.533
14379W        W81162   1.625   6.104   0.577
14380W        W81163  41.342   2.511   4.013
14381W        W81164   8.242  11.537  14.734
14382W        W81165  12.872  26.946   3.134
14383W        W81166  37.977  13.248  10.630
14384W        W81167   9.257  23.184  13.652
14385W        W81168  21.542   2.683  14.255
14386W        W81169  36.938  10.063   0.375
14387W        W81170  38.826   0.988  12.123
14388W        W81171  11.832  43.366  11.652
14389W        W81172  20.077  22.256   4.185
14390W        W81173  38.550   2.958   3.503
14391W        W81174  30.925  19.507  12.411
14392W        W81175  39.797   9.466   2.758
14393W        W81176  12.729  31.392  11.482
14394W        W81177  37.286  36.634  12.998
14395W        W81178  22.068  42.630  13.708
14396W        W81179   4.469  30.950  12.001
14397W        W81180  28.637   2.899   3.173
14398W        W81181   8.865  21.467   4.546
14399W        W81182  23.768  24.718   0.365
14400W        W81183  17.260  43.668  13.483
14401W        W81184  22.304   8.910  13.955
14402W        W81185  12.847   3.076   4.587
14403W        W81186  24.528   7.561  11.010
14404W        W81187   1.414  37.288   3.328
14405W        W81188  19.777  22.569  12.953
14406W        W81189  34.334  36.402   2.932
14407W        W81190  11.641  26.951   1.171
14408W        W81191   0.109  40.466  11.800
14409W        W81192  26.692   6.476   3.163
14410W        W81193  15.128  27.927   4.508
14411W        W81194  14.899  10.737   4.729
14412W        W81195  24.345  16.292  11.106
14413W        W81196  15.682  17.139   0.995
14414W        W81197  43.902  29.550  11.581
14415W        W81198  26.432  13.059   1.893
14416W        W81199  30.723  39.205   2.266
14417W        W81200  26.263   2.543   2.041
14418W        W81201  38.127  29.621  13.911
14419W        W81202  27.307   0.266  10.860
14420W        W81203  41.355  39.578  10.763
14421W        W81204  15.520  12.786   4.160
14422W        W81205  24.117  36.064   0.910
14423W        W81206  28.861  11.147  12.344
14424W        W81207   8.856   7.966   3.153
14425W        W81208   9.891   9.798   2.700
14426W        W81209   0.411  15.607   4.282
14427W        W81210  36.330  43.247   3.657
14428W        W81211  37.486   5.729  11.191
14429W        W81212  44.394  33.329  12.471
14430W        W81213  34.848   9.002   9.891
14431W        W81214   2.337  23.781   1.416
14432W        W81215  38.405  17.640  13.080
14433W        W81216   7.300  24.170   3.403
14434W        W81217   9.516  25.076   1.237
14435W        W81218  41.312  19.984   1.312
14436W        W81219  13.375   7.774  12.894
14437W        W81220  26.672  39.214   4.169
14438W        W81221   2.467  19.908  10.380
14439W        W81222  37.414  33.996   0.308
14440W        W81223  13.344  22.979   5.035
14441W        W81224  25.471  25.087   2.893
14442W        W81225  19.498  23.242   1.915
14443W        W81226   5.419  10.635   2.280
14444W        W81227  15.593  21.975  12.449
14445W        W81228  40.446  38.234   2.820
14446W        W81229  25.115   5.218  12.386
14447W        W81230  14.478  34.606  11.608
14448W        W81231  14.835  24.010  11.968
14449W        W81232  42.753  26.072  13.414
14450W        W81233  28.099  36.077   3.655
14451W        W81234  40.099  12.642   2.263
14452W        W81235  13.091  12.717   2.383
14453W        W81236  43.057  30.150   3.338
14454W        W81237   7.775   7.691  13.213
14455W        W81238  10.115  29.090  13.388
14456W        W81239  21.026  33.792   4.153
14457W        W81240  44.567   8.700  10.268
14458W        W81241  27.836  20.085  13.874
14459W        W81242  22.073   7.345   3.811
14460W        W81243  16.096  21.073   4.562
14461W        W81244  10.841  38.501  10.714
14462W        W81245  34.748  41.818  13.026
14463W        W81246  33.721   9.425   2.623
14464W        W81247  28.197  12.424  11.196
14465W        W81248  31.555  10.908  12.583
14466W        W81249  24.689  30.637   4.623
14467W        W81250  18.091  18.277  14.796
14468W        W81251   5.247   5.476   2.588
14469W        W81252   8.898  29.716  14.368
14470W        W81253  36.161  23.368  10.185
14471W        W81254   0.529  13.881   3.631
14472W        W81255  25.073  16.314   2.344
14473W        W81256   6.196   5.907   2.314
14474W        W81257   2.730  25.166  13.107
14475W        W81258  38.537  27.993  13.331
14476W        W81259  23.004  40.369  14.772
14477W        W81260  38.345  15.597  12.579
14478W        W81261  42.268  24.683   1.795
14479W        W81262  31.837  36.365   2.279
14480W        W81263  17.330   5.692  11.015
14481W        W81264  22.149  18.769   2.299
14482W        W81265   7.114  24.927  11.105
14483W        W81266   3.696  40.322   1.537
14484W        W81267  35.871  38.321   2.711
14485W        W81268  25.600  22.733   4.534
14486W        W81269  18.631  11.432   3.685
14487W        W81270   6.919  18.844   0.077
14488W        W81271  41.657  33.116  14.758
14489W        W81272   3.059  41.494   4.596
14490W        W81273  35.379  21.388  13.419
14491W        W81274   7.191  32.624   3.228
14492W        W81275  20.194  31.149  14.863
14493W        W81276  43.739  13.847   2.705
14494W        W81277  18.882   6.154   4.207
14495W        W81278   6.254  25.707  11.972
14496W        W81279  20.577  21.114   3.148
14497W        W81280   5.860  10.868  12.105
14498W        W81281  15.839  12.228  10.799
14499W        W81282  27.465  20.143   1.880
14500W        W81283  18.509  33.682  11.153
14501W        W81284   2.407   2.366   1.500
14502W        W81285   2.299  24.723   2.185
14503W        W81286  23.039   4.451   3.194
14504W        W81287   7.408  34.827  13.248
14505W        W81288   0.306   5.092  10.989
14506W        W81289  30.449  43.975   4.079
14507W        W81290  35.346  35.489  11.939
14508W        W81291  17.135   2.487  12.405
14509W        W81292   0.678  16.035   9.879
14510W        W81293  14.534  27.890  11.200
14511W        W81294  11.715  33.571   0.853
14512W        W81295  18.098  42.075   4.592
14513W        W81296  33.542  13.627   4.582
14514W        W81297  44.524  14.022   0.197
14515W        W81298  32.371  25.557   1.753
14516W        W81299  11.645  41.851  13.774
14517W        W81300  44.907  35.134   4.097
14518W        W81301  28.458  10.817  12.851
14519W        W81302  13.753  15.118   3.111
14520W        W81303  44.800  40.845  10.996
14521W        W81304  12.630  44.461   3.087
14522W        W81305  27.102  23.181  14.380
14523W        W81306  21.242  31.905   1.722
14524W        W81307   7.896  28.990   1.952
14525W        W81308  25.018  42.767   2.181
14526W        W81309  13.664  33.335   2.714
14527W        W81310  34.474  16.582   1.448
14528W        W81311  14.579  25.910   4.571
14529W        W81312  22.289  18.059   3.765
14530W        W81313   5.762   9.131   4.955
14531W        W81314  33.964  32.618  14.422
14532W        W81315  42.674  38.377  12.972
14533W        W81316  12.960  32.703   0.496
14534W        W81317  25.887  40.979   2.143
14535W        W81318  22.649  21.722  11.656
14536W        W81319  26.080  37.092   3.119
14537W        W81320   8.391  31.862  14.970
14538W        W81321  34.342  13.626  12.502
14539W        W81322  24.424  42.554   1.492
14540W        W81323  27.161  37.839  13.885
14541W        W81324  31.248  33.576   0.526
14542W        W81325  31.087  27.359  11.965
14543W        W81326  28.283  12.810   5.005
14544W        W81327   0.245   1.413   1.205
14545W        W81328  21.740  24.551  12.132
14546W        W81329  30.664   9.632  11.254
14547W        W81330  26.514   8.408  13.388
14548W        W81331  11.287  36.886  11.945
14549W        W81332  22.803   7.682  11.327
14550W        W81333   2.212  41.829  11.153
14551W        W81334  26.511  37.071  12.505
14552W        W81335  17.397  25.546   9.995
14553W        W81336  43.934  34.087  11.521
14554W        W81337  12.277  31.692  12.361
14555W        W81338  36.645   8.632  12.438
14556W        W81339  35.636   1.675  11.164
14557W        W81340  35.663   6.295  12.970
14558W        W81341  26.054  36.648  14.261
14559W        W81342   8.175  42.593   4.189
14560W        W81343  10.825  41.066  12.497
14561W        W81344   0.531  29.375   0.493
14562W        W81345   8.889  23.159   3.050
14563W        W81346  42.578  11.104   0.749
14564W        W81347  36.525  13.590   1.657
14565W        W81348  34.787  35.477  14.435
14566W        W81349   9.287  21.493   3.738
14567W        W81350  11.147  38.870   0.831
14568W        W81351  19.235  23.103   0.453
14569W        W81352  22.239  41.448   4.097
14570W        W81353  41.263  18.810   3.033
14571W        W81354  44.682  39.412   2.657
14572W        W81355  43.426   2.330  14.989
14573W        W81356  27.000  20.790   1.326
14574W        W81357  25.138  39.072   2.190
14575W        W81358  11.497  27.686  13.037
14576W        W81359  22.517  23.264  14.367
14577W        W81360  10.543  41.832  12.018
14578W        W81361  34.557   7.911  14.787
14579W        W81362  24.161  34.733   1.249
14580W        W81363   4.162  39.984  13.069
14581W        W81364  33.472  38.103   2.329
14582W        W81365   3.835  34.529  12.080
14583W        W81366  40.478  32.797   1.297
14584W        W81367   7.885  16.060   1.335
14585W        W81368   5.236  20.891  12.025
14586W        W81369  40.810   1.442  13.547
14587W        W81370  22.685  20.032   3.172
14588W        W81371  26.896  10.040  10.208
14589W        W81372  21.040  44.025  11.657
14590W        W81373  16.412   5.040  12.227
14591W        W81374  22.297  15.186  13.485
14592W        W81375  22.491  14.200  10.276
14593W        W81376  25.460  24.437   2.170
14594W        W81377  16.432  35.134  11.148
14595W        W81378  39.247  33.948  10.489
14596W        W81379   7.757  23.490   0.789
14597W        W81380   3.248  16.271   2.784
14598W        W81381  39.983   2.347   3.257
14599W        W81382  22.397  44.298   4.801
14600W        W81383  16.630  32.585   3.272
14601W        W81384  34.715  43.004   0.719
14602W        W81385   4.436  28.892   2.744
14603W        W81386  33.371  41.529   1.752
14604W        W81387   8.211  42.406   3.714
14605W        W81388  13.652  22.704   3.268
14606W        W81389  26.115  11.567   1.613
14607W        W81390  39.781  27.972   4.765
14608W        W81391  12.037  26.495  13.925
14609W        W81392  11.257  10.893   3.888
14610W        W81393   2.971  11.702  12.444
14611W        W81394  39.689  27.610   2.758
14612W        W81395   6.592   8.921  12.627
14613W        W81396  37.849  43.213  11.892
14614W        W81397  24.668   8.779  10.235
14615W        W81398   3.583  28.813   4.818
14616W        W81399  12.298  20.899   1.977
14617W        W81400  16.475   1.838   3.851
14618W        W81401   8.514   2.701  11.998
14619W        W81402  26.070  13.998   0.539
14620W        W81403  30.733  31.159   4.808
14621W        W81404  12.477  44.375  13.654
14622W        W81405   9.794  13.589   1.342
14623W        W81406   2.749  28.655   4.111
14624W        W81407  22.258   0.202   1.842
14625W        W81408  44.798  36.351   1.896
14626W        W81409  37.797   9.380   3.015
14627W        W81410   3.130  14.622  13.398
14628W        W81411  20.257  18.769   0.790
14629W        W81412  14.835  21.207   2.602
14630W        W81413  40.920  24.940  11.399
14631W        W81414  32.227  38.408  12.154
14632W        W81415  13.781  40.580  11.218
14633W        W81416  44.269  16.448   0.915
14634W        W81417  40.279   0.972  11.113
14635W        W81418  32.980   5.150   0.747
14636W        W81419  23.579  26.305  11.550
14637W        W81420  22.403   2.758  11.763
14638W        W81421  39.018  25.213   4.686
14639W        W81422  22.313  38.910  10.591
14640W        W81423   4.883  27.731   1.839
14641W        W81424  32.671  34.233   2.263
14642W        W81425  27.105  43.882  13.798
14643W        W81426  10.108  37.849  14.013
14644W        W81427   0.333  14.135  10.273
14645W        W81428  30.741  20.244   4.966
14646W        W81429  20.074  11.101  14.484
14647W        W81430  14.121  37.491   3.825
14648W        W81431  41.184  40.289   1.973
14649W        W81432  16.213  44.090   1.844
14650W        W81433   6.572  12.280  12.401
14651W        W81434  38.607  29.626  11.566
14652W        W81435  14.025  12.579  14.977
14653W        W81436  13.493  38.580  10.501
14654W        W81437  24.636  28.931  14.257
14655W        W81438  19.129  43.981   0.806
14656W        W81439  15.853  41.114  10.596
14657W        W81440  17.699  40.019  10.403
14658W        W81441  25.123  34.195  12.844
14659W        W81442   6.349  43.528  11.990
14660W        W81443  26.422  21.764   0.644
14661W        W81444   5.185  21.029  11.143
14662W        W81445  13.634   1.050   0.332
14663W        W81446  25.992  31.536  14.993
14664W        W81447   0.704  25.640  10.847
14665W        W81448  11.206   0.588   3.648
14666W        W81449  27.658  10.387   4.546
14667W        W81450  14.757  25.651   2.135
14668W        W81451  15.715  21.612   2.310
14669W        W81452  38.891  16.592  10.551
14670W        W81453  32.328  40.520  12.443
14671W        W81454  12.815  29.855   3.177
14672W        W81455  37.121   7.407  11.872
14673W        W81456  10.446  10.817  14.012
14674W        W81457  34.095  33.606   1.695
14675W        W81458  27.639   4.718  11.002
14676W        W81459   9.284  28.596   2.370
14677W        W81460  37.660  19.964   2.160
14678W        W81461  32.552  30.953  11.952
14679W        W81462   0.186  22.406   2.775
14680W        W81463  44.551  41.449  11.031
14681W        W81464  41.128   4.168   2.756
14682W        W81465   1.302  37.069   4.046
14683W        W81466  35.065  38.305   3.754
14684W        W81467   5.298  20.545   2.734
14685W        W81468   9.201  33.153  12.479
14686W        W81469  34.004  32.352   3.277
14687W        W81470  14.118  21.123   3.817
14688W        W81471   2.936  39.497  12.032
14689W        W81472  20.557  21.245  13.086
14690W        W81473  44.647  38.780   3.768
14691W        W81474  26.561  17.284   1.430
14692W        W81475  15.853  37.659  11.232
14693W        W81476  28.479  26.077   2.798
14694W        W81477  22.600   1.346   1.935
14695W        W81478  44.731  31.072   0.359
14696W        W81479  25.644  39.576   2.642
14697W        W81480  21.400  33.039  14.457
14698W        W81481  25.631   7.707  11.659
14699W        W81482  13.377  17.710   4.433
14700W        W81483  33.870  18.785  12.507
14701W        W81484   3.277  10.627   3.458
14702W        W81485  36.147  39.753  11.266
14703W        W81486  26.403  34.931  12.299
14704W        W81487  13.579  27.330  13.994
14705W        W81488  37.122   3.434  14.758
14706W        W81489  40.859  12.520  10.260
14707W        W81490  22.216   1.800  12.774
14708W        W81491  20.836   4.235   2.758
14709W        W81492  31.069  28.759  12.963
14710W        W81493  12.611   5.572  13.861
14711W        W81494   9.725  37.340   1.356
14712W        W81495   2.760  19.564   4.199
14713W        W81496  20.585  14.100   4.999
14714W        W81497   2.271  40.064  13.856
14715W        W81498  16.232  28.880  13.775
14716W        W81499  10.523   1.939   1.936
14717W        W81500  43.090  24.030   0.358
14718W        W81501   4.634  23.497   3.613
14719W        W81502  24.160   1.088  13.093
14720W        W81503  10.215   1.896  12.682
14721W        W81504  44.232  32.698   2.985
14722W        W81505  40.290   3.276  12.960
14723W        W81506  28.985  16.997   0.341
14724W        W81507   5.918  38.526  13.818
14725W        W81508   9.854  10.791   4.532
14726W        W81509  22.774  39.468   2.698
14727W        W81510  10.029  20.160   2.244
14728W        W81511   7.400  34.676   0.266
14729W        W81512  13.874  15.744  11.694
14730W        W81513  19.258   2.708  12.642
14731W        W81514  29.005  20.663  11.454
14732W        W81515  20.715  28.390   1.678
14733W        W81516  17.542  44.724   4.065
14734W        W81517  36.939  34.248   3.908
14735W        W81518  26.512  43.183   0.941
14736W        W81519  18.238  24.134   0.103
14737W        W81520  36.568   1.266   4.167
14738W        W81521  35.474  42.219  11.442
14739W        W81522  34.450  33.895   3.384
14740W        W81523  19.585  26.011   4.167
14741W        W81524  12.578  22.474   4.419
14742W        W81525  14.732  12.141   1.235
14743W        W81526  36.013  25.718  14.897
14744W        W81527  24.884  23.692   4.131
14745W        W81528   4.867  31.260   0.461
14746W        W81529   9.307   6.263  12.497
14747W        W81530  26.946  21.716   0.699
14748W        W81531  41.327  31.879  13.984
14749W        W81532  37.137  37.065   1.709
14750W        W81533  12.830  15.579  11.553
14751W        W81534  17.719  40.926  13.486
14752W        W81535  13.552   0.577   2.782
14753W        W81536  21.520  43.313  14.939
14754W        W81537  18.644  10.175  14.361
14755W        W81538   1.649  41.700  12.370
14756W        W81539  10.174  23.530   4.180
14757W        W81540  34.052   9.860  12.050
14758W        W81541  42.035  29.620   4.179
14759W        W81542  16.122  14.165   1.955
14760W        W81543  14.719  23.621  13.737
14761W        W81544  19.671  41.470   3.690
14762W        W81545  10.400  22.544  12.987
14763W        W81546   1.715  22.172   3.945
14764W        W81547  36.993  19.663  12.367
14765W        W81548  24.274  18.331   4.774
14766W        W81549  14.075  26.810   0.929
14767W        W81550  27.061  44.016   1.193
14768W        W81551  21.544  24.729   5.405
14769W        W81552  11.151  41.330  10.914
14770W        W81553  35.151  15.084  11.009
14771W        W81554  32.891  21.042  14.375
14772W        W81555  44.330   3.389  13.913
14773W        W81556  42.509  29.123   0.381
14774W        W81557   5.110  40.406   4.117
14775W        W81558   9.722  36.066   0.706
14776W        W81559   2.350  18.818  14.383
14777W        W81560  16.240  14.454  13.413
14778W        W81561  27.668   5.541   2.352
14779W        W81562  16.090  34.736  11.128
14780W        W81563  30.982  10.150   0.728
14781W        W81564  27.754  15.527   4.626
14782W        W81565  41.565  27.818   2.867
14783W        W81566   0.484  38.412  12.877
14784W        W81567  31.863  36.013  14.330
14785W        W81568  21.742   8.189  11.047
14786W        W81569  18.635  33.152  13.793
14787W        W81570  41.947   7.630  13.356
14788W        W81571  30.495   1.695  10.735
14789W        W81572   9.988  10.819   1.641
14790W        W81573  28.908  30.216   1.869
14791W        W81574   7.329  33.630  14.048
14792W        W81575  42.568   3.953   2.750
14793W        W81576   5.861  33.128   1.590
14794W        W81577  39.949   8.453  10.483
14795W        W81578  35.752   3.203   2.510
14796W        W81579  25.570   8.254  10.957
14797W        W81580  36.972   0.325   0.823
14798W        W81581  27.083  28.631   4.926
14799W        W81582  42.900  13.900   3.064
14800W        W81583   6.223  33.934  10.627
14801W        W81584   1.236  12.900   3.643
14802W        W81585  10.691  33.155   2.143
14803W        W81586  41.415  18.693   4.960
14804W        W81587  42.954   4.216   4.908
14805W        W81588  42.524   2.902  13.521
14806W        W81589  12.447  28.142  10.937
14807W        W81590  10.642  38.102   1.822
14808W        W81591   7.957  15.584  11.651
14809W        W81592   3.442  25.286   1.760
14810W        W81593  42.831   2.199   0.650
14811W        W81594  38.575  33.768  12.508
14812W        W81595   5.243   6.657  10.624
14813W        W81596  34.298  13.185   2.494
14814W        W81597  41.238   1.723   4.192
14815W        W81598  19.180  18.018  12.886
14816W        W81599   5.901  31.382   0.937
14817W        W81600  36.443   2.686  14.198
14818W        W81601   3.736  20.560  14.802
14819W        W81602   7.128  18.224   1.743
14820W        W81603  39.820  17.092  14.841
14821W        W81604  21.145  13.907  12.577
14822W        W81605   5.130  23.991  12.137
14823W        W81606   2.242   6.729  10.459
14824W        W81607  10.698   9.338   4.101
14825W        W81608   1.378  16.101   4.650
14826W        W81609   6.449  16.729  11.840
14827W        W81610   9.684  35.095   0.462
14828W        W81611  37.341  38.800   0.419
14829W        W81612  13.141   8.771  11.197
14830W        W81613  37.296  39.915   0.774
14831W        W81614   5.425  25.988  14.398
14832W        W81615  33.153   6.148   2.255
14833W        W81616  36.588  23.067  10.227
14834W        W81617   0.446   4.520   4.637
14835W        W81618   3.433  26.057   3.935
14836W        W81619  26.415  44.877   1.363
14837W        W81620  10.131  12.806  14.724
14838W        W81621  10.628  28.455   2.664
14839W        W81622  11.660  26.110   4.605
14840W        W81623   9.555  14.816   1.967
14841W        W81624  23.220  15.037   1.334
14842W        W81625  37.106   0.760   4.324
14843W        W81626  18.279  16.371  14.856
14844W        W81627   2.606  42.864  10.037
14845W        W81628  24.358   6.474  13.234
14846W        W81629   5.795  28.666  11.160
14847W        W81630   4.678  43.079  11.925
14848W        W81631  23.636   5.873   5.019
14849W        W81632  21.042  35.541  13.962
14850W        W81633  13.200  44.279  13.477
14851W        W81634  12.637   5.129   1.199
14852W        W81635  39.978   9.644   4.687
14853W        W81636  34.303  35.581   0.375
14854W        W81637  17.084  37.425   3.741
14855W        W81638  15.377   2.760   1.954
14856W        W81639  43.354   2.177   0.477
14857W        W81640   6.098   6.232  14.109
14858W        W81641   5.970  36.970  10.430
14859W        W81642  18.736  30.648   3.155
14860W        W81643  11.066   9.089  12.747
14861W        W81644   1.989  15.826  10.715
14862W        W81645  12.395  43.528  13.037
14863W        W81646   6.659  36.842  12.082
14864W        W81647  19.046  33.351  11.162
14865W        W81648  36.534  31.530   4.384
14866W        W81649  17.588  41.226  13.913
14867W        W81650  27.714  29.621   4.818
14868W        W81651  43.006  21.934   2.767
14869W        W81652  27.347  22.688   4.765
14870W        W81653   0.654   6.895   4.216
14871W        W81654  23.644   5.502  11.257
14872W        W81655  29.500   2.017  11.171
14873W        W81656   2.370  32.530   2.501
14874W        W81657  37.508  18.333   3.643
14875W        W81658  36.042  19.058   4.056
14876W        W81659   0.895   1.299   1.851
14877W        W81660   3.494   0.064   2.264
14878W        W81661  15.885  33.515  12.020
14879W        W81662  27.447   5.391   4.325
14880W        W81663   9.438  37.636   3.689
14881W        W81664  36.917   5.788  12.874
14882W        W81665   4.892  10.844  14.934
14883W        W81666  36.651  16.672  14.657
14884W        W81667  17.332  22.517   2.313
14885W        W81668  13.686  40.136   4.371
14886W        W81669   8.917  32.066  14.912
14887W        W81670   3.491  37.121   1.406
14888W        W81671   2.448   6.407  14.829
14889W        W81672  22.634  31.116   0.791
14890W        W81673  13.109   9.439  11.982
14891W        W81674  18.833  16.633   1.148
14892W        W81675  19.013  28.672   1.885
14893W        W81676  44.193  32.817   2.146
14894W        W81677   4.334  11.274   2.379
14895W        W81678  32.293  20.521  14.890
14896W        W81679   4.356  23.201   1.719
14897W        W81680  25.679  35.401  12.485
14898W        W81681   0.763  19.713  14.969
14899W        W81682   7.686  16.835  14.393
14900W        W81683  36.179  31.015  12.856
14901W        W81684  19.006  16.822   3.186
14902W        W81685   6.721  16.761   2.248
14903W        W81686  30.016  36.191  14.243
14904W        W81687  21.371   0.006  11.549
14905W        W81688  27.478  32.107   1.379
14906W        W81689   1.884  15.501   3.214
14907W        W81690  17.909  25.418  11.464
14908W        W81691  15.489   4.268   0.021
14909W        W81692   8.658  38.734  13.796
14910W        W81693  31.020  33.830  13.379
14911W        W81694  41.015  22.491  14.869
14912W        W81695  36.300  18.236  13.047
14913W        W81696  30.377   3.958   0.463
14914W        W81697  42.188  17.112  14.409
14915W        W81698  44.987  11.860   1.026
14916W        W81699  42.010  16.245   5.432
14917W        W81700  21.656   5.722  13.273
14918W        W81701   3.641   5.028  13.380
14919W        W81702  22.824  37.349  14.349
14920W        W81703  23.832  36.138  13.263
14921W        W81704  41.941   1.704   4.111
14922W        W81705  13.567  42.025  13.859
14923W        W81706  30.873  34.610  14.031
14924W        W81707  19.034  16.042   2.822
14925W        W81708  22.592   3.768   2.902
14926W        W81709   9.292  31.917   4.197
14927W        W81710  30.084  16.247  11.872
14928W        W81711  36.799  18.576  11.877
14929W        W81712   0.152  18.231   4.683
14930W        W81713   4.906  28.517  14.940
14931W        W81714  40.987  13.658  14.987
14932W        W81715  22.699  36.301  11.241
14933W        W81716  32.580  19.199  11.183
14934W        W81717  33.822  20.347   3.716
14935W        W81718  10.584  11.376   1.907
14936W        W81719  25.529  16.306   0.959
14937W        W81720  15.949   1.029   4.660
14938W        W81721   9.820  28.995  10.849
14939W        W81722  21.471  36.382  11.645
14940W        W81723   4.213  36.006  13.267
14941W        W81724  38.439  17.770  10.261
14942W        W81725   6.201  42.159  12.779
14943W        W81726   0.300  35.564  10.638
14944W        W81727  42.236  26.126  13.516
14945W        W81728  13.743  15.751   2.800
14946W        W81729  23.717  32.376   2.743
14947W        W81730  38.541  38.088   3.326
14948W        W81731  21.231  41.309   4.165
14949W        W81732  27.258  44.892  11.208
14950W        W81733  22.966  35.022   4.079
14951W        W81734   9.125  14.515  13.799
14952W        W81735  38.812  12.361  14.170
14953W        W81736  44.411   7.305   1.770
14954W        W81737  24.655   5.892   3.673
14955W        W81738  34.604   2.513   4.879
14956W        W81739  15.376  28.963  11.561
14957W        W81740  35.673  36.492   3.664
14958W        W81741   4.333  14.984  12.949
14959W        W81742   6.715   6.364   3.243
14960W        W81743  36.583  22.771  11.497
14961W        W81744  41.386  28.434  11.629
14962W        W81745  11.677   1.770   2.171
14963W        W81746   8.910   8.526  14.656
14964W        W81747  13.743  30.620  12.447
14965W        W81748  26.237   7.262   3.774
14966W        W81749  19.565  25.606  13.124
14967W        W81750  13.195  15.077   4.720
14968W        W81751  32.644   8.188  13.357
14969W        W81752   7.703  10.731   3.376
14970W        W81753  21.302  30.063   0.324
14971W        W81754   6.069  26.574   1.258
14972W        W81755   3.370  26.726  11.332
14973W        W81756  24.979  18.802   2.251
14974W        W81757   6.516  41.554   3.564
14975W        W81758  35.443  27.123   3.715
14976W        W81759   5.360   6.874   3.625
14977W        W81760   3.291   9.818  14.004
14978W        W81761  10.311  38.511   2.844
14979W        W81762   9.725  11.077   0.835
14980W        W81763  10.791  29.698   1.678
14981W        W81764   5.749   9.863  14.037
14982W        W81765  38.018  44.426   4.748
14983W        W81766  29.001  15.700  14.031
14984W        W81767  25.048  40.299   1.341
14985W        W81768  12.309  22.059  11.701
14986W        W81769  33.337  33.145  10.542
14987W        W81770  23.130  17.829  13.899
14988W        W81771  29.312  41.435   3.519
14989W        W81772  17.106  23.855  12.126
14990W        W81773  39.878  14.157   1.520
14991W        W81774  39.811   2.972  13.085
14992W        W81775  11.934  34.932   2.234
14993W        W81776  32.986  31.100   3.789
14994W        W81777  11.246  40.014   0.721
14995W        W81778  42.107  30.601  11.084
14996W        W81779  29.464   7.483   2.769
14997W        W81780   3.292  31.460  11.034
14998W        W81781  18.338  15.733  14.225
14999W        W81782  23.529   3.817  12.111
15000W        W81783  37.344  41.752  14.395
15001W        W81784  15.791   7.878   4.058
15002W        W81785  17.834  30.901  13.823
15003W        W81786  18.091  37.565   4.564
15004W        W81787  16.656  33.392  10.619
15005W        W81788  25.068   4.208  11.162
15006W        W81789  22.905  26.990  11.234
15007W        W81790  38.485  41.045  11.577
15008W        W81791   7.775   2.395   3.258
15009W        W81792  29.925  17.631  11.047
15010W        W81793   5.370  27.526  13.623
15011W        W81794  41.352  21.011  13.081
15012W        W81795  41.864  31.524  14.143
15013W        W81796  15.500  11.015   1.799
15014W        W81797  20.527  34.850  10.712
15015W        W81798  14.104  36.373  14.319
15016W        W81799  16.083  18.314   0.694
15017W        W81800  34.322  35.520   4.544
15018W        W81801  29.948   3.894   3.053
15019W        W81802  34.004   1.218   4.674
15020W        W81803   8.290  25.598   3.815
15021W        W81804  22.324  38.911   2.247
15022W        W81805  37.438  24.677  14.947
15023W        W81806  34.332  13.206   1.400
15024W        W81807  42.294  17.280   3.368
15025W        W81808   5.520  22.584   2.713
15026W        W81809  35.863   0.947   3.681
15027W        W81810  31.615   0.800   0.519
15028W        W81811   1.961  12.721  14.822
15029W        W81812  32.163  29.051   0.324
15030W        W81813  24.037  20.451  11.491
15031W        W81814  16.327   0.706  11.078
15032W        W81815  21.141   2.159  14.153
15033W        W81816   1.145  27.570   1.272
15034W        W81817  44.329   8.876  11.852
15035W        W81818  31.022  29.631  13.523
15036W        W81819  14.135  16.142   2.845
15037W        W81820  38.622  44.749  10.399
15038W        W81821  41.957  29.244  11.618
15039W        W81822  37.000  36.894  10.728
15040W        W81823  39.472   8.407  11.581
15041W        W81824  29.389  33.797   3.881
15042W        W81825  23.664   6.438  11.537
15043W        W81826  32.172   0.679  11.127
15044W        W81827  22.141  15.408   1.658
15045W        W81828  42.961  44.881  12.154
15046W        W81829  21.687  21.598  11.721
15047W        W81830  24.617  37.872  13.879
15048W        W81831  32.096  34.270   2.868
15049W        W81832  32.874  18.316   1.413
15050W        W81833   3.188   6.860  12.555
15051W        W81834   9.665  17.091   1.195
15052W        W81835  35.981   7.960   0.911
15053W        W81836  31.734  28.497  13.435
15054W        W81837  28.847  39.347   1.618
15055W        W81838   2.677  23.148  11.681
15056W        W81839  36.938  39.071   0.247
15057W        W81840  44.024  21.145   3.069
15058W        W81841  19.955  21.208  14.694
15059W        W81842  19.678  11.527  11.976
15060W        W81843  16.191  14.660  12.486
15061W        W81844  32.525  22.957  14.845
15062W        W81845   3.822  10.721  14.535
15063W        W81846  12.669  16.319  12.039
15064W        W81847   2.512  33.870   2.221
15065W        W81848  43.897  27.044  11.548
15066W        W81849  37.418  16.797   0.085
15067W        W81850  35.138   6.041  11.133
15068W        W81851  19.570  27.025  13.913
15069W        W81852  32.674  15.716  10.623
15070W        W81853  42.703  15.021   4.926
15071W        W81854  14.671   0.663   3.579
15072W        W81855  21.328  23.187  10.972
15073W        W81856  16.806  32.081   1.356
15074W        W81857   9.260   5.872  14.390
15075W        W81858   6.254   2.268   2.518
15076W        W81859  15.603  27.974  12.284
15077W        W81860  18.330  19.225   1.104
15078W        W81861   3.708  44.323  10.795
15079W        W81862  13.829  33.903  14.973
15080W        W81863  40.117  25.156   1.599
15081W        W81864  30.898  26.160   4.125
15082W        W81865   3.088  41.968   0.309
15083W        W81866  15.722   6.453  11.006
15084W        W81867   3.286   7.620  14.375
15085W        W81868  41.632  27.968  12.471
15086W        W81869  43.550  16.194  13.809
15087W        W81870  25.534  32.456   0.269
15088W        W81871   2.352  21.367   2.228
15089W        W81872  13.228  21.242   3.642
15090W        W81873  28.918   9.351  12.851
15091W        W81874   8.980  28.645   4.074
15092W        W81875   2.869  28.971  13.082
15093W        W81876  22.835  24.115   2.155
15094W        W81877  23.644  38.054   2.461
15095W        W81878   4.769  27.352   0.486
15096W        W81879  40.028  37.458   2.783
15097W        W81880  20.938  16.267  12.778
15098W        W81881  13.299  34.721  13.559
15099W        W81882  13.773   1.707  12.214
15100W        W81883  33.863   8.924   3.693
15101W        W81884   4.331  42.111  10.729
15102W        W81885  39.874   6.206  11.719
15103W        W81886  36.134   9.696   0.686
15104W        W81887  13.096   0.140   3.894
15105W        W81888   4.995  25.262  14.118
15106W        W81889  39.961  20.788  13.129
15107W        W81890  14.808   8.839  11.913
15108W        W81891   5.159  34.451   1.376
15109W        W81892  25.484  21.563   4.226
15110W        W81893   1.487   6.250   3.371
15111W        W81894  26.840  17.104   4.108
15112W        W81895  34.661  17.334  11.120
15113W        W81896  13.415   4.739   4.992
15114W        W81897  11.947  17.470  12.469
15115W        W81898   8.989   2.147   3.088
15116W        W81899   3.249   5.266  11.002
15117W        W81900  31.094  12.002  11.927
15118W        W81901  32.436   8.177   4.888
15119W        W81902  12.917  28.150  11.145
15120W        W81903  27.814  15.537   1.753
15121W        W81904  27.236   7.316   3.804
15122W        W81905   0.962  29.498   4.169
15123W        W81906  10.178  13.001  12.415
15124W        W81907   2.932  21.304   2.937
15125W        W81908  26.297   6.136   3.060
15126W        W81909  10.137  41.302  13.205
15127W        W81910  27.907  28.630  10.971
15128W        W81911  38.331  29.092   1.197
15129W        W81912  42.492  13.166   1.748
15130W        W81913  27.417  12.738   3.126
15131W        W81914  31.797  39.487  12.019
15132W        W81915  44.079  23.253   2.827
15133W        W81916  14.680   4.852   3.119
15134W        W81917  42.266  10.897   1.543
15135W        W81918   0.314  31.533  12.820
15136W        W81919  17.722  15.276  14.095
15137W        W81920  28.652  21.436  13.124
15138W        W81921  38.775  29.311  11.081
15139W        W81922  35.481   4.427   0.017
15140W        W81923  32.086  18.560  12.164
15141W        W81924   9.383  35.008   2.719
15142W        W81925  37.325   4.416   1.241
15143W        W81926  19.642  22.724  13.842
15144W        W81927   1.489  41.563   4.704
15145W        W81928   9.117   2.873   0.895
15146W        W81929  29.140  39.081  14.908
15147W        W81930   4.738  12.149  12.648
15148W        W81931  34.117  42.246  11.925
15149W        W81932  33.595  32.849  10.125
15150W        W81933  18.804  24.224   0.844
15151W        W81934  16.662  17.082  12.088
15152W        W81935  18.720  24.214   0.319
15153W        W81936   1.631   5.444  12.059
15154W        W81937  11.833   9.368   4.532
15155W        W81938  28.222  22.925  13.058
15156W        W81939  30.699  23.268   4.304
15157W        W81940  44.570  35.128  14.787
15158W        W81941  17.645  39.929   0.428
15159W        W81942  25.488  18.960  11.612
15160W        W81943   9.544   0.829   2.392
15161W        W81944  15.547  41.359   4.201
15162W        W81945  15.027  21.741   1.773
15163W        W81946  29.995  36.348  11.581
15164W        W81947  17.726   6.947  10.726
15165W        W81948  22.966  11.320  14.616
15166W        W81949  14.476  12.318   2.538
15167W        W81950  28.670   9.716   4.385
15168W        W81951   4.837  44.885  14.515
15169W        W81952  17.189   8.450   3.653
15170W        W81953  44.738  10.403  13.573
15171W        W81954  32.435  36.255  10.825
15172W        W81955  12.302  35.375  14.085
15173W        W81956  38.202  41.336  11.228
15174W        W81957  28.165  25.482  14.828
15175W        W81958  26.974  13.616   0.862
15176W        W81959   9.072  27.848  10.990
15177W        W81960  28.718  33.341  12.620
15178W        W81961  38.028   6.451  11.183
15179W        W81962   7.620   6.489   4.296
15180W        W81963  27.179   3.648   3.721
15181W        W81964  44.003  23.501   1.351
15182W        W81965  27.923   4.948  12.520
15183W        W81966  32.607  41.378   3.404
15184W        W81967  24.026   0.345  10.438
15185W        W81968  23.004  33.638   3.983
15186W        W81969   1.273  27.554   0.782
15187W        W81970  27.590  18.096  10.462
15188W        W81971   7.947   9.501   0.517
15189W        W81972  36.534   6.866  11.877
15190W        W81973  13.611  23.507  14.507
15191W        W81974  14.520  21.062   2.221
15192W        W81975  26.070  19.125   4.507
15193W        W81976  35.060  30.596   4.144
15194W        W81977  21.664  24.379  14.737
15195W        W81978  41.054  35.610   4.197
15196W        W81979  25.710  22.699  12.890
15197W        W81980  27.106  16.608  14.445
15198W        W81981  13.575  32.368   1.676
15199W        W81982  41.593  40.887   3.251
15200W        W81983  28.200  17.342  12.613
15201W        W81984  42.997   3.366  11.204
15202W        W81985  43.867  32.981   4.062
15203W        W81986  27.925  29.958  13.534
15204W        W81987  24.578  18.755   3.680
15205W        W81988  36.333  32.862  12.060
15206W        W81989  22.357  16.480   2.760
15207W        W81990   0.723  28.224   3.689
15208W        W81991  14.371  29.521   0.276
15209W        W81992   1.198  36.695  11.663
15210W        W81993  30.459  41.310   4.576
15211W        W81994   6.601   5.036  14.369
15212W        W81995   9.121  32.090  12.495
15213W        W81996  27.535   8.173  14.402
15214W        W81997   9.018  39.903  11.983
15215W        W81998  24.912  44.403  11.146
15216W        W81999   1.464  43.353  13.101
15217W        W82000  13.750  10.693  13.777
15218W        W82001  35.344  16.695  11.231
15219W        W82002  20.547  31.488   1.245
15220W        W82003   0.646  32.605   0.960
15221W        W82004  11.659  44.226  11.482
15222W        W82005   7.855  26.292  13.094
15223W        W82006  24.504  13.556  12.554
15224W        W82007   8.980  18.760  13.156
15225W        W82008  24.759  11.101  13.870
15226W        W82009   4.651   7.177   2.509
15227W        W82010   8.327  42.890  14.635
15228W        W82011   6.629  18.430  11.163
15229W        W82012   0.736  33.811  12.852
15230W        W82013  31.368  17.602   3.285
15231W        W82014  30.067  27.628   2.412
15232W        W82015  18.790  30.482  10.672
15233W        W82016  11.838  10.954  14.393
15234W        W82017  16.753   2.811  14.611
15235W        W82018  38.768  34.492   0.789
15236W        W82019  15.826  17.764   1.739
15237W        W82020  14.900  22.151   2.664
15238W        W82021  27.719  43.556  12.616
15239W        W82022  12.240   5.641  12.117
15240W        W82023  38.517  40.751   3.734
15241W        W82024  12.632  24.226   1.140
15242W        W82025  43.408   1.858  13.707
15243W        W82026   0.742  16.270   2.978
15244W        W82027  27.144  14.625  11.953
15245W        W82028   2.758  22.687   4.718
15246W        W82029  23.633  41.879   4.037
15247W        W82030  29.470   8.684  14.950
15248W        W82031  22.019   5.136  12.546
15249W        W82032   3.298  39.790  14.348
15250W        W82033  42.885   3.721  13.123
15251W        W82034  33.090  24.734  12.957
15252W        W82035  24.573  12.471  14.321
15253W        W82036   6.358  39.485   3.640
15254W        W82037  35.806  34.167   4.151
15255W        W82038   1.729  20.141  12.641
15256W        W82039  25.439  17.725  12.611
15257W        W82040  25.721   7.736  14.393
15258W        W82041  34.633  34.584   3.683
15259W        W82042   4.396  39.398  10.927
15260W        W82043  13.607  25.559  12.402
15261W        W82044   8.776  41.396  13.031
15262W        W82045  34.668   0.407   0.789
15263W        W82046  11.847   4.466  11.237
15264W        W82047  20.194   8.722   0.649
15265W        W82048  23.237   9.367   3.342
15266W        W82049  32.895  30.971   4.273
15267W        W82050  17.635  31.514   2.897
15268W        W82051  31.924   5.598  11.023
15269W        W82052   5.164   5.741  12.390
15270W        W82053  15.352  42.996   1.588
15271W        W82054  39.452  44.734  14.773
15272W        W82055  24.034  20.297  14.292
15273W        W82056  33.474   7.351   1.740
15274W        W82057  22.596  40.956   2.310
15275W        W82058  13.785  31.064  12.208
15276W        W82059  23.635   8.912   2.948
15277W        W82060   4.272  43.745  13.941
15278W        W82061  41.753   5.907  11.126
15279W        W82062  15.914  26.708   3.150
15280W        W82063  25.698  43.789   3.602
15281W        W82064  36.222   9.864  11.653
15282W        W82065  35.061  17.715  11.041
15283W        W82066  26.113  10.773  14.062
15284W        W82067  31.305   8.799   1.071
15285W        W82068  31.648  13.564  14.795
15286W        W82069  13.128  20.112  13.724
15287W        W82070  26.982  20.045  12.871
15288W        W82071  34.655  10.697   2.883
15289W        W82072  18.555   0.772  10.655
15290W        W82073  29.588  32.766   1.774
15291W        W82074  23.029  35.156  14.458
15292W        W82075  27.106  40.917   0.640
15293W        W82076  36.414   0.337   2.723
15294W        W82077  26.611  21.483   2.363
15295W        W82078  25.451  26.788  14.286
15296W        W82079  18.101   5.104  13.956
15297W        W82080  24.682  27.107  14.268
15298W        W82081  28.672   0.160   4.037
15299W        W82082  37.695  19.932   3.194
15300W        W82083  34.507  39.206   4.121
15301W        W82084  27.096  43.444   5.109
15302W        W82085  35.935  23.756  14.463
15303W        W82086   6.316  21.489  12.632
15304W        W82087  36.397  24.787  10.547
15305W        W82088   8.810  27.623   4.261
15306W        W82089  32.423  42.529  14.265
15307W        W82090  34.461  22.683  12.951
15308W        W82091  40.462  32.332   0.369
15309W        W82092  33.436  38.774   3.513
15310W        W82093  16.722  40.166   0.551
15311W        W82094  29.035  19.807  11.692
15312W        W82095   1.342   2.284   2.230
15313W        W82096  35.359   0.725  12.484
15314W        W82097  11.225   9.354  13.631
15315W        W82098  15.844  42.504  13.347
15316W        W82099  28.496  24.585   1.222
15317W        W82100  20.937  35.501  11.579
15318W        W82101   1.255  23.750   2.280
15319W        W82102  44.520  28.581   3.676
15320W        W82103  14.165  21.963  12.493
15321W        W82104   9.535  21.498  13.660
15322W        W82105  25.673  17.306  14.989
15323W        W82106  23.564  30.055  11.637
15324W        W82107   8.746  27.860  11.945
15325W        W82108  25.070  20.125   0.779
15326W        W82109   3.575  17.421   2.045
15327W        W82110  15.719   1.914   2.644
15328W        W82111  36.820   6.141   3.671
15329W        W82112  25.761  35.193  14.753
15330W        W82113  39.424  10.277  11.207
15331W        W82114  13.760  27.578   0.166
15332W        W82115   9.461  42.290   0.473
15333W        W82116  28.513  31.866  10.479
15334W        W82117  43.723  21.153  14.369
15335W        W82118   2.135  28.531   2.877
15336W        W82119  16.094   1.738  11.955
15337W        W82120  31.149  38.706   2.734
15338W        W82121   4.879  16.893   2.394
15339W        W82122  21.699  35.955  10.452
15340W        W82123  29.213  24.713   2.349
15341W        W82124  27.433  20.982   1.558
15342W        W82125  38.105  10.019   1.289
15343W        W82126  33.924  25.767  12.894
15344W        W82127  11.999   9.052   5.440
15345W        W82128  35.461   6.177  11.534
15346W        W82129   2.218  38.517   2.720
15347W        W82130   8.746  30.125  11.467
15348W        W82131  16.735   7.395   1.822
15349W        W82132  17.068   4.829   1.651
15350W        W82133  26.501  44.197   4.986
15351W        W82134   3.462  44.850  11.049
15352W        W82135  23.208  28.875   2.759
15353W        W82136  42.807  11.182   3.480
15354W        W82137  25.086   3.226   2.441
15355W        W82138  23.563  29.689   3.644
15356W        W82139   0.711  32.242   0.390
15357W        W82140  15.057  36.942   2.836
15358W        W82141  14.739   7.982   4.229
15359W        W82142  41.919  40.485   1.057
15360W        W82143  12.774   5.139  13.569
15361W        W82144  33.340  34.134   1.608
15362W        W82145  14.844  26.500   0.019
15363W        W82146  32.242  34.325   1.857
15364W        W82147   8.580  26.128   2.254
15365W        W82148  42.523   0.965   1.397
15366W        W82149  18.544   6.731  11.566
15367W        W82150  20.319   3.411   2.775
15368W        W82151  20.129  24.238   4.158
15369W        W82152  10.144  32.652  11.981
15370W        W82153  29.452  27.047   0.566
15371W        W82154  27.692  34.085  13.079
15372W        W82155   9.341  16.936  12.912
15373W        W82156  16.104   3.885   2.012
15374W        W82157  35.248   7.216  14.806
15375W        W82158  11.214   2.487   4.795
15376W        W82159  17.977  13.365   2.786
15377W        W82160  43.368   7.466  13.430
15378W        W82161  34.867  35.564  12.116
15379W        W82162  16.054  12.822   4.177
15380W        W82163  34.406  25.488  13.097
15381W        W82164  37.970  33.284   3.012
15382W        W82165  23.509  28.911   2.255
15383W        W82166  20.653   9.914   1.126
15384W        W82167  17.551   4.032  11.526
15385W        W82168  38.593   9.924  13.496
15386W        W82169  30.354  11.662  13.037
15387W        W82170  17.251   7.527   1.827
15388W        W82171   1.715  39.046  13.573
15389W        W82172  14.173   2.426   5.133
15390W        W82173   5.812  43.131   0.745
15391W        W82174  17.295  18.483  11.980
15392W        W82175  19.634   6.694   0.037
15393W        W82176   6.727  32.354   0.354
15394W        W82177  30.236  20.292  10.617
15395W        W82178  28.591   6.713  14.430
15396W        W82179  36.802  42.271  11.335
15397W        W82180  42.507  43.309   3.207
15398W        W82181  14.550   8.775   1.613
15399W        W82182  44.810  17.718   2.834
15400W        W82183  22.741  13.681   4.542
15401W        W82184   4.985   6.978   4.180
15402W        W82185  22.163  20.960  13.031
15403W        W82186  17.661  19.768  13.575
15404W        W82187  24.724  19.181  14.596
15405W        W82188   7.317  22.764   0.974
15406W        W82189  29.594   4.160   0.951
15407W        W82190  23.660  15.983   3.638
15408W        W82191  41.362  12.063   3.653
15409W        W82192  15.248  14.717   4.671
15410W        W82193  20.035   2.499   9.802
15411W        W82194  26.693  30.165   1.582
15412W        W82195  12.730  34.285  11.628
15413W        W82196  22.090  21.013   4.405
15414W        W82197  15.078   0.389   1.978
15415W        W82198  38.836  26.134   2.684
15416W        W82199  42.115  14.887   0.853
15417W        W82200  33.654  35.174   1.258
15418W        W82201   3.950  13.366   3.892
15419W        W82202  41.953  16.907  13.995
15420W        W82203  44.379  27.853   3.826
15421W        W82204  25.410  19.189  12.931
15422W        W82205  12.032  11.778   0.785
15423W        W82206   7.789   1.963   4.182
15424W        W82207  40.272  20.396   4.274
15425W        W82208  42.252  25.099  11.521
15426W        W82209  28.599  33.786  10.730
15427W        W82210  14.596  12.630   2.129
15428W        W82211  40.561  18.018   3.223
15429W        W82212  32.673  31.441   0.812
15430W        W82213  34.799   0.790  11.236
15431W        W82214   6.417  10.852  11.183
15432W        W82215  39.366  34.042  11.912
15433W        W82216  18.307  26.643  12.794
15434W        W82217   3.686  31.136  10.945
15435W        W82218   8.098  26.271   5.097
15436W        W82219  22.068  18.708   1.163
15437W        W82220  29.092   2.932  13.972
15438W        W82221  14.680  27.507   0.742
15439W        W82222  37.621   2.142  13.500
15440W        W82223   4.358   3.951   0.316
15441W        W82224  12.310  10.609  11.192
15442W        W82225   9.050  37.359   4.100
15443W        W82226  26.101  17.650   1.340
15444W        W82227   8.232   1.280   2.861
15445W        W82228   9.642   8.819  13.144
15446W        W82229  11.248  22.688  12.582
15447W        W82230   3.655  10.947  14.010
15448W        W82231  12.153  23.561   1.699
15449W        W82232  20.726  24.211  14.701
15450W        W82233  22.813  35.058  13.465
15451W        W82234  11.302  33.879   1.285
15452W        W82235  13.368   6.434  13.419
15453W        W82236  28.093  33.569  14.680
15454W        W82237   0.383  22.667  12.556
15455W        W82238  18.452  34.624  13.034
15456W        W82239  32.946   0.306  12.510
15457W        W82240   5.881   8.486  12.604
15458W        W82241  26.592  22.751  14.985
15459W        W82242  35.023  26.539   1.603
15460W        W82243  37.967   7.963   4.547
15461W        W82244   2.019  31.366  13.155
15462W        W82245  20.093  12.790  13.071
15463W        W82246  39.276  21.589  11.728
15464W        W82247  29.246  20.248  14.420
15465W        W82248  19.320   6.435  14.592
15466W        W82249   6.168  41.766  14.276
15467W        W82250  30.979  25.477   0.958
15468W        W82251  31.352  39.735  11.908
15469W        W82252  24.058  14.612  12.838
15470W        W82253   7.758  23.392   4.571
15471W        W82254  19.346  24.014  13.068
15472W        W82255  13.654  44.721  11.026
15473W        W82256   9.755   9.580  12.034
15474W        W82257  33.870  23.105   2.839
15475W        W82258  24.504   7.343   2.301
15476W        W82259  44.674  12.835   2.686
15477W        W82260   1.402   3.170  12.435
15478W        W82261   1.703  40.849   4.607
15479W        W82262   9.597  38.936  11.024
15480W        W82263  24.191   7.235  13.541
15481W        W82264  33.140  24.950   2.155
15482W        W82265   7.218  37.785   3.135
15483W        W82266  11.827  10.642  14.972
15484W        W82267  24.106   4.659  14.309
15485W        W82268  18.481   6.188  10.450
15486W        W82269  38.107  26.810   4.154
15487W        W82270  44.621   6.105   1.292
15488W        W82271  23.402   2.276  13.174
15489W        W82272  44.829  18.663   0.570
15490W        W82273  24.799  31.186   1.768
15491W        W82274  18.769   4.663  11.293
15492W        W82275  42.492  21.520   1.789
15493W        W82276  10.215  20.056  14.186
15494W        W82277  37.948  13.095   3.115
15495W        W82278  25.783  21.214  14.132
15496W        W82279  43.977  26.623  11.218
15497W        W82280  38.287  14.323   3.525
15498W        W82281  28.624  30.096  12.928
15499W        W82282  16.728   2.311   3.203
15500W        W82283   9.356  14.833  13.453
15501W        W82284   4.425   0.951  12.896
15502W        W82285  22.448   6.270  13.110
15503W        W82286  32.470  15.605   4.687
15504W        W82287  31.528   1.559   1.943
15505W        W82288   6.035  41.820   2.713
15506W        W82289  34.573  25.310  10.623
15507W        W82290  23.005  14.075  11.125
15508W        W82291  19.980  25.550   0.419
15509W        W82292  29.807  33.018  14.477
15510W        W82293   8.830   4.609  12.058
15511W        W82294  13.277  38.367   2.750
15512W        W82295  29.564  25.468  13.391
15513W        W82296  31.498  33.999  14.122
15514W        W82297  37.790  33.075   1.972
15515W        W82298  21.883  18.204   5.038
15516W        W82299   1.467  21.843  12.560
15517W        W82300   5.704  30.636  12.423
15518W        W82301   6.835  16.042   4.077
15519W        W82302  24.279  14.725   3.791
15520W        W82303  15.589  42.923   0.896
15521W        W82304   6.846  17.335  12.876
15522W        W82305  35.928  38.751  10.429
15523W        W82306  30.114   2.969   0.413
15524W        W82307  31.859   2.020  13.486
15525W        W82308   8.759   6.812  10.538
15526W        W82309  11.242  31.637  13.884
15527W        W82310  27.919  17.428  12.194
15528W        W82311  15.052  33.147  11.256
15529W        W82312  12.836  13.685   2.236
15530W        W82313  22.300  21.047   1.893
15531W        W82314  14.750  35.163  10.810
15532W        W82315   4.929  14.737  12.103
15533W        W82316  35.311   9.185  10.030
15534W        W82317  15.873   3.439   4.509
15535W        W82318   4.283   3.940   2.846
15536W        W82319  34.559  28.733   3.495
15537W        W82320  25.177  23.397   5.499
15538W        W82321  21.305  19.504   1.809
15539W        W82322  10.901  38.345   3.410
15540W        W82323  30.226   8.760  13.956
15541W        W82324   3.975  23.007  14.359
15542W        W82325  31.474  42.815  13.395
15543W        W82326   8.223  37.081  11.928
15544W        W82327   9.253  38.062  10.939
15545W        W82328  41.604   6.137   1.423
15546W        W82329   1.011  11.334   4.200
15547W        W82330  41.132   0.256   2.319
15548W        W82331   7.670   7.665   5.200
15549W        W82332  18.235   8.838  11.943
15550W        W82333  23.667  43.353  14.985
15551W        W82334  29.182   2.761   4.329
15552W        W82335   7.969   8.676   0.788
15553W        W82336   9.847   9.114  11.055
15554W        W82337  15.128  39.520   0.229
15555W        W82338   2.676  13.697   0.340
15556W        W82339  36.969   7.620  11.032
15557W        W82340  36.296  31.699   3.596
15558W        W82341  32.119  12.279   3.703
15559W        W82342   5.223  20.325   0.691
15560W        W82343   0.879   5.910  13.095
15561W        W82344  40.637  28.492   4.587
15562W        W82345   6.704  37.310   2.235
15563W        W82346   0.548   2.004   1.504
15564W        W82347  11.144  28.717  14.794
15565W        W82348  35.529  14.753   5.029
15566W        W82349  19.141  10.336  10.695
15567W        W82350  20.180  40.395  13.438
15568W        W82351  19.478  37.823  11.077
15569W        W82352  14.031  10.895  12.946
15570W        W82353  24.964  40.818  11.593
15571W        W82354  33.993  39.313  11.467
15572W        W82355   3.212  30.434   0.116
15573W        W82356  39.447  32.853  14.576
15574W        W82357  18.311  32.990  13.422
15575W        W82358  17.373  16.768   1.384
15576W        W82359  34.362   0.259   0.363
15577W        W82360  21.761   4.689   3.724
15578W        W82361  18.803  37.302   2.916
15579W        W82362  10.114  34.965  14.401
15580W        W82363  36.622  39.501  10.520
15581W        W82364  14.217  41.435  12.481
15582W        W82365  35.424  42.444   0.341
15583W        W82366  12.881  12.913   3.311
15584W        W82367  35.061  19.768  13.104
15585W        W82368  20.112   0.159  14.929
15586W        W82369  15.755  34.322  11.987
15587W        W82370  36.356   1.430  13.946
15588W        W82371  28.228  44.001   2.209
15589W        W82372  15.347  22.729   1.373
15590W        W82373  32.546  38.580   2.524
15591W        W82374  39.744  39.940  13.337
15592W        W82375  16.609  27.212  14.771
15593W        W82376  17.537   4.309  12.638
15594W        W82377   3.619   0.249   3.100
15595W        W82378  33.908  30.164  10.719
15596W        W82379  20.370  14.161   3.162
15597W        W82380  20.999  22.013  12.844
15598W        W82381  12.881  33.066   1.787
15599W        W82382  27.670  11.289   2.645
15600W        W82383  10.617   5.718  11.552
15601W        W82384  26.509  32.542   4.657
15602W        W82385   6.050  16.024  14.967
15603W        W82386  36.390  39.882   2.888
15604W        W82387  33.651  12.109  13.889
15605W        W82388   7.466  43.683  14.718
15606W        W82389  27.942  15.546  11.032
15607W        W82390  20.750   6.799   0.862
15608W        W82391  33.511  11.976   3.552
15609W        W82392  15.152   3.018   0.435
15610W        W82393  37.013  39.328   2.453
15611W        W82394  40.923  25.290  10.593
15612W        W82395  16.350  30.843   1.736
15613W        W82396  11.543  42.560  12.523
15614W        W82397   5.178  33.485   1.164
15615W        W82398   6.918  35.822   2.234
15616W        W82399  43.814   5.106   3.281
15617W        W82400   0.886   6.710   2.313
15618W        W82401  26.234  31.939  11.182
15619W        W82402  19.499  13.932  12.925
15620W        W82403  17.259  17.105  12.695
15621W        W82404  19.602  36.187   0.657
15622W        W82405  37.118  25.198   1.822
15623W        W82406  25.656  26.458  13.046
15624W        W82407   5.651  12.060   1.368
15625W        W82408  11.459  16.462  11.679
15626W        W82409  27.454   4.298   2.727
15627W        W82410   2.026  14.662  12.032
15628W        W82411  35.922  35.014   3.296
15629W        W82412  21.588  38.269  12.761
15630W        W82413  15.983  14.957  10.750
15631W        W82414   7.650   6.843   0.926
15632W        W82415  38.932  10.383  12.331
15633W        W82416  23.612  25.969  13.987
15634W        W82417  26.209   1.830   4.990
15635W        W82418   4.279  12.573  13.400
15636W        W82419  43.071   3.838   2.636
15637W        W82420  17.589  11.313   0.467
15638W        W82421  27.647   7.160   0.076
15639W        W82422   1.529  19.101   0.717
15640W        W82423  38.871  44.936   0.516
15641W        W82424  44.013   2.120   3.444
15642W        W82425  25.067  12.473   2.388
15643W        W82426  35.809  37.901  11.005
15644W        W82427  44.259  29.508   0.406
15645W        W82428  27.612  44.782   1.299
15646W        W82429  34.031   8.439  11.976
15647W        W82430  43.382  28.002   4.514
15648W        W82431  31.717  26.663  13.837
15649W        W82432  16.643  25.182   2.409
15650W        W82433  38.448   5.983  13.502
15651W        W82434  21.233  16.256   2.259
15652W        W82435  42.814  39.652   4.229
15653W        W82436  16.373  16.039  11.054
15654W        W82437  38.759  28.906   3.477
15655W        W82438  36.350  33.052   0.049
15656W        W82439  19.173  20.489   1.533
15657W        W82440  32.924   1.964   2.184
15658W        W82441   5.595  43.889  10.834
15659W        W82442  26.608  18.786  14.302
15660W        W82443  17.777  12.241   2.287
15661W        W82444  22.178  26.079  13.034
15662W        W82445  27.765  25.829  14.872
15663W        W82446  19.981  30.634   2.808
15664W        W82447   6.934   0.910  12.162
15665W        W82448  36.059  42.811   4.321
15666W        W82449  30.856   6.871  12.600
15667W        W82450  17.132   3.531  11.149
15668W        W82451  16.594  10.909  14.337
15669W        W82452  41.981  43.553  10.721
15670W        W82453   8.252  41.100  13.846
15671W        W82454  18.401   1.001  12.259
15672W        W82455  43.187  30.706   2.179
15673W        W82456  24.028  31.930   3.644
15674W        W82457  30.209  36.180  12.024
15675W        W82458   5.219   8.795   0.873
15676W        W82459  38.155   7.464  11.924
15677W        W82460  35.459  32.450  12.678
15678W        W82461  25.167  44.819  10.436
15679W        W82462  18.143  40.881   1.178
15680W        W82463  12.621  22.976   4.449
15681W        W82464  17.106  27.795   0.720
15682W        W82465  40.408  28.679  11.526
15683W        W82466  15.563  17.280  12.889
15684W        W82467  32.672  38.114   3.289
15685W        W82468  27.114  26.358   2.784
15686W        W82469  22.929   1.059   4.132
15687W        W82470  20.750  43.601  12.456
15688W        W82471  30.458  38.763   2.240
15689W        W82472  35.064   8.761   0.238
15690W        W82473   4.268  13.420  14.494
15691W        W82474  40.266  37.268  14.138
15692W        W82475   5.525  39.688   4.491
15693W        W82476  19.151  10.784   3.180
15694W        W82477   0.960   6.500  11.484
15695W        W82478  29.440   7.695  13.892
15696W        W82479   7.150  24.727   2.318
15697W        W82480  27.536  32.152  10.921
15698W        W82481  42.523  43.304   3.714
15699W        W82482  17.994  37.798   9.907
15700W        W82483  28.649   1.201   3.215
15701W        W82484  24.011  17.144  12.005
15702W        W82485   9.675  21.856   2.787
15703W        W82486  27.557  36.977   4.102
15704W        W82487  23.556  33.121   3.407
15705W        W82488  32.502   0.329  11.530
15706W        W82489  18.904  40.552   4.832
15707W        W82490  20.363  16.457   4.776
15708W        W82491  40.322  43.854  10.471
15709W        W82492   5.322  24.114   3.815
15710W        W82493  33.651  34.555   9.975
15711W        W82494  19.562   9.171   2.805
15712W        W82495  24.698   4.559  13.535
15713W        W82496  12.248  32.530   1.401
15714W        W82497  32.905   6.814   1.470
15715W        W82498  21.543  25.712   1.913
15716W        W82499  34.249  44.702  13.097
15717W        W82500  36.304  11.215   4.309
15718W        W82501  29.509  24.737   0.029
15719W        W82502   9.628  23.626  14.374
15720W        W82503  34.585  12.088  13.415
15721W        W82504  39.188  38.402  10.693
15722W        W82505  32.364  30.890  12.894
15723W        W82506   4.991  14.113   0.358
15724W        W82507   5.376   9.236  10.735
15725W        W82508  40.061  35.300  11.666
15726W        W82509  10.867  38.900   1.404
15727W        W82510  29.047  38.207   4.650
15728W        W82511  12.337   7.886  11.739
15729W        W82512  34.156  15.938   3.657
15730W        W82513  36.504  43.335   4.150
15731W        W82514  24.317  22.498  13.043
15732W        W82515  39.471   9.709   4.616
15733W        W82516  23.208   6.715   2.431
15734W        W82517  31.618  18.607  10.851
15735W        W82518  29.151  10.284  12.773
15736W        W82519   7.836  29.668   3.657
15737W        W82520  31.930   5.938  10.623
15738W        W82521  19.333   8.653   3.377
15739W        W82522  28.495  40.288  13.099
15740W        W82523  23.787  28.930  10.511
15741W        W82524  21.052  12.585   0.966
15742W        W82525   8.817  40.720   4.856
15743W        W82526  34.499  30.014  14.854
15744W        W82527  13.642  23.647  11.557
15745W        W82528  11.330   0.232  13.125
15746W        W82529  11.850  27.423  11.491
15747W        W82530  33.919  15.968   0.037
15748W        W82531  23.975  13.249   0.048
15749W        W82532  40.132  38.470   4.877
15750W        W82533   1.162  35.624  12.028
15751W        W82534  23.154  29.240   0.649
15752W        W82535   5.135  43.908  10.575
15753W        W82536  32.284  19.708   4.160
15754W        W82537  39.616  24.073   1.703
15755W        W82538  15.640   5.055  11.131
15756W        W82539   5.162  38.046  11.258
15757W        W82540   3.718  30.116  12.058
15758W        W82541  38.019  27.410  14.336
15759W        W82542  19.484  26.481  10.876
15760W        W82543  21.608  20.955  10.538
15761W        W82544  42.948  27.635   3.675
15762W        W82545   0.197  17.319   0.766
15763W        W82546  17.145  30.373   1.790
15764W        W82547  43.911  21.051  14.883
15765W        W82548  43.251  19.739   5.027
15766W        W82549  35.526  17.117   1.175
15767W        W82550  34.483   6.103  13.366
15768W        W82551  21.472  11.744  11.308
15769W        W82552  29.037  30.830   3.853
15770W        W82553  36.359  35.046  11.629
15771W        W82554  13.795  33.023   4.619
15772W        W82555  30.304  40.572   3.541
15773W        W82556  18.176  20.908   1.851
15774W        W82557  26.625  11.264   0.236
15775W        W82558  32.414  17.510   1.303
15776W        W82559  21.298  32.567   0.368
15777W        W82560  22.294   8.763  12.196
15778W        W82561   0.749  36.424  12.211
15779W        W82562  15.652  38.785   1.935
15780W        W82563   0.303   5.391   2.531
15781W        W82564   3.874   6.231   3.114
15782W        W82565  44.223  24.482   1.937
15783W        W82566  28.034  17.784   2.922
15784W        W82567  25.856  19.530  12.433
15785W        W82568  30.137  21.314   4.072
15786W        W82569  20.049  42.706  12.929
15787W        W82570  25.446   5.320  12.019
15788W        W82571   0.038  19.464   4.517
15789W        W82572  29.664  42.442   5.100
15790W        W82573  30.064  20.965  12.955
15791W        W82574  43.303   1.300   3.883
15792W        W82575  41.221  35.079  12.390
15793W        W82576  39.843  34.040  12.137
15794W        W82577  11.806  40.375  13.954
15795W        W82578   9.850  41.602   1.991
15796W        W82579  15.108  42.695  14.827
15797W        W82580  20.080   4.934  10.828
15798W        W82581  32.915  29.450  14.434
15799W        W82582   1.476  34.478  11.527
15800W        W82583  33.057  19.515   9.627
15801W        W82584  31.625  17.027   0.846
15802W        W82585  29.401  29.931  10.723
15803W        W82586   4.502  36.139  14.810
15804W        W82587   8.204   2.366   2.903
15805W        W82588  29.570   1.263  13.438
15806W        W82589  44.478   3.881   4.585
15807W        W82590  26.090   9.337   1.405
15808W        W82591  37.651  39.434  10.520
15809W        W82592  41.748   9.727  11.482
15810W        W82593  33.440  27.978  11.903
15811W        W82594  39.068  44.420   3.704
15812W        W82595  14.376  28.185   3.144
15813W        W82596  14.134  40.396  13.232
15814W        W82597  18.899  28.357  12.957
15815W        W82598  34.448  19.093   3.573
15816W        W82599  36.696  39.370   4.273
15817W        W82600  20.283  24.628   3.858
15818W        W82601  24.397  36.397  12.995
15819W        W82602  27.823  32.979  12.499
15820W        W82603  31.210   0.823   0.206
15821W        W82604  32.205  20.060   3.249
15822W        W82605  21.112   3.984   3.557
15823W        W82606   5.897  10.860   3.593
15824W        W82607  18.306   3.459  14.329
15825W        W82608  11.194   6.064  14.306
15826W        W82609  23.788  42.484  14.760
15827W        W82610   0.813  13.099  14.974
15828W        W82611  27.632  33.540   3.283
15829W        W82612  28.750  39.620  10.655
15830W        W82613  41.391  19.046  14.424
15831W        W82614   7.592  20.677  14.492
15832W        W82615  17.108  39.722   4.978
15833W        W82616  42.048   4.949   4.213
15834W        W82617  17.272  29.129  13.506
15835W        W82618  25.261   3.496   5.142
15836W        W82619  22.672  26.158  11.631
15837W        W82620  39.971  30.162   2.821
15838W        W82621  38.703  10.696  10.562
15839W        W82622  18.677  20.627  11.577
15840W        W82623  35.380  25.405   1.694
15841W        W82624  15.668  21.221  11.299
15842W        W82625  33.581  42.013  14.262
15843W        W82626  20.163   7.725   2.434
15844W        W82627  33.787   1.410   4.211
15845W        W82628  32.486  31.083   1.194
15846W        W82629  26.478  32.793   4.150
15847W        W82630   8.385  32.864   1.506
15848W        W82631  41.754  26.060  14.503
15849W        W82632  30.523   7.717  10.646
15850W        W82633  30.470  32.218  14.771
15851W        W82634  29.941  35.785   3.231
15852W        W82635  41.263  20.480  13.103
15853W        W82636  28.261  15.833   1.714
15854W        W82637  37.811   3.202   3.567
15855W        W82638  30.995  32.628   2.957
15856W        W82639  40.579  14.250  12.170
15857W        W82640   9.424   5.267  14.931
15858W        W82641   3.463  44.771  12.435
15859W        W82642   2.440  39.186   9.976
15860W        W82643  12.660  13.323  11.112
15861W        W82644  32.150  35.994   3.157
15862W        W82645   3.258  33.468   3.226
15863W        W82646  16.265  36.321   4.664
15864W        W82647  10.686   3.788   4.439
15865W        W82648   6.314  21.519   4.023
15866W        W82649  34.833  12.584  14.879
15867W        W82650  13.158  44.807   0.954
15868W        W82651   1.323  15.090   0.928
15869W        W82652   9.627  19.846   3.842
15870W        W82653  43.844   1.478  13.015
15871W        W82654   1.378  43.326  11.119
15872W        W82655  36.462   1.555  12.531
15873W        W82656   7.116  41.867   0.920
15874W        W82657   6.571  26.653  11.944
15875W        W82658  12.759   9.662   0.257
15876W        W82659  35.559  13.578   2.384
15877W        W82660  16.084  37.858   1.911
15878W        W82661  38.866   0.951   4.361
15879W        W82662  14.749  28.563  14.218
15880W        W82663  12.235  17.142   2.683
15881W        W82664  41.505  19.366   3.312
15882W        W82665   9.749  34.604  13.513
15883W        W82666  43.057  15.211   1.449
15884W        W82667  35.119  28.047   3.795
15885W        W82668  33.416  36.535   2.720
15886W        W82669   8.838  11.936   2.277
15887W        W82670  21.028  18.240  14.805
15888W        W82671   0.420   1.447  12.511
15889W        W82672  39.682   7.081  11.109
15890W        W82673  19.731  37.315   2.903
15891W        W82674   4.950  29.422  12.359
15892W        W82675  34.457   7.627  12.515
15893W        W82676  32.244  37.313   0.825
15894W        W82677  12.855   0.751  10.779
15895W        W82678  25.735  31.532  12.033
15896W        W82679  42.819   5.435   3.698
15897W        W82680   0.085   8.219   0.404
15898W        W82681  28.532   1.366  13.333
15899W        W82682  14.260  17.587   0.500
15900W        W82683   6.775  18.339  14.262
15901W        W82684  37.381   4.455   1.743
15902W        W82685  18.198   7.826  12.062
15903W        W82686  28.991  31.951  10.706
15904W        W82687  12.777  31.925   4.113
15905W        W82688  28.617  15.255   4.251
15906W        W82689  22.057   9.297  13.725
15907W        W82690   1.187  34.801  12.354
15908W        W82691  13.051  13.341   1.757
15909W        W82692  21.460   7.261  12.638
15910W        W82693   1.519   2.260   1.349
15911W        W82694  12.299  13.124   2.228
15912W        W82695  19.069  10.313  11.590
15913W        W82696  27.932  18.840   4.515
15914W        W82697  25.418  39.267  13.878
15915W        W82698  19.535  21.744   0.758
15916W        W82699  16.093  16.704  12.663
15917W        W82700  13.886  20.021   2.883
15918W        W82701  40.519  18.528   4.139
15919W        W82702  10.131  43.897   2.307
15920W        W82703  23.544  31.550  11.490
15921W        W82704  35.608  15.459  12.188
15922W        W82705  27.166  24.234   3.640
15923W        W82706  43.549   7.407  12.633
15924W        W82707  38.742  12.422   1.133
15925W        W82708   7.445   7.315  13.434
15926W        W82709  12.219  35.841   1.821
15927W        W82710  35.629  14.117   3.744
15928W        W82711  24.468  39.533  11.502
15929W        W82712  12.829  31.592  14.374
15930W        W82713  32.026  35.021   1.303
15931W        W82714   1.314  25.312   4.039
15932W        W82715  31.305  11.965   0.433
15933W        W82716   1.279  27.376  12.049
15934W        W82717  17.149   0.650  14.884
15935W        W82718  30.572  19.578  10.204
15936W        W82719  32.529  35.095  11.411
15937W        W82720  38.169  44.930   4.633
15938W        W82721  41.554  27.912  11.371
15939W        W82722  39.299   4.440   1.357
15940W        W82723  42.384   9.525   3.821
15941W        W82724   1.967  34.980  12.068
15942W        W82725  21.672  34.859   0.419
15943W        W82726  23.876  39.498   3.360
15944W        W82727  21.291  18.160   1.393
15945W        W82728  41.734  35.109  12.421
15946W        W82729  32.513  43.013   3.347
15947W        W82730  35.143   3.353   2.486
15948W        W82731   8.101  18.829   3.546
15949W        W82732  17.769  24.541  11.405
15950W        W82733  35.911  33.356   3.797
15951W        W82734   0.764  17.524  10.669
15952W        W82735   6.213  43.344  14.852
15953W        W82736  22.544  43.510   0.855
15954W        W82737   5.055  28.736   1.136
15955W        W82738  40.636  27.554  11.099
15956W        W82739  41.161  33.065  14.795
15957W        W82740  25.496   4.805  11.843
15958W        W82741   7.643  39.357  10.635
15959W        W82742   2.972   1.839  10.733
15960W        W82743  29.703  10.708  11.078
15961W        W82744  29.052  33.132   2.216
15962W        W82745   3.151  41.973   2.730
15963W        W82746  25.117  41.444  13.986
15964W        W82747  16.187  25.641  11.161
15965W        W82748   7.893  10.528   2.473
15966W        W82749   5.017  21.598   3.989
15967W        W82750  31.543   7.282   0.230
15968W        W82751  13.796  10.835  10.672
15969W        W82752  10.938  15.318   2.811
15970W        W82753   4.644   8.105  12.060
15971W        W82754   0.989  15.255  13.762
15972W        W82755  14.732  41.715  14.901
15973W        W82756  42.810  31.562  13.212
15974W        W82757  42.979  17.014  14.821
15975W        W82758  42.156   6.819  12.902
15976W        W82759   1.725  20.774  13.326
15977W        W82760  12.777  42.403  14.312
15978W        W82761  39.833   6.525  14.011
15979W        W82762   1.241  32.278   4.435
15980W        W82763  24.549  29.091   0.192
15981W        W82764  24.076  22.203  13.415
15982W        W82765   2.050  13.616   4.077
15983W        W82766  24.169  10.693  14.412
15984W        W82767  28.956   5.886  14.168
15985W        W82768  32.802  31.409  11.956
15986W        W82769  37.941   6.763  11.612
15987W        W82770  13.687  44.723   3.157
15988W        W82771  27.126  24.085  14.293
15989W        W82772  29.524  30.688   4.604
15990W        W82773  19.205  18.971  14.101
15991W        W82774   3.991   1.580  13.491
15992W        W82775  15.729  13.580   3.169
15993W        W82776  30.434  26.091   2.309
15994W        W82777   0.332  24.062   1.871
15995W        W82778  16.187  14.354  11.132
15996W        W82779   9.242  38.836  11.586
15997W        W82780  32.598  18.943   0.330
15998W        W82781  32.646  21.525   1.132
15999W        W82782  23.040  15.597   2.182
16000W        W82783  38.382  44.848  12.494
16001W        W82784  31.641  33.980   4.283
16002W        W82785  32.540  44.679  12.724
16003W        W82786  11.533   0.225  14.821
16004W        W82787  10.715  26.704   1.955
16005W        W82788   3.701  12.942  11.126
16006W        W82789  14.895  23.539   2.387
16007W        W82790   1.547   9.037  10.081
16008W        W82791  26.528  26.311  11.172
16009W        W82792   5.771  30.020  11.124
16010W        W82793  21.047  43.469   4.459
16011W        W82794  14.696  33.348   1.667
16012W        W82795  28.470   0.422  12.492
16013W        W82796  40.250  28.555  10.552
16014W        W82797  37.686  13.429  11.573
16015W        W82798  34.597  31.085  14.481
16016W        W82799  26.167  40.956   1.355
16017W        W82800  21.272  12.660   3.386
16018W        W82801  33.643  19.502  13.508
16019W        W82802  33.850  31.033  12.648
16020W        W82803   8.714  33.412  12.527
16021W        W82804  26.644   1.554   0.567
16022W        W82805   1.290  40.774   2.691
16023W        W82806  32.991  19.281   0.381
16024W        W82807   5.174   7.903   3.751
16025W        W82808   8.508  29.036   2.777
16026W        W82809  30.001  29.166  10.731
16027W        W82810  25.330  15.100  14.976
16028W        W82811  34.880  35.887  11.576
16029W        W82812  14.336  10.033  14.826
16030W        W82813  26.050   1.295  13.006
16031W        W82814   0.820   7.575   2.962
16032W        W82815  12.454  33.978  14.721
16033W        W82816   1.566   0.441   1.205
16034W        W82817  21.999  10.574  13.928
16035W        W82818   1.574  13.492  12.491
16036W        W82819   5.665  34.413  11.523
16037W        W82820   9.900   2.546   1.805
16038W        W82821   3.015   8.730   0.366
16039W        W82822   6.133  39.784  11.931
16040W        W82823  19.004   7.175   1.046
16041W        W82824  21.166  43.439  13.898
16042W        W82825   5.661  19.126  13.731
16043W        W82826  33.366  33.983  10.422
16044W        W82827  18.021  43.088   3.664
16045W        W82828  37.473  29.551  11.740
16046W        W82829  33.598  34.467   0.499
16047W        W82830  44.599  42.259  12.659
16048W        W82831  17.629  23.450  14.675
16049W        W82832  29.446   3.347  10.843
16050W        W82833   5.981  23.754  12.503
16051W        W82834  27.614  18.050  14.633
16052W        W82835  34.103  18.201  14.412
16053W        W82836  22.039  44.525   1.367
16054W        W82837  27.903  19.129  11.179
16055W        W82838  20.012  27.994  13.772
16056W        W82839   3.331  27.101  10.634
16057W        W82840   0.071   7.342  10.296
16058W        W82841  30.528  34.966   0.749
16059W        W82842  13.207  32.519   3.520
16060W        W82843  28.944  14.262   3.123
16061W        W82844  28.526  18.173   3.527
16062W        W82845  15.741  18.191   2.015
16063W        W82846  24.442  40.892   1.749
16064W        W82847  12.279  15.662  14.369
16065W        W82848  12.706  16.264   2.429
16066W        W82849  23.234  24.404   1.931
16067W        W82850  37.914  12.127   4.218
16068W        W82851  42.521  29.929  13.892
16069W        W82852  21.057  10.074  11.972
16070W        W82853  42.939  29.303  13.522
16071W        W82854  15.111  14.298  14.604
16072W        W82855  10.353  25.403   4.610
16073W        W82856  15.145  42.909  10.999
16074W        W82857  26.077  16.031   4.736
16075W        W82858  22.183  38.828   1.104
16076W        W82859  43.676   0.261   1.938
16077W        W82860  25.141   8.956   2.209
16078W        W82861  33.501   6.650  13.930
16079W        W82862  22.060  41.562   1.242
16080W        W82863  28.158  31.337   4.636
16081W        W82864  23.648   3.043   0.585
16082W        W82865   9.248  37.338   0.745
16083W        W82866  30.884  42.516   4.546
16084W        W82867   4.209  32.437  14.559
16085W        W82868  15.511   3.229   3.149
16086W        W82869  43.057   0.227   3.598
16087W        W82870   1.276   9.795   1.995
16088W        W82871  28.626  40.059  12.617
16089W        W82872  35.793  18.045  12.202
16090W        W82873  20.616  15.180  12.153
16091W        W82874  19.763  36.842   1.122
16092W        W82875  10.277  39.314   1.806
16093W        W82876  15.000  13.195   0.468
16094W        W82877  13.959  38.418  10.342
16095W        W82878  29.401  15.302   2.308
16096W        W82879  29.585  10.542   0.431
16097W        W82880  28.080  27.441  13.340
16098W        W82881  32.191  29.721  11.139
16099W        W82882  29.393   6.856  12.581
16100W        W82883  33.054  21.800  13.849
16101W        W82884   2.273  44.481  10.780
16102W        W82885  34.670  19.552  12.484
16103W        W82886   5.117  25.527   4.624
16104W        W82887  22.660  15.298   4.140
16105W        W82888  14.783  44.704  13.882
16106W        W82889   0.941  33.121   5.213
16107W        W82890  23.637  37.900   3.869
16108W        W82891  39.050  32.140  14.358
16109W        W82892  37.612   1.161  11.150
16110W        W82893  12.738  43.679   4.562
16111W        W82894  43.263   9.338   3.993
16112W        W82895   3.417  10.758  11.801
16113W        W82896  37.077  16.362  14.527
16114W        W82897   1.253  15.102   1.509
16115W        W82898  13.715  38.539   1.876
16116W        W82899  30.915   9.328  10.931
16117W        W82900  35.155  19.500   2.313
16118W        W82901   1.319  38.098   0.364
16119W        W82902  34.509  44.762   4.642
16120W        W82903  14.773  37.627  11.054
16121W        W82904  14.429  13.767  12.884
16122W        W82905  13.817  20.942  11.099
16123W        W82906  16.685  17.248   0.238
16124W        W82907  23.247   1.887   4.527
16125W        W82908  17.309  16.592  12.881
16126W        W82909  34.645  15.128  11.534
16127W        W82910  34.629  30.102   4.209
16128W        W82911  30.100  23.318   2.770
16129W        W82912  12.475  15.377   3.371
16130W        W82913  33.103  27.661   2.317
16131W        W82914  26.967  17.337   0.307
16132W        W82915  20.569  30.467  14.578
16133W        W82916  31.437  14.941   4.170
16134W        W82917  41.471  10.722  11.970
16135W        W82918  20.467  33.148  14.893
16136W        W82919  35.666  13.976  11.964
16137W        W82920  19.580  28.953  10.706
16138W        W82921  29.739  19.279   3.856
16139W        W82922  31.693  10.279   2.355
16140W        W82923   9.236  35.150  10.353
16141W        W82924  38.855  40.342  14.854
16142W        W82925   3.045   4.824  14.822
16143W        W82926   2.385  24.950   2.812
16144W        W82927  44.039  44.847   1.768
16145W        W82928  12.252  20.177   2.594
16146W        W82929  29.096  38.904   3.612
16147W        W82930  22.744  24.686  10.142
16148W        W82931  13.292  23.718   3.665
16149W        W82932  36.562  25.151   1.847
16150W        W82933   0.980  38.550  14.905
16151W        W82934  18.226  12.190  14.865
16152W        W82935  31.882  44.250   1.203
16153W        W82936  15.156  30.476   3.243
16154W        W82937  20.082  10.535   3.218
16155W        W82938   2.781  34.790  14.122
16156W        W82939  34.484   1.987  11.653
16157W        W82940  25.712   1.763  11.117
16158W        W82941  31.426   4.976   1.305
16159W        W82942  24.984   3.364  12.975
16160W        W82943  34.407  23.061   1.895
16161W        W82944  24.561  31.661   1.559
16162W        W82945  34.988  19.751   1.863
16163W        W82946   7.289   0.690   4.527
16164W        W82947  10.685  20.379  13.514
16165W        W82948  40.237  25.488   3.405
16166W        W82949  23.605  17.816  11.640
16167W        W82950   3.283  40.362  10.719
16168W        W82951   1.470  40.028  11.977
16169W        W82952  39.465  21.215   2.199
16170W        W82953   7.917  41.672  13.741
16171W        W82954   0.570   5.407   1.264
16172W        W82955   1.381  39.734   1.733
16173W        W82956  28.415   4.682  14.026
16174W        W82957   5.380  14.157  10.760
16175W        W82958   7.623  28.216  11.672
16176W        W82959  15.229  18.249  12.123
16177W        W82960  32.025   3.247   3.339
16178W        W82961  13.918  15.972   0.148
16179W        W82962  35.075   4.081  14.883
16180W        W82963  38.830  27.375  12.612
16181W        W82964  42.710  38.814  14.366
16182W        W82965  34.004   0.398  14.903
16183W        W82966  31.278  21.604   2.244
16184W        W82967   4.795   4.493   1.211
16185W        W82968   7.763  12.218  14.847
16186W        W82969  16.792  41.853  13.830
16187W        W82970  42.496  34.504  14.736
16188W        W82971  34.531  35.424  13.569
16189W        W82972   9.036   7.810   2.678
16190W        W82973  40.065   6.936  14.308
16191W        W82974  23.191   1.801  10.200
16192W        W82975  36.985  31.374   2.053
16193W        W82976  27.105  30.101   2.426
16194W        W82977  28.416  37.884  12.616
16195W        W82978  40.109   5.273   4.350
16196W        W82979  11.663  31.031  11.658
16197W        W82980   0.659  26.926  13.951
16198W        W82981  44.467  19.781  13.956
16199W        W82982   2.773  38.592   1.312
16200W        W82983  44.337  22.181   4.027
16201W        W82984  43.681   4.264  11.944
16202W        W82985  36.794  21.136  13.286
16203W        W82986  21.649  34.075  13.347
16204W        W82987  10.127  19.855   2.633
16205W        W82988   5.781  35.285  14.376
16206W        W82989  30.402  31.168  13.906
16207W        W82990  16.562  20.753   4.613
16208W        W82991  27.091  12.049  10.521
16209W        W82992   1.666  33.283   3.728
16210W        W82993  34.948  16.494  14.308
16211W        W82994  44.743  19.227  11.201
16212W        W82995  10.679   2.989   1.679
16213W        W82996  18.526  16.127  11.997
16214W        W82997  30.889  13.866  12.473
16215W        W82998  34.128   0.905   2.206
16216W        W82999  44.876  43.153  14.238
16217W        W83000  39.302  24.079  14.513
16218W        W83001   0.073  15.532   0.311
16219W        W83002  21.765  18.214   1.608
16220W        W83003  20.224  37.892   0.352
16221W        W83004  23.596  23.599   1.400
16222W        W83005  28.180  39.958   4.933
16223W        W83006  28.932   2.382   4.606
16224W        W83007   3.912   0.332  10.714
16225W        W83008  36.339  17.044   2.845
16226W        W83009   7.470  40.346   4.588
16227W        W83010   6.988  20.955   2.724
16228W        W83011  11.787   9.804   1.313
16229W        W83012  23.284  30.931   1.491
16230W        W83013  36.127  30.447  14.811
16231W        W83014  13.009  14.793   1.167
16232W        W83015  23.631  31.852   0.065
16233W        W83016  21.315  19.973   4.389
16234W        W83017  39.390  43.344  10.806
16235W        W83018  41.602  40.521  13.462
16236W        W83019  42.792   6.493  11.656
16237W        W83020  20.130   9.895   4.307
16238W        W83021  42.319  37.183   1.743
16239W        W83022  22.711  12.428   1.097
16240W        W83023  29.011  16.529  13.054
16241W        W83024  10.370  16.717   3.791
16242W        W83025  44.807  12.401  11.579
16243W        W83026  38.546  10.905  14.771
16244W        W83027   7.576  42.473  11.154
16245W        W83028   0.422  30.453   1.732
16246W        W83029  37.492  22.239   0.483
16247W        W83030   7.815  20.985  13.137
16248W        W83031  16.531  27.955  12.511
16249W        W83032  38.255  20.617  14.484
16250W        W83033  27.599   2.024   4.525
16251W        W83034   1.454  17.018   1.879
16252W        W83035  25.977  38.358   4.952
16253W        W83036   3.226  24.746   3.585
16254W        W83037  22.513  35.492  13.413
16255W        W83038  18.119   0.044   2.316
16256W        W83039  13.996  39.676   4.971
16257W        W83040  13.189  25.402   1.605
16258W        W83041  10.815  29.144   5.247
16259W        W83042  17.832  38.325   0.308
16260W        W83043  10.649  33.995   4.104
16261W        W83044  11.862   3.458   2.268
16262W        W83045  38.624   1.783  14.310
16263W        W83046   4.881  33.069   2.484
16264W        W83047   4.187  18.293   2.309
16265W        W83048  15.575  36.086   4.066
16266W        W83049  43.390   3.540  12.050
16267W        W83050  18.736  11.906   2.783
16268W        W83051   9.963   8.693   0.558
16269W        W83052  39.298  26.627   2.808
16270W        W83053  44.194  33.957   3.820
16271W        W83054  21.017  21.823   2.795
16272W        W83055  43.187  23.802   2.099
16273W        W83056  33.983  21.964  12.667
16274W        W83057  15.594  10.147  12.597
16275W        W83058  28.928  32.449  13.026
16276W        W83059   0.812  13.305   3.702
16277W        W83060  41.679  37.036  13.641
16278W        W83061  16.708  10.362   2.699
16279W        W83062   2.924  43.843   4.339
16280W        W83063  38.082  29.164   0.684
16281W        W83064  42.340  12.796  14.780
16282W        W83065  32.808  29.576   2.395
16283W        W83066  29.690  11.843   3.641
16284W        W83067  35.029  36.634  13.572
16285W        W83068  21.144  36.915   1.285
16286W        W83069   6.979  39.499   1.882
16287W        W83070   3.889  30.901  13.515
16288W        W83071   7.272  10.205  11.917
16289W        W83072  40.967   0.056  12.995
16290W        W83073  35.404  14.912  12.849
16291W        W83074   0.603  12.699  11.039
16292W        W83075  38.995  25.219  14.548
16293W        W83076   3.691   7.300   0.751
16294W        W83077  31.031   4.185  12.015
16295W        W83078  21.705  33.637  13.633
16296W        W83079  26.670  31.059   2.128
16297W        W83080  23.991   5.367  11.615
16298W        W83081  25.640  31.067   0.616
16299W        W83082  43.499  21.260   0.794
16300W        W83083  40.694  30.871   1.657
16301W        W83084  33.964  17.080  13.112
16302W        W83085  26.921  10.778   2.172
16303W        W83086  19.299  41.801  14.964
16304W        W83087  38.510   7.758   0.288
16305W        W83088  42.005   9.114  14.864
16306W        W83089  36.026  30.109   4.512
16307W        W83090  33.300  17.060  12.405
16308W        W83091  27.057  40.450   3.836
16309W        W83092   6.284  29.707   4.065
16310W        W83093  38.549  15.798   3.461
16311W        W83094  10.312  43.051  13.369
16312W        W83095  30.592  10.416   0.976
16313W        W83096  35.306  35.351  14.337
16314W        W83097  20.032  16.554   2.952
16315W        W83098  21.728   5.575   2.800
16316W        W83099  12.869   5.244  10.799
16317W        W83100   7.041   3.619  11.131
16318W        W83101  21.567  10.748   0.470
16319W        W83102   6.657   3.346   1.246
16320W        W83103   6.205  42.173  13.334
16321W        W83104  17.892  23.212  14.303
16322W        W83105   9.695  31.650   4.015
16323W        W83106  40.802  28.178   3.213
16324W        W83107  12.351  39.392   1.498
16325W        W83108  29.461  26.197  14.495
16326W        W83109   2.336  24.177  10.627
16327W        W83110  12.686  34.910   4.310
16328W        W83111  31.502  25.661  10.665
16329W        W83112  14.978   3.589  12.955
16330W        W83113   4.371   0.377  13.943
16331W        W83114   6.264   1.820  14.107
16332W        W83115  11.170  21.162   2.673
16333W        W83116  35.926  31.749  14.712
16334W        W83117  39.837  13.785   0.941
16335W        W83118  16.917  26.182   1.942
16336W        W83119   6.881  37.496   2.707
16337W        W83120  38.835  31.452  11.591
16338W        W83121  25.957  36.964   3.652
16339W        W83122  11.600   2.980   4.663
16340W        W83123  27.316  17.294   4.138
16341W        W83124  13.109  44.163   4.165
16342W        W83125  39.845   9.437   5.138
16343W        W83126  35.630  39.158   0.070
16344W        W83127   7.181  18.192   2.255
16345W        W83128   2.299  16.055   4.543
16346W        W83129  29.991   3.815   0.796
16347W        W83130  13.515  26.677   3.744
16348W        W83131  43.940  36.035  13.168
16349W        W83132  30.879  15.723   4.155
16350W        W83133  37.365  13.041  13.847
16351W        W83134   3.320  23.077  13.030
16352W        W83135  36.889  41.688   3.105
16353W        W83136  39.014  40.450  11.190
16354W        W83137   3.222  25.151   2.225
16355W        W83138  21.282  18.479  14.404
16356W        W83139  41.995  24.935   0.759
16357W        W83140  42.055  40.867   4.191
16358W        W83141   9.283  38.765  13.424
16359W        W83142  17.121  10.021  10.472
16360W        W83143  12.185  14.240   4.117
16361W        W83144  11.622   2.797   1.710
16362W        W83145  36.843  44.452   2.932
16363W        W83146  13.101   8.892  13.379
16364W        W83147  30.996  21.071   5.091
16365W        W83148   1.099  31.500   0.054
16366W        W83149  35.086  37.403   4.609
16367W        W83150   3.680  31.792  11.101
16368W        W83151  35.265  13.152   1.723
16369W        W83152  32.303  40.445   0.647
16370W        W83153   4.184  39.500   0.371
16371W        W83154  10.231   7.302  12.631
16372W        W83155  43.297  20.185  12.921
16373W        W83156  33.823  15.780  13.300
16374W        W83157  37.643  34.158  14.302
16375W        W83158  44.920  29.508  11.549
16376W        W83159  24.057  15.651   3.697
16377W        W83160   7.802  12.748   3.679
16378W        W83161   1.425   7.945   1.831
16379W        W83162  11.638  12.402   3.168
16380W        W83163   1.712  32.126  12.158
16381W        W83164  28.661  37.038   0.721
16382W        W83165   9.734   2.071  12.472
16383W        W83166   0.491  23.173   2.587
16384W        W83167  27.546   6.433   3.160
16385W        W83168  24.880  23.639  12.054
16386W        W83169  25.935   9.128  11.698
16387W        W83170  36.114  31.159  11.951
16388W        W83171  39.909  32.084   2.410
16389W        W83172  19.070  33.040  10.732
16390W        W83173  43.026  14.482  13.825
16391W        W83174  44.877  43.181   0.932
16392W        W83175  15.679  29.923   2.647
16393W        W83176  28.862  33.618   1.656
16394W        W83177  41.856  41.859  13.322
16395W        W83178  26.525  27.375   3.261
16396W        W83179  10.834   7.131  12.028
16397W        W83180  38.767   0.764  14.137
16398W        W83181  41.748  17.698   0.813
16399W        W83182  35.509   5.654  14.261
16400W        W83183  25.592  14.046  13.884
16401W        W83184   3.705  41.194   1.860
16402W        W83185  35.007  29.694   1.131
16403W        W83186  10.203  21.601   3.607
16404W        W83187  19.981   1.470   2.774
16405W        W83188   3.347  33.655   0.826
16406W        W83189  34.077   3.406  13.480
16407W        W83190   8.606   1.463   2.572
16408W        W83191  13.661  40.811   3.268
16409W        W83192   0.677   6.179  10.541
16410W        W83193  22.955   8.643   3.745
16411W        W83194  32.138  36.715  14.844
16412W        W83195   0.944  10.396  11.120
16413W        W83196   1.575   6.283   2.336
16414W        W83197  16.759  39.598  11.050
16415W        W83198  18.074   2.695   1.839
16416W        W83199  18.290   0.864   1.924
16417W        W83200   0.306  15.746  14.041
16418W        W83201  15.073  37.413  10.674
16419W        W83202  16.724  35.481   3.459
16420W        W83203  29.611  27.102   4.605
16421W        W83204  31.144  25.939   4.582
16422W        W83205  20.693   7.906  11.039
16423W        W83206  26.718  32.650   3.664
16424W        W83207  29.209   8.635  13.872
16425W        W83208  11.823  22.425   0.553
16426W        W83209  35.581  12.840  12.300
16427W        W83210   2.024  37.027  14.868
16428W        W83211   1.324  17.284   0.426
16429W        W83212  15.099  19.855   2.406
16430W        W83213  21.494  34.584  13.899
16431W        W83214  15.251   7.163   1.570
16432W        W83215   2.992  34.032   0.686
16433W        W83216  27.869  39.585  10.297
16434W        W83217  25.078  35.525   3.078
16435W        W83218   7.885  30.408   4.449
16436W        W83219  14.368  18.990   0.819
16437W        W83220  40.513   3.132   0.952
16438W        W83221   7.375  37.363  11.658
16439W        W83222   3.637  30.573  12.657
16440W        W83223  20.288  19.863   2.687
16441W        W83224  14.723  34.097   2.117
16442W        W83225  13.835  38.454  14.866
16443W        W83226  20.231  44.023  13.570
16444W        W83227  30.984  39.313   0.060
16445W        W83228  29.172  31.049   1.620
16446W        W83229  41.332  22.672   4.697
16447W        W83230   6.221  16.859  10.331
16448W        W83231  15.678  12.331   0.671
16449W        W83232   9.024  18.202   2.615
16450W        W83233  14.069  33.409   2.357
16451W        W83234   3.371  38.773  14.103
16452W        W83235   3.706  39.059   4.880
16453W        W83236  34.516  31.536  11.447
16454W        W83237  29.819  35.133   2.349
16455W        W83238  19.278   7.715   2.398
16456W        W83239   1.566  28.103   1.922
16457W        W83240  42.472  20.049  14.020
16458W        W83241   1.516  19.662  11.906
16459W        W83242  20.895  22.106   2.347
16460W        W83243   4.196  39.096  14.423
16461W        W83244  28.953  29.542   4.630
16462W        W83245  39.517  32.943   3.581
16463W        W83246  39.792  34.641   2.660
16464W        W83247  24.240  22.815   0.908
16465W        W83248  15.688   0.530   4.066
16466W        W83249   3.333  32.949  10.640
16467W        W83250  36.142  13.242  13.097
16468W        W83251  23.242  11.691  14.384
16469W        W83252  31.925   8.888  14.429
16470W        W83253  14.274  14.366  14.249
16471W        W83254  26.071   0.516   2.132
16472W        W83255   8.458  18.700   1.019
16473W        W83256  36.059  12.143   1.604
16474W        W83257   8.897  38.881   1.759
16475W        W83258  10.102  33.660   2.943
16476W        W83259   0.082   3.773  14.158
16477W        W83260  34.050   1.715   4.543
16478W        W83261  43.917   6.002   4.136
16479W        W83262  27.854  36.935   1.673
16480W        W83263  35.166   8.945   1.123
16481W        W83264  36.552   3.839  13.916
16482W        W83265  39.791   1.219  12.929
16483W        W83266  26.442  16.015  10.587
16484W        W83267  18.744  24.411  11.164
16485W        W83268  26.611   0.446   1.024
16486W        W83269   5.563  34.989  12.074
16487W        W83270   2.476  41.478   3.761
16488W        W83271   0.003   6.168   4.121
16489W        W83272  12.636   9.167   3.177
16490W        W83273  25.557  24.017  14.010
16491W        W83274  15.924  10.410  12.133
16492W        W83275  16.756  15.085   2.957
16493W        W83276  14.148  25.790   1.564
16494W        W83277  43.008  26.295  14.928
16495W        W83278  24.549  23.627  14.892
16496W        W83279  27.638  15.629   5.116
16497W        W83280  21.963  12.073   4.568
16498W        W83281  35.969   0.972   2.624
16499W        W83282   8.476   6.413   4.196
16500W        W83283  19.788  10.874  13.903
16501W        W83284   9.283  42.946   3.073
16502W        W83285  30.496  41.282   3.558
16503W        W83286   8.347  27.036  14.319
16504W        W83287  26.798  13.716   1.927
16505W        W83288  16.246   3.815   4.460
16506W        W83289  36.950  13.787   3.797
16507W        W83290  35.448  27.767   2.114
16508W        W83291  26.697  36.996   0.871
16509W        W83292  23.174  13.463  12.863
16510W        W83293  16.446   4.348  14.730
16511W        W83294  31.769   6.343   1.598
16512W        W83295  25.219  16.700   2.016
16513W        W83296  31.150  30.557   4.686
16514W        W83297  39.133  43.696  11.955
16515W        W83298  24.152  10.971  12.330
16516W        W83299  34.436  14.807   4.199
16517W        W83300   5.848  42.772   0.343
16518W        W83301   1.254  20.936  13.545
16519W        W83302  24.380   7.086  11.159
16520W        W83303  18.793  11.966   5.075
16521W        W83304  44.391   8.096  14.848
16522W        W83305  27.951  41.437   4.651
16523W        W83306   6.287  39.894   4.640
16524W        W83307  19.589  35.466  10.913
16525W        W83308   6.345  39.915  13.309
16526W        W83309   5.480  12.036  14.242
16527W        W83310  40.399  22.489   1.356
16528W        W83311  28.911  13.968  12.712
16529W        W83312  35.360   0.283  10.804
16530W        W83313   3.498   0.567   3.503
16531W        W83314  39.148  37.262   1.224
16532W        W83315  42.944  44.395   1.476
16533W        W83316  26.680  35.627  13.951
16534W        W83317  38.416  11.612   1.368
16535W        W83318   7.322  25.690  13.630
16536W        W83319  28.588  28.552   4.020
16537W        W83320  31.444   7.787  10.685
16538W        W83321  42.250  33.178  14.364
16539W        W83322   6.348  11.002  13.034
16540W        W83323  35.157  43.083   2.544
16541W        W83324  32.677  25.998   3.620
16542W        W83325  26.859  32.407   1.421
16543W        W83326  10.651  18.629  13.943
16544W        W83327  37.341  19.735   0.443
16545W        W83328  20.104  26.743   0.898
16546W        W83329  28.230   6.234  13.822
16547W        W83330  29.098  11.379   0.438
16548W        W83331   7.178  12.668  12.452
16549W        W83332  23.414  41.347  13.102
16550W        W83333  18.290  19.899  11.123
16551W        W83334  41.677  26.068  13.622
16552W        W83335  23.536  32.188  10.903
16553W        W83336  21.284  36.881  13.406
16554W        W83337   9.925  27.608  14.356
16555W        W83338  35.259  17.657  14.016
16556W        W83339  40.379  19.058  13.350
16557W        W83340  38.032  38.935  10.182
16558W        W83341   3.686  41.609   0.985
16559W        W83342  17.034  24.447  14.325
16560W        W83343  39.611   1.507   0.357
16561W        W83344  26.100  35.589  13.380
16562W        W83345  25.668  11.287   1.678
16563W        W83346  44.013  11.202   1.714
16564W        W83347  10.381   3.242   2.655
16565W        W83348  37.207  25.588  12.450
16566W        W83349  14.298  29.400   1.221
16567W        W83350  12.769  27.225  11.119
16568W        W83351  41.957  37.793  13.980
16569W        W83352  33.661   5.208   2.010
16570W        W83353  22.148  16.871  14.893
16571W        W83354  17.056   5.348  10.698
16572W        W83355  36.053  42.481  14.955
16573W        W83356  16.224   3.920  14.514
16574W        W83357  37.650  20.054  13.468
16575W        W83358  24.278  27.656   3.975
16576W        W83359  19.279  35.470   1.601
16577W        W83360  39.891  28.948   4.722
16578W        W83361  43.143  40.166   2.555
16579W        W83362  40.242  28.155   2.314
16580W        W83363  22.158  11.647   4.405
16581W        W83364  24.405  34.586  11.131
16582W        W83365  30.825  35.366   4.793
16583W        W83366   3.840  25.557  10.522
16584W        W83367  41.335  41.752  11.189
16585W        W83368  44.613  24.918   3.615
16586W        W83369  10.585  35.370   3.143
16587W        W83370  34.465   6.845  13.218
16588W        W83371  39.113  15.117   4.551
16589W        W83372   1.665  25.225   1.817
16590W        W83373  14.411   6.890  14.812
16591W        W83374   3.548   6.193   2.293
16592W        W83375   0.067   6.467  13.800
16593W        W83376  33.885  31.036  10.727
16594W        W83377  19.098  38.434   4.570
16595W        W83378  43.974  39.521  11.019
16596W        W83379   3.435  25.752  10.762
16597W        W83380  24.981  12.725   4.568
16598W        W83381  16.288   7.324   0.855
16599W        W83382  11.789  31.928   3.370
16600W        W83383  14.324  18.743   4.106
16601W        W83384  42.689   5.726   4.140
16602W        W83385  34.455  22.842  14.294
16603W        W83386  40.358  31.321   2.546
16604W        W83387  31.625  26.629   3.380
16605W        W83388  15.129  39.406   2.487
16606W        W83389  30.630  15.520  12.001
16607W        W83390  44.801  42.325   3.432
16608W        W83391  43.303  39.839   4.501
16609W        W83392  29.217  39.803  11.851
16610W        W83393  15.103  15.072  12.449
16611W        W83394   8.840  33.754  11.256
16612W        W83395  23.763  34.505  14.379
16613W        W83396   9.068  15.485   0.759
16614W        W83397  25.745   5.498  14.534
16615W        W83398  37.499  25.688   1.979
16616W        W83399  27.676   1.571   4.797
16617W        W83400  13.363  26.671   4.281
16618W        W83401   3.362   4.246   4.311
16619W        W83402  43.800  27.945   2.179
16620W        W83403  20.365  26.393   2.675
16621W        W83404  35.666  29.138   1.423
16622W        W83405  31.745  44.283  11.134
16623W        W83406  30.658  38.038  14.512
16624W        W83407  18.090  16.726  14.367
16625W        W83408  27.169  31.876  12.931
16626W        W83409  43.947  36.966   1.423
16627W        W83410  14.007  43.424   2.060
16628W        W83411  19.454   8.804  13.490
16629W        W83412  35.525  31.408   1.794
16630W        W83413  43.754  33.710  11.811
16631W        W83414  42.763  38.813   3.641
16632W        W83415   3.763  20.697   1.416
16633W        W83416   4.172   6.971   1.542
16634W        W83417  20.841  25.673   1.440
16635W        W83418  25.672  30.095   2.761
16636W        W83419  40.337   1.708  13.871
16637W        W83420  20.222   3.976  12.962
16638W        W83421  21.029  43.169   2.849
16639W        W83422  38.398  39.780  14.383
16640W        W83423  18.117   9.916   1.724
16641W        W83424  31.702  29.999  13.400
16642W        W83425  15.315  20.529  10.775
16643W        W83426  24.054  15.586  11.962
16644W        W83427  24.239  18.660   2.938
16645W        W83428  22.512   5.956   1.267
16646W        W83429  26.254   6.688  14.297
16647W        W83430  12.125  14.707   0.810
16648W        W83431  11.665   4.664   0.173
16649W        W83432  29.052  13.682   4.227
16650W        W83433  12.152   5.522  12.906
16651W        W83434  12.662   5.074  14.083
16652W        W83435   9.748  43.106  11.249
16653W        W83436  30.245  29.132  14.529
16654W        W83437  40.333   7.885   1.679
16655W        W83438  11.198   0.317   4.104
16656W        W83439   5.739  27.605   3.202
16657W        W83440  24.336   1.582   2.385
16658W        W83441  34.884  38.713  14.191
16659W        W83442   3.391  28.940   1.281
16660W        W83443  40.622   0.896   1.736
16661W        W83444  18.434  32.346  13.513
16662W        W83445  26.657  32.614  12.948
16663W        W83446  44.958  27.169   3.735
16664W        W83447   0.479  19.403  10.877
16665W        W83448   0.265  35.060  11.566
16666W        W83449   5.351  42.082  11.620
16667W        W83450   1.770  33.782  10.664
16668W        W83451  10.534  17.132   0.466
16669W        W83452  22.226   8.417  10.906
16670W        W83453  21.793  28.505   1.299
16671W        W83454  20.125  30.504  11.213
16672W        W83455   7.430   8.883  14.020
16673W        W83456   5.825  17.244   4.430
16674W        W83457  30.443  26.537   3.966
16675W        W83458  19.105  19.473  12.100
16676W        W83459  11.283   3.425   0.439
16677W        W83460  15.715  10.061  10.297
16678W        W83461  39.432  12.765   1.473
16679W        W83462  14.610  15.629  13.837
16680W        W83463  22.955   4.980   1.160
16681W        W83464  34.022  25.062   3.800
16682W        W83465   4.390  36.618   3.182
16683W        W83466  21.321  10.676  14.968
16684W        W83467  12.963   8.832   3.540
16685W        W83468  24.025   7.450   3.152
16686W        W83469  42.008  41.470   0.842
16687W        W83470  19.519  33.720   2.755
16688W        W83471  15.469  43.743  12.607
16689W        W83472  14.755  39.912   3.025
16690W        W83473  26.479  38.758  11.943
16691W        W83474  12.073  39.601   3.338
16692W        W83475  14.256  41.353   1.211
16693W        W83476  26.291  26.154  10.185
16694W        W83477  41.874  18.905  13.169
16695W        W83478  32.577   6.632  14.922
16696W        W83479  29.064  16.672   1.059
16697W        W83480  12.064  14.658   1.834
16698W        W83481  27.608  11.211  10.750
16699W        W83482  34.179  27.209  10.709
16700W        W83483  23.070  11.239   2.115
16701W        W83484  10.920  29.429   2.652
16702W        W83485   5.884  42.873  12.905
16703W        W83486  35.216  11.211   1.796
16704W        W83487  21.103  17.469  13.405
16705W        W83488   1.292  36.076   0.374
16706W        W83489   7.788  22.810   3.815
16707W        W83490  30.137  17.668   2.078
16708W        W83491  32.098  34.856   4.021
16709W        W83492  25.791   6.432   0.154
16710W        W83493  25.016  32.733   3.624
16711W        W83494   7.391  20.262  12.820
16712W        W83495  38.499   8.039  14.529
16713W        W83496  38.629  20.688   4.808
16714W        W83497   5.503  25.150   0.850
16715W        W83498  37.025  34.963  12.953
16716W        W83499  29.457   2.343   3.582
16717W        W83500  44.128  11.502  10.462
16718W        W83501  23.024  10.127   2.814
16719W        W83502  19.594  31.600   0.789
16720W        W83503  37.616   0.947   0.537
16721W        W83504  32.926  10.035   1.851
16722W        W83505   9.402  33.111   2.857
16723W        W83506  18.741  12.903  11.957
16724W        W83507  13.344  32.569   4.331
16725W        W83508  11.960  30.994  12.595
16726W        W83509   0.539  25.942   1.692
16727W        W83510   3.807  44.926  12.040
16728W        W83511  29.993  38.443  12.575
16729W        W83512  14.513  31.514   2.323
16730W        W83513  30.945  36.459  13.956
16731W        W83514  31.138  44.286  12.053
16732W        W83515  41.257  11.792   1.333
16733W        W83516   4.574  21.554   0.964
16734W        W83517  10.548   5.765   9.844
16735W        W83518   2.316  10.619   0.460
16736W        W83519  40.183  25.530   2.541
16737W        W83520   1.983  23.442  12.979
16738W        W83521   8.260  34.826   4.792
16739W        W83522   0.539  34.771  11.156
16740W        W83523  40.754  41.375  12.637
16741W        W83524  20.819  38.266   2.809
16742W        W83525   9.701  41.046  13.416
16743W        W83526   3.282   4.396   4.807
16744W        W83527  17.655  31.949  14.520
16745W        W83528  11.371  31.603  11.156
16746W        W83529  39.313  15.123   1.561
16747W        W83530   3.651  18.315   2.347
16748W        W83531  16.141  17.062  14.852
16749W        W83532  23.061  37.580   4.310
16750W        W83533   8.236  20.991   2.253
16751W        W83534  44.768  44.525   4.693
16752W        W83535  40.559  14.410  14.812
16753W        W83536  14.696  32.466   3.827
16754W        W83537  39.322  25.747   0.203
16755W        W83538   7.174  10.294  13.335
16756W        W83539  17.684  32.982  11.108
16757W        W83540  16.072  28.379   4.566
16758W        W83541  41.827  20.476  14.806
16759W        W83542  37.772  23.137   2.677
16760W        W83543  17.288  44.150  13.146
16761W        W83544  13.235   8.955   4.164
16762W        W83545   0.831  19.754  13.122
16763W        W83546  36.029  20.808  14.021
16764W        W83547  18.092  30.046   0.213
16765W        W83548   2.377  41.042   4.024
16766W        W83549  42.074   6.780  10.686
16767W        W83550  22.037  10.258   1.256
16768W        W83551   6.950   1.976  13.326
16769W        W83552  21.165   7.911   3.245
16770W        W83553   7.339  33.039   1.207
16771W        W83554  19.516   7.457  14.868
16772W        W83555   2.240  35.667   1.307
16773W        W83556  19.265   4.253  12.979
16774W        W83557   9.336  18.237   1.065
16775W        W83558  40.278  44.295  12.540
16776W        W83559   3.893  36.392   1.968
16777W        W83560   1.703  21.813  11.426
16778W        W83561   6.766  29.111   2.240
16779W        W83562  29.792  38.943   4.135
16780W        W83563  32.380  10.286   3.159
16781W        W83564  40.761  41.912   3.010
16782W        W83565  32.113   6.621   3.840
16783W        W83566  21.317  31.923  11.178
16784W        W83567  44.892  29.525  14.004
16785W        W83568  24.423  38.475  14.665
16786W        W83569  15.600  11.251  12.873
16787W        W83570   4.717   1.410  14.606
16788W        W83571   4.479  40.290  10.003
16789W        W83572  43.947  37.569  12.931
16790W        W83573  10.350  32.574  13.274
16791W        W83574  31.471  15.343  12.431
16792W        W83575  19.135  17.793   0.427
16793W        W83576  28.687   8.275  13.582
16794W        W83577  24.080   6.899   4.725
16795W        W83578  29.495  12.735  12.386
16796W        W83579  41.918  37.271  14.040
16797W        W83580   5.659   3.615   2.454
16798W        W83581  37.573  22.536  13.428
16799W        W83582  18.048  38.370  14.836
16800W        W83583  35.986  41.549  12.973
16801W        W83584  12.416  30.426  11.056
16802W        W83585  37.185  39.260   4.241
16803W        W83586  30.426  44.669  11.451
16804W        W83587  10.841   1.742   1.550
16805W        W83588  10.902  25.728  12.002
16806W        W83589   0.229   6.821  14.964
16807W        W83590   8.232   3.596   3.701
16808W        W83591  40.597  28.575  11.996
16809W        W83592  40.298  16.744  13.368
16810W        W83593  14.062  32.993  11.135
16811W        W83594  29.006  32.631   4.109
16812W        W83595   5.999  14.335   3.153
16813W        W83596  44.272  10.152   0.688
16814W        W83597   0.242   3.244   0.904
16815W        W83598  38.818  33.702  13.270
16816W        W83599   3.456  39.479  10.979
16817W        W83600  14.277  23.681   4.146
16818W        W83601  23.472  27.653  14.818
16819W        W83602   7.498  35.808   0.792
16820W        W83603  40.395  30.402  12.898
16821W        W83604  15.037  36.895  12.063
16822W        W83605  21.434   0.908   1.309
16823W        W83606  25.711  33.467   2.804
16824W        W83607  28.989  12.201   0.810
16825W        W83608   3.247  23.198  13.898
16826W        W83609  40.859   5.293  10.394
16827W        W83610  34.040  26.006   2.743
16828W        W83611  41.138  37.160   0.455
16829W        W83612  25.527  16.749  11.854
16830W        W83613   5.320  17.566   2.760
16831W        W83614  33.560  34.485  10.500
16832W        W83615  12.300   8.915   0.456
16833W        W83616  27.494   9.187  10.958
16834W        W83617  30.475  39.954  13.606
16835W        W83618  34.534  28.656   1.811
16836W        W83619   8.180   1.771   1.735
16837W        W83620  17.013  25.565  13.396
16838W        W83621  17.875  13.862  14.244
16839W        W83622  34.601  12.620  10.936
16840W        W83623  17.792  28.827  14.369
16841W        W83624  36.904  14.337  12.937
16842W        W83625  29.872   3.271  11.238
16843W        W83626  10.731  15.580  11.679
16844W        W83627  41.530  21.994   0.012
16845W        W83628  39.227  41.272  11.164
16846W        W83629  29.352  16.623   4.646
16847W        W83630  31.751   6.616  11.158
16848W        W83631  11.605   1.799   1.621
16849W        W83632  13.580   4.012  13.733
16850W        W83633  35.455  12.664   1.771
16851W        W83634  38.939  17.548   2.076
16852W        W83635  30.656  39.961   3.674
16853W        W83636  18.723  37.055   4.657
16854W        W83637  43.018  19.591  13.488
16855W        W83638  29.724  23.472   1.159
16856W        W83639  24.795   8.286   0.638
16857W        W83640  10.901   0.190   0.737
16858W        W83641  39.897  22.604  11.908
16859W        W83642  18.890  27.947  10.804
16860W        W83643  12.572  31.653  13.494
16861W        W83644  16.065   6.076   2.974
16862W        W83645  41.222  13.823   1.965
16863W        W83646  33.294  22.099  12.427
16864W        W83647  24.754  32.120  13.798
16865W        W83648  20.699   7.093   1.296
16866W        W83649  36.048  27.951   0.455
16867W        W83650  21.172  16.584  11.209
16868W        W83651  38.019  33.525   3.926
16869W        W83652   8.816   8.777   2.806
16870W        W83653  37.454  38.400  13.526
16871W        W83654  28.941   3.381  14.806
16872W        W83655  12.886   6.846   1.722
16873W        W83656  34.917  38.880  11.777
16874W        W83657  35.732   4.811  12.494
16875W        W83658   0.391   5.657  12.372
16876W        W83659  17.544  18.350  12.624
16877W        W83660  23.694  36.295  14.041
16878W        W83661   6.471   0.493   3.695
16879W        W83662  15.024  31.602   3.837
16880W        W83663  29.154  32.194  14.425
16881W        W83664  35.905  24.921  12.153
16882W        W83665  13.845  39.910   2.467
16883W        W83666   4.332  40.590  10.778
16884W        W83667  17.670  36.610   3.032
16885W        W83668  27.169  25.052  11.034
16886W        W83669  25.421  31.071  11.010
16887W        W83670  23.800  40.542  11.441
16888W        W83671  11.984  36.431   0.381
16889W        W83672  30.303  28.520   2.291
16890W        W83673  17.174  39.596   1.061
16891W        W83674  40.293   5.966  11.971
16892W        W83675  41.938  12.969  11.604
16893W        W83676  13.085   5.496   2.876
16894W        W83677  44.021  17.910  14.800
16895W        W83678   4.912  37.031  14.444
16896W        W83679   1.062  18.511   3.160
16897W        W83680  40.075  15.848  11.577
16898W        W83681  42.711  28.417  14.547
16899W        W83682  40.216   9.204  12.082
16900W        W83683  34.003  35.515  10.822
16901W        W83684   6.925  35.207   3.855
16902W        W83685  34.437  19.670   0.257
16903W        W83686  20.577  41.903  11.248
16904W        W83687  44.802  13.293  10.140
16905W        W83688  43.525  13.092  11.619
16906W        W83689  20.924  18.730  12.451
16907W        W83690   7.340  23.984  14.174
16908W        W83691  33.926  24.577   2.488
16909W        W83692  34.948  43.438  13.138
16910W        W83693  23.247  25.436   3.270
16911W        W83694  23.190  36.619  10.757
16912W        W83695  15.189  36.563  13.836
16913W        W83696  41.699  29.513  14.453
16914W        W83697  36.371  37.515  13.844
16915W        W83698  11.882   2.953   2.669
16916W        W83699  16.531   9.872   2.699
16917W        W83700  38.782   6.759   1.510
16918W        W83701  17.188  10.802   2.381
16919W        W83702  41.866  23.971  12.164
16920W        W83703   7.206  26.697  10.767
16921W        W83704  40.124  44.450   1.936
16922W        W83705  39.534  26.684  12.885
16923W        W83706   5.021   8.339  12.383
16924W        W83707  27.755  38.880   1.403
16925W        W83708  27.594   4.460   3.690
16926W        W83709  11.965  21.540  10.234
16927W        W83710  37.122  41.540   0.325
16928W        W83711  17.755  42.698   0.100
16929W        W83712  21.340  26.434  13.324
16930W        W83713  42.156  43.951   2.039
16931W        W83714  33.423  41.503   0.271
16932W        W83715   1.207  32.160   2.750
16933W        W83716   5.492  28.531  10.748
16934W        W83717  38.318   9.388   2.907
16935W        W83718  30.571  12.959   3.648
16936W        W83719  39.822   5.757   1.873
16937W        W83720  20.084  32.882  14.105
16938W        W83721  30.423  42.876  11.573
16939W        W83722   0.962  17.795   3.617
16940W        W83723  30.497  30.909  13.400
16941W        W83724  13.774  25.256   1.945
16942W        W83725  32.233  33.446   0.251
16943W        W83726  34.984  26.407   3.093
16944W        W83727  37.237  11.412   0.504
16945W        W83728  33.962  26.537   1.457
16946W        W83729  27.076   3.512  12.818
16947W        W83730  13.390  29.649   2.020
16948W        W83731  17.810   6.715  14.247
16949W        W83732  21.614  20.610   3.841
16950W        W83733  38.843  11.848  12.397
16951W        W83734  26.787  43.253  11.547
16952W        W83735  22.479  13.880  14.878
16953W        W83736   5.834  44.951  11.632
16954W        W83737   9.248  24.985   0.758
16955W        W83738  28.020   9.659   0.504
16956W        W83739  33.906  28.012  12.981
16957W        W83740   2.289  21.234  13.021
16958W        W83741  39.933  11.137   1.326
16959W        W83742  29.714   5.576   1.294
16960W        W83743   5.231  32.114   1.224
16961W        W83744  32.735  18.625   5.398
16962W        W83745  23.464  41.147   2.789
16963W        W83746  35.354   3.931   1.285
16964W        W83747  29.594  22.734   0.020
16965W        W83748  14.831  19.135  12.106
16966W        W83749   8.342   5.813   2.911
16967W        W83750  20.810  35.396   3.715
16968W        W83751  28.443  38.514  13.725
16969W        W83752  17.880  29.635  14.986
16970W        W83753   0.094  37.848   2.272
16971W        W83754  15.295  34.001   0.181
16972W        W83755  28.356  28.144   1.860
16973W        W83756  32.889  42.915   2.349
16974W        W83757  27.246  13.394   3.586
16975W        W83758  10.901  42.972  13.365
16976W        W83759   4.932  32.070  14.853
16977W        W83760   4.471   0.138   0.442
16978W        W83761  40.559  17.034   4.137
16979W        W83762  16.675  30.516   4.739
16980W        W83763   3.782  10.862  13.104
16981W        W83764  29.007  20.802  14.045
16982W        W83765  13.393  24.619   1.266
16983W        W83766  41.577  16.647  11.151
16984W        W83767  44.146   5.719  12.946
16985W        W83768   1.270  44.964   3.990
16986W        W83769   0.153  26.912  13.966
16987W        W83770  38.944   5.026   5.002
16988W        W83771  16.247  19.188   0.731
16989W        W83772  22.736  27.515   2.830
16990W        W83773  38.572  43.540   4.073
16991W        W83774   3.906   8.921  11.087
16992W        W83775  34.086  22.324   3.221
16993W        W83776  28.623  39.600   0.281
16994W        W83777  10.001  41.003  12.002
16995W        W83778  37.506  33.204  14.624
16996W        W83779   9.690  19.497   3.272
16997W        W83780  42.469   9.803  11.974
16998W        W83781  38.119  11.278   0.635
16999W        W83782  15.261  38.445   2.754
17000W        W83783  42.562  42.853  14.697
17001W        W83784  44.936  20.233  14.926
17002W        W83785  37.713  39.856   2.087
17003W        W83786  19.597  29.528  11.531
17004W        W83787  17.184  38.639  13.965
17005W        W83788  23.273   1.913   0.212
17006W        W83789  32.720  23.108  13.853
17007W        W83790  38.425   0.971   4.046
17008W        W83791  22.460  20.358  10.743
17009W        W83792  25.542  10.872   4.616
17010W        W83793  35.247  10.255   0.865
17011W        W83794  13.828  12.887   1.866
17012W        W83795  31.480   5.851   4.574
17013W        W83796  31.644   8.611  14.066
17014W        W83797  38.821  29.889  12.455
17015W        W83798  39.899  40.297   1.401
17016W        W83799  42.073  44.437   2.268
17017W        W83800  25.901  21.285  12.281
17018W        W83801  12.674  41.906  10.464
17019W        W83802  23.631  28.537  13.785
17020W        W83803  18.620  35.642   1.156
17021W        W83804  38.055  16.239  10.737
17022W        W83805  20.084  13.249   1.458
17023W        W83806   9.156  21.070  13.826
17024W        W83807  13.169  10.947  10.113
17025W        W83808  21.582   5.449  12.432
17026W        W83809  26.068  30.824  14.289
17027W        W83810  42.307  25.743  13.113
17028W        W83811  44.448   5.156   4.983
17029W        W83812  27.857   8.242   0.538
17030W        W83813  42.931  19.591   3.902
17031W        W83814  15.904  18.666   1.860
17032W        W83815   0.321  10.069   0.353
17033W        W83816  27.180  21.099  11.966
17034W        W83817   0.322   9.854  12.514
17035W        W83818  29.154  22.601  14.297
17036W        W83819  13.282   6.211   0.869
17037W        W83820   7.935  17.742  11.177
17038W        W83821  13.117   7.513   4.152
17039W        W83822  11.730  10.426   0.982
17040W        W83823   4.742  16.065  13.827
17041W        W83824  34.842   0.929   1.246
17042W        W83825   4.198  10.670   0.690
17043W        W83826  14.733   8.385  13.306
17044W        W83827  29.470   4.238   2.864
17045W        W83828  44.271  20.762   2.805
17046W        W83829  43.407  21.446  12.984
17047W        W83830  28.503   0.035  11.682
17048W        W83831  10.106  32.404  10.593
17049W        W83832  33.015   8.922  13.883
17050W        W83833  42.352   3.209  12.821
17051W        W83834  20.119   6.232  12.586
17052W        W83835  31.830   2.397  11.388
17053W        W83836  21.188  14.218   1.933
17054W        W83837  35.505  23.230  13.590
17055W        W83838  10.699   3.986  11.017
17056W        W83839  39.950  30.419   3.287
17057W        W83840  33.219  17.463   1.414
17058W        W83841   7.898  36.092   0.948
17059W        W83842  32.553  25.805   2.235
17060W        W83843  24.400  44.454   2.813
17061W        W83844  26.694  33.487   1.959
17062W        W83845  20.233  43.719   0.408
17063W        W83846  37.976  29.691   1.419
17064W        W83847  18.149  22.856  14.567
17065W        W83848   1.862  36.373   1.258
17066W        W83849   4.502   8.987   4.397
17067W        W83850  16.634  35.951  11.820
17068W        W83851  44.162  31.597   0.879
17069W        W83852  38.959  30.659  13.096
17070W        W83853  38.874  22.914  12.925
17071W        W83854   4.375  40.072   2.578
17072W        W83855  26.303   4.800   2.191
17073W        W83856  10.778  42.748  14.499
17074W        W83857  16.542   2.369  14.786
17075W        W83858  29.175  15.379   4.724
17076W        W83859   2.878  30.643  14.289
17077W        W83860  42.928  25.767  10.877
17078W        W83861  37.498  22.424  12.612
17079W        W83862   6.125  21.063   1.293
17080W        W83863  36.070  22.482   3.795
17081W        W83864  21.672  34.578   2.165
17082W        W83865  37.002  13.329  14.896
17083W        W83866  23.486  13.639   3.203
17084W        W83867   5.167   8.850  14.382
17085W        W83868   2.239  38.565   1.318
17086W        W83869   5.761  29.978  14.792
17087W        W83870  32.802  20.210   0.737
17088W        W83871  13.152   7.162   9.762
17089W        W83872  14.576  34.923  13.379
17090W        W83873  33.305   8.297  11.766
17091W        W83874  37.670  43.483   3.160
17092W        W83875   2.168   1.758  13.386
17093W        W83876   4.918  19.518   0.823
17094W        W83877  41.294  19.131   2.188
17095W        W83878  30.942  44.811  14.346
17096W        W83879  14.836  20.687   2.382
17097W        W83880   3.196  36.109   0.323
17098W        W83881  43.313  29.203   2.952
17099W        W83882   0.297  35.537   3.520
17100W        W83883   0.495  33.913   2.207
17101W        W83884  43.688  29.004  13.798
17102W        W83885  32.714  22.199   4.497
17103W        W83886   7.787  35.413   4.354
17104W        W83887  26.626  28.897  13.942
17105W        W83888  27.187  16.839   4.384
17106W        W83889   8.749  44.515   3.713
17107W        W83890  22.746  39.380  11.193
17108W        W83891   0.966  39.468   0.318
17109W        W83892  13.294  21.543   2.128
17110W        W83893  43.433  42.462   2.626
17111W        W83894  10.857  17.061  11.174
17112W        W83895  32.641  30.447   2.525
17113W        W83896   9.186  23.353  14.475
17114W        W83897  16.702  25.495   4.138
17115W        W83898  12.228  13.307   0.036
17116W        W83899  12.863  42.732  13.386
17117W        W83900  21.789   6.320  11.631
17118W        W83901  37.292  16.814  11.966
17119W        W83902  43.501  44.144  12.985
17120W        W83903  10.201  30.844   0.726
17121W        W83904  40.257   4.691  10.679
17122W        W83905  33.135  19.880  10.892
17123W        W83906  37.073  37.535  12.284
17124W        W83907  35.793  32.552  12.295
17125W        W83908  42.037  32.438   4.083
17126W        W83909  14.025  38.345   0.339
17127W        W83910  26.832   4.430   0.777
17128W        W83911  39.961  37.543  12.161
17129W        W83912  37.842  20.055   0.837
17130W        W83913   0.078  26.559   3.213
17131W        W83914  21.063  40.837   0.418
17132W        W83915  14.181  29.861   2.681
17133W        W83916  30.608   8.170  11.563
17134W        W83917  41.661   1.735   3.307
17135W        W83918  29.568  20.765   0.922
17136W        W83919  39.541  40.045   3.225
17137W        W83920  42.452   3.408   4.893
17138W        W83921  42.040  16.172  13.527
17139W        W83922   5.654   2.811  10.629
17140W        W83923  40.995   7.873  10.746
17141W        W83924  21.247   8.418   3.173
17142W        W83925  10.394   1.559  14.304
17143W        W83926  43.757   5.349  12.026
17144W        W83927  29.981  32.219   3.660
17145W        W83928  26.449  10.277  11.958
17146W        W83929  11.795  19.958  14.820
17147W        W83930  13.553  40.882  10.839
17148W        W83931  29.537  39.504   0.278
17149W        W83932  38.667   5.707  12.622
17150W        W83933   3.689  26.693  13.456
17151W        W83934   1.435  32.322  12.579
17152W        W83935  39.461   8.393  10.690
17153W        W83936  42.175   1.457   0.328
17154W        W83937  39.525  29.620  10.954
17155W        W83938  42.419   1.689   1.710
17156W        W83939  38.093  30.588   1.402
17157W        W83940  36.986   4.961  11.598
17158W        W83941  24.462   8.425  12.471
17159W        W83942   6.372   2.793   2.622
17160W        W83943  34.092  18.096  13.060
17161W        W83944  39.542  10.525   5.015
17162W        W83945  14.637  34.351  14.840
17163W        W83946  28.638   9.805  13.820
17164W        W83947   6.704   7.442  14.227
17165W        W83948  34.067   8.252  11.142
17166W        W83949  31.356  19.081   4.802
17167W        W83950  29.994   8.923   1.341
17168W        W83951  41.470  16.182  11.900
17169W        W83952  38.787  30.581  13.583
17170W        W83953   7.763  32.063   1.905
17171W        W83954  27.129   4.645   2.551
17172W        W83955  23.945  34.032   0.507
17173W        W83956   1.841  20.924   0.706
17174W        W83957   8.277  44.801  13.533
17175W        W83958  24.872  43.291  12.702
17176W        W83959  21.120  38.934   1.347
17177W        W83960  34.223  39.841   1.116
17178W        W83961  39.415  21.764  12.599
17179W        W83962  37.080  12.693  12.548
17180W        W83963  37.422  40.556   4.949
17181W        W83964  14.913   8.865   0.303
17182W        W83965  33.219  24.179   3.641
17183W        W83966   6.420  12.628  10.235
17184W        W83967  38.093  38.273  12.855
17185W        W83968  28.741  11.074   2.858
17186W        W83969  19.781  35.359   3.852
17187W        W83970  37.148  15.764  12.077
17188W        W83971  21.718  29.163  11.607
17189W        W83972   9.247  12.431  11.020
17190W        W83973  27.504  39.474  11.559
17191W        W83974  28.976  13.758   3.292
17192W        W83975   0.969  24.023   2.872
17193W        W83976  38.981  41.325  10.683
17194W        W83977  22.561  11.016  14.455
17195W        W83978  26.902  13.525  12.476
17196W        W83979   0.998  13.891   2.884
17197W        W83980   6.453   7.275  13.417
17198W        W83981  32.079  44.341   2.676
17199W        W83982  36.035  37.336   0.571
17200W        W83983  19.185  28.478   3.282
17201W        W83984  14.303  34.352  12.945
17202W        W83985  39.283  11.549  10.728
17203W        W83986  18.846  37.815   2.820
17204W        W83987  41.481  18.335  11.622
17205W        W83988  41.390  38.758   2.324
17206W        W83989   9.659  43.520   0.838
17207W        W83990  38.623  35.557   0.361
17208W        W83991   5.314   9.748  14.312
17209W        W83992   0.444  34.166   0.792
17210W        W83993  44.056  33.962   3.322
17211W        W83994  42.718  31.170  14.208
17212W        W83995  10.916   8.121  11.805
17213W        W83996  38.518  12.697  12.356
17214W        W83997   3.966  44.899   3.236
17215W        W83998   4.200  29.972  12.110
17216W        W83999  44.989   3.340  13.321
17217W        W84000  43.010  10.817   3.764
17218W        W84001  32.446  25.576  14.405
17219W        W84002   9.413  32.884  10.536
17220W        W84003  20.661  14.403  11.605
17221W        W84004  18.755   0.994   4.606
17222W        W84005  24.785  13.057   4.224
17223W        W84006   8.613  44.184   4.089
17224W        W84007  10.949  23.940   2.762
17225W        W84008  40.427  13.301   1.734
17226W        W84009   9.753  38.944  11.547
17227W        W84010  28.589   2.782  14.841
17228W        W84011  42.034   3.714   4.908
17229W        W84012  41.414  12.671   0.738
17230W        W84013   9.343  30.912   0.322
17231W        W84014  34.730   6.356  11.150
17232W        W84015  32.435  42.640  11.768
17233W        W84016  33.089  35.286  13.752
17234W        W84017   6.492  41.196   3.196
17235W        W84018  16.249  43.070  13.514
17236W        W84019  27.595  42.257   0.483
17237W        W84020  15.759  40.903  12.054
17238W        W84021  30.647  40.788  14.469
17239W        W84022  12.229  20.321   4.026
17240W        W84023   5.335  32.374  11.146
17241W        W84024  37.084   5.965   1.368
17242W        W84025  11.701  22.965   0.635
17243W        W84026  13.647  12.917  13.011
17244W        W84027  33.930  25.608   1.822
17245W        W84028  16.845   9.655   3.249
17246W        W84029  42.291  22.515   0.025
17247W        W84030  41.363  11.399   2.666
17248W        W84031  27.522  42.505   4.120
17249W        W84032  44.032   1.520   0.327
17250W        W84033  14.647  30.869  13.356
17251W        W84034  28.450   5.714   0.274
17252W        W84035  35.407  31.864   5.143
17253W        W84036  12.925  16.255   2.895
17254W        W84037   2.445  26.924  14.047
17255W        W84038   8.904  23.746   1.220
17256W        W84039  13.562  22.269   2.031
17257W        W84040  10.281   2.464  13.326
17258W        W84041  11.134  17.993   2.524
17259W        W84042  36.781  19.985  10.809
17260W        W84043  35.315   7.574  12.490
17261W        W84044  18.714   3.706   0.226
17262W        W84045  37.362   2.185  11.200
17263W        W84046  25.712   3.388  12.448
17264W        W84047  30.482  12.955  12.450
17265W        W84048   5.630  35.428   3.823
17266W        W84049  13.223  14.835   4.204
17267W        W84050  20.799   8.690   3.055
17268W        W84051  19.251  34.048   2.429
17269W        W84052   4.904  30.216   1.230
17270W        W84053   2.800  25.209  10.843
17271W        W84054  26.164   5.245   2.460
17272W        W84055  20.433  34.600  14.993
17273W        W84056  23.735  10.248  14.745
17274W        W84057  25.019  13.325  13.795
17275W        W84058  23.305  18.233   1.151
17276W        W84059  22.254  39.589   1.732
17277W        W84060  14.431  27.125  14.071
17278W        W84061  29.601  18.595  14.810
17279W        W84062  32.344  22.212  11.171
17280W        W84063  19.043  40.971   4.186
17281W        W84064   2.904  24.307   2.604
17282W        W84065  37.782  24.036   5.093
17283W        W84066  31.864  27.148  13.940
17284W        W84067   6.719  24.751  12.835
17285W        W84068   5.782  39.482  10.822
17286W        W84069  20.032  30.116   1.788
17287W        W84070  12.350   7.730   1.751
17288W        W84071   3.829  33.007   0.953
17289W        W84072  30.552  24.435  11.964
17290W        W84073   4.296  26.723   4.604
17291W        W84074   3.134   9.111  11.087
17292W        W84075  23.730   1.919  13.551
17293W        W84076  11.752  19.796   9.887
17294W        W84077   9.340   7.726   3.088
17295W        W84078  15.811  25.264  11.072
17296W        W84079  16.810  22.072   0.813
17297W        W84080  27.451  31.822  14.049
17298W        W84081   1.701  17.779  10.511
17299W        W84082   6.295   8.886   3.554
17300W        W84083  22.075  15.676   1.212
17301W        W84084   9.187  34.907   0.676
17302W        W84085  26.737   8.775  13.650
17303W        W84086   4.697  44.968  13.090
17304W        W84087  39.845   4.998  10.742
17305W        W84088  19.106  42.786   4.704
17306W        W84089   3.917  11.014   4.229
17307W        W84090  14.567  35.341  12.451
17308W        W84091  28.042   9.477   5.032
17309W        W84092  11.132  35.715   4.452
17310W        W84093  37.434  14.606   3.716
17311W        W84094  27.979  21.104   5.030
17312W        W84095  35.573  35.787   2.356
17313W        W84096  22.256   0.915   1.045
17314W        W84097  39.604  21.278  10.329
17315W        W84098   0.467   8.232   1.827
17316W        W84099  16.731  25.269  14.643
17317W        W84100  27.893  27.886  13.122
17318W        W84101  43.927  39.875   2.437
17319W        W84102   7.770  41.797  10.712
17320W        W84103  18.164  34.031   0.016
17321W        W84104  37.749  20.635  14.595
17322W        W84105  33.300  18.507   1.159
17323W        W84106  11.901  41.076  14.480
17324W        W84107  28.867   2.884   2.317
17325W        W84108  18.256  34.592   1.797
17326W        W84109  38.102  42.830  12.159
17327W        W84110  31.534  36.266  10.785
17328W        W84111  30.757  30.573   4.090
17329W        W84112  19.944  10.746   3.761
17330W        W84113  35.117  41.322   3.714
17331W        W84114  11.920  33.758   4.530
17332W        W84115   3.300  31.106  13.527
17333W        W84116  10.685  25.269   2.230
17334W        W84117  24.281  19.686  10.394
17335W        W84118  44.843  32.596  11.136
17336W        W84119  34.435  36.644   3.794
17337W        W84120  28.920  13.073  14.051
17338W        W84121   7.006  27.072   3.283
17339W        W84122   8.476   4.454  12.386
17340W        W84123  13.853  35.971   5.463
17341W        W84124  39.522  43.758   1.773
17342W        W84125  14.747  34.731   1.204
17343W        W84126  31.680   1.507   0.034
17344W        W84127  24.466  13.187   1.856
17345W        W84128  21.237  28.984  14.548
17346W        W84129  36.112  11.664  10.770
17347W        W84130  21.562  36.900  12.966
17348W        W84131  10.824  21.587  12.712
17349W        W84132  29.119  41.008   2.629
17350W        W84133  42.092   5.718  12.511
17351W        W84134   0.643  32.478   3.358
17352W        W84135  20.066  29.407   5.027
17353W        W84136  10.221  38.599   0.074
17354W        W84137  32.658  14.841  10.557
17355W        W84138  11.622   2.026   3.522
17356W        W84139  42.669   4.883   2.065
17357W        W84140  28.066  32.089   3.442
17358W        W84141   7.774   9.811  11.523
17359W        W84142  41.539  29.182  12.132
17360W        W84143  35.600  32.681   1.319
17361W        W84144  21.758  38.545   1.714
17362W        W84145  31.542   9.614   0.842
17363W        W84146  18.668  10.648   1.263
17364W        W84147  23.524  20.279  11.589
17365W        W84148  24.073  21.003   3.637
17366W        W84149  28.713  11.065  11.116
17367W        W84150  34.333  12.584  13.380
17368W        W84151  17.275  25.250  13.950
17369W        W84152  32.562  19.429  13.020
17370W        W84153  15.102  30.297  11.503
17371W        W84154  30.291  28.948  13.273
17372W        W84155   5.304  12.645  10.689
17373W        W84156  29.807  28.185  11.884
17374W        W84157   4.966  17.906   4.140
17375W        W84158  15.453  24.667  13.107
17376W        W84159  16.997  35.463   2.490
17377W        W84160   1.388  39.974  10.754
17378W        W84161  31.057  20.951   2.758
17379W        W84162  10.813   0.561   3.159
17380W        W84163  36.065  16.770  12.986
17381W        W84164  39.057  28.849   0.731
17382W        W84165   2.872  35.384   1.008
17383W        W84166  25.179   1.188   0.732
17384W        W84167  14.668  41.949  12.971
17385W        W84168  44.264   2.841   5.062
17386W        W84169   9.756   3.681   2.356
17387W        W84170  24.148  23.136   2.415
17388W        W84171  12.821  29.131  14.858
17389W        W84172  29.954  21.275  14.208
17390W        W84173  11.134  22.455  12.139
17391W        W84174  17.579   4.521  11.686
17392W        W84175  13.184  40.970  13.934
17393W        W84176   1.927  39.557   3.109
17394W        W84177  42.732  19.025  13.278
17395W        W84178   7.032   5.708   0.596
17396W        W84179  23.102   9.372   0.466
17397W        W84180   2.056  17.984  12.798
17398W        W84181  32.340  35.848  14.504
17399W        W84182  25.596  29.057  14.000
17400W        W84183  38.341  33.766  11.567
17401W        W84184   1.400  16.130  14.041
17402W        W84185  43.917  27.385   1.276
17403W        W84186   0.911  24.084   4.525
17404W        W84187  10.360   1.064   2.673
17405W        W84188   4.789  13.033   3.986
17406W        W84189  22.061  13.303  11.484
17407W        W84190  43.566  35.170   4.049
17408W        W84191  42.978  24.034  12.069
17409W        W84192  16.670  18.610  12.513
17410W        W84193  15.020  33.102   0.207
17411W        W84194   2.771  14.849   0.914
17412W        W84195  23.774   3.441   2.701
17413W        W84196   3.483  40.094  14.737
17414W        W84197  36.398   4.650   2.731
17415W        W84198  42.835  38.294   3.749
17416W        W84199  10.323  23.025   4.145
17417W        W84200  25.943  32.476   2.123
17418W        W84201  10.846  35.800   3.286
17419W        W84202  20.310   3.652  12.083
17420W        W84203  32.627  29.534   3.601
17421W        W84204  31.347   8.078  11.114
17422W        W84205   1.200  31.207   1.447
17423W        W84206  23.608  43.067  12.010
17424W        W84207  32.462  40.286   1.437
17425W        W84208  20.854  40.478  11.957
17426W        W84209  22.346   8.518  10.424
17427W        W84210  28.478   6.539  14.929
17428W        W84211  12.067  22.144  13.174
17429W        W84212   0.241  34.145  11.803
17430W        W84213   2.979   2.533   4.620
17431W        W84214  32.138  27.900   4.606
17432W        W84215  20.428  22.989   2.281
17433W        W84216  30.192   1.365   3.301
17434W        W84217   6.207  38.349   3.980
17435W        W84218  42.212  10.143   1.324
17436W        W84219  22.008  13.104   2.335
17437W        W84220  31.939  32.344   3.728
17438W        W84221  36.604  29.109  14.320
17439W        W84222  42.741  29.917  11.237
17440W        W84223  11.056   9.919   0.941
17441W        W84224   0.875  27.696   2.873
17442W        W84225  30.388  41.007   2.139
17443W        W84226  35.430  25.194  11.472
17444W        W84227  19.592  32.080   1.009
17445W        W84228  26.596  42.063  10.579
17446W        W84229   9.846  18.163  10.247
17447W        W84230  22.022  39.531  14.029
17448W        W84231  28.586  19.227  10.591
17449W        W84232  17.243  39.301   3.047
17450W        W84233   8.111  24.625   4.246
17451W        W84234  13.476  19.149  11.513
17452W        W84235  25.224  27.514  10.499
17453W        W84236   7.229  16.874   3.081
17454W        W84237  31.373  15.161  13.538
17455W        W84238  44.967  27.168   0.391
17456W        W84239  33.980  24.704  12.892
17457W        W84240  31.162  38.432  10.722
17458W        W84241  21.645  15.921  11.109
17459W        W84242  41.590   4.860   3.165
17460W        W84243  36.594  12.517  12.672
17461W        W84244  43.826  18.295   1.015
17462W        W84245  39.914  16.827  10.560
17463W        W84246  16.334  28.058   0.068
17464W        W84247  19.530   2.789  11.589
17465W        W84248  16.850  22.769   1.230
17466W        W84249  25.617  28.239   1.722
17467W        W84250   0.381  38.914   3.684
17468W        W84251   0.689  21.713  13.437
17469W        W84252   7.783   9.833   3.300
17470W        W84253  15.381  29.871  11.431
17471W        W84254  22.810  30.733  13.976
17472W        W84255  18.732   2.778   2.295
17473W        W84256   3.212  28.987   3.401
17474W        W84257  17.996   5.841   0.538
17475W        W84258   2.045  33.459   2.784
17476W        W84259  21.737  28.739  14.376
17477W        W84260  15.582  14.587   3.515
17478W        W84261  14.314  40.751   2.762
17479W        W84262  26.059  24.151   4.620
17480W        W84263  31.623  37.378   3.753
17481W        W84264  39.589  33.578   0.590
17482W        W84265  21.638  22.049   3.431
17483W        W84266  42.291   9.774   3.109
17484W        W84267  15.174  18.073   4.395
17485W        W84268  29.303  36.190  14.994
17486W        W84269   9.613   8.181   1.957
17487W        W84270   4.893  14.602  13.432
17488W        W84271  10.127  44.530   2.737
17489W        W84272  36.331  10.751   2.968
17490W        W84273  23.506  18.210   0.002
17491W        W84274  10.233  13.864  13.442
17492W        W84275  15.807   5.734   4.777
17493W        W84276  15.152  10.720   2.931
17494W        W84277   1.052  18.395   5.103
17495W        W84278  12.736  42.958   3.203
17496W        W84279  32.126  36.768   2.388
17497W        W84280   8.851  42.442   1.276
17498W        W84281   6.565   5.776  11.180
17499W        W84282  37.400  12.352   2.081
17500W        W84283  33.995  34.156   2.679
17501W        W84284   8.860  28.249   3.653
17502W        W84285  18.713  40.638  12.881
17503W        W84286  29.876   9.408   3.712
17504W        W84287   7.831  30.276  13.516
17505W        W84288  14.312  10.076  10.491
17506W        W84289  35.311   9.682  10.146
17507W        W84290  25.352  18.506   1.870
17508W        W84291   6.544  28.758   3.689
17509W        W84292   2.015  28.937  12.106
17510W        W84293  28.650  30.391  10.924
17511W        W84294  15.218   6.666   0.889
17512W        W84295  29.602  13.901   5.063
17513W        W84296  44.296  18.301   4.097
17514W        W84297   8.797  19.487   0.726
17515W        W84298  24.111  17.866   4.589
17516W        W84299  24.576   6.033  13.333
17517W        W84300  10.702   9.618   2.098
17518W        W84301   4.192  14.209  12.254
17519W        W84302  39.795   1.934   3.940
17520W        W84303   6.462  16.662   4.818
17521W        W84304   5.852  18.613   0.977
17522W        W84305  18.588  32.665  12.008
17523W        W84306   7.708  44.887  12.183
17524W        W84307  27.660  27.222   0.125
17525W        W84308   2.023  12.377   0.542
17526W        W84309  27.049  15.899  13.437
17527W        W84310   4.612   7.837   2.938
17528W        W84311  28.539  30.393   2.222
17529W        W84312  29.653  26.174   0.514
17530W        W84313  15.465  44.181  13.207
17531W        W84314   4.347  35.403   1.277
17532W        W84315  35.562  44.259   0.093
17533W        W84316   0.313   1.363   2.340
17534W        W84317  10.465  14.563  13.925
17535W        W84318  36.215  30.146  14.343
17536W        W84319  35.327  15.776  11.376
17537W        W84320  33.541  37.147   0.920
17538W        W84321   2.238  37.458   1.864
17539W        W84322  16.071  13.493  11.627
17540W        W84323   5.183   1.322  14.376
17541W        W84324   6.851  34.677   3.706
17542W        W84325   1.798  38.101  12.153
17543W        W84326  16.157  34.564   1.663
17544W        W84327   9.447  16.581  12.162
17545W        W84328  29.968  38.683  12.135
17546W        W84329   9.932  37.054  13.591
17547W        W84330  34.477  31.021   4.822
17548W        W84331   1.747  15.258   2.778
17549W        W84332   2.946  33.560   0.498
17550W        W84333  33.909  39.470  12.553
17551W        W84334  23.008  31.851  12.535
17552W        W84335   5.787  35.535   1.151
17553W        W84336   6.108   4.431   3.976
17554W        W84337  17.291  29.908  11.932
17555W        W84338  40.953  43.546   1.176
17556W        W84339  26.237   9.330   0.230
17557W        W84340  38.053  29.097  14.764
17558W        W84341  21.972  18.624  14.766
17559W        W84342   0.909  18.276  14.850
17560W        W84343  16.163   8.582   0.276
17561W        W84344   6.096  17.141  11.794
17562W        W84345  44.461  18.559   2.425
17563W        W84346   1.439  10.702  13.841
17564W        W84347  12.747  16.617   3.237
17565W        W84348  33.894  10.224   1.423
17566W        W84349  35.847  33.019  12.094
17567W        W84350  26.000  18.866  11.601
17568W        W84351  19.142  11.312   1.191
17569W        W84352  17.682   3.778   1.321
17570W        W84353  17.526   6.333  14.480
17571W        W84354   8.630  41.904   4.521
17572W        W84355   7.660  37.079  12.316
17573W        W84356  44.852  11.264  12.033
17574W        W84357   0.368  27.885  11.364
17575W        W84358  11.248  17.283   0.019
17576W        W84359   1.970  16.582  13.411
17577W        W84360  34.390  24.584   2.275
17578W        W84361   3.864   9.652  13.861
17579W        W84362  43.904  36.343  14.358
17580W        W84363   4.712   6.873  10.548
17581W        W84364  12.739  37.148   0.772
17582W        W84365  43.896  26.498  10.226
17583W        W84366  15.402  21.832  13.158
17584W        W84367   3.174  44.412  10.881
17585W        W84368   5.164  42.260  12.501
17586W        W84369  19.507  32.532   3.127
17587W        W84370  43.275   9.694  13.875
17588W        W84371  40.830  28.681   1.843
17589W        W84372  34.812  39.483  14.778
17590W        W84373   5.230   6.132   2.286
17591W        W84374   9.772  30.920  12.619
17592W        W84375  19.024   6.379   3.736
17593W        W84376   1.711  26.935   1.367
17594W        W84377  30.597  23.569   3.896
17595W        W84378   6.825  37.639  13.335
17596W        W84379  21.870   8.400   3.067
17597W        W84380  10.710  32.379  12.819
17598W        W84381  13.144  18.695  14.965
17599W        W84382  16.212  26.935  12.156
17600W        W84383  38.036   9.665  14.942
17601W        W84384  12.617   7.984  12.472
17602W        W84385   7.162  16.746  13.840
17603W        W84386  40.912  33.810   1.828
17604W        W84387  10.864  21.148   0.784
17605W        W84388   6.269  24.498  10.227
17606W        W84389  36.477  22.785   3.613
17607W        W84390  15.040  16.869   2.418
17608W        W84391  38.851  29.177   4.231
17609W        W84392  33.538  38.204  13.341
17610W        W84393  13.201   6.537   4.768
17611W        W84394  43.395  24.838  14.779
17612W        W84395  19.042  32.923   0.827
17613W        W84396  10.154  23.108  12.916
17614W        W84397   3.005  39.071   1.396
17615W        W84398  39.436   3.955   1.494
17616W        W84399  13.956  24.067   3.182
17617W        W84400  31.600  25.765  13.286
17618W        W84401  29.692  41.836   3.963
17619W        W84402  20.140  16.291   4.320
17620W        W84403   0.458   2.694   4.558
17621W        W84404  28.927  22.582   3.862
17622W        W84405  11.785  41.838  11.779
17623W        W84406  11.376  16.746   2.261
17624W        W84407  40.519  32.856   0.419
17625W        W84408  32.185  30.900   2.318
17626W        W84409  25.724   7.933   3.635
17627W        W84410  13.072  20.663   0.033
17628W        W84411  34.953   9.515   9.797
17629W        W84412  34.069  27.116   0.740
17630W        W84413  28.529  28.586   4.747
17631W        W84414  16.048  34.522   2.231
17632W        W84415  25.351   5.162  14.021
17633W        W84416  23.076   7.611   5.104
17634W        W84417  19.727  34.802   0.346
17635W        W84418  42.942  18.654   0.350
17636W        W84419  42.716   2.350  14.665
17637W        W84420  23.187  29.344   1.789
17638W        W84421  12.350  16.129  11.183
17639W        W84422  37.089   3.352  11.640
17640W        W84423  22.819  44.970  13.630
17641W        W84424  26.941   2.459   0.306
17642W        W84425  40.290  44.458  11.701
17643W        W84426  25.457  10.229  11.488
17644W        W84427  33.497  30.411   1.343
17645W        W84428  37.352  26.229   4.532
17646W        W84429  25.202  22.195  10.363
17647W        W84430   1.680  25.979   2.293
17648W        W84431  35.088  16.134   2.753
17649W        W84432   0.428  13.907  10.756
17650W        W84433   2.726  21.644   1.928
17651W        W84434   1.293  38.025   3.286
17652W        W84435  22.046  43.992   3.221
17653W        W84436  41.152  10.628   2.431
17654W        W84437  20.016  24.570  14.368
17655W        W84438   5.953  11.255   4.700
17656W        W84439  34.618  25.410   3.258
17657W        W84440   2.795  32.004  13.947
17658W        W84441   7.696  20.140  13.762
17659W        W84442  35.551  43.874   4.483
17660W        W84443   0.189  15.942  12.522
17661W        W84444  30.495  19.536   4.054
17662W        W84445   8.610   4.859   4.524
17663W        W84446   5.926  43.885   2.341
17664W        W84447  32.649  28.061  12.334
17665W        W84448  16.712  34.446  10.674
17666W        W84449  27.739  42.406  13.382
17667W        W84450  21.978  29.386  11.160
17668W        W84451  39.283   9.747  11.317
17669W        W84452   3.296  32.658   0.708
17670W        W84453   0.864  36.489   1.179
17671W        W84454  41.292  32.169   0.769
17672W        W84455  30.883  26.805  13.914
17673W        W84456  16.082  16.776  14.413
17674W        W84457  33.394  27.552   3.979
17675W        W84458   6.370  35.943  14.830
17676W        W84459  37.975  34.048   4.195
17677W        W84460   0.746  36.268  14.419
17678W        W84461  42.384  29.595  10.517
17679W        W84462  10.396  24.174   2.687
17680W        W84463  33.076  43.869  12.962
17681W        W84464  21.460   5.980   3.279
17682W        W84465   4.568  20.718  12.642
17683W        W84466  15.643  20.109  14.353
17684W        W84467   1.447  31.509   3.416
17685W        W84468   5.544   7.881   1.726
17686W        W84469  36.873  36.906  13.866
17687W        W84470  43.769  43.751   3.574
17688W        W84471   9.621  17.594   1.304
17689W        W84472  21.446   0.492   0.514
17690W        W84473   5.871  21.636  10.689
17691W        W84474  37.409  12.830   3.189
17692W        W84475  31.299  18.471   2.225
17693W        W84476  11.874  28.450   3.170
17694W        W84477  35.534  19.300   4.092
17695W        W84478  29.557  35.576  12.921
17696W        W84479  18.625  12.439   1.901
17697W        W84480  40.138   8.276  14.938
17698W        W84481  21.490  22.130   1.677
17699W        W84482  26.456  16.027   0.897
17700W        W84483  14.552  27.204   1.189
17701W        W84484  17.333  23.477  10.802
17702W        W84485   5.503  40.910  13.318
17703W        W84486  20.663  22.474  11.036
17704W        W84487  13.148  15.630   1.956
17705W        W84488  42.159  21.130   1.849
17706W        W84489  27.474  39.161  11.978
17707W        W84490  33.855   6.272   3.562
17708W        W84491  30.679   9.297  14.526
17709W        W84492  32.334  24.195   3.163
17710W        W84493  17.076   8.316   1.292
17711W        W84494  39.908  16.317   4.707
17712W        W84495  36.770  38.812  14.007
17713W        W84496  24.007  17.029   2.241
17714W        W84497  38.896   6.477  14.001
17715W        W84498  21.186  43.954   4.541
17716W        W84499  23.948   4.337   0.723
17717W        W84500  37.119  28.973  12.551
17718W        W84501   0.415  14.763   5.319
17719W        W84502   1.673   6.622   4.160
17720W        W84503   2.784  42.404   1.908
17721W        W84504  27.581  34.303  12.216
17722W        W84505   9.304   7.983  14.013
17723W        W84506  15.400  18.347  11.643
17724W        W84507  31.080   2.517  12.435
17725W        W84508  33.193   5.851  14.071
17726W        W84509  26.654  20.541  11.311
17727W        W84510  41.233  31.572  11.443
17728W        W84511   1.146  26.562   2.285
17729W        W84512  24.719  14.372  11.890
17730W        W84513  26.871  39.437  12.959
17731W        W84514  33.611  15.650   2.827
17732W        W84515  37.866  25.381  12.799
17733W        W84516   8.267   6.043  14.884
17734W        W84517  18.086   3.300  12.459
17735W        W84518  39.335  16.256  12.648
17736W        W84519  16.196   7.675   1.986
17737W        W84520  17.008  38.832  12.371
17738W        W84521   0.475  13.101  12.921
17739W        W84522  10.384  32.758  14.889
17740W        W84523   8.368  12.084   0.278
17741W        W84524   8.986  28.725  10.847
17742W        W84525  37.982  10.877   0.325
17743W        W84526  11.137  30.616   3.253
17744W        W84527  19.368  27.236  12.546
17745W        W84528  19.088   8.734  12.031
17746W        W84529  11.174  39.366  11.653
17747W        W84530  33.289  15.117   1.115
17748W        W84531   5.224  16.379  10.848
17749W        W84532  39.521  43.485  13.589
17750W        W84533  21.894  40.400  13.054
17751W        W84534  26.277  37.968   0.837
17752W        W84535  34.885  31.891  10.586
17753W        W84536  22.215  17.537   4.615
17754W        W84537  15.117  26.172  13.946
17755W        W84538   4.352  41.023   1.223
17756W        W84539  31.926  39.105  13.437
17757W        W84540  13.185   3.614  12.474
17758W        W84541  24.933  10.872   1.558
17759W        W84542   4.133   4.740   2.190
17760W        W84543   5.660   8.682  11.622
17761W        W84544   9.678  30.424  12.450
17762W        W84545   8.710   6.214   1.334
17763W        W84546  14.775  25.915  10.730
17764W        W84547   9.656  15.924  14.461
17765W        W84548  23.148  35.847   2.125
17766W        W84549   7.185  29.933   3.933
17767W        W84550  19.019   0.728  13.492
17768W        W84551  13.161  36.526  14.990
17769W        W84552  24.133  44.460  11.565
17770W        W84553  19.768   3.376   2.789
17771W        W84554   5.389  35.571  11.071
17772W        W84555  34.419  36.370   1.959
17773W        W84556  25.331  31.605  14.008
17774W        W84557  32.790  22.790   3.210
17775W        W84558  43.905  15.337  13.504
17776W        W84559  34.014  31.557  11.511
17777W        W84560  23.562  17.100  14.786
17778W        W84561  16.997  19.371   4.492
17779W        W84562  43.021  12.492  13.587
17780W        W84563  25.189  14.115  10.650
17781W        W84564  18.001  31.081   2.221
17782W        W84565  12.388   9.753  13.842
17783W        W84566   4.352  36.683  11.060
17784W        W84567  30.310  17.646  13.358
17785W        W84568  12.268  14.763   4.185
17786W        W84569  26.268  39.761   0.374
17787W        W84570  26.462  34.199   3.301
17788W        W84571  18.610  29.176   0.263
17789W        W84572  20.244   5.782   3.623
17790W        W84573  39.448   5.277  14.783
17791W        W84574  16.595  15.719  13.775
17792W        W84575   9.393  36.793   4.050
17793W        W84576  18.378  28.868   3.638
17794W        W84577  25.114  25.107  14.152
17795W        W84578  32.034   0.936  10.704
17796W        W84579  26.496  19.830   0.834
17797W        W84580  22.563  21.192  10.461
17798W        W84581   7.185  15.783   3.194
17799W        W84582  23.002  31.625  10.407
17800W        W84583  18.609   6.946   1.885
17801W        W84584  24.977  25.437   1.273
17802W        W84585  17.878  19.839   4.428
17803W        W84586   5.186  10.400  14.986
17804W        W84587  40.486  20.569   1.430
17805W        W84588  29.568  18.819   4.664
17806W        W84589  29.746  22.846  10.336
17807W        W84590   0.025  23.761   3.232
17808W        W84591  26.516  25.146  13.868
17809W        W84592  28.054  36.829  14.805
17810W        W84593   5.055   4.458   0.422
17811W        W84594  30.337  12.233   0.184
17812W        W84595  39.417  38.923   1.778
17813W        W84596  38.586  32.090  14.559
17814W        W84597  40.004  19.059   4.105
17815W        W84598  13.659  21.286  13.099
17816W        W84599  15.554  24.313   0.941
17817W        W84600  39.906  26.215  10.707
17818W        W84601  36.921  44.436  12.000
17819W        W84602   0.857  13.409   2.756
17820W        W84603   6.092  33.520   0.636
17821W        W84604  12.219  22.799   2.251
17822W        W84605  36.111  26.150  11.089
17823W        W84606  24.696   6.672   1.914
17824W        W84607  38.953  41.899  13.066
17825W        W84608  30.632  16.666   0.396
17826W        W84609  34.125   2.294  14.967
17827W        W84610  30.530   3.224   4.969
17828W        W84611  29.941  33.383   0.810
17829W        W84612  34.011  39.315   4.571
17830W        W84613   5.882   9.835   4.137
17831W        W84614  25.189  38.815  14.053
17832W        W84615   7.864  31.418  12.401
17833W        W84616  33.144  32.455   4.164
17834W        W84617  22.556  24.253   1.717
17835W        W84618   2.722  26.919  12.494
17836W        W84619  27.058   5.667   4.555
17837W        W84620  13.873  18.137   4.436
17838W        W84621  18.227   6.719  12.473
17839W        W84622  27.095  13.551  11.075
17840W        W84623  23.322  11.808  11.586
17841W        W84624  35.023  44.509   0.880
17842W        W84625  17.125  44.059  10.909
17843W        W84626   2.818  29.912   3.682
17844W        W84627  44.354  31.451  10.621
17845W        W84628  11.405  33.821   3.642
17846W        W84629  26.153   8.597   0.884
17847W        W84630  43.239  15.992  12.442
17848W        W84631  17.511   2.634   2.655
17849W        W84632  21.265   3.963  13.397
17850W        W84633  24.592  21.618  10.635
17851W        W84634  14.002  28.644   3.976
17852W        W84635  27.990  37.326  14.894
17853W        W84636  42.313  31.719  12.993
17854W        W84637  27.784  20.551  10.329
17855W        W84638  28.775   5.992  11.623
17856W        W84639  17.276  23.846   0.441
17857W        W84640  33.456  18.289   2.186
17858W        W84641  12.458  24.785  14.963
17859W        W84642  37.122  16.877  14.574
17860W        W84643  22.545  10.169  12.411
17861W        W84644  23.554   5.611  11.745
17862W        W84645   8.919   4.813  13.939
17863W        W84646  31.008  24.645  14.794
17864W        W84647  33.519  12.520  10.776
17865W        W84648   1.490  12.029   3.726
17866W        W84649  19.098  22.896  12.495
17867W        W84650  27.096  24.595  11.931
17868W        W84651  26.196  42.980   1.381
17869W        W84652  42.277   2.074  14.498
17870W        W84653  34.067  37.531   2.488
17871W        W84654  10.251   1.604  11.162
17872W        W84655  35.979  23.212  11.426
17873W        W84656  29.958  26.184  13.740
17874W        W84657  23.346   2.863  11.995
17875W        W84658  40.898  30.348   1.028
17876W        W84659   3.699  43.144  11.630
17877W        W84660  38.788  41.015   1.260
17878W        W84661  32.995   5.039   2.388
17879W        W84662  10.769  18.797   0.366
17880W        W84663   1.964  30.107  13.452
17881W        W84664  10.103  35.718   4.091
17882W        W84665   7.471   8.881  11.809
17883W        W84666  19.565  24.395  13.894
17884W        W84667  13.330  10.075   0.833
17885W        W84668   3.653  32.510   3.063
17886W        W84669   8.864  12.469  10.278
17887W        W84670   6.943  16.200  13.494
17888W        W84671   9.618  11.243   3.667
17889W        W84672   7.708  23.109   1.163
17890W        W84673   5.142  31.188   3.157
17891W        W84674  34.026   7.025   1.876
17892W        W84675   2.472  20.003  11.671
17893W        W84676  28.687  16.704  11.053
17894W        W84677   0.956  19.749  10.728
17895W        W84678  41.330  31.992  14.911
17896W        W84679  19.633  29.234   1.414
17897W        W84680  12.869   0.956   2.366
17898W        W84681  30.014  15.109   0.930
17899W        W84682  33.060  34.945  12.835
17900W        W84683   7.759   8.232  13.859
17901W        W84684  19.065  44.794   1.427
17902W        W84685   8.416  43.989   3.305
17903W        W84686  35.259  29.399  11.615
17904W        W84687  28.445  44.072   0.758
17905W        W84688  10.293   6.289   5.428
17906W        W84689  17.440  39.821   1.477
17907W        W84690  35.585  28.084  11.197
17908W        W84691  41.099   8.834   2.860
17909W        W84692  18.139  23.115   2.668
17910W        W84693  41.936  36.294   2.731
17911W        W84694   2.273  20.955   1.275
17912W        W84695  40.678   8.292  13.851
17913W        W84696  11.945  21.090  13.022
17914W        W84697  41.742  42.721   1.398
17915W        W84698  25.160   3.635  14.805
17916W        W84699  21.621  43.279   0.977
17917W        W84700  40.950  42.295   4.098
17918W        W84701  13.467  23.662  12.455
17919W        W84702  39.261  11.832  13.864
17920W        W84703  43.392  15.066   0.050
17921W        W84704  31.388  23.717  10.293
17922W        W84705  26.182  39.900  13.457
17923W        W84706  11.202  20.634  12.001
17924W        W84707  21.571   5.786   2.370
17925W        W84708  42.806   8.596  12.522
17926W        W84709  20.230  42.518  13.379
17927W        W84710  39.244  40.056  12.454
17928W        W84711  30.521   7.164   1.395
17929W        W84712   3.929   0.216  13.686
17930W        W84713  26.600  24.677   1.482
17931W        W84714   6.657  36.269   2.381
17932W        W84715   6.229   0.044   3.692
17933W        W84716  11.239  42.378  12.117
17934W        W84717  42.032   2.402  11.103
17935W        W84718  26.203  11.883  11.540
17936W        W84719  18.343  12.693  14.925
17937W        W84720   3.723  22.998   1.328
17938W        W84721   7.924  37.256  13.663
17939W        W84722  11.921  22.922  11.597
17940W        W84723  18.927  39.893  12.454
17941W        W84724  17.297  42.015   1.707
17942W        W84725  44.876   9.663  11.147
17943W        W84726  30.157  17.760  14.331
17944W        W84727  31.966  42.047  11.236
17945W        W84728  44.679  24.651   2.091
17946W        W84729   9.584  37.426  10.669
17947W        W84730  14.305   7.210  12.636
17948W        W84731  13.207  22.727   2.618
17949W        W84732   0.902   5.997  13.612
17950W        W84733   6.119  31.834   4.408
17951W        W84734   2.491  30.250  14.706
17952W        W84735  14.340  11.904   2.850
17953W        W84736  19.195   5.945  14.496
17954W        W84737  44.623  15.791   4.182
17955W        W84738  27.228   8.945   3.723
17956W        W84739  24.954  34.025  11.552
17957W        W84740  20.478  31.707   4.926
17958W        W84741  30.050  32.361   4.164
17959W        W84742  35.347  22.925  14.466
17960W        W84743  20.907  27.665   1.363
17961W        W84744  40.984  17.195   3.863
17962W        W84745  37.549  28.705  11.246
17963W        W84746   1.507  16.809  10.731
17964W        W84747   7.128   0.823  11.197
17965W        W84748   1.009  18.569  12.041
17966W        W84749  34.041   4.794   1.291
17967W        W84750  37.422  10.201  10.424
17968W        W84751  21.596  41.974  12.154
17969W        W84752   2.064  28.635  13.345
17970W        W84753  36.864   6.162   4.984
17971W        W84754  42.425  11.231   5.067
17972W        W84755  23.024  32.096  10.182
17973W        W84756   9.494  30.507   1.205
17974W        W84757  11.272  19.807   0.988
17975W        W84758  36.404  19.416  12.031
17976W        W84759  44.937  44.006  11.890
17977W        W84760  16.709  42.815  13.699
17978W        W84761  42.124   1.405   4.866
17979W        W84762   9.811  41.126   1.753
17980W        W84763  43.593  42.032  11.645
17981W        W84764  28.721  20.590  13.131
17982W        W84765  20.573   1.798  11.576
17983W        W84766  16.382  28.190  12.961
17984W        W84767  20.250  14.667   2.966
17985W        W84768   1.978   3.819  10.795
17986W        W84769  17.087  37.336  10.622
17987W        W84770   6.757  41.419  13.472
17988W        W84771  18.204  37.025  11.078
17989W        W84772  32.007  11.078   3.199
17990W        W84773  36.635  39.210   5.109
17991W        W84774   1.833  24.747   1.961
17992W        W84775   0.019  35.393  14.294
17993W        W84776  36.429   7.940   0.335
17994W        W84777  22.264  29.233   1.550
17995W        W84778  19.407   0.175  11.905
17996W        W84779  14.155  24.431  14.373
17997W        W84780  40.548   3.412  10.351
17998W        W84781  37.571  18.160  13.580
17999W        W84782  37.047  20.494   3.623
18000W        W84783   5.914  23.608   0.510
18001W        W84784  39.303  26.541  11.443
18002W        W84785  38.553  23.492   0.034
18003W        W84786  32.722  13.312  11.675
18004W        W84787  21.008   6.209   1.676
18005W        W84788  25.544  17.042   2.257
18006W        W84789  43.157   4.663   2.195
18007W        W84790  32.822  23.569   1.387
18008W        W84791   6.284  33.209  11.408
18009W        W84792   8.773   0.054  12.623
18010W        W84793  15.395  19.590  10.570
18011W        W84794  11.222  25.491   2.249
18012W        W84795  31.031  23.217   2.601
18013W        W84796   0.729  15.194  12.854
18014W        W84797   6.372  30.370  10.677
18015W        W84798  37.654   8.903  10.516
18016W        W84799   0.047  15.344   2.882
18017W        W84800  21.504   8.351   0.302
18018W        W84801  40.773  28.050  10.976
18019W        W84802  15.236   6.658   1.413
18020W        W84803   2.763  16.206  10.457
18021W        W84804   9.713  28.431   0.276
18022W        W84805  32.854  34.114   3.743
18023W        W84806   3.321  11.656  13.021
18024W        W84807  30.202  18.004   4.518
18025W        W84808  12.321  31.450   0.544
18026W        W84809  37.496  35.247  11.104
18027W        W84810   8.299  39.459  12.912
18028W        W84811   5.296  42.564  12.916
18029W        W84812  22.680   5.716   0.820
18030W        W84813   7.122  34.637   4.176
18031W        W84814  38.589  17.188   2.223
18032W        W84815  12.785   7.686   2.890
18033W        W84816  27.608   1.411  14.866
18034W        W84817  24.542  37.109  14.301
18035W        W84818  20.611  34.534  12.048
18036W        W84819  23.038  14.254  12.461
18037W        W84820  16.643  43.109   0.129
18038W        W84821  23.942  16.777  11.138
18039W        W84822   7.517  31.141   3.617
18040W        W84823  32.826  36.414  12.913
18041W        W84824  12.166  12.313  12.421
18042W        W84825  25.748   4.371  13.887
18043W        W84826  24.625  13.032  12.584
18044W        W84827  33.192  31.518  14.406
18045W        W84828  10.445   5.238   3.668
18046W        W84829  22.473  11.165  11.138
18047W        W84830  23.528  29.515   1.284
18048W        W84831  25.657  14.729   2.735
18049W        W84832   7.748   7.825   1.118
18050W        W84833   7.970  43.789   3.626
18051W        W84834  22.154  36.123   2.673
18052W        W84835  20.988  36.359  12.432
18053W        W84836  25.404  42.170   1.329
18054W        W84837  44.144   9.626  12.942
18055W        W84838  12.562  41.662  12.863
18056W        W84839  11.091   7.784   2.654
18057W        W84840  33.437  33.454  14.357
18058W        W84841  11.707  22.811   2.463
18059W        W84842  37.161  18.550   3.323
18060W        W84843  21.151   4.932   0.137
18061W        W84844  44.911   6.215  12.158
18062W        W84845  35.800  10.600   4.774
18063W        W84846  20.279  33.582   1.647
18064W        W84847  30.588  21.495   3.892
18065W        W84848  42.050   3.322   3.120
18066W        W84849  38.394  21.589  13.021
18067W        W84850   0.026  25.022   0.750
18068W        W84851  29.453  28.596   1.176
18069W        W84852  19.140  37.293  13.058
18070W        W84853  10.321  12.294  10.719
18071W        W84854  22.722  25.484  14.029
18072W        W84855  40.530  33.289  11.125
18073W        W84856  33.978  15.587  14.535
18074W        W84857  13.945   0.043  11.708
18075W        W84858  10.229  27.424  14.751
18076W        W84859  39.525   0.702   4.018
18077W        W84860  34.639  18.747   4.140
18078W        W84861  40.856  44.580   2.707
18079W        W84862  11.182  38.381   3.842
18080W        W84863   6.866  15.339   1.260
18081W        W84864  37.000   0.345  14.426
18082W        W84865  17.681  37.941  10.295
18083W        W84866  26.767  12.635   1.903
18084W        W84867  39.555   2.388  13.558
18085W        W84868   9.137  29.742  12.258
18086W        W84869  29.113  30.099  14.463
18087W        W84870   1.348  25.969   4.911
18088W        W84871  26.450  22.547  13.434
18089W        W84872  36.963  32.170   3.849
18090W        W84873  23.514  40.391   3.108
18091W        W84874   7.278  29.069  12.043
18092W        W84875  33.138  27.565  11.975
18093W        W84876  28.615  29.273  14.606
18094W        W84877   0.242   1.951   3.544
18095W        W84878  34.364  32.526  12.944
18096W        W84879  30.149  15.200  12.162
18097W        W84880   7.654  24.651   2.190
18098W        W84881  28.112  33.986   1.916
18099W        W84882   8.441  12.568   4.096
18100W        W84883   0.622  38.360  10.997
18101W        W84884  14.920   7.474   4.299
18102W        W84885  42.662  20.262   2.311
18103W        W84886  35.866   0.381   5.019
18104W        W84887   0.595  16.743  10.531
18105W        W84888  40.442  41.384  13.352
18106W        W84889  31.585  39.314   1.289
18107W        W84890  12.042  37.897   4.024
18108W        W84891   3.658  34.397   1.737
18109W        W84892  26.929  19.459  14.785
18110W        W84893   5.026  35.398  13.930
18111W        W84894  29.945  20.456  11.010
18112W        W84895  13.745  36.015   2.859
18113W        W84896  14.916  36.831   3.727
18114W        W84897  37.549  30.663  14.465
18115W        W84898  43.827  37.085  12.658
18116W        W84899  15.276   6.151  14.754
18117W        W84900   7.544   0.264  13.934
18118W        W84901  37.969  19.979  12.339
18119W        W84902  17.538  10.869  14.194
18120W        W84903  17.280   4.750   2.144
18121W        W84904  27.706   7.237   4.747
18122W        W84905   4.259   8.248  13.035
18123W        W84906  27.861  43.970   0.024
18124W        W84907  34.495  13.864  10.881
18125W        W84908   9.525  44.335  14.471
18126W        W84909   7.154  29.944  12.912
18127W        W84910   9.572   0.119  10.611
18128W        W84911  27.308   2.382  10.656
18129W        W84912  14.137  38.628   4.594
18130W        W84913  23.183  28.092   2.446
18131W        W84914  18.525  26.985  11.073
18132W        W84915  25.185  28.932   4.179
18133W        W84916   3.302   0.752  12.054
18134W        W84917  36.543   4.769   1.379
18135W        W84918  37.582   6.868   1.928
18136W        W84919  23.476  18.104   2.037
18137W        W84920  19.637  42.502   1.892
18138W        W84921   2.641   5.282  12.666
18139W        W84922  24.321   6.887  12.342
18140W        W84923   4.273   9.836   4.849
18141W        W84924  43.078  28.004   9.501
18142W        W84925   3.152  31.850  14.924
18143W        W84926   8.456  19.552   1.704
18144W        W84927  44.851   2.809  13.334
18145W        W84928  43.266  28.744   2.724
18146W        W84929  21.245  34.130  14.012
18147W        W84930  25.561  35.218  12.028
18148W        W84931  22.878  35.516   0.416
18149W        W84932   0.833  20.209   2.169
18150W        W84933  22.650  27.348   0.035
18151W        W84934  40.850   3.350  13.133
18152W        W84935  14.578  15.322  11.188
18153W        W84936  24.223  10.170  14.555
18154W        W84937  40.282   8.640   0.855
18155W        W84938   7.958  14.670  13.810
18156W        W84939  20.571  40.265   0.991
18157W        W84940  12.791  25.598  12.155
18158W        W84941  22.359  39.168   1.471
18159W        W84942  10.947  28.927  11.579
18160W        W84943  38.149  31.717   2.634
18161W        W84944  36.383  30.446   1.888
18162W        W84945  39.939  34.133  14.417
18163W        W84946  32.638  36.015   1.420
18164W        W84947  11.720  24.548   1.699
18165W        W84948   9.237   3.891  11.899
18166W        W84949  15.729  44.092   3.313
18167W        W84950  15.535  23.097   2.225
18168W        W84951   9.280  38.716   2.387
18169W        W84952  24.611  42.934   2.461
18170W        W84953  31.385   0.098   4.643
18171W        W84954  44.038   2.408  11.083
18172W        W84955  42.874   1.785   2.474
18173W        W84956  25.568  36.635   0.914
18174W        W84957   6.194  29.733  14.890
18175W        W84958  21.581  13.308   1.470
18176W        W84959   0.068  21.267  12.039
18177W        W84960  28.494  30.987   2.671
18178W        W84961  16.200  21.700   3.308
18179W        W84962  36.803  25.219  11.212
18180W        W84963  22.206  23.692  12.522
18181W        W84964  43.396  16.851   5.433
18182W        W84965  29.446  31.449  11.590
18183W        W84966  17.238  44.754   0.929
18184W        W84967  44.181  19.045  12.910
18185W        W84968  25.714  37.291  12.042
18186W        W84969  23.054  44.535  14.396
18187W        W84970  32.857  36.372   4.526
18188W        W84971  38.044  15.994  11.181
18189W        W84972  11.239  31.249  14.845
18190W        W84973   8.767  41.300  13.991
18191W        W84974   4.390  17.610  14.772
18192W        W84975  41.223  21.241  12.621
18193W        W84976  29.732  34.967  11.662
18194W        W84977  39.786   7.734   3.291
18195W        W84978  15.383  21.378   2.833
18196W        W84979  13.850  35.567  10.498
18197W        W84980  31.379  41.480   1.441
18198W        W84981   0.463  33.811   3.946
18199W        W84982   3.679  35.383  12.022
18200W        W84983  33.877  16.065   2.673
18201W        W84984  12.661  21.579   0.728
18202W        W84985  32.888   7.285   0.454
18203W        W84986   7.934  21.801   2.075
18204W        W84987   3.380  21.502   3.132
18205W        W84988  21.301   1.986   1.309
18206W        W84989   4.770  35.999  12.037
18207W        W84990  44.157  13.136   5.363
18208W        W84991  43.214   2.081   2.710
18209W        W84992  39.526   1.711   2.338
18210W        W84993  26.145  36.533   2.250
18211W        W84994  34.014  34.107  14.344
18212W        W84995   2.428  38.096   1.192
18213W        W84996   9.508   3.322  10.749
18214W        W84997  12.555  19.996   1.706
18215W        W84998   8.367  15.680   2.400
18216W        W84999  17.600  40.984   4.199
18217W        W85000  28.599  44.241  13.534
18218W        W85001  34.419   8.993  13.975
18219W        W85002   5.905  10.328   4.346
18220W        W85003  30.519  25.223   0.965
18221W        W85004  42.445  27.971  12.233
18222W        W85005  10.820  40.990   3.405
18223W        W85006   4.549  19.880   0.305
18224W        W85007  10.845   4.840  14.797
18225W        W85008  11.713   4.248   0.488
18226W        W85009   4.224  41.624  10.973
18227W        W85010  14.540  39.531   3.282
18228W        W85011  25.484   3.809   2.358
18229W        W85012  18.150   4.199   3.882
18230W        W85013  15.196  42.574   0.804
18231W        W85014  13.688  27.387  11.597
18232W        W85015  36.478  20.483  12.961
18233W        W85016  12.632  17.128   3.019
18234W        W85017  13.663   6.772   4.556
18235W        W85018   0.190   4.306   0.748
18236W        W85019   6.771   6.935   4.594
18237W        W85020  32.841  19.466  14.525
18238W        W85021  22.600  21.026   4.237
18239W        W85022  20.376  13.635   4.801
18240W        W85023   8.169  39.203   3.709
18241W        W85024  19.163  23.254  12.856
18242W        W85025  17.657  14.833  12.503
18243W        W85026   0.766  12.316   4.212
18244W        W85027  38.805   4.642   3.600
18245W        W85028  21.962  25.559   5.070
18246W        W85029  39.301  22.204  13.837
18247W        W85030  26.367  38.523   2.370
18248W        W85031   7.268  17.223   1.715
18249W        W85032  32.999  18.550  13.609
18250W        W85033  36.966  35.230   1.247
18251W        W85034  41.842  31.450   2.320
18252W        W85035  17.157  40.455   0.484
18253W        W85036  42.500  30.454   1.698
18254W        W85037   7.018   6.771  11.248
18255W        W85038  37.083  16.784   2.763
18256W        W85039   4.525  41.352   2.846
18257W        W85040  23.374   3.257  12.961
18258W        W85041   7.303  22.774  11.679
18259W        W85042  11.206  21.466  14.794
18260W        W85043  19.499  12.809   1.896
18261W        W85044  35.997  26.424  12.680
18262W        W85045  35.172  22.343   4.591
18263W        W85046  29.635  30.537   3.251
18264W        W85047   2.361  28.522   4.822
18265W        W85048  43.729  39.122   4.141
18266W        W85049  30.256  19.846   9.875
18267W        W85050  39.082   2.392   1.506
18268W        W85051  24.020  25.068  12.329
18269W        W85052  19.609  17.749   0.238
18270W        W85053  39.646  22.754  14.398
18271W        W85054  17.347  12.148   0.649
18272W        W85055  18.345  13.114  13.970
18273W        W85056   6.241   6.272   0.399
18274W        W85057  21.241   2.340   3.999
18275W        W85058  37.932  35.388  10.425
18276W        W85059  19.664  32.001   2.987
18277W        W85060   0.484  10.100  10.592
18278W        W85061  11.522  25.216   2.705
18279W        W85062  15.126   5.911  11.437
18280W        W85063  11.947   2.490  11.984
18281W        W85064  32.681  16.830   1.836
18282W        W85065  37.529  15.149  12.842
18283W        W85066  17.609   3.529   0.858
18284W        W85067  28.599  18.932   1.689
18285W        W85068  31.763  19.640  14.892
18286W        W85069  11.398  33.418  14.554
18287W        W85070  30.076  32.096   0.442
18288W        W85071  35.101  39.309  11.997
18289W        W85072  21.291  14.074  11.542
18290W        W85073  30.628   7.925  14.415
18291W        W85074  17.743   9.917  13.851
18292W        W85075  34.937   6.650   4.015
18293W        W85076  25.329  38.786   2.571
18294W        W85077  26.061  18.505  10.688
18295W        W85078  31.332  39.606   0.897
18296W        W85079  38.405  26.001  14.768
18297W        W85080  16.781  23.275   1.160
18298W        W85081  11.768  25.104   1.690
18299W        W85082  16.487  18.501  13.465
18300W        W85083  44.527   9.388  11.983
18301W        W85084  23.066  41.817  13.512
18302W        W85085  13.683  20.613   1.248
18303W        W85086   2.512  14.969   3.752
18304W        W85087  32.473  26.024  13.023
18305W        W85088  38.046  36.917  11.864
18306W        W85089  33.963   9.611   3.071
18307W        W85090  22.669  28.179  12.066
18308W        W85091  33.655  20.691  14.406
18309W        W85092  15.394  30.850  14.384
18310W        W85093  24.508  39.864  10.414
18311W        W85094  43.005  34.487   0.739
18312W        W85095  18.092   5.426   3.241
18313W        W85096   6.252  33.193   4.166
18314W        W85097  11.186  12.330  13.445
18315W        W85098  39.615   9.226   4.696
18316W        W85099  35.399  25.731   2.238
18317W        W85100   5.646  41.362  14.923
18318W        W85101   9.807  15.573   1.284
18319W        W85102  10.559  30.063   1.983
18320W        W85103  25.513  24.699   0.722
18321W        W85104  42.976  14.204  10.590
18322W        W85105  10.404  19.666  12.496
18323W        W85106  26.544  43.491  13.301
18324W        W85107  42.877  35.990   1.799
18325W        W85108   5.719   1.423   4.768
18326W        W85109  15.653   6.255   3.330
18327W        W85110   8.735  18.645   0.192
18328W        W85111   8.747  33.527   1.075
18329W        W85112   0.207  19.843   1.334
18330W        W85113  17.192  40.081   3.659
18331W        W85114  38.213   0.887   5.061
18332W        W85115   8.386   7.225   0.731
18333W        W85116  35.650  21.281  10.208
18334W        W85117  11.477  13.971   1.380
18335W        W85118   0.762  41.395   2.721
18336W        W85119   7.084   2.215  12.874
18337W        W85120   1.922  39.231  12.708
18338W        W85121  20.080  19.716   4.559
18339W        W85122  13.655   1.502   4.054
18340W        W85123  33.382  27.614  10.636
18341W        W85124  10.762  44.334  13.613
18342W        W85125  20.178  17.178   3.692
18343W        W85126  29.671  25.728   0.759
18344W        W85127  26.912  23.896   1.560
18345W        W85128  42.679   6.407   3.841
18346W        W85129   6.747   5.983   4.734
18347W        W85130  25.013  35.025   2.189
18348W        W85131  39.536  30.352   2.334
18349W        W85132  38.369  25.081  10.585
18350W        W85133  41.235   4.840   2.702
18351W        W85134  17.858  35.830  10.247
18352W        W85135  14.349  38.350  14.781
18353W        W85136   7.180  27.683  13.071
18354W        W85137  30.559  26.235  11.418
18355W        W85138  16.751  36.623   0.166
18356W        W85139   0.914  14.069   3.356
18357W        W85140  23.067  36.315  12.076
18358W        W85141  11.261  33.264   2.107
18359W        W85142  20.435   8.678   2.635
18360W        W85143   1.947   9.861   1.675
18361W        W85144  25.318  28.105  10.208
18362W        W85145  14.533   9.778   0.230
18363W        W85146  32.643  21.225  13.104
18364W        W85147  25.961  15.884   0.988
18365W        W85148  28.945  21.172   0.342
18366W        W85149   2.251  19.431   1.300
18367W        W85150  39.019  41.531   0.273
18368W        W85151   0.409   3.170  10.617
18369W        W85152  18.144   2.409   3.251
18370W        W85153  19.915  39.079   2.237
18371W        W85154  15.131  30.621  14.801
18372W        W85155  29.625   8.931   3.301
18373W        W85156   0.269  20.780  11.996
18374W        W85157  44.450  42.669   5.048
18375W        W85158  29.460  33.545  12.060
18376W        W85159  13.536  19.719  12.021
18377W        W85160   5.090  29.054  12.918
18378W        W85161  25.484  41.008   2.453
18379W        W85162  43.929  10.212   2.806
18380W        W85163  11.258  40.393  12.937
18381W        W85164   8.883  38.258  14.984
18382W        W85165  38.592  17.634  13.961
18383W        W85166  20.935  11.267   0.849
18384W        W85167   7.267  33.968   2.151
18385W        W85168  26.441  42.602   9.815
18386W        W85169  18.477   1.459  12.984
18387W        W85170  34.472  33.113  14.012
18388W        W85171  26.575  20.187  14.080
18389W        W85172  44.083  29.689   0.852
18390W        W85173  26.161  13.206  14.895
18391W        W85174  27.649  40.702  12.126
18392W        W85175  12.325  13.728  13.302
18393W        W85176  41.094  41.635  13.948
18394W        W85177   3.962   5.758  12.900
18395W        W85178  13.757  28.933   3.427
18396W        W85179   7.924   4.625  11.559
18397W        W85180  28.092  28.399  12.569
18398W        W85181  29.820  20.575   5.016
18399W        W85182  42.987  25.494  12.685
18400W        W85183  39.558  15.258   3.118
18401W        W85184  12.737  34.791  14.811
18402W        W85185  17.382   6.988  14.235
18403W        W85186  33.646   2.364  13.566
18404W        W85187  38.494  37.146  12.010
18405W        W85188  22.292  40.866  12.088
18406W        W85189  38.512   6.494   0.048
18407W        W85190  16.293  34.655   1.131
18408W        W85191  24.352  43.330   3.324
18409W        W85192   2.855  10.128   2.352
18410W        W85193  12.827   7.026  10.625
18411W        W85194   5.071   8.409  13.796
18412W        W85195  28.077  16.315   4.180
18413W        W85196   4.825  40.270  11.508
18414W        W85197  18.526  40.995   0.362
18415W        W85198  18.278  18.532  13.296
18416W        W85199  33.772  44.884  12.988
18417W        W85200  23.127  26.156  11.336
18418W        W85201  39.990   5.496  10.716
18419W        W85202  12.113  38.324   0.477
18420W        W85203  30.094  12.805  14.093
18421W        W85204  42.749  22.651  13.557
18422W        W85205   3.879   5.514   4.080
18423W        W85206  23.944  33.455  12.539
18424W        W85207  33.172  28.053   1.967
18425W        W85208  42.453  37.903   3.321
18426W        W85209  28.725  38.007   2.011
18427W        W85210  12.769   1.085  13.699
18428W        W85211  23.474  31.610  13.758
18429W        W85212   4.152  25.021   3.257
18430W        W85213   4.821  33.595  12.534
18431W        W85214  39.909  32.120   0.458
18432W        W85215   9.312  34.513  12.178
18433W        W85216  41.515  36.619   2.708
18434W        W85217  18.358  17.074   2.326
18435W        W85218  41.237  29.986   1.784
18436W        W85219  42.854  44.810   3.810
18437W        W85220  35.078   4.298   4.639
18438W        W85221  23.055  40.083  11.657
18439W        W85222  31.611  10.610   0.935
18440W        W85223   1.847  37.809  11.265
18441W        W85224   9.673  19.564   0.357
18442W        W85225  31.661  32.074   2.001
18443W        W85226  43.758  33.062   3.551
18444W        W85227   9.105  44.393   1.703
18445W        W85228  32.374  15.617   4.182
18446W        W85229   4.797  31.576   1.873
18447W        W85230  37.318  17.063  12.811
18448W        W85231  31.339  20.509  13.905
18449W        W85232   4.948  17.650   3.656
18450W        W85233  21.134   9.669   1.897
18451W        W85234  43.026  42.915  13.380
18452W        W85235   1.707   8.401   3.175
18453W        W85236   6.498  13.514   4.710
18454W        W85237  30.322  43.476   4.074
18455W        W85238  23.339  31.897   2.355
18456W        W85239   5.692  33.090  12.919
18457W        W85240  12.528  43.406  11.666
18458W        W85241  41.086  41.165  14.164
18459W        W85242  32.878  36.957  11.629
18460W        W85243  17.125  27.704  12.921
18461W        W85244   8.950   2.913   1.713
18462W        W85245  19.624  19.911   4.615
18463W        W85246  22.758  44.865  10.243
18464W        W85247  11.344  28.982   1.892
18465W        W85248  43.592  18.823   3.740
18466W        W85249  10.543  27.630   1.629
18467W        W85250  36.174  32.412   4.081
18468W        W85251  39.018   4.962  12.889
18469W        W85252  29.096   7.611  12.839
18470W        W85253  36.500  33.137  12.939
18471W        W85254   0.945  12.132  11.347
18472W        W85255  30.590  41.303  10.705
18473W        W85256  33.914  26.707  11.463
18474W        W85257   8.834  30.085   0.351
18475W        W85258   3.828  12.249   5.043
18476W        W85259  38.890  31.629  14.469
18477W        W85260   9.854  18.345  11.635
18478W        W85261  30.388  12.078  10.691
18479W        W85262  16.831  21.273   0.407
18480W        W85263  25.481  12.848  12.005
18481W        W85264  37.998  27.772   3.211
18482W        W85265  43.799  40.772   0.435
18483W        W85266   4.280  44.803   1.729
18484W        W85267  40.076  22.691  13.257
18485W        W85268   9.363  12.866   2.264
18486W        W85269  34.739  15.081   0.450
18487W        W85270  41.994  35.035  14.348
18488W        W85271  11.546  14.348   9.796
18489W        W85272  10.737  32.534  11.344
18490W        W85273  36.581  13.141   0.802
18491W        W85274  34.831  33.656  11.170
18492W        W85275   4.913  30.965  12.423
18493W        W85276  25.984  20.194  11.758
18494W        W85277  19.113  44.851  14.938
18495W        W85278  17.134   7.890   2.198
18496W        W85279  29.505  25.121  10.353
18497W        W85280  12.290  29.120   2.044
18498W        W85281  26.534  30.801   1.002
18499W        W85282  11.778  19.917  13.472
18500W        W85283  21.069  35.878   4.314
18501W        W85284  39.519  25.586  11.929
18502W        W85285  18.368   0.316  12.874
18503W        W85286  32.443  26.875  11.393
18504W        W85287  36.680  43.885  11.937
18505W        W85288  32.633  40.699   3.931
18506W        W85289  19.841  16.778  11.151
18507W        W85290  11.187  37.562  14.530
18508W        W85291   1.979  28.318   1.464
18509W        W85292   0.095   7.786  11.641
18510W        W85293  22.051  17.780   1.275
18511W        W85294  24.611  25.738   0.354
18512W        W85295   1.402  19.301   4.140
18513W        W85296  39.440  20.552   3.340
18514W        W85297  10.632  12.795   2.863
18515W        W85298   1.514  36.938  13.979
18516W        W85299  22.932  39.446  10.705
18517W        W85300  32.669  20.298   3.400
18518W        W85301  30.992  20.216   3.638
18519W        W85302  33.423   5.330   0.600
18520W        W85303   9.670   3.894   4.570
18521W        W85304  18.140  17.544  12.355
18522W        W85305  10.222   0.674   0.453
18523W        W85306  43.381   5.234  11.171
18524W        W85307  21.032  43.419   4.973
18525W        W85308  12.991  36.851   0.421
18526W        W85309  17.016   4.307   3.303
18527W        W85310  13.675  13.248   3.371
18528W        W85311  31.624  33.467   3.603
18529W        W85312  24.528  20.568   0.033
18530W        W85313   2.246   5.898   1.454
18531W        W85314   4.705  12.658   0.497
18532W        W85315   2.441   8.313  14.315
18533W        W85316   7.953   3.518   0.689
18534W        W85317  31.133   8.719  14.808
18535W        W85318  38.414  12.057   4.833
18536W        W85319  27.995  20.396   1.224
18537W        W85320  10.719  32.004  12.140
18538W        W85321  26.527  31.843   2.585
18539W        W85322  37.998   7.645   4.976
18540W        W85323   0.070  38.122   0.948
18541W        W85324  38.738  27.521   2.773
18542W        W85325   2.696   7.253   1.236
18543W        W85326  31.542  23.319  14.576
18544W        W85327  40.373   5.673   4.090
18545W        W85328  28.184  35.412  13.806
18546W        W85329  19.277  23.112   3.281
18547W        W85330  44.974  37.597  13.721
18548W        W85331  24.665  12.593  11.700
18549W        W85332   7.831  43.303   0.840
18550W        W85333  37.045  28.985   1.707
18551W        W85334  17.239  16.769  11.912
18552W        W85335  34.373   5.239  13.358
18553W        W85336  29.174  39.858  13.914
18554W        W85337  43.005  42.824  11.624
18555W        W85338  11.680  26.184   3.659
18556W        W85339   6.506  15.900  11.904
18557W        W85340  26.619  28.270   2.825
18558W        W85341  23.018   0.430   4.666
18559W        W85342  17.797  12.342  13.643
18560W        W85343  18.279  16.668   1.730
18561W        W85344  17.730  18.683   0.351
18562W        W85345  37.129  13.787  10.820
18563W        W85346  37.815  39.456  11.442
18564W        W85347   1.538  20.870   2.361
18565W        W85348  23.146  39.068   1.855
18566W        W85349  29.937  33.644   2.234
18567W        W85350  42.301  32.534   2.711
18568W        W85351  33.728  15.890   5.139
18569W        W85352  28.303  33.133  14.438
18570W        W85353  26.347  18.564  13.447
18571W        W85354   6.425  24.588   2.807
18572W        W85355  43.029  21.277   0.985
18573W        W85356  30.920   9.607  12.872
18574W        W85357   2.965   8.187   0.300
18575W        W85358  35.665  25.092  13.609
18576W        W85359   5.517  23.885   1.763
18577W        W85360   1.878  22.558  14.846
18578W        W85361  23.139  29.035  14.659
18579W        W85362  28.445   6.848   2.879
18580W        W85363  24.225  44.347  12.909
18581W        W85364  20.780   2.839   1.019
18582W        W85365  18.154  15.213  11.662
18583W        W85366  21.470   9.158  14.092
18584W        W85367  29.830  17.453  13.278
18585W        W85368  37.534  18.943   0.895
18586W        W85369   2.908  37.305  12.665
18587W        W85370  18.687  30.662   4.103
18588W        W85371  37.008   6.429   0.097
18589W        W85372  18.392  36.985  11.613
18590W        W85373  36.467  35.594   3.718
18591W        W85374  26.924  31.036  10.635
18592W        W85375  15.169  38.092  13.779
18593W        W85376   5.581  26.880  14.285
18594W        W85377  24.598  36.694   0.780
18595W        W85378   8.110  21.996   3.707
18596W        W85379  10.017  27.335   0.220
18597W        W85380   0.391  14.939   3.549
18598W        W85381  24.968  20.075   0.260
18599W        W85382  37.472  14.936  11.566
18600W        W85383  27.614  10.828  13.184
18601W        W85384   4.841  11.639   1.389
18602W        W85385   7.324  42.651   1.803
18603W        W85386  22.982  33.940  11.640
18604W        W85387  28.149  28.923   4.664
18605W        W85388  12.693  30.853   3.271
18606W        W85389  33.886  10.592   3.188
18607W        W85390  29.932  26.452   2.065
18608W        W85391   8.372  21.615  14.714
18609W        W85392  34.913  33.934  11.637
18610W        W85393  18.714  42.901   0.881
18611W        W85394  41.811  29.193  14.047
18612W        W85395   1.792  21.172   4.979
18613W        W85396   7.255  18.194   3.336
18614W        W85397  41.477  26.951   1.186
18615W        W85398   4.408  10.751   1.139
18616W        W85399   8.184  33.725  10.591
18617W        W85400   8.212   4.513   2.342
18618W        W85401  37.585  24.405  11.951
18619W        W85402   7.617  15.156  14.964
18620W        W85403  16.913  41.290   9.810
18621W        W85404  44.923   2.058   4.521
18622W        W85405  14.243  32.957  12.469
18623W        W85406  18.855  32.776  11.139
18624W        W85407  13.540  26.719   1.855
18625W        W85408  25.779  44.439  14.967
18626W        W85409  31.195   8.436   0.282
18627W        W85410  14.667   6.228   9.983
18628W        W85411  10.205  25.115   2.440
18629W        W85412   4.298  34.061  11.181
18630W        W85413  18.309   4.900   2.176
18631W        W85414  16.211  13.157  12.484
18632W        W85415  44.980  42.898   0.521
18633W        W85416  37.841  24.730   1.818
18634W        W85417  11.230  17.426  11.308
18635W        W85418   8.185  21.069   0.409
18636W        W85419  30.774  15.892  12.993
18637W        W85420  17.330   3.505   0.403
18638W        W85421  23.074  10.348  10.743
18639W        W85422  31.137  39.558   1.382
18640W        W85423   3.602  34.195  14.532
18641W        W85424  26.944   4.018   4.080
18642W        W85425  38.658   7.392  12.009
18643W        W85426  32.208  36.777  13.835
18644W        W85427  43.620  30.236  12.828
18645W        W85428   4.677   7.216   4.528
18646W        W85429   0.040  27.471  11.690
18647W        W85430  39.785  11.905  13.860
18648W        W85431  26.849  41.887  12.040
18649W        W85432  19.797   8.977  13.982
18650W        W85433  31.933  42.465  14.093
18651W        W85434   5.399   8.399   3.758
18652W        W85435  23.790  28.435  12.884
18653W        W85436   7.982  18.226   0.424
18654W        W85437  24.637   5.381   3.632
18655W        W85438   6.092  24.763  12.570
18656W        W85439  33.482  35.332   2.191
18657W        W85440  39.155  35.492  13.128
18658W        W85441   2.267  32.157  11.277
18659W        W85442  29.522  24.122  11.251
18660W        W85443   1.430  14.844   2.283
18661W        W85444   3.140  26.062  14.423
18662W        W85445  14.824  13.664  11.051
18663W        W85446   3.388  42.411   2.652
18664W        W85447  28.241  31.513  12.938
18665W        W85448  42.858  33.718  12.598
18666W        W85449  28.630  29.669  14.977
18667W        W85450  21.510  20.257  12.107
18668W        W85451   9.128  27.844  13.572
18669W        W85452   3.878  39.473   2.220
18670W        W85453  24.156  40.339  12.292
18671W        W85454  34.901  41.964   0.962
18672W        W85455  30.647  43.605   4.500
18673W        W85456  22.179  37.953   3.245
18674W        W85457  43.588  35.627   1.263
18675W        W85458  41.948  26.655   2.502
18676W        W85459  43.057  10.385  13.002
18677W        W85460  22.045  24.093   4.141
18678W        W85461  18.566   3.177  12.481
18679W        W85462   7.862   5.553  11.225
18680W        W85463  18.570  15.371   2.343
18681W        W85464  29.154   4.829   0.064
18682W        W85465   1.568   1.070  13.423
18683W        W85466  23.807  35.049  12.327
18684W        W85467   4.765  33.672   3.103
18685W        W85468   5.963  20.214   2.205
18686W        W85469   1.284   7.427  12.196
18687W        W85470  27.333  18.453   2.809
18688W        W85471  25.392  21.171   0.204
18689W        W85472  25.656  18.179   3.097
18690W        W85473   6.623   3.434   3.753
18691W        W85474  35.306  13.326   4.126
18692W        W85475   5.371   3.528   3.154
18693W        W85476   0.304  10.375  12.326
18694W        W85477  18.202  19.625  11.540
18695W        W85478   5.664  19.718  14.379
18696W        W85479  10.222  17.111   5.057
18697W        W85480  32.143  34.886   2.215
18698W        W85481  34.763  23.596  14.520
18699W        W85482  41.831   3.404   1.028
18700W        W85483  31.234   8.852  13.851
18701W        W85484  33.310  24.940   2.889
18702W        W85485   4.391  28.925  14.455
18703W        W85486   6.751   7.208   3.873
18704W        W85487  37.778   4.773   1.922
18705W        W85488  30.079  13.567  14.332
18706W        W85489  16.658  30.593   2.446
18707W        W85490  26.753  21.054   2.648
18708W        W85491   3.306  41.555   1.964
18709W        W85492   7.939  39.695  13.188
18710W        W85493  26.079  28.256  12.361
18711W        W85494  26.192  11.733  13.235
18712W        W85495  10.970  34.876   1.372
18713W        W85496  41.083  39.324  14.325
18714W        W85497  25.300  15.231  11.462
18715W        W85498  18.157  13.587  13.854
18716W        W85499  15.417  19.092  14.930
18717W        W85500  38.539  21.771  13.502
18718W        W85501   7.151  44.774   4.148
18719W        W85502  36.819   9.977   4.530
18720W        W85503  25.006  32.384   1.015
18721W        W85504  27.240  14.271  13.089
18722W        W85505   9.736  42.948   0.719
18723W        W85506  32.885  17.057   1.365
18724W        W85507  12.543  21.952  14.513
18725W        W85508  16.538  18.128   3.259
18726W        W85509  29.913  25.133   2.213
18727W        W85510  42.338   3.998   2.217
18728W        W85511  33.102  19.004   5.396
18729W        W85512  26.036  33.183   0.747
18730W        W85513  19.956  18.344   4.155
18731W        W85514  16.869  22.089  12.558
18732W        W85515   3.732  28.584  10.287
18733W        W85516  24.936  38.275   4.157
18734W        W85517   6.814  24.123   1.719
18735W        W85518  29.914  24.299  13.082
18736W        W85519  12.123  33.008  13.607
18737W        W85520  26.508  38.958   3.574
18738W        W85521   6.459  39.065  13.326
18739W        W85522  31.095   4.690  12.086
18740W        W85523  28.067  38.386   4.025
18741W        W85524  29.110  19.685   1.685
18742W        W85525   5.826  27.558   4.787
18743W        W85526  23.549  32.363  10.421
18744W        W85527   3.297   4.157   1.707
18745W        W85528   4.040  22.755  11.589
18746W        W85529  13.871  24.185  12.041
18747W        W85530  13.291  35.496  14.991
18748W        W85531   5.177  36.546   4.279
18749W        W85532   8.848  17.544   1.904
18750W        W85533  29.463  34.587  11.362
18751W        W85534  40.804  33.483  14.496
18752W        W85535  13.108  15.771   0.203
18753W        W85536  28.943  22.208  12.938
18754W        W85537  20.288  42.469   4.004
18755W        W85538  31.051  41.823   1.703
18756W        W85539   4.288  19.284   0.761
18757W        W85540   3.696  13.395  11.869
18758W        W85541  33.606   0.430   1.759
18759W        W85542   7.011   7.992  13.757
18760W        W85543   3.421  18.596   4.667
18761W        W85544   4.948   8.189  12.915
18762W        W85545  14.132  11.893  12.537
18763W        W85546  17.320   3.839   1.717
18764W        W85547  10.578  23.917   1.318
18765W        W85548  13.464  16.371  10.968
18766W        W85549   2.965  30.710   4.081
18767W        W85550  42.668  11.632   3.303
18768W        W85551  33.468   2.953   2.729
18769W        W85552  29.906  13.178   2.424
18770W        W85553   1.205  21.995  11.537
18771W        W85554  13.195  28.986   2.571
18772W        W85555  41.255   6.222   2.835
18773W        W85556   3.893  10.501  14.061
18774W        W85557  40.751  34.922  14.005
18775W        W85558  35.938  11.750   2.660
18776W        W85559  42.978  20.804  12.605
18777W        W85560   9.299  14.326   1.332
18778W        W85561  16.705   9.783  13.955
18779W        W85562  39.587   8.469   1.706
18780W        W85563   4.363  37.086  14.735
18781W        W85564  15.274   7.165   3.093
18782W        W85565  10.163  24.297   4.458
18783W        W85566  29.192   6.231   1.237
18784W        W85567  27.074   1.903   3.635
18785W        W85568  19.199   2.700   0.969
18786W        W85569  16.332  17.666  14.641
18787W        W85570  34.271   7.684  12.986
18788W        W85571  26.084  28.836  14.256
18789W        W85572   0.423  36.576   0.359
18790W        W85573   8.779   6.131  12.117
18791W        W85574   4.122  32.016  13.687
18792W        W85575  14.228  19.650   2.740
18793W        W85576  35.379  31.659   1.346
18794W        W85577   7.737  26.550  10.768
18795W        W85578   5.892  37.762   2.663
18796W        W85579   5.319  33.552  11.800
18797W        W85580  15.398  41.420  11.436
18798W        W85581  44.965   1.165  12.633
18799W        W85582  30.425  26.177  14.374
18800W        W85583  20.771  20.712  12.458
18801W        W85584  28.033   0.788  11.600
18802W        W85585  27.993  28.735  14.313
18803W        W85586   3.257  18.842   4.200
18804W        W85587   1.350  38.946   4.543
18805W        W85588   5.853   7.961   4.200
18806W        W85589   4.295   2.860  11.375
18807W        W85590  41.959  14.577  12.022
18808W        W85591  11.643  38.956  11.618
18809W        W85592  15.541  29.343  13.000
18810W        W85593  19.158  21.542  14.014
18811W        W85594   8.379  37.013  11.040
18812W        W85595  19.335  14.236   3.351
18813W        W85596  18.352   0.806  14.756
18814W        W85597   1.649  14.544  13.426
18815W        W85598  30.143  43.344   3.085
18816W        W85599   4.463   9.139  13.586
18817W        W85600  10.319  37.701   2.405
18818W        W85601   7.011   9.331   3.821
18819W        W85602  22.004  12.591   1.659
18820W        W85603  40.522  44.805   0.932
18821W        W85604  21.086  31.361   2.841
18822W        W85605   2.428  22.384   4.314
18823W        W85606   5.780  13.424  13.500
18824W        W85607  27.992   5.399   0.117
18825W        W85608   7.406  15.976  12.399
18826W        W85609  17.815  35.313  10.182
18827W        W85610  41.812  30.664  10.625
18828W        W85611  28.440  29.471   1.241
18829W        W85612  20.147  29.412   2.274
18830W        W85613  41.363  39.462   0.477
18831W        W85614  34.938  32.957   3.764
18832W        W85615  40.454  22.608  11.073
18833W        W85616  30.032   4.322   0.704
18834W        W85617   9.792  24.641  14.375
18835W        W85618  16.699  12.747   2.937
18836W        W85619   7.657  39.918   4.868
18837W        W85620  22.439   1.078   1.499
18838W        W85621  21.924  36.378   3.085
18839W        W85622  24.202  41.581   2.343
18840W        W85623   0.353  10.614  11.575
18841W        W85624  38.087  36.399   4.319
18842W        W85625  27.545  36.753   4.792
18843W        W85626  25.600  31.988  13.815
18844W        W85627  35.372  33.160   0.286
18845W        W85628  10.447  34.912   1.385
18846W        W85629  22.036  28.633   3.292
18847W        W85630  10.624  43.208   1.870
18848W        W85631  19.418  19.216  13.671
18849W        W85632  22.071  33.438  10.653
18850W        W85633   3.231  30.407   3.223
18851W        W85634  30.408  20.282   3.538
18852W        W85635  14.750   7.789  11.248
18853W        W85636  11.743  15.926  12.282
18854W        W85637   6.134   2.163  14.481
18855W        W85638  36.581  43.419   4.730
18856W        W85639  14.976  25.412  10.682
18857W        W85640  36.064  16.798   0.353
18858W        W85641  40.092  15.365  14.496
18859W        W85642  18.453  41.394  14.789
18860W        W85643  29.375  37.768   0.831
18861W        W85644  10.149   0.074   2.699
18862W        W85645  21.305  17.669   2.292
18863W        W85646  38.953   6.933  11.404
18864W        W85647   2.960  16.368   1.492
18865W        W85648  16.318  20.122  14.144
18866W        W85649  18.962   1.908  13.016
18867W        W85650  41.111  41.555  11.622
18868W        W85651   7.824  37.824   4.443
18869W        W85652  14.303   2.546   4.640
18870W        W85653  35.026  25.404   1.278
18871W        W85654   0.337   0.710   4.626
18872W        W85655  44.935  16.681  10.501
18873W        W85656  15.486  37.389  12.604
18874W        W85657  15.736  25.503  13.173
18875W        W85658  34.475   2.492  12.504
18876W        W85659  23.019  22.845  11.887
18877W        W85660   0.388  31.571   1.855
18878W        W85661   9.702  15.192  11.044
18879W        W85662   3.565  12.889  10.269
18880W        W85663  22.775   5.612  12.953
18881W        W85664  15.396  40.960  14.680
18882W        W85665  29.569  40.336  11.692
18883W        W85666   6.621  33.570   0.911
18884W        W85667  27.604  13.120  13.802
18885W        W85668  37.737  31.596   2.354
18886W        W85669   1.421   0.353   2.598
18887W        W85670  13.800   1.378  14.012
18888W        W85671  38.891  18.977   2.850
18889W        W85672  26.434  12.331   1.378
18890W        W85673  26.031  23.212  13.874
18891W        W85674  17.297   8.586   0.904
18892W        W85675   9.201  43.406   3.317
18893W        W85676  24.727  37.498   0.234
18894W        W85677  24.595   9.123   1.217
18895W        W85678   9.143  35.177   4.697
18896W        W85679  23.224  42.374  10.423
18897W        W85680   5.645   3.382   1.316
18898W        W85681  20.841  11.490  11.073
18899W        W85682  14.324  38.824   0.063
18900W        W85683  37.597  21.528   2.701
18901W        W85684  21.775  25.758   4.604
18902W        W85685  32.909  40.919   0.824
18903W        W85686  31.045  36.843  14.950
18904W        W85687  41.467  19.709   0.892
18905W        W85688   6.468  11.824   0.888
18906W        W85689  44.995   2.287   1.741
18907W        W85690   5.956  10.687  14.059
18908W        W85691   1.841  17.821   1.730
18909W        W85692   6.907  14.777   4.490
18910W        W85693  10.923   6.664  12.196
18911W        W85694  28.663  26.043   1.775
18912W        W85695  19.176   0.674  12.503
18913W        W85696  35.658  28.092  12.598
18914W        W85697  31.574   5.521  10.025
18915W        W85698  20.295  35.083  13.819
18916W        W85699  17.668  10.750   2.178
18917W        W85700  43.034  43.687  13.305
18918W        W85701  19.442   0.965   5.107
18919W        W85702   6.278  14.177  13.433
18920W        W85703  18.264   0.055  12.332
18921W        W85704   7.254   2.980   0.505
18922W        W85705  15.657  37.438  13.919
18923W        W85706  40.949  27.600  13.080
18924W        W85707  20.527   0.128  14.272
18925W        W85708  12.625  24.640   4.332
18926W        W85709  26.899  21.816   1.215
18927W        W85710   5.692   0.617  13.839
18928W        W85711  33.370  15.726   3.297
18929W        W85712  25.019  22.588   1.341
18930W        W85713  16.037  35.575  13.376
18931W        W85714  39.487  42.885  11.968
18932W        W85715   5.895   9.812   3.609
18933W        W85716  34.025   0.066  13.438
18934W        W85717   5.238  36.888   3.683
18935W        W85718   8.484  18.072   4.532
18936W        W85719  28.096  14.936   4.083
18937W        W85720  29.051   8.682   3.333
18938W        W85721   2.791  13.414   2.907
18939W        W85722  25.758  11.358  10.839
18940W        W85723   7.856  14.285   0.056
18941W        W85724  32.898   4.771  14.534
18942W        W85725   8.589  16.175   2.377
18943W        W85726   5.750   7.416   1.806
18944W        W85727   1.444  33.788   3.833
18945W        W85728  11.034  27.020   0.360
18946W        W85729  27.154  28.134   3.703
18947W        W85730  29.891  25.643   4.735
18948W        W85731  14.729   6.406  11.926
18949W        W85732  14.766  40.307  11.906
18950W        W85733   2.371  27.791   0.197
18951W        W85734  38.926   8.034   1.878
18952W        W85735   8.427  18.551   5.004
18953W        W85736  36.376  32.478   1.680
18954W        W85737   7.252   0.413   0.336
18955W        W85738  18.032  26.972  13.934
18956W        W85739  38.160  27.008   2.250
18957W        W85740   0.209  20.321   4.830
18958W        W85741   7.765   5.273   1.703
18959W        W85742  22.901  27.117   3.902
18960W        W85743   6.841  31.063  11.101
18961W        W85744  41.419   2.504   1.292
18962W        W85745   6.359   8.324  11.951
18963W        W85746  17.014  44.831   2.854
18964W        W85747  21.788   5.794  11.952
18965W        W85748  39.985  34.687   3.572
18966W        W85749  25.732  38.853  10.670
18967W        W85750  15.311  38.201   0.048
18968W        W85751  10.300   7.464   2.273
18969W        W85752  25.101  19.124  14.230
18970W        W85753   7.633  29.364  12.288
18971W        W85754   9.799  20.363  11.348
18972W        W85755  38.857  30.903  12.478
18973W        W85756   2.298   2.753  12.199
18974W        W85757   7.896  25.521  12.027
18975W        W85758  29.887  17.964  13.347
18976W        W85759  34.889  16.887   1.626
18977W        W85760   8.359  42.288   2.401
18978W        W85761   7.811   0.770   2.415
18979W        W85762  22.255  41.296   2.137
18980W        W85763  15.776  23.094  13.496
18981W        W85764  38.720  22.175   2.744
18982W        W85765  13.996  38.335   3.239
18983W        W85766  19.597  36.569  12.871
18984W        W85767  19.172  10.671  13.520
18985W        W85768   4.578  43.760   2.851
18986W        W85769  19.031   9.224  14.339
18987W        W85770   2.267  33.654   1.776
18988W        W85771  11.285   6.564  14.315
18989W        W85772  34.640  11.150  11.610
18990W        W85773  40.757   0.022   1.384
18991W        W85774  12.079  20.073  12.893
18992W        W85775   2.933  43.073   1.849
18993W        W85776  24.736  29.075   2.845
18994W        W85777  21.407  19.047   3.579
18995W        W85778   7.076  40.880  11.154
18996W        W85779  22.129  35.013  13.989
18997W        W85780  29.095  18.664   2.673
18998W        W85781  28.791  13.304  13.175
18999W        W85782  25.405  29.184   0.479
19000W        W85783   5.403  11.649   1.169
19001W        W85784  30.151   1.865   3.102
19002W        W85785  34.188  38.906   2.793
19003W        W85786  30.267  24.099   1.765
19004W        W85787  33.819  16.052   1.690
19005W        W85788  26.489  25.133   3.340
19006W        W85789   6.037  42.221  14.488
19007W        W85790   1.132  32.403   0.023
19008W        W85791  32.355  24.931  10.666
19009W        W85792  29.967  10.316   1.858
19010W        W85793  40.242  23.609   5.022
19011W        W85794  22.113  31.348   2.653
19012W        W85795  36.389  41.960   4.772
19013W        W85796  40.141  40.238   0.945
19014W        W85797  18.785   6.470   2.896
19015W        W85798  35.440  31.118  12.475
19016W        W85799  34.535  11.732   4.048
19017W        W85800  11.303  31.907   3.178
19018W        W85801  32.435  20.813  12.870
19019W        W85802  21.203   2.700  11.963
19020W        W85803  33.336  23.076   2.780
19021W        W85804  26.430  41.571  14.516
19022W        W85805   6.709  39.462  11.143
19023W        W85806  44.873  18.246  14.744
19024W        W85807  29.672   7.126  11.576
19025W        W85808  13.142  14.380   3.981
19026W        W85809   3.230  35.773  11.185
19027W        W85810  44.560  18.730   4.207
19028W        W85811  15.578   2.462  11.653
19029W        W85812   3.691   2.892  14.997
19030W        W85813   1.000  22.925  14.314
19031W        W85814  24.394  29.981  13.483
19032W        W85815   6.702  44.220  14.921
19033W        W85816   2.968  35.812  14.949
19034W        W85817  36.524  25.232   0.785
19035W        W85818   2.858  31.242  13.269
19036W        W85819   9.223  25.328   2.775
19037W        W85820  15.809  21.900  10.614
19038W        W85821  27.079   8.251  12.632
19039W        W85822  14.737   7.201   1.409
19040W        W85823  17.151   6.862   1.746
19041W        W85824  39.792   5.955   0.392
19042W        W85825  39.407  37.706  13.161
19043W        W85826   9.175  37.550  13.092
19044W        W85827   2.950  39.451  14.688
19045W        W85828   7.841  28.573  13.782
19046W        W85829  15.618   5.440  14.997
19047W        W85830  42.104  44.719  14.460
19048W        W85831  38.256  43.264   2.486
19049W        W85832  26.983   9.995  13.566
19050W        W85833  19.555  40.458  12.159
19051W        W85834  44.885  36.537   4.232
19052W        W85835  25.560   2.786  14.294
19053W        W85836  33.518  39.477   2.488
19054W        W85837  39.507  17.177  14.397
19055W        W85838  35.532  11.727  12.350
19056W        W85839  12.323  15.503  10.324
19057W        W85840  44.887  44.897  14.416
19058W        W85841  29.552  25.975  13.459
19059W        W85842   0.261   2.879  11.166
19060W        W85843   5.423  18.417  13.787
19061W        W85844   2.528  42.928   1.270
19062W        W85845  27.582  39.907  14.234
19063W        W85846   3.742  11.920   0.739
19064W        W85847   8.803  22.541   0.940
19065W        W85848  24.661  18.603  13.625
19066W        W85849  26.129  20.514  12.175
19067W        W85850  27.613   4.214  14.729
19068W        W85851  14.313   4.831   1.842
19069W        W85852  18.680  12.810  14.219
19070W        W85853  40.298   5.090   4.814
19071W        W85854  15.981   9.876  11.141
19072W        W85855  22.915  42.322   3.836
19073W        W85856  33.853  19.383   2.028
19074W        W85857  38.614  36.561   2.347
19075W        W85858  43.292  27.477  10.903
19076W        W85859   3.693  42.470  12.322
19077W        W85860  33.880  42.455  14.355
19078W        W85861  19.482  17.334   1.336
19079W        W85862  18.632  42.774   4.363
19080W        W85863  15.429  37.522  13.090
19081W        W85864  40.566   6.380   0.447
19082W        W85865  14.190  24.972  11.537
19083W        W85866  41.260  40.520  12.079
19084W        W85867  30.609  42.928   2.837
19085W        W85868  32.411   8.138   2.272
19086W        W85869  36.111  28.436   0.298
19087W        W85870  33.712  43.738   3.309
19088W        W85871  26.770  36.001  12.251
19089W        W85872  25.511  28.031   5.501
19090W        W85873   9.366  17.619  12.096
19091W        W85874  17.145   9.362   1.343
19092W        W85875  18.671  29.370  12.523
19093W        W85876  15.693  38.586   0.063
19094W        W85877   1.949   0.274  12.124
19095W        W85878  43.006  41.152   3.997
19096W        W85879  22.285   6.393   2.215
19097W        W85880  40.458  11.347  14.438
19098W        W85881  31.988  28.494   1.592
19099W        W85882  32.459  37.333  10.762
19100W        W85883   0.363  10.800   4.593
19101W        W85884  30.618  44.982  13.991
19102W        W85885   8.299  43.580   0.891
19103W        W85886   9.735  22.560   4.358
19104W        W85887   1.519   3.567   1.671
19105W        W85888  19.651  10.205  14.545
19106W        W85889  25.147  15.948  13.461
19107W        W85890  31.033   4.654   2.717
19108W        W85891   6.909  29.545   0.491
19109W        W85892  12.172   3.849   1.424
19110W        W85893  19.416  13.694   1.937
19111W        W85894  26.676   0.926  10.933
19112W        W85895  27.089  13.639  14.241
19113W        W85896  35.659   0.748  14.926
19114W        W85897  42.787  42.819   0.251
19115W        W85898  30.126  10.618   0.806
19116W        W85899  39.106  16.886   0.736
19117W        W85900  43.151  31.287   0.961
19118W        W85901  15.097   9.604   0.867
19119W        W85902  13.737  22.401  14.902
19120W        W85903  11.463  43.736  13.915
19121W        W85904  32.978  43.098   4.422
19122W        W85905  23.881   6.328   4.073
19123W        W85906  17.535  43.273  13.900
19124W        W85907   3.072   4.384  11.664
19125W        W85908  44.022  17.096   3.202
19126W        W85909  20.494  19.213  10.953
19127W        W85910  38.892  36.583  12.594
19128W        W85911  24.973   3.706   2.303
19129W        W85912  21.488  12.414   0.374
19130W        W85913  28.381  42.072   2.188
19131W        W85914  41.816  30.939   0.779
19132W        W85915   5.701  16.158  10.833
19133W        W85916  20.286  30.394   2.441
19134W        W85917  19.141  24.120  14.070
19135W        W85918  16.243  11.969   1.452
19136W        W85919   4.405  35.837  10.725
19137W        W85920  35.050  44.351   2.255
19138W        W85921  22.441  26.985   3.680
19139W        W85922  26.670  30.059  14.181
19140W        W85923  17.110  17.807  11.012
19141W        W85924  24.332  38.844   2.819
19142W        W85925  14.656  29.185   2.356
19143W        W85926  30.144  32.937  11.602
19144W        W85927  10.782  11.086   2.338
19145W        W85928  39.300  37.907   2.748
19146W        W85929   5.242  25.283  13.665
19147W        W85930  22.626  17.825   1.948
19148W        W85931   5.804   9.680  11.086
19149W        W85932  28.710  32.404  13.521
19150W        W85933  19.966  40.776  12.080
19151W        W85934  33.588  21.430  13.774
19152W        W85935  37.348   0.759  13.618
19153W        W85936  32.077  13.802  14.374
19154W        W85937  41.564  24.492   0.025
19155W        W85938  18.156   1.710  10.639
19156W        W85939  33.892  19.238   2.716
19157W        W85940   9.227  28.990  14.043
19158W        W85941  32.858   8.933   0.223
19159W        W85942   5.979  23.259   2.743
19160W        W85943  24.447  14.773  13.152
19161W        W85944  10.624  20.497   2.889
19162W        W85945  18.117  43.861  11.533
19163W        W85946   3.937  42.709   1.190
19164W        W85947  13.321   7.836   2.606
19165W        W85948  42.391   0.989   0.138
19166W        W85949  42.584  12.515  11.501
19167W        W85950  22.288  41.917  12.927
19168W        W85951  30.967   2.304   0.879
19169W        W85952  13.523  19.766  13.723
19170W        W85953  35.719  19.846  10.285
19171W        W85954  35.003  42.112   2.889
19172W        W85955   1.727   8.121  11.103
19173W        W85956   0.411  14.068  13.300
19174W        W85957  18.412  30.217  13.825
19175W        W85958  24.542  39.894   3.617
19176W        W85959  18.501  25.016   4.597
19177W        W85960  19.602   7.386  10.821
19178W        W85961  28.994  20.734   0.083
19179W        W85962  15.334  20.574   0.898
19180W        W85963  24.627  14.797  14.618
19181W        W85964   2.808   7.390   2.147
19182W        W85965  27.698  27.716   4.313
19183W        W85966  32.438  32.515   1.832
19184W        W85967   0.930  39.079  13.916
19185W        W85968   8.666  32.381   3.638
19186W        W85969  31.136   3.506   3.234
19187W        W85970  15.372  19.694   1.970
19188W        W85971  24.893  32.058   1.434
19189W        W85972  23.529  19.162   2.699
19190W        W85973  40.371   5.464  14.517
19191W        W85974  42.100  36.708   1.920
19192W        W85975  15.273   5.072   2.451
19193W        W85976  11.370  15.621   2.821
19194W        W85977   4.046  34.040  14.263
19195W        W85978  27.611  41.278   3.451
19196W        W85979   3.312  30.061   1.887
19197W        W85980   8.808   0.523   4.885
19198W        W85981  35.874  41.298   2.485
19199W        W85982  13.520  22.095  14.513
19200W        W85983  27.838  18.279   0.866
19201W        W85984  13.261  20.206  10.724
19202W        W85985  17.773  18.554  13.066
19203W        W85986  36.616  15.411   2.417
19204W        W85987  33.860   1.538  11.290
19205W        W85988  36.406  22.169   2.794
19206W        W85989  12.599  38.131   0.506
19207W        W85990   3.705  10.865   4.673
19208W        W85991  18.029  32.427  11.166
19209W        W85992  13.633  40.350  13.432
19210W        W85993  31.759  36.430   3.192
19211W        W85994  20.291  34.646   1.409
19212W        W85995  38.786  38.838   0.986
19213W        W85996  43.593  41.509  11.500
19214W        W85997  34.999  30.911  14.182
19215W        W85998  30.935   1.191   3.834
19216W        W85999  38.933  18.375  11.491
19217W        W86000  26.703  21.401  10.688
19218W        W86001  20.675  11.904   4.125
19219W        W86002  14.723  28.698   4.686
19220W        W86003   3.719  34.415   1.160
19221W        W86004  32.551  21.679  13.398
19222W        W86005   9.551  25.431  13.009
19223W        W86006  37.299  19.178   2.768
19224W        W86007  23.453  21.523   3.232
19225W        W86008   3.908  15.108  10.731
19226W        W86009  17.506   2.413  13.543
19227W        W86010  42.888  30.500   4.750
19228W        W86011  29.015   1.252  11.999
19229W        W86012  24.761  39.993  13.436
19230W        W86013   2.895  18.592   0.799
19231W        W86014   3.540  18.701  14.831
19232W        W86015  32.576  41.009  11.493
19233W        W86016  42.796  22.403   3.836
19234W        W86017  15.246  40.904  13.844
19235W        W86018  20.067  33.691  12.047
19236W        W86019   6.266   2.262  11.489
19237W        W86020  33.446  11.145   1.451
19238W        W86021  42.348   2.737  13.021
19239W        W86022  35.415  36.041   4.278
19240W        W86023   4.783  24.540  13.851
19241W        W86024  32.400  12.048  13.652
19242W        W86025  18.592  44.972   1.270
19243W        W86026  39.837   3.507  12.952
19244W        W86027   6.236  41.578  10.417
19245W        W86028  11.287   7.912  12.081
19246W        W86029  24.474  43.279  10.205
19247W        W86030   9.285  32.162   3.740
19248W        W86031  30.023  24.772  12.144
19249W        W86032  37.512  21.056   1.773
19250W        W86033  22.533  30.634  11.090
19251W        W86034  10.325  32.877   0.822
19252W        W86035   3.470  37.853   1.134
19253W        W86036  23.086  42.365  13.534
19254W        W86037  31.063  34.931   0.293
19255W        W86038   2.167  39.299  13.572
19256W        W86039   4.633  22.002   1.234
19257W        W86040  13.402   2.739   1.160
19258W        W86041   8.330  43.080  12.011
19259W        W86042  32.094  37.812   2.273
19260W        W86043  43.462  16.314   3.274
19261W        W86044   8.303  34.596  11.208
19262W        W86045   4.748  40.666   5.092
19263W        W86046  41.026  34.563  12.460
19264W        W86047  28.445  30.628  13.041
19265W        W86048  16.938   7.275  14.286
19266W        W86049  42.789  32.004   0.982
19267W        W86050  42.195  18.077  14.499
19268W        W86051  14.900  13.190  12.377
19269W        W86052  26.464  19.214  12.046
19270W        W86053  18.276  32.517   1.988
19271W        W86054  36.560  14.324   3.129
19272W        W86055  11.233  28.559  11.891
19273W        W86056  26.000  41.241   3.125
19274W        W86057  43.246  26.000   4.023
19275W        W86058  18.112  15.081  12.494
19276W        W86059  22.246  30.596   4.283
19277W        W86060  20.024  38.755   1.859
19278W        W86061  20.042   9.762   1.927
19279W        W86062  31.868  10.363  11.218
19280W        W86063  41.274  42.790   1.164
19281W        W86064   9.718  24.135  14.456
19282W        W86065  11.757   9.952  10.313
19283W        W86066   0.396  23.604  14.317
19284W        W86067  36.335   0.908  11.097
19285W        W86068  41.818  38.063   1.791
19286W        W86069  35.921  17.230  13.845
19287W        W86070  43.393  15.512  12.565
19288W        W86071  21.040  37.843  14.034
19289W        W86072  31.921  23.441  12.160
19290W        W86073  24.364  22.632   0.021
19291W        W86074  18.299  12.687  12.922
19292W        W86075  31.003  29.695  10.658
19293W        W86076   8.857  25.600   4.786
19294W        W86077  24.179  44.893  10.229
19295W        W86078  20.272  12.277   2.139
19296W        W86079  17.635  19.299  13.775
19297W        W86080  35.117   6.746  14.618
19298W        W86081   4.868  37.181   9.867
19299W        W86082  26.666  32.107   3.607
19300W        W86083  30.470  10.822  14.682
19301W        W86084   1.512  42.295  14.423
19302W        W86085  29.754  11.106   2.911
19303W        W86086  10.873  35.242  11.691
19304W        W86087  21.647   1.410  11.621
19305W        W86088  22.673   7.943  10.320
19306W        W86089  33.601  17.364   1.745
19307W        W86090   7.380  38.787   3.208
19308W        W86091   8.046  15.290   2.533
19309W        W86092   2.199  36.064   2.547
19310W        W86093  30.014  42.932  11.929
19311W        W86094  29.106  26.529  13.027
19312W        W86095  26.676  32.216  11.228
19313W        W86096  12.617  10.430   3.190
19314W        W86097  11.230  11.747   5.042
19315W        W86098  36.743  31.705  14.769
19316W        W86099  25.685  31.795  14.636
19317W        W86100  43.543   2.909   3.187
19318W        W86101   3.432  17.052  10.502
19319W        W86102  36.543  36.588  13.435
19320W        W86103  26.071  19.234   0.266
19321W        W86104  11.214  13.136   1.425
19322W        W86105  37.142  31.164  13.027
19323W        W86106   4.220  33.014  12.051
19324W        W86107  17.028  16.849   3.602
19325W        W86108  40.535  24.028   4.124
19326W        W86109  38.944  30.215   0.373
19327W        W86110  42.924  39.163   3.247
19328W        W86111  29.332   0.718   4.102
19329W        W86112  39.903  38.836  14.856
19330W        W86113  27.633  41.204  11.963
19331W        W86114  29.942  24.514   0.863
19332W        W86115   4.257  34.603   4.301
19333W        W86116  25.277   4.779   2.372
19334W        W86117  21.137   5.873  10.153
19335W        W86118  12.792  17.802  11.610
19336W        W86119  36.821   7.544  10.545
19337W        W86120  33.526  19.024  13.692
19338W        W86121   3.727  26.552  11.662
19339W        W86122  22.022   0.063   1.293
19340W        W86123  27.934   7.619   4.019
19341W        W86124  20.268  43.272   3.558
19342W        W86125   7.895  33.085   2.859
19343W        W86126   1.677   2.943   1.349
19344W        W86127   0.490  29.583   1.026
19345W        W86128  21.516   2.197  10.538
19346W        W86129  27.557  27.093  14.572
19347W        W86130  24.698  41.819   3.274
19348W        W86131   1.724  29.680  11.272
19349W        W86132  37.458  10.767   1.438
19350W        W86133  39.486  40.815   2.823
19351W        W86134   0.057   9.214  11.302
19352W        W86135  33.704   3.932   1.842
19353W        W86136  33.600  19.521   1.202
19354W        W86137  38.377  23.555  13.903
19355W        W86138  25.200  15.058  11.951
19356W        W86139   0.878   2.403  12.023
19357W        W86140  31.040   7.827   2.235
19358W        W86141   1.318   0.685  12.000
19359W        W86142  15.078   7.153  13.051
19360W        W86143  11.219  20.228   3.148
19361W        W86144   4.309  27.695   4.555
19362W        W86145  33.829   6.817  14.716
19363W        W86146  20.770  13.929   2.832
19364W        W86147  33.225  44.842   3.283
19365W        W86148  39.323  12.391   0.360
19366W        W86149  24.398   7.300   1.275
19367W        W86150  16.541  13.591  11.430
19368W        W86151  20.222  12.545  13.537
19369W        W86152  43.890   0.648  11.170
19370W        W86153  10.550   2.423   1.227
19371W        W86154  43.790   2.785   2.700
19372W        W86155  35.542  14.791   1.452
19373W        W86156  41.724  31.418  11.541
19374W        W86157  11.232   6.177  12.844
19375W        W86158  21.299  36.775  12.523
19376W        W86159   6.654  29.935  10.624
19377W        W86160  40.391  30.925  13.338
19378W        W86161  15.830  36.306  10.290
19379W        W86162   3.881  12.194   1.802
19380W        W86163   4.874  20.263   3.614
19381W        W86164  43.545  22.608   1.898
19382W        W86165   6.892  19.797  14.852
19383W        W86166   8.294  11.449  11.081
19384W        W86167  24.939  10.272   3.450
19385W        W86168  16.479  13.120   3.744
19386W        W86169   9.283   2.858   0.068
19387W        W86170  31.132  25.045   3.418
19388W        W86171  27.922  10.017  12.090
19389W        W86172  35.020   2.467   3.697
19390W        W86173  44.018  24.864  11.051
19391W        W86174  37.859   7.753  13.375
19392W        W86175  14.819  32.459   4.538
19393W        W86176  43.806  43.984   1.220
19394W        W86177  25.302   7.342   3.828
19395W        W86178  19.631   7.301   3.984
19396W        W86179   6.238  18.291  10.853
19397W        W86180  13.494  38.084   4.891
19398W        W86181   0.458  36.187  13.467
19399W        W86182  36.674  39.821  11.220
19400W        W86183  38.247  15.650   1.473
19401W        W86184  27.451   2.556  11.253
19402W        W86185  10.405   4.304   0.783
19403W        W86186   9.039  11.372   4.501
19404W        W86187   2.712   0.045  14.407
19405W        W86188  11.745  12.093  12.640
19406W        W86189  32.585  40.804   1.460
19407W        W86190  20.049  17.676  10.471
19408W        W86191  33.884  34.490   1.358
19409W        W86192  28.538  40.822   3.436
19410W        W86193   1.658  24.713  12.532
19411W        W86194  43.000   4.535  13.451
19412W        W86195  44.988  43.064   3.239
19413W        W86196   7.742  15.244   1.735
19414W        W86197  19.601   3.958  14.742
19415W        W86198  20.462  16.814   2.766
19416W        W86199  39.514  29.136   0.818
19417W        W86200  13.149  41.283  14.878
19418W        W86201  39.552  17.290  12.151
19419W        W86202  41.606  42.860  11.086
19420W        W86203  43.210  15.876  14.007
19421W        W86204  13.215  31.642  11.172
19422W        W86205  23.322  43.254   2.277
19423W        W86206  36.517   0.776   1.942
19424W        W86207   5.363  43.726   3.206
19425W        W86208  41.452  41.170  11.574
19426W        W86209  20.504  21.662   2.788
19427W        W86210   8.938  28.083   1.327
19428W        W86211  28.010  14.649   1.703
19429W        W86212  14.282  15.208   1.310
19430W        W86213  28.885  28.646  14.444
19431W        W86214  43.060   0.745  10.474
19432W        W86215  37.941  42.152   3.201
19433W        W86216  19.365   2.223   4.952
19434W        W86217  27.234   2.471   1.638
19435W        W86218   1.339   0.711  12.521
19436W        W86219  22.871   7.831   4.686
19437W        W86220  12.926  32.468  13.252
19438W        W86221   6.930  17.232  13.823
19439W        W86222  13.340  14.758   0.311
19440W        W86223  36.246  12.764   2.860
19441W        W86224   9.872  21.146  11.710
19442W        W86225  13.467  16.912   2.858
19443W        W86226  13.593  15.182  11.202
19444W        W86227  22.287  25.554   4.666
19445W        W86228  19.759  11.564   4.997
19446W        W86229  27.877  42.236   2.197
19447W        W86230  30.070  37.257   3.211
19448W        W86231  21.197  28.166  10.195
19449W        W86232  26.595   5.711  10.446
19450W        W86233  37.546  42.227  14.245
19451W        W86234  23.672   2.193   3.759
19452W        W86235   5.261  18.381   4.360
19453W        W86236  15.686  25.967   3.772
19454W        W86237   5.508  40.801  14.965
19455W        W86238   2.319  10.929  14.364
19456W        W86239   6.818  14.332  10.938
19457W        W86240  10.759  31.993   0.025
19458W        W86241  10.803  32.457   2.860
19459W        W86242  19.801   3.213  11.599
19460W        W86243  29.037  14.603   3.730
19461W        W86244  44.872   6.723  12.244
19462W        W86245  32.054  15.105  14.900
19463W        W86246  14.073  40.510   3.187
19464W        W86247  13.788  39.627   4.493
19465W        W86248  13.005  43.051   0.821
19466W        W86249  15.125  27.972   3.626
19467W        W86250  27.938  37.576   3.342
19468W        W86251  43.434  32.523  12.198
19469W        W86252  36.533  42.854   3.953
19470W        W86253  13.997  11.366   0.797
19471W        W86254   1.918   4.793  14.236
19472W        W86255  37.727  27.067   3.640
19473W        W86256   8.013  24.647   1.785
19474W        W86257  27.596   8.770  14.213
19475W        W86258  28.235  16.744  11.370
19476W        W86259   7.815  22.394  14.825
19477W        W86260  24.688  31.599   0.466
19478W        W86261  38.953  12.562   1.592
19479W        W86262  15.575  29.629  10.418
19480W        W86263   0.121  23.062   3.749
19481W        W86264  12.199   6.286   3.289
19482W        W86265  42.893  10.791   2.854
19483W        W86266  31.888  22.027  12.147
19484W        W86267  26.631  23.635   2.450
19485W        W86268  21.618  30.058  12.846
19486W        W86269  35.192  35.789  14.608
19487W        W86270  24.358   3.582  11.090
19488W        W86271   7.651   6.425   0.286
19489W        W86272   6.305  27.006  10.573
19490W        W86273   5.012   7.980  10.219
19491W        W86274  35.841   4.887  13.443
19492W        W86275  38.973  15.706   3.141
19493W        W86276  19.981   3.708   1.300
19494W        W86277  43.220  10.829   3.281
19495W        W86278   4.573  28.169   3.646
19496W        W86279   3.488  34.733   2.857
19497W        W86280  14.615   9.382   0.858
19498W        W86281  14.193   5.909   4.411
19499W        W86282   1.579  13.777   3.820
19500W        W86283  27.192  42.464   5.794
19501W        W86284  31.368  21.943  12.887
19502W        W86285  31.554  40.493  13.990
19503W        W86286  14.643   5.880  10.691
19504W        W86287  25.541  32.898  10.793
19505W        W86288  21.978  39.803   4.065
19506W        W86289  22.740  26.817  13.380
19507W        W86290  20.032  36.270  12.846
19508W        W86291  25.844  14.417   1.785
19509W        W86292  39.851  28.043  13.872
19510W        W86293  21.759  15.102   1.856
19511W        W86294  42.332  24.120  11.955
19512W        W86295  20.019  42.194  12.984
19513W        W86296  39.940  38.883   2.994
19514W        W86297  38.576  17.265   0.433
19515W        W86298  44.624   3.693   3.282
19516W        W86299  20.770   1.496   4.498
19517W        W86300  40.831  22.977   3.586
19518W        W86301   6.195  38.697  11.511
19519W        W86302  26.978   2.962   0.772
19520W        W86303   9.619  32.796   3.283
19521W        W86304  14.349  31.452   0.407
19522W        W86305  13.670  40.351   2.165
19523W        W86306  20.739   6.579  12.669
19524W        W86307  35.446  19.958  13.914
19525W        W86308  40.579  14.078   0.387
19526W        W86309   5.745  18.049  14.977
19527W        W86310  17.615  22.524  12.876
19528W        W86311  16.372  12.757  13.279
19529W        W86312   4.706  20.161   1.900
19530W        W86313  20.985  44.689  12.959
19531W        W86314   8.402  38.564  13.057
19532W        W86315  28.172  41.146   2.163
19533W        W86316  44.972  39.018  13.941
19534W        W86317  35.475  29.945   1.152
19535W        W86318   3.930  17.501  13.051
19536W        W86319  35.501  19.255  12.001
19537W        W86320  21.162  26.886  14.515
19538W        W86321  22.542  32.998  13.290
19539W        W86322  23.213   7.940   2.117
19540W        W86323   1.399  25.944  12.951
19541W        W86324   7.154   9.693  14.559
19542W        W86325   4.328  40.328   3.831
19543W        W86326  34.999  34.992   4.512
19544W        W86327   5.208  25.048   0.423
19545W        W86328  18.881   6.772   1.455
19546W        W86329  44.817  24.594  11.779
19547W        W86330  11.173   2.888  13.490
19548W        W86331  36.681  28.826   1.359
19549W        W86332  11.776  33.849  12.016
19550W        W86333  18.338   7.207   3.243
19551W        W86334  37.576  26.225   0.509
19552W        W86335  24.974  28.695  11.398
19553W        W86336  17.862   6.877  12.808
19554W        W86337  13.007  32.974   4.600
19555W        W86338  11.384   5.300   0.933
19556W        W86339  36.094  44.566   1.259
19557W        W86340  27.220  34.956   0.255
19558W        W86341  41.799  19.772  13.749
19559W        W86342  11.827  29.505  13.598
19560W        W86343  38.374   9.307   4.272
19561W        W86344  34.221  44.506  14.785
19562W        W86345  22.646  34.341  10.055
19563W        W86346  39.608   0.946  12.421
19564W        W86347  20.712   0.327   5.084
19565W        W86348  17.079   0.943  12.506
19566W        W86349   3.523  32.440  10.708
19567W        W86350  19.820  10.889   4.263
19568W        W86351  22.248  27.638   3.138
19569W        W86352  37.767  42.871   0.420
19570W        W86353  26.263  27.639   4.281
19571W        W86354  23.563  32.089   1.041
19572W        W86355  24.142  39.364   4.552
19573W        W86356  16.014  14.946  13.290
19574W        W86357  37.005   6.438  12.169
19575W        W86358  28.612  40.943   5.470
19576W        W86359   6.318   4.145   3.586
19577W        W86360  11.506  22.898  13.437
19578W        W86361  40.804  40.390   3.288
19579W        W86362  23.683  37.051  11.241
19580W        W86363  36.213  23.535  11.078
19581W        W86364  23.609  18.555   1.810
19582W        W86365  17.905  37.909   0.935
19583W        W86366  33.423   2.818  13.322
19584W        W86367  32.391  28.175   3.273
19585W        W86368   7.908  29.610   5.070
19586W        W86369   0.530   2.410  11.135
19587W        W86370   8.494  24.443   2.716
19588W        W86371  13.366  37.047  13.531
19589W        W86372  17.991  11.334  12.541
19590W        W86373  19.550  18.633  10.466
19591W        W86374   1.453   3.793  10.749
19592W        W86375  43.395   0.687   1.805
19593W        W86376  42.597  18.160  14.848
19594W        W86377   9.215  13.779  10.713
19595W        W86378  31.530  34.404  14.887
19596W        W86379   6.122  19.882   0.503
19597W        W86380  12.776  32.606  10.710
19598W        W86381  37.292   0.756   2.941
19599W        W86382  40.087  15.736   0.893
19600W        W86383  23.053  30.364   3.257
19601W        W86384  15.300  38.348   1.804
19602W        W86385   1.305  11.854   3.234
19603W        W86386  17.658  40.985  14.361
19604W        W86387   7.826  25.288  14.307
19605W        W86388  16.360  29.122  12.474
19606W        W86389  38.719  27.798   0.801
19607W        W86390  16.554  11.229   0.394
19608W        W86391  11.883   1.931   3.967
19609W        W86392  10.126  12.818  10.898
19610W        W86393  10.553  30.359  11.134
19611W        W86394  31.705   9.244   4.990
19612W        W86395  42.047  22.341   2.747
19613W        W86396   0.080  24.020   4.167
19614W        W86397   4.076  39.063  12.083
19615W        W86398   9.348  28.449  14.275
19616W        W86399  42.515  42.320  10.727
19617W        W86400   0.989   9.248  13.898
19618W        W86401  33.517  15.291  12.169
19619W        W86402  34.524  34.117  12.483
19620W        W86403   0.943  30.991   5.152
19621W        W86404  21.561  39.051   0.240
19622W        W86405  37.241   8.163   0.301
19623W        W86406   1.411  11.350   3.215
19624W        W86407  16.164  31.069  12.364
19625W        W86408  32.685  42.186  11.837
19626W        W86409  28.603   5.196   3.726
19627W        W86410   4.395  37.656  11.032
19628W        W86411  11.688   8.917   0.817
19629W        W86412  20.291  35.795  14.458
19630W        W86413  44.819  23.820  12.184
19631W        W86414   3.087  33.377   2.757
19632W        W86415  34.136   4.889  13.673
19633W        W86416  43.780  25.964   1.430
19634W        W86417  23.138  22.114   3.555
19635W        W86418  33.433  40.469   4.244
19636W        W86419  13.624  20.269  13.827
19637W        W86420  33.213  23.817   3.254
19638W        W86421   2.252  41.287   3.346
19639W        W86422  27.085  14.314  12.392
19640W        W86423  17.158  32.409  12.035
19641W        W86424  25.496  29.375  10.766
19642W        W86425  32.053  24.967  11.078
19643W        W86426   8.919  44.409  12.435
19644W        W86427  34.862  37.734  12.115
19645W        W86428  44.233  24.247  12.488
19646W        W86429  27.876  37.997  11.711
19647W        W86430  30.685  44.624   4.248
19648W        W86431  14.604  23.768  13.260
19649W        W86432  44.407  32.534  13.061
19650W        W86433  29.117  10.317   0.266
19651W        W86434  22.100  41.366   2.615
19652W        W86435  28.454   6.602   3.794
19653W        W86436  41.790  23.526   0.840
19654W        W86437  16.009  25.163   4.331
19655W        W86438  10.453  19.236   1.088
19656W        W86439  28.105  31.319  14.049
19657W        W86440  13.664   7.984   1.822
19658W        W86441   6.507  40.803  13.320
19659W        W86442  27.469  18.015  11.644
19660W        W86443   1.118  31.239   3.124
19661W        W86444  13.734  41.301   3.188
19662W        W86445  38.773  32.832   4.181
19663W        W86446  39.443  35.063  12.884
19664W        W86447  11.878   9.787   2.644
19665W        W86448  26.046   8.922   0.482
19666W        W86449  11.409  22.022   4.141
19667W        W86450  40.241   5.647   3.582
19668W        W86451  32.509  22.005   0.188
19669W        W86452  28.846  36.301  11.903
19670W        W86453  24.753  13.043   0.948
19671W        W86454   1.368  22.884   1.026
19672W        W86455   3.059  31.844  10.292
19673W        W86456  30.682  23.090  14.284
19674W        W86457  33.818  17.984  13.495
19675W        W86458  12.815  23.260   0.504
19676W        W86459  42.438  27.540   3.813
19677W        W86460  29.596   7.806  11.162
19678W        W86461  10.024   6.379  11.167
19679W        W86462   5.511  41.756  12.488
19680W        W86463  12.656  38.897  11.460
19681W        W86464  12.142  37.566   1.048
19682W        W86465  20.594  42.908  10.762
19683W        W86466  28.072  43.522  10.684
19684W        W86467  13.113  33.916  11.624
19685W        W86468  24.095  28.375   2.733
19686W        W86469  32.556  27.552   2.316
19687W        W86470  28.518  39.089   4.265
19688W        W86471  21.816  19.184   1.085
19689W        W86472  42.333  18.795   4.079
19690W        W86473   3.843  14.362  11.888
19691W        W86474  15.103  14.788  13.761
19692W        W86475  27.266  14.770   0.254
19693W        W86476  34.862  40.507   1.237
19694W        W86477  36.761  25.364  12.613
19695W        W86478   0.276  33.867  12.635
19696W        W86479   3.742  41.459   3.299
19697W        W86480  29.419  10.718  12.985
19698W        W86481  21.473  33.567  12.535
19699W        W86482  28.048  28.022   9.926
19700W        W86483   3.385  16.645   1.159
19701W        W86484  29.053  32.509  10.729
19702W        W86485   1.966  18.789   3.608
19703W        W86486  25.520   5.211  14.992
19704W        W86487  44.773  29.026   4.434
19705W        W86488  13.093   3.628   1.477
19706W        W86489  19.126  15.548  14.491
19707W        W86490   4.162  39.577   1.293
19708W        W86491  33.911  27.374   4.126
19709W        W86492   4.820   3.227  10.756
19710W        W86493   3.965  23.306   1.007
19711W        W86494  10.857   1.755   4.566
19712W        W86495  43.284  30.028   2.649
19713W        W86496  32.477   6.997   0.284
19714W        W86497  12.573  19.211   4.172
19715W        W86498  15.035  39.066  12.481
19716W        W86499  26.665  33.157   2.403
19717W        W86500  22.240   6.171   3.060
19718W        W86501  39.007   7.197   1.377
19719W        W86502   6.864  15.288  12.622
19720W        W86503   3.353  35.104  13.393
19721W        W86504  23.629   1.156  11.809
19722W        W86505  22.177  33.825  14.975
19723W        W86506  12.180   9.169   4.948
19724W        W86507  41.826  17.266   4.593
19725W        W86508  10.347  43.920  12.605
19726W        W86509   5.193  30.653  11.557
19727W        W86510  40.843   1.144   0.054
19728W        W86511   0.356   0.601   1.689
19729W        W86512  11.168  30.348   4.657
19730W        W86513  15.148   4.697  13.455
19731W        W86514   0.904  10.732   4.145
19732W        W86515   4.510   0.929  10.896
19733W        W86516  43.103   3.258  13.117
19734W        W86517  35.048   8.890  10.357
19735W        W86518  28.679  14.630   1.515
19736W        W86519  28.651  40.870  11.096
19737W        W86520  25.004  21.317  10.825
19738W        W86521   6.836  10.377   1.378
19739W        W86522   3.232  43.334  12.500
19740W        W86523  13.950  24.502  13.571
19741W        W86524   3.730  19.158  14.912
19742W        W86525   4.520  32.930   4.416
19743W        W86526  44.434  29.911  11.967
19744W        W86527  26.723  21.481  14.386
19745W        W86528  26.914  22.950  12.659
19746W        W86529  36.350  36.292  10.294
19747W        W86530  17.026   0.100  14.079
19748W        W86531  27.135  43.779   3.204
19749W        W86532  19.491   1.509   1.266
19750W        W86533   0.783  20.682  12.076
19751W        W86534  35.889  32.516  14.011
19752W        W86535   3.957  22.658  14.839
19753W        W86536  34.011  31.398   0.027
19754W        W86537  24.727  23.052   9.918
19755W        W86538  10.723  24.680  14.414
19756W        W86539  29.980  36.502   4.205
19757W        W86540  26.488   6.817   0.811
19758W        W86541  26.245  43.847  14.118
19759W        W86542   9.578  28.300  12.343
19760W        W86543   8.583  23.892  13.229
19761W        W86544  19.215  11.460  13.245
19762W        W86545  33.905   7.037   3.159
19763W        W86546  17.101  23.033   3.303
19764W        W86547  33.517   9.151  13.961
19765W        W86548   4.330  26.574  10.835
19766W        W86549   8.758  20.202   4.678
19767W        W86550   4.331  22.669  13.511
19768W        W86551   9.382  33.163   3.601
19769W        W86552  37.669  19.770  12.825
19770W        W86553  18.138  43.848  10.673
19771W        W86554  28.037  36.455  12.015
19772W        W86555  12.070   5.836  11.617
19773W        W86556  28.045   0.959  14.319
19774W        W86557  18.618   7.167  11.203
19775W        W86558  18.346  12.105  11.632
19776W        W86559  39.066   1.705  14.876
19777W        W86560  31.673   0.409  11.953
19778W        W86561   0.927  14.150   4.901
19779W        W86562  36.249   3.370  14.759
19780W        W86563   8.705  23.091  10.699
19781W        W86564  32.852  44.328   2.321
19782W        W86565   1.290  39.104   3.528
19783W        W86566  14.535   1.960  13.973
19784W        W86567   3.024  10.179  13.121
19785W        W86568  13.182  44.064  12.617
19786W        W86569  24.577  33.253  10.945
19787W        W86570  31.018  24.060   1.000
19788W        W86571  40.223  12.298   1.852
19789W        W86572  10.460  27.638   4.517
19790W        W86573  26.706  43.947   0.511
19791W        W86574  41.074  11.852  12.479
19792W        W86575  40.874  22.203  10.404
19793W        W86576  40.770   1.522  13.026
19794W        W86577  35.104  41.308  12.957
19795W        W86578  38.651  32.809  10.682
19796W        W86579  10.213  42.823  12.010
19797W        W86580  44.185  24.185  10.691
19798W        W86581  19.777  19.063   3.759
19799W        W86582  14.128  44.418   4.058
19800W        W86583  18.245  36.371   4.887
19801W        W86584   3.830  32.040   3.662
19802W        W86585   1.736  40.807  14.852
19803W        W86586  41.591  38.264  12.564
19804W        W86587   9.317  33.103  11.448
19805W        W86588  39.453   4.274   0.354
19806W        W86589  35.375  13.869  12.893
19807W        W86590  24.788  42.661   2.907
19808W        W86591  32.510  39.483   3.398
19809W        W86592  26.731  16.307  10.258
19810W        W86593   6.252  21.823  13.960
19811W        W86594   6.190   5.423   0.438
19812W        W86595  18.742  36.827   4.192
19813W        W86596   0.699   1.007   1.213
19814W        W86597  44.739  37.986   3.240
19815W        W86598   9.239  13.744   3.583
19816W        W86599   5.030   1.474   5.035
19817W        W86600  27.388  16.069  11.049
19818W        W86601  12.877  15.088   3.576
19819W        W86602   5.890  17.210   0.476
19820W        W86603  17.063  42.022   2.269
19821W        W86604  43.808  19.069  11.170
19822W        W86605  36.526  15.130  14.886
19823W        W86606  23.099   2.853   0.362
19824W        W86607  13.071  35.244   4.220
19825W        W86608   2.309  15.193  12.416
19826W        W86609  29.698  27.089  10.920
19827W        W86610  33.060  18.255   0.335
19828W        W86611  20.949  34.615  14.837
19829W        W86612  35.061  32.424   2.460
19830W        W86613  33.887   3.455  13.981
19831W        W86614  11.877  43.876  13.644
19832W        W86615  17.044  13.504  11.171
19833W        W86616  35.928   8.920  14.920
19834W        W86617  41.039  32.159   0.323
19835W        W86618  39.595   7.101  14.337
19836W        W86619   4.590   6.357   4.882
19837W        W86620  31.692   4.189  13.004
19838W        W86621  43.107  39.148  13.065
19839W        W86622  29.553  32.731  13.807
19840W        W86623   7.249  11.554   0.322
19841W        W86624  31.037  11.776   3.995
19842W        W86625  18.601  25.867  10.359
19843W        W86626  15.637  13.762   1.411
19844W        W86627  44.733   6.748  14.052
19845W        W86628  33.761  23.796   3.178
19846W        W86629   4.061  40.259  11.056
19847W        W86630  16.859  42.803  10.514
19848W        W86631  44.957  28.280  13.423
19849W        W86632  30.562  24.530  10.875
19850W        W86633  32.056  13.207  12.828
19851W        W86634  28.974  26.188  11.079
19852W        W86635  32.166   0.929  11.623
19853W        W86636   1.539   5.517   2.436
19854W        W86637  43.178  21.828   0.789
19855W        W86638  24.107   6.735  13.604
19856W        W86639   1.762  42.970  11.934
19857W        W86640  12.426  36.139   3.115
19858W        W86641   8.964  43.704  10.729
19859W        W86642   2.750  28.229  14.006
19860W        W86643  25.980  43.475   0.297
19861W        W86644  10.307  11.767  13.361
19862W        W86645  23.555  36.949   2.119
19863W        W86646   4.469  19.157  10.358
19864W        W86647  16.259  10.620  10.676
19865W        W86648  39.164  40.336  13.033
19866W        W86649  16.257  40.781  10.714
19867W        W86650  44.200  35.906   2.272
19868W        W86651  31.534  25.229  12.082
19869W        W86652  43.734  18.282   2.407
19870W        W86653   9.361   6.983  12.102
19871W        W86654   1.953  11.857   0.322
19872W        W86655  39.439  43.277  12.710
19873W        W86656  38.251   8.589   9.942
19874W        W86657  10.213  40.416   1.222
19875W        W86658  19.551  19.605  11.437
19876W        W86659  38.530  42.383  14.416
19877W        W86660   5.662  24.070   0.401
19878W        W86661  24.236  22.292   0.858
19879W        W86662  28.431  28.415   0.301
19880W        W86663  39.198  39.774   0.756
19881W        W86664  40.117  36.453   2.313
19882W        W86665  23.589  42.811   1.515
19883W        W86666  24.270   1.797   3.606
19884W        W86667  42.050  24.408  12.359
19885W        W86668  34.640  37.597   3.841
19886W        W86669  43.983  42.443   4.438
19887W        W86670  34.426   1.711  12.999
19888W        W86671  12.360  12.111  13.926
19889W        W86672  44.505  18.499   0.961
19890W        W86673  20.775  31.427  10.924
19891W        W86674  15.678   0.864  13.917
19892W        W86675  19.930  23.782  11.576
19893W        W86676   3.736   9.930  12.114
19894W        W86677  41.263   5.318   0.050
19895W        W86678   9.297   2.475   2.203
19896W        W86679  29.653   4.458  11.955
19897W        W86680  30.144  40.049   3.651
19898W        W86681  31.439   7.085  14.352
19899W        W86682  19.685  23.067  12.087
19900W        W86683  29.047  30.461  12.281
19901W        W86684  35.576   0.715   0.655
19902W        W86685  17.804  10.905   2.659
19903W        W86686   7.938  40.140   4.484
19904W        W86687   4.260  26.117  13.366
19905W        W86688  24.516  23.949   1.491
19906W        W86689   0.618  21.917  10.737
19907W        W86690  32.513   1.819   0.277
19908W        W86691   6.201  13.237   1.572
19909W        W86692  17.823  13.759   0.684
19910W        W86693   3.995  26.570   4.217
19911W        W86694  41.790  34.634   3.324
19912W        W86695  21.285  42.433  11.060
19913W        W86696  31.389  13.470   1.212
19914W        W86697  14.202   7.408  13.984
19915W        W86698  24.475  20.602  10.695
19916W        W86699  33.010  37.313   2.298
19917W        W86700  39.795  38.929  12.094
19918W        W86701  27.380  42.724  12.542
19919W        W86702  33.558  27.677   3.252
19920W        W86703  40.535  11.446   4.653
19921W        W86704  27.958  28.120   4.688
19922W        W86705  44.203  35.818   4.417
19923W        W86706  19.184  43.295  13.060
19924W        W86707  30.224   6.286   4.733
19925W        W86708  30.904  10.708  11.569
19926W        W86709   0.024   8.782  11.012
19927W        W86710  26.821   5.587  12.581
19928W        W86711  32.058  13.360  11.078
19929W        W86712  26.243  43.491  10.272
19930W        W86713  10.224  40.910  13.521
19931W        W86714  38.936   7.788  12.320
19932W        W86715  41.526  36.412   0.794
19933W        W86716  11.186  31.199   1.820
19934W        W86717  43.819  32.921  10.776
19935W        W86718  30.934  24.022   2.303
19936W        W86719   0.743  27.036   0.827
19937W        W86720   9.632  44.591   0.713
19938W        W86721  41.876  14.391   1.819
19939W        W86722  27.091   5.750   1.121
19940W        W86723   6.832  41.460  12.513
19941W        W86724  29.906  41.292   4.571
19942W        W86725  38.029   8.340   1.753
19943W        W86726  20.628  14.665   0.795
19944W        W86727  32.026  18.472  10.236
19945W        W86728  21.668  39.522   0.982
19946W        W86729   9.899  14.321  10.401
19947W        W86730  12.598  32.412  14.014
19948W        W86731  10.668  15.147  12.579
19949W        W86732   5.358   9.771  10.876
19950W        W86733  28.627   1.047   1.494
19951W        W86734  29.839   4.037   2.577
19952W        W86735  23.858   9.572  12.940
19953W        W86736  28.982  19.725   1.183
19954W        W86737  23.386  22.493  14.996
19955W        W86738  37.977  44.480   1.685
19956W        W86739  25.711  27.225  11.212
19957W        W86740  28.110   3.747   3.163
19958W        W86741  13.810  33.462   1.762
19959W        W86742   5.933   2.458  10.931
19960W        W86743  36.598   2.477  11.712
19961W        W86744  16.369  23.021   0.871
19962W        W86745  40.408  36.675   0.500
19963W        W86746  36.080  35.434   1.186
19964W        W86747  27.170  15.676  12.027
19965W        W86748  24.137   0.906   4.105
19966W        W86749  18.109  20.592  12.718
19967W        W86750  10.663   6.696   9.972
19968W        W86751  11.070  15.911  11.460
19969W        W86752  37.685   8.965  12.041
19970W        W86753   8.671  42.025  13.837
19971W        W86754   5.016  12.072   3.698
19972W        W86755  30.965   7.444  13.437
19973W        W86756  39.954   4.643  11.102
19974W        W86757  25.919  31.337   1.721
19975W        W86758   6.471  35.076   3.651
19976W        W86759  28.377  13.888  14.846
19977W        W86760  16.627  19.012  13.419
19978W        W86761  11.827  29.609   4.658
19979W        W86762   4.345  43.980  14.393
19980W        W86763  41.465   2.005  11.800
19981W        W86764   0.511  44.811  10.714
19982W        W86765  36.139  32.392  10.861
19983W        W86766   9.636   9.268   1.863
19984W        W86767   4.280  11.537  13.039
19985W        W86768  25.951  21.786   1.893
19986W        W86769  26.278   0.755   2.572
19987W        W86770  33.828   8.751   1.984
19988W        W86771  38.518  24.514  14.788
19989W        W86772  30.837   9.859   0.306
19990W        W86773  14.346   8.220  13.612
19991W        W86774  32.572  24.093  10.330
19992W        W86775   9.687  23.422   4.108
19993W        W86776  11.612  13.941  10.528
19994W        W86777  17.307  23.025   2.334
19995W        W86778   8.581  29.737   4.054
19996W        W86779   2.421  13.786  11.080
19997W        W86780  40.797   7.946   3.759
19998W        W86781  20.730   1.298  10.258
19999W        W86782   5.178  21.935  11.081
20000W        W86783  21.759   6.125  14.924
20001W        W86784  44.200  24.899   0.375
20002W        W86785  41.486  11.120  13.816
20003W        W86786  22.622  40.605  13.563
20004W        W86787  32.453  19.514  11.556
20005W        W86788   8.443  36.060  11.158
20006W        W86789  34.594  25.534  11.938
20007W        W86790  13.055  21.949   0.842
20008W        W86791   3.236   4.859  11.780
20009W        W86792  21.765  37.627  13.336
20010W        W86793  20.713  22.532  13.753
20011W        W86794  42.838  37.048  11.492
20012W        W86795  41.989  34.820  12.730
20013W        W86796  30.294  32.769  12.600
20014W        W86797  23.486  12.403   0.918
20015W        W86798  18.201  41.994   1.832
20016W        W86799  44.873  41.234  10.684
20017W        W86800  15.789  44.229   2.803
20018W        W86801  42.632  19.973  11.446
20019W        W86802  38.951  18.623  13.214
20020W        W86803  24.988  11.229   0.871
20021W        W86804   9.900  32.880  12.990
20022W        W86805  26.181  40.012   2.273
20023W        W86806  20.469  31.833   3.357
20024W        W86807  35.550  16.993   3.394
20025W        W86808  39.931  32.256  14.949
20026W        W86809  35.854   6.269  14.988
20027W        W86810   8.168  40.583  13.903
20028W        W86811  11.168  13.625  12.043
20029W        W86812  43.730  44.756   1.253
20030W        W86813   6.945   6.177  12.028
20031W        W86814  44.982  40.887  13.523
20032W        W86815  27.797  24.970   1.461
20033W        W86816  12.733  10.816   1.381
20034W        W86817  16.691  16.631   3.111
20035W        W86818  31.301   1.177   2.846
20036W        W86819  42.269  34.503  13.019
20037W        W86820  39.228   8.869   4.592
20038W        W86821   5.789  22.262  11.902
20039W        W86822  39.627  22.173  12.821
20040W        W86823   4.339  10.209  10.742
20041W        W86824  34.893  24.486   0.351
20042W        W86825  33.301  34.700   3.265
20043W        W86826  30.979  42.783   5.176
20044W        W86827  23.487   1.246   4.666
20045W        W86828  30.233  43.287   4.549
20046W        W86829  22.542  40.336   1.172
20047W        W86830  10.626  11.968  11.670
20048W        W86831  26.478  36.222  11.480
20049W        W86832  31.932  42.093  10.737
20050W        W86833  34.682  14.517  12.591
20051W        W86834   6.430  40.376   4.597
20052W        W86835  22.534  29.503  14.230
20053W        W86836  35.731  20.098   5.698
20054W        W86837  26.962  20.922  10.606
20055W        W86838   5.760   4.799  14.955
20056W        W86839  36.820  25.547   1.598
20057W        W86840   2.205  22.969  13.629
20058W        W86841  39.036  30.211  12.799
20059W        W86842  43.991  42.033  14.024
20060W        W86843  14.178  39.985   3.800
20061W        W86844  41.782  28.457   3.611
20062W        W86845  17.137  35.202   2.067
20063W        W86846   1.881  22.101  11.874
20064W        W86847  30.835  31.019   2.382
20065W        W86848   7.708  29.073  13.041
20066W        W86849  10.311  34.151  11.134
20067W        W86850  37.039  20.213  12.074
20068W        W86851  27.146   2.280   3.274
20069W        W86852   3.947  35.769   2.976
20070W        W86853  37.027  35.330  11.329
20071W        W86854  37.450  35.174   2.029
20072W        W86855  33.354  21.526  14.221
20073W        W86856  10.270  10.713   0.068
20074W        W86857   3.456  42.008   0.674
20075W        W86858  18.921  30.021   3.741
20076W        W86859  35.937   2.992   4.316
20077W        W86860  16.882  31.889   3.710
20078W        W86861   3.980  24.375  14.574
20079W        W86862  22.361  38.038   3.802
20080W        W86863   5.200  37.576  13.858
20081W        W86864   2.599  38.336  11.479
20082W        W86865  43.789  30.514   3.844
20083W        W86866  30.339   6.510  14.082
20084W        W86867  38.666  10.330   3.206
20085W        W86868   7.786  43.432   0.258
20086W        W86869  41.341   9.883   4.355
20087W        W86870   3.454  23.574  12.959
20088W        W86871  44.724  21.801  11.548
20089W        W86872   9.678  36.047   0.190
20090W        W86873   3.100   1.985   3.209
20091W        W86874  10.691  16.640   4.353
20092W        W86875   7.320  25.666   1.391
20093W        W86876  19.692  23.610   2.835
20094W        W86877  37.960   4.058  11.977
20095W        W86878   1.296  13.703   4.767
20096W        W86879  42.418  21.021  12.921
20097W        W86880  14.579  32.205   0.216
20098W        W86881  25.899  28.648   3.360
20099W        W86882  10.866  29.119  14.039
20100W        W86883  43.983  18.081  12.976
20101W        W86884  38.338   8.693  14.003
20102W        W86885  28.879  43.899   0.991
20103W        W86886  35.316  27.417   1.776
20104W        W86887  22.281  40.597  10.651
20105W        W86888   6.205   1.351   4.569
20106W        W86889  24.352   6.413   0.094
20107W        W86890  31.086  22.825  12.305
20108W        W86891  40.568  43.415   0.352
20109W        W86892  20.021  17.210  14.914
20110W        W86893   0.975  10.206   4.337
20111W        W86894  21.424   5.325  11.933
20112W        W86895   3.608  26.690   0.945
20113W        W86896  26.814  15.436  11.676
20114W        W86897  42.381  40.448   4.894
20115W        W86898  12.723   4.357  11.379
20116W        W86899  27.861  16.218   0.847
20117W        W86900  35.969  39.942   1.273
20118W        W86901  19.853  39.277  12.305
20119W        W86902  34.055  32.397  12.013
20120W        W86903  11.372  14.073  11.125
20121W        W86904  39.827  44.280  12.977
20122W        W86905  34.900  32.916   0.365
20123W        W86906  22.705   1.206   3.410
20124W        W86907   3.339  41.542   2.474
20125W        W86908   1.716  37.382   0.054
20126W        W86909  38.368  33.723   2.576
20127W        W86910  24.131  44.781   3.174
20128W        W86911  26.451  36.557   0.931
20129W        W86912  39.851  37.447  12.681
20130W        W86913  39.932  31.169  13.353
20131W        W86914  11.684   9.480   3.086
20132W        W86915  26.077  19.364   1.786
20133W        W86916  14.848  15.705   1.765
20134W        W86917   2.796  15.132   3.321
20135W        W86918   7.266  21.496   2.152
20136W        W86919  15.540   4.283   2.413
20137W        W86920  10.439   6.286   0.849
20138W        W86921  42.406   6.617   3.469
20139W        W86922  38.576  33.540  10.984
20140W        W86923  27.683  25.614   4.303
20141W        W86924  40.866  19.242  14.501
20142W        W86925  34.939  27.687  11.708
20143W        W86926  37.129  36.104   0.872
20144W        W86927  17.899  26.605  12.441
20145W        W86928  26.223  11.168   2.721
20146W        W86929  18.887   1.674   3.457
20147W        W86930  28.042  37.158  10.762
20148W        W86931  21.178  19.940   1.200
20149W        W86932  30.231  20.032  14.302
20150W        W86933  38.931  24.167  11.634
20151W        W86934   8.263   3.997  12.169
20152W        W86935  13.194  11.626   2.084
20153W        W86936   3.328  17.115  11.534
20154W        W86937  39.058  21.496   4.461
20155W        W86938  24.066  37.747   2.288
20156W        W86939  37.388  35.598  14.282
20157W        W86940  37.856   4.417   1.290
20158W        W86941  39.919   0.161   0.405
20159W        W86942   2.345  15.280   3.143
20160W        W86943  18.098  12.022  13.405
20161W        W86944  11.079  25.755   1.798
20162W        W86945  44.660  41.735  12.614
20163W        W86946  30.292  36.492   0.465
20164W        W86947  43.323  17.020   2.871
20165W        W86948  27.850  44.344  11.723
20166W        W86949  17.831  23.748   3.172
20167W        W86950   4.805  32.418  11.811
20168W        W86951  25.447  16.900  13.238
20169W        W86952   8.248  30.039  14.282
20170W        W86953  44.437  20.225  12.553
20171W        W86954  39.315   3.954   3.294
20172W        W86955  23.996  37.196   0.136
20173W        W86956  40.915  11.739  11.598
20174W        W86957   0.664  27.574  11.103
20175W        W86958   7.270  24.120   3.897
20176W        W86959  35.884  10.399   4.294
20177W        W86960  18.657  43.275  13.312
20178W        W86961  11.567   5.667   2.795
20179W        W86962  10.870  12.262   4.295
20180W        W86963  35.506   2.539   1.868
20181W        W86964  38.677  27.597  14.440
20182W        W86965  31.620   8.084  14.096
20183W        W86966   8.272   7.016  10.500
20184W        W86967   3.472  40.330   4.835
20185W        W86968  23.428   5.024  10.382
20186W        W86969  17.724  36.556  14.000
20187W        W86970  23.034   3.121  12.286
20188W        W86971   6.693  32.631  11.867
20189W        W86972  24.436  15.243   3.616
20190W        W86973  42.055  22.607   0.485
20191W        W86974  22.794  34.890   5.240
20192W        W86975  42.259  29.784  13.111
20193W        W86976  25.069  11.123  14.287
20194W        W86977  21.211  30.638  10.665
20195W        W86978  35.303  32.834  12.977
20196W        W86979  28.179  14.077  12.188
20197W        W86980  32.631  38.449   3.941
20198W        W86981  13.155  23.487  13.744
20199W        W86982   0.748  40.730   0.666
20200W        W86983   3.092  27.887   3.231
20201W        W86984   9.755  24.792   2.464
20202W        W86985  17.639  21.712   4.564
20203W        W86986   1.532  34.449  12.530
20204W        W86987  21.251  25.069  10.267
20205W        W86988  16.134  28.380  11.159
20206W        W86989   7.467  19.560  11.559
20207W        W86990  29.672  27.153  13.492
20208W        W86991   5.938  30.202   2.211
20209W        W86992  11.235   3.932   1.275
20210W        W86993   0.084  14.077   2.780
20211W        W86994   4.710  43.344   4.203
20212W        W86995  17.076  19.461   0.950
20213W        W86996  21.568  44.142  13.498
20214W        W86997   3.523  44.990   3.597
20215W        W86998  33.585  12.788   2.123
20216W        W86999  29.111   2.839  14.994
20217W        W87000   7.260  36.035   0.400
20218W        W87001  38.327   4.227  12.935
20219W        W87002  37.888  14.504   4.503
20220W        W87003  21.335  24.558   3.711
20221W        W87004  43.315  19.388  11.249
20222W        W87005  44.384  16.944  10.028
20223W        W87006   8.272  12.768  12.389
20224W        W87007   9.216  44.755   2.722
20225W        W87008  20.686   9.321  11.701
20226W        W87009  33.415   4.524   0.267
20227W        W87010   3.264   9.420   1.264
20228W        W87011   9.413  28.793  13.090
20229W        W87012  22.251  31.471  14.460
20230W        W87013  35.428   9.624  12.459
20231W        W87014  26.501  22.791  10.605
20232W        W87015  40.751   7.441   3.409
20233W        W87016  26.059  24.498  13.260
20234W        W87017  15.585  22.634   1.809
20235W        W87018   0.699  21.069  10.284
20236W        W87019  12.222  44.849  13.551
20237W        W87020   0.387  33.002  13.183
20238W        W87021   2.866  28.921  12.562
20239W        W87022  19.832  19.560  12.925
20240W        W87023  34.139  39.796   0.274
20241W        W87024  37.995  26.407  14.201
20242W        W87025   2.268  41.585   0.384
20243W        W87026  27.559  38.133   2.093
20244W        W87027  11.631  44.919   1.854
20245W        W87028  11.953  12.390  14.319
20246W        W87029  38.825  12.543   3.236
20247W        W87030  22.615   0.884  11.160
20248W        W87031  23.275  14.717  12.447
20249W        W87032   0.948   1.097   3.360
20250W        W87033  13.597  20.273   2.541
20251W        W87034  44.101   1.954  10.524
20252W        W87035  10.001  35.145   4.039
20253W        W87036  34.484  40.097   2.643
20254W        W87037  12.582  19.604  14.831
20255W        W87038  13.342  32.561  11.303
20256W        W87039  29.922  12.448   0.423
20257W        W87040   4.544  30.462   4.729
20258W        W87041  37.271  17.659  11.063
20259W        W87042  21.494   9.311   3.432
20260W        W87043   3.569  13.887  14.044
20261W        W87044  30.552  24.118  14.203
20262W        W87045   7.163  36.934  12.194
20263W        W87046  24.527  20.790   0.511
20264W        W87047  23.829   1.414   4.288
20265W        W87048   9.034   7.382  12.147
20266W        W87049  37.575  18.254   0.258
20267W        W87050  32.281   1.607  13.813
20268W        W87051  44.215  21.181  12.580
20269W        W87052   4.540  32.403   1.949
20270W        W87053  38.937  44.287   2.719
20271W        W87054   0.293  20.823   1.652
20272W        W87055   9.314  27.032  12.026
20273W        W87056  40.850  32.621   0.128
20274W        W87057  36.156  27.410  11.651
20275W        W87058   0.481  23.178  13.430
20276W        W87059  12.485  26.732  13.985
20277W        W87060   1.998   8.576  11.166
20278W        W87061   2.840  14.541   3.678
20279W        W87062   2.381  20.669  13.886
20280W        W87063   4.806  29.469  13.898
20281W        W87064  22.994  21.633   1.564
20282W        W87065   3.955  19.043  12.380
20283W        W87066  24.418  38.531  10.838
20284W        W87067  40.283  22.801   1.772
20285W        W87068  32.373  17.872  12.920
20286W        W87069   2.994  10.265  14.065
20287W        W87070  13.261  36.755   2.732
20288W        W87071  13.603  15.368  14.119
20289W        W87072  29.049  25.305  13.520
20290W        W87073   8.441  16.342  12.638
20291W        W87074   3.815  32.956  10.771
20292W        W87075  37.836   4.235  13.100
20293W        W87076  25.081  37.026   4.604
20294W        W87077  27.160  22.818  13.083
20295W        W87078   1.894  31.192  10.479
20296W        W87079  44.062  34.940   3.270
20297W        W87080   1.478   2.098   4.045
20298W        W87081  34.732  26.073   0.279
20299W        W87082  42.556  30.258  14.347
20300W        W87083  24.676  39.398   3.666
20301W        W87084  11.938  26.840   3.248
20302W        W87085  30.004   2.744   2.283
20303W        W87086  24.176  21.960  10.561
20304W        W87087  19.309  13.438  14.772
20305W        W87088   4.502  42.454   9.970
20306W        W87089  16.950  24.532  12.508
20307W        W87090  38.077   3.491  13.387
20308W        W87091  28.190  33.077   0.755
20309W        W87092  10.710  31.690   0.444
20310W        W87093  33.454   1.305   0.497
20311W        W87094   2.461   6.181   1.833
20312W        W87095  23.244   2.383   3.519
20313W        W87096   7.236   4.365  11.634
20314W        W87097   5.441  17.168   1.733
20315W        W87098  38.937  26.068  12.498
20316W        W87099  17.607  12.183  10.270
20317W        W87100   9.712   1.359  11.178
20318W        W87101  18.241  28.696  10.786
20319W        W87102   8.838  26.224   2.878
20320W        W87103   9.088  32.383   3.310
20321W        W87104  16.679   8.706  11.593
20322W        W87105  14.345  26.268   3.287
20323W        W87106   4.400  13.567  13.395
20324W        W87107  21.655  43.947   2.867
20325W        W87108  11.919   2.785   1.239
20326W        W87109  29.663   3.631   3.918
20327W        W87110  22.507  38.388   3.330
20328W        W87111  32.400  25.718  12.020
20329W        W87112  17.242   4.262  14.501
20330W        W87113  28.678  37.141  12.083
20331W        W87114   9.364  22.593  12.132
20332W        W87115  12.263  31.620   1.880
20333W        W87116  26.430  22.481  11.005
20334W        W87117  18.842  32.013  13.870
20335W        W87118  41.070   8.344   2.662
20336W        W87119  14.875   6.132  13.992
20337W        W87120  22.048   6.741   0.381
20338W        W87121  14.583  32.974  11.136
20339W        W87122  21.748  20.325   3.209
20340W        W87123  18.547  31.818  14.337
20341W        W87124  36.978  25.583   3.258
20342W        W87125  34.906   5.559   1.063
20343W        W87126  20.533  11.862   3.252
20344W        W87127   3.837   7.475  14.461
20345W        W87128   7.955  42.998   1.333
20346W        W87129  42.987  37.513  10.746
20347W        W87130  36.499  36.575   0.040
20348W        W87131   4.559  20.346   3.189
20349W        W87132  14.028  23.242  13.821
20350W        W87133   5.419  29.444  13.023
20351W        W87134  41.537  35.575  14.964
20352W        W87135  35.131  38.726   0.931
20353W        W87136  39.501   7.643  12.038
20354W        W87137  22.910  31.593   0.847
20355W        W87138  37.982  11.353   1.542
20356W        W87139  41.768  21.940  10.739
20357W        W87140  34.730   3.318   9.895
20358W        W87141  37.014   1.755  12.277
20359W        W87142   7.822  43.296  10.953
20360W        W87143  41.913   5.633   2.880
20361W        W87144  40.605  34.004  14.869
20362W        W87145  30.478  22.207   0.418
20363W        W87146  40.027  32.622   0.291
20364W        W87147  27.727  42.036   4.004
20365W        W87148  34.804  39.837  13.043
20366W        W87149  39.778  16.640  11.046
20367W        W87150  24.529  32.958   4.388
20368W        W87151  12.823  22.760  11.720
20369W        W87152  24.043   2.491   0.488
20370W        W87153  33.561  42.750   5.054
20371W        W87154   0.434   6.944   2.918
20372W        W87155  13.736  16.337   4.191
20373W        W87156  12.126   3.204   4.173
20374W        W87157  31.010  31.509   3.631
20375W        W87158  42.423  30.739  14.158
20376W        W87159  20.052  18.136  14.380
20377W        W87160   7.148  16.597   1.026
20378W        W87161  36.358  12.521   4.990
20379W        W87162  43.064  31.920   0.023
20380W        W87163  39.883  30.671   0.838
20381W        W87164   4.276   8.474  11.747
20382W        W87165  38.265  17.305   3.337
20383W        W87166   8.384  32.645  14.421
20384W        W87167   1.272   1.911   3.598
20385W        W87168  25.475  11.270   0.645
20386W        W87169  19.247  31.083  13.430
20387W        W87170  38.347  12.589   0.843
20388W        W87171  31.901  27.851   1.002
20389W        W87172  20.204   6.230   4.554
20390W        W87173  32.155  34.869   0.384
20391W        W87174  29.065  19.320  11.902
20392W        W87175  25.476  29.952   3.803
20393W        W87176  19.823  37.687  11.439
20394W        W87177  39.839  14.240  12.656
20395W        W87178  35.368   6.383  13.379
20396W        W87179  17.933  19.037   1.960
20397W        W87180   8.411  40.455  13.473
20398W        W87181  24.160   4.346  10.847
20399W        W87182  25.930  28.696  11.423
20400W        W87183  12.793   4.825  13.156
20401W        W87184  28.213   1.095  14.810
20402W        W87185  26.191  21.091  14.559
20403W        W87186  10.793  40.601   1.806
20404W        W87187  42.632   0.907  10.845
20405W        W87188  26.210  24.451   5.040
20406W        W87189  24.597  42.386   3.304
20407W        W87190  11.442   5.983   2.255
20408W        W87191  44.740  43.273   3.807
20409W        W87192  16.554   4.859  11.241
20410W        W87193  35.633   9.121   1.332
20411W        W87194  21.259  33.834  12.109
20412W        W87195   3.863  42.199   4.567
20413W        W87196  31.051   9.205  11.403
20414W        W87197  44.821  23.267  13.839
20415W        W87198  44.843  26.376   2.091
20416W        W87199  30.760  35.256  11.522
20417W        W87200   5.483  27.269  10.756
20418W        W87201  22.486  11.111   0.975
20419W        W87202  10.360  13.733  14.316
20420W        W87203  38.669  22.712   3.404
20421W        W87204   5.142  36.127  13.029
20422W        W87205   8.166  13.031  14.961
20423W        W87206  43.362  22.577   4.797
20424W        W87207   8.786   0.424  14.556
20425W        W87208  15.330   2.537  12.605
20426W        W87209  38.217   5.821   0.353
20427W        W87210  15.786  10.435   4.271
20428W        W87211   4.466   5.346   2.936
20429W        W87212  10.025  20.720  10.018
20430W        W87213  35.911  38.406   2.198
20431W        W87214  41.435   4.336  11.160
20432W        W87215  36.635  36.205   3.114
20433W        W87216  20.202  28.613   0.470
20434W        W87217  41.992   7.389  11.969
20435W        W87218  20.012  30.580  12.884
20436W        W87219  36.001  30.903   2.922
20437W        W87220  41.450  26.027   3.021
20438W        W87221   2.413   4.142  14.529
20439W        W87222  37.917  18.560  10.782
20440W        W87223  38.570  24.409  14.283
20441W        W87224  28.066  14.875  14.806
20442W        W87225  28.069  31.633   3.151
20443W        W87226  43.422  24.052   1.688
20444W        W87227  31.624   4.404   0.078
20445W        W87228  40.847  13.712   2.378
20446W        W87229  29.798  12.635   3.132
20447W        W87230  22.907  40.491  13.097
20448W        W87231  13.080  20.014   3.205
20449W        W87232  22.756  43.636  13.468
20450W        W87233  35.583   9.320  12.051
20451W        W87234  11.217  41.562   1.222
20452W        W87235  37.523  20.582   2.748
20453W        W87236  25.449  29.990  11.598
20454W        W87237  44.281  18.644  10.552
20455W        W87238  14.147  27.596  14.813
20456W        W87239  42.511  21.116   4.932
20457W        W87240  16.669  24.149   3.797
20458W        W87241  43.507   0.175  13.525
20459W        W87242  11.956  42.453   1.402
20460W        W87243  26.504  37.044   4.733
20461W        W87244  35.455  35.291   2.345
20462W        W87245  10.221  26.239   3.220
20463W        W87246  16.483  34.397   2.750
20464W        W87247  25.733  26.578  14.668
20465W        W87248  42.727  20.718   0.516
20466W        W87249  18.461  27.571   0.728
20467W        W87250  24.150  31.397   1.331
20468W        W87251  32.596  14.588  11.043
20469W        W87252  20.383  18.729  14.251
20470W        W87253  34.529  24.533  13.956
20471W        W87254  28.435   8.377  12.678
20472W        W87255  12.697  18.733  10.545
20473W        W87256  13.809  21.392  14.976
20474W        W87257  34.640  43.147  14.091
20475W        W87258  42.837  11.610  12.146
20476W        W87259  37.524  14.309  13.446
20477W        W87260  31.142  33.163  10.736
20478W        W87261  20.041  22.625  14.877
20479W        W87262  42.008  13.601  12.159
20480W        W87263   6.053  41.486  11.248
20481W        W87264  15.747   5.214   1.754
20482W        W87265  43.806   8.364   2.370
20483W        W87266  35.303  33.717   4.792
20484W        W87267  36.894  12.556  13.134
20485W        W87268  39.000  12.663  11.530
20486W        W87269  15.769  43.953  11.584
20487W        W87270   7.327  40.069  10.163
20488W        W87271  36.719   5.634   1.252
20489W        W87272  43.620  36.269  14.887
20490W        W87273  18.198  16.210   0.605
20491W        W87274  42.641  15.960  10.302
20492W        W87275  15.234  13.326  14.065
20493W        W87276  24.926  37.710   0.672
20494W        W87277  23.159  24.460  11.049
20495W        W87278  16.206  22.992   3.713
20496W        W87279  38.373  13.746  13.986
20497W        W87280  40.258  17.678  13.324
20498W        W87281   0.390  22.616   3.644
20499W        W87282  44.167  11.858  14.290
20500W        W87283  14.550  16.045  10.642
20501W        W87284  11.738  18.541   4.307
20502W        W87285  11.159  28.480  11.386
20503W        W87286  17.545  31.391   1.629
20504W        W87287  12.658  15.938   1.999
20505W        W87288   7.681  37.569  12.117
20506W        W87289  19.112  18.294   0.625
20507W        W87290  21.749  42.364  11.540
20508W        W87291  21.248  10.329   3.904
20509W        W87292   2.100  19.980  11.329
20510W        W87293   1.788   2.786  10.908
20511W        W87294   0.738  40.038  14.418
20512W        W87295  30.896  34.099  12.021
20513W        W87296  34.110  20.095   0.191
20514W        W87297  42.519   9.400   0.923
20515W        W87298  33.943  14.162  14.054
20516W        W87299  41.928  15.180   0.365
20517W        W87300  37.536   1.959   0.607
20518W        W87301   3.747   7.132   2.265
20519W        W87302  21.269  20.820  12.514
20520W        W87303  39.914  37.228   1.332
20521W        W87304  15.166  42.101  11.853
20522W        W87305  30.060  33.819   0.423
20523W        W87306  42.461  25.037   4.093
20524W        W87307   9.628   1.453   4.002
20525W        W87308  33.642  42.432  11.986
20526W        W87309  19.511  22.429   1.504
20527W        W87310   8.289  15.253   1.222
20528W        W87311  18.611   8.900   0.735
20529W        W87312  21.162  28.074  14.020
20530W        W87313   3.206  35.149   2.150
20531W        W87314   1.524  19.197   2.690
20532W        W87315  28.258  10.779  13.330
20533W        W87316   3.410  40.813  14.161
20534W        W87317  13.758   0.378  12.058
20535W        W87318  37.923  40.043   0.190
20536W        W87319  27.017  41.941   3.718
20537W        W87320  11.190  18.221  12.568
20538W        W87321  42.338  11.814  14.586
20539W        W87322  20.480   6.159   3.327
20540W        W87323  38.753  40.787  11.909
20541W        W87324  27.550  37.524   2.570
20542W        W87325  25.651  18.456   0.365
20543W        W87326  22.694  13.750   2.787
20544W        W87327   8.292  40.612   4.073
20545W        W87328  28.340  27.395   0.297
20546W        W87329   4.131  30.543   2.184
20547W        W87330  22.585   6.025  10.867
20548W        W87331  16.770  14.160   3.134
20549W        W87332  37.281   5.185   0.706
20550W        W87333  11.886  31.068  13.583
20551W        W87334  40.032   8.762   4.206
20552W        W87335  34.158  13.177  11.450
20553W        W87336  34.882  25.966  14.391
20554W        W87337   5.549  11.313  13.967
20555W        W87338  13.155  18.707  12.128
20556W        W87339  11.338  39.855  11.521
20557W        W87340  12.769   9.276   0.921
20558W        W87341  35.273  19.044   0.677
20559W        W87342   9.343  16.041   3.977
20560W        W87343   5.712  39.365   1.309
20561W        W87344  37.819  17.142   0.992
20562W        W87345   4.409  33.334   2.383
20563W        W87346   8.637  13.108  14.268
20564W        W87347  16.692   1.279  12.417
20565W        W87348   0.173   9.893   2.810
20566W        W87349  42.195  17.855  11.956
20567W        W87350   0.500  32.523  11.982
20568W        W87351  34.514  30.556   4.469
20569W        W87352  30.633   2.993   0.358
20570W        W87353  40.848  41.921   0.725
20571W        W87354  41.744  15.882   1.768
20572W        W87355  17.698  12.556   3.154
20573W        W87356  20.446  12.063  14.403
20574W        W87357   6.551  39.422   4.499
20575W        W87358  13.309  44.542   0.520
20576W        W87359  12.654   2.910   3.203
20577W        W87360  20.176   4.938  13.006
20578W        W87361  34.678  22.685   2.768
20579W        W87362   6.574  16.624   1.714
20580W        W87363  34.493   5.836   1.903
20581W        W87364  10.193  39.800   1.958
20582W        W87365  19.131   9.392   2.631
20583W        W87366  36.983  43.118  10.439
20584W        W87367  40.144  43.827  13.911
20585W        W87368  17.142  12.532  11.143
20586W        W87369  22.175  25.328  10.172
20587W        W87370  18.448  15.049  11.280
20588W        W87371  21.873  15.252   2.860
20589W        W87372   1.999   2.658  13.132
20590W        W87373  40.249  42.351   2.309
20591W        W87374  37.985  38.158  11.385
20592W        W87375  19.051  39.128   1.745
20593W        W87376  29.919   6.584   1.722
20594W        W87377  17.700  37.919  14.411
20595W        W87378  21.093   5.247  12.334
20596W        W87379   5.417  16.245  11.700
20597W        W87380  33.892  15.062  11.140
20598W        W87381  22.622   7.959   4.208
20599W        W87382   1.787   0.143  12.598
20600W        W87383  22.436  13.515  14.522
20601W        W87384   8.229   5.352   2.322
20602W        W87385  14.022  32.447   1.411
20603W        W87386  17.291  15.771  14.504
20604W        W87387  11.689  40.450  12.506
20605W        W87388  28.540  33.434   3.376
20606W        W87389  17.743  39.628  10.040
20607W        W87390  43.229   9.203   0.183
20608W        W87391  30.997  18.559   3.142
20609W        W87392  34.972   9.512  14.646
20610W        W87393  21.154  25.098  10.791
20611W        W87394  15.256  39.031  12.994
20612W        W87395  41.602  28.374  14.079
20613W        W87396  13.319   2.998   2.178
20614W        W87397  29.613  22.882  13.023
20615W        W87398  11.211  10.414   0.827
20616W        W87399  25.990  12.663  14.234
20617W        W87400  16.081   4.784  12.512
20618W        W87401  30.035  10.579  12.364
20619W        W87402  37.062  33.401   4.290
20620W        W87403  10.351  18.203   0.919
20621W        W87404  27.047  36.171   2.489
20622W        W87405  35.368  23.069  12.896
20623W        W87406  40.834  22.762  14.054
20624W        W87407   1.910  15.174  14.938
20625W        W87408  10.756  27.051  10.082
20626W        W87409  32.013  33.826  13.476
20627W        W87410  38.986  33.501  12.307
20628W        W87411   1.963  13.512   3.579
20629W        W87412  15.089   8.388  14.485
20630W        W87413  29.481  25.008  12.602
20631W        W87414   3.352  32.630  14.369
20632W        W87415   7.781  32.110  13.589
20633W        W87416  28.437  21.501   0.964
20634W        W87417   3.486  42.886  12.580
20635W        W87418  26.289  20.769   2.792
20636W        W87419   5.474   4.941   0.417
20637W        W87420  18.178  36.408  14.237
20638W        W87421  15.664  13.255   1.623
20639W        W87422  13.371  26.929  13.748
20640W        W87423  40.214  19.487   1.768
20641W        W87424  26.656  22.199  14.132
20642W        W87425   4.063   9.679  12.445
20643W        W87426  35.126   5.840   4.622
20644W        W87427  30.528  11.307   4.572
20645W        W87428  43.961  12.151   2.175
20646W        W87429   0.343  12.602   4.140
20647W        W87430  22.066   1.466   1.334
20648W        W87431  30.667  30.364  11.188
20649W        W87432  25.394  27.659  11.150
20650W        W87433  22.049   2.445  14.043
20651W        W87434  22.112  26.589  12.945
20652W        W87435  29.632  10.649   2.615
20653W        W87436   1.523   4.589  11.034
20654W        W87437  30.668  36.451   0.100
20655W        W87438  31.836  38.133   1.970
20656W        W87439  40.519   7.134  12.934
20657W        W87440  17.251  40.501  10.657
20658W        W87441  13.042  41.820   9.920
20659W        W87442  33.085   9.546   1.827
20660W        W87443  26.210   8.176   2.189
20661W        W87444  44.351   6.705  11.203
20662W        W87445  40.821  21.873  10.810
20663W        W87446  44.275   9.413  14.525
20664W        W87447  20.015  13.832  13.044
20665W        W87448   8.617  12.299   1.331
20666W        W87449  33.430  12.046  10.150
20667W        W87450  26.825  15.614   5.121
20668W        W87451  11.125  41.886   4.178
20669W        W87452  39.566  21.619   4.570
20670W        W87453  36.772  17.735  12.019
20671W        W87454   9.839  17.583  11.502
20672W        W87455  39.593  39.820  14.838
20673W        W87456  40.505  16.756  12.911
20674W        W87457  13.267  40.714  11.235
20675W        W87458   2.588  12.694  13.980
20676W        W87459  33.848  37.169   4.105
20677W        W87460  40.958   8.543   1.368
20678W        W87461  20.616  30.210   5.079
20679W        W87462  34.516  14.363   1.855
20680W        W87463  44.345  42.477   3.688
20681W        W87464  20.379   8.530   4.313
20682W        W87465  22.210  25.067  11.411
20683W        W87466  44.830   8.193   2.823
20684W        W87467  28.632  21.943   3.199
20685W        W87468  26.800  26.195  11.576
20686W        W87469  38.504  36.924   4.481
20687W        W87470  28.585  31.559   4.995
20688W        W87471  32.738  21.488   3.570
20689W        W87472  19.525   9.283  12.548
20690W        W87473  25.547  14.335  14.324
20691W        W87474  21.704  28.638   0.261
20692W        W87475   0.911   7.540  10.677
20693W        W87476   1.887   7.440  14.765
20694W        W87477  10.023  27.138   3.725
20695W        W87478  16.303   4.487  12.872
20696W        W87479  13.373  39.378  13.921
20697W        W87480   2.342  16.126   3.705
20698W        W87481  10.114   1.900  11.595
20699W        W87482  23.292   8.140   0.839
20700W        W87483   0.321  18.967   2.346
20701W        W87484  32.828  28.578   0.838
20702W        W87485   5.681  41.738   0.558
20703W        W87486   8.308  30.835   2.355
20704W        W87487   0.826  34.453  10.395
20705W        W87488  40.525  16.280  13.455
20706W        W87489   7.015  34.616   2.732
20707W        W87490   7.255   9.147   2.110
20708W        W87491  40.145   0.284   9.921
20709W        W87492   8.491  33.025  12.277
20710W        W87493  12.688   6.967  11.488
20711W        W87494  38.995  40.242   3.280
20712W        W87495  14.570  26.285  11.725
20713W        W87496  38.040   3.345  14.782
20714W        W87497  30.825  31.272  11.082
20715W        W87498  10.522   0.413  14.908
20716W        W87499  26.181  42.119   3.908
20717W        W87500  16.930  44.286   4.543
20718W        W87501  22.157  12.393   4.910
20719W        W87502  17.597  25.933   1.685
20720W        W87503  26.260  20.718  13.022
20721W        W87504  20.136  36.529   1.253
20722W        W87505  18.525   5.708   3.277
20723W        W87506  22.080  18.124  11.991
20724W        W87507  28.524  41.413   2.730
20725W        W87508  20.675   1.211   4.084
20726W        W87509   5.682  28.596   2.869
20727W        W87510   8.755  17.005   1.810
20728W        W87511  26.041  16.760   2.178
20729W        W87512   1.896  22.311   3.480
20730W        W87513  38.595   9.330  13.959
20731W        W87514  35.461  19.330  11.078
20732W        W87515   4.850  14.111   2.823
20733W        W87516  22.419  14.308   0.211
20734W        W87517  19.010  28.467   2.793
20735W        W87518  38.135  10.266   0.814
20736W        W87519  24.001  38.726   2.439
20737W        W87520  36.714   2.288  13.942
20738W        W87521  33.026   6.395  10.492
20739W        W87522  24.297  13.708   1.407
20740W        W87523  25.182   0.391   3.219
20741W        W87524  33.898   0.303  11.713
20742W        W87525  28.176  20.726   1.825
20743W        W87526  43.606  17.576  11.154
20744W        W87527  14.063  11.670  13.918
20745W        W87528  15.100  15.247  14.576
20746W        W87529  35.005  17.648   3.741
20747W        W87530   1.530  16.530   1.461
20748W        W87531  30.616  25.334   1.814
20749W        W87532  39.838   4.687   3.699
20750W        W87533  19.847   2.408   2.646
20751W        W87534  43.686  29.990   2.242
20752W        W87535   7.878  23.232   0.226
20753W        W87536  22.175  44.412  12.853
20754W        W87537  19.297  25.487  11.709
20755W        W87538   4.663  39.127   3.284
20756W        W87539  15.677  14.759   0.788
20757W        W87540  36.319  11.846   0.695
20758W        W87541  22.293  23.468  13.431
20759W        W87542  40.486  10.596  13.420
20760W        W87543  21.582   4.149   0.545
20761W        W87544  28.016   7.735   3.152
20762W        W87545   9.767   3.558   1.845
20763W        W87546   0.194  28.605   0.871
20764W        W87547  10.414  36.828   1.785
20765W        W87548  13.871  41.308  10.778
20766W        W87549  40.669  25.006  14.229
20767W        W87550  38.018  20.391   4.421
20768W        W87551  17.477  11.219  12.576
20769W        W87552  22.287   0.246  13.818
20770W        W87553  26.492  23.974  14.157
20771W        W87554  12.574  25.170  10.675
20772W        W87555   1.490  32.069   1.733
20773W        W87556   4.127  38.153  14.062
20774W        W87557  14.358  35.673  12.034
20775W        W87558  44.474  14.410  10.706
20776W        W87559  43.563  27.888   4.033
20777W        W87560  21.342   7.740  11.557
20778W        W87561  19.206  36.438   2.756
20779W        W87562   0.301  17.501   4.014
20780W        W87563  28.697  32.107   0.176
20781W        W87564  16.175  20.834  13.812
20782W        W87565  28.425  35.483  12.197
20783W        W87566  24.335  20.287  12.011
20784W        W87567  23.888  11.241  10.781
20785W        W87568   4.820  34.464   9.980
20786W        W87569  42.308  35.962   0.618
20787W        W87570  33.127  41.905  14.016
20788W        W87571  30.301  38.427  14.468
20789W        W87572  33.425  38.587   2.502
20790W        W87573  13.774  28.882  11.704
20791W        W87574  34.989  35.895   4.553
20792W        W87575  24.196  19.758   1.748
20793W        W87576  10.477  34.485  12.960
20794W        W87577  11.891   1.692   2.649
20795W        W87578  21.830  21.145  14.834
20796W        W87579  26.175  28.991   1.689
20797W        W87580  14.531   9.225   3.149
20798W        W87581  11.640  20.078   4.365
20799W        W87582   2.924  39.599  13.664
20800W        W87583  16.344  31.525  13.567
20801W        W87584  24.260  44.906  10.742
20802W        W87585  15.331  36.931  12.509
20803W        W87586  18.852  12.262   9.857
20804W        W87587  38.372  20.668  11.265
20805W        W87588  28.395  28.668   1.228
20806W        W87589  19.237  10.962  13.963
20807W        W87590  20.335   1.057  14.105
20808W        W87591  26.126   5.189  12.917
20809W        W87592  41.171  36.338  13.956
20810W        W87593  37.071  23.283  11.118
20811W        W87594  29.975  12.306  10.892
20812W        W87595  27.788  24.817   9.987
20813W        W87596  29.015   0.048  13.462
20814W        W87597  37.471  36.153   1.761
20815W        W87598  44.482   6.301   4.115
20816W        W87599   0.299  37.639   0.848
20817W        W87600  41.493  27.654   3.366
20818W        W87601  19.773   0.358  13.989
20819W        W87602   4.437   4.309  12.076
20820W        W87603   3.963  33.397   0.132
20821W        W87604  33.383   6.381   3.250
20822W        W87605  14.143   4.589  10.673
20823W        W87606  25.691  26.830   1.808
20824W        W87607   7.460  23.064   4.322
20825W        W87608  17.361  13.141  12.376
20826W        W87609  18.238  20.457  13.203
20827W        W87610   4.482   4.026  10.484
20828W        W87611  30.763  36.993  11.953
20829W        W87612   2.318  41.165   1.713
20830W        W87613  26.300  10.860  13.523
20831W        W87614  12.358  44.416  12.670
20832W        W87615  28.186  38.819  14.917
20833W        W87616   7.318  36.662  14.289
20834W        W87617  27.935  29.437   9.836
20835W        W87618  11.644  10.151  14.828
20836W        W87619   7.474  23.623   4.097
20837W        W87620  38.719  13.669  12.495
20838W        W87621  17.361  24.759  11.155
20839W        W87622   7.408   2.258   0.825
20840W        W87623  43.256   0.463   4.279
20841W        W87624  20.198   1.679  13.421
20842W        W87625  22.191  41.855  14.283
20843W        W87626  41.968  41.772   1.733
20844W        W87627  26.879  43.367  12.927
20845W        W87628  30.096  37.448  14.285
20846W        W87629  35.584   1.393   4.184
20847W        W87630   4.897  43.505   4.672
20848W        W87631  36.870  40.571  12.451
20849W        W87632  22.625  43.778  10.772
20850W        W87633  43.376  20.470  13.407
20851W        W87634  13.522  38.875  10.912
20852W        W87635  10.292  33.744  13.981
20853W        W87636  19.604  27.065  13.002
20854W        W87637  44.773  41.579  12.087
20855W        W87638  40.408  29.949   0.655
20856W        W87639  27.473  30.981  10.624
20857W        W87640  42.278  13.817   2.827
20858W        W87641  14.809   1.041  11.576
20859W        W87642   4.113  21.997  11.061
20860W        W87643  16.239   5.930  14.502
20861W        W87644  17.258  37.872  13.402
20862W        W87645  37.001   8.265  11.638
20863W        W87646  12.289  18.186   0.687
20864W        W87647  42.535  24.819  13.143
20865W        W87648   6.301  40.510   3.731
20866W        W87649  18.203   1.988  12.048
20867W        W87650  11.914  23.276   2.371
20868W        W87651   7.196  23.545   1.637
20869W        W87652  37.197  41.398   4.888
20870W        W87653   8.171  39.945   3.246
20871W        W87654  39.385  14.706   4.370
20872W        W87655  33.986  42.493   3.708
20873W        W87656  28.489  37.458  13.024
20874W        W87657  30.177   0.360   4.039
20875W        W87658   3.461   0.912   0.405
20876W        W87659   7.012  18.003   2.707
20877W        W87660  38.932   5.306   2.430
20878W        W87661   9.932  36.805   3.196
20879W        W87662  31.263  42.884  14.467
20880W        W87663  15.711  35.117   0.615
20881W        W87664  28.080  11.919  11.142
20882W        W87665  19.598  28.722   1.322
20883W        W87666  20.087  23.695  13.077
20884W        W87667  29.001  30.947  12.101
20885W        W87668   5.675  38.027  13.991
20886W        W87669  22.611  39.163  12.580
20887W        W87670  38.911  27.853  11.702
20888W        W87671  44.908  14.280  13.293
20889W        W87672  36.282  35.580  11.640
20890W        W87673  36.484  35.313   2.023
20891W        W87674  37.948  18.356  11.401
20892W        W87675   5.463  44.342  12.015
20893W        W87676  14.510  37.413   1.109
20894W        W87677  36.775  19.222   2.726
20895W        W87678  33.575   0.541  14.012
20896W        W87679   6.511  14.252   3.090
20897W        W87680  32.843  16.265  12.379
20898W        W87681  25.204  19.475   5.163
20899W        W87682   0.739  23.591  12.583
20900W        W87683  14.485  24.938  11.942
20901W        W87684  39.801  23.022   1.865
20902W        W87685  33.510   5.153   1.089
20903W        W87686  13.153  33.860   3.326
20904W        W87687  36.423  43.733   3.842
20905W        W87688  10.016  33.038   0.432
20906W        W87689  44.203  25.155  11.425
20907W        W87690  23.237   9.861   1.349
20908W        W87691  17.681  21.897   1.864
20909W        W87692  24.228  35.463  13.531
20910W        W87693  30.591  23.520  13.891
20911W        W87694   9.734   7.174   1.613
20912W        W87695  15.311  38.539   3.663
20913W        W87696  16.317  36.317   1.804
20914W        W87697   2.815   9.181   1.347
20915W        W87698  26.439  20.077   2.135
20916W        W87699   5.549   2.146   0.809
20917W        W87700  39.618  23.105   1.050
20918W        W87701  17.300  28.402   2.254
20919W        W87702  27.126   6.402   3.442
20920W        W87703  13.725   6.627  14.012
20921W        W87704  11.723   7.170  14.981
20922W        W87705   1.817  12.332  10.617
20923W        W87706   0.499  33.357  12.607
20924W        W87707   3.406  37.390   3.408
20925W        W87708   5.293  32.921   0.336
20926W        W87709  31.896  13.317   1.264
20927W        W87710  35.779  16.024  13.448
20928W        W87711   4.202  44.572   1.230
20929W        W87712  21.149  19.199  14.856
20930W        W87713  31.549  38.505  13.743
20931W        W87714   4.635  44.296   1.316
20932W        W87715  31.708  25.999   1.289
20933W        W87716  43.225  22.553  12.108
20934W        W87717  21.678  34.487   1.655
20935W        W87718  28.463  41.093  11.517
20936W        W87719  34.623  20.843  13.150
20937W        W87720  10.033  23.559  14.753
20938W        W87721  32.872  43.971   4.613
20939W        W87722  27.575  34.434   2.886
20940W        W87723   5.848  37.603  13.713
20941W        W87724  17.391  36.955   3.765
20942W        W87725   3.044  19.582   3.151
20943W        W87726  13.017   3.333   1.901
20944W        W87727  35.633  21.310   2.528
20945W        W87728   2.954  10.612  14.451
20946W        W87729  44.190  29.019  13.157
20947W        W87730  29.392  22.009  11.169
20948W        W87731  40.360  26.455  12.448
20949W        W87732  14.898  28.098   0.575
20950W        W87733  32.985  12.221  12.990
20951W        W87734  15.756  41.538  14.328
20952W        W87735   7.049  28.671  14.904
20953W        W87736  15.182   1.490  14.310
20954W        W87737  18.778  19.712   1.766
20955W        W87738  30.558  20.240   2.206
20956W        W87739  41.978   7.812  13.849
20957W        W87740  17.210   0.937  11.952
20958W        W87741  11.734  19.121   2.703
20959W        W87742   3.740  28.252   9.872
20960W        W87743   7.229  14.827   3.340
20961W        W87744   7.257   3.491  11.672
20962W        W87745   7.407  41.021   1.215
20963W        W87746  39.826  31.629  11.847
20964W        W87747  18.995  22.028  13.899
20965W        W87748  34.457   6.998   2.224
20966W        W87749  35.516   1.519   2.102
20967W        W87750  31.180  31.856   3.287
20968W        W87751  20.056   5.418  10.567
20969W        W87752   3.564  35.663   3.321
20970W        W87753  13.270  24.723   2.932
20971W        W87754  22.589  34.002   2.638
20972W        W87755  34.952  10.264   0.434
20973W        W87756  27.706  25.286  14.945
20974W        W87757  35.419   1.443   1.075
20975W        W87758  28.012  28.862  13.462
20976W        W87759  15.711  43.747   4.384
20977W        W87760  31.514  14.536  12.160
20978W        W87761  31.395  38.438  11.490
20979W        W87762   9.312  35.379   3.643
20980W        W87763  13.430  21.533   1.165
20981W        W87764  43.576  28.483  13.515
20982W        W87765  10.428  35.397  14.424
20983W        W87766  16.583  20.175   4.806
20984W        W87767  15.999  18.642   3.604
20985W        W87768  16.756   2.809   0.992
20986W        W87769  25.638   0.444  14.330
20987W        W87770   9.583  21.643   3.295
20988W        W87771  15.739  42.034  14.437
20989W        W87772   7.590  28.682   2.863
20990W        W87773  19.826  13.598   4.791
20991W        W87774  19.306  43.915   1.854
20992W        W87775  38.275  38.864  13.504
20993W        W87776  10.419   9.683  12.546
20994W        W87777   7.350  12.836  13.891
20995W        W87778   8.255  33.446   3.081
20996W        W87779  38.610  41.534  11.635
20997W        W87780   3.890  33.964   1.987
20998W        W87781  41.084   4.854   1.206
20999W        W87782  16.962   6.656   2.841
21000W        W87783  29.950  29.520   4.490
21001W        W87784   1.131  15.086   3.658
21002W        W87785  36.987  13.752  14.194
21003W        W87786  19.587  40.391   1.369
21004W        W87787  26.938  23.530  10.044
21005W        W87788  12.900  28.448   3.225
21006W        W87789  43.029  32.552  13.766
21007W        W87790  17.031  14.667   0.459
21008W        W87791  36.356  24.892   2.513
21009W        W87792  31.884   5.902  13.999
21010W        W87793  22.620  33.792   1.758
21011W        W87794  39.360  11.859   0.360
21012W        W87795  29.509  11.045   3.831
21013W        W87796  39.112  13.277  14.876
21014W        W87797  41.780   2.853  11.265
21015W        W87798  23.723  17.563   3.838
21016W        W87799  19.033  35.458   4.206
21017W        W87800  22.251  35.884   3.924
21018W        W87801   7.663  11.254   3.281
21019W        W87802   7.373  35.807  13.907
21020W        W87803  24.674  43.194   4.674
21021W        W87804  19.226  23.151   4.523
21022W        W87805  26.925  16.208  11.730
21023W        W87806  14.249   2.888   2.300
21024W        W87807  42.771  30.857   1.866
21025W        W87808  20.976  25.649   0.404
21026W        W87809  43.680   6.653  12.972
21027W        W87810   6.935  33.033   4.541
21028W        W87811  17.113  23.156  13.802
21029W        W87812  34.254  29.221  12.114
21030W        W87813   3.303  16.163  10.576
21031W        W87814  38.514  44.839  14.830
21032W        W87815   4.612  35.133  11.149
21033W        W87816  44.601  24.035  10.978
21034W        W87817   7.644  18.270   1.744
21035W        W87818  16.491   7.244   2.270
21036W        W87819  13.415  44.283   5.031
21037W        W87820  17.541   9.286  11.420
21038W        W87821   4.805  28.100   0.890
21039W        W87822  11.644  44.229  13.948
21040W        W87823  28.150  26.136   4.517
21041W        W87824  19.737  41.460  14.200
21042W        W87825  34.791   5.990   2.299
21043W        W87826  41.573   6.756   2.298
21044W        W87827  14.798  38.483   4.150
21045W        W87828   7.026  24.763   0.077
21046W        W87829   2.702  15.190   4.179
21047W        W87830  26.613  30.524  14.435
21048W        W87831   3.613  27.212  13.480
21049W        W87832  12.843   7.759   2.380
21050W        W87833   6.839  30.926   0.887
21051W        W87834  37.489  17.134  12.317
21052W        W87835  25.114  23.995  11.751
21053W        W87836   8.807  27.521   2.228
21054W        W87837  28.208  23.197   2.669
21055W        W87838  40.869  39.514   3.782
21056W        W87839   8.435   0.191   1.461
21057W        W87840  23.796   5.685   1.852
21058W        W87841  19.597  44.039  11.582
21059W        W87842  27.948   4.192   3.964
21060W        W87843  35.782  44.757  10.506
21061W        W87844   7.399   2.158  14.897
21062W        W87845  40.054  29.036  10.707
21063W        W87846   2.655  15.655   4.427
21064W        W87847  19.472  38.571  14.994
21065W        W87848   2.403  38.275   4.546
21066W        W87849  15.321  27.543  11.534
21067W        W87850  39.002  10.945   2.462
21068W        W87851  39.524  18.747   4.382
21069W        W87852  42.464  27.154  13.269
21070W        W87853  23.613  14.131   3.288
21071W        W87854  25.745  23.984   4.155
21072W        W87855  18.668  31.389  13.365
21073W        W87856  34.558   9.662  13.366
21074W        W87857   1.933  18.738   3.120
21075W        W87858  22.062   5.935   2.591
21076W        W87859  10.181  21.272  14.946
21077W        W87860  25.742  15.197  13.133
21078W        W87861   8.182  35.320  12.454
21079W        W87862  43.965   6.126   3.237
21080W        W87863  30.143   3.777   1.720
21081W        W87864  34.982  14.274   4.551
21082W        W87865   1.175  12.430   3.920
21083W        W87866  36.805  43.217   2.739
21084W        W87867  26.217  31.028   3.812
21085W        W87868  16.188  36.104  12.025
21086W        W87869  15.538  15.206  14.937
21087W        W87870  16.773  14.057  12.898
21088W        W87871  33.022  31.005  14.412
21089W        W87872   3.311  30.959  12.645
21090W        W87873  34.936  16.665  12.987
21091W        W87874  27.593   9.883  11.315
21092W        W87875   4.214   1.513   3.866
21093W        W87876  15.366  34.710   0.815
21094W        W87877  42.524  32.991   4.626
21095W        W87878  15.554  40.481  13.802
21096W        W87879  30.407   8.952   1.004
21097W        W87880  12.297  41.053  12.936
21098W        W87881  37.064  19.002  14.173
21099W        W87882   3.252  32.577  12.008
21100W        W87883  17.237  44.331   2.739
21101W        W87884  40.734  15.340  10.370
21102W        W87885   9.438  22.613   2.435
21103W        W87886  41.004  13.178  14.790
21104W        W87887  40.061  43.395   0.387
21105W        W87888  34.899  21.659  13.384
21106W        W87889   9.199  37.312   1.255
21107W        W87890  23.657  34.959  13.178
21108W        W87891  43.008   3.088  13.595
21109W        W87892  21.952  17.693  14.756
21110W        W87893  28.843  16.237  11.213
21111W        W87894  12.191  38.404   4.771
21112W        W87895  13.295  22.408  11.144
21113W        W87896  23.157  32.129   3.657
21114W        W87897  40.036  17.467  11.583
21115W        W87898   2.808  38.604   3.638
21116W        W87899  19.148  13.935   1.572
21117W        W87900   9.838  43.377  13.935
21118W        W87901  19.090  34.478  11.371
21119W        W87902  43.579   1.689   2.785
21120W        W87903   2.390  13.089   2.751
21121W        W87904  17.012  20.956   1.298
21122W        W87905  14.817  14.640   4.940
21123W        W87906  42.688  31.466   0.937
21124W        W87907  43.396  36.656   1.135
21125W        W87908  13.562  36.535  12.445
21126W        W87909  13.595  36.590   1.719
21127W        W87910   4.963   3.595   3.485
21128W        W87911  26.198  44.395  10.192
21129W        W87912  24.103  35.925  12.854
21130W        W87913  26.522  17.242  14.214
21131W        W87914  37.557  20.350   3.662
21132W        W87915   4.261  32.249  12.476
21133W        W87916  35.310  33.505  14.021
21134W        W87917  23.691  21.273  11.828
21135W        W87918  44.251  44.402   5.292
21136W        W87919  10.172  31.865   4.016
21137W        W87920  33.152   9.310   0.458
21138W        W87921  11.252  18.714   1.417
21139W        W87922   6.645  44.795  12.127
21140W        W87923  20.601  36.014  12.421
21141W        W87924   4.288   6.671  13.548
21142W        W87925  27.960  34.060   1.421
21143W        W87926  29.636  12.724  14.369
21144W        W87927  20.120  25.007  13.519
21145W        W87928  17.295  30.670   4.074
21146W        W87929  15.520  24.161   0.020
21147W        W87930   3.678  21.293   4.658
21148W        W87931  13.719  28.519  10.510
21149W        W87932  41.622  29.916   2.700
21150W        W87933  41.959  27.557   4.601
21151W        W87934   4.795  19.133   2.293
21152W        W87935  17.669  39.341  13.543
21153W        W87936   9.908  29.418   2.732
21154W        W87937  25.418  13.364   2.757
21155W        W87938   2.305  19.923   5.045
21156W        W87939  35.941  40.796  11.193
21157W        W87940  39.044   5.264  13.926
21158W        W87941  22.236  41.593  10.888
21159W        W87942  36.937  41.310   1.720
21160W        W87943  18.095  31.699   0.977
21161W        W87944   3.693  11.875  13.316
21162W        W87945  44.074  29.082  10.692
21163W        W87946  35.103  44.383  13.949
21164W        W87947  21.775  21.490  14.439
21165W        W87948  34.834  20.029  12.535
21166W        W87949  42.793   4.647   4.633
21167W        W87950  26.127  34.014   2.215
21168W        W87951  37.986  18.018   1.141
21169W        W87952  10.810  26.540  10.127
21170W        W87953  12.578  40.015  10.216
21171W        W87954  12.248  18.183   1.614
21172W        W87955  27.708   6.224  14.041
21173W        W87956  12.716  43.887  12.812
21174W        W87957  28.376  38.320   3.612
21175W        W87958  40.692  40.421  12.552
21176W        W87959  35.000  14.595  14.666
21177W        W87960  14.221  22.459  14.172
21178W        W87961  13.292  35.142   2.376
21179W        W87962  33.111  25.479   3.709
21180W        W87963  43.226  40.511  11.553
21181W        W87964   2.720   4.148  13.392
21182W        W87965   6.935  16.209  14.913
21183W        W87966  44.031   2.497  11.935
21184W        W87967   5.939  19.504  13.925
21185W        W87968  20.791  33.395  14.375
21186W        W87969  39.057   6.764   4.257
21187W        W87970  18.321  14.622  14.894
21188W        W87971  18.248  42.150  12.041
21189W        W87972  25.638   6.995   2.292
21190W        W87973  21.586  43.499   0.444
21191W        W87974   8.849  32.869   3.648
21192W        W87975  16.358   5.735  11.232
21193W        W87976  41.093  25.633   2.871
21194W        W87977  25.279  28.079  12.016
21195W        W87978   4.877  25.025   2.084
21196W        W87979  41.104  28.239  13.316
21197W        W87980  23.423   0.364   0.126
21198W        W87981   0.898  16.310  11.407
21199W        W87982  24.719  41.529   2.336
21200W        W87983  17.808   5.647  11.470
21201W        W87984  22.432  26.521  14.377
21202W        W87985  44.428   9.554  13.378
21203W        W87986  28.997  29.571  11.317
21204W        W87987  32.407   5.462   0.232
21205W        W87988  34.793  35.435   4.705
21206W        W87989  20.861  35.845   2.434
21207W        W87990   5.245  20.851   0.971
21208W        W87991  13.237  12.288   2.827
21209W        W87992  14.358  23.215   1.076
21210W        W87993  10.848   2.122  13.227
21211W        W87994  11.548   6.352   1.163
21212W        W87995  11.484  15.396   4.092
21213W        W87996   3.195   0.332  11.134
21214W        W87997   9.795  35.946  12.834
21215W        W87998  42.024  39.519   4.612
21216W        W87999   1.344  34.294   0.870
21217W        W88000  28.849  33.148   4.178
21218W        W88001  42.411  30.869   3.186
21219W        W88002   3.772  16.277  11.415
21220W        W88003  37.469   0.456   3.329
21221W        W88004  41.429  40.982  13.270
21222W        W88005   9.239  29.013  11.227
21223W        W88006  16.843  13.053  13.107
21224W        W88007  10.751  44.448  11.706
21225W        W88008  30.549  37.278   2.366
21226W        W88009  28.895   6.762  12.534
21227W        W88010   5.332  42.409  12.031
21228W        W88011  30.918  26.484  13.474
21229W        W88012  43.708  17.257   5.270
21230W        W88013  16.260  29.870  13.882
21231W        W88014   6.927  22.215  12.598
21232W        W88015  15.084  37.246  14.857
21233W        W88016  17.784  31.894  12.024
21234W        W88017   4.885  22.576  14.947
21235W        W88018  43.431   0.803   3.830
21236W        W88019  41.773  35.476  14.515
21237W        W88020  41.533   4.919   4.120
21238W        W88021  24.307  24.214   5.435
21239W        W88022  38.522   5.052   4.691
21240W        W88023  13.657  26.220   1.704
21241W        W88024  25.551  30.117   0.321
21242W        W88025  22.526   6.445   0.292
21243W        W88026  18.535  37.159   1.069
21244W        W88027   6.402  42.381  11.038
21245W        W88028  22.169  10.677  14.434
21246W        W88029   7.753  10.559  13.313
21247W        W88030  37.862  22.020  11.951
21248W        W88031  20.027  38.411  13.524
21249W        W88032  40.156  44.420   0.762
21250W        W88033  30.858  41.815  14.855
21251W        W88034  12.033  36.376  11.142
21252W        W88035  23.777   1.865   4.534
21253W        W88036   8.148  31.443   0.316
21254W        W88037   4.694  22.801   0.396
21255W        W88038   6.168  35.506   3.075
21256W        W88039  42.505  13.490  10.940
21257W        W88040  28.752  29.697   2.757
21258W        W88041  24.729   2.757   3.138
21259W        W88042  36.871   8.378   3.113
21260W        W88043  13.992  20.532   2.802
21261W        W88044  30.008  26.446   0.230
21262W        W88045   5.645  33.401   2.507
21263W        W88046   2.779  10.514  13.617
21264W        W88047   4.682  35.120   4.669
21265W        W88048  12.210  29.045   3.561
21266W        W88049  37.985  41.981   2.317
21267W        W88050  33.778   8.207  11.576
21268W        W88051   3.356  21.063  11.717
21269W        W88052   5.143  31.170  11.503
21270W        W88053  20.845   9.592  12.587
21271W        W88054  24.153  16.338  12.466
21272W        W88055  16.838  30.217  13.752
21273W        W88056   9.053  41.033   2.254
21274W        W88057  13.241  13.208   2.556
21275W        W88058  35.590   9.805   2.972
21276W        W88059  28.964  18.496  11.583
21277W        W88060  36.545  25.590   1.163
21278W        W88061  40.318  39.781   3.711
21279W        W88062  41.007  15.468   4.754
21280W        W88063  13.331  12.729   4.475
21281W        W88064  43.709  24.500   1.916
21282W        W88065  24.871  14.113  13.396
21283W        W88066  26.504  15.097  10.901
21284W        W88067  24.560  31.867   2.417
21285W        W88068  33.886  23.501   0.417
21286W        W88069   7.089   3.851   2.409
21287W        W88070  11.267   0.311   1.249
21288W        W88071  37.189  27.056   2.267
21289W        W88072  43.335  41.554  12.444
21290W        W88073   1.313  17.167   4.537
21291W        W88074  22.477  18.218   2.298
21292W        W88075  24.100  29.351  11.384
21293W        W88076  32.230  17.872   5.194
21294W        W88077  22.795  34.042  10.668
21295W        W88078  27.535  33.374  10.819
21296W        W88079  20.146  34.044   3.665
21297W        W88080  42.848  26.415   2.592
21298W        W88081  42.813  43.780  11.494
21299W        W88082  15.074  27.729  12.882
21300W        W88083   0.068  42.502  12.518
21301W        W88084  20.362   2.699   5.486
21302W        W88085  41.024   2.040   1.476
21303W        W88086   3.048  21.610  12.123
21304W        W88087  31.679  34.895   4.348
21305W        W88088  32.066   9.425   0.455
21306W        W88089  18.970   7.134   0.501
21307W        W88090  27.613  23.274  10.573
21308W        W88091  33.599  33.205   1.183
21309W        W88092   6.244  38.720   2.558
21310W        W88093  13.058  24.202  11.678
21311W        W88094  21.213  27.756   2.275
21312W        W88095   5.436  21.230  13.797
21313W        W88096  12.890  21.978   1.452
21314W        W88097   7.722   5.357  14.460
21315W        W88098  23.507  40.553   1.628
21316W        W88099   2.967  38.488  14.888
21317W        W88100  32.668  26.344   0.028
21318W        W88101  33.802   4.742  14.034
21319W        W88102  19.836  35.833   3.649
21320W        W88103   5.497  41.376   4.336
21321W        W88104   8.327  35.131   0.578
21322W        W88105  24.071  16.485   3.307
21323W        W88106  40.546  37.589   0.911
21324W        W88107  25.980  37.111  13.393
21325W        W88108  15.503  13.822   4.614
21326W        W88109   5.895  20.729  14.985
21327W        W88110  23.595  22.290   0.460
21328W        W88111   0.472  19.763   3.262
21329W        W88112  35.951   8.255  13.923
21330W        W88113  27.609  37.843   3.612
21331W        W88114  28.186  39.352   2.827
21332W        W88115  28.829  19.773   4.058
21333W        W88116  42.818   3.434   1.827
21334W        W88117  20.970  38.107   0.802
21335W        W88118  39.540  11.253  12.067
21336W        W88119   2.189  13.927   0.898
21337W        W88120   0.062   6.834  12.933
21338W        W88121   1.039   7.462  13.083
21339W        W88122  22.484   6.849   1.131
21340W        W88123  21.604  11.284  11.029
21341W        W88124  12.078   8.389  14.913
21342W        W88125  40.569  17.607  12.363
21343W        W88126  42.723   7.644  12.826
21344W        W88127  34.598  23.591   4.644
21345W        W88128  39.900  11.872   4.038
21346W        W88129  35.243  36.682  12.834
21347W        W88130  14.161  33.544   2.856
21348W        W88131  24.288  31.052   3.331
21349W        W88132  21.295  18.271  13.922
21350W        W88133   3.313  39.399   2.208
21351W        W88134  14.147  22.016  11.285
21352W        W88135  23.456  10.779   1.760
21353W        W88136  16.737  11.531   4.040
21354W        W88137  39.341  26.570  12.370
21355W        W88138   7.300  40.393   3.269
21356W        W88139   2.863   5.306   4.280
21357W        W88140   3.939   7.168  11.606
21358W        W88141   5.824  30.102  14.289
21359W        W88142  14.822  26.602   1.355
21360W        W88143  31.579   6.910   3.279
21361W        W88144  37.005  42.812   4.159
21362W        W88145  27.403   7.056   0.507
21363W        W88146  44.988  17.646   2.179
21364W        W88147  38.472  23.706  14.574
21365W        W88148  38.023  34.996   0.895
21366W        W88149   4.820  31.897   3.669
21367W        W88150  15.778  32.968   4.558
21368W        W88151  13.038  32.921  11.075
21369W        W88152  37.603  37.465  13.155
21370W        W88153  37.853  33.076   4.120
21371W        W88154  22.314   0.653  10.204
21372W        W88155   7.275  22.973  14.911
21373W        W88156   9.900  10.569  13.051
21374W        W88157  30.698  10.423  14.416
21375W        W88158  13.557  19.125   4.185
21376W        W88159  19.984  38.779  14.936
21377W        W88160   4.755  34.724   2.925
21378W        W88161  28.502  31.729   0.497
21379W        W88162   2.869  42.285   2.412
21380W        W88163  31.624   7.233   0.760
21381W        W88164  37.095   8.819   3.245
21382W        W88165  23.507  37.518   5.042
21383W        W88166  33.520  15.731  14.829
21384W        W88167   6.963  35.958   0.818
21385W        W88168  13.368  34.763  14.098
21386W        W88169  34.556  42.407   2.786
21387W        W88170   6.636   2.589  13.048
21388W        W88171   0.802  12.157   3.691
21389W        W88172  26.224  28.511  11.829
21390W        W88173  16.604  13.716  10.435
21391W        W88174  24.434  12.108  13.379
21392W        W88175  17.123   7.816  11.690
21393W        W88176  23.244   5.253   3.628
21394W        W88177  11.558  39.708   0.431
21395W        W88178   6.144  33.321   2.286
21396W        W88179  22.726  11.915  10.049
21397W        W88180  15.727  40.753   0.936
21398W        W88181   2.621   7.258  12.095
21399W        W88182   1.221  44.932  12.955
21400W        W88183  12.574  38.902  13.909
21401W        W88184  32.168   7.301   2.534
21402W        W88185  32.859  44.323  12.466
21403W        W88186  18.217  13.213   1.788
21404W        W88187  38.340  36.498  14.457
21405W        W88188  31.578  41.267  13.527
21406W        W88189  36.786   0.761   0.439
21407W        W88190  38.429   1.934   3.586
21408W        W88191  15.034   7.264  11.950
21409W        W88192  36.586   0.328   2.227
21410W        W88193  31.495  44.790   0.781
21411W        W88194  44.253  11.637   3.317
21412W        W88195  27.731  34.488  11.750
21413W        W88196   3.413  14.047  12.815
21414W        W88197   4.979  40.975   3.710
21415W        W88198  26.583   6.308  14.773
21416W        W88199  35.861   9.573   1.140
21417W        W88200   2.384  40.162  12.084
21418W        W88201  20.288  22.806  11.713
21419W        W88202   0.286  27.045  13.429
21420W        W88203  28.918  13.230   4.009
21421W        W88204  13.322  13.640  13.693
21422W        W88205  32.749  37.866  12.663
21423W        W88206  38.818  26.560  12.393
21424W        W88207  31.714  38.836  14.978
21425W        W88208  24.284  42.800   2.868
21426W        W88209  35.040  20.494  12.456
21427W        W88210  11.558   4.409   3.769
21428W        W88211  13.468  18.680   3.942
21429W        W88212  30.583  30.110   2.636
21430W        W88213  11.241  30.635   1.785
21431W        W88214  27.655  35.490  14.934
21432W        W88215  28.817  38.213   2.496
21433W        W88216  13.912   5.479  10.832
21434W        W88217  12.520  17.724  13.869
21435W        W88218  25.474  39.096  12.376
21436W        W88219  20.151  31.684  10.366
21437W        W88220  19.026  37.989  12.563
21438W        W88221  27.101  26.617  13.063
21439W        W88222  32.952  44.090   3.738
21440W        W88223   4.302   9.353   1.322
21441W        W88224  28.982   4.549   4.357
21442W        W88225   9.944  37.435   0.292
21443W        W88226  34.025  38.837   3.685
21444W        W88227  43.912  11.145  11.234
21445W        W88228   7.711  24.220   1.677
21446W        W88229  40.375  25.591   1.683
21447W        W88230  39.491   7.688   2.347
21448W        W88231   2.997  21.211   3.694
21449W        W88232  36.852  39.064  11.482
21450W        W88233  18.289  16.834   4.666
21451W        W88234  40.799  28.413  13.690
21452W        W88235   8.683  31.759  14.555
21453W        W88236  29.957  38.746   3.310
21454W        W88237  20.165  21.597  14.371
21455W        W88238  41.253  21.088   2.791
21456W        W88239  36.972  14.739  14.230
21457W        W88240  13.526  31.694   3.805
21458W        W88241  21.197  14.717   1.719
21459W        W88242  20.768  43.968  10.573
21460W        W88243  17.653  24.986  13.062
21461W        W88244  36.416   8.364   1.294
21462W        W88245  17.139  11.199  13.980
21463W        W88246  25.445  42.595  13.776
21464W        W88247  23.100  21.259   1.911
21465W        W88248  42.305   7.065   3.699
21466W        W88249  19.770  22.508   1.948
21467W        W88250   4.867  43.828  12.228
21468W        W88251  31.660  20.009  10.373
21469W        W88252   9.219  30.608  12.624
21470W        W88253  18.679  28.906  11.591
21471W        W88254  17.463  13.424   2.808
21472W        W88255  32.083  16.069   4.261
21473W        W88256   7.755   9.203   3.006
21474W        W88257  26.618   8.255   1.074
21475W        W88258  14.885   2.912   0.858
21476W        W88259  39.056  39.984  11.436
21477W        W88260   5.216  27.060   3.894
21478W        W88261  26.701  30.435  13.573
21479W        W88262   0.327  13.148  11.018
21480W        W88263   0.852  35.276  14.519
21481W        W88264  21.609  28.661  11.700
21482W        W88265  12.320  39.499   4.147
21483W        W88266  26.481  22.635  11.493
21484W        W88267   5.415   9.746   1.747
21485W        W88268  16.363   4.364  11.166
21486W        W88269  41.212  41.334  12.429
21487W        W88270  17.262  37.982   0.131
21488W        W88271   0.230  19.677   1.848
21489W        W88272  35.526  19.632   1.174
21490W        W88273   5.629  38.455   1.758
21491W        W88274  14.856  21.159  13.993
21492W        W88275  34.482   2.029  13.402
21493W        W88276  37.744   2.308  13.981
21494W        W88277  11.469  37.830  10.979
21495W        W88278   8.327  29.502   2.667
21496W        W88279   7.241  11.330  13.413
21497W        W88280  11.445  44.322   1.202
21498W        W88281  34.943  37.743  12.774
21499W        W88282  22.215  35.372   2.148
21500W        W88283   6.418   0.259   4.582
21501W        W88284  16.715   9.797  10.740
21502W        W88285  15.160   4.034   4.568
21503W        W88286  24.049  24.280   0.291
21504W        W88287   2.898  44.438   3.056
21505W        W88288   7.710  43.331   3.596
21506W        W88289   8.347  26.397  12.279
21507W        W88290   0.381  27.695   2.100
21508W        W88291   3.195  32.895  12.998
21509W        W88292  38.237  44.852   3.756
21510W        W88293  14.314   0.217   3.969
21511W        W88294  10.261  18.005   2.441
21512W        W88295  22.242   1.845   9.845
21513W        W88296  34.437  23.709   0.459
21514W        W88297  22.491  42.287  14.376
21515W        W88298  26.340   8.131   0.231
21516W        W88299  24.080   3.908  11.401
21517W        W88300  34.828   8.691  14.035
21518W        W88301   5.979  22.844   0.366
21519W        W88302  33.918  16.123   4.073
21520W        W88303   7.187  35.667  11.126
21521W        W88304   8.203   9.183   5.380
21522W        W88305  36.990  40.236   1.747
21523W        W88306  11.458   7.437  13.923
21524W        W88307  13.308  29.136  12.851
21525W        W88308  31.982  36.993  10.643
21526W        W88309  13.734  33.353  11.417
21527W        W88310  26.997   7.835  14.039
21528W        W88311  34.252   7.277  14.689
21529W        W88312  25.662   6.583   1.976
21530W        W88313   7.194   5.017   2.757
21531W        W88314  29.957  34.089   1.935
21532W        W88315  33.051   8.395   0.432
21533W        W88316   2.745   1.711   3.662
21534W        W88317  41.393  31.374  13.975
21535W        W88318  15.338  43.909  13.611
21536W        W88319  22.865  19.506  14.891
21537W        W88320  27.930  26.926   2.743
21538W        W88321  28.070  33.965   0.522
21539W        W88322  19.538   1.988  14.917
21540W        W88323  18.050   0.381   1.886
21541W        W88324  44.334   9.965   3.290
21542W        W88325  39.559  18.801   4.917
21543W        W88326   8.604  27.725  13.967
21544W        W88327  12.374  33.872   1.967
21545W        W88328   4.307   8.006   4.002
21546W        W88329  22.735  26.531  12.313
21547W        W88330   8.234  23.586  12.373
21548W        W88331   2.529   1.993   4.082
21549W        W88332  29.566  28.122   0.995
21550W        W88333  10.798  26.210  11.115
21551W        W88334  34.060  37.977  12.632
21552W        W88335  12.725  17.167   2.443
21553W        W88336  44.859  29.697  11.090
21554W        W88337   6.227  36.215  10.549
21555W        W88338   5.204  19.015  14.010
21556W        W88339   9.192  30.823   4.161
21557W        W88340  40.483  27.691  12.908
21558W        W88341  28.632  30.582  13.849
21559W        W88342   1.149  25.155  13.558
21560W        W88343  37.910  42.060   3.717
21561W        W88344  24.060  40.474   4.256
21562W        W88345  39.072  20.288  13.057
21563W        W88346  24.843  16.427   0.835
21564W        W88347   6.401  30.048   0.632
21565W        W88348  10.065  14.094   0.275
21566W        W88349  17.402  43.815   0.483
21567W        W88350  13.863  35.829  12.120
21568W        W88351  43.517  27.349   1.607
21569W        W88352  40.277  22.749   3.038
21570W        W88353  43.528  11.859  11.205
21571W        W88354   1.845  15.177   0.873
21572W        W88355  35.968  17.099   2.494
21573W        W88356   1.694   4.099  11.135
21574W        W88357  13.960  42.556   4.234
21575W        W88358  22.726  39.570  11.990
21576W        W88359  33.513   0.513   3.905
21577W        W88360  15.278  11.088  13.837
21578W        W88361  28.415   6.192  12.985
21579W        W88362  10.057  33.109  14.451
21580W        W88363  32.595   5.891   1.132
21581W        W88364  29.398  19.732  13.044
21582W        W88365  44.842  33.135   0.527
21583W        W88366  38.113  21.446  13.459
21584W        W88367  16.542  23.295  11.800
21585W        W88368  29.451  35.165   3.752
21586W        W88369  40.810  14.499  11.380
21587W        W88370  33.782   9.937  11.520
21588W        W88371   2.778   8.041   3.414
21589W        W88372  29.319   1.384   4.769
21590W        W88373   3.896  26.067   4.182
21591W        W88374   9.158   0.604  14.892
21592W        W88375  15.795  24.020  11.165
21593W        W88376  20.629   2.758   2.363
21594W        W88377  23.598  38.884   0.774
21595W        W88378  38.536  15.406  14.914
21596W        W88379   9.643  34.889  10.597
21597W        W88380  15.664  20.778   4.418
21598W        W88381  44.082  22.745   0.387
21599W        W88382  13.345  11.224  12.435
21600W        W88383  30.576  36.825  14.722
21601W        W88384  36.555  24.557  10.972
21602W        W88385  23.972  32.097   4.258
21603W        W88386  29.498  16.366   0.390
21604W        W88387  34.500   7.623  14.373
21605W        W88388  18.203  29.673  14.476
21606W        W88389  44.224  20.570   0.075
21607W        W88390  26.438  40.315  14.501
21608W        W88391   4.964  16.561  13.540
21609W        W88392  42.340  33.926   1.895
21610W        W88393   2.962  37.568   2.190
21611W        W88394   5.413   7.294   0.536
21612W        W88395  41.133  38.321  12.114
21613W        W88396  24.360   8.793  12.115
21614W        W88397  44.904  38.142  14.974
21615W        W88398  22.608  15.221   1.420
21616W        W88399  29.435   8.179   2.272
21617W        W88400  28.534  11.744   2.410
21618W        W88401  25.764  27.375  12.104
21619W        W88402  35.579  36.930   0.709
21620W        W88403   4.976  33.411   0.400
21621W        W88404  42.837  33.648  14.489
21622W        W88405  11.272  13.731  14.765
21623W        W88406   1.850  33.396  14.581
21624W        W88407   2.411  43.590  10.658
21625W        W88408  38.994  24.301  14.952
21626W        W88409  21.820  29.989   0.342
21627W        W88410   8.807  43.701   3.122
21628W        W88411  34.627  32.069   0.731
21629W        W88412  13.084  25.125   2.644
21630W        W88413  13.740   6.817  10.688
21631W        W88414  24.355  42.060   2.416
21632W        W88415  39.081   7.693   1.283
21633W        W88416   0.042   7.142   4.998
21634W        W88417  17.577  24.941   3.926
21635W        W88418  25.558  34.781   0.021
21636W        W88419  40.707  43.047  13.929
21637W        W88420  42.547   4.783   4.155
21638W        W88421  18.999  37.358  14.423
21639W        W88422   8.278  10.206   3.875
21640W        W88423  15.966  35.967   4.439
21641W        W88424  13.728  34.672   3.197
21642W        W88425  14.906   0.840  10.903
21643W        W88426  35.949  42.928  11.727
21644W        W88427  19.977  21.046   1.774
21645W        W88428  21.265  30.913  13.818
21646W        W88429  35.578  22.754   3.069
21647W        W88430   4.811   8.601  11.119
21648W        W88431   4.173  43.076   4.785
21649W        W88432  30.597  12.212  14.728
21650W        W88433  36.523  41.495   4.047
21651W        W88434   3.649  10.753   2.034
21652W        W88435  31.949  35.381   2.171
21653W        W88436  30.901  10.082  14.811
21654W        W88437  30.959  23.245  13.023
21655W        W88438   3.262  17.429   0.248
21656W        W88439  19.146  15.214   3.666
21657W        W88440  38.102  42.791   1.649
21658W        W88441  19.603  41.112  11.575
21659W        W88442   7.736  16.309  13.019
21660W        W88443  35.943  33.137  14.710
21661W        W88444  12.142   0.327   2.903
21662W        W88445  16.318  32.595   1.725
21663W        W88446  10.813  42.399   2.285
21664W        W88447  11.909  27.380   0.322
21665W        W88448  29.974  14.732  12.830
21666W        W88449  21.113   8.143  13.864
21667W        W88450  12.079  33.955  14.378
21668W        W88451  14.561   0.764   5.026
21669W        W88452   9.438  35.481  10.722
21670W        W88453  10.073   5.265  13.620
21671W        W88454   1.790   7.738  13.910
21672W        W88455   6.814   7.144  13.789
21673W        W88456  32.989  18.641   1.818
21674W        W88457  20.846  32.218   2.634
21675W        W88458  20.190   5.602  14.437
21676W        W88459  37.354  14.616   5.072
21677W        W88460  14.194  28.099  14.608
21678W        W88461   9.189  40.528   3.190
21679W        W88462  16.522  34.832  13.576
21680W        W88463  24.675  11.549  12.322
21681W        W88464  23.512  43.278  12.620
21682W        W88465  40.315  37.836   3.719
21683W        W88466   0.431  40.824   1.615
21684W        W88467  22.817  44.108  11.632
21685W        W88468  29.708  14.753  10.708
21686W        W88469  15.795  17.044  12.435
21687W        W88470   6.949  28.749   3.357
21688W        W88471   4.243   2.781  14.576
21689W        W88472   2.389  25.882  13.984
21690W        W88473  11.820  26.630   2.767
21691W        W88474  35.857  15.048  11.977
21692W        W88475   6.739  24.896  10.737
21693W        W88476  17.631   7.890   1.788
21694W        W88477  19.792  34.246  13.592
21695W        W88478  13.213  43.162  12.470
21696W        W88479  28.093   5.978  11.122
21697W        W88480   8.122  38.050  12.012
21698W        W88481  40.218  13.553   3.778
21699W        W88482  35.590   6.691  11.629
21700W        W88483  40.134   4.353   2.713
21701W        W88484  36.618  18.659   1.002
21702W        W88485  43.190  19.753   0.511
21703W        W88486  40.980  14.713  14.942
21704W        W88487  42.848  37.877  14.771
21705W        W88488  18.420  21.121   5.217
21706W        W88489   6.313  28.740  11.161
21707W        W88490  14.186  15.072  13.439
21708W        W88491  27.652  10.092  14.740
21709W        W88492  36.171   2.438   3.727
21710W        W88493  32.816  43.908  13.445
21711W        W88494  21.221  31.176   4.828
21712W        W88495   2.149  28.481  12.305
21713W        W88496   1.167   7.132  14.958
21714W        W88497  37.633  27.818   4.215
21715W        W88498   6.497  27.342   3.976
21716W        W88499  13.350  14.772   3.692
21717W        W88500  24.114  39.379   1.265
21718W        W88501   7.849  44.989   0.735
21719W        W88502  38.792   2.857   1.460
21720W        W88503  17.564  28.560  12.016
21721W        W88504  33.454  20.895  12.220
21722W        W88505  19.270  27.201  14.310
21723W        W88506   6.627  27.120   1.743
21724W        W88507  20.330   0.513  10.771
21725W        W88508  38.555  12.763  10.663
21726W        W88509   4.430  16.353   1.762
21727W        W88510  44.798  24.179  13.878
21728W        W88511  23.047  27.974  13.379
21729W        W88512  34.935   1.133  12.517
21730W        W88513  23.695  36.325  10.726
21731W        W88514   1.783   6.656  11.211
21732W        W88515  22.113  42.927   0.518
21733W        W88516  42.437  14.109   0.218
21734W        W88517   7.372  21.671  14.395
21735W        W88518  24.949  38.008   3.184
21736W        W88519   3.053  44.398  13.949
21737W        W88520  27.273  28.064  11.993
21738W        W88521  15.839  13.836   0.784
21739W        W88522  19.383  36.498  11.545
21740W        W88523  40.521  27.852   0.841
21741W        W88524  11.303  41.880   3.685
21742W        W88525  41.208  21.540  13.803
21743W        W88526  36.253  29.326  13.026
21744W        W88527  22.644  14.690  11.472
21745W        W88528  32.064   5.496   2.235
21746W        W88529  32.996   7.345   1.398
21747W        W88530  33.205  17.401   3.165
21748W        W88531   6.832  18.718   3.423
21749W        W88532  26.701   5.912  13.955
21750W        W88533  38.632   4.375  14.709
21751W        W88534   1.769  37.429  14.011
21752W        W88535  26.675  44.903   4.231
21753W        W88536  34.629   4.301  13.292
21754W        W88537   9.352  27.440   2.191
21755W        W88538  42.265  37.089   1.234
21756W        W88539  29.521  11.365  14.729
21757W        W88540  10.897  15.296  12.118
21758W        W88541  11.185  25.573   3.664
21759W        W88542  26.866   6.444  10.739
21760W        W88543  25.136  39.987   0.930
21761W        W88544  30.000   0.018   0.316
21762W        W88545   1.214  43.491   4.995
21763W        W88546   7.360  37.906   4.208
21764W        W88547  28.431  39.385  13.784
21765W        W88548  27.426  16.102  11.839
21766W        W88549  39.501  35.529  14.943
21767W        W88550  40.508  15.916  11.290
21768W        W88551  11.837   8.942  14.313
21769W        W88552  22.775  30.635  12.952
21770W        W88553   7.255   5.920  12.864
21771W        W88554  15.306  34.514   1.681
21772W        W88555  35.349  13.848   4.146
21773W        W88556  26.152  18.740   0.403
21774W        W88557  39.132  15.606  10.293
21775W        W88558   4.708  40.709  13.842
21776W        W88559  12.463  34.967  13.786
21777W        W88560  40.335  23.232  14.858
21778W        W88561  29.543  14.930   4.511
21779W        W88562  29.451  38.362   4.343
21780W        W88563  32.904  35.347   0.478
21781W        W88564  41.952   6.480   1.599
21782W        W88565  25.699   9.492  12.082
21783W        W88566  26.102  44.045  11.155
21784W        W88567  24.716  26.468   3.248
21785W        W88568  33.792  18.633   1.285
21786W        W88569  12.775  14.872   2.834
21787W        W88570  16.710   9.352   1.773
21788W        W88571   0.655  19.080  11.341
21789W        W88572   4.192  25.554  14.196
21790W        W88573   2.030   0.857  11.526
21791W        W88574  10.715  20.195   3.270
21792W        W88575   4.402  26.348  13.823
21793W        W88576  42.727  28.046   2.257
21794W        W88577  30.412   9.269  12.116
21795W        W88578  39.076   4.817   2.304
21796W        W88579   4.415  39.515   2.215
21797W        W88580   5.630  29.912  10.645
21798W        W88581  20.244  32.188  11.289
21799W        W88582   5.020   3.839   3.953
21800W        W88583  31.828  19.123   0.953
21801W        W88584  27.898   2.778  13.129
21802W        W88585  14.130  24.059   2.296
21803W        W88586   0.831  26.405  14.411
21804W        W88587  18.106  37.058   4.678
21805W        W88588  15.833  16.687  11.870
21806W        W88589  33.368  34.952  10.737
21807W        W88590  39.717  43.498  13.117
21808W        W88591  20.472  23.099  13.933
21809W        W88592  11.738  26.242  11.493
21810W        W88593   2.019  44.949  10.673
21811W        W88594  33.079  17.528  14.606
21812W        W88595  24.737   0.981   0.975
21813W        W88596  22.971  16.170  10.863
21814W        W88597  43.395   3.237   3.589
21815W        W88598  24.834  22.783  11.764
21816W        W88599  22.483  13.027  10.539
21817W        W88600   0.527  36.600   3.398
21818W        W88601  30.889  24.040  12.068
21819W        W88602  12.527   3.931  12.527
21820W        W88603   7.500   8.434   3.828
21821W        W88604  33.950  35.933   0.712
21822W        W88605  29.581   1.762  13.286
21823W        W88606   2.291  36.593  14.142
21824W        W88607   6.451  36.037   0.864
21825W        W88608  25.896  43.394   1.298
21826W        W88609  41.045  12.783   0.379
21827W        W88610  39.336  21.030  14.405
21828W        W88611  14.575  22.997   2.555
21829W        W88612   9.636   1.389   0.827
21830W        W88613  41.007   9.565   1.387
21831W        W88614   7.817   1.386  11.266
21832W        W88615  35.577  41.998  11.955
21833W        W88616  16.431  13.186   2.853
21834W        W88617  22.679  18.766   4.032
21835W        W88618  14.218  31.176   0.824
21836W        W88619  17.283   0.914   3.716
21837W        W88620  12.632  34.032  14.203
21838W        W88621   1.852  20.182  11.720
21839W        W88622   1.493   3.831   0.776
21840W        W88623  40.908  16.268  14.959
21841W        W88624  23.750  44.628  10.110
21842W        W88625   8.399   0.559  13.888
21843W        W88626   3.033  30.184   4.067
21844W        W88627  12.376  32.874  14.042
21845W        W88628  34.613  41.185  14.855
21846W        W88629  14.738  40.031   1.689
21847W        W88630  27.960  13.484  11.069
21848W        W88631   8.207   1.360  14.446
21849W        W88632  40.693  17.466  11.897
21850W        W88633  20.048   5.434   0.495
21851W        W88634  41.718  35.832  12.039
21852W        W88635   3.474  18.147   2.808
21853W        W88636  14.608  37.106  11.780
21854W        W88637  12.709  21.232   2.910
21855W        W88638   1.495  30.218   3.601
21856W        W88639  18.736  16.143   4.073
21857W        W88640   6.849   8.328   1.517
21858W        W88641  14.242   5.088  10.763
21859W        W88642  34.145  10.898  10.167
21860W        W88643  44.586  22.695   0.428
21861W        W88644  30.094  20.643   0.887
21862W        W88645  44.959   7.661   1.308
21863W        W88646   2.753  38.856   1.798
21864W        W88647  42.511  39.556   1.257
21865W        W88648  29.426  19.711   2.465
21866W        W88649   5.378  19.905  13.197
21867W        W88650  33.343  16.241   3.668
21868W        W88651  13.457  10.209   0.003
21869W        W88652  33.102   7.155  13.277
21870W        W88653  33.337  17.765  13.265
21871W        W88654   8.675  27.237   3.934
21872W        W88655  13.913   4.018  11.469
21873W        W88656  11.937  20.962   3.251
21874W        W88657  39.398   7.374  11.570
21875W        W88658  43.368   1.029   3.371
21876W        W88659  43.995  32.069  11.240
21877W        W88660  15.531  14.703   1.277
21878W        W88661  28.471  33.749   3.795
21879W        W88662  21.729  42.794   0.815
21880W        W88663  22.753  19.146   4.737
21881W        W88664  23.651   2.381   1.779
21882W        W88665  21.313  35.887  11.581
21883W        W88666  36.849  21.653  12.946
21884W        W88667  36.940  41.803  11.199
21885W        W88668   9.802  32.646   0.749
21886W        W88669  22.197  19.468  11.471
21887W        W88670   9.826  35.017   2.973
21888W        W88671  32.989  22.566  14.911
21889W        W88672  35.962  43.902   3.657
21890W        W88673   2.268  41.414  14.850
21891W        W88674  16.337  16.299   3.307
21892W        W88675  28.219  14.918   3.543
21893W        W88676  23.517  18.508  14.147
21894W        W88677  24.247  37.638  12.222
21895W        W88678  22.408  21.639   3.068
21896W        W88679   5.032  41.778  12.650
21897W        W88680  37.270   7.461  13.988
21898W        W88681  29.385  13.771  12.675
21899W        W88682   8.199  36.500   1.333
21900W        W88683  36.959  17.585  14.742
21901W        W88684  24.076   4.691  13.017
21902W        W88685  27.628   1.151   3.603
21903W        W88686   9.102  36.208   1.408
21904W        W88687   3.988  11.349  13.971
21905W        W88688  39.568  44.448  13.414
21906W        W88689  15.990  27.036  12.600
21907W        W88690  34.701  30.843  12.417
21908W        W88691  29.569   6.908   4.387
21909W        W88692  36.555  30.080   0.714
21910W        W88693   3.901   2.452  13.859
21911W        W88694  26.407  40.814  12.464
21912W        W88695  34.627  18.875  12.916
21913W        W88696  32.108   1.461  11.627
21914W        W88697  36.374  36.404  12.949
21915W        W88698  14.305  15.177   3.875
21916W        W88699  13.294  27.485   1.459
21917W        W88700   4.638   2.182  13.363
21918W        W88701  32.367  44.785   3.693
21919W        W88702  11.195  15.186  12.697
21920W        W88703   4.884  38.011  14.394
21921W        W88704  16.770  31.463  12.795
21922W        W88705  34.974  28.145  14.519
21923W        W88706  14.638  37.993  12.919
21924W        W88707  35.469  25.066   4.060
21925W        W88708  37.826  12.597   0.920
21926W        W88709  26.119  41.996  13.464
21927W        W88710  13.937   4.084  10.641
21928W        W88711  29.912   8.392   3.702
21929W        W88712  18.671  12.862   2.833
21930W        W88713  13.142  35.969  10.615
21931W        W88714  43.205  16.510   4.175
21932W        W88715  12.419  38.231   1.851
21933W        W88716  20.931  28.888  13.124
21934W        W88717  24.430  21.161   3.231
21935W        W88718  41.931  33.459  12.392
21936W        W88719  20.337  28.756   1.003
21937W        W88720  18.129  22.730   0.058
21938W        W88721  16.053   0.618  11.514
21939W        W88722   1.594  31.843  12.573
21940W        W88723  37.825   6.817  13.467
21941W        W88724  22.691  16.597  11.626
21942W        W88725  12.735  27.452  14.293
21943W        W88726   3.113  38.229  11.281
21944W        W88727   1.680  20.827  11.131
21945W        W88728   3.725  31.557   1.948
21946W        W88729  18.032  12.144   3.160
21947W        W88730  13.617  41.402   3.691
21948W        W88731  31.145   7.956  14.322
21949W        W88732  17.672   1.874  11.465
21950W        W88733  20.970  32.375   0.731
21951W        W88734  33.513   7.686  10.648
21952W        W88735  19.140  32.391   0.873
21953W        W88736  30.405  11.239  10.869
21954W        W88737  38.504  19.236   0.766
21955W        W88738  44.655   1.226  11.696
21956W        W88739  27.118   9.128  12.025
21957W        W88740  19.135  40.392  13.437
21958W        W88741  20.287  15.839   4.056
21959W        W88742  31.410   4.428   1.785
21960W        W88743   1.791  14.041   4.205
21961W        W88744  37.572  28.051  13.334
21962W        W88745  41.692   7.715  12.917
21963W        W88746   6.890  26.307  13.040
21964W        W88747  36.440  19.741   3.378
21965W        W88748  18.511  41.037  13.914
21966W        W88749  17.493  42.687   5.227
21967W        W88750  29.208  41.264   1.521
21968W        W88751   9.445  26.313   1.763
21969W        W88752  39.851   9.688  14.568
21970W        W88753  17.658   8.665   4.940
21971W        W88754  11.069  39.062  12.160
21972W        W88755  24.174  43.441  14.991
21973W        W88756   9.219  11.252   3.997
21974W        W88757  29.085  42.746  10.415
21975W        W88758   5.158   5.171   2.161
21976W        W88759  29.179  40.587  12.529
21977W        W88760  34.753  26.219  13.946
21978W        W88761   6.067  26.222  11.419
21979W        W88762   0.484   5.763   2.847
21980W        W88763  28.251  23.081  13.547
21981W        W88764  19.497   2.842  10.251
21982W        W88765  18.218  30.011   0.709
21983W        W88766   0.965  36.436   3.643
21984W        W88767  11.446  11.902   4.608
21985W        W88768  24.599  12.608  10.682
21986W        W88769  39.458  36.395  11.594
21987W        W88770  10.306  15.132   1.661
21988W        W88771  12.339  23.349   2.662
21989W        W88772  37.411  20.144   1.745
21990W        W88773  34.520  11.400  14.219
21991W        W88774  29.004  33.821  12.575
21992W        W88775  33.607  37.920  12.328
21993W        W88776   8.201  29.238  12.133
21994W        W88777  10.352   4.182   4.555
21995W        W88778  21.607  17.397   1.143
21996W        W88779   1.526   8.566  10.287
21997W        W88780  27.089  42.960   2.213
21998W        W88781  27.690  28.800  13.870
21999W        W88782  18.249  17.827   0.852
22000W        W88783  22.802  12.884  11.479
22001W        W88784  20.495  17.996   3.261
22002W        W88785  10.821  39.520  14.052
22003W        W88786  22.039  24.184   2.700
22004W        W88787  17.691  19.779   2.427
22005W        W88788  19.167  11.218   2.935
22006W        W88789  27.785  22.953   0.864
22007W        W88790  17.097  25.185   1.781
22008W        W88791  26.996  17.388   1.693
22009W        W88792  43.594  18.901  13.412
22010W        W88793  36.184  25.330  13.952
22011W        W88794  44.510  23.144   3.523
22012W        W88795  31.104   6.267   4.531
22013W        W88796  25.306  34.896   2.866
22014W        W88797   5.756  31.841  10.687
22015W        W88798  32.039  37.266   5.017
22016W        W88799  36.715  10.744   3.306
22017W        W88800   9.713  36.509  11.505
22018W        W88801  42.134   8.182   2.665
22019W        W88802  17.725  29.954  11.649
22020W        W88803   6.816   0.407   3.119
22021W        W88804  40.582  35.830  11.185
22022W        W88805  22.932  27.425  10.959
22023W        W88806  22.196   6.261  12.335
22024W        W88807   8.343  22.728   1.085
22025W        W88808   7.767  20.750   0.436
22026W        W88809  17.242  29.427   3.616
22027W        W88810  41.521   0.291   3.614
22028W        W88811  33.026  30.453  11.615
22029W        W88812  12.242  33.449   3.704
22030W        W88813   3.320  24.572  13.429
22031W        W88814  11.752  17.837  12.086
22032W        W88815   2.413  35.495  11.649
22033W        W88816  42.821  15.397   4.591
22034W        W88817  13.325  23.576   4.519
22035W        W88818  19.564  30.638   4.259
22036W        W88819   6.880   4.778   3.863
22037W        W88820  22.027  24.544  13.378
22038W        W88821  29.100  30.136  12.682
22039W        W88822   4.726  37.457  14.725
22040W        W88823  30.431  19.267  12.604
22041W        W88824   7.736  41.055  12.496
22042W        W88825   1.520  36.081  14.060
22043W        W88826  26.964  29.051  10.676
22044W        W88827  16.095  35.504   4.659
22045W        W88828   1.525  18.283   2.898
22046W        W88829  17.306  12.153  11.545
22047W        W88830  19.115  16.991  11.712
22048W        W88831  13.585   2.170  12.342
22049W        W88832   9.897  22.642  12.984
22050W        W88833  36.587  43.448  10.635
22051W        W88834  31.636  12.764  10.648
22052W        W88835  24.312  16.723   1.238
22053W        W88836   1.948  41.296   3.808
22054W        W88837  21.669  35.610   4.189
22055W        W88838  31.493  14.097  10.918
22056W        W88839  27.179  25.416  11.555
22057W        W88840  25.740  21.780  12.866
22058W        W88841  38.569   4.719  13.010
22059W        W88842  37.561  38.706   1.788
22060W        W88843  38.914   1.635   1.911
22061W        W88844  25.647  28.765   1.671
22062W        W88845   0.522  11.154  13.524
22063W        W88846  41.344   1.297   4.483
22064W        W88847   6.411  21.047  10.343
22065W        W88848  32.582   3.802   1.819
22066W        W88849   2.733  23.165   4.892
22067W        W88850  37.876  26.592   0.766
22068W        W88851   4.050  41.229   3.653
22069W        W88852  25.012   9.268  11.329
22070W        W88853   0.413  18.095  11.226
22071W        W88854  19.168   1.884  11.252
22072W        W88855   1.943  32.138  10.868
22073W        W88856  37.400  22.344   3.714
22074W        W88857  44.110  34.722  13.481
22075W        W88858  17.041  34.608  12.583
22076W        W88859   5.851   4.527   0.863
22077W        W88860   4.504  23.971   0.856
22078W        W88861   1.401   3.237  14.742
22079W        W88862  40.874  20.783  14.223
22080W        W88863  10.747  25.276   0.330
22081W        W88864  17.137  15.329   2.173
22082W        W88865  32.570  29.000   3.629
22083W        W88866  27.025  14.283   5.125
22084W        W88867  30.152  22.583   4.174
22085W        W88868  30.812  32.531  11.264
22086W        W88869  26.022   3.454  10.662
22087W        W88870  39.983  44.390   4.456
22088W        W88871  27.201  38.590   3.669
22089W        W88872  39.525   5.760  13.855
22090W        W88873  37.474  24.525  13.341
22091W        W88874   6.298  31.152  14.497
22092W        W88875   7.929  16.855  12.052
22093W        W88876  23.722  30.314  14.360
22094W        W88877  44.519   3.492  10.651
22095W        W88878  27.814  13.830   0.301
22096W        W88879  17.034   1.898  14.399
22097W        W88880  35.738  18.071  13.925
22098W        W88881   2.474  17.431  10.026
22099W        W88882  36.491  14.805  14.440
22100W        W88883  10.694  44.560   3.344
22101W        W88884  15.778  39.898  13.165
22102W        W88885  27.441  11.370  14.423
22103W        W88886  37.855   7.027  12.079
22104W        W88887  10.368  22.384   4.048
22105W        W88888   8.483   6.703   1.357
22106W        W88889  18.927  31.900   1.775
22107W        W88890  31.425   6.383   1.221
22108W        W88891   0.479  26.702  12.078
22109W        W88892   9.214  39.464  12.183
22110W        W88893  31.080   7.359   2.814
22111W        W88894  27.235   1.314  13.922
22112W        W88895  20.590  18.450  14.960
22113W        W88896  34.432   0.215  10.847
22114W        W88897  10.369  35.132   3.596
22115W        W88898   7.325  22.935  12.146
22116W        W88899  23.478   5.993  11.354
22117W        W88900  29.307  40.107   0.915
22118W        W88901  17.720  36.700   1.913
22119W        W88902  28.656  43.384   1.708
22120W        W88903  38.233  33.428  14.803
22121W        W88904  21.121  19.115   4.471
22122W        W88905  17.042  41.422   3.372
22123W        W88906  17.392  36.047   1.780
22124W        W88907  15.940  27.133  13.390
22125W        W88908  12.271  38.095   0.934
22126W        W88909  37.485  13.323   3.221
22127W        W88910  29.738   0.890  11.551
22128W        W88911  10.370   4.743   2.869
22129W        W88912  42.261  10.206   4.225
22130W        W88913   1.440  18.485   4.706
22131W        W88914  28.292   7.725   1.182
22132W        W88915  40.413   3.244   5.265
22133W        W88916  38.079  36.250  11.060
22134W        W88917   1.651  32.972  13.753
22135W        W88918  42.855  35.797  13.799
22136W        W88919  19.224   3.732   1.897
22137W        W88920   3.473  16.748   3.153
22138W        W88921   6.386  27.543   1.867
22139W        W88922  41.974  23.684  13.951
22140W        W88923  15.706  18.726   3.178
22141W        W88924  35.593  22.234  12.011
22142W        W88925  25.632  37.370   5.002
22143W        W88926  22.427  35.645   1.739
22144W        W88927  24.229  40.331  14.529
22145W        W88928  25.963  22.682   3.747
22146W        W88929  11.585  17.922  13.802
22147W        W88930  38.557  44.792  10.927
22148W        W88931  16.400  39.823  14.407
22149W        W88932   2.178  33.068  11.234
22150W        W88933   2.872  31.652  10.810
22151W        W88934  41.830  33.581   1.288
22152W        W88935   5.867  42.613   0.856
22153W        W88936  30.879  41.922  12.130
22154W        W88937  13.001  44.794  11.593
22155W        W88938  26.438  38.855  13.527
22156W        W88939   9.206  41.314  11.233
22157W        W88940  21.202  25.702  13.894
22158W        W88941  20.967   9.391   2.306
22159W        W88942  34.941  34.174  11.179
22160W        W88943  21.928  10.319   2.871
22161W        W88944  39.819  30.807   4.553
22162W        W88945  36.063   5.790   4.705
22163W        W88946  43.204   6.251   3.694
22164W        W88947   5.284  32.075  11.570
22165W        W88948  29.941  20.817  10.286
22166W        W88949  41.082  15.298  10.779
22167W        W88950  39.328  25.274   2.289
22168W        W88951  35.353  20.212  11.605
22169W        W88952  20.257  35.388   0.861
22170W        W88953  37.812   3.776   0.564
22171W        W88954  43.770  37.044   3.869
22172W        W88955  19.277  42.135  10.841
22173W        W88956  36.829  11.692   1.770
22174W        W88957  16.787  31.465  13.313
22175W        W88958  17.691  31.649  13.381
22176W        W88959  20.600  38.660   4.578
22177W        W88960   3.201   5.755  13.209
22178W        W88961  11.132  43.371   0.862
22179W        W88962  12.295  31.023  14.854
22180W        W88963  10.356  16.695   2.426
22181W        W88964   3.943  36.234  11.888
22182W        W88965  39.754  33.205  14.827
22183W        W88966  29.636  43.343   1.922
22184W        W88967  13.635  36.037  12.589
22185W        W88968   4.707  41.910  14.482
22186W        W88969  22.819  19.698  14.386
22187W        W88970   3.279  25.497  14.504
22188W        W88971   5.268  22.561   3.677
22189W        W88972  11.379   2.316  12.021
22190W        W88973  43.769  15.238  12.108
22191W        W88974  24.332   5.395  13.897
22192W        W88975  23.486  39.319  11.597
22193W        W88976  39.309   1.257   0.018
22194W        W88977  18.699  42.249  11.737
22195W        W88978  18.017  41.213   1.567
22196W        W88979   6.696   9.874   1.281
22197W        W88980  43.492  12.583   3.772
22198W        W88981   5.326  26.815  13.817
22199W        W88982  32.117  13.278  14.479
22200W        W88983  21.967  27.791   4.495
22201W        W88984   6.440   6.366  14.480
22202W        W88985  35.874  20.272   3.409
22203W        W88986  22.766  44.470  13.806
22204W        W88987   5.652  11.248  14.801
22205W        W88988   4.401  19.734  11.197
22206W        W88989  14.231  44.847   4.321
22207W        W88990  26.486  37.054  14.966
22208W        W88991   1.637  22.848  14.469
22209W        W88992  32.767  28.075   0.438
22210W        W88993  34.436  24.709   1.341
22211W        W88994   9.731  12.269   3.721
22212W        W88995  24.008  20.078   2.594
22213W        W88996  39.405  33.916  12.399
22214W        W88997  17.432  37.845  13.955
22215W        W88998  25.858  20.684  11.580
22216W        W88999   4.885   8.957   4.051
22217W        W89000  37.401   9.652  12.860
22218W        W89001   5.176   8.224   1.776
22219W        W89002   7.397  44.912   1.018
22220W        W89003   3.434  10.177   0.837
22221W        W89004  38.008  20.898   0.396
22222W        W89005   4.242  37.014   1.854
22223W        W89006  43.418   7.964   3.124
22224W        W89007  43.610  27.646   0.929
22225W        W89008  17.452  31.680  14.924
22226W        W89009  19.197  27.696   3.939
22227W        W89010   7.844   8.449   0.253
22228W        W89011   9.151  38.437   1.878
22229W        W89012   1.869  24.584   2.468
22230W        W89013   2.483  32.528   1.022
22231W        W89014  12.432  39.314  11.282
22232W        W89015  16.535   5.024   4.577
22233W        W89016   6.900   0.725   2.356
22234W        W89017  39.678  32.182  13.327
22235W        W89018   2.903  37.508   0.757
22236W        W89019   2.146  13.369  11.099
22237W        W89020  24.850  35.514   1.262
22238W        W89021   0.752   3.255   0.813
22239W        W89022  38.578  36.176  11.021
22240W        W89023  29.233  43.022   4.557
22241W        W89024   1.301  34.683  14.536
22242W        W89025  19.176  21.130  13.094
22243W        W89026   5.143  23.233   2.363
22244W        W89027  11.881   9.954   1.800
22245W        W89028  39.886   6.189   2.827
22246W        W89029  32.611  42.813   0.693
22247W        W89030  20.766  36.315   2.782
22248W        W89031  23.500  24.253   0.279
22249W        W89032  28.135   3.538  14.820
22250W        W89033  32.951  16.089   1.369
22251W        W89034  19.719  28.606   4.568
22252W        W89035   8.840  17.524  14.291
22253W        W89036   4.909   1.848   2.203
22254W        W89037  26.534   0.209  12.437
22255W        W89038  22.492   1.363   1.035
22256W        W89039   4.213  31.859  12.914
22257W        W89040  17.200  12.137  12.864
22258W        W89041  10.346  31.524   2.077
22259W        W89042   2.391  44.310   3.063
22260W        W89043   4.687   6.801  11.955
22261W        W89044  21.226  37.173   1.760
22262W        W89045  37.853  27.023   4.565
22263W        W89046  29.498  36.990   4.309
22264W        W89047  24.276  28.950   2.651
22265W        W89048  12.317   7.370  11.965
22266W        W89049   3.729  27.725   3.894
22267W        W89050  18.898  12.930   3.746
22268W        W89051  19.859  40.372   0.358
22269W        W89052  19.211   3.720   0.964
22270W        W89053  21.317  31.611  13.468
22271W        W89054   4.302  26.167   0.826
22272W        W89055  30.084  22.874   1.881
22273W        W89056  33.417   2.632  14.882
22274W        W89057  24.376  39.538   3.268
22275W        W89058  11.848   8.104  11.222
22276W        W89059   1.281   1.417   4.092
22277W        W89060  21.687  36.663  14.039
22278W        W89061  15.581  30.970   2.893
22279W        W89062   2.519  10.164   0.280
22280W        W89063  38.570   0.720   0.039
22281W        W89064   1.424   7.353  14.549
22282W        W89065  11.677   7.260   1.480
22283W        W89066   6.501  15.137   3.183
22284W        W89067   4.356  31.183  13.659
22285W        W89068  43.213  39.216  11.185
22286W        W89069  13.263  23.504  12.895
22287W        W89070   4.389   4.820  10.694
22288W        W89071   3.954  31.513  13.752
22289W        W89072  34.023   6.775  13.819
22290W        W89073  12.304   3.922  13.394
22291W        W89074  43.775  26.391   1.023
22292W        W89075   0.946  33.957  14.937
22293W        W89076  17.186  36.352   0.116
22294W        W89077   1.297  14.806  10.678
22295W        W89078  32.466  40.890   3.272
22296W        W89079  37.311  42.503   0.887
22297W        W89080  34.089  22.708   1.002
22298W        W89081   0.750  33.114  13.962
22299W        W89082  33.508  14.251   1.235
22300W        W89083  40.371  13.281  12.535
22301W        W89084   5.218  12.634   3.111
22302W        W89085   4.773  13.088   0.181
22303W        W89086  40.817  18.619   2.810
22304W        W89087  41.772  27.899   4.160
22305W        W89088  27.701   1.941  13.067
22306W        W89089  15.562  17.009  10.700
22307W        W89090  12.276  35.927  11.147
22308W        W89091  39.957  29.680   2.563
22309W        W89092   3.879  44.817  10.736
22310W        W89093   9.750   8.978  13.977
22311W        W89094  39.989  15.299   3.407
22312W        W89095   8.824  20.583  10.983
22313W        W89096  28.756  28.485  10.839
22314W        W89097  27.080   5.964  14.887
22315W        W89098  12.848  14.200   0.350
22316W        W89099  30.840  38.432  12.062
22317W        W89100  30.613  30.907  14.296
22318W        W89101  32.763  14.985  13.382
22319W        W89102  17.047  33.149   3.802
22320W        W89103  10.764  27.322  13.554
22321W        W89104  41.516  27.513  10.965
22322W        W89105  15.060  19.509  14.293
22323W        W89106   4.885  44.832   0.454
22324W        W89107   4.754  35.275   4.058
22325W        W89108  38.085  11.256  12.481
22326W        W89109  42.888   8.814   0.327
22327W        W89110  24.018  42.255  12.036
22328W        W89111  38.034  39.752   1.285
22329W        W89112  15.051  30.140   0.674
22330W        W89113  10.459  12.720   0.886
22331W        W89114  30.722  26.358  14.773
22332W        W89115  25.136  11.502  12.059
22333W        W89116  20.347  36.059  13.981
22334W        W89117  39.585  40.658  13.897
22335W        W89118  12.606  42.365  10.695
22336W        W89119   1.333  15.558   2.802
22337W        W89120  39.055  21.664  10.519
22338W        W89121  18.137   4.734   0.789
22339W        W89122  13.267  29.471  14.800
22340W        W89123  40.878  31.932  12.006
22341W        W89124  37.587  31.608   1.378
22342W        W89125  23.105   7.344   4.636
22343W        W89126  24.115  33.408  13.882
22344W        W89127  44.315  37.881  12.520
22345W        W89128  25.786  38.679   3.990
22346W        W89129  30.639   4.540  11.904
22347W        W89130  12.602  12.225  11.661
22348W        W89131  42.560  17.601   2.244
22349W        W89132   0.886  36.703   2.140
22350W        W89133  29.628  42.594  13.282
22351W        W89134   8.338  32.143  11.498
22352W        W89135   9.112   1.513   0.059
22353W        W89136  35.511   5.302   4.543
22354W        W89137   5.175  43.992  11.105
22355W        W89138   6.289   9.175   4.555
22356W        W89139  16.818  19.311  13.028
22357W        W89140  24.596  32.305  11.142
22358W        W89141  41.306  30.520  11.600
22359W        W89142  21.142  11.601   0.223
22360W        W89143   8.345   5.820   1.221
22361W        W89144  44.517   9.853  14.391
22362W        W89145  37.708  39.298   4.107
22363W        W89146  24.330  12.937  14.255
22364W        W89147  38.324   1.175   0.005
22365W        W89148  14.153   5.458  13.878
22366W        W89149  42.928  31.037  14.676
22367W        W89150  22.983  12.124   4.738
22368W        W89151  22.201  23.321   3.677
22369W        W89152  15.034   5.965  12.349
22370W        W89153  23.059  30.198  11.539
22371W        W89154   1.914   4.841   2.828
22372W        W89155  37.612   7.647  11.540
22373W        W89156   9.876  27.049  13.752
22374W        W89157  21.777  18.800   3.275
22375W        W89158  43.466  20.496  11.609
22376W        W89159  40.932  38.289   1.182
22377W        W89160   4.314  31.618  13.383
22378W        W89161   7.705  39.990  11.952
22379W        W89162  23.189  14.310   2.426
22380W        W89163   7.423   3.256   0.950
22381W        W89164  13.536  14.738  14.841
22382W        W89165   9.977  34.617  11.033
22383W        W89166  16.318   1.045  11.487
22384W        W89167  30.536  11.755   1.654
22385W        W89168  19.593  33.505   0.699
22386W        W89169  14.550   4.892  14.490
22387W        W89170  35.154  31.138   0.931
22388W        W89171  32.989  11.084   1.732
22389W        W89172  32.400   5.837   0.657
22390W        W89173  27.066  33.604  11.657
22391W        W89174  25.515  15.405   1.208
22392W        W89175  17.864  20.287  12.025
22393W        W89176  25.201   0.848  12.001
22394W        W89177  15.572  20.435   0.442
22395W        W89178  33.616  15.689   0.369
22396W        W89179  24.411  13.428  14.419
22397W        W89180   4.919  13.158   1.701
22398W        W89181   3.548   3.935   3.784
22399W        W89182   8.187  20.651   4.577
22400W        W89183  16.374  20.101   2.750
22401W        W89184   0.488  17.015   4.044
22402W        W89185  30.137  22.587  13.702
22403W        W89186  25.025  15.128  10.696
22404W        W89187   8.910  37.213  11.600
22405W        W89188   0.977  41.703   4.559
22406W        W89189  11.314  27.011   0.791
22407W        W89190  28.227  32.603   1.682
22408W        W89191  31.257  43.301   3.278
22409W        W89192  37.285  19.991   0.905
22410W        W89193  10.258  23.266  11.543
22411W        W89194   9.013  14.671  11.465
22412W        W89195  39.259  18.610   0.527
22413W        W89196   2.442  13.112   1.240
22414W        W89197  40.363  40.522  12.164
22415W        W89198   3.457  42.497  10.715
22416W        W89199   0.071  25.028   2.834
22417W        W89200  37.320   5.292  10.982
22418W        W89201  19.112  22.833   2.887
22419W        W89202   2.511  41.345  14.382
22420W        W89203  12.261  36.015   4.495
22421W        W89204  13.679  32.838   1.276
22422W        W89205   5.949  13.715  12.942
22423W        W89206  22.003   2.114  13.149
22424W        W89207  31.934  39.642   1.780
22425W        W89208   9.263   0.333  14.376
22426W        W89209  29.783  15.562  14.562
22427W        W89210  35.113   9.699  13.322
22428W        W89211  13.325   4.059  12.141
22429W        W89212   0.817  11.401   0.359
22430W        W89213  22.123  28.172   3.857
22431W        W89214  20.095  17.157   4.194
22432W        W89215  21.703  16.576  13.868
22433W        W89216  37.175   2.435   4.540
22434W        W89217  39.995  24.383   2.864
22435W        W89218  31.673  18.038   4.899
22436W        W89219  28.587  42.900   3.887
22437W        W89220  40.656   1.779   3.761
22438W        W89221  32.141  38.421  10.334
22439W        W89222  40.021  20.205   1.842
22440W        W89223  12.293  43.159  11.292
22441W        W89224  23.915  35.429  13.062
22442W        W89225  22.329  33.425   0.898
22443W        W89226  30.977   9.794  13.347
22444W        W89227   3.167  41.656  11.658
22445W        W89228  23.523  25.957  14.874
22446W        W89229  31.421  34.002  11.534
22447W        W89230  14.153  43.988  10.742
22448W        W89231   6.508  38.545  11.134
22449W        W89232   0.983  29.759   2.661
22450W        W89233   2.867  14.872  12.426
22451W        W89234  21.985  27.679  10.599
22452W        W89235  32.698   2.656  12.397
22453W        W89236  28.246  35.533  12.981
22454W        W89237  25.397  23.633   4.222
22455W        W89238   4.764  36.850  13.942
22456W        W89239  32.620  12.257   3.809
22457W        W89240  41.343  28.877   2.741
22458W        W89241  23.634  10.263  13.857
22459W        W89242  32.976  32.495  14.382
22460W        W89243   6.755  15.189  13.585
22461W        W89244  32.437  42.435  13.301
22462W        W89245  31.294  34.620   2.256
22463W        W89246  32.309  16.597  14.794
22464W        W89247  20.120  27.230  13.095
22465W        W89248  20.807  36.938  11.585
22466W        W89249   4.950  42.806   0.407
22467W        W89250  30.354  20.687   2.399
22468W        W89251  39.046  21.744   1.278
22469W        W89252   8.134  41.179  11.211
22470W        W89253   3.404   0.234  11.986
22471W        W89254  22.705  10.119   3.221
22472W        W89255  39.690  43.456   3.522
22473W        W89256  37.394   6.401  14.404
22474W        W89257  41.917  27.945  12.029
22475W        W89258  18.282   0.361   1.430
22476W        W89259  37.189   6.879   2.404
22477W        W89260   5.736  33.906  11.427
22478W        W89261  19.651  28.358  13.535
22479W        W89262  29.441   8.088   3.848
22480W        W89263  44.012  41.731  11.726
22481W        W89264  32.997  21.936  13.338
22482W        W89265  35.144  17.574   2.335
22483W        W89266   1.309  44.437   4.106
22484W        W89267  42.803  37.363   2.165
22485W        W89268  18.434  22.004  11.452
22486W        W89269  17.248  28.010  14.977
22487W        W89270  33.372  23.964   4.090
22488W        W89271  43.915   6.811  10.476
22489W        W89272  35.624  34.656   4.466
22490W        W89273  35.582  30.009   1.669
22491W        W89274  20.622  24.491   3.296
22492W        W89275  15.108  39.873   1.095
22493W        W89276   3.875  25.264  12.510
22494W        W89277  42.813  42.011   2.971
22495W        W89278   5.927  29.339   1.186
22496W        W89279  41.861  16.977   2.649
22497W        W89280   6.768  11.700   4.139
22498W        W89281   2.680   0.363  11.101
22499W        W89282  28.162  42.395   1.127
22500W        W89283  30.971  32.861   4.295
22501W        W89284  17.336  14.550   1.655
22502W        W89285   7.317   0.490   3.247
22503W        W89286  12.239   1.419  14.760
22504W        W89287  30.944   3.651   1.089
22505W        W89288  19.808  41.771  14.965
22506W        W89289  42.833  20.201  14.709
22507W        W89290  18.602  24.585  13.008
22508W        W89291   9.304  20.359  13.042
22509W        W89292  35.349  30.329   3.311
22510W        W89293  10.876   7.274  11.504
22511W        W89294   5.024  10.266  11.531
22512W        W89295  23.699   9.151   3.401
22513W        W89296  14.639  30.490  10.623
22514W        W89297  20.027   1.858  11.122
22515W        W89298   6.314  44.270   4.199
22516W        W89299  36.059  41.237   1.998
22517W        W89300   1.840  42.500   3.359
22518W        W89301  31.190  40.959  13.396
22519W        W89302   2.233   7.412   2.728
22520W        W89303  39.382  44.932  14.305
22521W        W89304  17.040  40.782   1.484
22522W        W89305   7.461  11.311   4.635
22523W        W89306  18.525  43.489   1.727
22524W        W89307  18.491   4.366  12.506
22525W        W89308  34.373  43.311  14.504
22526W        W89309  38.995  35.417  14.971
22527W        W89310  18.104  42.078   3.684
22528W        W89311  35.946  34.394  11.248
22529W        W89312   6.507   7.316   2.396
22530W        W89313  35.491  36.895  11.879
22531W        W89314  21.106  15.119   4.033
22532W        W89315  44.392  28.985   2.486
22533W        W89316  26.246  29.178   2.780
22534W        W89317   9.970  11.452  12.521
22535W        W89318  41.081  29.282  13.470
22536W        W89319  41.262  12.115   4.655
22537W        W89320  44.181  22.591  11.926
22538W        W89321  30.815  16.418   2.766
22539W        W89322  40.314  16.543  14.256
22540W        W89323  21.463   7.695  12.349
22541W        W89324  20.731   3.705  13.098
22542W        W89325   5.829   2.817   4.936
22543W        W89326  18.254  33.846   3.871
22544W        W89327  12.507   5.735   4.781
22545W        W89328   1.413  17.538   1.843
22546W        W89329  38.455  29.012   2.198
22547W        W89330  38.000  39.402   4.526
22548W        W89331  23.566  21.256   0.395
22549W        W89332  15.899  19.554  12.098
22550W        W89333  24.072   6.441   4.534
22551W        W89334  38.977   0.252   2.918
22552W        W89335  42.828  37.733  12.099
22553W        W89336  36.513  17.289  12.091
22554W        W89337  29.208  30.468   4.213
22555W        W89338  37.824   4.834  10.403
22556W        W89339  20.106  41.309  11.531
22557W        W89340  29.641  20.702  10.681
22558W        W89341   1.380   9.415   3.997
22559W        W89342   0.396  35.527  14.620
22560W        W89343  31.435  23.186   2.218
22561W        W89344   0.621  18.176   3.745
22562W        W89345  18.266  34.564   0.883
22563W        W89346  36.582  13.408   3.373
22564W        W89347  29.381   0.661   0.395
22565W        W89348  29.312   5.915  14.537
22566W        W89349  14.706  39.227  11.098
22567W        W89350  22.012  44.807   4.195
22568W        W89351   2.783  38.979  14.824
22569W        W89352  17.201  44.394   3.687
22570W        W89353  10.528  39.941  12.110
22571W        W89354  44.752  22.735  13.061
22572W        W89355  14.501  39.069  12.291
22573W        W89356  28.663  35.400  14.826
22574W        W89357   7.832  12.212   3.660
22575W        W89358   6.356  24.259  14.922
22576W        W89359   2.237   5.800   2.787
22577W        W89360  37.990  32.703  11.125
22578W        W89361  21.973   9.380   1.401
22579W        W89362  37.861  24.286  14.228
22580W        W89363  29.173   5.196  11.582
22581W        W89364   7.486  27.241  14.979
22582W        W89365  14.364  31.926  12.413
22583W        W89366  39.268  14.306  13.069
22584W        W89367   7.872  21.034  12.443
22585W        W89368  10.603  20.864  13.630
22586W        W89369  28.864  40.612  14.850
22587W        W89370  22.742   7.756  12.901
22588W        W89371   2.555  17.130  13.349
22589W        W89372   7.425  29.916   3.438
22590W        W89373  17.673   8.574  12.644
22591W        W89374   4.687  24.228   0.411
22592W        W89375   0.526  34.346   1.266
22593W        W89376  33.282  19.499   4.168
22594W        W89377  13.820  23.182  11.701
22595W        W89378  35.779  41.854  14.347
22596W        W89379  30.129   5.875   1.251
22597W        W89380   6.667  23.886  10.321
22598W        W89381   4.180  10.336  14.751
22599W        W89382   4.494  33.395  13.994
22600W        W89383  24.040  24.637  11.445
22601W        W89384  43.482  21.702  12.533
22602W        W89385   5.695  30.706   0.824
22603W        W89386  14.675  11.774   4.222
22604W        W89387  30.615   0.799  11.572
22605W        W89388  27.410  31.212  11.607
22606W        W89389  19.881  29.622   1.897
22607W        W89390   7.210  15.705  12.796
22608W        W89391   5.565  14.391  13.522
22609W        W89392  37.319  31.765   2.129
22610W        W89393  29.028  20.784  11.951
22611W        W89394  21.685  44.930   4.753
22612W        W89395  38.738  44.243   2.186
22613W        W89396  16.718  25.551   4.680
22614W        W89397   3.868  23.889  10.827
22615W        W89398  32.096   9.370   1.991
22616W        W89399   9.449  16.995  13.862
22617W        W89400   1.326  27.104   3.125
22618W        W89401  44.921  41.194   0.922
22619W        W89402  31.042  20.014  11.621
22620W        W89403  17.991  13.710   2.399
22621W        W89404  16.521  30.420  12.695
22622W        W89405   3.712   2.768   1.415
22623W        W89406  28.876  39.449  12.025
22624W        W89407  11.727  17.199   2.866
22625W        W89408  21.240  17.463   4.563
22626W        W89409  44.332  31.759  14.868
22627W        W89410  35.496   7.796   0.943
22628W        W89411  22.540  32.495  11.396
22629W        W89412  10.381   0.066   0.894
22630W        W89413  24.253   9.126   0.776
22631W        W89414  25.987  12.135  14.316
22632W        W89415  31.607  16.581   3.199
22633W        W89416  40.982  41.873   1.304
22634W        W89417   2.061  44.476  13.911
22635W        W89418  33.115  20.536   2.184
22636W        W89419  20.048  10.817  14.955
22637W        W89420  24.209  34.238   1.403
22638W        W89421   0.280  22.212  14.388
22639W        W89422  43.610  31.914   3.612
22640W        W89423  13.254  34.111   0.393
22641W        W89424  18.711  23.200  14.525
22642W        W89425  15.663  17.553  13.821
22643W        W89426  18.505  42.036   3.329
22644W        W89427   1.500   6.901   0.430
22645W        W89428  43.169  43.967  12.452
22646W        W89429  16.490  38.141  11.111
22647W        W89430  38.723  17.131  13.923
22648W        W89431  10.635   8.582   3.123
22649W        W89432   6.243  25.062  10.758
22650W        W89433  36.626  24.461  11.466
22651W        W89434  22.477  21.884  12.907
22652W        W89435   4.728  21.042   0.871
22653W        W89436  36.106  22.089   5.051
22654W        W89437  17.140  17.935  13.029
22655W        W89438  29.884  20.356   4.207
22656W        W89439   4.963  16.127   4.430
22657W        W89440  33.019  42.517  13.311
22658W        W89441  16.563   9.461  11.676
22659W        W89442  36.199  21.565  11.085
22660W        W89443  43.596   8.806  12.956
22661W        W89444  13.260  31.064  12.220
22662W        W89445   8.410   4.308  14.238
22663W        W89446  14.867  43.342  10.989
22664W        W89447  21.430  30.913  11.819
22665W        W89448   2.143  15.668   4.935
22666W        W89449  35.450  31.356   3.169
22667W        W89450  37.182   6.508   3.665
22668W        W89451  18.472   3.726  11.461
22669W        W89452  33.570  27.130   0.870
22670W        W89453  31.410   2.402   4.313
22671W        W89454  34.597  26.300  11.389
22672W        W89455  24.260  29.007  12.184
22673W        W89456  12.027  30.760  11.917
22674W        W89457  38.608  27.715  10.554
22675W        W89458  11.713  40.531   4.080
22676W        W89459  27.174  35.572  12.421
22677W        W89460   8.379  30.007   0.670
22678W        W89461  12.112  21.963   1.803
22679W        W89462  21.528  23.632  11.791
22680W        W89463  20.084  31.423   0.962
22681W        W89464  25.553  14.568  13.865
22682W        W89465  14.837  22.082   4.059
22683W        W89466   5.277  31.933   2.888
22684W        W89467   7.697  20.477  10.694
22685W        W89468  19.821  32.188   1.495
22686W        W89469  29.525  38.735   0.750
22687W        W89470  30.618  23.742  10.514
22688W        W89471  10.755  40.318  13.040
22689W        W89472  40.282  27.181  13.957
22690W        W89473   4.373  26.143   2.346
22691W        W89474  22.013  41.757   2.282
22692W        W89475  25.185  24.744  13.435
22693W        W89476  35.564  39.909  14.703
22694W        W89477   1.288  31.304   4.922
22695W        W89478  16.710   9.934  11.829
22696W        W89479  15.656  37.027  11.651
22697W        W89480  14.414  43.080  10.491
22698W        W89481  16.693  29.448  14.433
22699W        W89482  12.282   6.767   3.082
22700W        W89483  39.964  39.439  14.751
22701W        W89484  21.769  33.107   4.243
22702W        W89485  35.360  25.131   4.575
22703W        W89486   8.305  41.927  13.487
22704W        W89487  41.414  41.411  12.934
22705W        W89488  37.610  15.270   4.284
22706W        W89489   8.419  27.433  13.046
22707W        W89490  39.044   0.758   3.018
22708W        W89491   1.928  22.765   3.781
22709W        W89492   1.271  23.561   3.766
22710W        W89493   1.263  11.200  13.973
22711W        W89494  28.635  22.233   4.108
22712W        W89495   0.742  37.178   2.319
22713W        W89496  19.928  10.414  10.418
22714W        W89497  34.015  14.061   1.008
22715W        W89498  12.729   0.213   0.311
22716W        W89499  19.996  17.984   1.607
22717W        W89500  23.370  16.366   2.783
22718W        W89501  42.352  30.133   2.126
22719W        W89502   1.124  30.247  11.430
22720W        W89503  28.148  13.737   2.107
22721W        W89504  18.602  21.564   0.123
22722W        W89505  24.117  28.601  10.793
22723W        W89506   7.873  40.314   3.999
22724W        W89507  44.378  11.271  10.890
22725W        W89508  38.543  14.593  12.459
22726W        W89509  15.791  16.671  14.874
22727W        W89510   1.706  23.823  11.187
22728W        W89511  44.611  16.227  11.673
22729W        W89512  28.578  36.812  14.836
22730W        W89513   0.750  38.859   3.331
22731W        W89514  22.953  12.588  14.391
22732W        W89515   3.681  39.029  11.203
22733W        W89516  39.076  42.376   4.083
22734W        W89517  39.549  23.341   0.060
22735W        W89518  26.049  13.309  11.584
22736W        W89519  28.178   4.801   2.859
22737W        W89520  23.471  15.651  14.946
22738W        W89521  37.071  10.408  14.014
22739W        W89522  31.453  19.626   0.315
22740W        W89523  16.235  21.571   0.001
22741W        W89524   4.661  41.336  12.496
22742W        W89525   3.990  26.380   3.337
22743W        W89526  41.998  43.986   0.402
22744W        W89527  34.901  42.467  11.596
22745W        W89528  34.544   2.926   1.243
22746W        W89529  38.481  43.990   2.664
22747W        W89530  23.026   5.935   1.408
22748W        W89531  32.495  38.447   0.013
22749W        W89532  10.105  38.864   1.992
22750W        W89533   1.186  34.622   0.491
22751W        W89534  36.235   5.231  13.544
22752W        W89535  18.538  41.283   1.643
22753W        W89536  12.303  27.717  14.160
22754W        W89537  31.684  12.408   1.353
22755W        W89538   2.431   6.112  11.575
22756W        W89539  23.376  43.435  11.245
22757W        W89540  11.638  24.333  11.151
22758W        W89541  24.492  19.850   3.587
22759W        W89542  22.270  39.426   2.884
22760W        W89543  29.230  44.315   4.086
22761W        W89544  29.483  26.631   0.267
22762W        W89545  40.559  34.410  11.549
22763W        W89546  19.719  26.054  12.745
22764W        W89547  30.996  13.830   2.945
22765W        W89548  36.055  40.839   0.720
22766W        W89549   9.171  35.137   1.930
22767W        W89550   8.968  10.173  14.316
22768W        W89551   5.941  32.407   0.575
22769W        W89552   6.686  26.211  14.955
22770W        W89553  21.443   6.783  13.869
22771W        W89554  37.191   9.928   1.678
22772W        W89555  14.014  18.698  11.154
22773W        W89556  40.762  11.597   4.079
22774W        W89557  34.126  37.576  10.678
22775W        W89558  11.518  28.997   0.034
22776W        W89559   8.580  41.850   1.801
22777W        W89560   1.892  23.046  11.385
22778W        W89561  16.410  37.797   3.229
22779W        W89562  32.674  37.630  13.120
22780W        W89563  32.408  10.627  13.367
22781W        W89564  35.982  39.528   0.232
22782W        W89565  23.959  14.400   0.071
22783W        W89566  12.643  28.010   3.249
22784W        W89567  26.946   8.103  12.145
22785W        W89568  18.462  19.041  13.370
22786W        W89569  18.744  11.547  12.377
22787W        W89570  10.339   0.313   3.157
22788W        W89571  18.837  23.723   2.962
22789W        W89572  21.683   8.352  12.042
22790W        W89573   8.736  24.103  14.182
22791W        W89574  31.945  18.943  13.378
22792W        W89575  43.776  22.218  11.513
22793W        W89576   2.239  11.074   2.770
22794W        W89577  34.997  23.649   3.204
22795W        W89578   4.181  37.199   2.778
22796W        W89579  36.362  15.733  12.589
22797W        W89580  23.956  15.618  12.814
22798W        W89581   6.461  33.955  11.107
22799W        W89582   4.236  32.395   1.513
22800W        W89583  14.703   9.687  14.272
22801W        W89584  36.846  41.513   4.516
22802W        W89585  16.591  13.657   3.075
22803W        W89586   9.544  27.631  11.003
22804W        W89587  25.753  44.888   0.962
22805W        W89588  22.632   0.950   0.717
22806W        W89589  42.465  13.374  12.752
22807W        W89590  28.977   1.982  14.476
22808W        W89591   1.175  13.775   4.223
22809W        W89592  29.475   6.361  12.001
22810W        W89593  36.399  10.148  14.551
22811W        W89594  43.837  16.295  11.004
22812W        W89595  37.459  21.730  14.433
22813W        W89596  22.624  42.276   0.753
22814W        W89597  24.184  10.400  13.005
22815W        W89598   5.691  36.475  11.682
22816W        W89599  31.413  39.342   0.381
22817W        W89600  38.862  20.199  14.486
22818W        W89601  19.058  35.354  10.856
22819W        W89602   4.476  28.175   1.771
22820W        W89603  27.753  20.594  12.071
22821W        W89604  38.918  34.345   2.781
22822W        W89605  39.943   5.497  14.044
22823W        W89606  23.077  34.146  14.493
22824W        W89607  21.134   5.961  14.354
22825W        W89608   9.154  36.905  14.235
22826W        W89609  35.439  20.502   2.174
22827W        W89610  15.981  15.217  12.839
22828W        W89611  39.050  28.378  13.807
22829W        W89612   5.324  24.739   1.564
22830W        W89613   5.233  40.579  11.565
22831W        W89614  11.392  14.255   0.477
22832W        W89615  28.557  23.728  12.925
22833W        W89616  40.793   3.022   2.031
22834W        W89617  11.606  11.715  11.487
22835W        W89618  28.826  18.256   1.041
22836W        W89619   2.952   8.166   1.500
22837W        W89620   4.231  38.225   1.249
22838W        W89621  31.883  32.463   0.013
22839W        W89622  43.032  32.957  14.065
22840W        W89623  15.523  22.084   4.875
22841W        W89624   8.595   9.851  11.544
22842W        W89625  25.624   2.366  14.012
22843W        W89626  15.884  17.669   4.244
22844W        W89627  13.846  29.667   2.303
22845W        W89628  32.584  20.027   2.903
22846W        W89629  37.235   0.876  14.096
22847W        W89630  37.877  44.291  10.568
22848W        W89631  23.327  39.293  12.512
22849W        W89632   8.918  25.685   4.165
22850W        W89633   4.973  19.026  10.310
22851W        W89634  25.795  31.025   0.130
22852W        W89635   7.153   6.846   3.231
22853W        W89636  37.032  22.501  12.358
22854W        W89637  38.232  44.112   1.431
22855W        W89638   8.660  26.638  10.627
22856W        W89639  35.865  21.070   0.318
22857W        W89640  22.561  23.950   1.277
22858W        W89641  34.452  32.091   2.247
22859W        W89642  17.700  16.390  10.338
22860W        W89643  38.013  10.675  14.816
22861W        W89644  26.314  32.982  14.382
22862W        W89645   0.977  10.632   1.194
22863W        W89646  42.067   3.844  12.560
22864W        W89647  26.586   3.957   0.916
22865W        W89648   1.739   6.666   3.256
22866W        W89649   0.593  24.452   3.738
22867W        W89650  23.793  18.318   4.559
22868W        W89651  23.309  30.760   4.707
22869W        W89652  42.699  24.504   1.950
22870W        W89653  15.275  26.032   0.882
22871W        W89654  16.980   5.511   1.928
22872W        W89655  42.222   6.891   1.795
22873W        W89656  29.572   5.056   5.197
22874W        W89657  36.363  27.650  12.053
22875W        W89658  19.808   9.615   1.027
22876W        W89659  29.453  38.256   0.909
22877W        W89660  28.162   3.902   0.846
22878W        W89661  32.090  33.027  12.855
22879W        W89662  30.528   3.263   1.880
22880W        W89663  20.473  19.540   4.849
22881W        W89664  28.884  12.735   3.208
22882W        W89665  35.804   2.051   0.033
22883W        W89666  17.230  23.191   2.824
22884W        W89667  32.480   4.220  11.959
22885W        W89668   6.329  19.339   3.484
22886W        W89669  14.181  22.976  10.956
22887W        W89670  36.569   5.836   3.054
22888W        W89671  42.854  29.077   2.640
22889W        W89672  10.153  28.932   4.461
22890W        W89673  23.521  36.488   3.296
22891W        W89674  36.580  12.353   4.528
22892W        W89675   3.921  17.837   2.194
22893W        W89676   8.773  12.620  12.166
22894W        W89677  35.336  43.245   0.914
22895W        W89678  31.115  35.619  12.027
22896W        W89679  18.263  23.932  10.416
22897W        W89680   4.244  32.106  14.168
22898W        W89681  18.350  34.524  14.288
22899W        W89682   5.856  21.236   2.290
22900W        W89683   5.865  16.602  10.610
22901W        W89684  40.058  27.559   4.620
22902W        W89685   9.193  19.749   2.189
22903W        W89686  17.782  17.676  14.364
22904W        W89687  18.580   8.722  13.566
22905W        W89688  39.206   6.346   0.769
22906W        W89689   1.203  18.719   0.499
22907W        W89690  22.215  38.405  12.596
22908W        W89691  38.530  34.092  14.293
22909W        W89692  26.377  10.682  14.924
22910W        W89693  40.186   0.734   4.655
22911W        W89694  10.180  10.737  11.765
22912W        W89695  25.544  37.916   0.034
22913W        W89696  17.346  14.364   0.205
22914W        W89697  14.635   8.641  13.753
22915W        W89698  31.867  19.130   4.710
22916W        W89699  10.650   4.628  13.980
22917W        W89700   4.712  11.355   4.103
22918W        W89701  10.010  20.170  10.606
22919W        W89702  30.422  38.551   1.746
22920W        W89703  23.504  42.093   2.725
22921W        W89704  29.990  20.003  13.848
22922W        W89705  21.019  22.065  13.817
22923W        W89706  33.912  39.611   0.769
22924W        W89707   5.332  14.743  11.761
22925W        W89708  31.915   8.152   3.145
22926W        W89709  30.552  41.651   1.584
22927W        W89710  10.452  39.294  12.440
22928W        W89711  17.124  44.989   1.374
22929W        W89712   3.524  20.598  12.593
22930W        W89713  19.964  33.439   3.006
22931W        W89714  11.129   8.338  14.974
22932W        W89715  27.973  35.435  12.028
22933W        W89716  41.897   9.935   2.778
22934W        W89717  43.423  31.732  11.605
22935W        W89718   1.543  15.104  11.003
22936W        W89719   6.457  19.906   0.101
22937W        W89720  32.609  32.565  11.600
22938W        W89721  26.718  40.017  12.622
22939W        W89722   3.010  41.474  11.199
22940W        W89723  24.431  40.399   2.885
22941W        W89724  14.140  26.365   2.810
22942W        W89725  31.589  34.830   4.861
22943W        W89726   8.397  16.609   1.746
22944W        W89727  38.576  29.103  10.585
22945W        W89728   5.632  29.034  10.834
22946W        W89729  36.784  35.403  12.940
22947W        W89730  29.304  33.294   3.977
22948W        W89731  39.881  19.109   3.615
22949W        W89732   3.588  39.882   0.206
22950W        W89733   7.838  19.452  12.938
22951W        W89734   2.846  11.860   2.622
22952W        W89735  13.263   7.771   1.572
22953W        W89736  38.315  30.694  12.493
22954W        W89737  21.849   9.663  13.432
22955W        W89738  40.311  28.758   0.979
22956W        W89739   1.235   5.895   0.287
22957W        W89740  44.450  12.768  10.857
22958W        W89741  14.771  41.440   1.885
22959W        W89742  16.278   6.448  14.578
22960W        W89743   7.711  22.693   2.936
22961W        W89744  37.120  42.082   3.366
22962W        W89745  11.841  18.501   2.127
22963W        W89746   0.953  29.531  10.924
22964W        W89747  27.646  17.227  14.803
22965W        W89748  40.610  23.273   2.250
22966W        W89749  37.049  24.952   0.994
22967W        W89750  29.027   5.016   2.653
22968W        W89751   5.197  24.468  11.596
22969W        W89752   0.871  19.588  10.232
22970W        W89753  43.415  11.348  11.199
22971W        W89754  10.803  15.038   3.657
22972W        W89755  10.573  35.916   2.342
22973W        W89756  40.298  21.311  12.393
22974W        W89757  35.638  31.375   1.003
22975W        W89758  36.687  36.960   4.210
22976W        W89759  12.351  40.393  10.530
22977W        W89760  24.760  23.196   0.892
22978W        W89761  26.046  24.393   4.169
22979W        W89762  17.881   4.742  11.306
22980W        W89763   4.271  27.187   3.653
22981W        W89764  44.749   7.759   3.504
22982W        W89765  27.017  14.707  12.944
22983W        W89766  30.616  31.014  10.663
22984W        W89767  40.470  35.093   2.774
22985W        W89768  25.741  30.461  14.935
22986W        W89769  34.092  10.342   4.158
22987W        W89770   4.888  30.618  11.981
22988W        W89771   9.204  31.661  12.802
22989W        W89772   8.197  37.054  10.551
22990W        W89773  26.172   8.235   3.344
22991W        W89774   0.964  36.553  10.799
22992W        W89775  27.939  35.399   0.465
22993W        W89776  25.654  17.304  10.168
22994W        W89777  38.579  29.816  14.513
22995W        W89778  29.183  40.415   1.315
22996W        W89779  22.300  15.679   4.273
22997W        W89780  40.446   0.885   0.270
22998W        W89781  43.964  18.701   4.132
22999W        W89782   9.849   3.061   1.736
23000W        W89783  28.955  40.471   0.824
23001W        W89784   9.687  37.484  12.937
23002W        W89785   3.854   1.245  13.125
23003W        W89786  44.429  29.162  11.218
23004W        W89787  15.055  31.058  11.203
23005W        W89788   6.642  22.209  12.167
23006W        W89789  22.638  29.643   0.683
23007W        W89790  44.295  44.147  13.383
23008W        W89791  15.660  37.101  14.402
23009W        W89792  17.044  11.828  11.862
23010W        W89793   2.932  39.047   2.244
23011W        W89794  19.934  23.283  11.180
23012W        W89795  42.553  14.280  10.300
23013W        W89796  20.181  22.284   0.746
23014W        W89797  24.063  41.935   4.322
23015W        W89798  35.908  39.835   2.692
23016W        W89799  40.441   7.495  11.937
23017W        W89800  30.576  38.110  13.604
23018W        W89801  10.621  34.931  14.325
23019W        W89802  26.258  10.681   1.749
23020W        W89803  33.380  30.939   4.077
23021W        W89804  44.828  32.635   0.502
23022W        W89805  17.725  34.194   4.612
23023W        W89806  26.650  20.803   3.808
23024W        W89807  10.292  30.592  10.370
23025W        W89808  17.871  43.465  12.958
23026W        W89809   6.703  44.244  13.544
23027W        W89810  13.619   1.674  14.452
23028W        W89811  31.263  38.468   3.171
23029W        W89812  37.266  38.808   4.487
23030W        W89813  35.818  37.639  12.469
23031W        W89814  30.183  41.060  14.277
23032W        W89815  37.934  25.540  14.335
23033W        W89816   6.145  30.408  14.001
23034W        W89817  18.779  13.820   3.695
23035W        W89818   6.886  16.000   2.700
23036W        W89819  42.848  32.392  14.905
23037W        W89820  18.126  30.130  12.336
23038W        W89821  37.011  37.309   3.640
23039W        W89822   0.875  17.466  12.239
23040W        W89823  14.229  32.894   2.334
23041W        W89824  18.700  30.621  13.977
23042W        W89825  26.513  29.153   3.659
23043W        W89826  25.502  10.674   1.011
23044W        W89827   2.928  29.206  12.099
23045W        W89828  10.732   2.343   0.282
23046W        W89829  34.906  28.304  12.900
23047W        W89830  18.312  44.066  11.117
23048W        W89831  24.064  21.625   4.579
23049W        W89832  20.569   9.219  14.458
23050W        W89833  10.691  38.789   3.223
23051W        W89834  24.188  41.068   2.205
23052W        W89835  38.442  40.861  11.108
23053W        W89836  22.616  36.865   0.092
23054W        W89837  37.349  41.924  10.903
23055W        W89838  11.865  22.256   0.045
23056W        W89839  31.582  24.812  13.430
23057W        W89840  30.993  15.206   4.235
23058W        W89841   1.265  41.312   2.634
23059W        W89842  22.193  31.486   4.216
23060W        W89843   9.441   6.447   2.340
23061W        W89844  31.564  14.566  10.710
23062W        W89845   9.069  27.419   3.629
23063W        W89846  12.463  13.132  13.973
23064W        W89847  41.058   4.281  12.990
23065W        W89848  16.070   4.399  13.359
23066W        W89849   1.613  19.527   0.415
23067W        W89850  40.794  17.275   0.110
23068W        W89851  24.282  17.695  13.374
23069W        W89852  32.207  38.771  11.483
23070W        W89853  19.152  41.799   3.754
23071W        W89854  21.165   3.434  13.343
23072W        W89855  27.937  32.602   2.144
23073W        W89856  24.187  38.263  14.187
23074W        W89857  43.360  12.118  12.576
23075W        W89858   6.688  18.593  13.344
23076W        W89859  25.374  26.906  13.017
23077W        W89860  22.245  14.366  11.467
23078W        W89861  24.525  28.560   2.382
23079W        W89862  24.669  15.556   3.240
23080W        W89863  38.583  29.499   0.379
23081W        W89864  16.834  28.914  12.585
23082W        W89865   5.869  41.715   4.890
23083W        W89866   5.808  24.602  12.984
23084W        W89867   2.501  17.617   4.648
23085W        W89868  31.876  23.990   0.686
23086W        W89869  20.431  14.608   1.268
23087W        W89870   2.582  28.566  13.263
23088W        W89871  34.647  10.778  10.238
23089W        W89872  21.707  42.756  12.901
23090W        W89873  15.836  10.229   4.762
23091W        W89874   8.377  40.358  12.084
23092W        W89875  10.116  35.213   2.118
23093W        W89876  32.089  21.747  14.973
23094W        W89877  13.692  12.769  10.671
23095W        W89878  20.736  15.639  13.021
23096W        W89879  29.091  31.133   0.433
23097W        W89880  22.564  29.710  13.203
23098W        W89881  44.247   5.308   3.039
23099W        W89882  16.325  15.719  12.406
23100W        W89883  27.721  14.830  13.008
23101W        W89884  38.827  35.817  10.710
23102W        W89885  25.583  31.874  12.805
23103W        W89886  23.335  27.708  14.270
23104W        W89887  25.939  29.098  10.632
23105W        W89888  25.908   5.450  12.375
23106W        W89889  30.825  22.993   4.702
23107W        W89890  37.895   0.125   3.446
23108W        W89891  15.252  20.318  12.028
23109W        W89892  18.188  26.440   4.276
23110W        W89893  35.147   5.814   3.641
23111W        W89894  44.055  13.088  10.705
23112W        W89895  31.680  40.988   2.709
23113W        W89896  34.127  13.174  10.613
23114W        W89897  12.653  27.498   2.354
23115W        W89898  15.641  29.947  14.342
23116W        W89899  32.104  35.844  13.404
23117W        W89900  27.940  14.749   0.701
23118W        W89901   6.375  36.456  12.544
23119W        W89902  30.600  11.403   2.294
23120W        W89903  29.170  30.107  13.555
23121W        W89904  12.224  20.809   4.415
23122W        W89905  10.891  32.169  11.684
23123W        W89906  25.989  30.871  12.590
23124W        W89907  26.731  38.989  11.572
23125W        W89908  20.068   1.866  11.626
23126W        W89909  27.987  42.831  11.079
23127W        W89910  42.829   4.761   1.206
23128W        W89911  34.988   1.189  14.324
23129W        W89912   6.688  43.392   2.150
23130W        W89913  29.065  27.226   0.857
23131W        W89914  31.403  42.506  12.971
23132W        W89915  41.918  44.533   1.319
23133W        W89916  18.659  32.150   3.232
23134W        W89917  22.590  23.003  12.122
23135W        W89918  23.086   3.932   5.484
23136W        W89919   1.053   5.014   3.095
23137W        W89920   9.483  21.220  10.503
23138W        W89921  19.000  13.680  13.118
23139W        W89922  31.161  23.238  10.764
23140W        W89923  37.843   7.751  10.037
23141W        W89924   3.411   0.536   2.537
23142W        W89925   3.520  44.474   4.310
23143W        W89926  34.225   6.109   2.240
23144W        W89927  38.996   6.508  11.733
23145W        W89928  33.026  22.770   1.317
23146W        W89929  10.487  11.194  14.379
23147W        W89930  26.077   4.850   3.193
23148W        W89931  26.205  37.562   3.335
23149W        W89932   3.681  15.656  11.856
23150W        W89933  22.508   5.852  11.376
23151W        W89934  28.729  33.827   4.613
23152W        W89935  11.537  41.227  10.549
23153W        W89936  41.293  20.002   2.270
23154W        W89937  14.850  32.967   4.644
23155W        W89938   5.798  26.740   3.412
23156W        W89939   6.611   4.071  11.136
23157W        W89940   7.472  42.926   4.596
23158W        W89941  32.497  13.276   2.384
23159W        W89942  15.788   5.008   2.778
23160W        W89943   4.971  42.070   3.316
23161W        W89944  11.843  33.126  14.844
23162W        W89945  14.316   9.753   2.260
23163W        W89946  44.020   9.255  14.106
23164W        W89947  15.376  24.017   1.336
23165W        W89948   4.799  35.477   0.728
23166W        W89949  23.416  22.534  11.926
23167W        W89950  30.453  13.672   3.184
23168W        W89951  32.420  28.042   2.208
23169W        W89952  38.565  31.648   0.036
23170W        W89953  13.213   8.670   1.118
23171W        W89954   2.026  20.604   0.170
23172W        W89955   8.983  37.986  13.283
23173W        W89956  33.120  39.076  14.328
23174W        W89957  17.655  38.954   1.677
23175W        W89958  26.684  12.564   4.575
23176W        W89959  36.299  18.279   0.836
23177W        W89960  19.707  27.980   1.838
23178W        W89961   7.744  22.719  10.997
23179W        W89962  36.663   3.220   0.017
23180W        W89963  24.472  11.967   4.329
23181W        W89964  42.590  43.807   3.347
23182W        W89965   1.326  18.258   1.294
23183W        W89966  28.499  10.866   4.608
23184W        W89967   7.913  18.261   1.303
23185W        W89968  34.093  28.210  14.499
23186W        W89969   9.631  38.247   4.128
23187W        W89970  22.807  43.925  13.048
23188W        W89971   1.474  28.498   1.619
23189W        W89972  39.768  35.678  10.860
23190W        W89973  32.226   4.220  11.524
23191W        W89974  35.829   0.192   1.797
23192W        W89975  23.119  33.444   1.335
23193W        W89976  19.107  24.621  13.952
23194W        W89977  41.127  41.972  14.742
23195W        W89978  40.728  18.135  11.168
23196W        W89979  32.972   5.052   1.527
23197W        W89980  43.823  32.116   3.190
23198W        W89981  12.802  10.800  12.518
23199W        W89982  35.956  18.577   3.801
23200W        W89983  29.507  12.466  10.724
23201W        W89984  23.208  34.707  13.095
23202W        W89985   4.412  33.128  13.381
23203W        W89986   5.362   6.807   0.275
23204W        W89987  31.930  27.516  10.574
23205W        W89988   8.892  10.278   3.154
23206W        W89989  42.744  37.466  13.564
23207W        W89990   5.579  37.595  11.487
23208W        W89991  40.967   3.872  13.307
23209W        W89992  12.677  21.125  14.971
23210W        W89993   7.269  43.825  11.428
23211W        W89994   0.850  30.908   2.235
23212W        W89995  43.746  19.112   1.781
23213W        W89996  38.914  26.620   4.563
23214W        W89997  38.923  16.088   4.790
23215W        W89998  26.454  25.143  13.355
23216W        W89999  28.762   4.770   0.430
23217W        W90000   5.244  25.583   4.118
23218W        W90001  34.329  34.032   1.878
23219W        W90002  32.209  10.163  13.507
23220W        W90003  30.878  22.745   1.606
23221W        W90004  38.799  43.405   1.916
23222W        W90005  31.059  13.779  14.508
23223W        W90006  31.928  12.188   2.733
23224W        W90007  37.031  31.229   1.560
23225W        W90008   5.834  16.274  11.328
23226W        W90009  28.713  10.564  13.510
23227W        W90010   1.770   0.900  14.579
23228W        W90011  27.725   0.379   2.787
23229W        W90012   8.704  30.689  13.985
23230W        W90013  13.089  12.427   3.299
23231W        W90014   6.566  42.589  11.517
23232W        W90015   8.385  22.247   2.867
23233W        W90016   7.734  19.323   4.915
23234W        W90017  21.579  38.516  14.506
23235W        W90018  34.539  18.355  12.948
23236W        W90019  39.821  17.715  12.006
23237W        W90020  22.766  26.767   3.364
23238W        W90021  21.222  34.290   4.134
23239W        W90022  44.759   2.122   3.631
23240W        W90023  10.258  24.277  13.421
23241W        W90024  33.694   5.751  14.832
23242W        W90025  40.442  22.171   2.310
23243W        W90026  35.021  24.575   3.053
23244W        W90027  23.108  14.755  13.791
23245W        W90028   3.990   9.178  10.653
23246W        W90029  43.571   1.420  13.473
23247W        W90030   2.162  35.210   2.118
23248W        W90031   5.463  25.949   1.412
23249W        W90032   7.403  40.605   4.142
23250W        W90033  13.120  23.090   2.202
23251W        W90034  16.584  44.392   1.676
23252W        W90035  22.463  36.462  14.428
23253W        W90036   0.457  25.916   2.437
23254W        W90037   0.194  27.301  13.002
23255W        W90038   6.882  31.426   0.816
23256W        W90039  32.264   5.945   0.175
23257W        W90040  11.212  32.223   1.725
23258W        W90041   2.425  29.350   0.266
23259W        W90042  36.556  38.592   3.704
23260W        W90043  19.101  28.096   3.610
23261W        W90044  27.150  32.995   3.639
23262W        W90045   4.434  21.771   1.914
23263W        W90046  15.693  42.840   1.929
23264W        W90047  11.850  13.912   2.388
23265W        W90048   9.404  39.486  14.073
23266W        W90049   4.255  41.457   1.726
23267W        W90050   5.654   0.811   1.820
23268W        W90051   2.498  28.165   2.204
23269W        W90052   3.528   8.316  12.493
23270W        W90053  42.784  16.160  12.642
23271W        W90054  35.875  39.425  11.575
23272W        W90055   0.753  14.996  11.898
23273W        W90056  10.145  34.570   1.144
23274W        W90057  28.131  41.150  14.754
23275W        W90058  11.368   8.926   3.726
23276W        W90059   6.874   8.333   2.531
23277W        W90060  33.054  37.063   0.770
23278W        W90061   7.547   8.842   3.329
23279W        W90062  16.407   7.371  10.751
23280W        W90063  17.596  30.638  13.445
23281W        W90064  35.546  33.702   0.366
23282W        W90065  25.024   9.239  11.835
23283W        W90066  26.942  28.424   4.077
23284W        W90067  43.525  22.612  11.173
23285W        W90068  39.464  31.513   1.961
23286W        W90069  29.450  19.863   4.779
23287W        W90070  25.136   3.880   2.769
23288W        W90071  29.074  33.413   2.671
23289W        W90072  38.193  17.516   2.282
23290W        W90073   3.691  43.003   4.989
23291W        W90074  11.527  42.358   4.886
23292W        W90075  23.426   7.729  14.486
23293W        W90076  19.192  20.214  11.404
23294W        W90077  33.011  28.933  10.625
23295W        W90078  24.058  12.917   0.435
23296W        W90079  37.144  21.438   0.717
23297W        W90080   1.180  25.913   2.347
23298W        W90081  30.487   6.178  11.560
23299W        W90082  17.381   1.244  13.073
23300W        W90083  12.003  16.769   2.959
23301W        W90084   5.992  36.622   3.778
23302W        W90085  14.409  43.256   2.329
23303W        W90086  20.069  37.251  12.922
23304W        W90087  24.433  38.978   2.314
23305W        W90088  42.487  44.827  13.067
23306W        W90089  37.575  24.726  11.022
23307W        W90090  10.685   9.562   3.298
23308W        W90091  37.820  11.423  14.302
23309W        W90092  32.271   5.423   1.764
23310W        W90093  23.117  44.456   2.615
23311W        W90094  22.102  38.413  14.823
23312W        W90095  10.340   3.325  11.146
23313W        W90096   9.250  23.235   3.784
23314W        W90097  27.479   2.268  13.780
23315W        W90098  38.564  34.834   4.120
23316W        W90099  36.696   2.161   1.624
23317W        W90100   8.752  37.690   2.331
23318W        W90101  44.441  32.277  14.767
23319W        W90102  27.679   2.396   3.199
23320W        W90103  12.161   2.357  14.702
23321W        W90104  44.168  34.599  13.999
23322W        W90105  34.907  30.065  10.627
23323W        W90106  21.590   3.184  14.398
23324W        W90107  31.774  21.266  13.955
23325W        W90108  11.849  10.585   0.490
23326W        W90109   2.677  16.082   4.141
23327W        W90110  16.296   0.923  10.627
23328W        W90111  12.087  39.141  11.883
23329W        W90112  43.414  18.873   0.303
23330W        W90113  35.369  12.168  10.751
23331W        W90114  30.959  30.795  11.189
23332W        W90115  29.183  34.814   4.097
23333W        W90116  12.917   2.772   1.944
23334W        W90117  36.738  26.072   2.446
23335W        W90118  14.902  34.935   0.737
23336W        W90119  10.816  23.982   1.773
23337W        W90120  20.585  10.434   2.905
23338W        W90121   7.299  11.170  11.888
23339W        W90122  37.626  40.892  14.869
23340W        W90123  14.333  31.395  12.497
23341W        W90124   7.446   0.416  11.266
23342W        W90125  12.895  32.005  11.980
23343W        W90126  10.909   2.028  12.009
23344W        W90127   3.776  11.388  13.058
23345W        W90128  40.947   2.989  13.885
23346W        W90129   3.310  27.731  11.202
23347W        W90130   6.713  11.355   0.955
23348W        W90131  14.295   1.202   4.326
23349W        W90132  17.034  39.464  14.135
23350W        W90133  36.470  15.554   1.644
23351W        W90134  30.151   7.984  14.720
23352W        W90135  26.653   5.392  13.770
23353W        W90136   2.477  32.103  14.345
23354W        W90137  40.772  40.787   4.537
23355W        W90138  17.097  12.244  10.153
23356W        W90139   6.667   9.034   4.944
23357W        W90140  32.656   5.259  10.692
23358W        W90141   5.418  34.661  11.111
23359W        W90142  15.742  19.275   0.714
23360W        W90143  34.944  18.246   1.469
23361W        W90144  30.582   9.969   3.301
23362W        W90145  13.079  42.892  12.029
23363W        W90146  26.592  43.750  14.519
23364W        W90147   3.469  37.459   0.065
23365W        W90148  24.205  11.468  12.116
23366W        W90149  30.596   8.289   2.715
23367W        W90150  44.148   1.943  14.774
23368W        W90151  43.651  10.691  10.063
23369W        W90152  23.577  19.408   2.246
23370W        W90153  36.832  42.457  11.820
23371W        W90154  21.484  42.912  10.910
23372W        W90155  39.550  34.352  10.636
23373W        W90156  11.630  42.628   2.784
23374W        W90157  35.355  27.774  13.883
23375W        W90158   5.494   0.342  11.667
23376W        W90159  25.192  10.873  10.524
23377W        W90160  17.569  30.406   0.841
23378W        W90161  38.873  17.663   3.869
23379W        W90162   3.955  15.667  12.649
23380W        W90163  29.973   4.813   0.485
23381W        W90164  30.480  21.338  14.933
23382W        W90165   1.208   4.831   0.382
23383W        W90166  41.684  26.627  12.527
23384W        W90167  37.851   3.842  11.535
23385W        W90168  10.474  27.194  11.080
23386W        W90169  19.554   3.142   3.695
23387W        W90170  42.330   1.975  10.908
23388W        W90171  30.492  40.705  13.968
23389W        W90172  31.141  30.531   3.660
23390W        W90173   0.210   4.302  12.978
23391W        W90174  11.147   8.989   1.759
23392W        W90175  19.572  18.226  14.250
23393W        W90176  19.272  28.121   0.764
23394W        W90177  29.721  30.751   2.772
23395W        W90178  28.860  15.561   2.952
23396W        W90179  28.673  41.414  11.134
23397W        W90180  21.621  32.014   0.215
23398W        W90181  34.834  12.185  10.781
23399W        W90182   7.800  23.277   2.149
23400W        W90183  22.337  32.616   2.861
23401W        W90184  10.631  15.895   1.693
23402W        W90185   2.018  15.040  11.153
23403W        W90186  37.992   0.929   1.422
23404W        W90187  29.146  22.482  12.549
23405W        W90188  15.385  33.473   2.234
23406W        W90189  33.936  43.677   2.048
23407W        W90190   6.673  35.487   2.566
23408W        W90191  16.059  33.689   1.186
23409W        W90192  44.247  22.254   1.829
23410W        W90193  22.747  41.094  11.956
23411W        W90194  35.096  29.084   0.322
23412W        W90195   4.802  13.100   2.613
23413W        W90196  13.442  23.365  12.007
23414W        W90197  21.533  44.638  10.669
23415W        W90198  31.821  22.406   3.237
23416W        W90199  13.140  27.961  12.013
23417W        W90200  10.204  31.302   1.627
23418W        W90201  14.048  12.282  14.214
23419W        W90202  41.483  41.806   1.422
23420W        W90203  27.150  11.374  13.841
23421W        W90204   5.994  35.120   3.392
23422W        W90205   8.904  17.343  11.242
23423W        W90206  32.014  40.487   1.210
23424W        W90207   3.290   6.603   2.088
23425W        W90208  23.745  31.234  11.063
23426W        W90209  40.294   6.153  11.439
23427W        W90210  29.983  36.036   4.793
23428W        W90211  20.140  10.065   0.835
23429W        W90212  22.440  31.072   3.976
23430W        W90213  27.238   2.856   4.025
23431W        W90214   2.344  25.981   1.769
23432W        W90215  24.546  29.474   3.745
23433W        W90216  19.530  17.105  14.991
23434W        W90217   0.683  10.784  13.157
23435W        W90218  15.601  34.425  12.664
23436W        W90219  14.148  39.544   1.163
23437W        W90220  39.769  24.834   1.401
23438W        W90221  25.671  40.386   0.507
23439W        W90222  43.893  17.468  13.374
23440W        W90223   1.887  12.641   4.217
23441W        W90224  37.520  43.693   0.083
23442W        W90225  34.018  31.980   0.694
23443W        W90226  11.314  24.499  11.567
23444W        W90227  22.639  13.276   3.008
23445W        W90228  40.007  20.971  12.639
23446W        W90229  40.166  35.382  10.447
23447W        W90230   0.124  40.249  10.454
23448W        W90231  14.162  41.461  11.186
23449W        W90232   5.153  11.243  12.986
23450W        W90233   4.687  15.764  14.906
23451W        W90234  25.312  11.211   2.688
23452W        W90235  44.339  31.531   3.806
23453W        W90236   8.769  37.234   4.525
23454W        W90237  44.654  22.225  13.821
23455W        W90238   4.389   3.447  10.049
23456W        W90239  27.692  42.961   2.926
23457W        W90240  18.867  19.524   4.716
23458W        W90241   7.755  41.897  11.572
23459W        W90242  29.975  15.801   1.743
23460W        W90243  31.211   5.390  10.578
23461W        W90244  24.643  44.698   0.328
23462W        W90245  21.675   8.145  12.518
23463W        W90246   1.830  21.474  12.399
23464W        W90247  31.915  33.348  11.050
23465W        W90248   2.130  17.561   0.777
23466W        W90249  33.933  17.071   2.689
23467W        W90250   6.852  40.320  11.888
23468W        W90251  17.587  13.097   5.092
23469W        W90252   9.470  28.626  10.940
23470W        W90253  30.398  40.441   4.561
23471W        W90254  37.335  41.773  10.421
23472W        W90255   7.749  18.802   2.706
23473W        W90256  12.082  41.368   2.678
23474W        W90257  16.590  10.174  11.059
23475W        W90258  19.740  36.314  12.430
23476W        W90259  42.396  42.949  13.391
23477W        W90260  42.483  24.669   3.154
23478W        W90261  29.669  38.515   0.205
23479W        W90262  25.513  37.422  12.982
23480W        W90263  34.903  24.613  13.461
23481W        W90264  27.865  35.381   1.809
23482W        W90265  21.508  37.694  12.469
23483W        W90266  19.018  32.513  10.730
23484W        W90267  34.481  16.344  13.109
23485W        W90268   9.719  31.692   2.583
23486W        W90269  25.290  43.960   2.610
23487W        W90270  41.799  35.538   3.110
23488W        W90271   5.162  42.977  12.133
23489W        W90272   5.335  36.136  14.355
23490W        W90273   9.632  36.897  14.008
23491W        W90274   0.447  13.747   4.941
23492W        W90275   8.347  43.101  12.523
23493W        W90276  39.062  19.053   4.341
23494W        W90277  19.819  18.487   3.450
23495W        W90278  39.758   6.889   0.303
23496W        W90279  32.177  25.060  12.311
23497W        W90280  19.773  12.837   1.405
23498W        W90281   6.439  15.250   0.405
23499W        W90282  26.965   9.685  14.679
23500W        W90283  44.575   3.848  13.999
23501W        W90284  21.806  17.482   1.919
23502W        W90285  17.362  14.174   2.808
23503W        W90286  16.365  42.918  10.751
23504W        W90287  21.794  43.815   3.857
23505W        W90288  16.412  10.718   0.562
23506W        W90289  38.789   5.935  14.492
23507W        W90290  34.031   0.344  13.016
23508W        W90291  17.714  43.884  14.834
23509W        W90292  22.597  25.932   2.592
23510W        W90293   0.401  27.496   1.618
23511W        W90294  28.762  34.929  12.903
23512W        W90295  16.436  13.284   9.726
23513W        W90296  15.366  44.482   3.676
23514W        W90297  22.648  20.072  10.364
23515W        W90298  32.427  25.120   4.102
23516W        W90299  43.003   8.963  11.217
23517W        W90300  44.580   6.258  13.948
23518W        W90301   9.869  35.117  12.511
23519W        W90302  18.725  30.770  12.999
23520W        W90303   0.303  32.859   0.443
23521W        W90304   8.546   5.289   1.363
23522W        W90305  27.723  35.020   0.188
23523W        W90306  22.205  36.153   1.731
23524W        W90307  30.690  26.877  14.778
23525W        W90308   6.684  35.326  14.391
23526W        W90309  34.951  38.417   4.792
23527W        W90310  25.472  21.722   4.722
23528W        W90311  14.380  42.618  11.926
23529W        W90312   3.303  36.368   0.764
23530W        W90313  25.169  21.120   1.096
23531W        W90314  18.112  33.913  12.384
23532W        W90315  30.443  10.887  12.480
23533W        W90316  40.472  33.164  13.852
23534W        W90317  29.341  28.924  12.897
23535W        W90318  25.922  42.042   1.338
23536W        W90319   1.699  27.720  11.172
23537W        W90320  16.055  12.427   1.362
23538W        W90321  37.091  29.919  14.449
23539W        W90322  10.623  30.680   2.562
23540W        W90323   2.913  37.119  14.371
23541W        W90324  25.723  29.066   4.218
23542W        W90325   0.875  30.390  13.663
23543W        W90326  18.956   9.049   3.488
23544W        W90327   1.390   1.503   1.829
23545W        W90328   6.257  19.234   1.454
23546W        W90329   4.211  10.868   3.201
23547W        W90330   6.931  42.269  14.725
23548W        W90331  15.331  42.781   3.097
23549W        W90332  17.693  15.612  12.900
23550W        W90333  44.678  41.546   4.514
23551W        W90334  11.770  13.095   3.999
23552W        W90335  32.100  11.727   4.039
23553W        W90336   1.408   4.830   2.782
23554W        W90337  16.057  31.319  11.927
23555W        W90338  22.738   5.920  13.378
23556W        W90339  21.131  30.384   4.319
23557W        W90340  43.051   4.296   2.931
23558W        W90341   3.187  36.409   2.439
23559W        W90342   7.267  39.589  10.370
23560W        W90343   3.691  37.862   2.975
23561W        W90344  15.194  22.411  14.867
23562W        W90345  38.538  35.325  13.920
23563W        W90346  11.693  35.961   0.264
23564W        W90347  15.283   0.723  14.744
23565W        W90348  31.542  11.963  13.367
23566W        W90349  39.105  28.836  13.560
23567W        W90350  23.991  23.392   9.873
23568W        W90351  26.458  16.977  12.855
23569W        W90352  34.790  25.564   0.341
23570W        W90353  31.016  21.108  13.114
23571W        W90354  26.370  21.511   4.962
23572W        W90355  15.308  31.319  11.639
23573W        W90356  26.193   1.959   3.645
23574W        W90357  28.987   9.213   0.993
23575W        W90358   9.301  24.941   3.088
23576W        W90359   2.696  12.344  13.289
23577W        W90360  26.690  43.355  14.905
23578W        W90361  30.729   2.421   2.231
23579W        W90362   8.808   5.833  10.754
23580W        W90363   1.753  14.230  12.024
23581W        W90364  33.370  40.615   1.917
23582W        W90365  11.225  19.749   4.345
23583W        W90366  25.022  40.925  12.623
23584W        W90367   1.042  28.057  10.805
23585W        W90368   0.368  40.917   2.628
23586W        W90369  34.821   9.730  14.197
23587W        W90370  37.724  39.093   0.211
23588W        W90371   0.419  17.298  11.974
23589W        W90372  16.834  31.087  11.044
23590W        W90373  31.451  39.257  13.399
23591W        W90374   3.405  13.796   1.804
23592W        W90375  37.538   0.245   3.792
23593W        W90376   6.351  28.655   1.376
23594W        W90377  32.021   5.251  14.944
23595W        W90378  17.226  40.787  13.435
23596W        W90379  22.831  19.869  13.530
23597W        W90380  44.420  26.435   0.476
23598W        W90381  41.427  22.998   2.335
23599W        W90382  10.916  17.495   0.429
23600W        W90383   9.452  22.924   3.003
23601W        W90384  35.957  30.615   4.341
23602W        W90385  18.775  40.978  14.881
23603W        W90386   1.919  40.927   3.138
23604W        W90387   5.423   2.230   1.707
23605W        W90388   8.389  11.524   0.226
23606W        W90389  37.587   9.615   1.793
23607W        W90390   1.513  18.061  11.291
23608W        W90391  21.260  33.694  13.020
23609W        W90392  24.191  31.464   4.559
23610W        W90393  33.176   7.867  14.360
23611W        W90394  12.194   9.189  14.582
23612W        W90395  10.167   4.950  12.640
23613W        W90396  17.176   5.348   3.221
23614W        W90397  25.065  32.487   4.102
23615W        W90398  36.506  28.086  14.520
23616W        W90399  17.160  17.156   0.029
23617W        W90400  16.813  20.657   0.847
23618W        W90401   7.732  27.177   0.484
23619W        W90402  19.983  12.825  11.240
23620W        W90403  30.633  26.764   0.965
23621W        W90404  21.285  42.166  14.572
23622W        W90405   7.174  11.629  12.115
23623W        W90406  22.030  14.087   9.583
23624W        W90407  40.440  29.086   4.741
23625W        W90408  23.579   7.409  12.851
23626W        W90409  34.339  12.649   2.634
23627W        W90410  24.054  19.118  12.243
23628W        W90411  30.954  12.861  11.569
23629W        W90412   0.303   7.168   4.561
23630W        W90413  13.356  25.070   3.349
23631W        W90414  34.253  27.158  13.397
23632W        W90415  35.513  31.845  14.437
23633W        W90416  18.525   7.344  12.275
23634W        W90417  38.646  28.592   1.256
23635W        W90418  33.547  15.239  10.722
23636W        W90419  27.141  18.335   3.349
23637W        W90420   9.634  18.798  13.966
23638W        W90421  38.454  39.403  14.789
23639W        W90422  10.583  26.197  12.005
23640W        W90423  20.824  25.761   3.762
23641W        W90424   7.210  19.580   2.762
23642W        W90425  39.702  21.470   0.963
23643W        W90426  44.418   8.947   3.233
23644W        W90427   9.326  42.273   2.410
23645W        W90428   6.550  23.609  14.097
23646W        W90429  12.172  32.720  14.889
23647W        W90430  34.280  16.588  11.511
23648W        W90431  19.575  22.534   3.700
23649W        W90432  15.348   7.920   1.304
23650W        W90433  24.203  28.133  11.030
23651W        W90434  11.631  21.028   1.363
23652W        W90435  36.225   4.685  12.543
23653W        W90436  20.336  44.851  13.346
23654W        W90437  39.901   2.515   2.401
23655W        W90438  31.927   1.350  14.104
23656W        W90439  15.878  13.230  13.916
23657W        W90440  37.874  18.532  14.886
23658W        W90441   3.246  21.011   1.872
23659W        W90442  28.341   5.389   1.759
23660W        W90443  36.988  22.308  13.763
23661W        W90444  11.323   9.699   0.502
23662W        W90445  25.847   4.770  10.551
23663W        W90446  11.590  21.074   0.278
23664W        W90447  41.253   7.242   2.732
23665W        W90448  24.489   6.716   0.890
23666W        W90449  14.790  11.628  11.109
23667W        W90450  20.024   4.369  10.644
23668W        W90451  16.915  25.516  11.719
23669W        W90452  20.931   4.469   4.480
23670W        W90453  13.569  33.921  10.703
23671W        W90454  26.443  16.931   3.846
23672W        W90455  37.282  35.728  11.127
23673W        W90456   5.911  30.888   4.817
23674W        W90457  36.009  22.091   1.960
23675W        W90458   2.022  25.671   4.409
23676W        W90459  40.531  25.686   2.182
23677W        W90460   5.299  44.987  10.468
23678W        W90461  19.001   4.366  12.447
23679W        W90462  15.392  14.613   0.369
23680W        W90463  42.392  16.639  14.184
23681W        W90464  39.405  12.779  14.344
23682W        W90465  37.352  12.902   4.484
23683W        W90466  28.952  11.135   3.760
23684W        W90467  28.384   3.229   0.593
23685W        W90468   9.192  41.420  12.707
23686W        W90469  38.304  29.871   1.849
23687W        W90470  24.667  16.187   1.295
23688W        W90471   0.754  26.015   4.179
23689W        W90472  21.981   6.802   3.012
23690W        W90473  26.260  34.907   0.526
23691W        W90474  42.718  23.006  11.095
23692W        W90475  44.890  28.961   1.228
23693W        W90476  25.531  20.217  11.164
23694W        W90477  33.420  35.879  13.339
23695W        W90478   9.932  42.960  12.433
23696W        W90479  33.614  18.590  13.425
23697W        W90480  35.115  14.200   3.685
23698W        W90481   2.763  19.098   3.176
23699W        W90482   8.488  40.908  12.830
23700W        W90483  33.671  20.911  13.665
23701W        W90484  43.260  20.650  12.065
23702W        W90485  12.927  17.485   3.261
23703W        W90486  26.576  32.694  12.097
23704W        W90487  43.267  37.059   0.814
23705W        W90488  28.570  33.635   2.889
23706W        W90489  34.216   5.740   1.485
23707W        W90490  15.210   2.377   1.127
23708W        W90491   8.902  16.729   3.580
23709W        W90492  19.276   4.281  13.796
23710W        W90493  17.611   7.290   1.331
23711W        W90494  16.127  32.289  11.095
23712W        W90495  14.858  24.308  11.535
23713W        W90496  37.803   0.527   5.058
23714W        W90497  29.504  18.850  13.167
23715W        W90498  18.637  12.602   1.399
23716W        W90499   7.194  21.963  11.065
23717W        W90500  24.920  25.968   3.380
23718W        W90501   2.253  33.015   0.326
23719W        W90502  43.520   3.284  11.135
23720W        W90503  28.383  20.498  11.166
23721W        W90504  33.103  15.550  11.982
23722W        W90505  12.150  41.281   1.764
23723W        W90506  27.942  37.678  12.558
23724W        W90507   4.035  31.423  12.519
23725W        W90508   5.872   2.252   3.742
23726W        W90509  36.001  41.319   1.000
23727W        W90510  31.356  33.615   2.232
23728W        W90511  41.919  19.766   1.163
23729W        W90512   0.919  13.106  14.111
23730W        W90513  41.376   2.455  14.112
23731W        W90514  21.639  24.020  11.080
23732W        W90515  17.090   7.843   4.452
23733W        W90516  20.660  27.893  10.458
23734W        W90517  43.366  27.976   0.605
23735W        W90518  15.036   9.722   2.655
23736W        W90519  22.178  13.933  14.412
23737W        W90520   6.425  35.597   1.671
23738W        W90521  26.686  32.440   1.911
23739W        W90522  41.999  29.476  12.062
23740W        W90523  22.606  28.531   3.214
23741W        W90524  24.777  14.826  12.167
23742W        W90525  28.552  14.809   2.476
23743W        W90526  43.958  34.576   0.796
23744W        W90527   3.903  10.247   0.599
23745W        W90528  16.087   5.291   4.633
23746W        W90529  20.252   4.143   1.358
23747W        W90530  43.237  25.376   3.410
23748W        W90531   7.522  11.843   2.498
23749W        W90532  33.388  23.018   1.870
23750W        W90533  12.743  44.080  13.308
23751W        W90534  19.273  42.435   3.917
23752W        W90535  40.478   8.865   5.043
23753W        W90536  42.959  26.988  11.947
23754W        W90537  17.137  32.893   1.776
23755W        W90538  16.860   8.163  12.830
23756W        W90539  32.613  10.739   2.473
23757W        W90540  11.713  31.409   3.356
23758W        W90541  16.190  12.612  12.451
23759W        W90542   4.192  37.554   1.698
23760W        W90543  12.630   4.191   0.962
23761W        W90544  32.101  16.740  10.559
23762W        W90545  11.657  35.831  13.300
23763W        W90546  31.625  41.460  10.581
23764W        W90547  13.674  25.654   2.880
23765W        W90548  21.253  39.010   4.106
23766W        W90549  28.562  41.855  13.381
23767W        W90550  35.488  15.734   0.427
23768W        W90551  42.281  40.365  11.527
23769W        W90552   1.795  32.790  11.414
23770W        W90553  41.320  37.011  14.960
23771W        W90554  20.274  17.535   2.393
23772W        W90555  26.220  32.569  13.838
23773W        W90556  34.500  43.414   2.723
23774W        W90557   5.979  27.182  10.936
23775W        W90558  39.794  24.498   0.938
23776W        W90559   4.383   6.914  11.494
23777W        W90560   8.014  14.588  10.790
23778W        W90561  19.403  36.160  11.164
23779W        W90562  20.679   6.039   0.216
23780W        W90563   7.364   2.877   1.508
23781W        W90564  13.651  17.899   4.841
23782W        W90565  32.510  35.580   2.906
23783W        W90566  43.822  31.441   2.480
23784W        W90567  42.461   5.386  12.686
23785W        W90568  31.187  12.590   3.096
23786W        W90569  12.871  44.076  13.823
23787W        W90570  13.265  33.990  14.274
23788W        W90571  41.371   4.795   3.624
23789W        W90572  28.986   4.557  12.579
23790W        W90573  30.717  31.557   4.058
23791W        W90574  16.148   1.411   0.714
23792W        W90575   5.004  23.975   1.848
23793W        W90576  26.170  21.092   0.811
23794W        W90577   1.002  21.226  11.931
23795W        W90578   3.826   3.209   3.860
23796W        W90579  32.486   7.035   1.680
23797W        W90580  44.341  31.288  14.610
23798W        W90581  20.843  11.730   2.827
23799W        W90582  19.172   2.724  14.021
23800W        W90583  44.554   8.967  14.409
23801W        W90584  13.069  44.301   0.953
23802W        W90585  27.569  40.853   3.080
23803W        W90586  27.449  12.322  14.328
23804W        W90587   7.748  21.101   3.851
23805W        W90588  21.302  37.897  12.957
23806W        W90589  27.694  42.919   1.189
23807W        W90590  37.090  24.318  14.831
23808W        W90591   9.533   4.684   5.013
23809W        W90592  35.457   5.789  10.127
23810W        W90593   8.947  42.144   3.195
23811W        W90594  27.614   8.201   3.852
23812W        W90595  35.281   8.924  13.929
23813W        W90596  26.533  36.170   4.862
23814W        W90597   5.397  14.778   2.507
23815W        W90598  16.514  12.644   0.441
23816W        W90599  40.498  37.940  10.490
23817W        W90600  27.133   5.530  13.891
23818W        W90601  42.747   2.039  11.633
23819W        W90602  31.988  26.959  12.196
23820W        W90603  39.636  12.017  14.886
23821W        W90604  17.164  25.715   1.901
23822W        W90605   4.777  25.784  10.807
23823W        W90606  23.940   3.213  14.747
23824W        W90607  33.614  20.635   2.397
23825W        W90608  23.829  43.970   3.662
23826W        W90609  12.298  21.807  13.472
23827W        W90610  33.517  32.380   3.617
23828W        W90611  40.757  17.987  14.012
23829W        W90612  20.326  33.051   0.410
23830W        W90613  27.658  15.108   4.309
23831W        W90614  24.976  11.797   1.206
23832W        W90615   9.597   6.705  12.462
23833W        W90616  40.806  28.423  12.466
23834W        W90617   8.333  22.989   0.192
23835W        W90618  42.813  41.243  11.201
23836W        W90619  25.212   7.415  14.958
23837W        W90620  29.050   3.418  13.774
23838W        W90621  27.732   6.381   2.686
23839W        W90622  38.484  33.292  12.380
23840W        W90623  20.622  40.866   0.686
23841W        W90624   0.241  20.752  13.500
23842W        W90625  37.780   5.589  14.436
23843W        W90626  11.351  38.620   5.015
23844W        W90627  14.744   9.620   1.711
23845W        W90628  35.356  41.406   1.667
23846W        W90629  39.354  30.978  14.120
23847W        W90630  35.031  11.257  10.758
23848W        W90631  43.990  44.271   2.401
23849W        W90632  16.645   6.944   3.682
23850W        W90633  44.965  24.814  13.045
23851W        W90634   8.110  10.420   0.299
23852W        W90635   5.139  35.561   3.876
23853W        W90636  22.531  32.948   0.666
23854W        W90637  16.505  40.862  12.990
23855W        W90638  10.158  37.537   1.543
23856W        W90639  44.941  30.934   2.347
23857W        W90640  19.679  31.328  11.960
23858W        W90641  17.220  33.577  13.770
23859W        W90642  32.675  10.767   0.526
23860W        W90643  16.777  42.012   4.074
23861W        W90644  24.528  39.067   1.789
23862W        W90645   0.224  26.896   0.762
23863W        W90646  20.523  25.788  13.313
23864W        W90647   0.607  44.277   2.860
23865W        W90648  26.486  35.360   0.704
23866W        W90649  35.579  36.516  14.922
23867W        W90650  24.559  44.612   3.499
23868W        W90651  14.509  11.341   0.854
23869W        W90652   8.420  41.212   0.702
23870W        W90653  12.844   8.198   0.008
23871W        W90654  31.814   6.400  11.903
23872W        W90655  10.581  37.300   0.110
23873W        W90656  39.863  39.660  13.800
23874W        W90657  16.341  13.778  12.822
23875W        W90658  24.763  44.493   4.359
23876W        W90659   8.683  10.070   3.573
23877W        W90660  26.960  34.433   0.966
23878W        W90661  35.590   1.258  14.980
23879W        W90662   9.367  34.324   2.086
23880W        W90663   9.107  11.744   4.142
23881W        W90664  17.651  29.180   3.306
23882W        W90665  36.270   0.927  12.972
23883W        W90666   5.136  18.711   3.076
23884W        W90667  23.007  29.391  10.992
23885W        W90668  15.685  31.103  13.572
23886W        W90669  12.976  31.126   2.882
23887W        W90670  23.746  18.343  11.514
23888W        W90671  16.556  42.409   1.788
23889W        W90672   5.263  21.172  12.917
23890W        W90673  26.741   2.744  12.563
23891W        W90674  26.480  12.601  13.924
23892W        W90675  31.365  40.526   0.960
23893W        W90676   5.713  29.898  13.806
23894W        W90677  34.019  36.655   4.113
23895W        W90678   7.830  38.680  13.009
23896W        W90679  21.273  26.182  11.587
23897W        W90680  39.571  21.057  12.902
23898W        W90681  36.920  43.871  13.865
23899W        W90682   2.081  26.767  11.106
23900W        W90683   8.713  32.254  14.423
23901W        W90684   5.859  25.470   3.973
23902W        W90685   5.114  34.466  11.485
23903W        W90686  20.491   0.441  14.707
23904W        W90687  43.197   2.626   1.902
23905W        W90688  19.445   4.572  12.562
23906W        W90689  17.697  25.651   4.550
23907W        W90690  22.273   6.965  14.966
23908W        W90691  39.345   1.989   0.231
23909W        W90692  38.822  13.056  10.288
23910W        W90693  31.085  11.598   0.049
23911W        W90694  41.605   8.202   0.719
23912W        W90695  30.006  28.454  12.288
23913W        W90696  24.536   1.909  13.351
23914W        W90697  22.668  36.970   3.802
23915W        W90698  42.673  18.555  13.068
23916W        W90699  32.847   9.673  11.475
23917W        W90700   7.683  43.469   1.336
23918W        W90701   8.189   0.253   0.348
23919W        W90702  42.949  27.891   1.824
23920W        W90703  41.112  21.728  12.944
23921W        W90704  24.942  44.014  14.819
23922W        W90705  23.116   9.635  13.495
23923W        W90706  31.652  41.741  12.549
23924W        W90707  16.668  33.925   2.212
23925W        W90708  24.717  28.285   1.611
23926W        W90709  41.063  40.095  14.980
23927W        W90710  20.707  14.429   4.620
23928W        W90711  23.577  22.243  10.639
23929W        W90712  17.043  26.542  10.628
23930W        W90713  30.956  43.031  12.533
23931W        W90714  29.106   8.727  11.048
23932W        W90715  39.013  22.018  10.897
23933W        W90716  25.209  41.355  14.959
23934W        W90717  27.983  27.125  14.266
23935W        W90718   1.908   6.047   3.606
23936W        W90719   9.764  18.555  12.658
23937W        W90720  10.367   9.410   0.398
23938W        W90721  14.727   8.980   5.145
23939W        W90722  31.166  21.877  10.452
23940W        W90723  26.557  10.582  13.883
23941W        W90724  24.016  29.712   0.591
23942W        W90725   4.729  36.565  14.585
23943W        W90726  31.593  26.169  10.770
23944W        W90727  35.427  36.384  10.437
23945W        W90728   9.442  31.204  14.909
23946W        W90729  21.741  36.899   3.894
23947W        W90730   6.902  34.956   1.829
23948W        W90731   2.051   1.318  14.524
23949W        W90732  24.765  12.807   1.635
23950W        W90733  29.534  10.634  12.472
23951W        W90734  17.798  26.574   3.639
23952W        W90735  33.885  28.676   1.280
23953W        W90736  17.248  24.150  13.457
23954W        W90737   4.393  19.680   4.408
23955W        W90738   4.185  24.033   1.285
23956W        W90739   0.770  37.623   1.316
23957W        W90740  41.459   9.400  12.593
23958W        W90741  32.163  33.585  14.773
23959W        W90742  26.953  38.857   4.407
23960W        W90743   5.261  41.087  11.549
23961W        W90744  21.480   8.509  14.348
23962W        W90745  43.904  14.668   0.700
23963W        W90746  11.222  31.934  13.475
23964W        W90747  40.495  11.266  10.379
23965W        W90748   9.414  29.350   0.369
23966W        W90749  39.981  27.095   3.276
23967W        W90750  19.265  31.819   2.701
23968W        W90751  28.931  17.108   2.341
23969W        W90752  42.294  13.863  11.282
23970W        W90753  24.526  32.143  11.639
23971W        W90754  26.155  39.760  13.966
23972W        W90755   4.488  22.242   2.131
23973W        W90756   7.339   3.628  13.596
23974W        W90757  19.754  44.906  12.204
23975W        W90758   4.369  40.479  11.412
23976W        W90759  33.523  36.870  13.696
23977W        W90760   6.801  30.969  11.966
23978W        W90761  35.019  33.420   0.566
23979W        W90762  29.783  41.683  11.706
23980W        W90763  40.904  44.025   3.593
23981W        W90764   5.419  29.408  12.065
23982W        W90765  26.194   6.864   4.353
23983W        W90766   3.953  43.930   4.550
23984W        W90767  27.051   9.632  12.981
23985W        W90768  13.959  15.613   2.312
23986W        W90769  20.227  27.742   3.989
23987W        W90770  24.521   9.650   3.231
23988W        W90771  39.434  13.236  14.028
23989W        W90772   8.140   2.996  13.797
23990W        W90773   4.190   7.549   0.649
23991W        W90774  27.561   0.947  11.448
23992W        W90775   1.740  27.809   4.516
23993W        W90776  30.668  41.324   4.079
23994W        W90777  15.883   2.495  12.049
23995W        W90778  24.506  34.494  11.988
23996W        W90779  11.080  26.214  11.968
23997W        W90780  22.098  24.133   0.433
23998W        W90781  25.674   8.965  10.214
23999W        W90782  14.706   6.779   4.291
24000W        W90783  40.392  29.485   1.830
24001W        W90784  24.193   0.741   2.195
24002W        W90785  19.628  21.340   3.188
24003W        W90786  17.895   0.880   4.228
24004W        W90787   9.502   7.742   1.716
24005W        W90788   6.365  18.842   1.823
24006W        W90789  39.292  27.942   3.687
24007W        W90790  36.413  26.441  14.428
24008W        W90791  42.482   4.915   3.089
24009W        W90792  17.706  15.151   2.855
24010W        W90793  23.376  41.909  10.188
24011W        W90794  23.001  43.487   4.781
24012W        W90795  34.412  15.751   4.603
24013W        W90796  17.136  11.883   1.557
24014W        W90797  43.463  26.858   3.805
24015W        W90798  36.717  27.180   0.940
24016W        W90799  31.342  41.000   1.778
24017W        W90800   9.898  37.406   3.679
24018W        W90801  18.304  28.448   3.276
24019W        W90802  38.310  38.299  11.009
24020W        W90803  40.193  34.918  12.507
24021W        W90804   2.876  35.303  13.882
24022W        W90805  11.108  24.305  13.539
24023W        W90806  38.130   1.990  13.447
24024W        W90807   1.729   5.748   0.217
24025W        W90808  23.951  42.442   1.659
24026W        W90809  40.072   9.362  13.713
24027W        W90810  43.708  37.159   4.378
24028W        W90811   9.981  34.987   4.570
24029W        W90812  31.311  12.071  11.121
24030W        W90813  43.901  28.192   0.333
24031W        W90814   0.031  33.835  14.779
24032W        W90815  16.116   2.495  10.686
24033W        W90816  37.076  23.984   1.514
24034W        W90817  26.672  31.688  11.140
24035W        W90818  22.170  18.965  11.665
24036W        W90819  29.100  31.385  12.855
24037W        W90820   6.671  44.774  10.679
24038W        W90821   0.358  44.043   1.269
24039W        W90822  20.753   9.220   4.133
24040W        W90823   7.160   3.750   4.423
24041W        W90824  12.894   4.790  11.101
24042W        W90825   3.449  35.251   4.012
24043W        W90826   6.813  20.021  12.013
24044W        W90827  42.251  20.196   4.360
24045W        W90828   1.678  35.880  14.532
24046W        W90829  42.284  42.965   2.345
24047W        W90830  27.295  26.092  11.686
24048W        W90831  11.905   8.945   2.902
24049W        W90832  37.292  25.142  11.063
24050W        W90833  33.427  27.007  12.064
24051W        W90834   4.907  37.612  11.119
24052W        W90835  14.815  14.790  11.876
24053W        W90836  34.836  39.396  12.456
24054W        W90837   1.868   7.679   9.996
24055W        W90838   8.765  28.744  11.316
24056W        W90839  43.041   4.488  10.641
24057W        W90840  28.546  40.547  13.933
24058W        W90841   0.339   4.261   3.149
24059W        W90842  43.788  34.413  10.821
24060W        W90843  12.455  31.598   1.015
24061W        W90844   5.342   5.733  13.802
24062W        W90845  14.272  33.950   0.265
24063W        W90846  30.353  24.117  11.598
24064W        W90847  14.337  22.136   4.131
24065W        W90848  24.322  33.917  10.737
24066W        W90849  42.211  13.709   3.571
24067W        W90850  26.243   3.726  11.622
24068W        W90851   4.303  35.879   3.739
24069W        W90852  30.192  29.123   4.727
24070W        W90853  44.313  31.294   3.357
24071W        W90854   5.519  13.907   2.304
24072W        W90855  19.028  23.199  14.983
24073W        W90856  17.842   9.674   3.165
24074W        W90857  35.226   8.877   1.642
24075W        W90858   2.579  35.997   1.785
24076W        W90859  24.093  26.662   1.220
24077W        W90860  36.608  34.042  11.637
24078W        W90861   0.319  30.617  14.357
24079W        W90862  12.323  32.599  11.497
24080W        W90863  29.913  26.427  14.388
24081W        W90864   9.419  29.873  14.341
24082W        W90865  26.169  41.799  11.637
24083W        W90866   3.324   7.855  10.762
24084W        W90867   6.372  38.950  12.835
24085W        W90868  11.139   6.945   0.687
24086W        W90869   4.342  12.897  14.680
24087W        W90870   2.296  31.894  13.894
24088W        W90871   5.270  26.393   0.046
24089W        W90872  22.929  27.244  12.458
24090W        W90873  22.235  26.887   2.267
24091W        W90874  18.518  34.706  14.801
24092W        W90875  35.158  25.979  12.581
24093W        W90876  44.388  13.751   0.841
24094W        W90877  13.297  15.036   2.826
24095W        W90878  13.762   4.358   3.084
24096W        W90879  38.616   8.192   9.866
24097W        W90880  34.582  10.396  11.082
24098W        W90881   8.629  39.417   3.645
24099W        W90882  16.097   2.282   4.206
24100W        W90883   8.730  42.485   3.694
24101W        W90884   3.676  23.406  10.798
24102W        W90885  24.613  16.659  11.543
24103W        W90886  39.585  25.691  12.910
24104W        W90887  21.461  16.197   2.713
24105W        W90888   3.022   0.214  13.981
24106W        W90889  11.711  33.076  13.295
24107W        W90890  27.100   6.304  11.187
24108W        W90891  32.005   5.618   2.726
24109W        W90892  29.401  19.187  11.511
24110W        W90893  21.517  31.618   4.480
24111W        W90894  39.583  39.140   1.340
24112W        W90895  44.042  25.482  14.900
24113W        W90896  22.551   5.247  12.643
24114W        W90897  26.715   8.128   2.052
24115W        W90898  10.883  37.355  12.084
24116W        W90899   5.285  44.015  14.387
24117W        W90900  34.973  15.178  12.922
24118W        W90901  42.792  33.723   1.269
24119W        W90902   4.416  30.767   2.570
24120W        W90903  35.159  19.394   0.278
24121W        W90904  10.338  15.768   4.538
24122W        W90905  16.241  34.947   2.449
24123W        W90906  25.455  24.481  14.819
24124W        W90907  24.559  28.099   2.156
24125W        W90908  36.978  44.659  11.512
24126W        W90909   2.006  12.067   3.717
24127W        W90910  20.760  27.147   0.311
24128W        W90911   6.499  37.507   5.130
24129W        W90912  20.946  23.114   2.478
24130W        W90913   2.236  41.430  10.704
24131W        W90914  35.707  10.847   3.714
24132W        W90915  30.600  36.959  12.835
24133W        W90916   2.245   5.152  12.363
24134W        W90917   3.677  41.566  11.652
24135W        W90918   9.113  36.502   0.023
24136W        W90919  13.048  11.445  12.072
24137W        W90920   8.705  14.401  12.176
24138W        W90921  10.892  33.790   4.523
24139W        W90922  42.362  44.705   3.707
24140W        W90923  18.259  27.128  11.653
24141W        W90924  22.577  37.866   1.817
24142W        W90925  20.255   5.428  12.944
24143W        W90926  42.513  11.799   1.396
24144W        W90927  34.118  22.652   4.566
24145W        W90928  13.211  28.426  13.553
24146W        W90929  28.025  18.882   1.040
24147W        W90930  39.435  35.444   4.589
24148W        W90931  35.039   4.153  10.258
24149W        W90932   8.140  19.195   1.869
24150W        W90933  29.865  39.464   5.011
24151W        W90934  34.729  19.932   4.052
24152W        W90935  44.176  25.565   3.428
24153W        W90936  22.015  42.595   0.162
24154W        W90937  27.726   6.610  12.892
24155W        W90938   7.159   9.749  11.692
24156W        W90939  22.644   4.406  11.175
24157W        W90940  40.859  29.158   3.179
24158W        W90941  13.568  10.411  12.834
24159W        W90942  21.690  28.709   2.276
24160W        W90943  39.770  44.356  11.613
24161W        W90944  41.380  27.489  14.538
24162W        W90945  31.482  30.081   1.328
24163W        W90946   5.298  16.561   2.378
24164W        W90947  38.107  39.068  11.174
24165W        W90948  43.465  21.227   3.244
24166W        W90949   6.425  20.646   3.732
24167W        W90950  44.494  29.207   1.499
24168W        W90951  32.704  34.001   2.852
24169W        W90952   9.296  33.196   4.531
24170W        W90953  31.115  40.607   4.651
24171W        W90954  10.977  20.521  10.624
24172W        W90955   1.209  32.007  12.151
24173W        W90956  14.729  23.494  12.004
24174W        W90957  19.312   7.512   0.756
24175W        W90958   8.690   5.945   2.185
24176W        W90959  19.699  20.538   0.502
24177W        W90960  26.683  15.542   4.122
24178W        W90961  43.159  24.733   0.667
24179W        W90962   9.819  26.440   1.434
24180W        W90963  44.819   0.187  12.477
24181W        W90964  40.229  29.025  12.822
24182W        W90965  24.210   8.506  13.798
24183W        W90966   6.883  26.464  14.516
24184W        W90967  36.121   5.829   3.722
24185W        W90968   2.598  41.881   4.063
24186W        W90969  40.845  21.532  13.416
24187W        W90970  39.915   2.882   4.411
24188W        W90971  44.904  43.679  14.102
24189W        W90972  20.693  16.041   3.111
24190W        W90973  34.965   3.785  14.421
24191W        W90974  21.279  23.392  10.482
24192W        W90975   8.798  10.270   2.627
24193W        W90976  37.991  19.476  12.497
24194W        W90977  33.002  33.080  11.649
24195W        W90978  26.371   3.748   9.779
24196W        W90979  35.434   8.360  13.134
24197W        W90980  19.606  33.028   4.626
24198W        W90981  14.687  26.485   3.713
24199W        W90982  17.050  19.682  11.186
24200W        W90983  41.617  20.144  13.313
24201W        W90984  11.926  24.275   2.819
24202W        W90985   7.787  44.840   1.970
24203W        W90986  19.927  13.599   1.996
24204W        W90987   8.620  32.197   0.307
24205W        W90988  32.066  39.807   0.733
24206W        W90989   4.826   7.770  11.577
24207W        W90990  39.752   4.919  14.992
24208W        W90991  43.717   3.899  12.672
24209W        W90992  32.981   4.562  12.752
24210W        W90993  15.061   2.769  12.017
24211W        W90994  26.608   7.271   2.530
24212W        W90995  32.292  39.019  13.778
24213W        W90996  25.132  31.506  12.453
24214W        W90997  16.357  39.868   2.299
24215W        W90998  39.882  25.511   0.662
24216W        W90999  34.998  20.374   0.527
24217W        W91000  13.858  41.256   0.255
24218W        W91001  10.577  44.409  10.208
24219W        W91002  32.784  43.468   3.362
24220W        W91003  12.680   9.970  10.756
24221W        W91004   0.568  28.033  12.153
24222W        W91005   2.791   6.503  12.589
24223W        W91006  14.588  12.828  13.086
24224W        W91007  36.013  17.966  14.543
24225W        W91008  25.408  34.958  12.499
24226W        W91009  16.719  17.744   0.674
24227W        W91010  16.101  13.983   0.223
24228W        W91011  36.454  12.370   0.575
24229W        W91012  27.953  22.230   1.756
24230W        W91013  28.441  32.706   4.058
24231W        W91014  19.511  41.576   5.022
24232W        W91015  34.686  34.173   2.247
24233W        W91016   7.912   8.656  14.136
24234W        W91017   0.778  26.577  11.343
24235W        W91018  13.168  29.505   3.286
24236W        W91019  19.015  13.706  13.791
24237W        W91020  17.535  18.051  11.805
24238W        W91021  32.916  42.700  11.667
24239W        W91022  20.131   3.222  13.479
24240W        W91023  22.479   3.527   0.460
24241W        W91024  17.669  28.124  13.597
24242W        W91025   3.286  21.909   4.092
24243W        W91026   5.813   5.804   1.407
24244W        W91027  17.741   3.319   2.204
24245W        W91028   0.261   8.319   0.888
24246W        W91029  31.824   2.696   4.166
24247W        W91030  15.255  38.016   0.540
24248W        W91031  20.094   4.006   2.193
24249W        W91032  32.457  20.783  14.360
24250W        W91033  33.634   3.685  11.467
24251W        W91034   3.729  10.012  14.203
24252W        W91035  31.157  42.713   2.796
24253W        W91036  18.016  19.676   1.351
24254W        W91037  38.601  35.063  13.476
24255W        W91038  31.569   9.449   0.310
24256W        W91039  31.867   9.174  11.238
24257W        W91040  41.483  19.703   4.860
24258W        W91041  13.753  28.915   1.927
24259W        W91042  22.269  39.360  13.540
24260W        W91043  18.719  14.821  13.815
24261W        W91044  27.064  42.310   2.848
24262W        W91045   5.797  36.572   3.303
24263W        W91046  22.778  44.450   1.660
24264W        W91047  11.679  26.115   2.804
24265W        W91048  40.692   9.704  12.509
24266W        W91049  36.963  11.345   4.432
24267W        W91050  41.872  34.210  11.596
24268W        W91051   4.482  30.750   4.301
24269W        W91052  39.146   1.807  12.808
24270W        W91053  35.478  39.057  11.599
24271W        W91054   5.797  34.793  14.536
24272W        W91055   7.444   0.763  12.147
24273W        W91056  41.076  36.884   1.828
24274W        W91057  43.154  19.268  13.079
24275W        W91058  30.048  41.822  12.497
24276W        W91059  27.591  22.011   3.226
24277W        W91060  36.332   5.183   2.733
24278W        W91061  21.790  26.532   0.036
24279W        W91062  42.797  39.973  12.046
24280W        W91063  33.525  12.796   0.633
24281W        W91064   3.704  15.666   2.678
24282W        W91065  16.550  20.155  12.321
24283W        W91066   1.490  21.043  11.926
24284W        W91067   6.441   7.778   4.363
24285W        W91068  38.013   9.182  12.638
24286W        W91069  21.537  32.592   1.419
24287W        W91070   2.625  16.767  12.112
24288W        W91071  19.250  25.305   3.251
24289W        W91072  14.634  17.033  14.803
24290W        W91073  11.214  24.512  10.603
24291W        W91074  39.902  25.179   0.216
24292W        W91075  43.608   1.910  13.218
24293W        W91076  21.126  12.580  10.647
24294W        W91077  14.633  43.231   1.290
24295W        W91078  44.821  13.282  14.790
24296W        W91079  21.500  28.232   2.259
24297W        W91080  22.351  16.367   3.634
24298W        W91081  38.171  41.957   1.839
24299W        W91082  31.037   3.283   1.455
24300W        W91083  37.403   6.557  13.907
24301W        W91084  26.471   1.058   2.944
24302W        W91085  34.858   4.709   2.175
24303W        W91086  28.454  35.677   2.861
24304W        W91087   2.437  21.368   4.499
24305W        W91088  12.165  42.066  10.585
24306W        W91089  31.591  28.926  14.447
24307W        W91090  38.307  42.426   2.217
24308W        W91091  36.523  29.342   2.232
24309W        W91092  29.895  17.184  10.779
24310W        W91093   9.078  29.057   4.514
24311W        W91094  16.399  44.288   4.433
24312W        W91095   7.699  13.646   3.408
24313W        W91096  15.643  14.877  11.581
24314W        W91097  37.071  43.436  12.607
24315W        W91098  14.653   6.379  12.419
24316W        W91099   7.878  43.243  12.598
24317W        W91100   3.665  17.249  12.688
24318W        W91101  18.299  13.828  14.564
24319W        W91102   3.476  33.930   3.268
24320W        W91103  15.118  19.654  11.013
24321W        W91104  23.646   2.772  12.928
24322W        W91105   6.485  23.149  13.052
24323W        W91106  31.271  12.131   5.131
24324W        W91107   6.643  35.073  13.895
24325W        W91108  26.151  40.030  12.127
24326W        W91109  17.052  13.741   2.779
24327W        W91110  30.105  11.405   4.303
24328W        W91111  42.426  37.060  11.152
24329W        W91112  14.135  43.015   1.240
24330W        W91113   6.193  18.514   4.669
24331W        W91114  34.834  40.690   4.130
24332W        W91115  40.397  36.238   3.284
24333W        W91116   1.053   6.184   3.049
24334W        W91117  37.396  12.620   1.212
24335W        W91118  42.764  17.672   0.016
24336W        W91119  34.166   0.368   0.889
24337W        W91120  38.598  13.079   0.850
24338W        W91121  38.424  32.939  13.367
24339W        W91122  36.405  44.448   3.594
24340W        W91123  24.147  12.779  14.942
24341W        W91124   8.294  22.461  10.430
24342W        W91125   7.459  30.510   4.124
24343W        W91126  36.860  20.171  14.882
24344W        W91127   2.390  33.172   1.637
24345W        W91128   6.920  26.974   1.360
24346W        W91129  11.223  23.646   1.780
24347W        W91130  10.286  41.276  12.716
24348W        W91131  35.943  32.086  11.701
24349W        W91132  42.293  20.223   3.373
24350W        W91133  31.028  34.328  11.573
24351W        W91134   3.827  12.088  14.733
24352W        W91135  18.718  18.056   0.840
24353W        W91136  44.376   6.667   4.484
24354W        W91137  23.252  19.625  13.247
24355W        W91138  21.187  19.346   4.951
24356W        W91139  31.870  38.452  11.778
24357W        W91140  31.459  22.087   1.238
24358W        W91141  23.407  23.637  14.469
24359W        W91142  25.436  12.278   4.077
24360W        W91143  21.446  44.820  13.773
24361W        W91144  29.544   1.757  10.727
24362W        W91145  13.684  11.333  10.858
24363W        W91146  40.644   0.128  13.725
24364W        W91147   4.742  10.777   4.438
24365W        W91148  35.600  30.063  13.017
24366W        W91149  37.785  22.033   3.986
24367W        W91150   1.761  25.265   0.288
24368W        W91151  13.494   0.987   1.685
24369W        W91152  38.560  34.969   0.847
24370W        W91153   2.463  35.616   2.791
24371W        W91154   9.760  29.072  12.135
24372W        W91155  21.986  28.923   0.621
24373W        W91156   4.756  19.632   4.835
24374W        W91157  11.786   1.346   1.887
24375W        W91158  30.946   2.589   0.241
24376W        W91159  29.899  27.612  10.719
24377W        W91160  40.864  36.747  14.025
24378W        W91161  34.249  38.620  12.519
24379W        W91162   4.173  41.774   0.808
24380W        W91163  18.037   5.963  11.984
24381W        W91164  14.673   1.313   2.813
24382W        W91165  15.994   5.503   3.829
24383W        W91166  28.180  19.920   1.216
24384W        W91167  17.428  40.541   4.426
24385W        W91168  35.926  42.997  14.891
24386W        W91169   3.156  35.009   3.646
24387W        W91170   6.133   0.373  13.943
24388W        W91171  30.960  22.482   3.278
24389W        W91172  38.381  25.432   2.868
24390W        W91173  44.176   0.311   9.727
24391W        W91174   7.808  31.447   4.696
24392W        W91175  32.212  36.539  10.450
24393W        W91176  33.895  20.253  14.249
24394W        W91177  43.206  20.159   4.694
24395W        W91178  30.082   4.625   1.398
24396W        W91179   6.983  18.172  12.446
24397W        W91180  40.944  21.278   2.303
24398W        W91181   4.301  14.591  14.495
24399W        W91182  21.278  37.523   3.268
24400W        W91183  39.187  39.336   3.550
24401W        W91184  18.038  23.785  13.227
24402W        W91185   6.356  42.508   1.675
24403W        W91186  26.109   1.133  14.840
24404W        W91187  16.026  36.236  13.390
24405W        W91188  32.341  37.592   2.677
24406W        W91189  39.968   8.958   5.011
24407W        W91190  17.544  23.467  12.918
24408W        W91191   8.581   7.615   2.869
24409W        W91192  13.616  37.429   3.661
24410W        W91193  19.612  14.378  13.443
24411W        W91194  44.269   6.802   1.823
24412W        W91195  23.621  20.517   0.026
24413W        W91196  13.158  17.073  14.234
24414W        W91197   3.466   3.269  11.980
24415W        W91198  37.280   9.297   3.168
24416W        W91199  33.385  43.375  14.791
24417W        W91200  32.043  18.731   2.789
24418W        W91201  20.073   1.226   0.951
24419W        W91202   9.370  32.938  12.964
24420W        W91203  12.034  28.950  14.874
24421W        W91204  20.640  14.774   2.586
24422W        W91205   6.440  24.855  11.186
24423W        W91206  20.780  29.126  14.769
24424W        W91207  31.101   3.197   0.467
24425W        W91208   3.663  26.597  14.734
24426W        W91209   5.711   8.596  11.134
24427W        W91210  22.444  27.257   4.137
24428W        W91211  29.174  29.591  13.523
24429W        W91212  17.340  40.408   3.284
24430W        W91213  24.636  27.146   9.757
24431W        W91214  23.485   6.444   0.676
24432W        W91215   1.552   5.578  14.203
24433W        W91216  39.473  12.599  13.434
24434W        W91217  10.216  27.644   1.148
24435W        W91218  10.688  22.246  11.970
24436W        W91219   0.864  20.247  10.748
24437W        W91220   4.909   5.390   1.255
24438W        W91221  26.204  10.686  11.642
24439W        W91222  15.279  32.101  12.013
24440W        W91223  35.064  29.667  12.013
24441W        W91224  44.225   2.837  13.264
24442W        W91225  28.177  28.475   4.367
24443W        W91226  31.603  31.684  10.540
24444W        W91227  37.123  41.928   2.123
24445W        W91228   7.494   6.821  14.935
24446W        W91229   9.861  44.986   0.410
24447W        W91230   1.558  27.701  13.404
24448W        W91231  40.028   2.262   0.341
24449W        W91232   8.644   1.680   3.889
24450W        W91233  18.042  38.293  14.324
24451W        W91234  42.987  43.567   0.325
24452W        W91235  14.252  28.203  11.568
24453W        W91236  16.859  35.461  11.092
24454W        W91237  25.964  11.146  14.381
24455W        W91238  29.451  35.681  14.939
24456W        W91239  28.937  17.939   3.794
24457W        W91240  43.187  40.495  12.826
24458W        W91241  38.978   4.029   1.268
24459W        W91242  16.643   3.215  14.908
24460W        W91243  35.584   3.022   3.326
24461W        W91244  10.182  14.401   1.142
24462W        W91245  32.920  25.741   1.846
24463W        W91246  28.029  23.320  11.723
24464W        W91247  44.334  17.058  12.918
24465W        W91248   5.980  31.463   3.338
24466W        W91249  18.558  15.698   1.540
24467W        W91250  30.970  24.703  12.929
24468W        W91251  32.138  23.651  11.637
24469W        W91252  26.564   0.257   0.557
24470W        W91253  22.094  36.048   0.331
24471W        W91254  29.823   4.211  14.877
24472W        W91255   9.432  20.532   1.711
24473W        W91256  35.479  31.649   0.387
24474W        W91257   8.617  11.038  10.213
24475W        W91258  37.743   5.373   1.312
24476W        W91259  27.043  18.576  13.254
24477W        W91260  36.120  34.958   1.938
24478W        W91261  22.220  19.986  11.720
24479W        W91262  17.916  34.490   2.165
24480W        W91263  21.981  26.675   3.597
24481W        W91264  39.825  19.850  10.731
24482W        W91265  22.193  44.872  13.054
24483W        W91266  20.202  29.914   2.273
24484W        W91267   8.626   6.657  11.918
24485W        W91268  37.208  17.526   2.315
24486W        W91269   7.672  14.092   1.967
24487W        W91270  19.614   1.361   0.781
24488W        W91271  20.147  39.870  13.805
24489W        W91272  42.364  43.062  12.892
24490W        W91273  37.374  20.206  11.648
24491W        W91274   5.691  36.890  14.860
24492W        W91275   7.228   1.981   0.411
24493W        W91276   1.903  35.614   1.713
24494W        W91277   8.463  20.365  14.836
24495W        W91278   7.120  37.893  13.723
24496W        W91279  32.279  39.599  11.183
24497W        W91280  40.390   8.906  14.819
24498W        W91281  42.695  22.018  12.369
24499W        W91282  27.479  14.443   1.872
24500W        W91283  34.691  39.763  11.216
24501W        W91284  43.215  28.208   1.506
24502W        W91285   7.188  43.667  11.894
24503W        W91286   2.780  36.300  12.402
24504W        W91287   5.989   1.672  14.551
24505W        W91288  40.779  34.334  12.029
24506W        W91289  39.095  26.934  12.652
24507W        W91290  31.105  24.702  14.281
24508W        W91291  20.441  40.816  10.675
24509W        W91292   7.357   2.414   4.599
24510W        W91293   5.177  28.432  14.190
24511W        W91294   3.827  18.094   3.187
24512W        W91295  29.119  22.971  14.950
24513W        W91296  21.191  41.047  12.498
24514W        W91297  28.724   1.943   4.150
24515W        W91298  39.061  24.900   3.338
24516W        W91299  42.544  16.488   1.746
24517W        W91300   8.210  23.078  12.514
24518W        W91301  25.750   5.029  10.973
24519W        W91302  12.149  22.133   2.725
24520W        W91303  17.603  19.309  13.264
24521W        W91304  28.462  22.761   3.589
24522W        W91305  30.414  34.430  13.840
24523W        W91306  28.888  26.168  12.653
24524W        W91307  17.574  21.674  11.500
24525W        W91308   9.741  22.161   2.368
24526W        W91309  18.078   2.827  13.522
24527W        W91310  23.733  39.158  11.168
24528W        W91311  30.650   1.444   4.197
24529W        W91312   5.362   8.405   1.314
24530W        W91313  23.711  22.578  14.262
24531W        W91314  35.582  42.355   2.742
24532W        W91315  34.940  40.412   0.297
24533W        W91316  36.941  32.946   4.534
24534W        W91317  17.969  10.441   2.850
24535W        W91318   3.188  13.128  11.034
24536W        W91319  21.303  39.875   0.238
24537W        W91320  14.775   7.740   0.296
24538W        W91321  17.500   7.164   2.423
24539W        W91322  22.607   3.413  11.113
24540W        W91323  44.432   4.213  14.355
24541W        W91324  16.713  38.510   1.446
24542W        W91325  30.860   3.150  12.003
24543W        W91326  11.989  11.645   9.798
24544W        W91327  41.246  15.130   2.250
24545W        W91328  25.779  32.216   3.136
24546W        W91329  43.100  40.804   3.195
24547W        W91330  13.101  29.408  10.734
24548W        W91331  22.199  25.944   4.331
24549W        W91332  26.207  33.327  13.992
24550W        W91333  10.059   2.421  11.529
24551W        W91334   2.494   9.079  11.879
24552W        W91335   0.278  28.262   4.506
24553W        W91336  35.285  41.591  11.035
24554W        W91337  42.767  19.554  13.952
24555W        W91338  15.783  18.024   2.878
24556W        W91339  26.657  26.975  14.769
24557W        W91340  20.061  35.847  13.135
24558W        W91341   5.420   6.393  13.073
24559W        W91342  40.614  30.417  14.463
24560W        W91343  12.610  20.655   3.645
24561W        W91344  37.130  31.737   1.653
24562W        W91345  22.073  35.387  11.968
24563W        W91346  43.377  26.543   2.369
24564W        W91347  25.533   3.293  11.931
24565W        W91348  35.246  36.693   1.385
24566W        W91349  21.184  15.251  14.714
24567W        W91350   2.139  33.659   0.596
24568W        W91351  33.896  23.933   4.204
24569W        W91352  41.249  18.743   3.539
24570W        W91353  23.503  44.932   4.089
24571W        W91354  21.476  15.758  14.856
24572W        W91355  34.655   6.640  11.589
24573W        W91356   6.882  17.498   2.780
24574W        W91357  12.884  25.049   3.121
24575W        W91358  34.861  14.607   2.678
24576W        W91359  24.697  18.051   2.453
24577W        W91360  19.046  15.047  14.380
24578W        W91361  37.500   5.650   2.134
24579W        W91362  25.646   4.641   1.612
24580W        W91363   2.114  23.262   3.798
24581W        W91364   2.677  25.483  11.264
24582W        W91365   3.909   8.963  14.381
24583W        W91366  34.903  44.824   0.476
24584W        W91367  14.136  40.314  12.460
24585W        W91368  12.669  25.736   3.730
24586W        W91369   9.486   6.357   0.689
24587W        W91370  39.585   9.722   1.950
24588W        W91371  23.559  28.164  12.077
24589W        W91372   5.957  32.225  14.747
24590W        W91373  44.997   7.726   0.292
24591W        W91374  23.688  35.591  11.570
24592W        W91375  41.024  42.135  13.691
24593W        W91376  43.078  12.741   0.277
24594W        W91377  11.341  13.310   2.304
24595W        W91378   7.921  36.100   1.892
24596W        W91379  21.647  32.859  11.846
24597W        W91380  10.196   4.752   3.723
24598W        W91381  19.241  38.180   4.141
24599W        W91382  20.566  17.620   4.509
24600W        W91383  13.107  39.940   1.323
24601W        W91384  16.714  26.681   4.396
24602W        W91385  39.158  31.562  11.209
24603W        W91386  25.917  38.388   1.490
24604W        W91387  39.346   6.753  14.030
24605W        W91388  23.533   6.907   3.823
24606W        W91389  40.408  10.317  10.854
24607W        W91390  35.596  25.039  14.543
24608W        W91391   8.894  18.767   3.306
24609W        W91392  37.037   6.453  11.197
24610W        W91393  40.042   4.510  13.765
24611W        W91394  27.023  12.275  11.527
24612W        W91395  21.047  26.977  12.627
24613W        W91396  23.142  18.973  11.525
24614W        W91397  30.364  39.472  13.797
24615W        W91398  30.931  28.057   1.302
24616W        W91399   1.841   9.070  13.428
24617W        W91400  33.149  10.579   3.750
24618W        W91401  17.732  44.206   1.408
24619W        W91402   8.186  29.839   1.830
24620W        W91403  14.844  33.404  14.818
24621W        W91404  20.538   7.685  13.400
24622W        W91405  18.810  38.267   1.972
24623W        W91406  16.855   7.714  14.570
24624W        W91407  41.320   9.636   0.053
24625W        W91408   4.955  25.693   0.798
24626W        W91409  33.286  30.258   2.632
24627W        W91410  18.572  24.064  10.823
24628W        W91411  39.011  43.573   3.794
24629W        W91412  39.321  15.747  12.432
24630W        W91413  29.419  38.275  11.860
24631W        W91414   7.292  35.606   4.395
24632W        W91415  34.047  20.019   1.709
24633W        W91416  40.466  18.101   2.141
24634W        W91417  11.659  42.095   2.738
24635W        W91418  10.122  43.512  14.397
24636W        W91419  29.557  33.182   2.724
24637W        W91420   3.499  36.916   3.226
24638W        W91421  44.813  23.551   3.677
24639W        W91422  21.030  18.660   2.720
24640W        W91423  18.528  26.118   0.015
24641W        W91424  20.698  35.086   0.869
24642W        W91425  44.732   9.630   2.760
24643W        W91426   4.711  32.080   5.171
24644W        W91427  25.974  28.131   4.144
24645W        W91428  31.972  20.974   3.239
24646W        W91429  32.294  37.924  12.415
24647W        W91430  33.998  43.558  10.698
24648W        W91431  28.193  36.834   0.693
24649W        W91432  12.486  37.610   4.177
24650W        W91433  31.952  15.382  14.479
24651W        W91434  19.140  22.539  13.832
24652W        W91435  34.583  34.858   1.457
24653W        W91436  39.016   1.928   2.334
24654W        W91437  31.324  32.030  10.815
24655W        W91438  18.516  43.533   4.245
24656W        W91439  32.085   0.793  14.803
24657W        W91440  15.828  43.822   2.052
24658W        W91441  13.862   6.228  14.805
24659W        W91442  40.870  27.564  12.566
24660W        W91443  44.428  19.209  11.976
24661W        W91444  28.110  29.520  10.909
24662W        W91445  16.867  11.923  14.474
24663W        W91446   1.429  17.745  14.461
24664W        W91447   7.776   5.869   2.642
24665W        W91448  29.027  16.687  14.882
24666W        W91449  42.768  30.561  12.930
24667W        W91450  22.117   9.767   3.712
24668W        W91451  26.465  13.588  11.540
24669W        W91452  21.569  26.926   3.192
24670W        W91453  41.903   0.004   3.804
24671W        W91454  44.625  32.818   0.989
24672W        W91455  32.579  11.438   1.948
24673W        W91456  32.885  20.485  13.501
24674W        W91457  33.624  36.825  11.191
24675W        W91458  30.484  28.011  12.972
24676W        W91459   3.302  36.066  14.226
24677W        W91460  43.217  44.753  13.763
24678W        W91461  36.645  16.042  13.835
24679W        W91462  39.811  36.563   3.716
24680W        W91463   1.695  18.876   4.901
24681W        W91464  36.928  21.028   2.945
24682W        W91465  21.080  41.068  13.040
24683W        W91466  36.308  32.332  12.063
24684W        W91467   2.780  10.708   3.378
24685W        W91468  25.429  13.661   3.198
24686W        W91469  16.712  24.958  13.811
24687W        W91470  30.183  27.574  12.933
24688W        W91471   1.031   3.073   2.477
24689W        W91472   5.922  26.492  14.493
24690W        W91473  20.046  12.293   4.626
24691W        W91474  31.156   4.904   4.567
24692W        W91475   6.373  28.114   3.247
24693W        W91476  34.779  15.602   4.183
24694W        W91477   6.147  17.052  13.049
24695W        W91478   0.453  40.816   4.432
24696W        W91479  31.816   9.749   4.878
24697W        W91480  18.571   5.949  11.986
24698W        W91481   0.861  13.337  12.603
24699W        W91482   1.930  43.232   0.831
24700W        W91483   2.491  32.180   3.146
24701W        W91484  12.291   0.557   0.347
24702W        W91485  42.806  35.404   0.491
24703W        W91486  30.495  16.834  11.129
24704W        W91487  25.009  38.859   1.719
24705W        W91488  21.776  27.340  13.348
24706W        W91489  26.055  14.307   0.948
24707W        W91490   2.849  41.027  12.065
24708W        W91491  16.279  39.308   1.244
24709W        W91492  24.656   9.900   4.427
24710W        W91493   9.814  33.495   0.241
24711W        W91494  22.069  16.497   3.215
24712W        W91495  25.448   6.475   2.991
24713W        W91496  32.138  22.094  11.698
24714W        W91497  28.425  15.346  10.289
24715W        W91498  20.006  11.047   0.931
24716W        W91499  33.267  18.978   4.707
24717W        W91500   2.967   3.004   0.202
24718W        W91501  18.458  38.562  14.184
24719W        W91502  27.012  36.149   3.393
24720W        W91503  36.313   0.252  11.970
24721W        W91504  26.051  20.372  12.685
24722W        W91505   5.797   5.840  13.581
24723W        W91506  41.386  23.103   4.388
24724W        W91507   2.331  38.343  12.399
24725W        W91508  18.319   0.390  14.129
24726W        W91509  10.267  42.560  13.341
24727W        W91510  16.815  19.599  11.650
24728W        W91511  12.345  18.343  14.765
24729W        W91512  36.551  23.132  14.981
24730W        W91513   2.544  37.039  14.018
24731W        W91514  15.667  33.991  14.181
24732W        W91515  38.629  22.806  13.437
24733W        W91516   7.418  29.440   0.391
24734W        W91517   1.982  36.486  14.881
24735W        W91518  37.342   4.720   4.516
24736W        W91519  27.417  30.733  12.514
24737W        W91520  40.359   4.896  12.477
24738W        W91521   4.229  36.403   4.371
24739W        W91522  23.625   6.919  13.489
24740W        W91523  28.388  20.178   0.491
24741W        W91524   7.842  34.324  11.147
24742W        W91525  10.664  23.026  12.945
24743W        W91526  10.195   4.130  10.678
24744W        W91527  31.707  44.690  11.573
24745W        W91528   1.762   5.765   4.851
24746W        W91529  14.015  35.591  11.572
24747W        W91530  12.396   6.321   2.810
24748W        W91531  25.442  11.578   3.314
24749W        W91532  32.877  30.464  13.581
24750W        W91533  16.412  25.614  11.626
24751W        W91534  41.471  29.165   1.130
24752W        W91535  29.376  20.488   1.319
24753W        W91536  20.602  25.907   1.953
24754W        W91537   0.946  14.118  11.004
24755W        W91538  38.784  34.415  14.861
24756W        W91539  42.186  33.468   1.657
24757W        W91540  37.267  40.504   3.858
24758W        W91541  15.812  18.298  14.039
24759W        W91542  14.635   6.296   1.894
24760W        W91543  24.985   8.496  11.667
24761W        W91544  32.944  27.993  12.941
24762W        W91545  15.627  17.660  13.306
24763W        W91546  37.930  19.896  13.870
24764W        W91547  26.272  30.803   0.275
24765W        W91548  14.532  14.090  13.888
24766W        W91549  15.646  43.860  12.070
24767W        W91550  35.438  19.948   0.741
24768W        W91551  40.367  32.325   2.412
24769W        W91552  32.140  43.694  12.444
24770W        W91553  36.555  10.583  14.338
24771W        W91554   3.282  18.353   1.685
24772W        W91555  20.347  16.741  11.126
24773W        W91556   1.277  30.999   0.190
24774W        W91557  31.494  29.121  11.381
24775W        W91558   2.877  13.952   2.850
24776W        W91559  10.777  41.633  11.183
24777W        W91560  22.223   2.281   0.455
24778W        W91561  31.417   8.192   3.123
24779W        W91562  29.007  31.493  13.911
24780W        W91563   8.558  41.241   2.132
24781W        W91564  34.988  31.007  13.529
24782W        W91565  36.511  21.064  13.862
24783W        W91566  16.787  14.578  12.948
24784W        W91567   1.844  17.813  10.992
24785W        W91568  31.593   4.945  14.904
24786W        W91569  29.178   6.022   1.916
24787W        W91570  17.539  36.318  12.417
24788W        W91571   6.200  37.389  14.927
24789W        W91572  13.709  19.244   1.190
24790W        W91573  20.738   3.881   1.837
24791W        W91574  34.699  11.478   3.618
24792W        W91575  27.616  33.536  13.490
24793W        W91576   1.410  19.064  10.804
24794W        W91577  36.578  42.045   1.006
24795W        W91578  28.186   7.169  13.873
24796W        W91579  30.109  41.511   4.146
24797W        W91580  33.232  38.737  14.698
24798W        W91581  34.344  33.912  13.465
24799W        W91582  26.079  23.784  13.876
24800W        W91583  33.521  21.198  12.644
24801W        W91584   1.859   8.034  13.519
24802W        W91585  14.047  44.117  11.568
24803W        W91586   9.331  34.102   2.809
24804W        W91587  11.233  44.867   0.964
24805W        W91588   0.307   5.267  13.799
24806W        W91589  37.997   6.916   3.672
24807W        W91590  10.675   5.873   0.072
24808W        W91591  32.714   8.331   4.024
24809W        W91592   3.430  32.353  11.560
24810W        W91593   3.299  12.114   2.735
24811W        W91594  41.417   0.941  12.179
24812W        W91595  16.031  14.838   1.225
24813W        W91596   6.890  27.724  12.254
24814W        W91597  18.038   5.867   4.417
24815W        W91598  19.792  19.625   2.763
24816W        W91599  44.320  11.918   1.257
24817W        W91600  23.001  20.108   2.624
24818W        W91601  11.713  27.445   2.374
24819W        W91602  18.469  15.305  10.840
24820W        W91603  22.735  12.912  10.976
24821W        W91604  44.763  22.490  14.539
24822W        W91605  35.922   3.833   3.663
24823W        W91606  10.611  14.766   0.860
24824W        W91607  15.805  11.717   1.331
24825W        W91608  43.296  29.657   2.227
24826W        W91609   8.540  38.472   4.120
24827W        W91610  22.810  43.396  11.077
24828W        W91611  19.704  11.388  13.977
24829W        W91612   7.401  13.144   4.549
24830W        W91613  35.261  44.859   2.262
24831W        W91614  17.505  26.922  13.890
24832W        W91615  33.415   4.206  12.822
24833W        W91616  36.268  17.760  12.179
24834W        W91617  44.301  23.568   3.680
24835W        W91618   6.943  44.499  14.566
24836W        W91619  23.171  36.195  11.062
24837W        W91620   6.934  31.961   3.630
24838W        W91621  28.756  28.467  12.140
24839W        W91622  18.661  35.797   4.081
24840W        W91623  17.819  25.820   1.221
24841W        W91624  44.814  26.205  11.549
24842W        W91625  34.696   8.279   2.693
24843W        W91626  18.176  36.493   3.772
24844W        W91627  16.221   7.271  12.037
24845W        W91628  22.225   4.654  11.112
24846W        W91629  40.308  32.509  11.589
24847W        W91630  37.867  32.804   3.205
24848W        W91631  40.767   4.899  11.545
24849W        W91632   0.237   0.521  11.239
24850W        W91633  21.969   4.415   2.003
24851W        W91634  11.255   4.921  10.489
24852W        W91635   1.989  26.785   4.187
24853W        W91636  10.718  30.048  14.497
24854W        W91637  37.701  14.474  11.471
24855W        W91638  27.038  27.485   1.670
24856W        W91639   6.390  20.652  11.902
24857W        W91640  24.273  25.049  14.652
24858W        W91641  44.378   0.322   2.457
24859W        W91642  14.600   6.160   1.393
24860W        W91643  14.750   3.801  11.660
24861W        W91644  15.978  41.601   3.403
24862W        W91645  13.965  40.983  14.427
24863W        W91646  30.019  24.456   3.651
24864W        W91647  20.730  39.141   4.774
24865W        W91648   8.678  42.535   0.089
24866W        W91649   1.310   2.432  13.497
24867W        W91650   6.566  38.344  11.642
24868W        W91651  29.506  12.921   1.470
24869W        W91652   8.691  18.705   1.485
24870W        W91653   9.946   5.302  14.769
24871W        W91654  23.097   1.428   1.688
24872W        W91655  19.382   4.250   0.115
24873W        W91656  38.498  27.067   2.694
24874W        W91657  31.668   3.349  11.217
24875W        W91658  33.282  33.616   2.332
24876W        W91659   2.991  10.282   4.695
24877W        W91660  38.829  30.592  11.424
24878W        W91661   9.586  41.901  13.730
24879W        W91662  39.375  39.530  12.437
24880W        W91663   7.036  41.180   4.720
24881W        W91664  14.258  33.584   1.512
24882W        W91665  39.512  13.264  14.538
24883W        W91666  15.295  26.992  11.868
24884W        W91667  15.566   3.376  11.650
24885W        W91668  29.132  44.428  12.626
24886W        W91669   3.185  10.234   4.205
24887W        W91670  31.457  28.410   4.336
24888W        W91671  39.935  21.732  11.074
24889W        W91672  37.614   0.479  11.637
24890W        W91673  18.231  14.113  14.975
24891W        W91674  23.004  41.993  11.172
24892W        W91675  20.477  39.606   4.174
24893W        W91676  42.585  32.019  13.444
24894W        W91677  33.964   4.617   4.200
24895W        W91678  14.100  25.334   2.877
24896W        W91679  27.649  15.742   1.296
24897W        W91680  13.496  30.820  14.463
24898W        W91681  16.203  21.979  13.802
24899W        W91682  29.104  25.619  13.122
24900W        W91683  27.013  22.293   1.888
24901W        W91684   4.954  39.766  12.889
24902W        W91685  14.621  28.932   1.880
24903W        W91686   9.822  19.793  13.990
24904W        W91687  35.005   7.582   0.941
24905W        W91688  42.417   5.066   1.218
24906W        W91689  19.645  17.585   0.855
24907W        W91690  10.501  30.733  11.846
24908W        W91691  11.762  23.713   1.358
24909W        W91692  11.350  38.593  14.326
24910W        W91693   4.427  36.384  11.902
24911W        W91694  28.083   4.459  11.206
24912W        W91695  12.414  37.702  10.908
24913W        W91696  42.555   2.999  12.395
24914W        W91697  32.239  11.477   4.512
24915W        W91698  26.672  38.981   2.081
24916W        W91699   1.981  31.414  11.536
24917W        W91700  42.074  34.354  12.548
24918W        W91701   4.815   6.319  11.742
24919W        W91702  43.063  22.504   0.386
24920W        W91703  25.215   6.687   1.646
24921W        W91704   1.852  10.611   3.291
24922W        W91705  11.873  15.805   2.348
24923W        W91706   3.740  12.264   3.311
24924W        W91707  11.249  23.203  13.893
24925W        W91708   5.820  15.084   1.982
24926W        W91709  34.167  44.157  13.933
24927W        W91710   3.944  36.324  13.566
24928W        W91711  32.901  32.511  11.152
24929W        W91712  37.118   7.967  10.666
24930W        W91713   8.975  10.054   1.141
24931W        W91714  32.625  25.398   0.893
24932W        W91715  42.353  38.428  14.329
24933W        W91716  40.586  32.343  11.190
24934W        W91717  28.965  20.070   0.367
24935W        W91718  39.592  18.064   2.315
24936W        W91719  32.925  30.476  14.546
24937W        W91720  19.232  43.448   4.119
24938W        W91721  43.953  40.391  11.080
24939W        W91722   3.694  32.950   3.920
24940W        W91723  28.507   7.658   3.919
24941W        W91724  27.465   9.747  11.833
24942W        W91725  32.005  25.761   4.552
24943W        W91726  22.446  25.717   1.667
24944W        W91727  37.827   1.925   4.097
24945W        W91728  27.620  11.118   1.666
24946W        W91729   8.849  31.190   1.173
24947W        W91730   7.269   9.822   3.909
24948W        W91731   6.885  38.033   3.448
24949W        W91732   4.484  38.850  12.496
24950W        W91733  14.728  11.213   4.862
24951W        W91734   6.330  11.811   1.855
24952W        W91735   4.908  42.038  14.939
24953W        W91736  40.912  39.476   2.774
24954W        W91737   6.558  24.472  11.530
24955W        W91738  33.229  35.821  10.473
24956W        W91739  27.633   7.207  13.543
24957W        W91740  14.110  24.525   3.358
24958W        W91741  38.351  40.560   0.970
24959W        W91742  16.296  20.574  10.437
24960W        W91743  23.960   5.562   3.218
24961W        W91744  41.472  24.543  11.644
24962W        W91745  37.308  16.080   3.979
24963W        W91746  32.406  39.081  11.093
24964W        W91747  16.823  23.997   3.094
24965W        W91748  24.689   5.027   4.400
24966W        W91749  27.111  44.909   2.205
24967W        W91750  11.605  40.062   1.359
24968W        W91751  26.324   3.503   1.025
24969W        W91752  28.883  16.339   1.859
24970W        W91753  16.695  43.881   1.737
24971W        W91754   4.832  35.963  10.441
24972W        W91755  35.613  37.174  10.942
24973W        W91756   0.888  35.988  14.891
24974W        W91757  41.799  30.016  12.917
24975W        W91758   3.129   8.292  14.773
24976W        W91759   6.670  41.783   4.286
24977W        W91760  20.745  25.013   2.253
24978W        W91761  15.379   9.192  13.362
24979W        W91762  40.054  38.579  13.078
24980W        W91763  28.016  42.867  13.322
24981W        W91764  12.479  42.892   0.810
24982W        W91765   7.164  31.782   4.040
24983W        W91766  22.315   0.803   2.731
24984W        W91767   6.916  10.835  12.084
24985W        W91768   6.878  44.845   0.816
24986W        W91769  32.947   5.045  14.095
24987W        W91770  39.495   1.049  13.318
24988W        W91771  29.476   6.756  13.882
24989W        W91772  43.733  15.766   4.582
24990W        W91773   2.849  35.109   3.244
24991W        W91774  11.225  40.977   4.749
24992W        W91775  34.507   2.292  11.036
24993W        W91776  22.688   6.602  12.097
24994W        W91777  20.713  17.779  11.929
24995W        W91778   0.757  13.809  14.558
24996W        W91779  32.421  35.913  11.669
24997W        W91780   3.172  24.302   4.517
24998W        W91781  26.964  12.390   3.770
24999W        W91782  34.921   8.896  11.171
25000W        W91783  16.029  25.889  12.948
25001W        W91784  31.100   5.756  14.852
25002W        W91785   5.622  31.558   4.594
25003W        W91786  29.906  35.610   4.494
25004W        W91787  12.834  13.918   3.140
25005W        W91788   1.955  33.418  12.167
25006W        W91789   9.759  37.909   0.496
25007W        W91790  33.061  16.272  12.850
25008W        W91791  37.207  16.320   3.088
25009W        W91792  13.598  11.974  11.590
25010W        W91793  21.787   3.946  13.494
25011W        W91794  19.790  40.159  14.069
25012W        W91795  29.422  25.746   1.231
25013W        W91796  42.627  24.358  11.206
25014W        W91797  35.009   1.992  13.953
25015W        W91798  16.613  23.581  11.387
25016W        W91799  39.102  19.198   2.263
25017W        W91800  33.853  42.905  12.024
25018W        W91801  22.518  30.739  13.418
25019W        W91802  15.114  24.948   4.786
25020W        W91803  23.338  26.706  11.323
25021W        W91804   8.800  10.826  10.668
25022W        W91805  21.564  19.195  13.031
25023W        W91806   9.110  17.349   3.658
25024W        W91807   1.846  42.060   3.071
25025W        W91808   9.165  22.126   0.851
25026W        W91809   1.800  29.042   3.342
25027W        W91810  34.638  14.036  12.414
25028W        W91811  37.928  10.372  14.401
25029W        W91812  23.996  13.356  14.072
25030W        W91813  37.492   7.163  13.239
25031W        W91814   1.239   3.899   0.293
25032W        W91815  42.972   9.488  11.175
25033W        W91816  34.990  44.264  13.455
25034W        W91817  43.818   9.888   3.204
25035W        W91818  18.177   9.317  12.633
25036W        W91819  17.664  42.932  13.540
25037W        W91820  13.063  30.530  14.780
25038W        W91821  14.860  37.727   3.246
25039W        W91822   2.516  10.822   3.804
25040W        W91823  36.699  35.558   4.190
25041W        W91824  27.012  37.778   0.121
25042W        W91825  17.669   4.627   3.258
25043W        W91826   1.796  14.244  10.745
25044W        W91827  38.981  32.734   1.645
25045W        W91828  30.277  21.084   4.510
25046W        W91829  41.658  33.500   3.619
25047W        W91830  23.426   0.310  11.822
25048W        W91831  24.085  41.772   0.900
25049W        W91832  28.475  22.606  11.650
25050W        W91833   7.875  18.710   1.878
25051W        W91834  18.100  20.412   0.226
25052W        W91835  38.299   1.007   2.582
25053W        W91836  40.858  32.017   2.525
25054W        W91837   0.323   1.243  13.882
25055W        W91838  36.644  43.272  11.131
25056W        W91839  27.644  11.421  12.950
25057W        W91840  18.770  29.483   3.660
25058W        W91841  19.264  33.846  11.136
25059W        W91842  12.724  25.583   0.825
25060W        W91843   5.850  12.791  13.444
25061W        W91844  16.183  37.247   3.208
25062W        W91845  18.557  42.281   4.504
25063W        W91846  31.197  15.122   2.497
25064W        W91847   0.866  32.965  12.450
25065W        W91848  26.020  12.674   2.717
25066W        W91849  34.449  30.068  13.893
25067W        W91850  30.063  23.515   0.228
25068W        W91851  44.108  40.341   2.581
25069W        W91852  18.353  31.063  13.874
25070W        W91853  15.140  39.991  10.895
25071W        W91854  11.798  34.462   2.398
25072W        W91855  29.589   8.607   1.349
25073W        W91856  11.219  36.609   2.265
25074W        W91857  17.016  29.488  10.215
25075W        W91858  19.639  35.577   1.964
25076W        W91859  23.516  36.418   4.718
25077W        W91860  29.721   2.868   1.712
25078W        W91861  39.860  33.194   0.956
25079W        W91862  11.392  20.178  10.633
25080W        W91863  24.913   0.825   4.529
25081W        W91864  31.087  20.554  11.631
25082W        W91865  28.996   7.514   4.487
25083W        W91866   7.381  30.498  11.570
25084W        W91867  34.558   4.207   3.470
25085W        W91868  23.650  38.912  12.513
25086W        W91869   3.731  36.370  12.497
25087W        W91870  41.804  20.984  11.989
25088W        W91871  16.235  18.727  10.843
25089W        W91872  24.501  28.687  14.813
25090W        W91873  10.696  21.463   3.699
25091W        W91874  15.253   9.639  12.108
25092W        W91875  32.500  22.726  11.226
25093W        W91876  30.571   1.708  12.295
25094W        W91877   3.479  14.529  11.084
25095W        W91878  44.704  25.056  11.541
25096W        W91879  34.059  27.109   4.619
25097W        W91880  23.938   2.878   1.865
25098W        W91881  23.844  11.242  13.552
25099W        W91882   3.758  31.496   0.780
25100W        W91883  40.820  11.217   1.259
25101W        W91884   0.602  16.485   4.596
25102W        W91885  17.236  42.440   2.546
25103W        W91886  41.733  21.427   3.683
25104W        W91887   3.931   4.280   3.720
25105W        W91888  36.330  44.336   1.638
25106W        W91889  40.074  26.576  12.975
25107W        W91890   6.704   1.982   1.411
25108W        W91891  42.569  43.271   0.439
25109W        W91892   1.034  30.392  14.174
25110W        W91893   3.854  38.616  13.989
25111W        W91894  26.031  27.219   4.019
25112W        W91895   1.634  19.223  11.663
25113W        W91896  17.564   8.750  10.363
25114W        W91897   1.413   8.269  14.586
25115W        W91898  18.640  20.199   1.935
25116W        W91899   7.235  31.441  13.492
25117W        W91900  27.932  15.348   3.786
25118W        W91901  29.555  31.191  14.803
25119W        W91902  27.155  30.465  14.472
25120W        W91903  18.839   6.869   3.732
25121W        W91904  35.832  20.108  12.514
25122W        W91905  35.792  11.384  14.963
25123W        W91906  22.445  17.720   0.898
25124W        W91907  22.947  13.568  11.118
25125W        W91908  34.928  42.379  14.395
25126W        W91909  22.390  39.810  13.736
25127W        W91910  14.161  10.305   3.706
25128W        W91911  40.384  17.481   0.854
25129W        W91912  36.467  12.831  10.909
25130W        W91913   1.464  20.023  13.089
25131W        W91914  33.386  42.702  12.342
25132W        W91915   0.934  23.965  11.167
25133W        W91916  18.205  24.695  11.614
25134W        W91917   2.180  37.545   0.268
25135W        W91918  44.696  24.060  12.596
25136W        W91919  38.131   6.389   2.293
25137W        W91920  20.624   6.889  13.074
25138W        W91921  10.612  28.528  12.433
25139W        W91922  36.098  12.521  11.067
25140W        W91923  14.452  37.075  13.419
25141W        W91924  12.771   2.939  10.448
25142W        W91925  44.760   2.281   0.251
25143W        W91926  17.546  13.170   3.642
25144W        W91927  39.970  43.486   1.701
25145W        W91928  42.101  44.067   1.195
25146W        W91929  40.291  20.116   1.276
25147W        W91930  27.908   6.460  11.223
25148W        W91931  23.304  10.619  10.372
25149W        W91932  16.341  20.347  13.687
25150W        W91933  27.939   4.350   2.958
25151W        W91934   4.147  40.956  12.147
25152W        W91935   9.738   0.738   1.937
25153W        W91936   9.383  20.834   3.186
25154W        W91937  15.334  33.152  10.810
25155W        W91938  42.947  11.337   2.540
25156W        W91939  37.031   8.861  13.341
25157W        W91940  12.787  26.211   1.965
25158W        W91941  13.042  40.934  10.788
25159W        W91942   1.019  32.627   1.460
25160W        W91943  44.000   5.449  10.594
25161W        W91944  31.847  22.749   0.416
25162W        W91945  37.887  25.029   2.248
25163W        W91946  23.524  19.678   1.306
25164W        W91947   5.890  39.359  14.841
25165W        W91948  27.510  43.725  14.089
25166W        W91949  38.279   2.987   3.071
25167W        W91950  22.026   1.394  14.779
25168W        W91951  32.460  30.273   1.277
25169W        W91952  22.618   7.378  13.755
25170W        W91953  16.789   3.252   1.294
25171W        W91954   7.516  35.367  14.175
25172W        W91955  44.514   8.165  13.937
25173W        W91956  12.703  25.530   3.240
25174W        W91957  37.399  37.016  13.316
25175W        W91958  36.016  25.246   3.136
25176W        W91959  41.594  19.806   3.949
25177W        W91960  37.875  37.898  13.114
25178W        W91961  14.093   9.218  12.686
25179W        W91962   0.580  38.562   0.933
25180W        W91963  42.813  24.925   2.804
25181W        W91964  32.461  13.248   0.008
25182W        W91965  23.201  38.834   3.212
25183W        W91966  11.584  25.648   1.853
25184W        W91967  38.456  34.868  14.841
25185W        W91968  34.966  35.691  11.125
25186W        W91969   9.963  34.460  13.032
25187W        W91970  18.682  37.507   1.445
25188W        W91971   1.999   8.366  11.670
25189W        W91972   2.547  31.594  14.450
25190W        W91973   7.727   6.118  13.011
25191W        W91974  16.226  27.055   1.037
25192W        W91975  24.960  29.434   1.275
25193W        W91976  24.624  31.801  14.195
25194W        W91977  14.198  23.713  13.853
25195W        W91978  16.534  17.043  14.292
25196W        W91979  16.589  35.066   0.213
25197W        W91980  43.319  24.558   0.213
25198W        W91981   0.689  26.086   3.653
25199W        W91982  12.081  19.233   3.995
25200W        W91983  32.588  29.312  11.628
25201W        W91984  11.142  43.770  11.178
25202W        W91985  15.275  26.509   3.307
25203W        W91986  40.216  13.154   4.131
25204W        W91987  29.046  29.413  14.856
25205W        W91988   2.525  38.149   0.697
25206W        W91989  13.812   7.185  13.167
25207W        W91990  16.062   8.193  14.395
25208W        W91991  29.977   9.236   0.290
25209W        W91992  28.651  22.529  14.021
25210W        W91993   7.679  14.696  14.726
25211W        W91994   4.328  25.849  13.800
25212W        W91995  35.993  13.148   3.106
25213W        W91996  31.316   8.732   4.781
25214W        W91997  14.140  43.867  12.900
25215W        W91998  21.940  31.017  11.592
25216W        W91999  28.581   8.831  10.965
25217W        W92000  28.558  40.818   1.912
25218W        W92001   6.687  28.921  10.807
25219W        W92002  12.355  22.881  11.885
25220W        W92003   6.231  10.333   1.673
25221W        W92004  13.699  35.184  11.649
25222W        W92005  16.942   6.499   3.707
25223W        W92006  21.084  12.445   4.881
25224W        W92007  35.617  27.961   0.739
25225W        W92008  42.468  43.946  13.959
25226W        W92009  12.774  28.185   4.774
25227W        W92010  41.998  25.511   1.955
25228W        W92011  39.349  15.197  12.556
25229W        W92012   9.588   8.094  12.676
25230W        W92013   5.400  15.033  11.021
25231W        W92014  33.569  32.879   3.610
25232W        W92015  17.325  11.049   2.828
25233W        W92016  37.658  21.463   4.603
25234W        W92017   0.296  37.853   1.318
25235W        W92018   8.175  32.120  12.215
25236W        W92019  32.050  14.511   3.626
25237W        W92020  27.870  14.156  11.268
25238W        W92021  18.632  25.640   4.078
25239W        W92022  22.514   4.905  10.265
25240W        W92023  24.182  32.519  13.015
25241W        W92024  12.390  14.536   4.626
25242W        W92025   2.351  33.759  12.422
25243W        W92026  18.779   0.908   2.790
25244W        W92027  43.314  35.835  14.921
25245W        W92028  32.954  35.946  11.649
25246W        W92029  15.402  29.004   3.132
25247W        W92030   0.530  16.940   1.427
25248W        W92031  41.164   7.131  10.233
25249W        W92032  31.338   2.013  13.310
25250W        W92033  43.582  39.899   1.699
25251W        W92034   1.002  39.074  12.567
25252W        W92035  31.771  24.582   0.473
25253W        W92036  37.490  16.729  11.479
25254W        W92037   8.221  20.459   0.488
25255W        W92038  16.771  20.045  11.389
25256W        W92039   2.711  10.870   0.226
25257W        W92040  37.719  13.362  14.340
25258W        W92041  14.159   5.001   4.021
25259W        W92042  19.968  24.144  10.621
25260W        W92043  18.329   1.183   0.703
25261W        W92044  42.895  18.263   1.239
25262W        W92045  15.514  44.971   0.273
25263W        W92046  20.130  15.703  13.307
25264W        W92047  33.471  27.178  14.401
25265W        W92048   9.544  25.428  14.868
25266W        W92049   0.380  15.840  12.029
25267W        W92050   1.780  27.430  12.993
25268W        W92051  42.838  17.525   9.982
25269W        W92052   8.762  38.281   0.489
25270W        W92053   7.306  18.620   3.612
25271W        W92054  17.656  14.018  12.947
25272W        W92055   5.455  25.639   0.993
25273W        W92056  37.626  38.376  12.221
25274W        W92057  41.310   3.903  14.336
25275W        W92058   5.860  36.755   2.788
25276W        W92059  13.395  21.194   2.742
25277W        W92060   6.531   8.526  10.967
25278W        W92061  14.818  25.481   3.848
25279W        W92062   2.659  21.621   0.291
25280W        W92063  32.798  13.807  12.415
25281W        W92064  39.359  23.960   2.538
25282W        W92065  25.214   8.242   0.951
25283W        W92066  20.488  31.674   0.767
25284W        W92067  38.124  27.549  10.700
25285W        W92068   0.072  18.005   0.490
25286W        W92069  36.922  19.467   1.621
25287W        W92070   6.303  34.036  14.321
25288W        W92071  27.674  40.920   0.666
25289W        W92072  40.435  20.777   3.965
25290W        W92073   1.367  27.456  13.829
25291W        W92074  32.612  12.800   0.752
25292W        W92075  22.284  27.480   1.793
25293W        W92076  17.307  34.352  11.236
25294W        W92077   5.288   7.692  13.422
25295W        W92078  24.230   2.966   2.299
25296W        W92079  38.957  13.337   2.649
25297W        W92080  20.986  25.791   4.953
25298W        W92081  43.453  29.028   0.975
25299W        W92082   2.901  29.960   0.972
25300W        W92083  39.772  21.410  13.849
25301W        W92084  20.314  36.027   3.666
25302W        W92085  16.127  41.875  14.067
25303W        W92086  38.039  10.160   3.918
25304W        W92087  11.745   5.239   2.529
25305W        W92088  17.303  23.023   1.005
25306W        W92089  35.703  18.312   1.914
25307W        W92090  37.162   0.997  10.944
25308W        W92091   4.459  15.413   0.604
25309W        W92092   8.710  10.327  11.681
25310W        W92093  37.851  22.930   3.634
25311W        W92094  30.372  17.103  10.573
25312W        W92095  40.163  16.377   2.913
25313W        W92096   7.300  13.261  13.635
25314W        W92097   4.253   4.268   1.917
25315W        W92098  35.929  36.690  11.607
25316W        W92099  17.787  11.627  13.450
25317W        W92100  25.158   9.953   2.453
25318W        W92101  39.034  19.694   1.237
25319W        W92102   6.457  32.093  11.059
25320W        W92103  12.387  29.105  11.618
25321W        W92104  32.626  32.561   3.254
25322W        W92105  34.145  40.543  12.176
25323W        W92106  15.728  29.841  12.973
25324W        W92107  26.583   2.074   1.996
25325W        W92108  27.360  25.284   3.772
25326W        W92109  27.174  11.878   3.756
25327W        W92110  37.964  35.406  10.953
25328W        W92111  39.277   7.897  10.688
25329W        W92112   7.898  28.171   1.364
25330W        W92113   2.513  41.405  11.134
25331W        W92114  28.296  15.857  10.109
25332W        W92115  31.557  15.936   2.640
25333W        W92116  21.504  14.804   2.969
25334W        W92117   9.868   7.676   0.362
25335W        W92118   3.876   0.898  11.082
25336W        W92119  42.493  12.428   2.804
25337W        W92120  19.907  24.072  11.135
25338W        W92121  18.573  19.664   3.692
25339W        W92122  21.252   1.700  12.252
25340W        W92123  25.512  39.334   4.560
25341W        W92124  10.306  43.980   3.606
25342W        W92125  35.690  11.668   3.118
25343W        W92126  30.997  30.549  13.483
25344W        W92127  12.412  30.473   2.092
25345W        W92128  44.222  27.871  11.224
25346W        W92129  40.785  20.037   3.938
25347W        W92130  37.421  14.583  13.996
25348W        W92131  17.645  20.548   0.004
25349W        W92132  24.084  22.636   2.609
25350W        W92133  33.856  29.619  12.889
25351W        W92134   6.680  20.282  12.428
25352W        W92135   7.769  38.889   3.817
25353W        W92136  14.642  40.512  13.352
25354W        W92137  43.481  43.325   3.646
25355W        W92138  25.016  37.792  14.280
25356W        W92139  40.936  14.639   1.975
25357W        W92140   9.406  18.008   4.775
25358W        W92141  11.136  37.376  13.053
25359W        W92142  25.580  19.320   1.664
25360W        W92143  36.462   1.375   1.815
25361W        W92144   8.604  23.796  12.658
25362W        W92145  36.823  22.979  14.501
25363W        W92146  19.663  13.220   0.617
25364W        W92147  25.685  12.124  12.497
25365W        W92148  21.272  35.959  14.119
25366W        W92149   7.269   1.552   2.422
25367W        W92150   1.412  36.109   3.664
25368W        W92151  31.398  17.974   2.325
25369W        W92152  36.409  18.549  12.329
25370W        W92153  22.461  34.372   0.898
25371W        W92154   4.256   3.710  14.484
25372W        W92155  39.384  41.934  11.759
25373W        W92156   1.683   6.449  12.003
25374W        W92157  21.750  36.096  13.476
25375W        W92158   8.748  40.689  11.637
25376W        W92159  31.498  39.344   3.864
25377W        W92160  36.617   5.263   2.278
25378W        W92161   6.431  42.476  13.714
25379W        W92162  34.455  44.787  11.182
25380W        W92163  20.210  16.028   1.263
25381W        W92164  21.660   3.205  13.004
25382W        W92165   2.759  18.846  13.984
25383W        W92166  40.476  38.930   5.092
25384W        W92167  30.549  36.324  14.608
25385W        W92168  20.690  16.175   4.472
25386W        W92169  31.758   3.784   0.759
25387W        W92170  28.971  27.115   2.734
25388W        W92171  43.161  44.380   1.013
25389W        W92172  17.708  35.036  10.625
25390W        W92173  21.641   7.313   4.582
25391W        W92174  31.528  36.916   4.346
25392W        W92175   9.639  36.328   2.299
25393W        W92176  23.607  16.626  13.016
25394W        W92177  41.710   9.281   0.277
25395W        W92178  13.926  37.825   0.434
25396W        W92179  43.198  22.578  10.752
25397W        W92180  31.087  29.052   4.911
25398W        W92181  35.453  10.631   4.117
25399W        W92182  36.040  39.434   1.216
25400W        W92183  12.127  44.589   1.719
25401W        W92184  40.777  14.154   1.251
25402W        W92185  27.043  17.158  11.274
25403W        W92186  14.544  28.398  12.603
25404W        W92187   4.074   4.015  13.352
25405W        W92188  11.420  15.970  11.840
25406W        W92189  16.029  31.964   3.208
25407W        W92190  23.173  34.749   1.338
25408W        W92191  33.505  44.822   2.569
25409W        W92192   2.804  41.543  12.007
25410W        W92193   3.767  22.168   2.341
25411W        W92194  34.716   8.661   1.575
25412W        W92195  18.972  23.651  14.475
25413W        W92196   4.156   1.537   0.339
25414W        W92197  42.477  11.755   5.015
25415W        W92198  31.826  17.168  14.127
25416W        W92199  23.487  27.056   2.684
25417W        W92200  30.590  24.114  14.731
25418W        W92201  29.864  20.150   9.681
25419W        W92202  43.959  13.514   9.965
25420W        W92203   4.820  41.916   4.581
25421W        W92204  38.601  26.224  13.444
25422W        W92205  34.532  38.540  13.432
25423W        W92206  36.157  22.003  12.705
25424W        W92207  32.727  29.948  11.131
25425W        W92208  24.132  31.055  10.627
25426W        W92209  32.104  43.426   1.755
25427W        W92210  12.653  30.474  11.526
25428W        W92211  39.782  29.169   2.563
25429W        W92212  38.757   0.229  14.065
25430W        W92213   1.887  15.675   1.279
25431W        W92214  44.359   0.193  11.289
25432W        W92215   1.947   4.053   2.383
25433W        W92216  31.228  31.044   4.837
25434W        W92217   3.343  19.859  14.432
25435W        W92218  36.284  33.115   3.192
25436W        W92219  32.087   4.884   1.540
25437W        W92220  43.482  28.622   1.309
25438W        W92221  18.979  41.207  12.951
25439W        W92222  12.896  37.429   3.190
25440W        W92223  11.289  12.323  12.575
25441W        W92224   3.718  24.924   2.306
25442W        W92225  25.536   7.782   1.767
25443W        W92226   6.665  35.560   3.574
25444W        W92227  34.029  18.631   4.139
25445W        W92228   0.902  32.355  12.846
25446W        W92229  31.676   4.194   3.870
25447W        W92230  35.569  43.394   4.243
25448W        W92231   4.553  43.727   3.862
25449W        W92232  20.142  19.617  13.799
25450W        W92233  29.927   9.825  14.452
25451W        W92234  44.761  43.039  10.719
25452W        W92235  25.855  15.543   4.687
25453W        W92236  22.126   4.754  10.593
25454W        W92237  12.570   0.003  14.463
25455W        W92238   2.515   6.736  13.455
25456W        W92239  37.745  43.703  14.219
25457W        W92240  29.265  40.285   1.813
25458W        W92241  22.604  31.312   3.544
25459W        W92242  32.499  14.779  12.041
25460W        W92243  10.817  18.890   4.542
25461W        W92244   6.399  34.524   1.503
25462W        W92245  31.672  35.929   2.982
25463W        W92246   1.374  16.218  14.542
25464W        W92247  36.688  11.643   3.191
25465W        W92248  10.274  19.620  13.356
25466W        W92249  19.128  31.591   3.779
25467W        W92250   9.240  16.332   1.358
25468W        W92251   3.346  33.350  11.595
25469W        W92252   0.331  25.093   3.269
25470W        W92253   1.287  19.533  13.172
25471W        W92254  14.392   4.847  10.295
25472W        W92255  32.115  34.767   2.741
25473W        W92256   8.133  10.321   4.815
25474W        W92257   5.353  12.095   0.903
25475W        W92258  20.783   5.786   0.725
25476W        W92259  34.575   9.463  13.836
25477W        W92260  17.185   0.472  10.984
25478W        W92261  33.197  15.109  12.535
25479W        W92262  40.735  44.984   0.367
25480W        W92263  42.557  15.379   1.459
25481W        W92264  30.762   2.788   1.807
25482W        W92265   0.756   3.985   0.485
25483W        W92266  13.605  21.513  11.070
25484W        W92267   9.625   3.433   3.704
25485W        W92268   5.948  14.167   2.139
25486W        W92269  35.542   2.032   1.703
25487W        W92270  33.098  18.184   4.171
25488W        W92271  26.286  14.772   3.511
25489W        W92272  33.949  22.605  10.180
25490W        W92273  30.500  32.290   3.708
25491W        W92274  40.545  39.548   2.339
25492W        W92275  37.342  14.196  14.781
25493W        W92276  15.054   7.534   0.703
25494W        W92277   6.736  44.264   0.723
25495W        W92278  34.925  25.142   1.707
25496W        W92279  41.809   4.135   0.401
25497W        W92280   7.416  21.228   2.593
25498W        W92281   9.244   5.506   0.425
25499W        W92282  20.790   3.928  12.118
25500W        W92283  12.562  40.744  11.657
25501W        W92284  44.953  41.155   1.809
25502W        W92285   6.316  21.125   3.614
25503W        W92286  20.203   1.516   2.290
25504W        W92287   9.120  38.587   3.462
25505W        W92288   7.237  27.014  11.506
25506W        W92289  20.896  30.432   1.714
25507W        W92290  31.907  14.179   2.182
25508W        W92291  22.980  20.526   4.769
25509W        W92292  22.134  24.228   1.356
25510W        W92293  37.763  17.231  10.758
25511W        W92294  30.629  14.805   4.068
25512W        W92295  33.444  35.886   3.717
25513W        W92296   8.890  41.312   0.894
25514W        W92297  38.239  27.037   3.709
25515W        W92298  33.987  30.498  11.486
25516W        W92299  24.611  25.784  14.437
25517W        W92300  25.289   8.141   4.831
25518W        W92301  25.536  19.963  12.495
25519W        W92302  31.185   0.290   3.945
25520W        W92303   9.555  12.211  12.036
25521W        W92304  41.825  35.221   1.901
25522W        W92305  35.802  23.125  13.202
25523W        W92306  19.961  23.101  14.014
25524W        W92307  38.939  13.061   2.163
25525W        W92308  20.457   8.585   3.515
25526W        W92309  41.798  29.203   2.946
25527W        W92310  15.114  37.735  12.483
25528W        W92311  22.144  25.671   2.520
25529W        W92312  20.086   8.883   1.654
25530W        W92313  19.303  25.762  12.715
25531W        W92314  39.866  35.487   4.276
25532W        W92315   0.442   9.341   4.547
25533W        W92316  33.416  43.485   0.387
25534W        W92317  35.102  17.973   4.149
25535W        W92318  23.369  29.659  14.516
25536W        W92319  20.770  31.034   3.135
25537W        W92320  29.742  41.879   3.463
25538W        W92321   7.141  28.050   1.832
25539W        W92322  23.981  23.179  13.837
25540W        W92323  30.374  36.662  11.784
25541W        W92324  25.757   3.026  13.268
25542W        W92325  35.947  21.310   4.149
25543W        W92326   5.496  15.816  14.532
25544W        W92327   7.980  16.098  10.432
25545W        W92328   3.098  24.052  12.150
25546W        W92329  43.917  12.940   3.103
25547W        W92330  29.073  27.205   4.674
25548W        W92331  13.148  18.085  14.388
25549W        W92332  24.226   2.840  13.012
25550W        W92333   3.519   0.152  14.047
25551W        W92334   5.216  13.754   2.726
25552W        W92335  44.875   7.356  14.797
25553W        W92336   9.919  29.573  13.576
25554W        W92337  13.785  20.822   2.423
25555W        W92338  17.741  12.217  10.761
25556W        W92339   4.686  22.059  13.201
25557W        W92340  25.029  15.572  13.100
25558W        W92341  31.262  21.682  10.925
25559W        W92342  12.852   4.223  14.014
25560W        W92343  14.045  10.389  13.042
25561W        W92344   5.895  27.935  14.419
25562W        W92345  32.813   2.841  10.719
25563W        W92346  13.208  35.120  12.600
25564W        W92347  42.159  35.444   1.392
25565W        W92348   1.363   5.338   0.301
25566W        W92349  37.350   7.867  14.883
25567W        W92350  28.025   6.089   4.290
25568W        W92351  20.702  42.000  11.731
25569W        W92352  31.829  32.948  13.854
25570W        W92353   3.308  36.669   0.314
25571W        W92354  31.608  16.819   2.626
25572W        W92355  29.992  34.279   0.181
25573W        W92356  40.490  43.405   4.671
25574W        W92357  32.715   2.329  13.391
25575W        W92358  14.875  27.429   4.538
25576W        W92359  35.360  36.376   2.936
25577W        W92360  41.689  16.427  14.864
25578W        W92361  19.998  22.108  12.996
25579W        W92362   0.361  42.532   1.408
25580W        W92363  26.466  40.334  13.088
25581W        W92364  33.558  20.719   1.876
25582W        W92365  16.513  41.256   1.345
25583W        W92366  33.445  22.506  10.251
25584W        W92367  17.834  17.065  14.017
25585W        W92368   1.734  31.799  13.091
25586W        W92369  39.564  43.502   1.320
25587W        W92370  30.928  12.561  14.910
25588W        W92371  16.346  19.279   2.599
25589W        W92372  23.150   2.416  11.917
25590W        W92373  26.699   0.881   3.374
25591W        W92374   1.529  42.920   3.339
25592W        W92375   7.447   5.617  11.555
25593W        W92376  18.261  25.608  13.615
25594W        W92377   8.800  23.519  11.006
25595W        W92378  11.095   5.968   4.956
25596W        W92379  17.042   9.966   2.795
25597W        W92380  18.606  32.315  14.233
25598W        W92381  38.071  43.412  12.520
25599W        W92382   0.533  38.089   0.714
25600W        W92383  19.661  15.020   1.062
25601W        W92384  39.535  15.268   3.659
25602W        W92385  33.576  36.658  14.155
25603W        W92386  39.913  44.174   3.986
25604W        W92387  19.046  18.754   1.453
25605W        W92388  41.460   0.024   1.959
25606W        W92389  20.823   0.361  12.982
25607W        W92390  22.142  15.192  14.931
25608W        W92391   3.695  11.834   1.286
25609W        W92392   8.477  22.123  14.850
25610W        W92393   4.354   8.199  13.523
25611W        W92394   0.908  22.916   2.395
25612W        W92395  13.985  26.022  13.178
25613W        W92396  19.446  17.792  11.362
25614W        W92397  33.066  34.407   0.422
25615W        W92398  12.044  43.950  10.802
25616W        W92399  24.577  37.063   4.719
25617W        W92400  43.472   9.296   4.872
25618W        W92401  44.429  33.566   3.215
25619W        W92402  42.345  27.060   3.071
25620W        W92403   7.403  38.358  13.778
25621W        W92404  12.651  17.254  13.550
25622W        W92405   2.367  30.128   3.556
25623W        W92406  25.166  36.512  10.409
25624W        W92407  11.223   9.936   0.045
25625W        W92408   6.724  34.051  10.660
25626W        W92409  44.935   3.370   0.039
25627W        W92410   9.395  12.335  14.957
25628W        W92411  23.327   8.165   2.575
25629W        W92412  29.049  40.703   4.645
25630W        W92413  27.185  20.068  12.410
25631W        W92414  15.395  15.670  14.695
25632W        W92415  38.434  40.088   2.377
25633W        W92416  32.017  37.095  14.542
25634W        W92417  21.056  18.640   1.338
25635W        W92418  31.547  14.644   3.700
25636W        W92419  12.118   8.640   0.916
25637W        W92420  34.162  29.204   4.145
25638W        W92421  41.023  17.080  11.958
25639W        W92422   1.502  18.732   1.444
25640W        W92423  31.550  34.940  14.861
25641W        W92424  13.018   5.898  14.620
25642W        W92425  20.368   1.988  12.031
25643W        W92426  20.136  35.848   3.205
25644W        W92427  42.497  44.847   1.957
25645W        W92428  37.048  25.686  14.843
25646W        W92429  36.614  26.579   4.186
25647W        W92430  17.521  27.020   3.766
25648W        W92431  28.502   1.315  14.339
25649W        W92432  20.252  22.005   3.575
25650W        W92433  14.299  34.497  12.066
25651W        W92434  37.519   6.261  11.088
25652W        W92435  13.958  33.846   2.069
25653W        W92436  24.997   4.818  13.869
25654W        W92437   7.474  30.060  11.168
25655W        W92438   5.255  38.302   4.189
25656W        W92439  44.000  21.649   1.952
25657W        W92440   5.096  24.657   3.231
25658W        W92441  31.464  42.572  13.860
25659W        W92442  11.062   7.810   0.613
25660W        W92443  26.544  23.760   2.929
25661W        W92444  39.134  28.525   2.852
25662W        W92445   6.900  25.491  13.438
25663W        W92446  42.074  18.696  14.891
25664W        W92447   4.201  21.842  13.873
25665W        W92448  39.305  36.409  14.630
25666W        W92449   2.713  11.257   3.599
25667W        W92450   0.255  36.437  14.432
25668W        W92451  16.315  14.333  12.897
25669W        W92452   0.753  26.742  12.588
25670W        W92453  39.043  43.074   1.599
25671W        W92454  38.430   2.449  10.662
25672W        W92455  15.363  30.630  11.197
25673W        W92456  30.888  12.868  13.004
25674W        W92457  11.783  14.176  11.429
25675W        W92458  11.380  33.491   0.405
25676W        W92459   9.729  23.020  10.403
25677W        W92460  25.047  31.452   4.148
25678W        W92461  13.469  32.992  12.496
25679W        W92462  28.458   7.652   0.513
25680W        W92463  43.637   7.255  11.141
25681W        W92464  39.688  13.747   9.773
25682W        W92465  24.517  27.616   2.971
25683W        W92466  14.644  11.491   0.072
25684W        W92467   5.669  15.120   4.227
25685W        W92468   9.238  11.109  11.435
25686W        W92469  10.837   5.354   0.020
25687W        W92470  23.581  23.903  11.523
25688W        W92471  41.328  31.402   3.929
25689W        W92472  40.931  37.362  11.216
25690W        W92473  14.571  27.044  12.969
25691W        W92474   5.435  20.547   0.221
25692W        W92475  36.462  30.535   4.160
25693W        W92476   4.628  14.329   1.314
25694W        W92477  14.624  31.567  10.538
25695W        W92478  17.415  26.552   2.752
25696W        W92479  27.917  21.669   4.260
25697W        W92480   5.562  35.285  13.895
25698W        W92481  40.681  22.713  10.552
25699W        W92482  14.877  11.304  12.554
25700W        W92483  36.068  36.590  12.520
25701W        W92484  10.131  35.568  14.864
25702W        W92485  19.137  21.071  14.939
25703W        W92486   4.960  36.884  11.599
25704W        W92487   1.345  41.535   4.195
25705W        W92488  21.758  18.065   3.768
25706W        W92489  34.896   3.130  14.997
25707W        W92490  23.934  23.991   5.011
25708W        W92491   2.430  14.796   1.335
25709W        W92492   2.119  31.831   3.979
25710W        W92493  20.281  18.451   3.204
25711W        W92494  35.252  21.601  10.314
25712W        W92495  30.082  38.005  11.692
25713W        W92496  32.952  42.253  11.401
25714W        W92497  31.779  19.838   4.170
25715W        W92498  35.990  35.419  11.233
25716W        W92499  10.863  24.104   4.092
25717W        W92500  34.896  27.457  13.980
25718W        W92501  18.134  41.754  12.915
25719W        W92502  38.863  24.462   0.444
25720W        W92503  38.855  32.687   3.319
25721W        W92504   1.144  15.617   3.646
25722W        W92505  22.035  38.394  10.714
25723W        W92506   3.300  35.995   3.610
25724W        W92507  12.698   8.877  13.730
25725W        W92508  28.195  30.886  13.737
25726W        W92509  37.686  27.708  10.113
25727W        W92510  13.690  31.151  13.661
25728W        W92511   9.165  10.677  14.448
25729W        W92512   7.981   3.290   4.667
25730W        W92513  42.359   0.449  10.769
25731W        W92514  26.587  11.357   4.190
25732W        W92515  23.498  34.450  13.465
25733W        W92516  15.607  11.450  14.870
25734W        W92517  31.535  10.204   1.857
25735W        W92518  39.112   9.043   3.317
25736W        W92519  39.448  44.983   0.232
25737W        W92520  37.366  39.586   3.865
25738W        W92521  38.008  30.458   4.703
25739W        W92522  28.236  33.273  11.508
25740W        W92523  13.656  33.427  12.303
25741W        W92524  12.335   0.544   1.381
25742W        W92525   5.486  17.867  12.584
25743W        W92526  34.401  26.005  13.078
25744W        W92527  16.730  26.296  14.401
25745W        W92528   6.244   4.782  13.966
25746W        W92529  20.524  12.197   4.729
25747W        W92530  37.902  26.004   0.043
25748W        W92531  15.845  22.631  10.736
25749W        W92532  35.202  21.171  14.542
25750W        W92533   7.978  30.521   3.966
25751W        W92534  31.773   3.289  14.446
25752W        W92535  28.448  21.957   4.521
25753W        W92536  38.098   5.256   4.491
25754W        W92537  35.404   3.422  10.638
25755W        W92538   1.280   7.061  12.598
25756W        W92539  39.024  18.030   1.190
25757W        W92540  33.805  44.028  13.548
25758W        W92541  23.486  24.254   4.090
25759W        W92542  30.149   8.096   4.151
25760W        W92543  11.745  42.334  11.988
25761W        W92544  23.464  10.390   2.789
25762W        W92545   1.706   8.851   0.410
25763W        W92546  29.041   1.792  11.198
25764W        W92547  23.746  29.579  14.893
25765W        W92548  35.359  42.451  12.768
25766W        W92549  32.551  22.794   4.098
25767W        W92550   8.132  33.916  11.422
25768W        W92551  20.165  17.422   0.868
25769W        W92552  23.034  11.882  10.715
25770W        W92553   0.912   3.256   3.347
25771W        W92554  29.631   8.549   2.599
25772W        W92555  35.610  16.227  11.190
25773W        W92556  37.313  44.048  14.166
25774W        W92557  24.133  43.288   5.251
25775W        W92558  32.989  19.839  12.156
25776W        W92559  18.506  39.314  11.011
25777W        W92560  22.138  27.707   3.635
25778W        W92561  32.457   4.631  14.803
25779W        W92562  19.703  20.050  14.415
25780W        W92563  14.438  34.817  14.836
25781W        W92564   4.672  23.766   4.046
25782W        W92565   5.936  39.023   0.348
25783W        W92566  20.550  21.587  11.416
25784W        W92567  30.944   1.376   0.878
25785W        W92568  31.107  32.330   5.000
25786W        W92569  19.080  35.528   4.842
25787W        W92570  32.235   3.760  11.894
25788W        W92571  33.584  34.200  13.747
25789W        W92572  17.058  29.030  13.034
25790W        W92573   7.790  24.204   2.693
25791W        W92574  12.311  26.694   2.357
25792W        W92575  37.815  36.972   0.029
25793W        W92576  22.034  30.942  13.380
25794W        W92577  43.440  44.033   3.235
25795W        W92578  32.743  34.290   1.727
25796W        W92579  20.196  28.358   3.097
25797W        W92580  18.765  34.452   0.654
25798W        W92581  13.384   6.981  12.055
25799W        W92582  27.606  42.493  10.679
25800W        W92583  20.553   6.796   2.817
25801W        W92584  33.238  44.527   3.686
25802W        W92585   3.717  24.645   2.794
25803W        W92586  25.513  15.024  14.123
25804W        W92587  22.935  37.519  10.296
25805W        W92588   5.933  13.675   1.372
25806W        W92589  21.709  14.596   1.828
25807W        W92590  28.201  27.603  14.351
25808W        W92591   9.734  44.648  13.067
25809W        W92592  12.272  18.550  13.066
25810W        W92593  13.450  43.301   2.251
25811W        W92594  38.075  20.056   4.818
25812W        W92595   2.486   3.819  10.651
25813W        W92596  10.718  28.549   1.313
25814W        W92597  18.644  18.161  14.756
25815W        W92598  18.544  21.523   4.710
25816W        W92599  27.287  28.898   4.138
25817W        W92600  24.263  21.478   3.621
25818W        W92601  19.184   3.692  12.978
25819W        W92602  22.692  15.003   3.689
25820W        W92603  26.590   0.516   2.912
25821W        W92604  20.461  41.803   1.168
25822W        W92605  44.517   4.858   4.562
25823W        W92606   7.649  19.649  13.363
25824W        W92607  31.405  30.867   3.999
25825W        W92608  35.403  17.151  13.893
25826W        W92609  39.326  10.981  14.046
25827W        W92610  14.789   8.687   3.739
25828W        W92611  26.479  10.753  11.137
25829W        W92612  16.192   3.891  11.194
25830W        W92613  22.488  14.168   1.205
25831W        W92614  10.298   4.044  13.128
25832W        W92615  43.610  40.008  12.615
25833W        W92616  29.388  30.271  11.122
25834W        W92617  29.498  42.278  12.870
25835W        W92618  26.105  34.840   1.358
25836W        W92619  42.024   0.382   2.825
25837W        W92620  21.173   7.308   1.211
25838W        W92621  31.104  41.303   2.244
25839W        W92622  26.226  22.032  11.912
25840W        W92623  33.388  28.652   4.027
25841W        W92624  34.343  41.535   2.830
25842W        W92625  20.026  36.924  13.914
25843W        W92626  30.912  20.072   0.918
25844W        W92627  34.401   7.797   2.704
25845W        W92628  37.565  41.889  13.782
25846W        W92629  15.627  19.688  11.020
25847W        W92630  10.729  15.339   0.370
25848W        W92631   7.872  19.668  10.214
25849W        W92632  36.543   4.225   4.118
25850W        W92633  10.477   1.384   1.370
25851W        W92634  39.089  19.524   4.080
25852W        W92635  16.624  23.672  13.382
25853W        W92636   0.306  29.110   0.917
25854W        W92637  39.895  35.389   0.855
25855W        W92638  38.327  33.993  13.358
25856W        W92639  24.923  23.178   4.546
25857W        W92640  40.374  30.606  10.563
25858W        W92641   0.699  24.839  13.535
25859W        W92642  41.522  10.323   1.649
25860W        W92643   4.318   0.956  11.366
25861W        W92644  31.158  25.511  11.023
25862W        W92645  23.520   9.574  14.229
25863W        W92646   0.175  24.595   4.050
25864W        W92647  30.302   4.453  11.061
25865W        W92648  10.870  16.076   2.149
25866W        W92649   6.132  28.918   0.943
25867W        W92650   1.879   5.234  13.970
25868W        W92651  20.480  26.988   1.207
25869W        W92652  29.428  33.048   1.365
25870W        W92653  15.606  13.710   2.326
25871W        W92654   4.667  12.196  13.328
25872W        W92655  25.115  28.753  13.975
25873W        W92656  25.920  22.568  13.507
25874W        W92657  17.986  26.145   3.330
25875W        W92658  18.687  25.659  10.891
25876W        W92659  40.934  33.451  13.978
25877W        W92660  23.331  30.522  10.800
25878W        W92661  10.315   6.299  12.464
25879W        W92662  11.109  23.627  12.362
25880W        W92663  34.821  12.849   1.240
25881W        W92664   3.793   2.519  10.801
25882W        W92665   6.787   1.384   3.207
25883W        W92666  39.473   0.054  12.104
25884W        W92667  20.061  43.894  11.245
25885W        W92668   7.213   2.964  14.499
25886W        W92669  30.935   8.491   1.272
25887W        W92670   4.525  27.422  13.605
25888W        W92671  21.520  44.069  10.052
25889W        W92672  18.313  37.495   0.197
25890W        W92673  42.600  41.368   3.658
25891W        W92674  33.533  10.769  14.810
25892W        W92675  34.284  26.027  11.092
25893W        W92676  18.821  38.456  12.533
25894W        W92677  38.418  41.992   0.954
25895W        W92678  44.875  34.363  14.351
25896W        W92679  28.284  25.695   1.673
25897W        W92680  21.083  12.098   1.081
25898W        W92681  12.667   9.343  14.007
25899W        W92682  14.748   1.488  14.836
25900W        W92683  40.035   5.855  12.435
25901W        W92684  22.505   7.397  14.856
25902W        W92685  29.234  42.243  11.144
25903W        W92686  40.429  34.983  14.432
25904W        W92687  10.780   3.273  13.303
25905W        W92688  11.643   7.194   0.515
25906W        W92689   7.927  43.989   3.150
25907W        W92690  12.776  39.239   1.230
25908W        W92691  22.188  31.448   1.410
25909W        W92692  12.026  31.443  14.990
25910W        W92693  28.081  16.809   0.152
25911W        W92694   9.692  25.962  11.225
25912W        W92695  17.372   4.748  13.251
25913W        W92696  30.524  40.838  12.649
25914W        W92697  36.454  41.102   3.310
25915W        W92698  19.446  39.658   4.039
25916W        W92699  24.547  20.198  14.423
25917W        W92700  39.934  18.763  11.970
25918W        W92701  24.578  10.161  12.019
25919W        W92702  37.084  18.300  13.489
25920W        W92703   2.524  19.064   3.643
25921W        W92704  27.140  32.140   3.384
25922W        W92705  16.430  12.218  14.789
25923W        W92706  23.896  28.377   1.012
25924W        W92707  13.955  11.816   1.896
25925W        W92708   1.843   0.126   4.434
25926W        W92709  17.957  24.036  12.634
25927W        W92710  13.735  15.553  14.920
25928W        W92711  11.202  17.001   2.685
25929W        W92712  39.758  28.956  13.052
25930W        W92713  19.371  18.640  14.475
25931W        W92714   9.163  23.962  12.083
25932W        W92715  35.096  32.412   3.912
25933W        W92716  42.370  12.755  14.208
25934W        W92717   6.283  15.322  10.401
25935W        W92718  13.500  11.024  12.890
25936W        W92719  19.595  44.441   5.082
25937W        W92720  31.292   1.906   1.610
25938W        W92721  37.526  33.458   2.804
25939W        W92722   3.158  30.484  12.871
25940W        W92723  11.421  26.956  10.859
25941W        W92724  23.253  17.271  13.160
25942W        W92725   6.974   0.542   3.658
25943W        W92726  11.412   2.579   0.779
25944W        W92727   7.700  20.991   3.334
25945W        W92728   8.163  22.376  10.936
25946W        W92729  31.187  31.527  10.820
25947W        W92730  42.621  25.970  14.833
25948W        W92731  29.288  11.521   3.666
25949W        W92732  10.877  21.740  10.746
25950W        W92733  35.517  43.380   3.225
25951W        W92734  15.632   3.788   2.294
25952W        W92735  35.323  38.569  11.722
25953W        W92736  29.514  22.373   0.412
25954W        W92737  27.674   5.360   1.008
25955W        W92738  26.358  12.188   0.278
25956W        W92739  17.610   8.313  13.579
25957W        W92740  19.645  36.535  14.776
25958W        W92741  19.159  10.630   0.432
25959W        W92742   9.006  41.995  14.254
25960W        W92743  32.069  39.787  12.342
25961W        W92744   2.331   8.383   0.732
25962W        W92745  23.208   0.130  13.318
25963W        W92746  41.361   4.456  12.211
25964W        W92747  35.815  13.849  10.792
25965W        W92748  10.899  17.072   0.813
25966W        W92749  22.141  14.201  12.644
25967W        W92750  35.054   2.715   0.963
25968W        W92751  21.889   4.572  12.858
25969W        W92752  11.621  44.472  10.291
25970W        W92753  37.294   1.576  14.388
25971W        W92754  16.830  33.144   4.865
25972W        W92755  33.188  36.841   1.613
25973W        W92756  17.379   1.368  12.190
25974W        W92757  11.288  35.068  10.927
25975W        W92758  20.237  13.709   1.287
25976W        W92759   3.251  12.918   1.905
25977W        W92760  11.149  40.062   4.603
25978W        W92761  35.344  34.600   0.433
25979W        W92762  27.639  21.209   4.585
25980W        W92763  39.698   8.881  10.683
25981W        W92764  28.831  11.788  14.523
25982W        W92765  24.442   2.798   1.841
25983W        W92766  31.284  26.917   0.313
25984W        W92767  25.045  34.170   0.299
25985W        W92768  19.440   6.602  14.070
25986W        W92769   3.930  40.348  13.367
25987W        W92770  35.485  36.540  13.318
25988W        W92771  11.277   0.797   2.990
25989W        W92772  40.902   3.130   5.048
25990W        W92773  16.182  34.067  11.206
25991W        W92774  25.378  30.045   0.814
25992W        W92775  18.428  40.754   2.712
25993W        W92776   2.704  41.435   1.978
25994W        W92777   5.993  30.077  12.505
25995W        W92778  21.797  23.898   9.883
25996W        W92779  43.332  23.079   2.706
25997W        W92780   7.453  33.177  13.781
25998W        W92781   0.929  30.067   4.317
25999W        W92782  20.602  12.828   4.151
26000W        W92783  25.129  29.531   0.756
26001W        W92784  33.560   5.137   3.651
26002W        W92785  18.302   6.341  12.847
26003W        W92786  12.191  32.462   3.756
26004W        W92787  31.297  21.417  12.799
26005W        W92788  20.576  18.654  10.736
26006W        W92789  10.751  43.932  11.459
26007W        W92790  15.712  10.642  13.507
26008W        W92791  20.451   1.699   4.123
26009W        W92792  16.486  43.726  12.949
26010W        W92793  13.793  43.402   3.861
26011W        W92794  19.232   5.904   3.682
26012W        W92795  37.966  12.520  11.642
26013W        W92796  14.930   6.990  14.895
26014W        W92797  30.973  35.556  11.134
26015W        W92798  20.350  40.712   3.224
26016W        W92799  38.980  35.873   0.952
26017W        W92800  22.374  27.738  10.940
26018W        W92801  34.999  12.602   0.384
26019W        W92802  14.670  20.672  11.407
26020W        W92803  16.904  32.109   4.170
26021W        W92804   5.478  22.176  11.445
26022W        W92805   1.383   0.592  14.729
26023W        W92806   8.396  21.139   4.672
26024W        W92807   7.215  32.369   2.755
26025W        W92808  27.536  26.378   0.464
26026W        W92809  38.042  43.240   4.781
26027W        W92810  28.968  20.190   1.450
26028W        W92811   1.102  38.219  11.123
26029W        W92812   0.885  13.852  13.396
26030W        W92813  37.434  36.664   1.867
26031W        W92814  29.090  26.663  11.953
26032W        W92815  17.140  34.669  10.888
26033W        W92816  15.714  28.097   1.886
26034W        W92817  23.660  33.139  11.079
26035W        W92818  13.325  30.635   3.574
26036W        W92819  26.087   5.073   0.444
26037W        W92820  39.238   1.404  13.595
26038W        W92821   0.939   4.365   4.899
26039W        W92822  21.946  21.802  10.885
26040W        W92823  36.899  39.373   3.803
26041W        W92824  23.975  15.865  10.125
26042W        W92825  16.989  37.429  14.323
26043W        W92826  19.041  19.022  11.872
26044W        W92827   3.786  35.447   0.527
26045W        W92828  11.287   6.397   1.971
26046W        W92829  17.544  12.026   1.871
26047W        W92830  12.120  31.509  13.812
26048W        W92831  14.266  40.735   1.860
26049W        W92832  16.780   6.003   2.003
26050W        W92833  24.963  36.546  12.077
26051W        W92834  10.428   5.372  12.420
26052W        W92835  12.262   2.783  14.397
26053W        W92836  36.715  33.562   4.622
26054W        W92837  31.223  35.851   2.690
26055W        W92838  35.978  38.911  11.461
26056W        W92839  15.657  29.572   0.736
26057W        W92840   9.634  27.182  11.360
26058W        W92841  26.783  22.769   2.023
26059W        W92842  25.180  41.305   1.393
26060W        W92843  37.571  15.508  10.056
26061W        W92844  28.578  12.357   0.028
26062W        W92845   5.876  23.818  11.638
26063W        W92846   9.225  23.384   1.350
26064W        W92847  43.881  44.985   3.910
26065W        W92848   2.387  14.090   2.858
26066W        W92849  22.066  23.163   2.272
26067W        W92850  38.421  34.308   3.419
26068W        W92851  14.533   8.114  10.882
26069W        W92852  12.613   0.252  11.594
26070W        W92853  29.049  34.080  10.736
26071W        W92854  20.087  21.202   4.074
26072W        W92855  11.601   9.427   5.665
26073W        W92856  18.169  20.034   3.827
26074W        W92857  43.497   1.045   2.195
26075W        W92858   8.161  12.073  11.695
26076W        W92859  23.831  40.114   0.193
26077W        W92860   6.813  20.977   3.853
26078W        W92861  43.025  17.321   0.809
26079W        W92862  35.338  18.043  12.879
26080W        W92863   0.724  34.927   4.529
26081W        W92864  24.588  29.976   3.710
26082W        W92865  37.762  11.674   1.864
26083W        W92866   4.478  42.012   1.376
26084W        W92867  22.408  21.711  11.146
26085W        W92868  38.874  21.168   4.941
26086W        W92869  16.894  22.585   0.386
26087W        W92870  10.492   6.099  13.763
26088W        W92871  32.426   0.442   3.246
26089W        W92872  35.141   0.385  13.892
26090W        W92873   8.352   7.298   2.325
26091W        W92874   2.302   8.270  13.289
26092W        W92875  10.526  13.783   3.553
26093W        W92876  43.061  10.142   9.758
26094W        W92877  44.331  11.123   0.351
26095W        W92878  37.944  15.574   4.687
26096W        W92879  25.524  17.147  11.498
26097W        W92880  33.950   0.852  10.777
26098W        W92881   3.916  19.546   2.672
26099W        W92882   3.616   1.901   0.667
26100W        W92883  11.447  39.660   1.060
26101W        W92884  14.162  38.284   1.779
26102W        W92885  13.795  21.034  11.941
26103W        W92886  35.156  22.222  11.455
26104W        W92887  20.930  17.737   4.906
26105W        W92888  22.052  32.408   1.541
26106W        W92889   2.849  22.691  14.843
26107W        W92890  10.802  11.600  13.442
26108W        W92891  34.669   8.083  14.205
26109W        W92892  18.715  18.384   3.876
26110W        W92893  22.577  16.388  13.950
26111W        W92894  27.337  23.469   3.279
26112W        W92895  38.444  27.905   2.558
26113W        W92896  16.751   4.072  12.015
26114W        W92897  29.173  15.084  11.980
26115W        W92898  20.527  38.429  13.347
26116W        W92899  22.728  27.737  12.373
26117W        W92900  31.959  12.218  11.579
26118W        W92901  39.020   6.361  12.849
26119W        W92902  31.727   6.883   5.589
26120W        W92903  19.206  17.325  14.272
26121W        W92904  16.379   5.157   1.246
26122W        W92905  41.004  34.126   2.213
26123W        W92906  42.936  31.435  10.775
26124W        W92907  24.749   6.524  12.393
26125W        W92908  22.663  38.906   1.849
26126W        W92909  36.537   8.036   4.573
26127W        W92910  27.383   9.152  13.920
26128W        W92911  40.394   4.400   0.884
26129W        W92912  44.538  29.587  14.485
26130W        W92913  36.119   6.861   1.292
26131W        W92914  20.963  10.645  10.686
26132W        W92915  30.112  38.404  13.457
26133W        W92916  43.076  22.174  14.909
26134W        W92917  41.416  15.812  14.143
26135W        W92918   7.195  35.532   2.833
26136W        W92919  35.158   8.994   4.942
26137W        W92920   5.927  31.129  12.419
26138W        W92921   8.739  21.055  12.873
26139W        W92922  25.526  33.562  10.734
26140W        W92923  18.487  10.361  13.887
26141W        W92924  29.094  34.670   1.836
26142W        W92925  11.711  13.498   1.456
26143W        W92926  22.932   8.790   1.805
26144W        W92927   8.866  20.521  12.819
26145W        W92928  29.019   3.615   0.798
26146W        W92929   6.098  21.985   1.190
26147W        W92930  15.081  38.479   2.277
26148W        W92931  10.154  36.484   0.028
26149W        W92932   7.525  32.532   1.799
26150W        W92933  42.085  28.199  12.497
26151W        W92934  35.632  12.308  11.169
26152W        W92935  34.220  27.743  12.490
26153W        W92936  23.625  41.101   4.476
26154W        W92937  43.605   3.473  10.645
26155W        W92938  12.427  29.586   2.283
26156W        W92939   8.157   1.105   3.364
26157W        W92940  12.726  31.384   4.129
26158W        W92941  29.478  19.341   4.788
26159W        W92942  38.507  26.519  12.836
26160W        W92943  18.268  19.952  13.393
26161W        W92944  24.628  23.043   3.621
26162W        W92945  31.061  35.095  11.969
26163W        W92946  39.393  26.529   3.678
26164W        W92947  17.309   3.292  12.978
26165W        W92948  31.142  38.994   4.559
26166W        W92949  34.522  23.176  13.811
26167W        W92950  21.637  20.723   4.352
26168W        W92951  24.105   4.347   4.721
26169W        W92952  25.450   9.208  10.632
26170W        W92953  18.026   1.415   3.523
26171W        W92954  21.186   8.242  11.607
26172W        W92955  10.853  34.408  14.336
26173W        W92956  26.546  40.095   3.269
26174W        W92957  41.684  20.762  13.957
26175W        W92958  22.283  42.938   3.728
26176W        W92959  38.416   2.006   1.635
26177W        W92960  37.073  33.122  13.416
26178W        W92961  20.004  17.902   1.077
26179W        W92962  22.086  13.028  11.941
26180W        W92963  41.990  22.106   2.286
26181W        W92964   0.418  38.840   0.260
26182W        W92965   9.128  13.078   4.370
26183W        W92966  25.468  33.787   2.408
26184W        W92967  44.304  35.114   4.660
26185W        W92968  41.811  29.981   0.696
26186W        W92969  12.357  11.904   1.896
26187W        W92970  13.243  11.865  13.918
26188W        W92971   5.562  41.248   3.113
26189W        W92972  34.014   0.693   4.721
26190W        W92973  20.045   0.237  13.568
26191W        W92974  12.274  35.067  12.497
26192W        W92975  34.660   9.276  12.046
26193W        W92976  15.063  34.460  12.508
26194W        W92977  43.456  37.337  10.851
26195W        W92978  17.345  35.663  11.052
26196W        W92979  25.511   3.314  12.906
26197W        W92980  27.410  10.578  14.767
26198W        W92981  26.052  20.323  11.270
26199W        W92982  44.045  20.748  14.266
26200W        W92983  27.363  20.633  14.475
26201W        W92984   2.145  38.765   2.256
26202W        W92985  40.559  22.555   4.024
26203W        W92986  34.874   8.789  12.135
26204W        W92987  13.434   2.633  12.483
26205W        W92988  43.517   6.934   3.128
26206W        W92989  33.494  25.105   0.938
26207W        W92990   2.688  44.098   0.288
26208W        W92991  31.864  44.389   4.129
26209W        W92992  18.291   6.310  14.742
26210W        W92993  38.384  24.970   2.635
26211W        W92994   2.484  25.675   2.199
26212W        W92995  27.649  10.922  11.197
26213W        W92996  23.649  36.006  11.152
26214W        W92997  44.031   6.243  14.829
26215W        W92998  40.810   5.705   4.940
26216W        W92999   6.043  13.395  12.548
26217W        W93000  39.787  15.920   0.380
26218W        W93001  29.125  32.091  12.171
26219W        W93002  34.872  39.235   0.856
26220W        W93003  11.497  12.876   3.113
26221W        W93004   3.171   9.237  12.348
26222W        W93005  41.570  16.169  13.299
26223W        W93006  22.493  29.346  11.104
26224W        W93007  28.900  38.444   1.721
26225W        W93008   5.942  44.190  12.121
26226W        W93009  42.206   1.416  14.420
26227W        W93010  30.862  44.889   4.687
26228W        W93011  42.361  17.731   4.156
26229W        W93012   7.919  21.237   2.730
26230W        W93013  34.991   2.491  13.784
26231W        W93014  15.680  22.584  13.124
26232W        W93015  26.758  34.321  10.194
26233W        W93016   7.449   9.332  11.582
26234W        W93017  29.857  32.525   0.230
26235W        W93018   3.204   6.259   4.696
26236W        W93019  13.599  31.571  12.956
26237W        W93020   1.400   4.011  14.339
26238W        W93021  21.780  25.293  12.910
26239W        W93022  44.850  12.919  11.573
26240W        W93023   6.548  33.012  14.793
26241W        W93024   4.695  29.095   0.921
26242W        W93025  42.509  42.754   1.153
26243W        W93026  27.009   5.584   0.272
26244W        W93027  36.223   2.254   4.910
26245W        W93028  10.350  34.095   1.211
26246W        W93029  44.831  24.279   1.764
26247W        W93030  20.680  25.617  10.478
26248W        W93031  18.636  27.537   1.681
26249W        W93032   3.932  21.373  11.959
26250W        W93033   1.972  43.379  14.930
26251W        W93034   3.204  17.685  13.999
26252W        W93035   3.843  18.565   3.388
26253W        W93036  13.792  20.097   0.238
26254W        W93037  11.281   9.377   4.692
26255W        W93038  43.862  40.794  10.775
26256W        W93039   4.726  26.193   5.165
26257W        W93040  39.830  10.878   0.377
26258W        W93041  43.298  10.724  12.656
26259W        W93042  37.970  31.400   3.606
26260W        W93043  17.827  13.190  12.178
26261W        W93044  28.259   9.224  12.482
26262W        W93045   4.398   8.213  14.379
26263W        W93046  25.640  14.391   1.289
26264W        W93047  11.190  40.011   0.186
26265W        W93048  40.782  22.957  14.905
26266W        W93049   5.238  42.339  13.391
26267W        W93050  12.204  18.095   2.235
26268W        W93051  40.247  15.868   2.803
26269W        W93052  37.138  44.828   0.817
26270W        W93053  14.128   0.340  13.464
26271W        W93054   5.832  18.655  13.573
26272W        W93055  42.406  10.908  14.256
26273W        W93056  43.805  15.231   3.852
26274W        W93057  41.393   2.242  12.526
26275W        W93058   7.764  26.746   3.843
26276W        W93059   7.713   2.737   0.381
26277W        W93060  18.061  30.073  14.173
26278W        W93061  21.739  26.985   2.213
26279W        W93062   7.800   4.743   3.489
26280W        W93063  15.573  24.682   0.552
26281W        W93064   1.310   3.001   0.971
26282W        W93065  30.996  42.046   3.617
26283W        W93066  37.554  40.741  11.759
26284W        W93067  43.009  28.563   3.918
26285W        W93068  18.346   4.380   1.107
26286W        W93069   9.705  43.849  14.468
26287W        W93070  37.116  13.920  11.996
26288W        W93071  14.709   7.169   4.687
26289W        W93072   9.795  34.474   3.691
26290W        W93073  33.422  25.559   1.703
26291W        W93074  38.611  19.509   3.215
26292W        W93075  25.601   8.276   1.905
26293W        W93076  30.820  26.521   2.341
26294W        W93077   4.226  36.821   3.663
26295W        W93078   9.714  20.520  10.857
26296W        W93079   5.905  21.891  11.546
26297W        W93080  27.228  13.126  14.855
26298W        W93081  30.204  35.476   3.543
26299W        W93082  30.979  28.753  10.952
26300W        W93083  33.059  19.788   2.787
26301W        W93084  35.667  23.680   1.826
26302W        W93085  39.997  17.972  11.554
26303W        W93086  14.310  16.871  11.001
26304W        W93087  44.758   7.064   4.551
26305W        W93088  35.506  26.232   3.772
26306W        W93089  24.157   0.793  10.714
26307W        W93090  22.620  34.655  11.491
26308W        W93091  11.915  32.595  12.676
26309W        W93092  40.481  23.013   0.378
26310W        W93093  10.924  10.262  11.172
26311W        W93094  28.704  23.663  14.920
26312W        W93095  29.205   5.830  12.885
26313W        W93096  24.069  26.473   2.634
26314W        W93097  35.465  33.501   0.832
26315W        W93098  16.175  30.134  14.360
26316W        W93099  26.678  23.658  13.322
26317W        W93100   3.648  10.605  12.673
26318W        W93101   1.794  23.068   2.269
26319W        W93102  43.567  20.038   1.739
26320W        W93103  22.144  12.118   3.617
26321W        W93104   9.230  18.643   4.044
26322W        W93105  15.740  14.787   3.943
26323W        W93106  22.119   0.452   4.083
26324W        W93107   1.300  12.885  11.478
26325W        W93108   3.105  27.258  13.426
26326W        W93109   2.492  12.182   3.780
26327W        W93110   2.200  43.202   4.723
26328W        W93111  16.045  36.497   1.399
26329W        W93112  13.725  35.689   3.255
26330W        W93113  11.826   9.558  11.198
26331W        W93114  14.126   8.786  12.419
26332W        W93115  35.503  24.112   2.058
26333W        W93116   3.352  37.330   3.901
26334W        W93117   0.807  43.495  12.992
26335W        W93118  15.862  14.919   0.339
26336W        W93119  19.653  11.315   1.258
26337W        W93120  42.387  44.748   4.589
26338W        W93121  30.121  20.787   1.428
26339W        W93122  15.257  44.655  10.656
26340W        W93123  28.113   0.817   4.695
26341W        W93124   7.163   8.319  11.537
26342W        W93125  33.472  37.556   2.362
26343W        W93126  33.891  20.455   1.315
26344W        W93127  21.790  16.535   4.619
26345W        W93128  18.153  30.529   1.836
26346W        W93129  22.088  24.575  11.468
26347W        W93130   6.274  19.575   1.049
26348W        W93131  27.913  16.276  13.287
26349W        W93132  30.913  23.995   3.934
26350W        W93133  42.931  13.794  12.084
26351W        W93134  30.933   4.913  11.660
26352W        W93135  21.441  29.486   4.184
26353W        W93136   3.305  27.646   1.039
26354W        W93137  40.434  43.736   1.760
26355W        W93138  28.626  43.264  14.797
26356W        W93139  29.052  21.650   0.120
26357W        W93140  36.480  10.357  10.438
26358W        W93141  20.533  34.029  12.607
26359W        W93142  35.541  23.592  11.620
26360W        W93143  35.588  15.116  10.705
26361W        W93144   4.802  32.516   4.931
26362W        W93145  13.174  30.154   4.535
26363W        W93146  16.713   3.479   3.802
26364W        W93147   1.799  28.211  12.562
26365W        W93148  30.907  19.069   2.846
26366W        W93149   6.803  31.880  10.711
26367W        W93150  17.063   1.715  14.879
26368W        W93151  15.094  29.834   1.675
26369W        W93152  12.096  27.988  10.297
26370W        W93153  42.307   3.295   1.686
26371W        W93154  44.707  14.154   9.631
26372W        W93155  18.669  42.036   0.431
26373W        W93156  37.410   2.700   2.606
26374W        W93157  15.110  13.164  10.623
26375W        W93158  37.919  23.647  14.428
26376W        W93159  17.587  27.220  11.058
26377W        W93160  27.721  34.919  11.437
26378W        W93161   7.851   0.364   4.134
26379W        W93162   8.321  35.918  14.982
26380W        W93163  34.934  23.428  10.784
26381W        W93164  44.686  38.357   4.556
26382W        W93165   7.754  34.352  14.454
26383W        W93166  19.205  39.483  13.578
26384W        W93167   3.287  20.660   2.271
26385W        W93168  32.198  42.544   1.751
26386W        W93169   2.453  36.406  14.598
26387W        W93170  23.573  31.041   2.810
26388W        W93171  31.265  24.248  10.391
26389W        W93172  22.778  26.453  14.764
26390W        W93173  14.694   0.242   2.309
26391W        W93174  39.033  18.542   4.226
26392W        W93175   6.625   0.294   0.642
26393W        W93176  12.322   0.280   2.386
26394W        W93177  14.252   0.999   2.209
26395W        W93178   2.348  19.576   2.833
26396W        W93179  11.392   7.695   1.455
26397W        W93180  15.770  29.720  13.874
26398W        W93181  32.141  12.903   2.175
26399W        W93182  21.679   0.796  14.000
26400W        W93183   7.600  33.396   1.778
26401W        W93184  30.945  37.180   2.643
26402W        W93185  36.937  41.836   0.708
26403W        W93186   8.260  13.722   4.642
26404W        W93187  40.841  12.235  11.585
26405W        W93188  23.035  25.206   0.271
26406W        W93189   8.820  12.389  13.977
26407W        W93190  23.811  42.434  13.238
26408W        W93191  36.088  14.515   2.959
26409W        W93192  28.507  33.160  13.054
26410W        W93193  24.883  44.739   3.892
26411W        W93194  17.339   2.326   3.611
26412W        W93195  19.542   0.921  11.598
26413W        W93196   2.888  11.816   0.152
26414W        W93197  38.642   1.242   2.192
26415W        W93198  23.760  13.606   0.331
26416W        W93199  24.438   0.552   1.758
26417W        W93200  22.537   8.441   1.796
26418W        W93201  12.831   0.790   4.613
26419W        W93202  41.857  21.629   3.225
26420W        W93203  35.158  24.478   1.138
26421W        W93204  18.602  24.389  12.038
26422W        W93205  16.729  41.346   3.766
26423W        W93206   7.005   7.861   1.775
26424W        W93207  43.519   3.890   1.670
26425W        W93208   4.894  32.312   3.295
26426W        W93209  39.913  18.441   4.773
26427W        W93210  27.687  14.103   3.235
26428W        W93211  30.895   1.203   0.391
26429W        W93212  13.563  14.673  12.908
26430W        W93213  33.940  39.865   2.599
26431W        W93214  23.216  18.781  12.454
26432W        W93215  31.459   3.796   3.617
26433W        W93216  41.344  18.626  12.434
26434W        W93217  41.984   6.431   2.310
26435W        W93218   6.234  19.351   0.565
26436W        W93219  14.218  15.628   4.100
26437W        W93220  35.049  16.991  14.307
26438W        W93221  36.450  29.577  12.423
26439W        W93222   0.871  15.238  14.294
26440W        W93223  18.566  32.273   2.348
26441W        W93224  34.862  30.831   2.151
26442W        W93225  26.292  10.467   3.246
26443W        W93226   8.804  28.144   4.157
26444W        W93227   9.419  23.478  10.402
26445W        W93228  11.109  23.921   2.245
26446W        W93229   4.352   0.881   3.108
26447W        W93230  10.957  37.235   0.515
26448W        W93231  33.517  38.001  11.834
26449W        W93232   7.749  41.343  12.032
26450W        W93233   8.740  11.079   0.829
26451W        W93234  29.543  41.747   0.109
26452W        W93235  25.297   8.867  11.501
26453W        W93236   7.219   4.399  10.699
26454W        W93237  39.472  35.521  11.999
26455W        W93238  42.293  43.521   1.775
26456W        W93239  26.435  20.965  10.632
26457W        W93240  31.223  37.206  12.017
26458W        W93241  42.975  26.836  10.647
26459W        W93242  42.302  20.195  14.904
26460W        W93243  20.091   3.947   4.412
26461W        W93244  20.891  42.673  12.786
26462W        W93245  16.076  25.117   2.559
26463W        W93246   5.637  43.206  12.544
26464W        W93247  25.374  30.644  14.046
26465W        W93248  43.438  41.524  14.360
26466W        W93249   5.070  20.721  12.776
26467W        W93250  35.966  34.275   4.637
26468W        W93251  20.262  15.174  14.475
26469W        W93252  31.692   1.798  11.956
26470W        W93253   3.149  27.478   4.558
26471W        W93254   3.501  31.213  14.070
26472W        W93255  13.091  42.069  11.348
26473W        W93256   8.230  39.729   3.701
26474W        W93257  31.562  17.123  14.558
26475W        W93258   7.247  32.982   0.658
26476W        W93259  43.869  36.287   0.367
26477W        W93260  38.464  14.055  12.998
26478W        W93261  15.552  43.722   9.983
26479W        W93262  37.595   9.073   0.529
26480W        W93263  43.521   2.063   4.168
26481W        W93264  16.179  32.738  14.585
26482W        W93265   9.124  40.527   1.811
26483W        W93266  27.517  23.595   2.802
26484W        W93267  25.558  20.053   2.140
26485W        W93268  27.953  16.396  13.808
26486W        W93269  34.726  43.200   0.097
26487W        W93270  23.283   4.264   3.616
26488W        W93271  37.588  40.363  14.941
26489W        W93272  24.785   2.245  11.608
26490W        W93273   5.019  21.582  10.264
26491W        W93274   5.660  40.325  14.807
26492W        W93275  18.679  12.794   0.881
26493W        W93276  12.676  27.653  12.428
26494W        W93277   4.741  32.291   1.397
26495W        W93278   2.776  13.911   4.605
26496W        W93279  23.199  44.767   0.831
26497W        W93280  16.666   0.260   3.068
26498W        W93281  38.965  43.442  10.454
26499W        W93282  16.719   1.591   2.455
26500W        W93283  11.707   4.651   4.235
26501W        W93284   1.351  27.738  14.295
26502W        W93285  33.590   7.127  14.048
26503W        W93286  31.974  14.631  13.917
26504W        W93287  44.930   6.422   1.009
26505W        W93288  15.281  40.359  12.550
26506W        W93289  14.222  42.485  12.396
26507W        W93290  19.626  40.827   0.354
26508W        W93291  18.632  16.285   0.272
26509W        W93292  33.467   7.800  11.709
26510W        W93293  15.266   1.791  11.218
26511W        W93294  41.315  26.254  12.403
26512W        W93295  13.576  16.496   0.949
26513W        W93296  32.843  11.849  14.004
26514W        W93297  37.792  16.455  11.133
26515W        W93298  12.252  30.359  14.762
26516W        W93299  28.339   7.512  11.766
26517W        W93300  32.143   5.788  11.483
26518W        W93301  15.266  29.434   4.542
26519W        W93302  42.168  21.115  12.444
26520W        W93303  31.966  36.001  10.766
26521W        W93304  43.216  15.749   4.689
26522W        W93305  16.752  12.772  10.338
26523W        W93306  21.236  13.676   2.713
26524W        W93307  30.473   4.245  11.499
26525W        W93308  24.279  42.473   2.109
26526W        W93309  40.150   4.275   3.819
26527W        W93310  26.375  28.148   4.528
26528W        W93311  13.811  20.968   4.237
26529W        W93312   6.948  44.790   2.359
26530W        W93313   0.445  12.549  13.221
26531W        W93314  22.238  42.037   1.891
26532W        W93315   6.673  18.067  13.341
26533W        W93316  12.927  12.104   0.810
26534W        W93317  14.932  41.715   4.723
26535W        W93318  41.406  14.191  12.536
26536W        W93319  30.137  40.552  10.996
26537W        W93320   1.807  31.813  14.844
26538W        W93321  14.630  19.853  14.246
26539W        W93322  29.456   6.997  13.422
26540W        W93323  13.630  36.506   3.759
26541W        W93324   7.860  42.789   4.952
26542W        W93325   8.699  14.387   0.449
26543W        W93326  10.671  33.738  10.712
26544W        W93327  25.014  30.203  13.019
26545W        W93328  36.817  28.175   4.086
26546W        W93329  25.276  25.364  11.596
26547W        W93330  31.703  41.947   3.283
26548W        W93331  44.739   0.544  10.641
26549W        W93332  18.090   8.919  14.502
26550W        W93333  14.847  39.075   0.898
26551W        W93334  13.766  36.987  14.054
26552W        W93335  11.937  16.454  12.409
26553W        W93336  23.726  32.319  12.914
26554W        W93337  16.098   6.531  12.749
26555W        W93338  28.376   1.392   3.628
26556W        W93339  37.524  12.596   4.853
26557W        W93340  35.552  36.962   1.734
26558W        W93341   6.758   2.743  14.490
26559W        W93342   6.287   1.692  14.996
26560W        W93343  43.202  28.769   1.715
26561W        W93344  11.212  10.498   4.231
26562W        W93345  15.871  39.863  14.562
26563W        W93346  24.814  33.426   5.202
26564W        W93347  43.782  37.550  13.461
26565W        W93348   0.519  14.286  11.203
26566W        W93349  27.181  16.277   3.633
26567W        W93350  19.280  13.013   1.438
26568W        W93351  21.061   8.903   0.201
26569W        W93352  26.869  38.112  12.636
26570W        W93353  30.895  40.590   0.303
26571W        W93354  36.883  25.201  13.092
26572W        W93355  42.542  19.329  11.857
26573W        W93356  30.526  44.269   0.925
26574W        W93357  41.344  21.021   0.458
26575W        W93358  23.915  33.307  14.791
26576W        W93359   3.336  24.434  11.007
26577W        W93360  43.960  38.086  14.953
26578W        W93361  29.342  43.201   2.362
26579W        W93362  26.928  22.619  11.207
26580W        W93363  34.115   7.494  11.463
26581W        W93364  38.801  42.484   4.497
26582W        W93365  32.163  19.639  11.135
26583W        W93366  32.887  27.098  11.235
26584W        W93367  18.245  10.775  13.695
26585W        W93368  34.941  26.012   2.274
26586W        W93369  22.979   2.321  12.882
26587W        W93370  23.035  38.334   3.253
26588W        W93371  15.910  14.209   4.206
26589W        W93372  23.331  24.558   4.503
26590W        W93373  34.136  24.355   5.125
26591W        W93374  11.383  21.557   0.271
26592W        W93375  36.990  42.787   4.656
26593W        W93376  30.693  27.158  13.530
26594W        W93377  25.892   4.217   0.712
26595W        W93378  33.815  22.591   0.381
26596W        W93379  17.420  27.703  11.193
26597W        W93380  37.281  26.975  12.391
26598W        W93381  40.331  13.353  11.160
26599W        W93382  14.739  24.287   1.824
26600W        W93383  35.516  18.483  13.637
26601W        W93384  19.316  44.993  11.410
26602W        W93385   1.367  10.625  11.852
26603W        W93386  42.699  24.503   3.607
26604W        W93387   0.332  34.088  13.088
26605W        W93388  24.057   8.258   4.604
26606W        W93389   2.709  37.076   1.804
26607W        W93390   1.341  38.533   4.181
26608W        W93391  25.910  12.177   2.602
26609W        W93392  43.873  35.406   3.093
26610W        W93393  32.811  10.671  11.538
26611W        W93394  27.286  18.293  13.828
26612W        W93395  32.030  35.065   3.545
26613W        W93396  25.629   6.062  13.895
26614W        W93397  23.985  12.748   3.282
26615W        W93398  15.932   2.763   0.847
26616W        W93399  18.739  33.973  13.463
26617W        W93400  20.537   0.401  13.470
26618W        W93401  24.319  31.078  11.966
26619W        W93402  14.727  18.223  12.214
26620W        W93403  20.346  44.941   3.993
26621W        W93404  36.843   0.677   2.678
26622W        W93405  31.406  10.119  14.994
26623W        W93406   1.766  44.628  13.497
26624W        W93407  19.161  39.274   3.795
26625W        W93408  19.984  11.884  12.927
26626W        W93409  43.439   7.440   3.143
26627W        W93410  13.476  18.534  13.432
26628W        W93411  19.740  25.072   2.133
26629W        W93412  34.930  17.039  12.103
26630W        W93413   9.698   2.835   4.912
26631W        W93414   9.138  20.889  10.272
26632W        W93415   1.798   6.263  13.753
26633W        W93416  19.714  38.321   0.356
26634W        W93417  36.249  22.897  13.087
26635W        W93418  44.208  32.151   4.548
26636W        W93419  14.881  34.753   2.675
26637W        W93420  40.483  16.546   4.076
26638W        W93421   5.435  43.450  13.390
26639W        W93422  23.193  27.079  11.647
26640W        W93423  38.826  40.131   1.009
26641W        W93424  27.611  20.486   2.877
26642W        W93425  32.286  22.637   3.176
26643W        W93426  43.042  19.214  11.740
26644W        W93427  34.656   1.771   3.256
26645W        W93428  37.799  19.046  14.856
26646W        W93429   4.921  11.931   2.359
26647W        W93430   2.478  19.252   4.536
26648W        W93431  24.717  34.717   1.211
26649W        W93432  30.822  10.414   5.378
26650W        W93433  30.126  37.850   0.318
26651W        W93434  28.261  20.549  12.123
26652W        W93435   5.753  21.564   3.206
26653W        W93436   4.621  17.232   3.635
26654W        W93437  35.780  37.887   2.248
26655W        W93438  25.200   2.043   1.226
26656W        W93439   9.161  33.981   0.749
26657W        W93440  21.069  21.201  12.169
26658W        W93441  28.489  12.824   2.263
26659W        W93442  40.011   2.783   1.410
26660W        W93443  24.638  33.129   3.652
26661W        W93444   0.945  25.308  11.629
26662W        W93445  20.789  11.260  13.977
26663W        W93446   8.610  18.953   4.679
26664W        W93447  38.160   7.487   2.836
26665W        W93448  10.347   9.260  11.137
26666W        W93449  16.090  37.804  13.870
26667W        W93450  37.090  42.767   2.782
26668W        W93451  36.613   1.493   2.290
26669W        W93452  32.703  19.708  11.144
26670W        W93453  21.190  35.275   1.013
26671W        W93454  14.572  29.538   1.745
26672W        W93455  43.057  43.340  14.000
26673W        W93456   1.829   8.281   0.893
26674W        W93457  17.251  40.320   1.492
26675W        W93458   1.471   9.319   9.657
26676W        W93459  42.933  15.100   4.033
26677W        W93460  31.045  13.195   3.653
26678W        W93461  26.558  28.943   3.138
26679W        W93462  15.436  15.710  14.185
26680W        W93463  16.247  11.696   4.654
26681W        W93464  16.220  10.350   2.444
26682W        W93465   3.782  24.880   4.544
26683W        W93466  20.593  41.389  14.020
26684W        W93467  26.723   5.933   2.241
26685W        W93468  13.681  13.825  14.019
26686W        W93469  36.114   3.807   0.074
26687W        W93470  31.362  40.063  13.025
26688W        W93471  16.590  35.396  14.377
26689W        W93472  37.000  27.943  12.392
26690W        W93473  36.934  18.246   1.311
26691W        W93474   3.944  15.566  14.340
26692W        W93475   1.887  14.230  12.867
26693W        W93476  14.460  28.233  12.098
26694W        W93477  36.782  43.021  12.506
26695W        W93478   8.699  41.553  12.540
26696W        W93479  18.276  42.263   0.726
26697W        W93480  34.414  36.111   3.777
26698W        W93481   9.238  26.472   3.130
26699W        W93482  25.154  43.546  14.920
26700W        W93483  13.771  29.134  13.636
26701W        W93484  30.321  19.321  11.314
26702W        W93485  25.541  35.945   4.622
26703W        W93486  25.220  32.193  13.056
26704W        W93487   1.519  15.718  11.520
26705W        W93488  44.820  16.574   3.850
26706W        W93489  29.032  32.617   2.262
26707W        W93490   7.690  25.995   4.223
26708W        W93491  11.726  29.252  10.369
26709W        W93492  23.989   5.357   2.286
26710W        W93493  13.407  37.741   0.301
26711W        W93494  43.361  35.396  12.624
26712W        W93495   3.328   6.376  13.824
26713W        W93496   5.491  30.141  12.430
26714W        W93497  29.668  32.866   0.934
26715W        W93498  30.662   1.432  13.569
26716W        W93499  42.975  21.718  13.139
26717W        W93500  37.781  31.122   0.320
26718W        W93501   7.332  22.931  13.947
26719W        W93502  29.039   6.003  13.648
26720W        W93503  39.234  43.581   3.313
26721W        W93504  43.171   2.391   3.969
26722W        W93505  29.319  11.130   4.627
26723W        W93506  23.395  19.529  14.763
26724W        W93507   2.454  18.525  14.822
26725W        W93508  14.893   0.072   1.572
26726W        W93509  17.068  38.636  14.490
26727W        W93510   6.323  21.293  13.130
26728W        W93511   3.461   8.902   3.121
26729W        W93512  19.077  18.595   2.418
26730W        W93513   4.800   2.696  11.602
26731W        W93514  27.453  39.377   2.244
26732W        W93515  44.065  33.589  14.108
26733W        W93516  20.511  37.336   4.985
26734W        W93517   0.363  32.300   2.891
26735W        W93518  24.598  16.136  11.516
26736W        W93519  43.358   6.611  13.924
26737W        W93520   9.043  15.813  10.750
26738W        W93521  37.553  35.064  13.939
26739W        W93522  36.053  23.458  14.889
26740W        W93523   3.267  16.168  12.549
26741W        W93524  39.449   7.888  11.591
26742W        W93525   5.932  39.849   0.523
26743W        W93526   9.830  39.503   3.586
26744W        W93527  37.662  32.969   1.442
26745W        W93528  30.109  11.414  13.473
26746W        W93529  31.152  35.288  14.928
26747W        W93530  17.241  32.428   4.486
26748W        W93531  29.081  17.620  13.111
26749W        W93532  20.506  14.662   0.292
26750W        W93533  33.200  23.279   9.985
26751W        W93534  15.560  32.390   2.218
26752W        W93535  29.561  28.229  14.409
26753W        W93536  23.127  30.713   1.967
26754W        W93537  39.530  10.378  13.132
26755W        W93538  14.741  29.149   4.431
26756W        W93539  26.653  31.921   1.760
26757W        W93540  36.610  14.656  13.244
26758W        W93541  25.147  11.319   1.365
26759W        W93542  30.533  31.988   1.227
26760W        W93543   9.629  44.406   2.612
26761W        W93544   8.401  11.079   3.740
26762W        W93545  37.426  24.111   0.744
26763W        W93546  21.698  15.421  11.170
26764W        W93547  28.719   2.883   0.354
26765W        W93548  17.810  23.293  11.046
26766W        W93549  23.221   1.486   3.136
26767W        W93550  42.314  34.586  13.769
26768W        W93551  40.430  35.973   2.847
26769W        W93552  41.064  31.704  12.431
26770W        W93553  11.278  38.609   1.293
26771W        W93554  29.745   5.316   1.782
26772W        W93555  16.427  43.713   3.822
26773W        W93556  28.121  34.919  10.645
26774W        W93557  39.324  27.615   0.654
26775W        W93558  25.100  16.809   0.506
26776W        W93559  11.995   3.945   2.355
26777W        W93560  25.886  17.884   4.612
26778W        W93561   7.326  27.150   2.883
26779W        W93562  28.458  34.331  12.460
26780W        W93563  33.414  22.529   1.677
26781W        W93564  12.221   8.180  12.148
26782W        W93565  13.631  15.618   0.963
26783W        W93566  17.667   9.153   3.599
26784W        W93567  24.503  15.285   4.565
26785W        W93568  29.033  33.981   1.311
26786W        W93569  39.017  33.117   0.390
26787W        W93570  29.835  15.814   3.516
26788W        W93571  29.875  14.886   0.473
26789W        W93572  19.457  27.714  14.247
26790W        W93573  21.339  32.672   3.760
26791W        W93574  25.865  44.443   3.186
26792W        W93575  42.343  12.595   5.041
26793W        W93576  28.605  23.436  13.365
26794W        W93577  27.830  26.117  12.660
26795W        W93578  21.028  43.177   3.654
26796W        W93579   9.785  44.945   4.455
26797W        W93580  14.132  12.847  14.053
26798W        W93581  13.156  16.565   1.781
26799W        W93582  36.403  16.743   1.269
26800W        W93583  44.220  38.066  12.996
26801W        W93584  27.123   9.544  11.028
26802W        W93585  37.436  28.734   4.343
26803W        W93586   0.496   5.026   4.809
26804W        W93587  44.085  15.085  13.067
26805W        W93588  25.831  23.193  14.388
26806W        W93589   6.462  34.407   1.014
26807W        W93590  44.144  16.297   2.253
26808W        W93591   2.552   5.850  14.528
26809W        W93592   9.291  19.529   3.641
26810W        W93593  22.723  26.161   1.685
26811W        W93594   3.021   1.277   1.272
26812W        W93595  42.110   6.937   2.300
26813W        W93596  26.219  34.371  14.806
26814W        W93597  18.875  29.114   0.960
26815W        W93598  12.069  14.237  14.723
26816W        W93599  42.882  22.191  11.441
26817W        W93600  23.926   4.901  12.506
26818W        W93601   8.361   9.956   1.939
26819W        W93602  37.070  23.963   4.017
26820W        W93603  14.367  15.624  10.422
26821W        W93604  33.840  20.300   0.823
26822W        W93605  24.184  38.822   0.911
26823W        W93606  36.233  32.124  11.281
26824W        W93607  19.068  44.096   2.745
26825W        W93608  43.401   2.465   4.633
26826W        W93609  15.648   9.799   4.512
26827W        W93610  34.439  10.122   0.408
26828W        W93611  41.441  24.957  10.826
26829W        W93612  17.581  43.038  14.746
26830W        W93613   4.606  37.580   3.495
26831W        W93614   1.210  43.817   1.803
26832W        W93615  34.041  33.544  12.972
26833W        W93616  24.554   5.772   0.717
26834W        W93617  20.053  35.411  11.161
26835W        W93618  36.825  40.334   0.878
26836W        W93619  40.374  25.394  14.398
26837W        W93620  14.078  15.253   1.803
26838W        W93621  13.154   5.442  12.070
26839W        W93622   7.439   0.911   0.436
26840W        W93623   7.354  24.592   3.665
26841W        W93624  34.301  25.699   4.042
26842W        W93625   5.200  26.047  10.902
26843W        W93626   0.775   5.668  12.026
26844W        W93627  19.492  21.940   1.416
26845W        W93628  13.661  37.373   0.559
26846W        W93629  33.669  24.385   4.230
26847W        W93630  21.377  12.133  12.160
26848W        W93631  23.573  16.370   4.953
26849W        W93632  26.106  26.107  13.312
26850W        W93633  42.994  32.643   4.313
26851W        W93634   8.175  41.486   0.318
26852W        W93635   7.792  44.353   4.508
26853W        W93636  21.090  35.333   1.522
26854W        W93637  12.112  14.129  10.624
26855W        W93638  28.076  10.832   3.325
26856W        W93639  30.625   5.387   4.312
26857W        W93640  27.405  10.821   0.288
26858W        W93641  10.740  34.044   0.871
26859W        W93642  26.443   7.694   1.920
26860W        W93643  31.681  21.803   0.759
26861W        W93644  22.077   3.629   3.110
26862W        W93645  32.656  41.310  11.918
26863W        W93646  22.471  40.886  11.583
26864W        W93647  40.409  44.890   1.898
26865W        W93648  30.974  31.404  14.036
26866W        W93649  19.296  40.132  14.764
26867W        W93650  15.259  20.712   1.717
26868W        W93651  26.737   8.117  14.741
26869W        W93652  31.210  30.156  12.825
26870W        W93653  14.332  12.939   3.631
26871W        W93654  29.204  32.606  12.083
26872W        W93655  20.261  25.459  11.730
26873W        W93656  29.399  34.215  13.837
26874W        W93657  16.177  17.743  11.043
26875W        W93658   4.619  17.659   0.257
26876W        W93659  22.724  32.957   2.057
26877W        W93660  44.988  14.625   3.639
26878W        W93661  32.439  25.886   0.897
26879W        W93662  43.017  30.341   0.884
26880W        W93663   7.277  42.594  10.753
26881W        W93664  24.935  28.232  11.648
26882W        W93665  40.924  20.251  11.568
26883W        W93666  32.604  12.256   4.310
26884W        W93667  25.938  17.682   4.131
26885W        W93668  42.396  30.545   0.185
26886W        W93669  41.978   3.681   4.388
26887W        W93670  22.409  26.434   0.453
26888W        W93671  26.146  12.718   3.766
26889W        W93672  33.984  38.459   4.282
26890W        W93673   9.351  33.864  14.045
26891W        W93674   2.086  35.544   3.169
26892W        W93675  30.142   6.210   4.218
26893W        W93676  10.078  22.178   0.948
26894W        W93677  31.839  32.484   4.699
26895W        W93678  28.009  13.439  13.149
26896W        W93679  34.489  38.527   2.606
26897W        W93680  21.957   4.419  13.336
26898W        W93681  22.768  18.439  12.480
26899W        W93682  21.998  34.000   4.445
26900W        W93683   6.900  11.075  13.912
26901W        W93684  35.557  22.105  11.023
26902W        W93685  18.310  13.251   4.093
26903W        W93686  28.573   4.340   4.659
26904W        W93687  30.019  13.358  11.607
26905W        W93688  11.826  11.865  13.410
26906W        W93689  18.767   3.171  12.021
26907W        W93690   0.831  30.149   2.934
26908W        W93691  31.536  28.829  12.574
26909W        W93692  30.454   8.782  10.790
26910W        W93693   8.643  27.960   4.624
26911W        W93694  36.470  13.940   3.522
26912W        W93695  35.573  10.305   2.610
26913W        W93696  12.185  25.089   0.353
26914W        W93697   2.182  22.729  14.434
26915W        W93698   7.150  18.321   4.347
26916W        W93699   0.368  26.375   2.799
26917W        W93700  43.925  16.322   1.301
26918W        W93701  32.123  41.685  10.514
26919W        W93702   3.599   5.894   1.816
26920W        W93703  11.420  21.156  11.662
26921W        W93704  23.131  13.811  11.539
26922W        W93705   7.474  44.039   0.581
26923W        W93706  15.356  22.114  10.866
26924W        W93707  14.889   3.672   4.306
26925W        W93708  42.443  22.964  14.829
26926W        W93709  31.441  11.367  12.418
26927W        W93710  15.118  31.738  10.704
26928W        W93711   6.351   3.320   4.488
26929W        W93712   4.349  36.843   0.207
26930W        W93713  36.488  38.074  14.397
26931W        W93714  42.050  44.376  10.358
26932W        W93715  28.858  35.069  12.000
26933W        W93716   4.826   9.912  13.554
26934W        W93717  15.174  25.169  14.346
26935W        W93718  29.436  24.023  14.425
26936W        W93719   6.157  36.006  12.443
26937W        W93720  24.385  42.412   4.095
26938W        W93721  30.877   2.652  13.763
26939W        W93722   5.939  29.148  12.478
26940W        W93723  29.296  21.041  11.612
26941W        W93724  21.030  17.511  14.335
26942W        W93725   8.935  14.661  10.965
26943W        W93726  32.716   6.908  13.003
26944W        W93727   4.816  11.255  10.554
26945W        W93728   2.940  26.921  11.568
26946W        W93729  28.534  27.668   4.419
26947W        W93730   9.012   4.923   2.336
26948W        W93731  39.062  21.160  13.520
26949W        W93732  18.837  25.456  10.104
26950W        W93733   4.204  14.003   1.346
26951W        W93734  18.672  16.499  13.530
26952W        W93735  18.761   2.220   4.133
26953W        W93736  19.148  22.181  10.771
26954W        W93737  29.378  39.343  13.333
26955W        W93738  16.401  30.163  13.461
26956W        W93739   4.876  12.423   0.945
26957W        W93740  37.888   8.400   2.758
26958W        W93741  33.860  34.810   3.341
26959W        W93742  36.849  36.603  12.078
26960W        W93743  15.054  17.062  11.533
26961W        W93744  12.854  41.279   4.926
26962W        W93745  29.243  18.493   1.232
26963W        W93746  28.717  27.526   0.627
26964W        W93747   2.864  43.083  12.123
26965W        W93748  24.189  24.415  14.445
26966W        W93749  44.797  33.973   4.485
26967W        W93750  29.221  35.190   1.863
26968W        W93751  10.369  15.338   3.690
26969W        W93752  28.516   0.305   0.297
26970W        W93753  40.082   1.869   3.058
26971W        W93754  14.217  31.110  11.932
26972W        W93755  43.526  32.639   0.298
26973W        W93756  10.900  31.494  12.505
26974W        W93757   4.648  38.688  10.227
26975W        W93758  17.328  20.268   3.610
26976W        W93759  13.602   9.215  14.083
26977W        W93760  22.197   1.174  10.586
26978W        W93761   3.475  21.077   2.833
26979W        W93762  10.931  34.438  11.296
26980W        W93763  20.831   7.286  13.377
26981W        W93764  33.718  39.227   3.474
26982W        W93765   2.002   9.312  13.893
26983W        W93766  16.096  27.607  14.271
26984W        W93767  18.606   2.804  12.855
26985W        W93768  20.146  23.089   1.304
26986W        W93769  40.426   3.660   4.447
26987W        W93770  39.361  31.521  11.665
26988W        W93771  27.544   8.694  13.695
26989W        W93772  40.522   3.531   3.219
26990W        W93773  26.579  34.812   4.536
26991W        W93774  19.859  23.560  14.815
26992W        W93775   9.405  17.640   1.806
26993W        W93776  27.721  43.211   2.033
26994W        W93777  19.180  17.281  11.292
26995W        W93778  16.069  11.664  11.632
26996W        W93779   8.745  26.642   3.192
26997W        W93780   5.179  35.629   2.261
26998W        W93781  33.636   8.102  14.828
26999W        W93782   5.810   7.246  11.691
27000W        W93783  38.065  15.522  13.851
27001W        W93784   1.326  12.969  10.613
27002W        W93785  40.814  40.272  14.575
27003W        W93786  40.039  11.593   1.691
27004W        W93787  26.958   3.167   3.675
27005W        W93788  34.419   5.306  11.111
27006W        W93789  39.064   2.998   4.200
27007W        W93790  12.957  10.381   2.355
27008W        W93791  22.149  33.968  10.744
27009W        W93792   5.761   4.464  12.401
27010W        W93793  19.185  12.699  10.702
27011W        W93794   8.145  14.706   1.477
27012W        W93795  35.886   1.905   2.065
27013W        W93796  39.557  29.432   0.371
27014W        W93797  14.095  20.313   4.349
27015W        W93798  37.647  43.691  12.047
27016W        W93799  30.263  29.470  11.046
27017W        W93800   7.656  12.173   3.161
27018W        W93801  20.061  26.242   4.162
27019W        W93802  28.021   8.758   5.223
27020W        W93803   2.187   0.078   2.352
27021W        W93804   4.218  10.175  14.279
27022W        W93805  28.083  29.664  13.033
27023W        W93806   2.934  18.567  12.008
27024W        W93807  30.952  23.287  14.875
27025W        W93808  24.484  23.997   0.285
27026W        W93809   3.800  14.653  14.357
27027W        W93810  29.674  39.245  14.337
27028W        W93811  32.932  20.067  12.614
27029W        W93812  11.157   0.910   1.361
27030W        W93813   8.516  13.770  13.785
27031W        W93814  14.594  20.300  14.531
27032W        W93815   4.866   0.808   1.286
27033W        W93816  41.877  33.989   0.379
27034W        W93817  26.693  40.549  10.912
27035W        W93818   6.231  21.061  12.209
27036W        W93819  29.701  14.566  11.197
27037W        W93820  30.960  19.255  14.581
27038W        W93821  35.484  22.010   0.481
27039W        W93822  29.457  25.841  10.636
27040W        W93823  11.176  10.124  10.748
27041W        W93824  41.164  36.995  13.656
27042W        W93825  35.068  19.718  14.891
27043W        W93826  16.183   9.594   4.061
27044W        W93827  33.151   9.673   0.946
27045W        W93828  16.552  18.107  14.796
27046W        W93829  35.067  25.946   3.765
27047W        W93830  20.882  37.364   4.544
27048W        W93831  40.001  42.522  12.187
27049W        W93832  36.482  18.964  14.975
27050W        W93833  38.718  37.946  14.783
27051W        W93834   9.214  25.364   1.925
27052W        W93835  34.108   9.114   2.780
27053W        W93836  13.011  32.087   2.771
27054W        W93837  27.997  21.299   0.307
27055W        W93838   0.868  37.281  14.473
27056W        W93839  38.105   2.546  12.629
27057W        W93840  11.147  44.221  10.389
27058W        W93841   9.707  36.072   4.123
27059W        W93842  11.751  23.981  14.925
27060W        W93843  44.857  21.553   1.668
27061W        W93844  36.376  33.050  13.801
27062W        W93845  32.231  28.090   1.330
27063W        W93846   7.158  38.994  12.431
27064W        W93847  30.467  21.983   2.207
27065W        W93848  12.687  25.992  11.576
27066W        W93849  39.555  14.853  13.867
27067W        W93850  31.643  43.675  11.622
27068W        W93851   8.687   7.036  13.366
27069W        W93852  28.724  43.511   5.022
27070W        W93853  42.466  31.212  12.140
27071W        W93854  27.681   2.560   1.875
27072W        W93855  13.349  36.640   3.301
27073W        W93856   5.964  36.251   2.714
27074W        W93857  32.335  29.600   4.206
27075W        W93858  10.170  20.902   4.200
27076W        W93859  10.839  39.419   4.059
27077W        W93860  10.724   6.405   4.504
27078W        W93861  14.526   0.847   2.624
27079W        W93862  34.476  17.557  11.535
27080W        W93863   7.207   5.049  13.657
27081W        W93864  42.544  18.541   2.214
27082W        W93865  37.387   3.166  11.247
27083W        W93866  32.042   8.960  12.623
27084W        W93867  22.831   2.741   0.808
27085W        W93868  19.533  42.836   0.465
27086W        W93869   3.510  19.485   4.495
27087W        W93870  16.154  42.341   0.483
27088W        W93871  41.459   3.573   2.446
27089W        W93872  29.041   7.451  13.336
27090W        W93873  24.419  12.600  13.534
27091W        W93874  42.783  29.591   0.402
27092W        W93875  20.325  37.627  11.274
27093W        W93876   6.203  15.203   2.772
27094W        W93877  30.117   1.731   2.264
27095W        W93878  35.940  42.274  13.479
27096W        W93879   9.630  22.989   3.513
27097W        W93880  28.757   9.126  12.425
27098W        W93881  12.713  11.864   3.291
27099W        W93882  35.943  17.694  10.815
27100W        W93883  22.802   5.017   3.509
27101W        W93884  18.750  38.041  13.453
27102W        W93885  42.370  26.511   3.860
27103W        W93886  26.491   2.991   1.891
27104W        W93887   6.475  25.313  14.021
27105W        W93888  11.884   3.881   3.701
27106W        W93889  23.836  14.181   0.936
27107W        W93890  10.237  41.903  14.968
27108W        W93891  33.239  40.824   2.828
27109W        W93892   0.366   3.995   3.607
27110W        W93893  39.993  24.622   2.396
27111W        W93894  27.010  44.224  13.360
27112W        W93895  29.537  18.667  11.627
27113W        W93896  16.322  40.282   4.486
27114W        W93897  29.700   8.411   4.172
27115W        W93898  41.404  17.594  14.496
27116W        W93899  13.268  18.255  12.403
27117W        W93900  25.347   3.021  12.334
27118W        W93901  33.433  23.483  14.873
27119W        W93902   2.669  25.238   3.153
27120W        W93903  34.595   2.337  14.722
27121W        W93904  24.273  43.038   3.784
27122W        W93905  21.687  12.801   4.241
27123W        W93906  12.370  38.376  12.058
27124W        W93907   8.812   2.785  11.597
27125W        W93908  43.875  23.282  11.661
27126W        W93909   4.828  37.324   4.988
27127W        W93910  34.925  16.076  11.858
27128W        W93911  38.640  35.517  13.000
27129W        W93912  21.156  10.803   0.908
27130W        W93913  31.321  10.375   2.679
27131W        W93914  28.744  36.049  14.389
27132W        W93915  38.476   3.445   3.314
27133W        W93916  37.442  40.440  13.381
27134W        W93917  23.825  20.224  12.015
27135W        W93918  34.514  20.812   1.354
27136W        W93919  35.037  39.621   1.269
27137W        W93920   5.715  36.263   1.879
27138W        W93921  21.177  32.944  11.635
27139W        W93922  25.643  22.637   1.899
27140W        W93923  40.832  22.721   1.219
27141W        W93924  28.147  23.377  14.030
27142W        W93925  34.515   8.594  13.631
27143W        W93926  18.707  36.564  13.041
27144W        W93927  41.911   1.666   1.301
27145W        W93928  38.116  30.023   3.647
27146W        W93929   7.709  25.541   3.211
27147W        W93930   1.739  33.883   1.767
27148W        W93931   2.693  34.199  12.843
27149W        W93932  34.704   5.120   9.801
27150W        W93933  42.992  29.143   0.214
27151W        W93934  29.429  39.046  10.236
27152W        W93935   4.479  28.690  12.165
27153W        W93936  23.602  31.481  12.395
27154W        W93937   6.807  16.650   3.247
27155W        W93938  33.586  19.759   1.653
27156W        W93939  40.756  43.517   2.170
27157W        W93940  42.726  11.023   1.256
27158W        W93941  22.431   5.227  13.149
27159W        W93942  17.831  25.971  13.929
27160W        W93943  20.595  21.701   2.261
27161W        W93944   8.408  18.752   1.916
27162W        W93945  19.300  33.001   3.284
27163W        W93946   3.107  16.005   3.223
27164W        W93947  16.111  20.562   2.840
27165W        W93948  42.961  32.075  13.082
27166W        W93949  40.720  23.112   1.765
27167W        W93950  13.559   4.346   1.681
27168W        W93951  33.229  12.340   5.078
27169W        W93952  43.484  25.828  12.159
27170W        W93953  28.284  12.514   2.656
27171W        W93954  10.627  40.041   4.664
27172W        W93955  11.261  25.355  12.423
27173W        W93956  17.816   7.646   4.042
27174W        W93957  26.586  24.299   4.701
27175W        W93958   8.734  19.593  11.992
27176W        W93959  15.523   5.629  11.512
27177W        W93960  39.449  15.309  10.612
27178W        W93961  11.641   4.791  12.559
27179W        W93962  38.948   6.294  10.733
27180W        W93963   9.637  12.094   4.205
27181W        W93964  34.157  29.990  12.114
27182W        W93965  33.601  37.578  11.574
27183W        W93966  43.827  15.666   3.579
27184W        W93967  39.707   2.368   3.697
27185W        W93968   6.087  23.706   1.423
27186W        W93969   0.759  12.912   2.878
27187W        W93970   1.201  10.626   4.561
27188W        W93971  33.707  33.627  10.169
27189W        W93972  16.629  16.033   4.981
27190W        W93973  18.388  10.759  13.002
27191W        W93974   0.822  23.515   2.867
27192W        W93975  24.308  31.960   4.622
27193W        W93976  17.737  29.241  14.692
27194W        W93977  31.877  21.390  10.173
27195W        W93978  35.297  21.742  13.058
27196W        W93979  44.932   0.539   0.252
27197W        W93980  39.273  18.099   4.142
27198W        W93981  25.534  16.701   0.207
27199W        W93982   3.956  33.154  12.480
27200W        W93983  44.080  29.569   2.826
27201W        W93984  32.307  27.058   3.025
27202W        W93985  25.853  33.130   1.819
27203W        W93986  26.762  16.337   3.335
27204W        W93987  26.698   4.512  13.956
27205W        W93988  29.153   2.295   3.160
27206W        W93989   8.442  26.929  12.344
27207W        W93990  35.201   1.890   1.323
27208W        W93991  26.453  38.414   4.722
27209W        W93992   6.378   4.460  11.906
27210W        W93993  14.563  17.285  10.638
27211W        W93994  14.839   6.431   3.411
27212W        W93995  26.015   2.792   4.808
27213W        W93996  41.213   6.311  10.859
27214W        W93997  23.932  27.125  12.589
27215W        W93998   7.385  15.082   0.442
27216W        W93999   5.962   4.281   1.788
27217W        W94000   4.300  11.219  10.630
27218W        W94001  32.720  10.206  13.427
27219W        W94002  39.563  13.731   5.427
27220W        W94003  29.471   3.253   2.767
27221W        W94004  18.347  20.055   0.504
27222W        W94005  23.631   6.290   2.758
27223W        W94006  13.235   9.867   4.612
27224W        W94007  40.322  16.201   1.003
27225W        W94008  17.831  13.108  14.040
27226W        W94009   5.665   9.827   0.376
27227W        W94010  29.010  25.172  12.487
27228W        W94011   2.122  34.527   4.147
27229W        W94012  28.568  41.431   4.249
27230W        W94013  24.674  18.865  14.101
27231W        W94014  16.188  26.085  11.673
27232W        W94015  31.984  14.597   2.612
27233W        W94016  18.013   9.061  13.590
27234W        W94017  27.221   8.275   1.217
27235W        W94018  10.979  16.301  11.839
27236W        W94019  11.899   3.476  12.045
27237W        W94020  19.361  29.932   4.144
27238W        W94021  20.776  12.342  10.921
27239W        W94022  10.348  29.552  11.523
27240W        W94023  22.264  29.689   0.328
27241W        W94024  27.882  41.916  11.982
27242W        W94025  29.513  42.850   3.275
27243W        W94026  41.852  15.244  12.540
27244W        W94027  42.493   7.264  11.883
27245W        W94028  25.198   1.544   1.415
27246W        W94029   9.849   5.723  12.899
27247W        W94030  40.988  17.273   4.379
27248W        W94031  29.390   0.513  11.504
27249W        W94032  30.017  16.456   2.111
27250W        W94033  11.627  29.236  12.613
27251W        W94034   0.761  32.503  13.374
27252W        W94035  18.062  29.956   4.090
27253W        W94036  40.420   7.174   3.760
27254W        W94037   5.500   3.796  11.660
27255W        W94038  17.860  21.065   2.735
27256W        W94039  43.593  11.315   0.770
27257W        W94040  14.968  18.413  14.224
27258W        W94041  32.501  12.208  13.167
27259W        W94042  33.336  28.159   4.201
27260W        W94043   8.257  27.464   2.197
27261W        W94044  13.403   8.227   9.775
27262W        W94045  25.384  34.526   0.733
27263W        W94046  40.485   5.421   0.037
27264W        W94047  14.466  24.243  13.014
27265W        W94048  12.441  38.616   4.185
27266W        W94049  43.031  14.059   3.528
27267W        W94050  25.177  35.845  13.349
27268W        W94051   8.691  13.383   0.193
27269W        W94052  30.672   2.699  14.354
27270W        W94053  33.831  25.880   4.126
27271W        W94054   6.024  27.649  12.299
27272W        W94055   7.214  25.699   3.162
27273W        W94056  23.124   2.509   2.421
27274W        W94057  33.240  31.391   4.296
27275W        W94058   0.433  35.368   1.205
27276W        W94059   1.493  24.068  14.759
27277W        W94060  43.403  42.060  14.377
27278W        W94061  20.451  43.314   0.076
27279W        W94062  15.082  44.895  13.439
27280W        W94063  26.612  24.463  14.930
27281W        W94064  42.606  14.328   9.758
27282W        W94065  11.907  21.518   0.371
27283W        W94066  44.818  29.525   3.586
27284W        W94067  23.966  25.627   1.333
27285W        W94068  41.590  12.103   3.201
27286W        W94069  25.520  13.512  13.837
27287W        W94070  31.114  28.950  11.688
27288W        W94071  14.113  32.061   4.565
27289W        W94072  14.320  41.102  12.072
27290W        W94073  32.423   5.785   4.749
27291W        W94074   2.628  39.899  12.947
27292W        W94075  35.138  28.455  13.842
27293W        W94076  31.389   7.742  12.450
27294W        W94077  38.499  24.034  14.991
27295W        W94078  10.861  21.679   0.169
27296W        W94079  43.967  30.606  10.429
27297W        W94080   6.827  23.969   3.628
27298W        W94081  14.773  31.981   1.148
27299W        W94082   0.285  22.751  11.015
27300W        W94083  25.089  42.430  11.150
27301W        W94084  25.068  32.486   0.005
27302W        W94085   5.380  27.615   1.914
27303W        W94086  13.658  31.091   1.327
27304W        W94087  37.812  15.299   3.809
27305W        W94088  42.289   4.529   0.245
27306W        W94089  18.730  28.584   0.558
27307W        W94090   3.869  21.155  12.984
27308W        W94091  17.985  21.555   2.796
27309W        W94092  22.029   0.254   4.553
27310W        W94093  14.594  29.457  13.492
27311W        W94094   5.237   2.751  14.699
27312W        W94095  32.188  25.782   2.806
27313W        W94096  24.633  32.568   5.132
27314W        W94097   0.202  15.578  13.560
27315W        W94098   8.076   6.397  13.301
27316W        W94099  23.453  21.017   0.910
27317W        W94100  26.531  11.392   1.389
27318W        W94101  15.726  40.390  13.325
27319W        W94102  44.885  40.349   2.133
27320W        W94103  13.929  10.772   3.659
27321W        W94104  12.148  24.071   1.315
27322W        W94105   1.181  16.611  11.885
27323W        W94106  44.945  44.276  14.952
27324W        W94107  24.606   1.323   2.760
27325W        W94108  39.067   5.103  14.442
27326W        W94109  31.509  36.449  11.705
27327W        W94110  32.631   3.545  10.248
27328W        W94111   6.816   6.340  13.507
27329W        W94112  21.949  11.016   0.774
27330W        W94113   3.010  42.275  10.850
27331W        W94114  16.929  16.047  11.085
27332W        W94115  13.263  10.131  13.787
27333W        W94116  25.962  34.088   1.750
27334W        W94117   0.866  25.055  12.632
27335W        W94118  13.159  27.978  10.714
27336W        W94119  12.268  14.903  13.303
27337W        W94120  22.437  12.777   4.716
27338W        W94121  23.053   5.372  10.271
27339W        W94122  40.875   7.866   4.634
27340W        W94123  34.964  26.552   4.965
27341W        W94124  30.509   9.941  10.886
27342W        W94125  23.687  28.020  13.928
27343W        W94126  17.227   2.789  11.396
27344W        W94127  17.689  27.168   1.291
27345W        W94128   6.943  29.951  11.880
27346W        W94129  37.013  18.223   4.496
27347W        W94130  34.987  44.155  14.391
27348W        W94131  37.204  36.873   3.352
27349W        W94132  19.454   0.712  12.062
27350W        W94133  37.743  21.742  10.209
27351W        W94134  18.783  17.086   3.712
27352W        W94135  29.090  41.014  12.872
27353W        W94136   0.316  30.219  13.099
27354W        W94137  35.456  10.097   4.100
27355W        W94138  26.939  11.305  12.375
27356W        W94139  11.227  30.698  13.880
27357W        W94140  33.066   7.793   2.110
27358W        W94141  30.585  10.485   3.272
27359W        W94142  15.782  21.817  10.098
27360W        W94143  13.789  39.032   4.666
27361W        W94144  15.584  12.633  13.568
27362W        W94145   2.132  26.394   4.507
27363W        W94146   8.705  39.060   2.653
27364W        W94147   2.951  39.472   3.105
27365W        W94148  35.870  22.508  11.017
27366W        W94149  17.662  11.713  12.391
27367W        W94150  11.611  17.180  11.592
27368W        W94151  10.976  14.034   1.446
27369W        W94152  10.846   8.838  13.366
27370W        W94153  38.047  17.865  11.450
27371W        W94154  22.103  36.738  11.120
27372W        W94155  19.643  42.225   0.928
27373W        W94156  35.926  43.930  12.805
27374W        W94157  44.872  26.703  11.403
27375W        W94158  29.471  11.022  11.607
27376W        W94159  44.898  37.024  13.766
27377W        W94160  33.881  40.356  13.893
27378W        W94161  31.337   6.484  12.064
27379W        W94162  26.163   1.787  13.087
27380W        W94163  16.397  36.318  13.943
27381W        W94164  40.050  36.508  13.557
27382W        W94165  32.210  29.537   2.206
27383W        W94166  21.975  44.203  11.519
27384W        W94167  22.354   0.886  11.624
27385W        W94168  31.367  41.975  12.998
27386W        W94169  18.401  37.841   3.637
27387W        W94170  42.472  31.230  13.008
27388W        W94171   2.353  13.277   4.269
27389W        W94172  31.722  15.696   1.180
27390W        W94173  44.375   0.641  11.001
27391W        W94174   7.589   9.194  13.600
27392W        W94175  35.485  37.068   4.768
27393W        W94176  37.977  27.588   4.542
27394W        W94177   2.591  42.009   0.413
27395W        W94178  24.275  21.749  11.021
27396W        W94179  35.505  17.113   2.227
27397W        W94180  14.680   4.915   0.337
27398W        W94181  21.672  37.426   1.679
27399W        W94182  39.055  17.846  14.842
27400W        W94183  15.716  25.190   2.155
27401W        W94184  15.700  27.036  12.190
27402W        W94185  25.074  44.493   1.650
27403W        W94186  32.961  17.626  11.300
27404W        W94187   5.486  23.313   3.195
27405W        W94188  28.654   4.761   2.397
27406W        W94189  14.809  38.704   3.690
27407W        W94190  10.896  15.714  10.225
27408W        W94191  21.691   8.211   1.932
27409W        W94192  21.174  42.150  10.001
27410W        W94193  26.989  41.980  12.526
27411W        W94194  25.193  34.568   1.361
27412W        W94195  14.457  29.677  13.041
27413W        W94196   2.403  11.361   3.195
27414W        W94197  35.054  30.037  11.131
27415W        W94198  11.340  29.994   3.408
27416W        W94199  26.461  16.784  13.927
27417W        W94200  23.686  40.890   3.164
27418W        W94201   7.215  18.687   3.068
27419W        W94202   5.279  38.965  14.105
27420W        W94203  39.463  21.440   1.426
27421W        W94204  23.226  22.631   3.578
27422W        W94205   6.277   5.771   4.545
27423W        W94206  19.699  23.391   1.465
27424W        W94207   5.124  34.089   4.188
27425W        W94208  32.534  36.943   4.669
27426W        W94209  23.095   4.838   2.633
27427W        W94210  33.072   5.866   1.333
27428W        W94211   7.913  10.042  12.644
27429W        W94212   2.863  28.492  12.860
27430W        W94213  33.491  20.102   1.236
27431W        W94214  44.321  28.706   4.196
27432W        W94215   9.894   6.660  10.324
27433W        W94216  41.940  11.339   3.420
27434W        W94217   6.852   6.657  12.125
27435W        W94218   8.512  20.974  11.126
27436W        W94219   8.817  37.657   1.206
27437W        W94220  32.046  30.680   0.529
27438W        W94221  34.491  32.973   0.037
27439W        W94222  14.544  37.816   2.831
27440W        W94223  23.623  34.250   4.276
27441W        W94224   0.242  15.106  12.957
27442W        W94225  33.463  44.163  10.911
27443W        W94226  38.636   0.728   1.455
27444W        W94227  13.771   6.142  12.156
27445W        W94228  31.405  15.264   1.256
27446W        W94229  35.634  41.458   0.654
27447W        W94230  33.907  41.970   0.807
27448W        W94231  12.650   2.205  14.774
27449W        W94232  41.219  35.656   2.894
27450W        W94233   3.504  20.579   3.230
27451W        W94234  32.564  41.144   4.398
27452W        W94235  17.280  31.945  10.364
27453W        W94236  21.795  39.019  12.783
27454W        W94237   7.245  36.643   2.278
27455W        W94238   2.730  23.473   1.243
27456W        W94239  26.184   5.310  14.747
27457W        W94240  38.498  28.613  11.593
27458W        W94241  23.170  17.289   2.225
27459W        W94242   3.906  22.335  10.673
27460W        W94243  39.452  11.096   2.682
27461W        W94244  29.532  30.636  13.874
27462W        W94245  26.730   4.966   2.437
27463W        W94246  22.084  19.091  14.181
27464W        W94247  28.208  12.820   4.115
27465W        W94248   4.794  15.062   0.355
27466W        W94249  35.444  40.996   2.471
27467W        W94250  44.230  40.051  14.360
27468W        W94251  19.492  44.846  10.720
27469W        W94252   0.805  12.198  13.097
27470W        W94253   3.082  11.213   0.384
27471W        W94254  39.627   5.314   0.310
27472W        W94255  40.780  34.087  12.518
27473W        W94256  28.040  13.285   4.273
27474W        W94257  38.811  26.165  11.994
27475W        W94258  16.948  37.922   2.291
27476W        W94259  20.894   5.846   1.245
27477W        W94260  23.012  32.167   0.473
27478W        W94261  33.875  30.959   4.217
27479W        W94262  39.587  24.545   4.810
27480W        W94263  27.889   6.868  10.893
27481W        W94264  25.882  42.967   3.788
27482W        W94265   0.501  21.227  11.172
27483W        W94266  39.057  33.272   4.149
27484W        W94267  31.041  32.171   0.378
27485W        W94268  12.560  31.550  11.940
27486W        W94269  23.944  20.686  13.933
27487W        W94270  32.475  14.690  11.544
27488W        W94271   1.844   5.316   0.506
27489W        W94272  36.414   9.864  11.161
27490W        W94273   1.390  18.357   4.205
27491W        W94274  18.904  19.253   2.808
27492W        W94275   7.391   1.738   0.891
27493W        W94276  31.109  36.974   2.156
27494W        W94277  37.103  32.266   3.349
27495W        W94278   3.300  31.320  11.569
27496W        W94279  30.469  39.478   0.764
27497W        W94280  29.196  18.804   3.915
27498W        W94281  24.604  28.609  10.603
27499W        W94282  12.418  40.883  13.414
27500W        W94283  30.142  15.687  12.009
27501W        W94284  34.551   4.158  11.191
27502W        W94285  33.557   6.433   0.473
27503W        W94286  36.139   4.476   4.354
27504W        W94287  37.783  33.686   2.425
27505W        W94288   1.810  41.967  12.842
27506W        W94289   3.951  18.581   0.690
27507W        W94290  43.313   0.783   4.694
27508W        W94291  16.114  36.364   9.852
27509W        W94292   4.434  10.251  12.399
27510W        W94293  28.666   4.840   4.718
27511W        W94294   2.874  19.773   2.698
27512W        W94295  31.931  30.433  13.579
27513W        W94296  12.120  19.203  13.835
27514W        W94297  18.426  30.985  11.487
27515W        W94298  33.200  36.111   2.466
27516W        W94299  40.094   4.609   1.293
27517W        W94300   8.275  19.958  11.165
27518W        W94301  41.367  27.695  12.819
27519W        W94302  15.033  16.185   5.746
27520W        W94303   8.910  29.417  13.488
27521W        W94304  10.231   2.818   1.444
27522W        W94305   2.754  12.868  14.449
27523W        W94306  27.456  25.243  13.084
27524W        W94307  19.574  34.400   2.171
27525W        W94308  12.397  39.445  12.182
27526W        W94309  34.360  43.447   2.226
27527W        W94310  23.258  44.988   4.546
27528W        W94311  24.061  11.085   4.743
27529W        W94312   7.139  38.529   2.748
27530W        W94313  19.638  11.569   3.176
27531W        W94314  28.574  15.769   2.118
27532W        W94315  29.840  37.514  13.415
27533W        W94316   9.600  31.874   1.328
27534W        W94317  19.311   5.616  13.483
27535W        W94318  42.137  32.624  12.125
27536W        W94319  15.227  12.003   0.868
27537W        W94320  14.617   0.786  12.507
27538W        W94321   6.184   9.999   1.275
27539W        W94322  22.652  44.287  10.967
27540W        W94323   8.130   4.003   2.252
27541W        W94324  19.692  13.728  12.447
27542W        W94325  42.319   0.635  13.131
27543W        W94326  26.023  16.387   0.867
27544W        W94327   8.074  23.558  11.407
27545W        W94328  14.591  31.918  14.769
27546W        W94329  37.168  14.478   2.005
27547W        W94330  25.680  36.058  11.574
27548W        W94331  14.072  36.671  12.353
27549W        W94332  13.105  20.508   4.089
27550W        W94333  21.844   1.434  13.833
27551W        W94334  20.499   7.315   2.182
27552W        W94335  14.121   0.403   1.170
27553W        W94336  43.217  31.940   2.299
27554W        W94337  38.017  10.755   2.271
27555W        W94338  27.445  16.397  11.432
27556W        W94339  24.073  26.042   2.285
27557W        W94340   0.036  43.962  14.546
27558W        W94341  39.568  21.631  12.133
27559W        W94342  14.232  22.502  12.458
27560W        W94343   9.673  20.849  11.282
27561W        W94344  19.800   6.367  10.669
27562W        W94345   9.154  13.356   2.190
27563W        W94346   2.353  41.727   1.717
27564W        W94347  11.478  20.687  10.629
27565W        W94348   0.176  16.218   3.705
27566W        W94349  11.636  26.583   0.802
27567W        W94350  39.502  16.167   3.689
27568W        W94351  21.590   3.939   3.228
27569W        W94352   4.374  20.669  10.985
27570W        W94353  28.400  33.754  13.871
27571W        W94354  35.545   3.355  12.479
27572W        W94355  14.186   7.776   2.994
27573W        W94356  27.529   7.710  13.461
27574W        W94357   4.884  36.576  13.067
27575W        W94358  14.866  18.798  11.016
27576W        W94359   6.789  40.777   4.505
27577W        W94360  14.748   1.016  13.913
27578W        W94361   2.382  43.881   4.276
27579W        W94362  29.206  35.511  13.297
27580W        W94363  25.215  18.208   5.123
27581W        W94364  32.988   0.205  14.896
27582W        W94365   3.491  20.704   4.106
27583W        W94366  39.035   3.331  14.623
27584W        W94367  11.794  32.197   2.930
27585W        W94368  34.591   3.211   3.329
27586W        W94369  31.603  44.008  13.015
27587W        W94370   8.872  31.440   4.557
27588W        W94371  14.669  24.971  10.711
27589W        W94372  10.764  28.020   3.711
27590W        W94373  18.919  36.396   0.050
27591W        W94374  22.163  33.663   0.466
27592W        W94375  37.003   3.209   5.130
27593W        W94376  14.170  13.106  11.491
27594W        W94377  38.728  12.855   2.605
27595W        W94378  18.878   3.937  13.823
27596W        W94379  37.846  41.039   1.478
27597W        W94380  19.584  26.000   2.854
27598W        W94381   6.864   6.600   1.184
27599W        W94382  42.436  44.772   0.514
27600W        W94383  12.162  14.615   2.348
27601W        W94384  29.717  17.744   3.616
27602W        W94385  40.090  31.578   4.071
27603W        W94386   7.892  31.906  14.056
27604W        W94387  12.878   2.984  12.655
27605W        W94388   7.149  42.682   1.134
27606W        W94389  27.569   7.293   4.236
27607W        W94390  29.180  18.840  14.966
27608W        W94391  34.160  42.328  11.092
27609W        W94392  44.406  41.964   1.875
27610W        W94393  12.241  39.755  11.118
27611W        W94394  14.307  40.001  11.271
27612W        W94395  27.499  30.562   2.119
27613W        W94396  23.176  23.655  11.689
27614W        W94397  29.332  10.645   1.244
27615W        W94398  28.979  31.102   3.412
27616W        W94399  25.970  21.465  14.887
27617W        W94400  19.443  44.413  13.553
27618W        W94401  28.587  13.223   0.410
27619W        W94402  14.513  14.245   4.747
27620W        W94403  13.972   1.469  12.684
27621W        W94404  17.574  32.166  12.610
27622W        W94405   1.442  23.422   1.033
27623W        W94406  39.872  43.065  13.777
27624W        W94407  31.718  28.033   1.466
27625W        W94408  33.395  15.924  13.833
27626W        W94409  32.136  27.272  11.143
27627W        W94410  23.849   5.288   2.800
27628W        W94411  12.742  14.902   4.031
27629W        W94412  25.669  38.470   2.786
27630W        W94413  12.403  16.743   0.486
27631W        W94414  42.425  42.297   3.147
27632W        W94415  39.297  28.144  12.876
27633W        W94416  22.214  32.014   4.516
27634W        W94417  29.008  27.746  13.532
27635W        W94418  44.409   4.978  12.864
27636W        W94419  30.115  37.640   4.562
27637W        W94420  24.805  29.743   3.308
27638W        W94421  32.416  13.890  13.998
27639W        W94422   6.896  13.769   1.217
27640W        W94423   1.548  22.611   1.444
27641W        W94424  27.139   8.452   3.816
27642W        W94425   6.885  15.688  13.545
27643W        W94426  12.648   2.475  13.747
27644W        W94427  33.391   3.208   2.169
27645W        W94428  26.693  43.678   0.955
27646W        W94429  35.611  31.377   2.674
27647W        W94430  26.935  39.385  13.909
27648W        W94431   8.141  10.912  13.418
27649W        W94432  44.896  19.832  13.483
27650W        W94433   1.393  12.383  11.302
27651W        W94434  35.943  16.653   3.222
27652W        W94435   0.765  28.984   0.118
27653W        W94436  22.658  28.521   1.153
27654W        W94437  42.906  22.165  11.939
27655W        W94438  25.687  40.956   0.368
27656W        W94439  28.051   8.715   4.265
27657W        W94440  29.562  42.088  13.392
27658W        W94441  25.044   1.729  14.390
27659W        W94442  43.404   9.423   2.987
27660W        W94443   0.965  43.577   4.119
27661W        W94444   5.570  10.495   0.331
27662W        W94445  33.866  34.481  11.333
27663W        W94446   7.041  30.647  14.804
27664W        W94447  11.611  35.498   0.849
27665W        W94448  32.103  40.952   4.595
27666W        W94449   4.453  24.266   2.687
27667W        W94450  14.778  31.636  14.321
27668W        W94451   5.271   3.303  11.023
27669W        W94452  39.283   7.790  13.632
27670W        W94453  11.735  31.445   1.748
27671W        W94454  41.494  20.530  14.387
27672W        W94455  14.393  40.615  12.817
27673W        W94456  11.413   1.056   4.481
27674W        W94457  34.403   7.145   0.228
27675W        W94458  35.921  15.054  13.367
27676W        W94459  40.948  17.405  14.638
27677W        W94460  38.936  32.414   2.887
27678W        W94461   0.806  41.500  14.049
27679W        W94462   2.784   5.935   1.499
27680W        W94463  34.204  24.348   4.309
27681W        W94464  18.233   1.693   1.622
27682W        W94465  14.241  29.508  14.256
27683W        W94466  21.905  30.125  14.432
27684W        W94467  16.386   0.994   3.756
27685W        W94468  43.898  11.588  10.960
27686W        W94469   5.274  22.449  10.390
27687W        W94470  16.086  22.034  12.344
27688W        W94471  21.454  38.875  10.205
27689W        W94472   5.448  36.994  11.650
27690W        W94473  24.444  39.569  13.329
27691W        W94474  17.658   8.276   2.824
27692W        W94475  36.028  22.216   4.229
27693W        W94476  22.717   5.944   4.500
27694W        W94477  26.391  42.306   0.209
27695W        W94478  19.912   8.772   0.235
27696W        W94479   8.345  44.618   4.091
27697W        W94480  23.986  22.855   4.292
27698W        W94481  30.230  14.306  11.131
27699W        W94482  17.525  26.977  12.386
27700W        W94483  21.185  11.174  11.278
27701W        W94484  26.520  44.554  14.359
27702W        W94485  18.385  12.829   3.666
27703W        W94486   9.379  18.635  14.381
27704W        W94487  23.156   4.895   5.648
27705W        W94488  35.288  41.426  13.567
27706W        W94489   9.805   6.199   3.340
27707W        W94490  37.005   8.134  11.135
27708W        W94491   6.012  22.741   2.635
27709W        W94492  37.964  34.125   3.283
27710W        W94493  36.842   8.842  13.800
27711W        W94494   6.384  20.751   1.772
27712W        W94495  44.698  17.625  12.895
27713W        W94496  30.179  22.909   3.056
27714W        W94497  12.356  29.388  14.797
27715W        W94498  28.456   5.449  11.988
27716W        W94499  31.570  43.172  11.660
27717W        W94500  37.004   9.513   4.615
27718W        W94501  32.941  40.910   3.542
27719W        W94502  19.883  11.116   4.766
27720W        W94503   1.686  10.222  12.458
27721W        W94504  15.527  23.357  11.046
27722W        W94505  32.886   8.976  10.403
27723W        W94506   1.019  27.146  14.852
27724W        W94507  34.032   8.378   4.440
27725W        W94508  31.581  22.397   4.212
27726W        W94509  24.723  27.871   1.279
27727W        W94510  17.676   1.719   2.943
27728W        W94511  20.834  24.709   3.757
27729W        W94512  42.246   6.961  13.962
27730W        W94513  12.536  13.344   1.818
27731W        W94514  13.726  24.702  14.563
27732W        W94515   4.410   4.534  12.540
27733W        W94516  39.512  42.383  12.021
27734W        W94517  10.663   2.280   3.720
27735W        W94518  21.441  33.435  14.829
27736W        W94519  34.633  20.984   3.306
27737W        W94520  20.824  17.798   1.737
27738W        W94521  28.508   9.297  10.663
27739W        W94522   6.792  35.465   4.480
27740W        W94523   0.365  39.942   3.635
27741W        W94524  26.989  43.057  12.487
27742W        W94525  32.689   9.299   2.729
27743W        W94526  17.850  38.473   1.669
27744W        W94527  24.982  18.142  11.103
27745W        W94528  43.352   8.515  13.314
27746W        W94529   5.415  15.967   1.277
27747W        W94530  39.480  38.390   2.733
27748W        W94531  28.932  14.192  11.545
27749W        W94532   2.278  28.617  12.790
27750W        W94533   4.324  41.542  11.486
27751W        W94534  22.248  31.774  13.250
27752W        W94535  35.927  17.525   0.748
27753W        W94536  12.391   9.798   4.377
27754W        W94537  17.057  18.144   2.376
27755W        W94538  35.558  15.863  12.984
27756W        W94539   5.323  10.262  12.510
27757W        W94540  33.416   8.401  13.395
27758W        W94541  39.231  14.780   1.146
27759W        W94542  35.151   7.750   4.273
27760W        W94543  37.025   6.397   2.324
27761W        W94544  31.525   5.425   2.740
27762W        W94545  31.122  15.049  13.118
27763W        W94546  31.496  36.287   0.340
27764W        W94547  29.879  10.689   3.596
27765W        W94548  26.224  32.776   1.794
27766W        W94549  24.198  38.638  12.102
27767W        W94550  34.603  21.099   0.927
27768W        W94551  12.681  17.145   4.491
27769W        W94552   6.297  43.051  10.720
27770W        W94553   3.561  19.999   4.565
27771W        W94554  17.555  28.396   3.641
27772W        W94555  17.219   5.358   4.082
27773W        W94556   7.289  39.855  13.965
27774W        W94557  23.231  18.673  11.954
27775W        W94558  22.533   8.107  11.168
27776W        W94559   9.130  15.494   2.640
27777W        W94560  37.069  16.063  13.548
27778W        W94561  43.459  18.668   1.775
27779W        W94562  31.576  18.956   2.883
27780W        W94563  35.364  42.323   4.104
27781W        W94564   7.936  31.026  14.915
27782W        W94565  32.822  22.823   0.335
27783W        W94566  15.310  39.642   4.120
27784W        W94567  44.423   2.991  10.569
27785W        W94568  44.278  39.631  14.049
27786W        W94569  26.883  13.229  14.463
27787W        W94570  34.895   9.150  12.521
27788W        W94571  13.272   0.876  14.273
27789W        W94572   1.453  22.734   3.590
27790W        W94573  12.125  15.999  14.011
27791W        W94574   0.734  24.250   0.099
27792W        W94575  19.525  12.415   4.842
27793W        W94576  35.671  20.307  11.205
27794W        W94577  10.329   0.505   3.633
27795W        W94578  44.841   8.712  11.909
27796W        W94579   5.296  10.770   3.673
27797W        W94580  35.923   7.960  14.612
27798W        W94581  15.654  30.593  10.772
27799W        W94582  10.728  39.261  13.159
27800W        W94583  14.617   4.396   2.830
27801W        W94584  20.119  31.862  12.513
27802W        W94585  26.425  19.867   3.863
27803W        W94586  12.007   7.499   0.266
27804W        W94587  38.317  21.266   1.160
27805W        W94588  12.181  32.085  14.050
27806W        W94589  13.770   0.752   1.306
27807W        W94590   6.750  13.323  13.456
27808W        W94591   0.200   1.092   3.297
27809W        W94592  15.705  43.289   3.811
27810W        W94593  31.633  32.934  14.964
27811W        W94594   8.806  30.726  14.495
27812W        W94595  42.640  44.456  12.748
27813W        W94596  31.900  39.861   3.211
27814W        W94597  23.448  26.044   3.607
27815W        W94598   6.884  31.996   0.014
27816W        W94599  37.182  40.339   2.803
27817W        W94600  20.990   8.399   0.205
27818W        W94601  38.458   2.496   1.822
27819W        W94602  42.227  29.835  14.300
27820W        W94603  33.462  31.096   3.581
27821W        W94604  27.996  13.445   0.778
27822W        W94605  10.362   0.734  14.066
27823W        W94606  15.973  39.695  12.719
27824W        W94607   3.905  11.484   0.962
27825W        W94608   5.124  21.273  13.384
27826W        W94609  19.958  15.411   0.371
27827W        W94610  42.645  39.914  13.396
27828W        W94611  15.323  43.247  13.043
27829W        W94612   5.222   5.838  11.150
27830W        W94613   7.916  10.620  14.842
27831W        W94614  34.077  16.519  11.992
27832W        W94615  22.766  37.817   0.344
27833W        W94616  10.850  36.388   3.907
27834W        W94617  40.787  36.905   0.774
27835W        W94618   1.763  24.941  13.785
27836W        W94619  24.585  37.588   2.338
27837W        W94620  28.710  16.180  14.026
27838W        W94621  35.140  34.114   0.337
27839W        W94622  34.280  42.825   0.513
27840W        W94623  15.592   9.607  12.494
27841W        W94624   3.214   6.441   4.218
27842W        W94625   7.142   7.524  13.918
27843W        W94626  21.237   8.281   1.625
27844W        W94627   1.408   1.148   3.662
27845W        W94628  14.406  35.220   5.593
27846W        W94629  35.872  35.177  14.253
27847W        W94630   0.279   4.044   4.496
27848W        W94631  26.915  16.715  10.546
27849W        W94632  35.346  26.212  14.417
27850W        W94633  35.047  15.294   0.810
27851W        W94634  31.944  13.875   0.299
27852W        W94635  23.918   0.452   1.843
27853W        W94636  16.152  44.038  13.916
27854W        W94637  16.388  11.672   3.674
27855W        W94638   0.795  23.393  14.893
27856W        W94639  35.552  12.219  12.575
27857W        W94640  36.829  32.749  14.962
27858W        W94641   3.814  26.990  10.356
27859W        W94642   1.423   0.895  10.698
27860W        W94643  30.995  36.587  14.478
27861W        W94644   1.366  39.137   0.456
27862W        W94645  25.206  30.578  11.050
27863W        W94646  20.370  42.973   3.161
27864W        W94647  13.818  31.015  14.839
27865W        W94648  27.682  23.581  13.312
27866W        W94649  36.674   3.208   0.929
27867W        W94650  20.789  24.227   0.234
27868W        W94651  23.323  13.757   3.688
27869W        W94652   2.835   9.027   4.332
27870W        W94653  31.746  43.956   0.403
27871W        W94654  35.511  23.179   4.464
27872W        W94655  23.727  38.097  14.347
27873W        W94656  42.981  38.854  13.907
27874W        W94657  27.166  30.638   3.238
27875W        W94658  35.688  40.554   2.740
27876W        W94659  17.313   9.533  12.492
27877W        W94660   5.948  24.006   0.859
27878W        W94661  39.963  26.171  13.470
27879W        W94662  11.494  19.153   1.426
27880W        W94663  41.364  32.062   2.678
27881W        W94664  28.786   2.939   3.652
27882W        W94665  23.476  22.133  13.030
27883W        W94666  18.622   4.217   3.050
27884W        W94667  30.101   5.536  14.939
27885W        W94668  31.893  15.518  11.583
27886W        W94669   0.841  25.881   4.716
27887W        W94670   6.854  35.775  14.888
27888W        W94671  43.489   3.296   4.095
27889W        W94672  23.273  31.448   4.149
27890W        W94673   3.484  26.248  11.168
27891W        W94674  17.047  29.341   1.690
27892W        W94675  44.383  28.659  13.967
27893W        W94676   8.418  32.051   2.493
27894W        W94677  32.526  25.605   4.381
27895W        W94678   5.960  41.037   1.709
27896W        W94679  26.487  22.373   1.841
27897W        W94680  30.029   6.742   4.585
27898W        W94681  17.479  13.031  13.245
27899W        W94682  36.848  33.070   2.038
27900W        W94683  40.929   9.613  11.795
27901W        W94684  13.904  26.035   3.173
27902W        W94685  34.383  41.864   1.017
27903W        W94686  32.155  23.746  12.635
27904W        W94687  35.452  38.000   3.103
27905W        W94688  27.655  13.973   1.829
27906W        W94689  18.035  30.084   2.103
27907W        W94690  26.992  24.311   1.174
27908W        W94691  20.534   6.940   1.792
27909W        W94692  41.083   4.074   1.891
27910W        W94693  30.016  34.335  11.432
27911W        W94694  32.653  33.788  11.077
27912W        W94695  15.835  23.975   3.286
27913W        W94696  11.912  12.792   3.414
27914W        W94697  12.878   9.826  12.552
27915W        W94698  36.570  15.720   1.159
27916W        W94699  21.659  23.024   1.484
27917W        W94700  31.962  24.048  14.318
27918W        W94701  19.108  35.722   3.312
27919W        W94702  35.401  43.833  11.501
27920W        W94703  14.079   1.719   4.269
27921W        W94704  43.705  42.859   4.607
27922W        W94705  27.120  21.241  14.824
27923W        W94706   6.381  22.130  11.419
27924W        W94707  22.852  39.969  10.690
27925W        W94708  41.432   9.793  11.915
27926W        W94709   6.282  36.053  11.958
27927W        W94710  23.796  40.813  10.588
27928W        W94711   5.322  36.645  12.015
27929W        W94712   4.875  31.201  11.087
27930W        W94713  24.322  28.474  14.336
27931W        W94714  37.857  10.290  10.710
27932W        W94715  36.035  28.589  13.345
27933W        W94716   2.909  18.033   0.785
27934W        W94717  36.965  16.269   3.626
27935W        W94718  28.056  14.935   3.053
27936W        W94719  44.492  14.813   3.575
27937W        W94720   1.765  14.998  14.377
27938W        W94721  35.810  44.976  11.455
27939W        W94722  31.999  38.831  13.005
27940W        W94723  25.704  30.860  12.007
27941W        W94724  16.134  39.807   0.310
27942W        W94725  11.785   3.994  11.062
27943W        W94726  30.857  25.408  11.439
27944W        W94727  43.794  31.066  10.655
27945W        W94728   7.754  15.762   4.040
27946W        W94729  27.701   7.138  14.569
27947W        W94730  24.152  18.105  13.043
27948W        W94731  35.856   6.318  13.515
27949W        W94732  16.328  15.628   0.808
27950W        W94733  16.022  11.797  14.889
27951W        W94734  12.365  42.576  13.367
27952W        W94735  40.485  17.760   1.284
27953W        W94736  26.449  17.410   0.129
27954W        W94737  19.766  16.643  14.924
27955W        W94738  39.552  40.092  13.882
27956W        W94739   6.470  19.674   3.905
27957W        W94740   6.435  44.491  11.033
27958W        W94741  34.651  36.018  12.028
27959W        W94742  15.219  44.691   4.128
27960W        W94743  31.687   7.278  10.465
27961W        W94744   8.898   4.583   0.361
27962W        W94745  29.908  19.144  12.631
27963W        W94746  29.389  33.182  12.906
27964W        W94747  33.594  38.600   4.848
27965W        W94748   8.780  36.294   1.008
27966W        W94749  22.184  14.868   1.705
27967W        W94750   5.001  24.305  12.536
27968W        W94751  17.809  38.582  11.110
27969W        W94752  42.881  18.485   4.086
27970W        W94753   0.802  44.949  12.591
27971W        W94754  28.921  39.153  14.436
27972W        W94755  25.248   7.562  12.918
27973W        W94756   7.463   0.011   2.349
27974W        W94757  26.625  42.485  12.966
27975W        W94758  43.970  12.732  11.070
27976W        W94759  10.164  39.358   4.593
27977W        W94760  32.039   7.741  11.494
27978W        W94761  29.570  39.900  14.614
27979W        W94762  33.617   0.929   4.175
27980W        W94763  21.212  22.543   0.328
27981W        W94764   7.366  26.890   4.109
27982W        W94765  40.700  17.390  10.045
27983W        W94766  31.123  31.018  10.748
27984W        W94767   0.788  31.576   1.435
27985W        W94768   3.333  16.749   4.006
27986W        W94769   0.523  13.797   1.881
27987W        W94770   4.823  44.885  12.570
27988W        W94771  37.957   0.287   1.715
27989W        W94772   8.186   8.440   4.438
27990W        W94773   1.873  25.723   4.916
27991W        W94774  43.517   8.056  14.712
27992W        W94775  23.320  29.823  11.216
27993W        W94776  25.745  38.302   3.635
27994W        W94777  39.326   6.775   1.236
27995W        W94778   6.723   7.146  14.685
27996W        W94779  36.871   0.153   2.636
27997W        W94780  37.994  29.553   4.419
27998W        W94781  14.133   4.386   2.678
27999W        W94782  11.400  22.490  13.066
28000W        W94783  33.628  30.008  13.557
28001W        W94784  31.748  29.493  11.121
28002W        W94785   2.888  39.432   4.131
28003W        W94786   3.268  33.890  14.801
28004W        W94787   3.968  39.529   3.761
28005W        W94788   7.632  34.421  11.598
28006W        W94789   8.936  14.995  13.724
28007W        W94790  17.494  30.661  12.578
28008W        W94791   9.171   8.001  12.945
28009W        W94792  21.695  29.671   2.215
28010W        W94793  14.159  12.640   4.362
28011W        W94794  19.481  43.980  13.906
28012W        W94795  41.267  35.969  12.338
28013W        W94796  19.147  11.247   4.906
28014W        W94797  39.201   6.233  14.343
28015W        W94798  36.836  22.574  13.291
28016W        W94799  41.493  17.599   3.184
28017W        W94800  37.080   2.180   1.976
28018W        W94801  14.952  32.140  11.613
28019W        W94802  31.164  43.758  13.924
28020W        W94803   9.181   9.808  14.926
28021W        W94804  17.347  43.690  11.198
28022W        W94805  34.996   0.671  14.304
28023W        W94806  35.514  10.677  12.398
28024W        W94807  15.847   4.496   2.799
28025W        W94808   4.781  19.723   9.848
28026W        W94809  10.438   8.298  12.730
28027W        W94810   8.325  13.459   4.204
28028W        W94811  26.944   0.590   0.427
28029W        W94812   6.936  22.697   2.183
28030W        W94813  23.383   9.705   4.193
28031W        W94814  14.503  13.550  12.362
28032W        W94815  27.102   4.216  14.846
28033W        W94816   3.668  27.470  13.976
28034W        W94817  29.969  32.363   2.787
28035W        W94818  31.141  14.346   2.837
28036W        W94819  42.439  31.979  11.109
28037W        W94820  39.282   5.724  14.549
28038W        W94821  15.748  24.991  13.890
28039W        W94822  31.181   9.446  14.418
28040W        W94823  23.668   2.589  12.277
28041W        W94824   4.473  20.030  11.609
28042W        W94825  29.609  28.456  13.907
28043W        W94826  20.914  30.645   9.744
28044W        W94827  35.342  19.950  10.684
28045W        W94828  13.992  10.322  12.029
28046W        W94829  38.076  15.758   3.822
28047W        W94830  43.049  16.055   1.257
28048W        W94831   1.056  19.708  14.532
28049W        W94832  38.242  34.593   0.645
28050W        W94833  24.732  27.235   4.564
28051W        W94834   6.314  23.907  13.040
28052W        W94835  29.632  11.539  11.511
28053W        W94836  44.946  40.891  11.485
28054W        W94837  38.060  18.569   2.875
28055W        W94838  22.229  23.296  14.815
28056W        W94839  34.778  28.768  13.088
28057W        W94840  38.604   7.690  13.688
28058W        W94841  26.633  27.547  12.593
28059W        W94842  36.285  20.191   0.749
28060W        W94843   8.856  37.659  12.528
28061W        W94844  11.720  20.594  12.700
28062W        W94845  16.237  39.591  12.295
28063W        W94846  15.801  14.767   1.716
28064W        W94847   5.056  12.935  14.764
28065W        W94848   9.842  35.396  13.026
28066W        W94849  28.409  43.994  14.913
28067W        W94850  10.362   9.738  13.989
28068W        W94851  19.104  36.517  14.108
28069W        W94852  10.629  22.095   0.490
28070W        W94853  41.408   2.087   3.010
28071W        W94854  40.881  15.358   4.266
28072W        W94855  33.000   5.340  11.863
28073W        W94856  16.833  32.713  11.385
28074W        W94857  22.309  27.223   1.341
28075W        W94858  38.714  27.182   3.580
28076W        W94859  33.628  11.616  14.757
28077W        W94860  39.937  10.172   1.562
28078W        W94861  33.036  16.188   4.537
28079W        W94862  35.869  36.366   2.834
28080W        W94863  39.817   4.230   0.735
28081W        W94864  44.955  13.544   5.092
28082W        W94865  24.248  13.003   0.897
28083W        W94866  37.960  40.805  12.065
28084W        W94867  17.770  11.821   0.786
28085W        W94868  26.290  39.381  13.380
28086W        W94869  32.059  39.367   2.583
28087W        W94870  20.658  11.338  13.081
28088W        W94871  25.798  44.792  11.693
28089W        W94872  13.700  36.990   0.970
28090W        W94873  32.368  19.194   1.812
28091W        W94874  25.255   6.221  10.908
28092W        W94875  30.431  10.259   2.833
28093W        W94876  32.500  11.848   2.299
28094W        W94877   2.846  26.982   4.493
28095W        W94878  42.893  37.817   1.365
28096W        W94879  43.483  29.702   4.061
28097W        W94880  10.837  31.095   0.354
28098W        W94881  26.682  36.467  14.798
28099W        W94882  42.157   3.313  11.962
28100W        W94883  38.562  22.023  14.925
28101W        W94884   5.446  18.104   1.427
28102W        W94885  12.251  39.047   1.873
28103W        W94886  32.825  42.870  10.245
28104W        W94887  16.392   3.866   0.023
28105W        W94888  39.013  17.623   4.353
28106W        W94889   5.593   5.861  11.487
28107W        W94890  19.125  13.261   1.851
28108W        W94891  28.332  37.635  10.112
28109W        W94892   9.802  28.596   4.262
28110W        W94893  31.627  10.730   2.945
28111W        W94894  35.524   7.348   2.647
28112W        W94895  29.288  43.952  13.352
28113W        W94896   0.944  14.324  11.538
28114W        W94897   5.753  23.092  10.853
28115W        W94898  30.063  35.675  14.250
28116W        W94899  25.655  13.754  11.146
28117W        W94900  15.176  23.996   2.338
28118W        W94901   2.755  41.834   1.265
28119W        W94902   6.836  27.329  13.233
28120W        W94903  35.340  43.510  11.927
28121W        W94904   7.735  14.196  10.586
28122W        W94905  10.659  34.893  13.348
28123W        W94906  33.490  17.609  14.261
28124W        W94907  38.762  22.547  12.543
28125W        W94908  44.666  27.635  11.083
28126W        W94909  13.230  40.138   4.654
28127W        W94910  13.679  34.886  13.259
28128W        W94911   9.866  32.005  14.910
28129W        W94912  30.815  20.394   4.090
28130W        W94913  26.643  20.096  12.425
28131W        W94914  24.765  13.652  14.097
28132W        W94915  16.710  38.953   2.365
28133W        W94916  21.864  17.228   0.272
28134W        W94917  22.410  31.971   3.183
28135W        W94918  44.960  22.052   0.812
28136W        W94919  13.525  29.973  14.369
28137W        W94920  25.663  22.955   2.307
28138W        W94921  15.039   9.369  14.505
28139W        W94922  29.958  16.305   3.607
28140W        W94923  27.221   0.763   4.585
28141W        W94924   8.271  39.430   3.234
28142W        W94925  43.859   0.623   3.034
28143W        W94926  20.094  18.687  13.760
28144W        W94927   3.251  38.874  12.966
28145W        W94928  27.735  41.712  12.809
28146W        W94929  21.047  30.175   1.253
28147W        W94930  13.232  20.613  13.830
28148W        W94931  28.639  34.471   3.261
28149W        W94932  33.536  10.803   3.492
28150W        W94933   2.992  44.429  13.000
28151W        W94934  39.491  33.893  14.530
28152W        W94935   8.595   4.181  13.372
28153W        W94936   1.434  31.932   0.818
28154W        W94937  26.176  43.909  11.650
28155W        W94938  16.371   2.793   0.012
28156W        W94939  25.798  28.456  14.451
28157W        W94940  25.591   5.607   1.746
28158W        W94941  42.118  41.598   0.357
28159W        W94942   3.812  37.984   2.489
28160W        W94943   3.225  40.943   4.515
28161W        W94944  41.128   1.555   3.697
28162W        W94945   9.132  33.668  12.383
28163W        W94946  18.078  10.247  13.609
28164W        W94947  14.544  31.739   9.942
28165W        W94948  18.795  32.475   3.677
28166W        W94949  33.821   6.001   3.119
28167W        W94950   2.642  40.434  13.760
28168W        W94951  35.208  27.009  13.617
28169W        W94952  44.907  43.522  12.582
28170W        W94953  27.146  19.494   0.740
28171W        W94954   5.117  29.135  11.676
28172W        W94955   1.929  11.721   4.489
28173W        W94956   4.288  39.560  11.906
28174W        W94957  36.607   5.367  14.468
28175W        W94958  35.275   5.878  10.651
28176W        W94959  38.930  43.971  10.503
28177W        W94960  10.010  22.954   1.996
28178W        W94961   1.352   3.709  11.980
28179W        W94962   8.719   4.603   3.219
28180W        W94963  28.272   8.677   1.863
28181W        W94964  16.733  10.291   4.594
28182W        W94965  17.308  44.532  12.778
28183W        W94966  32.221   2.789   1.862
28184W        W94967  28.522   9.365   0.424
28185W        W94968  18.305  39.825   2.666
28186W        W94969   3.373  42.808   3.450
28187W        W94970  26.976  36.108  11.586
28188W        W94971   0.115  34.954   0.280
28189W        W94972  32.893  30.136  10.693
28190W        W94973  34.974  21.720   1.265
28191W        W94974  29.542   3.630   0.946
28192W        W94975  39.980  30.338  12.136
28193W        W94976   9.755  18.597   3.041
28194W        W94977  35.054   3.299  11.705
28195W        W94978  42.141  44.952   2.440
28196W        W94979   7.735  11.423   4.210
28197W        W94980  44.259  16.643  11.831
28198W        W94981  35.739  29.469  12.935
28199W        W94982  13.420  10.248  13.308
28200W        W94983   3.084  30.447   4.516
28201W        W94984   7.358  28.628  11.733
28202W        W94985  28.589  32.928   2.038
28203W        W94986  12.143  43.752  11.489
28204W        W94987   0.824  29.577  11.441
28205W        W94988  34.500  12.215   2.895
28206W        W94989  40.277   1.947   4.085
28207W        W94990  31.470  20.814  13.503
28208W        W94991  22.644  39.554   2.185
28209W        W94992  35.956  41.782   2.745
28210W        W94993  37.914  21.241   4.982
28211W        W94994   7.176  22.185  14.462
28212W        W94995  42.490  28.678   4.056
28213W        W94996  39.442  36.496  13.121
28214W        W94997  38.353  21.989  11.640
28215W        W94998  17.567   5.068  11.569
28216W        W94999  24.279   5.179   0.250
28217W        W95000  39.468  13.273   2.625
28218W        W95001  33.711  17.219  11.437
28219W        W95002  26.497  34.852  13.709
28220W        W95003  19.967  14.612   3.997
28221W        W95004  36.089  25.178  14.880
28222W        W95005  12.309  39.811   3.743
28223W        W95006   3.232   3.414  13.010
28224W        W95007  23.433  13.562  13.416
28225W        W95008  19.940  26.467   2.977
28226W        W95009  22.106   7.809  12.462
28227W        W95010  43.493   5.900   3.121
28228W        W95011  31.493  11.241   2.711
28229W        W95012  31.037  32.426   2.476
28230W        W95013  17.582  21.061  14.881
28231W        W95014   5.660  20.079  10.750
28232W        W95015  44.335  27.103   0.818
28233W        W95016  30.365   7.488   1.779
28234W        W95017  39.942   5.163  14.478
28235W        W95018  33.608  40.076   4.683
28236W        W95019  43.250   8.904  14.248
28237W        W95020  25.124  28.008   0.955
28238W        W95021  13.389   7.314   2.392
28239W        W95022  14.563   9.597   2.780
28240W        W95023   9.380   6.970   4.012
28241W        W95024  15.302   4.706  12.946
28242W        W95025  44.534  24.169  11.477
28243W        W95026  21.228   3.652  12.310
28244W        W95027  10.898  41.987   1.306
28245W        W95028  44.694  15.352   3.259
28246W        W95029  13.767  21.278  11.497
28247W        W95030  36.524  26.857  13.476
28248W        W95031  27.673  27.220   4.094
28249W        W95032  23.432  38.399  10.729
28250W        W95033  36.823  31.846   2.273
28251W        W95034  44.421  19.523  11.578
28252W        W95035  40.429  29.476   2.370
28253W        W95036  34.080  16.326   2.207
28254W        W95037  44.980  38.959  10.693
28255W        W95038   3.340  44.265  14.361
28256W        W95039  40.454  14.060   2.669
28257W        W95040  21.861  23.103  13.553
28258W        W95041  35.644  28.455   0.584
28259W        W95042  36.965  26.074  12.401
28260W        W95043  10.789  42.441  14.038
28261W        W95044  26.937  28.949  13.455
28262W        W95045  31.999  38.267  12.631
28263W        W95046  16.713  20.783  14.646
28264W        W95047  25.243  42.656   1.233
28265W        W95048  18.671  19.720   2.813
28266W        W95049  18.616  38.863  10.215
28267W        W95050  28.634  22.397   1.008
28268W        W95051  16.044  15.643  11.914
28269W        W95052  36.943  44.333   1.928
28270W        W95053  36.616  26.182  11.030
28271W        W95054   9.193  19.812   2.713
28272W        W95055  14.784  11.297   4.363
28273W        W95056  15.667  35.130  14.293
28274W        W95057   6.178  15.306  12.533
28275W        W95058  26.759   5.352  12.131
28276W        W95059  28.039   3.003   2.729
28277W        W95060  23.743  43.593   2.697
28278W        W95061  25.213  29.998  14.381
28279W        W95062   0.822   0.435   9.805
28280W        W95063   7.180  33.857   0.060
28281W        W95064  34.865  16.027  13.316
28282W        W95065   8.695   1.413  14.302
28283W        W95066  22.436  20.839   4.758
28284W        W95067  41.259  21.575   1.146
28285W        W95068  31.207  39.754   4.557
28286W        W95069  22.254  28.230   1.357
28287W        W95070  43.911  15.872   2.081
28288W        W95071   6.864  17.773   1.007
28289W        W95072  30.030  40.131  12.854
28290W        W95073  27.335  27.439   1.183
28291W        W95074  25.772  40.903  11.978
28292W        W95075  37.112   7.514   3.662
28293W        W95076  33.213  11.074   3.827
28294W        W95077   3.785   0.506  14.994
28295W        W95078  36.374  14.341   0.321
28296W        W95079  26.480  39.320  10.674
28297W        W95080  36.888  39.400   0.681
28298W        W95081  30.229  10.206   2.332
28299W        W95082  13.189  33.549   3.759
28300W        W95083  32.144   3.957   2.361
28301W        W95084   3.819  40.836   2.858
28302W        W95085  35.247  23.164  11.933
28303W        W95086  19.785  30.217   4.037
28304W        W95087   0.231  25.995  10.637
28305W        W95088  16.889  19.869   1.868
28306W        W95089  10.242  42.218  10.707
28307W        W95090  40.379  14.411  11.717
28308W        W95091   7.323  12.331   2.294
28309W        W95092  40.785  31.543   2.724
28310W        W95093   7.709  18.439   3.859
28311W        W95094  10.030  39.505   2.331
28312W        W95095  38.424  31.570  12.871
28313W        W95096  17.307  38.717   3.250
28314W        W95097  14.120   5.374  12.096
28315W        W95098  41.248  44.236   2.674
28316W        W95099  24.157  27.156  14.496
28317W        W95100  16.890  29.511  10.744
28318W        W95101  34.537  24.994  11.014
28319W        W95102  20.194   7.823   1.414
28320W        W95103   1.196  11.165  10.466
28321W        W95104  14.459  11.210   1.347
28322W        W95105   6.447  38.353  14.906
28323W        W95106   0.833  19.671   0.983
28324W        W95107  33.951  32.867  14.896
28325W        W95108   9.302  17.265   4.115
28326W        W95109   9.407  27.508  14.388
28327W        W95110  29.690  21.939   1.693
28328W        W95111  40.371   8.869   1.769
28329W        W95112  20.117  29.509  14.070
28330W        W95113  11.035   1.216   2.804
28331W        W95114  27.724   8.676   3.018
28332W        W95115  35.834  43.394  13.077
28333W        W95116   3.925  39.304  14.827
28334W        W95117  33.111  16.658   1.610
28335W        W95118   3.478  33.589   0.323
28336W        W95119  20.029  16.245  12.736
28337W        W95120   7.765   1.704   2.051
28338W        W95121  34.353  26.568   1.068
28339W        W95122  39.837  26.001  11.948
28340W        W95123  15.752  44.392  12.852
28341W        W95124  34.836  30.473   9.816
28342W        W95125  39.094  34.708  14.501
28343W        W95126   0.941  30.239   1.668
28344W        W95127  26.648  21.106  11.991
28345W        W95128  13.789  29.555  14.492
28346W        W95129  19.519  18.262  12.573
28347W        W95130  23.965  11.089  11.880
28348W        W95131  30.117   1.276   4.160
28349W        W95132  37.741   3.838   4.154
28350W        W95133  42.944  44.886  12.770
28351W        W95134   0.230  17.517  14.093
28352W        W95135  10.313  19.103  13.792
28353W        W95136  33.633   8.601  14.872
28354W        W95137  17.489   3.170  11.133
28355W        W95138  43.445  20.999   2.778
28356W        W95139  29.705  31.965   3.275
28357W        W95140  28.964  11.356   3.266
28358W        W95141  11.212  30.849  11.471
28359W        W95142  41.067   2.447   0.367
28360W        W95143  43.923   6.531  11.499
28361W        W95144  28.097   1.165   3.235
28362W        W95145   9.788   5.850  12.009
28363W        W95146  29.119  12.136  13.730
28364W        W95147  23.365  31.463  10.740
28365W        W95148  38.339  32.144   1.251
28366W        W95149  25.089   5.231   2.179
28367W        W95150  23.162   6.402  11.487
28368W        W95151  24.625  11.172   2.235
28369W        W95152  21.262  22.625   1.666
28370W        W95153  32.923   5.656   4.864
28371W        W95154   5.845  21.239  12.896
28372W        W95155  42.711  16.580  13.443
28373W        W95156  43.940  32.130  13.034
28374W        W95157  15.522  42.218  11.483
28375W        W95158  32.137  30.095   4.130
28376W        W95159   1.379  42.369   1.211
28377W        W95160  12.166   0.997   0.084
28378W        W95161  35.313  39.867   4.116
28379W        W95162  29.983  30.984   0.970
28380W        W95163  36.007  12.373  13.511
28381W        W95164   1.527  27.429  11.563
28382W        W95165  39.059  15.530  13.813
28383W        W95166  36.892  43.674   4.083
28384W        W95167  43.335  26.485  11.006
28385W        W95168  30.479   6.301   2.794
28386W        W95169  15.764  13.570  11.217
28387W        W95170  44.700  30.085  14.414
28388W        W95171  39.749  38.102  13.133
28389W        W95172  40.041   7.474  10.432
28390W        W95173  33.730  19.993  11.750
28391W        W95174  23.314  12.230   0.205
28392W        W95175   9.131  33.930   3.276
28393W        W95176  32.526  31.682  11.613
28394W        W95177  26.908  17.787   3.411
28395W        W95178  31.559  27.519  14.888
28396W        W95179  33.450  24.301  12.506
28397W        W95180   0.887  17.324   1.253
28398W        W95181   6.872   8.111  11.149
28399W        W95182   3.981  42.928  12.615
28400W        W95183  20.055  31.836  11.599
28401W        W95184  13.772   4.772   1.882
28402W        W95185  22.716  44.521  13.299
28403W        W95186  11.567  34.903  13.303
28404W        W95187   2.842   8.212   4.532
28405W        W95188  42.248  36.951  12.470
28406W        W95189   0.819  26.822  13.466
28407W        W95190  21.985   8.734   3.694
28408W        W95191  18.185  10.789   2.141
28409W        W95192  38.014  11.812  12.047
28410W        W95193  36.075  24.533   0.786
28411W        W95194   5.830  44.589   3.134
28412W        W95195  22.120  13.114   3.806
28413W        W95196  29.586   2.302  13.462
28414W        W95197  25.516  11.463  11.691
28415W        W95198  17.121  19.031  10.679
28416W        W95199  29.110  40.961   0.671
28417W        W95200   3.947  44.506   0.392
28418W        W95201  30.423  24.598   2.833
28419W        W95202   7.446   9.391  12.934
28420W        W95203  40.084  30.157   3.732
28421W        W95204  39.898  11.379   2.212
28422W        W95205  31.853  17.904  13.603
28423W        W95206  33.332  30.126  14.525
28424W        W95207   0.525  17.652   2.147
28425W        W95208  23.025  44.073  10.617
28426W        W95209   1.256  35.143  10.727
28427W        W95210   1.242  15.854  10.548
28428W        W95211  21.820  37.605   4.397
28429W        W95212  23.565  36.539  11.170
28430W        W95213  25.669  24.504   1.648
28431W        W95214  25.997  21.448   2.296
28432W        W95215  10.165   9.346   1.922
28433W        W95216   2.774  18.246   1.605
28434W        W95217   2.302  23.716  14.488
28435W        W95218  38.966  21.058   2.240
28436W        W95219  38.488  13.246   2.357
28437W        W95220  44.873   6.679  10.869
28438W        W95221  40.166  14.240   0.121
28439W        W95222   7.827  41.574  14.949
28440W        W95223  29.146  20.616   3.649
28441W        W95224  14.291  37.816  11.047
28442W        W95225  38.876  31.700  12.031
28443W        W95226  17.288  34.027   2.832
28444W        W95227  18.107  17.679   5.239
28445W        W95228   2.645  38.312   0.232
28446W        W95229  35.674   1.917   4.151
28447W        W95230  26.572  44.984   3.076
28448W        W95231   4.943   0.955  11.163
28449W        W95232  12.570  35.978   1.403
28450W        W95233  14.438  16.763   0.242
28451W        W95234  18.570  26.044   2.627
28452W        W95235  39.415  32.142  13.988
28453W        W95236  12.792  42.231   0.292
28454W        W95237  16.223  26.269  13.292
28455W        W95238  12.688  33.056   2.769
28456W        W95239  28.047  38.626  13.435
28457W        W95240  19.139  34.953  12.686
28458W        W95241   9.856  22.249  11.159
28459W        W95242   6.364  12.558   3.708
28460W        W95243  17.260  15.100   0.283
28461W        W95244  41.545   3.325  14.396
28462W        W95245  23.765  21.651  10.929
28463W        W95246  36.083  27.676  12.524
28464W        W95247  41.436  16.796   2.374
28465W        W95248  43.535   1.491  12.567
28466W        W95249  24.845  26.073   2.393
28467W        W95250   2.848  22.581  12.012
28468W        W95251  10.562  25.632  14.846
28469W        W95252  39.803   3.531   0.215
28470W        W95253  28.101  16.964   0.654
28471W        W95254  13.673  12.944   2.437
28472W        W95255  25.060  37.244  12.532
28473W        W95256  37.654  17.642  12.390
28474W        W95257  17.037   4.308  12.489
28475W        W95258  11.131  43.441  13.441
28476W        W95259  18.061  30.451   0.969
28477W        W95260  19.095   5.474  11.565
28478W        W95261   0.413  17.585  11.036
28479W        W95262  23.919  14.912  13.252
28480W        W95263  30.218   4.807   2.243
28481W        W95264   7.391  33.988  13.308
28482W        W95265  38.549   4.677   0.600
28483W        W95266  43.448  14.641  14.771
28484W        W95267  18.217  35.665   4.285
28485W        W95268  25.483  34.053  11.522
28486W        W95269  16.123  19.194   0.208
28487W        W95270  19.897  17.365   0.433
28488W        W95271  43.913   1.477   4.630
28489W        W95272  40.592   6.264  14.494
28490W        W95273  26.855   0.386  14.576
28491W        W95274  16.211  18.205   1.200
28492W        W95275  23.133   5.926   0.615
28493W        W95276  40.812   1.892  13.962
28494W        W95277  17.143  24.353   0.482
28495W        W95278  30.499   4.252  13.480
28496W        W95279  41.112  30.661   4.273
28497W        W95280  19.185  18.460  14.024
28498W        W95281  27.557  43.878   1.013
28499W        W95282  35.849  31.019  13.798
28500W        W95283   8.362   1.781   0.694
28501W        W95284   7.296   7.139   2.316
28502W        W95285  35.843  16.992   0.775
28503W        W95286  40.550   3.250   4.145
28504W        W95287  27.158  19.788   0.276
28505W        W95288  25.054  28.482   2.257
28506W        W95289  14.389  20.939   2.761
28507W        W95290  31.388  28.203  11.936
28508W        W95291   6.382  16.658  13.330
28509W        W95292  11.379  18.320   2.886
28510W        W95293  31.522  32.674   3.631
28511W        W95294   5.949  30.437  12.905
28512W        W95295  24.095  20.222   0.789
28513W        W95296  26.471   3.802  14.374
28514W        W95297  33.494  43.886  11.931
28515W        W95298  36.012  12.728  13.110
28516W        W95299  32.583  40.444   1.912
28517W        W95300  36.344  23.323  14.485
28518W        W95301  14.907  19.064  14.962
28519W        W95302  38.651  35.604   1.285
28520W        W95303  35.169  23.282   2.309
28521W        W95304  37.511  42.496   0.131
28522W        W95305   0.067   3.577   1.813
28523W        W95306  39.587  39.347   4.370
28524W        W95307  16.644  35.951  11.260
28525W        W95308  21.616  26.040   3.161
28526W        W95309  16.583  25.477   0.915
28527W        W95310  36.911   3.957  14.358
28528W        W95311  14.208  12.806  11.901
28529W        W95312  32.874  18.469  12.331
28530W        W95313  39.976   7.421  14.052
28531W        W95314  15.049  18.770  12.924
28532W        W95315  16.158   9.852  13.295
28533W        W95316  15.907  25.932  12.058
28534W        W95317  15.734  11.161  14.453
28535W        W95318  33.401  24.895  10.818
28536W        W95319   8.359  21.709  10.750
28537W        W95320  18.789  12.304  14.026
28538W        W95321  28.255  29.695   2.216
28539W        W95322  20.197  37.840   4.165
28540W        W95323  43.823   2.898  11.719
28541W        W95324  16.837  16.744  13.009
28542W        W95325  29.449  18.141  14.604
28543W        W95326  32.158  19.072  12.335
28544W        W95327   4.890   4.272  13.874
28545W        W95328  14.801  33.951   2.873
28546W        W95329  10.157   1.968  13.233
28547W        W95330  25.631   6.124   1.490
28548W        W95331  37.116   7.003   3.769
28549W        W95332   2.353   4.684  12.172
28550W        W95333  37.772  22.207   2.976
28551W        W95334  20.772  29.290  13.390
28552W        W95335  32.867  23.702  13.917
28553W        W95336   5.871  26.036   0.868
28554W        W95337  20.045  27.617  11.700
28555W        W95338  16.746  40.527   0.170
28556W        W95339  24.136  32.418  11.454
28557W        W95340  44.063  33.179   3.092
28558W        W95341  32.452  16.464   0.299
28559W        W95342  32.706   1.926   3.317
28560W        W95343  17.551  10.413   0.470
28561W        W95344  33.535   2.246  11.606
28562W        W95345  17.067  40.305   4.119
28563W        W95346  44.193  12.290   4.554
28564W        W95347  18.710  12.330  14.982
28565W        W95348  21.026  33.375  12.373
28566W        W95349  43.895  13.925  11.628
28567W        W95350   4.950   4.912   4.643
28568W        W95351  26.212   1.424  13.494
28569W        W95352  36.412  18.586   2.382
28570W        W95353  34.866   0.253  13.481
28571W        W95354  25.402   2.314  13.548
28572W        W95355  17.341   8.278  10.482
28573W        W95356  25.635  20.280  12.111
28574W        W95357  11.610  22.502   3.421
28575W        W95358  17.542  27.300  14.793
28576W        W95359  31.469  40.192   2.894
28577W        W95360  17.002   1.909   5.110
28578W        W95361  17.636  13.577  13.909
28579W        W95362  39.888  23.560  11.562
28580W        W95363  22.467   7.029  11.939
28581W        W95364  35.407  38.043   2.588
28582W        W95365   9.437  19.739   5.245
28583W        W95366  30.068  15.103   3.214
28584W        W95367  23.163   3.733   1.784
28585W        W95368  27.986  33.518   4.095
28586W        W95369   8.368  27.115   4.338
28587W        W95370   5.253   3.246  12.436
28588W        W95371  20.836   9.212  10.773
28589W        W95372  10.631  13.517   3.129
28590W        W95373  39.290  19.284  14.726
28591W        W95374  24.721  44.048   2.706
28592W        W95375  44.091   2.247   2.315
28593W        W95376   8.968   1.926  11.083
28594W        W95377  30.214  40.071   2.857
28595W        W95378   0.883  34.832   3.184
28596W        W95379  11.049  22.610  11.666
28597W        W95380   9.843   0.672  11.935
28598W        W95381  39.341   9.396   1.628
28599W        W95382  14.549  18.035  12.672
28600W        W95383  21.964  14.228  14.965
28601W        W95384   6.401  27.516  10.726
28602W        W95385   2.271  42.277   1.744
28603W        W95386  24.467   8.056  14.403
28604W        W95387  37.377  44.989  11.630
28605W        W95388   1.505  25.750   0.256
28606W        W95389   0.755   3.765  11.298
28607W        W95390  42.604  35.824  11.681
28608W        W95391  24.219   9.285  11.976
28609W        W95392  34.892   3.264   4.254
28610W        W95393   0.198  16.570   1.227
28611W        W95394   9.403  10.736  11.114
28612W        W95395  34.589   3.537  13.513
28613W        W95396  17.188   3.897   2.758
28614W        W95397  11.916   2.680  12.503
28615W        W95398  27.728  37.117  13.992
28616W        W95399  13.100  29.686   4.727
28617W        W95400  41.238  34.305   4.168
28618W        W95401   1.011  18.962  12.514
28619W        W95402  16.247  28.046   3.185
28620W        W95403   2.220  27.032  13.593
28621W        W95404   4.219   6.348   4.078
28622W        W95405   5.735  27.332  11.357
28623W        W95406   6.287  25.195  13.550
28624W        W95407  17.217  31.432  12.096
28625W        W95408  38.424  23.165  13.087
28626W        W95409  23.147  31.818  13.411
28627W        W95410  30.731  29.012   1.224
28628W        W95411   4.617  11.344  11.026
28629W        W95412  27.490  27.458  12.626
28630W        W95413  34.095  40.092  12.516
28631W        W95414  25.549   3.846  12.249
28632W        W95415   6.034  20.576  14.523
28633W        W95416   2.834  32.594   2.296
28634W        W95417  18.076  22.317  11.140
28635W        W95418  12.292  24.620   1.310
28636W        W95419   5.653   0.928   2.708
28637W        W95420  21.810  41.098   0.325
28638W        W95421  28.986  37.881  13.760
28639W        W95422   0.234   7.932  12.120
28640W        W95423  22.052  34.904   2.267
28641W        W95424  13.776   2.473   0.460
28642W        W95425  21.922  30.881   2.670
28643W        W95426  16.989   5.868  11.821
28644W        W95427  15.317  22.380  11.297
28645W        W95428  30.390   8.187   2.263
28646W        W95429   8.962  29.327   2.729
28647W        W95430  19.633  32.137  11.527
28648W        W95431  14.088  42.875   2.135
28649W        W95432   2.832   7.273   4.406
28650W        W95433  11.675  10.326  10.732
28651W        W95434  33.032  11.980   3.726
28652W        W95435  22.002  41.065   0.845
28653W        W95436  20.257  27.629  10.782
28654W        W95437  33.955  22.988   0.096
28655W        W95438  33.423  31.605   2.391
28656W        W95439  41.387  15.133  12.342
28657W        W95440  12.573  36.194   5.207
28658W        W95441  17.309  24.662   2.807
28659W        W95442   8.298   6.525  12.719
28660W        W95443  24.280  18.555  14.041
28661W        W95444  23.679  13.033  11.015
28662W        W95445  14.959   6.779   2.868
28663W        W95446   7.416   8.148   0.767
28664W        W95447  32.409  36.186   3.611
28665W        W95448  28.950  30.728   1.970
28666W        W95449  15.142  10.135   0.847
28667W        W95450  29.105  23.620   2.608
28668W        W95451  11.425  17.617   0.384
28669W        W95452  19.624  20.457   1.254
28670W        W95453   1.354  23.419  10.457
28671W        W95454  39.636  34.126  14.979
28672W        W95455  22.329  42.512   2.168
28673W        W95456  20.664  28.669   2.179
28674W        W95457  11.757  25.581   4.591
28675W        W95458  15.033  33.125   2.365
28676W        W95459  27.229  17.575  11.046
28677W        W95460  21.805  13.822   4.591
28678W        W95461  14.627  20.197   0.978
28679W        W95462  36.582   4.209   4.621
28680W        W95463  31.008  17.624   2.346
28681W        W95464  33.027  31.670  11.561
28682W        W95465  22.285  13.681   0.335
28683W        W95466  29.946  15.775   4.498
28684W        W95467  26.045  26.053  13.844
28685W        W95468  16.923  20.056  14.920
28686W        W95469  22.144  14.348   1.869
28687W        W95470  42.302   5.533   0.296
28688W        W95471  15.557   3.901   3.693
28689W        W95472  41.559  41.363   2.670
28690W        W95473   5.339  12.115   4.289
28691W        W95474  36.935  19.419  11.937
28692W        W95475  15.290   3.809   2.839
28693W        W95476  35.343  39.123   1.772
28694W        W95477  33.898  12.091   1.807
28695W        W95478  25.133  36.815   1.403
28696W        W95479   6.443  23.530  12.661
28697W        W95480  20.217  34.240  14.607
28698W        W95481  25.491  30.116  13.906
28699W        W95482  25.254   9.192   0.022
28700W        W95483  32.513  26.216  12.072
28701W        W95484  16.338  29.084  11.943
28702W        W95485   6.202  17.332  13.480
28703W        W95486  28.599  24.594   4.082
28704W        W95487   2.982  43.554  13.064
28705W        W95488   1.165  22.289  10.231
28706W        W95489  14.603  16.051  10.077
28707W        W95490  19.730  16.885   0.407
28708W        W95491  19.047  35.862   1.356
28709W        W95492  36.370  21.669   1.897
28710W        W95493  28.042  20.523   2.289
28711W        W95494  18.128  31.968   3.250
28712W        W95495  12.210   1.735  14.017
28713W        W95496  37.497  11.042  14.574
28714W        W95497  15.320   3.788  10.665
28715W        W95498  41.088  32.667   3.649
28716W        W95499  28.023   1.765   3.601
28717W        W95500  28.596  30.596  12.079
28718W        W95501  21.669  19.215   0.048
28719W        W95502  20.667   8.695  14.492
28720W        W95503  35.001  25.055   3.269
28721W        W95504  10.312  23.778   1.789
28722W        W95505  39.539  11.994   2.398
28723W        W95506  42.175  38.577   1.180
28724W        W95507   5.231   9.403   1.377
28725W        W95508  19.251  19.120   4.025
28726W        W95509   5.774  34.053  11.904
28727W        W95510  34.769  15.145   1.308
28728W        W95511  31.358  37.035   0.764
28729W        W95512  26.901   5.740  13.461
28730W        W95513   8.213  25.632   4.922
28731W        W95514  14.922  15.647  14.263
28732W        W95515   7.997  27.696  12.844
28733W        W95516  32.573   1.260  11.628
28734W        W95517  18.239   9.576  14.480
28735W        W95518  15.802  11.263   0.858
28736W        W95519  44.407   1.801   0.743
28737W        W95520  13.794  44.036   2.737
28738W        W95521  40.419  23.805   1.016
28739W        W95522   6.030   2.915   3.042
28740W        W95523  38.253  42.606  14.001
28741W        W95524   3.024  44.345   4.161
28742W        W95525   7.784   9.873  10.995
28743W        W95526   7.122  21.148  10.407
28744W        W95527   8.392  11.913  12.518
28745W        W95528  15.670  19.180  10.810
28746W        W95529  15.739   0.184   2.599
28747W        W95530  20.455  25.196   4.576
28748W        W95531  25.464  24.527  13.920
28749W        W95532  29.611  20.957   1.403
28750W        W95533  17.752  20.264   2.254
28751W        W95534  29.428  33.291   0.748
28752W        W95535  33.828   3.788   0.586
28753W        W95536  10.208   6.237   1.620
28754W        W95537   4.812  37.414   4.478
28755W        W95538  30.045   4.357   4.499
28756W        W95539  11.255  13.620   1.697
28757W        W95540  38.263  26.665   0.434
28758W        W95541  18.473  11.817  12.974
28759W        W95542   8.345  17.373   1.304
28760W        W95543   8.837  29.850   4.771
28761W        W95544  32.998  28.206  13.414
28762W        W95545  29.215   1.920   0.496
28763W        W95546  27.897   6.163  13.051
28764W        W95547   9.303  30.060   4.636
28765W        W95548  37.955   9.345   2.500
28766W        W95549  17.491  10.835  13.215
28767W        W95550  22.018  12.381  12.626
28768W        W95551  13.322  13.528   2.162
28769W        W95552  18.582   5.305  10.662
28770W        W95553  30.180  41.772   4.688
28771W        W95554  22.476  31.525  14.948
28772W        W95555  23.519  21.537   1.703
28773W        W95556  23.856   9.187  14.419
28774W        W95557  12.062  27.666   2.722
28775W        W95558  34.136  13.677  14.226
28776W        W95559   9.400   3.330   0.879
28777W        W95560  42.226  10.719   4.171
28778W        W95561   5.964  10.878   1.514
28779W        W95562  28.733  19.143   3.700
28780W        W95563  19.206  43.959  13.432
28781W        W95564  36.524  37.096  11.586
28782W        W95565   1.735   1.972   4.523
28783W        W95566  22.145   7.330  13.982
28784W        W95567   6.318  34.530  14.523
28785W        W95568  27.206  40.194  12.552
28786W        W95569  37.491   2.522   4.946
28787W        W95570  29.691  24.090  12.653
28788W        W95571  35.587   6.638  12.606
28789W        W95572   0.977   5.662   2.939
28790W        W95573  16.192  16.317   0.256
28791W        W95574  32.533   4.277   2.322
28792W        W95575  38.957  37.369  14.933
28793W        W95576   7.312   3.947  10.392
28794W        W95577   2.674  28.923   4.621
28795W        W95578  19.629  37.370   5.299
28796W        W95579   6.916  13.605  11.678
28797W        W95580  34.920  23.797   4.222
28798W        W95581   0.628   3.341   4.591
28799W        W95582  23.691   9.387   2.048
28800W        W95583  16.752  31.976  14.388
28801W        W95584  22.390  23.308   2.646
28802W        W95585  33.451  44.305  14.435
28803W        W95586  14.819   0.671   1.146
28804W        W95587  43.810   1.778   3.777
28805W        W95588  36.667   5.615  12.461
28806W        W95589  42.763  17.197  11.018
28807W        W95590  12.913  43.331   2.227
28808W        W95591  44.998  22.248   4.415
28809W        W95592  11.310  39.373   2.908
28810W        W95593  39.753  12.522  14.810
28811W        W95594  24.141  27.253  14.004
28812W        W95595  38.407  29.448  13.082
28813W        W95596  38.472  21.731   2.491
28814W        W95597  26.905  14.853   2.177
28815W        W95598  20.532  15.846  12.031
28816W        W95599   1.596  23.979  12.136
28817W        W95600  36.843  13.108   0.338
28818W        W95601  36.401  43.917   3.358
28819W        W95602  21.511  36.626   4.281
28820W        W95603  12.097   3.314  11.561
28821W        W95604  12.348  28.053  12.557
28822W        W95605  35.684   2.460  12.547
28823W        W95606  43.912  19.132   2.784
28824W        W95607  39.075  37.600   0.408
28825W        W95608   6.191  36.272   0.472
28826W        W95609  32.658   8.228   2.725
28827W        W95610  19.045  32.104   0.346
28828W        W95611  32.019   3.753  12.625
28829W        W95612  30.015  22.144   4.471
28830W        W95613   1.934  14.283   5.056
28831W        W95614  42.197  18.337   1.857
28832W        W95615   4.908   6.680   3.769
28833W        W95616   5.772  11.428  10.339
28834W        W95617   3.756  15.431  11.114
28835W        W95618  44.080   6.350  10.621
28836W        W95619  35.351  22.794  13.356
28837W        W95620   8.865  30.673  13.005
28838W        W95621   0.169   3.729  12.575
28839W        W95622   9.315  43.824   3.651
28840W        W95623  42.517   7.873   3.630
28841W        W95624  34.375  23.105   4.608
28842W        W95625   7.477   4.296   1.637
28843W        W95626   3.875  11.038   2.384
28844W        W95627  34.453  33.158   4.023
28845W        W95628  30.887  13.417  11.707
28846W        W95629  42.951  35.889  12.043
28847W        W95630   2.676  34.429  14.996
28848W        W95631  19.714  32.190   5.078
28849W        W95632  44.859  35.893  11.690
28850W        W95633   9.609  18.886   4.597
28851W        W95634   2.680   4.934   3.257
28852W        W95635   2.694  32.103   2.172
28853W        W95636  33.390   8.551   2.174
28854W        W95637  29.712  20.624  12.755
28855W        W95638  12.699  23.011   2.498
28856W        W95639  25.471  30.366  12.927
28857W        W95640  38.339  33.099   4.332
28858W        W95641  21.338  22.229  11.401
28859W        W95642   7.709   1.700   2.663
28860W        W95643  22.498  14.623   2.743
28861W        W95644  34.221   8.299   3.205
28862W        W95645  35.714  40.797  12.946
28863W        W95646  18.818  12.123   0.493
28864W        W95647  20.060  21.104   3.133
28865W        W95648  19.413  11.830   1.202
28866W        W95649  43.503  18.081   2.830
28867W        W95650   9.271  36.569  12.744
28868W        W95651   2.720  15.495   0.093
28869W        W95652   9.254  23.815  11.208
28870W        W95653  41.986  41.509  12.060
28871W        W95654  39.838  29.525  14.811
28872W        W95655  14.315  22.605   3.511
28873W        W95656   6.719  39.141   3.847
28874W        W95657  22.057  42.496  14.193
28875W        W95658  12.751  18.324   3.629
28876W        W95659   0.011  38.631   1.028
28877W        W95660  19.749  41.515  12.438
28878W        W95661  15.847  33.416  14.944
28879W        W95662  43.944  36.485   1.645
28880W        W95663   2.870  38.499   2.197
28881W        W95664  35.511   3.638   0.863
28882W        W95665  12.785   6.345   1.760
28883W        W95666  12.890  33.234   0.401
28884W        W95667  36.456  12.905   3.307
28885W        W95668  28.466  43.257  13.536
28886W        W95669   5.201  26.216  13.606
28887W        W95670  43.282  27.288  12.829
28888W        W95671  26.576  15.535  11.228
28889W        W95672  13.795   2.181  14.479
28890W        W95673   2.517  44.819   3.805
28891W        W95674  22.776  19.707   1.875
28892W        W95675  24.154  37.246   2.302
28893W        W95676  24.242  27.554  12.591
28894W        W95677   3.887  21.592  14.577
28895W        W95678  28.396  41.857  11.095
28896W        W95679  25.166  20.728   1.867
28897W        W95680  44.654  18.371   4.849
28898W        W95681  17.114  18.273  11.427
28899W        W95682  37.010  43.685   2.665
28900W        W95683  35.578   4.972   0.326
28901W        W95684   1.933  10.646  12.598
28902W        W95685  26.080  36.777   0.136
28903W        W95686   7.599   8.952   9.951
28904W        W95687  21.710  10.140  12.551
28905W        W95688  35.917  40.846  12.470
28906W        W95689  38.466  43.509  10.698
28907W        W95690  13.671  25.008   2.391
28908W        W95691  24.479  36.142  14.516
28909W        W95692  40.795  19.302  11.450
28910W        W95693  21.047  13.020  14.500
28911W        W95694  35.320  38.365   0.560
28912W        W95695  15.090  34.896  13.476
28913W        W95696  37.367  19.130  13.269
28914W        W95697  40.105  26.742   2.915
28915W        W95698  31.541  23.043  12.070
28916W        W95699  40.541   6.739  14.318
28917W        W95700  35.486  10.810   2.564
28918W        W95701  23.591  15.404  12.066
28919W        W95702  33.878  27.550   1.043
28920W        W95703  27.969  38.659  12.455
28921W        W95704  22.640  41.676   2.761
28922W        W95705   9.382  18.447   5.043
28923W        W95706  11.472  17.247  12.549
28924W        W95707  26.934  31.058  11.579
28925W        W95708  17.516  37.766   3.296
28926W        W95709  30.854  38.598   3.651
28927W        W95710  25.414  33.869  10.323
28928W        W95711  31.016  16.261   1.378
28929W        W95712  13.727  28.402  11.486
28930W        W95713  18.205   2.488  11.990
28931W        W95714  42.194  32.028  13.798
28932W        W95715  12.613  37.351  12.876
28933W        W95716  28.417  24.477  11.262
28934W        W95717   0.368  12.126  13.533
28935W        W95718  37.320  29.328   2.025
28936W        W95719   9.852   0.013   0.936
28937W        W95720  41.767  19.656  14.257
28938W        W95721  13.309  11.918  11.100
28939W        W95722   4.352  11.712  12.048
28940W        W95723  30.897  38.294   1.774
28941W        W95724  28.418  18.178  10.597
28942W        W95725  20.190  38.087  11.482
28943W        W95726  36.395  28.947   3.558
28944W        W95727   8.753  37.057  13.779
28945W        W95728  27.664  15.406  14.737
28946W        W95729   9.781  16.081  13.359
28947W        W95730  35.403  27.454   4.497
28948W        W95731  22.164  13.561  11.907
28949W        W95732  22.102   6.499   3.907
28950W        W95733  23.226  12.386  13.760
28951W        W95734  29.179   1.952  12.929
28952W        W95735  14.516   9.241  14.460
28953W        W95736  42.862  23.083   3.706
28954W        W95737  16.537  13.528   2.056
28955W        W95738  36.491  42.018   2.870
28956W        W95739  43.759  29.618   4.873
28957W        W95740  23.518  11.637   1.395
28958W        W95741   1.675  28.690   2.712
28959W        W95742   5.020   3.138   4.988
28960W        W95743  21.664  12.350  10.790
28961W        W95744  32.525   5.685  12.325
28962W        W95745  21.496  18.524   4.646
28963W        W95746  24.659  34.991  12.029
28964W        W95747  39.130   7.266  14.402
28965W        W95748  26.951  21.164   4.993
28966W        W95749  17.810   9.151   2.506
28967W        W95750  38.191  35.719   1.473
28968W        W95751  27.719   8.816  10.690
28969W        W95752  23.624  23.247   2.522
28970W        W95753  20.748  19.130   0.184
28971W        W95754  39.893  10.316   0.293
28972W        W95755  39.531   8.616   2.232
28973W        W95756  12.271  42.992  13.072
28974W        W95757  35.424  23.975  11.261
28975W        W95758  14.406   6.693  13.415
28976W        W95759  33.686  36.319  11.224
28977W        W95760   7.945  33.072   4.531
28978W        W95761   5.178   4.124   1.851
28979W        W95762   4.732  20.834  11.920
28980W        W95763  14.232   2.941  11.947
28981W        W95764  40.365  35.210  14.917
28982W        W95765  31.391  31.527   4.920
28983W        W95766  22.162  15.734   2.048
28984W        W95767  15.108  30.428  12.840
28985W        W95768  44.198  38.576   4.558
28986W        W95769  27.624  41.250   9.506
28987W        W95770  21.311   1.863  14.535
28988W        W95771  17.136  20.551   0.460
28989W        W95772  29.577  30.123  12.962
28990W        W95773  39.031  24.636   3.796
28991W        W95774  15.359  30.165  14.750
28992W        W95775  29.664   5.815   3.562
28993W        W95776  14.719   2.028  14.848
28994W        W95777   1.659  12.672  13.418
28995W        W95778  32.485  14.591   2.768
28996W        W95779  26.458   5.731  10.975
28997W        W95780  30.640  19.661  11.090
28998W        W95781  11.597   4.670   3.301
28999W        W95782  13.602  40.312   3.175
29000W        W95783  20.689  41.822   1.783
29001W        W95784  11.979  44.367  13.586
29002W        W95785  27.269   0.242   4.605
29003W        W95786  23.438  38.762   3.752
29004W        W95787  26.779  27.923  12.041
29005W        W95788  44.679  39.991   0.318
29006W        W95789  29.832  38.649   4.560
29007W        W95790  22.165  34.940  13.457
29008W        W95791  31.106  43.529  12.468
29009W        W95792  11.838  39.143  13.359
29010W        W95793   7.708   5.069  12.919
29011W        W95794  27.864  14.017  14.812
29012W        W95795  43.707   5.546   0.577
29013W        W95796  22.020  28.731   2.783
29014W        W95797  11.160  19.220  10.968
29015W        W95798  34.149  41.468   0.780
29016W        W95799   4.258  20.063  10.789
29017W        W95800  11.662  17.729  13.002
29018W        W95801  34.064  14.836   4.584
29019W        W95802  25.335  40.456   1.766
29020W        W95803  41.545  40.478  10.834
29021W        W95804   8.194   9.470   1.782
29022W        W95805  12.916  17.025  11.331
29023W        W95806  17.665   1.354  11.730
29024W        W95807   8.189   1.312  12.006
29025W        W95808  40.670   3.989  11.514
29026W        W95809  39.456  31.471   0.816
29027W        W95810  16.349  32.082   4.081
29028W        W95811  42.419  12.810  13.319
29029W        W95812   2.006   3.538  13.687
29030W        W95813  20.028  34.101  11.566
29031W        W95814  42.137  43.734  11.177
29032W        W95815  39.552  20.800  12.454
29033W        W95816   3.878   7.209   4.077
29034W        W95817  19.047  23.255  11.748
29035W        W95818  17.022  25.170   4.537
29036W        W95819  24.015  12.679  12.182
29037W        W95820  41.938  15.383  14.821
29038W        W95821  33.484  29.120   3.814
29039W        W95822  31.104   5.903   2.333
29040W        W95823  20.706  22.046   3.298
29041W        W95824  16.232  31.236  14.470
29042W        W95825  24.683   5.291   1.842
29043W        W95826  39.263   0.714   3.547
29044W        W95827  19.737  15.783   1.217
29045W        W95828  11.828   0.991  14.693
29046W        W95829  18.979  11.901  13.094
29047W        W95830  19.757  36.973   4.562
29048W        W95831   8.890  22.603  10.540
29049W        W95832  27.863  25.073   0.418
29050W        W95833  21.712  10.818   2.184
29051W        W95834   0.203  23.522  10.704
29052W        W95835   7.233  40.299  14.896
29053W        W95836  40.906  19.749  11.686
29054W        W95837  10.263  44.220  10.597
29055W        W95838  36.703  18.070   1.749
29056W        W95839   4.647  28.947  14.907
29057W        W95840   0.200   5.451  11.938
29058W        W95841   3.486  36.887   4.122
29059W        W95842  11.349  18.560   1.898
29060W        W95843  20.272  18.073  14.819
29061W        W95844   8.602   0.918   2.595
29062W        W95845   6.933  30.616   2.627
29063W        W95846  17.851  18.381  13.562
29064W        W95847  26.440  31.598   3.688
29065W        W95848  39.250  26.711   0.409
29066W        W95849  27.198  26.179   3.652
29067W        W95850  28.911  27.551  12.439
29068W        W95851  24.490  22.414   4.394
29069W        W95852  21.463  30.270   4.757
29070W        W95853   5.685   8.900   0.258
29071W        W95854  38.978   3.886  13.763
29072W        W95855  38.874  39.961  12.825
29073W        W95856  38.216  22.227   2.681
29074W        W95857  27.331  29.381  10.856
29075W        W95858  44.450   6.332   0.836
29076W        W95859  14.182  29.101   1.683
29077W        W95860  22.227  31.465   3.174
29078W        W95861  41.728   9.430   1.575
29079W        W95862  31.729   0.646   2.758
29080W        W95863   4.246   2.627   1.314
29081W        W95864  35.471  10.878   0.681
29082W        W95865  44.201   3.280   1.842
29083W        W95866  28.016   1.776  11.584
29084W        W95867  11.000  35.373   4.088
29085W        W95868  17.551  23.973   1.776
29086W        W95869  13.162  16.530  12.061
29087W        W95870  38.984  40.889  10.398
29088W        W95871   2.973  25.767  14.840
29089W        W95872   6.319  31.204   0.329
29090W        W95873  37.444  41.806  11.378
29091W        W95874  16.344  43.225  12.869
29092W        W95875  39.508  43.029   2.300
29093W        W95876  24.624  12.353   1.835
29094W        W95877  18.231  41.126  14.359
29095W        W95878  14.275  12.621   1.718
29096W        W95879  43.472  33.785  12.617
29097W        W95880  28.105  17.390  10.275
29098W        W95881  34.533  19.681   1.488
29099W        W95882   8.305  24.425  14.264
29100W        W95883   2.980   4.842  11.312
29101W        W95884   4.438  43.782  14.863
29102W        W95885  25.759  23.128   3.594
29103W        W95886  36.546  31.762  11.165
29104W        W95887  23.528  41.131  10.916
29105W        W95888   3.723  11.172  13.542
29106W        W95889  31.134  24.585  10.857
29107W        W95890  15.290  25.576   4.197
29108W        W95891  37.354   5.391  13.506
29109W        W95892  21.191  26.579   0.858
29110W        W95893  22.985   8.676   4.736
29111W        W95894  32.814  21.674  12.943
29112W        W95895   1.490  17.178  13.482
29113W        W95896  39.757  32.728   0.724
29114W        W95897   1.666   2.896  11.401
29115W        W95898   7.740  19.821  11.131
29116W        W95899   2.875  36.345   1.522
29117W        W95900  16.661  26.311   3.454
29118W        W95901  40.465  25.035   4.588
29119W        W95902  28.049  44.050  14.549
29120W        W95903  43.011  16.268   4.619
29121W        W95904   3.869  43.386  14.839
29122W        W95905   1.441  21.225   2.745
29123W        W95906   3.892  38.903   1.538
29124W        W95907   3.857  44.975   1.004
29125W        W95908  32.064  35.284   0.862
29126W        W95909  24.805  21.556  13.126
29127W        W95910   8.586  17.223   2.800
29128W        W95911   8.754  24.613   3.738
29129W        W95912  11.143  29.104   1.398
29130W        W95913  15.156  13.678  10.656
29131W        W95914  18.805   7.629   0.584
29132W        W95915  10.603  13.860   2.739
29133W        W95916  23.039  12.625   1.806
29134W        W95917  24.717  35.668  13.454
29135W        W95918  18.577  22.004   4.468
29136W        W95919  29.023  12.931   0.284
29137W        W95920  37.409  11.776  10.950
29138W        W95921  27.570  23.303   0.552
29139W        W95922  36.300  14.846   2.196
29140W        W95923  42.514  12.078  14.999
29141W        W95924  29.430   3.189   3.629
29142W        W95925  18.601  21.128  14.352
29143W        W95926   0.798   5.082  10.779
29144W        W95927  27.073  11.547   2.994
29145W        W95928  37.318   4.209  14.011
29146W        W95929  19.189  17.725   4.044
29147W        W95930   1.873   7.424  12.873
29148W        W95931  26.215  29.059  12.950
29149W        W95932  21.770  22.423  11.240
29150W        W95933  29.376  41.156   2.184
29151W        W95934  11.364  31.696  12.387
29152W        W95935  38.107  23.377  11.146
29153W        W95936   1.162   3.448  11.596
29154W        W95937   7.299  35.892  12.437
29155W        W95938  36.426  15.421  11.761
29156W        W95939  14.902  43.346   2.840
29157W        W95940  12.145  30.876   3.713
29158W        W95941  14.272  10.870  10.932
29159W        W95942  41.410  33.008   2.323
29160W        W95943  36.048  27.644  13.900
29161W        W95944  39.022  13.175  11.495
29162W        W95945  24.214  10.880   0.463
29163W        W95946  14.478  14.815   2.657
29164W        W95947   0.454  22.746   3.116
29165W        W95948  26.884  31.740  14.962
29166W        W95949   0.279  44.871  12.557
29167W        W95950  20.278  41.976   4.574
29168W        W95951  36.076   3.205  11.529
29169W        W95952  14.546  41.798  11.206
29170W        W95953   0.333  39.831   0.708
29171W        W95954   1.308  33.045   1.346
29172W        W95955  42.955  22.339   2.473
29173W        W95956  40.978  30.954  12.594
29174W        W95957  21.171  16.247   3.151
29175W        W95958  41.884  43.521  14.484
29176W        W95959  34.486   2.322   3.852
29177W        W95960  40.401  14.530   3.550
29178W        W95961  20.958  16.138  11.411
29179W        W95962  44.259  33.542  11.972
29180W        W95963  40.305   6.324  12.335
29181W        W95964  11.934   1.394   1.405
29182W        W95965  24.945   4.660  12.502
29183W        W95966  41.875  16.766   4.733
29184W        W95967  15.245  16.588   1.507
29185W        W95968   0.060  23.824  12.968
29186W        W95969  30.216   1.791   4.137
29187W        W95970   5.763  37.897   1.708
29188W        W95971  41.930   5.871   4.654
29189W        W95972  24.254  37.061   0.938
29190W        W95973  18.719  12.711   3.306
29191W        W95974  33.398   1.738  14.772
29192W        W95975  27.897   9.142   1.760
29193W        W95976  12.801   2.835   0.910
29194W        W95977  24.252  32.084  12.084
29195W        W95978  14.557  27.975   0.969
29196W        W95979  32.301   7.439   4.374
29197W        W95980  19.939  36.682  11.573
29198W        W95981  11.335  43.391   1.399
29199W        W95982  32.042  26.510   2.039
29200W        W95983  20.274  24.742  13.939
29201W        W95984  11.766  12.248  11.065
29202W        W95985  24.378   1.061   1.752
29203W        W95986  44.567  37.587  11.218
29204W        W95987  25.200  27.694  12.501
29205W        W95988   4.370  18.847   0.521
29206W        W95989  30.480  11.590  14.254
29207W        W95990  16.611  32.114  11.168
29208W        W95991  30.375  21.783  14.674
29209W        W95992  19.587  14.176   0.261
29210W        W95993  25.947  39.076  11.115
29211W        W95994  36.428  12.105  11.936
29212W        W95995  34.811   5.197  10.659
29213W        W95996  39.020  39.468   2.065
29214W        W95997  34.900  27.070   3.760
29215W        W95998  18.967  30.031   1.953
29216W        W95999  40.406   8.846  12.868
29217W        W96000  15.276  11.863  14.314
29218W        W96001  30.545   3.436  14.067
29219W        W96002  22.190  38.910  12.452
29220W        W96003  29.985  44.291   0.307
29221W        W96004   6.164  10.244  13.329
29222W        W96005  16.663  27.198   3.390
29223W        W96006  23.663  39.693   0.932
29224W        W96007   5.863  27.654   0.255
29225W        W96008  20.176  44.271  14.761
29226W        W96009  28.681  37.294   4.587
29227W        W96010  26.762   7.234  14.846
29228W        W96011  10.146  36.988  14.063
29229W        W96012  21.132  11.719   4.803
29230W        W96013  36.023   6.701  12.356
29231W        W96014  43.886  41.728   1.696
29232W        W96015   9.116  16.590   0.236
29233W        W96016  29.330   5.776  10.456
29234W        W96017  23.496  11.116  11.067
29235W        W96018  26.157   3.207  10.151
29236W        W96019  25.162  40.428  11.866
29237W        W96020  43.784   2.800  13.555
29238W        W96021  39.426  21.158  11.499
29239W        W96022  42.811   4.202  12.115
29240W        W96023  40.041  20.524   0.228
29241W        W96024  41.504  41.831  13.713
29242W        W96025  32.472   9.685  10.106
29243W        W96026  23.781  31.265  11.886
29244W        W96027  12.625  28.991   0.302
29245W        W96028   0.826  40.917   2.863
29246W        W96029  15.024  16.204   1.775
29247W        W96030  36.416  35.471   4.642
29248W        W96031  40.961  25.129  12.742
29249W        W96032  26.618  11.337  11.977
29250W        W96033   8.477   7.936  12.503
29251W        W96034  39.392  43.209   0.920
29252W        W96035  42.786  40.835   3.646
29253W        W96036  21.370  15.247  13.777
29254W        W96037  30.703   9.702   2.868
29255W        W96038  43.163   1.019  14.441
29256W        W96039  35.867   9.753  13.935
29257W        W96040   9.013  14.588  14.692
29258W        W96041  18.156  12.593   5.237
29259W        W96042  12.260  36.339   1.671
29260W        W96043  37.434  24.166  12.388
29261W        W96044  13.511   6.766   2.401
29262W        W96045  22.366   6.926   2.087
29263W        W96046  27.426  19.448   5.191
29264W        W96047  30.827  40.247  13.943
29265W        W96048  43.595   8.241  14.200
29266W        W96049  37.474  39.662   4.394
29267W        W96050  12.841  25.003  14.224
29268W        W96051   3.677  31.094   1.561
29269W        W96052  34.485  44.527   1.081
29270W        W96053  17.789  20.048   0.495
29271W        W96054  14.820  41.204   2.376
29272W        W96055  30.962  21.978   4.618
29273W        W96056  16.177  40.748   4.309
29274W        W96057  28.853  37.513   4.153
29275W        W96058  16.806  27.510  12.534
29276W        W96059  33.405  23.218   0.878
29277W        W96060  18.876  38.423   0.151
29278W        W96061  18.778  39.912  14.092
29279W        W96062  38.934  18.901   3.835
29280W        W96063  34.912  14.278  10.444
29281W        W96064  36.884  29.863   5.065
29282W        W96065   0.301  34.066  14.010
29283W        W96066   1.226   1.925  13.488
29284W        W96067  30.031  39.551   2.767
29285W        W96068   2.478  33.984   3.570
29286W        W96069  41.942  38.879   0.802
29287W        W96070  24.368   5.113   2.717
29288W        W96071  27.524  28.308  11.635
29289W        W96072  18.037  11.286   2.287
29290W        W96073  11.532   9.869   5.351
29291W        W96074  42.988  24.237   0.836
29292W        W96075  20.689  33.063   4.589
29293W        W96076  16.140  20.483   4.808
29294W        W96077  18.782  32.385   1.872
29295W        W96078  37.567  44.704   4.704
29296W        W96079  28.474  11.609  14.198
29297W        W96080  20.611  43.258  14.576
29298W        W96081   6.197  28.567   2.776
29299W        W96082   0.503   7.837  13.907
29300W        W96083   4.323  19.750  14.846
29301W        W96084  19.737  20.626  11.626
29302W        W96085  21.230  23.168  11.883
29303W        W96086  35.389  28.678  12.900
29304W        W96087  32.963   0.844   2.142
29305W        W96088  41.231  37.945   0.749
29306W        W96089  35.563  13.228   2.806
29307W        W96090  24.697  40.587  14.920
29308W        W96091  42.894  32.801  10.641
29309W        W96092  24.215   5.943   4.576
29310W        W96093  43.124   5.803  11.057
29311W        W96094  15.826  28.865   0.809
29312W        W96095  21.574  42.474  12.012
29313W        W96096  41.252  24.756   1.236
29314W        W96097   0.808  43.882  11.604
29315W        W96098  11.908   7.167  14.047
29316W        W96099   2.209  21.416   4.052
29317W        W96100  24.019  21.005   2.247
29318W        W96101   8.271  40.522   1.292
29319W        W96102  37.294  26.084  13.932
29320W        W96103  40.769  24.985  11.905
29321W        W96104   4.246  39.607  14.486
29322W        W96105  18.940  27.725   0.879
29323W        W96106   8.917   0.571  11.019
29324W        W96107  33.434   9.863   3.950
29325W        W96108   5.999   3.741  11.593
29326W        W96109  10.969  20.646   0.896
29327W        W96110  32.107  30.729  14.549
29328W        W96111   0.945  27.932   3.324
29329W        W96112   8.749  19.872   4.235
29330W        W96113   7.862  25.293   3.638
29331W        W96114  21.577  15.829  10.224
29332W        W96115  15.769  33.768  11.082
29333W        W96116  22.723   9.727   0.277
29334W        W96117  11.415  22.047   3.245
29335W        W96118  36.355   1.767   2.670
29336W        W96119   7.246   1.952   1.364
29337W        W96120   6.004  20.095  14.359
29338W        W96121  10.769  29.604   0.251
29339W        W96122   9.588  22.184   1.140
29340W        W96123  38.033  17.375  11.597
29341W        W96124  33.993  24.654   5.544
29342W        W96125  28.513  14.238  12.908
29343W        W96126  27.932   4.434  13.929
29344W        W96127   0.418  15.233   1.251
29345W        W96128  17.837   4.704   1.245
29346W        W96129  27.991  17.742   4.785
29347W        W96130  39.458  24.563  13.811
29348W        W96131  15.847  31.956   4.163
29349W        W96132  30.116   1.824  12.574
29350W        W96133  20.656  12.782  10.614
29351W        W96134   9.321  31.000   1.370
29352W        W96135   5.208  43.223  14.097
29353W        W96136  25.797  23.543  11.181
29354W        W96137  23.056  36.978   4.341
29355W        W96138  35.963  38.797  10.941
29356W        W96139  22.796  14.737   1.230
29357W        W96140  30.028  29.863  13.059
29358W        W96141  41.240  24.751   0.353
29359W        W96142  28.847  43.083  10.779
29360W        W96143  20.123  18.143   2.765
29361W        W96144  39.914  25.715   4.644
29362W        W96145  43.527  30.321  11.133
29363W        W96146  38.776  13.411  11.091
29364W        W96147  25.969  11.518   0.990
29365W        W96148  22.315  12.789   1.274
29366W        W96149  27.101  12.737   1.137
29367W        W96150  37.028   9.510   1.915
29368W        W96151  29.490  41.899   5.809
29369W        W96152   6.905  14.028   1.750
29370W        W96153  37.014  41.107  12.392
29371W        W96154   0.199  16.606  14.926
29372W        W96155  22.059  43.021  14.322
29373W        W96156  38.975  17.927  12.439
29374W        W96157  42.997   5.816   1.424
29375W        W96158  25.177   7.160  11.971
29376W        W96159  23.189  39.754  10.367
29377W        W96160   3.480   6.913   3.157
29378W        W96161  44.014   2.369  13.339
29379W        W96162  36.634  27.136  14.984
29380W        W96163  27.518  29.049   3.629
29381W        W96164  20.442  12.075  13.520
29382W        W96165  35.362  27.644  11.392
29383W        W96166  33.186  34.374  14.039
29384W        W96167   3.261   0.853  11.171
29385W        W96168  43.520  44.319  10.320
29386W        W96169   9.329   1.769  14.393
29387W        W96170   1.565  12.339  13.020
29388W        W96171   7.005  10.948   0.746
29389W        W96172   5.915  37.343  11.193
29390W        W96173   5.085  24.541  14.655
29391W        W96174  43.001  20.797   2.134
29392W        W96175  31.538  22.885  10.836
29393W        W96176  38.279  42.107  12.082
29394W        W96177  32.375  17.846  13.512
29395W        W96178  18.228  33.689   0.416
29396W        W96179  28.833  10.670   2.209
29397W        W96180  17.979  20.733   2.307
29398W        W96181  33.696  34.082  10.803
29399W        W96182  37.416   8.803   3.666
29400W        W96183  38.013  41.654   4.150
29401W        W96184  17.587  10.260  11.191
29402W        W96185  24.939  34.670  12.933
29403W        W96186  28.826  44.871  12.619
29404W        W96187  32.513  31.284   2.160
29405W        W96188  44.853  24.440   4.448
29406W        W96189  22.567   9.772  12.900
29407W        W96190   1.082  18.252   0.319
29408W        W96191  21.001  33.756   0.775
29409W        W96192  34.491  34.352   2.691
29410W        W96193  20.922  31.910   2.153
29411W        W96194  43.988  20.693   4.014
29412W        W96195   5.682  38.324  11.933
29413W        W96196  17.379  23.131  14.271
29414W        W96197   5.440   6.705  13.858
29415W        W96198  38.890  44.746   2.948
29416W        W96199  27.561  25.160   2.285
29417W        W96200  22.102  38.055   4.295
29418W        W96201  25.675   6.865   0.458
29419W        W96202   5.341  29.477  10.753
29420W        W96203  35.654  36.010  14.763
29421W        W96204  23.313  44.256  14.749
29422W        W96205  34.577  43.256   4.881
29423W        W96206  42.418  32.699  14.469
29424W        W96207  29.784  28.351   2.309
29425W        W96208   0.687  13.738   4.086
29426W        W96209   6.698  39.918   4.324
29427W        W96210  44.583  17.587  12.068
29428W        W96211   0.071  20.772  14.339
29429W        W96212   7.645  44.370  13.963
29430W        W96213  37.911  17.515  14.921
29431W        W96214   1.289  31.514   3.897
29432W        W96215  16.925  13.166  11.604
29433W        W96216  30.807   7.193   1.927
29434W        W96217  24.646  20.194   4.159
29435W        W96218  14.454   1.245   4.817
29436W        W96219   3.402  27.231  11.158
29437W        W96220   2.322  40.060   0.248
29438W        W96221  17.144  19.130   3.641
29439W        W96222  24.211  14.368   0.521
29440W        W96223  14.335  10.889   2.674
29441W        W96224  44.581  14.218   2.730
29442W        W96225  18.447   4.179  11.687
29443W        W96226  29.277  42.404   3.161
29444W        W96227  20.705  32.893  13.075
29445W        W96228  13.612  30.332   4.339
29446W        W96229  19.946  38.025   3.740
29447W        W96230  20.268   6.716  12.505
29448W        W96231  43.708  28.582   0.837
29449W        W96232   2.320  27.184  10.926
29450W        W96233  27.288  39.128  13.579
29451W        W96234  20.209   5.100  14.523
29452W        W96235  38.504   4.918  14.378
29453W        W96236  34.124  24.595   2.955
29454W        W96237  18.236  33.626  10.694
29455W        W96238   5.685   2.844   1.275
29456W        W96239  13.380  28.612  14.515
29457W        W96240  36.492  40.201  12.479
29458W        W96241   9.147   6.892   0.842
29459W        W96242  11.649  12.839  11.935
29460W        W96243   6.344  42.876   0.058
29461W        W96244  28.060   0.256  11.556
29462W        W96245  18.859  31.117  14.092
29463W        W96246  10.742  26.039   4.105
29464W        W96247  17.264  22.265   2.777
29465W        W96248  23.258  36.870   1.283
29466W        W96249  26.086  33.585  13.557
29467W        W96250  30.987  35.978   1.150
29468W        W96251  42.271   5.325  13.308
29469W        W96252  15.622  31.548  13.897
29470W        W96253  37.136   9.720  13.341
29471W        W96254   7.256   2.368   3.152
29472W        W96255  14.049  27.141  12.536
29473W        W96256  32.367  36.441   1.503
29474W        W96257  14.801   3.924  12.524
29475W        W96258  35.846  24.125   1.667
29476W        W96259  21.739  25.164  13.971
29477W        W96260  31.059  15.122   3.353
29478W        W96261  12.358  18.579   4.746
29479W        W96262  13.798   0.102  14.477
29480W        W96263  42.974  23.537   3.423
29481W        W96264   0.438   0.335  13.062
29482W        W96265  32.021  17.685   4.729
29483W        W96266  27.232  18.792  12.279
29484W        W96267  10.811   5.001  14.312
29485W        W96268   2.312  27.444  13.873
29486W        W96269  27.706  39.879  13.080
29487W        W96270   1.352  14.239   3.511
29488W        W96271  11.316  36.160  13.472
29489W        W96272  25.184  39.981  13.128
29490W        W96273  43.928  12.067   4.168
29491W        W96274  27.971  16.326   1.659
29492W        W96275  36.140  29.663   4.144
29493W        W96276  24.570  29.734   4.194
29494W        W96277  43.330  42.455  11.480
29495W        W96278  20.784  34.513   2.783
29496W        W96279  31.459  36.271  14.547
29497W        W96280  25.250  13.292   4.303
29498W        W96281  31.112  13.591  14.002
29499W        W96282  21.551  40.242   1.461
29500W        W96283   7.218  39.831   4.541
29501W        W96284  19.545   6.888   2.830
29502W        W96285  39.141  15.833  12.899
29503W        W96286  15.329  39.713  13.391
29504W        W96287  25.187   5.038   3.675
29505W        W96288  31.463  37.493  12.885
29506W        W96289   7.185  11.414  10.717
29507W        W96290  44.297  15.042   3.127
29508W        W96291  24.027   1.753  11.138
29509W        W96292  41.783   7.110  12.529
29510W        W96293   0.298  43.287  12.328
29511W        W96294  30.848  16.401  13.041
29512W        W96295   0.372  44.110   1.802
29513W        W96296  24.817  16.676   1.327
29514W        W96297  42.871   8.744  13.851
29515W        W96298  30.657  44.157   4.507
29516W        W96299   2.778  15.411  11.707
29517W        W96300   2.876  30.927   3.595
29518W        W96301  14.730  19.929   0.537
29519W        W96302  13.124  15.536  12.041
29520W        W96303  14.321  25.466  13.329
29521W        W96304  21.719  35.850   2.756
29522W        W96305  20.263  34.440   2.787
29523W        W96306  42.115   8.709   2.672
29524W        W96307  31.615  35.894  12.074
29525W        W96308  25.660  40.062   0.938
29526W        W96309  34.727  41.922   2.096
29527W        W96310  22.661  41.775  12.548
29528W        W96311   3.174  29.492  11.727
29529W        W96312   2.931  17.439  14.362
29530W        W96313  16.752   4.197  12.898
29531W        W96314  26.911  36.009  14.847
29532W        W96315  31.873  28.002  13.357
29533W        W96316  38.994   4.369   3.212
29534W        W96317  17.887  25.584  11.998
29535W        W96318  30.440  40.814  10.688
29536W        W96319  22.576  40.516   0.630
29537W        W96320  41.721  24.657   3.841
29538W        W96321  42.889  22.639  14.055
29539W        W96322  34.710   3.329   4.784
29540W        W96323  11.614  33.985   4.114
29541W        W96324  24.682  13.069  13.459
29542W        W96325   3.471  39.653   0.713
29543W        W96326  20.724  36.564  14.029
29544W        W96327  40.790  17.763   3.633
29545W        W96328  34.883  31.841  13.811
29546W        W96329  13.301  44.326  14.033
29547W        W96330  29.496   8.284   4.650
29548W        W96331  27.948  39.478  12.228
29549W        W96332  23.444  16.095   1.865
29550W        W96333   8.664   5.939   0.186
29551W        W96334  44.476  35.035  10.134
29552W        W96335   7.877   7.452   1.524
29553W        W96336   8.331  36.967  12.901
29554W        W96337  25.734   9.892   3.722
29555W        W96338   4.234   0.830  14.144
29556W        W96339  22.208  25.995   0.312
29557W        W96340  15.884  11.184  11.563
29558W        W96341  18.265  14.841  12.040
29559W        W96342  30.490  14.258   4.089
29560W        W96343  27.572  16.317   2.305
29561W        W96344   3.979   8.634  10.665
29562W        W96345  38.481  43.346   0.400
29563W        W96346   1.618  30.370   2.276
29564W        W96347  13.672  24.092   3.613
29565W        W96348  34.609  12.248  11.266
29566W        W96349  31.487   3.532   1.843
29567W        W96350  35.465  34.381  13.984
29568W        W96351  16.936  17.729   2.056
29569W        W96352  31.362  37.548  12.388
29570W        W96353  22.117   9.322  14.691
29571W        W96354   7.876   3.376   1.189
29572W        W96355  23.947   7.208   3.930
29573W        W96356   4.312  37.147  13.883
29574W        W96357  12.124   3.267  14.570
29575W        W96358   6.757  11.317  13.031
29576W        W96359  41.163  36.745   3.722
29577W        W96360  20.934   1.894   4.182
29578W        W96361  41.201   0.198  12.536
29579W        W96362   4.828  32.492   4.386
29580W        W96363   9.229  20.100   4.917
29581W        W96364   1.242  24.058  13.853
29582W        W96365  12.211  35.107   4.427
29583W        W96366  21.699  21.132   4.049
29584W        W96367  16.600   3.234  14.331
29585W        W96368  31.824   5.604   4.903
29586W        W96369  14.021  21.738   1.622
29587W        W96370   4.031  17.682   1.188
29588W        W96371  32.939  38.764   9.966
29589W        W96372  16.527  35.850   4.659
29590W        W96373  34.888  34.865   4.035
29591W        W96374  44.257  22.697  13.634
29592W        W96375  27.873   1.655   1.326
29593W        W96376  22.145  12.863   3.358
29594W        W96377  39.793  11.308  11.553
29595W        W96378  19.119   2.910   0.463
29596W        W96379  17.655  18.980   3.211
29597W        W96380  22.486   1.704  12.231
29598W        W96381  22.401  36.480   3.248
29599W        W96382   1.322  32.552  13.501
29600W        W96383   6.858  13.530  12.969
29601W        W96384  38.593  37.547  11.653
29602W        W96385  44.190   0.758  13.648
29603W        W96386   9.373  24.234   0.696
29604W        W96387  26.445  43.082   3.700
29605W        W96388   3.270  34.945  11.516
29606W        W96389   1.047  27.694  13.405
29607W        W96390  37.077  32.621  12.512
29608W        W96391  26.869  12.672  10.929
29609W        W96392  35.867  33.465  14.048
29610W        W96393  13.614  34.069  11.634
29611W        W96394  23.539  37.026  13.584
29612W        W96395  20.116  41.986  10.705
29613W        W96396  24.465   8.284   0.240
29614W        W96397  15.675  26.401   4.708
29615W        W96398  33.907   6.514   3.107
29616W        W96399  36.800   3.099   1.796
29617W        W96400  43.849   0.808   3.497
29618W        W96401  28.460  33.214  13.945
29619W        W96402   1.498  20.543   3.322
29620W        W96403  17.023  21.238  12.835
29621W        W96404  27.345   6.291   2.345
29622W        W96405  31.650  10.717   1.781
29623W        W96406  24.039   6.306   9.765
29624W        W96407  29.011  12.844  12.570
29625W        W96408  27.801  27.586   9.817
29626W        W96409  22.601  10.532  13.369
29627W        W96410   7.912  10.862   0.457
29628W        W96411   5.129  12.068   1.380
29629W        W96412   0.001  13.183  10.595
29630W        W96413  28.144   6.442  14.271
29631W        W96414  24.876  38.298  10.776
29632W        W96415   9.676  10.093   0.999
29633W        W96416  16.054  27.833   4.438
29634W        W96417  19.307  17.906  12.253
29635W        W96418  39.028   1.785  13.305
29636W        W96419  32.978  34.616   2.475
29637W        W96420  24.728   8.312  14.794
29638W        W96421  11.187  14.712   2.001
29639W        W96422  14.054  32.589  11.474
29640W        W96423  31.792  33.969   3.798
29641W        W96424  42.797  28.866  14.292
29642W        W96425  28.758  35.494   3.232
29643W        W96426  22.078  26.991   3.172
29644W        W96427  26.676  30.139   2.116
29645W        W96428   8.148  23.275  14.787
29646W        W96429  14.070  37.867   2.569
29647W        W96430  12.183  34.789  12.045
29648W        W96431  21.869  20.781   1.938
29649W        W96432  29.464  34.865   4.707
29650W        W96433   1.804   9.794  13.163
29651W        W96434  43.418  25.878   3.553
29652W        W96435   6.688  39.656   2.338
29653W        W96436  30.607  15.466  11.177
29654W        W96437  20.722   4.286  10.433
29655W        W96438  28.737  36.033   3.118
29656W        W96439  18.878  31.276   2.264
29657W        W96440   4.799   4.089   3.572
29658W        W96441   2.958  23.287   2.831
29659W        W96442  19.275  29.051  13.405
29660W        W96443  43.763  39.792   1.210
29661W        W96444  19.699  39.404   4.470
29662W        W96445  27.970  31.379  12.508
29663W        W96446  13.767   1.280   4.503
29664W        W96447   7.381  23.076   3.051
29665W        W96448   7.461  11.067  14.453
29666W        W96449   2.011  35.812   4.824
29667W        W96450  44.065  19.125   1.348
29668W        W96451  44.160  42.574   0.394
29669W        W96452   0.671  38.565   4.779
29670W        W96453  15.492  16.103   9.771
29671W        W96454   0.169   7.413  12.037
29672W        W96455  33.455  38.278   2.913
29673W        W96456  25.952  39.558   2.208
29674W        W96457   6.223  18.172   0.274
29675W        W96458  15.906  12.742  10.726
29676W        W96459  26.144  36.126   3.241
29677W        W96460  18.785  36.130   5.012
29678W        W96461  11.770  38.823  12.472
29679W        W96462  26.110   7.396  12.407
29680W        W96463  36.053  12.606  13.965
29681W        W96464   9.006  38.027   1.503
29682W        W96465  43.933   5.849  13.451
29683W        W96466  23.523  29.756  12.080
29684W        W96467   0.957  38.560  12.508
29685W        W96468  44.293  17.405   5.365
29686W        W96469  15.924  20.264  10.247
29687W        W96470  24.442  28.161  14.773
29688W        W96471  26.458  16.424   3.730
29689W        W96472   1.881   7.243   1.224
29690W        W96473  25.821   4.992  14.027
29691W        W96474  38.028   5.585  14.887
29692W        W96475  19.054  43.122   2.649
29693W        W96476   6.799  14.705   3.094
29694W        W96477  18.564  10.339  11.422
29695W        W96478   7.252  27.097  10.441
29696W        W96479   0.977  25.897  14.478
29697W        W96480  14.228   8.291   2.903
29698W        W96481  38.014   7.431   1.201
29699W        W96482   2.397  23.002  11.259
29700W        W96483   1.853  37.349   2.875
29701W        W96484  24.180  24.919  13.355
29702W        W96485  28.916  10.737  10.750
29703W        W96486   5.292  18.505   4.887
29704W        W96487   6.565  31.008   2.581
29705W        W96488  38.459  19.132   0.270
29706W        W96489  10.605  31.900  12.634
29707W        W96490   0.383  21.188   3.665
29708W        W96491  16.245  19.007   3.901
29709W        W96492  18.709  22.006  11.005
29710W        W96493  32.059  24.162   0.234
29711W        W96494   0.740  31.018   1.363
29712W        W96495  40.835  12.895  13.535
29713W        W96496  26.897  42.749  11.562
29714W        W96497  21.616  40.105  12.068
29715W        W96498  39.795  19.194   0.306
29716W        W96499  28.641   9.333  13.517
29717W        W96500  21.109  35.095   0.485
29718W        W96501  40.008  25.640  14.708
29719W        W96502   3.436   8.906   4.164
29720W        W96503  18.014  36.344  10.341
29721W        W96504  37.414  40.065   4.072
29722W        W96505  40.720   3.466   3.702
29723W        W96506  26.641  22.691  13.975
29724W        W96507  43.327  12.599   2.448
29725W        W96508   0.468  39.911   4.153
29726W        W96509  16.292  40.306   0.307
29727W        W96510  21.128  33.905   1.286
29728W        W96511   6.773  12.238   0.945
29729W        W96512  19.800  28.538   1.758
29730W        W96513  31.495  29.964  14.395
29731W        W96514  29.385  35.939   2.284
29732W        W96515  30.977  27.782   0.838
29733W        W96516   3.335  39.464   3.632
29734W        W96517  11.391   4.720  10.980
29735W        W96518  42.441  12.165   5.339
29736W        W96519  33.642  18.936  14.220
29737W        W96520  23.542  24.427  13.970
29738W        W96521  13.801  40.666  10.307
29739W        W96522  21.579  14.155   1.606
29740W        W96523  27.364  31.015   4.642
29741W        W96524  34.265  32.408   0.861
29742W        W96525   9.536  24.039   3.644
29743W        W96526  32.430  22.106   4.915
29744W        W96527   6.357  27.149  11.922
29745W        W96528  19.496  36.480  13.368
29746W        W96529  12.289   9.815   2.060
29747W        W96530  17.631  24.079  14.700
29748W        W96531   9.609  21.782  11.173
29749W        W96532   7.647  25.195  13.840
29750W        W96533  10.312  35.744   2.875
29751W        W96534  32.878  19.151   1.764
29752W        W96535  38.596   6.223  12.598
29753W        W96536  20.480  40.305  10.551
29754W        W96537  27.479  43.200   2.487
29755W        W96538  27.561  22.015   4.175
29756W        W96539  42.432  36.547  11.174
29757W        W96540  14.156  36.406   1.595
29758W        W96541  42.553  18.327  12.636
29759W        W96542   2.329  26.281   1.345
29760W        W96543  26.427  42.931  11.419
29761W        W96544  25.597  18.791   1.496
29762W        W96545  31.672  23.152  13.313
29763W        W96546  28.619  36.870  11.306
29764W        W96547  15.147  22.565  14.346
29765W        W96548   6.239  32.247   0.194
29766W        W96549  37.110  33.130   3.556
29767W        W96550   5.383  23.468   0.319
29768W        W96551  28.276   2.033   0.018
29769W        W96552  11.295  23.956  11.969
29770W        W96553  39.759  41.054   3.662
29771W        W96554  44.055  34.322  14.886
29772W        W96555  34.793  25.842   4.173
29773W        W96556   2.205  18.855  12.991
29774W        W96557  18.579   0.382   1.868
29775W        W96558  18.859   4.778  14.578
29776W        W96559  27.525  21.956   1.904
29777W        W96560   6.920  12.404  12.016
29778W        W96561  20.947  15.730  11.089
29779W        W96562  32.787  22.122  12.469
29780W        W96563  19.393  25.378  14.485
29781W        W96564  16.580  30.926   3.640
29782W        W96565  43.040  40.025  14.923
29783W        W96566   1.455  20.529  12.954
29784W        W96567  30.419  35.953  13.879
29785W        W96568   8.276  32.018   1.996
29786W        W96569  42.917  36.952   4.404
29787W        W96570   9.265  43.243  13.022
29788W        W96571  28.625  29.900  11.424
29789W        W96572  24.615   2.532  12.031
29790W        W96573  40.812  32.558  11.598
29791W        W96574  17.371   7.409  14.560
29792W        W96575  38.301  31.452  11.535
29793W        W96576   9.695   5.522   0.887
29794W        W96577  42.520  39.293   4.660
29795W        W96578   5.994  27.180   4.107
29796W        W96579   7.155  16.660   3.604
29797W        W96580  31.907   3.984  10.474
29798W        W96581  28.516   6.702   0.842
29799W        W96582  39.280  34.501  14.956
29800W        W96583  11.727   8.742  13.844
29801W        W96584  38.487   9.057  14.388
29802W        W96585  37.796  31.007  10.356
29803W        W96586  14.467  38.547  10.588
29804W        W96587   7.424   8.287  11.076
29805W        W96588   2.751   9.346   3.743
29806W        W96589   7.616  10.081  13.077
29807W        W96590   0.252   5.476  14.716
29808W        W96591  14.593  37.666  10.570
29809W        W96592  18.259  24.123  14.029
29810W        W96593  29.137   6.330  12.671
29811W        W96594  28.396  23.739  10.617
29812W        W96595   2.409  28.011   1.218
29813W        W96596  36.684   5.334   3.159
29814W        W96597   2.710  34.989  12.490
29815W        W96598  44.381  31.578   0.378
29816W        W96599  26.403  29.963   0.654
29817W        W96600   1.978  28.006   4.124
29818W        W96601  29.021   7.770   1.252
29819W        W96602  36.015  35.860   4.895
29820W        W96603   3.182  15.554  12.030
29821W        W96604   6.394  20.073   0.910
29822W        W96605   7.893  41.076   2.899
29823W        W96606   8.304  34.618   0.350
29824W        W96607   7.746  34.803  11.249
29825W        W96608   6.259  36.903   2.253
29826W        W96609  23.670   9.803   1.689
29827W        W96610   4.047   0.538   0.431
29828W        W96611  42.307  39.967   4.101
29829W        W96612   1.393  33.944  11.478
29830W        W96613   5.941   8.296   3.783
29831W        W96614  40.887  15.243   0.813
29832W        W96615  15.957  19.145   1.167
29833W        W96616  21.030  30.613   4.876
29834W        W96617  22.995   8.482  14.188
29835W        W96618  23.665   4.956   3.701
29836W        W96619  40.835  21.724   4.635
29837W        W96620  41.567  20.185   3.112
29838W        W96621  11.059  38.923   2.842
29839W        W96622  43.915  38.298   2.921
29840W        W96623  31.142   2.194  14.909
29841W        W96624  16.201  12.087  12.510
29842W        W96625  40.058  42.778   4.097
29843W        W96626  10.706  29.582  14.262
29844W        W96627   6.602  43.528  14.524
29845W        W96628  22.565  17.871   2.921
29846W        W96629  25.040  22.394   2.865
29847W        W96630  39.729   3.185   2.936
29848W        W96631  33.369  38.996  12.080
29849W        W96632  25.470   9.112   1.355
29850W        W96633  15.213  32.019  11.138
29851W        W96634  33.833  44.043   0.619
29852W        W96635  15.413  42.969  14.495
29853W        W96636  19.138   8.178   3.303
29854W        W96637  44.338  40.101   2.192
29855W        W96638  20.762  21.234  12.599
29856W        W96639  33.373   9.797  12.897
29857W        W96640  15.822  27.507  12.390
29858W        W96641   8.869  42.655   3.219
29859W        W96642  13.323  18.848  11.139
29860W        W96643  41.421  22.033   1.381
29861W        W96644  33.552  42.042   4.107
29862W        W96645  19.064  38.909  12.494
29863W        W96646  43.595  35.441  14.040
29864W        W96647   4.916  30.485  13.864
29865W        W96648  11.100  39.466  14.512
29866W        W96649   0.243  19.654  14.860
29867W        W96650  17.810  15.083  12.042
29868W        W96651   5.911  34.404  10.597
29869W        W96652  17.704  31.001   3.183
29870W        W96653  36.474  25.318   4.090
29871W        W96654  27.479  18.565  10.669
29872W        W96655  16.469  42.630  11.442
29873W        W96656  16.343   3.673   4.997
29874W        W96657  24.267  37.467   4.738
29875W        W96658  37.893  44.202  11.414
29876W        W96659  30.055  17.312  14.602
29877W        W96660  21.607  22.673  11.994
29878W        W96661  35.465   0.503  14.482
29879W        W96662  11.749   4.190   1.437
29880W        W96663  32.548   7.185   2.174
29881W        W96664  20.653  22.091  14.626
29882W        W96665   8.921  15.033   1.789
29883W        W96666   7.632  13.821  13.339
29884W        W96667  39.404  31.973  11.053
29885W        W96668  43.438  38.311   4.125
29886W        W96669  29.576  34.029  14.292
29887W        W96670   9.475  10.259  14.274
29888W        W96671  30.321  41.467   2.413
29889W        W96672  16.167   8.729  12.376
29890W        W96673  30.049  17.571   3.157
29891W        W96674   9.757   5.664   0.090
29892W        W96675  26.980  42.831   1.738
29893W        W96676  28.110  39.126   4.591
29894W        W96677  33.403  41.295   1.224
29895W        W96678  14.111   8.221   1.706
29896W        W96679  11.218  19.907  12.780
29897W        W96680   7.418  35.509  10.694
29898W        W96681  29.530  15.760  14.115
29899W        W96682  11.765  10.461   4.534
29900W        W96683  10.411  21.851  11.585
29901W        W96684  28.410  22.013   1.910
29902W        W96685  14.841  19.818  13.296
29903W        W96686  28.284  14.448  11.108
29904W        W96687  41.430  38.125   3.858
29905W        W96688  37.191   0.248   4.605
29906W        W96689  15.346  10.331  13.326
29907W        W96690  24.397  36.020  10.475
29908W        W96691  33.522   1.290  14.498
29909W        W96692  16.792  42.163   2.695
29910W        W96693  42.955  15.815   0.284
29911W        W96694  16.391   3.896   0.537
29912W        W96695  41.443   1.746   0.604
29913W        W96696   7.818  35.133   1.807
29914W        W96697   2.770  14.242   1.834
29915W        W96698  25.456  44.327  12.358
29916W        W96699  32.178   9.125  10.359
29917W        W96700  14.832  11.196  13.509
29918W        W96701   6.873   1.821  14.206
29919W        W96702  14.792  12.220  11.572
29920W        W96703  41.317  39.128   1.459
29921W        W96704  15.337   2.377   3.670
29922W        W96705  18.730  24.928  13.748
29923W        W96706  14.275  35.349   9.818
29924W        W96707  30.280  32.418  12.162
29925W        W96708  43.864  37.684   4.328
29926W        W96709   1.991  33.251  13.408
29927W        W96710  12.565  34.114  10.794
29928W        W96711  30.999  32.858   1.271
29929W        W96712   4.254  32.853   1.256
29930W        W96713  20.634  31.784  10.574
29931W        W96714  37.370  14.677   0.644
29932W        W96715   3.069   8.919   0.959
29933W        W96716  13.314  28.075   4.071
29934W        W96717  24.177  37.319   1.405
29935W        W96718  23.649   2.430  11.780
29936W        W96719   0.789  24.959  10.775
29937W        W96720  23.322  15.959   4.013
29938W        W96721   7.874   5.141  11.530
29939W        W96722  34.801  33.405  12.472
29940W        W96723  33.144  11.397  11.573
29941W        W96724   5.261  13.859  11.624
29942W        W96725   6.650   4.386  13.400
29943W        W96726  35.464   7.508   3.136
29944W        W96727   4.228  30.618   0.890
29945W        W96728  39.701   6.094  14.285
29946W        W96729  37.656   1.940  11.570
29947W        W96730  25.239   6.961   3.233
29948W        W96731  35.471  36.762  13.811
29949W        W96732  19.610  34.368   1.241
29950W        W96733  26.573  33.199  12.077
29951W        W96734  27.547  19.787   0.918
29952W        W96735   3.644  33.417   4.197
29953W        W96736  28.200  18.604  11.163
29954W        W96737  29.667  16.762   2.784
29955W        W96738  17.069  32.517  14.964
29956W        W96739  25.013  43.303  14.489
29957W        W96740  12.167  33.271   4.577
29958W        W96741   4.370  15.859   0.370
29959W        W96742   6.619  11.339  14.931
29960W        W96743  23.960  19.994   3.617
29961W        W96744   4.099  21.129   0.260
29962W        W96745  29.747  14.111   0.253
29963W        W96746   6.980  38.760   4.145
29964W        W96747  38.453  35.280  11.141
29965W        W96748  19.741   5.973   3.697
29966W        W96749  24.900  39.363   3.215
29967W        W96750  43.935  10.857  14.519
29968W        W96751   5.439  23.871  10.776
29969W        W96752  30.125  23.676  11.679
29970W        W96753  44.901  38.461  11.596
29971W        W96754  11.706  30.664   0.471
29972W        W96755  35.489   1.747   3.698
29973W        W96756  29.877  22.786   1.392
29974W        W96757  42.858  18.287  14.411
29975W        W96758  42.976   4.832  11.634
29976W        W96759  10.919  34.108   2.774
29977W        W96760  35.476   2.722   3.735
29978W        W96761  21.536  12.689   0.837
29979W        W96762  15.753  26.522   3.840
29980W        W96763  22.171  20.721  12.569
29981W        W96764  44.185  23.692   4.166
29982W        W96765   1.004  18.426  12.535
29983W        W96766  21.951  19.971  13.087
29984W        W96767  37.488  17.607  13.508
29985W        W96768   6.806  21.908  13.412
29986W        W96769  36.625  14.279  10.129
29987W        W96770  36.926  29.097  13.314
29988W        W96771   0.028  19.090  10.765
29989W        W96772  43.784  18.481  11.168
29990W        W96773  22.730  12.457  12.892
29991W        W96774  43.578  22.946  12.588
29992W        W96775   4.137  14.309   1.758
29993W        W96776  43.139  18.595   3.626
29994W        W96777   5.425   7.394  14.527
29995W        W96778  44.126  21.664   4.033
29996W        W96779  18.517  32.931   0.050
29997W        W96780  35.147   8.583  14.414
29998W        W96781  27.817  30.479  12.732
29999W        W96782  39.861  25.283   1.161
30000W        W96783  16.234  44.759  11.606
30001W        W96784  18.683  23.275   0.373
30002W        W96785  26.061  21.988   4.940
30003W        W96786  39.254  28.991  13.073
30004W        W96787  25.768  11.352   2.814
30005W        W96788  15.594   6.389   1.118
30006W        W96789  20.977   4.884  10.752
30007W        W96790  15.341  17.660   1.466
30008W        W96791  44.448   9.857   1.955
30009W        W96792  29.027  35.326  11.398
30010W        W96793  31.917  43.065  13.320
30011W        W96794  14.402  29.669  11.194
30012W        W96795  33.377  36.653   0.764
30013W        W96796   5.015  38.288   3.264
30014W        W96797  39.233  26.074  11.203
30015W        W96798   9.314   5.350   2.300
30016W        W96799  11.791   0.688  14.241
30017W        W96800  16.083   9.397   4.808
30018W        W96801  16.893  42.965   4.528
30019W        W96802  11.522   6.378   0.242
30020W        W96803  14.230   3.584  11.469
30021W        W96804  19.268  36.895  14.420
30022W        W96805  30.691  30.520   3.162
30023W        W96806  43.276  37.317   3.863
30024W        W96807  11.339  11.263   2.373
30025W        W96808  25.956  23.158   3.115
30026W        W96809   4.925  30.424   4.360
30027W        W96810  17.198  42.360   3.033
30028W        W96811   7.619  17.035  11.564
30029W        W96812  22.149  28.527  13.423
30030W        W96813  17.666   9.246   1.097
30031W        W96814  23.903   5.303  12.973
30032W        W96815   1.290  40.090  12.960
30033W        W96816  35.146  11.069  14.388
30034W        W96817   8.823  39.785   4.846
30035W        W96818  41.785   0.523   0.467
30036W        W96819  24.560  25.287  13.376
30037W        W96820  13.264  28.192   2.341
30038W        W96821  43.407   1.677   1.836
30039W        W96822  13.183   4.855  14.015
30040W        W96823  28.888  37.753  12.443
30041W        W96824   1.878  41.726   0.065
30042W        W96825  27.009  18.123  12.904
30043W        W96826  44.925  39.945  14.867
30044W        W96827  23.191  26.584   3.159
30045W        W96828  11.819   0.241  13.422
30046W        W96829  31.341   2.414   4.888
30047W        W96830  30.080   2.824  12.450
30048W        W96831  26.160  20.129   3.383
30049W        W96832   0.533  43.398   1.519
30050W        W96833  43.943  16.281  12.075
30051W        W96834  24.463  24.775   3.744
30052W        W96835  30.179  43.849   4.505
30053W        W96836  22.178  14.159   2.349
30054W        W96837  41.513   3.789   1.991
30055W        W96838   5.887  27.977  13.005
30056W        W96839   8.767  17.995   2.239
30057W        W96840  42.628  14.693  12.504
30058W        W96841  40.505  44.501   3.259
30059W        W96842  39.641  30.518  11.055
30060W        W96843   9.127  22.848   3.419
30061W        W96844  40.845  19.257   4.700
30062W        W96845  37.773  38.157  10.873
30063W        W96846  24.927  34.842   1.696
30064W        W96847  29.738  31.887   4.131
30065W        W96848  34.477  22.861   9.514
30066W        W96849  37.432  37.558  12.650
30067W        W96850  26.767  38.781   4.914
30068W        W96851  27.999  10.557  12.897
30069W        W96852  33.205  12.826   4.266
30070W        W96853  15.691  18.194  13.120
30071W        W96854  10.824   2.984   2.666
30072W        W96855   8.759  17.342  14.773
30073W        W96856  13.827   2.805  13.471
30074W        W96857   5.694   1.474   3.194
30075W        W96858  26.186  13.276  13.412
30076W        W96859  25.035   9.393   1.288
30077W        W96860   5.206  22.044  12.830
30078W        W96861  35.556  13.032  10.456
30079W        W96862  41.564  39.023  11.489
30080W        W96863  21.303  25.784   2.384
30081W        W96864  26.158  16.347  11.150
30082W        W96865  25.411  14.259  14.830
30083W        W96866  42.332  29.031   2.694
30084W        W96867  44.248   3.357   0.779
30085W        W96868  21.214  16.291   4.712
30086W        W96869  17.140   2.038  12.675
30087W        W96870  29.699  20.119   2.649
30088W        W96871  26.107   5.451   1.567
30089W        W96872  11.185  43.784   0.405
30090W        W96873  13.062  16.469   0.760
30091W        W96874  19.007  10.897   0.891
30092W        W96875   8.326  11.596  11.599
30093W        W96876  30.979  42.284  13.844
30094W        W96877  13.630  27.124   0.955
30095W        W96878  43.429  27.155   2.948
30096W        W96879  35.523   0.782   2.840
30097W        W96880  30.864  10.683   4.062
30098W        W96881  36.822  31.095   4.380
30099W        W96882   0.865  13.303   0.445
30100W        W96883  14.538  23.188   0.498
30101W        W96884  24.196  33.204   0.814
30102W        W96885  25.791  21.964  14.984
30103W        W96886  25.503  12.499  11.552
30104W        W96887   7.110   5.729   1.308
30105W        W96888  30.571  13.622  10.747
30106W        W96889  33.701  15.153   2.739
30107W        W96890  31.504  36.785  10.750
30108W        W96891   8.686  25.941   1.225
30109W        W96892  39.865  17.081  11.304
30110W        W96893  24.967  18.721  14.518
30111W        W96894  33.467  43.521   1.431
30112W        W96895  10.630  13.303  14.231
30113W        W96896  12.356  12.818   3.662
30114W        W96897  12.393  18.238  13.884
30115W        W96898  11.579  31.095   4.825
30116W        W96899   6.824  18.324  14.823
30117W        W96900  37.306   3.867  12.341
30118W        W96901  29.300  13.166   2.738
30119W        W96902   6.986  35.415  12.098
30120W        W96903   1.972  30.435  14.782
30121W        W96904  10.069  12.149  12.008
30122W        W96905  23.695  36.864  14.849
30123W        W96906   3.342  39.178   4.097
30124W        W96907  39.103   3.010  11.961
30125W        W96908  31.068  21.168   9.861
30126W        W96909  39.529  27.063   2.550
30127W        W96910  26.642  38.537   2.794
30128W        W96911  21.794  21.014   3.568
30129W        W96912  38.660  17.510  12.516
30130W        W96913  42.207  21.574   4.725
30131W        W96914  25.515  18.687  12.931
30132W        W96915  10.908   7.243  13.950
30133W        W96916  12.102  10.728   4.813
30134W        W96917   9.331  43.960  12.631
30135W        W96918   6.629   6.251  14.005
30136W        W96919  37.809  10.104  12.836
30137W        W96920  12.780  15.762   2.910
30138W        W96921  14.246  13.813  14.229
30139W        W96922  15.066  39.893   5.071
30140W        W96923   7.209   1.838  10.621
30141W        W96924  19.614   1.214  14.305
30142W        W96925  25.007  19.827  12.546
30143W        W96926  17.764  25.474  12.956
30144W        W96927  26.763  26.389   3.990
30145W        W96928  39.445  28.119   2.755
30146W        W96929  28.966  15.289  14.477
30147W        W96930   3.868  32.110   4.156
30148W        W96931   7.062  38.296   3.883
30149W        W96932   2.212  42.239   0.662
30150W        W96933  23.237   7.347  10.634
30151W        W96934   5.754  38.933  11.156
30152W        W96935   9.863  23.958  13.454
30153W        W96936  33.997   2.213   5.002
30154W        W96937  21.144  33.573   5.263
30155W        W96938  29.034  15.205  13.844
30156W        W96939  11.286  41.354   0.739
30157W        W96940   2.280  14.394   1.894
30158W        W96941  33.794  39.352  14.982
30159W        W96942  10.229  37.933  10.515
30160W        W96943   8.592  42.466  12.878
30161W        W96944   5.346   2.311   2.629
30162W        W96945  22.402  40.537  13.089
30163W        W96946   2.181   3.890   3.254
30164W        W96947  12.254  20.780   0.633
30165W        W96948  43.960   0.972   4.716
30166W        W96949  23.542  21.662   4.585
30167W        W96950   3.230  22.303   1.579
30168W        W96951  26.231  23.176   3.816
30169W        W96952   8.795   4.101  12.106
30170W        W96953   3.369   2.883   4.583
30171W        W96954  31.226   0.768   3.625
30172W        W96955  17.647  36.043  10.668
30173W        W96956  44.854  14.539   1.678
30174W        W96957  11.209  35.905  13.029
30175W        W96958  39.719  18.061  11.131
30176W        W96959  20.265  37.004  13.375
30177W        W96960  32.722  19.540   5.041
30178W        W96961  21.438  43.440  10.657
30179W        W96962  20.197  38.729  13.052
30180W        W96963  23.131  15.563   3.084
30181W        W96964  31.105  22.417  12.590
30182W        W96965  26.410   9.359  13.394
30183W        W96966  13.591  30.023  13.068
30184W        W96967  25.115  33.677  12.781
30185W        W96968  37.514  41.835  13.254
30186W        W96969   3.725  22.806  10.827
30187W        W96970   6.860  27.477  14.265
30188W        W96971  24.089  22.749  13.441
30189W        W96972  30.365  22.925   4.924
30190W        W96973  32.144  34.365   4.192
30191W        W96974   5.697  42.207   2.781
30192W        W96975  24.263  25.167   3.469
30193W        W96976  34.461  36.347  12.379
30194W        W96977  22.302  17.732   3.336
30195W        W96978  25.845   5.241   0.964
30196W        W96979  39.075  23.627  13.425
30197W        W96980  20.790  44.858   3.753
30198W        W96981   2.827  31.105  10.966
30199W        W96982  33.534  31.153   3.018
30200W        W96983   2.257  17.158  11.513
30201W        W96984  41.930   0.184   4.305
30202W        W96985  36.028  17.974  11.754
30203W        W96986   5.725   6.291   0.329
30204W        W96987   6.912  43.035   4.590
30205W        W96988  39.544  19.483   2.297
30206W        W96989  42.961  42.042  13.316
30207W        W96990   9.761   1.866  12.944
30208W        W96991  40.261  15.620  10.381
30209W        W96992  30.588  22.018   2.748
30210W        W96993  27.771  10.538  12.084
30211W        W96994  38.157  40.020  11.032
30212W        W96995  39.120  20.737  14.767
30213W        W96996  21.205  38.016  11.084
30214W        W96997  17.547  26.526  14.251
30215W        W96998  15.296   3.473  13.773
30216W        W96999  33.166   0.763   4.411
30217W        W97000  21.458  12.147   3.185
30218W        W97001  22.205  11.230   0.309
30219W        W97002  17.319  16.840  11.409
30220W        W97003  39.262  22.621  12.646
30221W        W97004  29.302  43.461   2.821
30222W        W97005  20.506  30.681   2.809
30223W        W97006  19.096   2.486  13.542
30224W        W97007  18.531   2.499   4.505
30225W        W97008  18.047   2.718  11.577
30226W        W97009   3.758  35.091   4.646
30227W        W97010  42.760  37.602   5.063
30228W        W97011  37.923  33.948  10.807
30229W        W97012  44.253   1.453  10.418
30230W        W97013  35.082   2.478   5.109
30231W        W97014   3.384  22.402   2.069
30232W        W97015   2.581  24.105  12.097
30233W        W97016  37.460  31.679   4.307
30234W        W97017   9.649  13.824   3.241
30235W        W97018  32.288   5.559  13.858
30236W        W97019   3.421   1.263  12.414
30237W        W97020  30.048  21.443  11.463
30238W        W97021  40.202  22.012   0.394
30239W        W97022  41.752  28.820   0.801
30240W        W97023  35.632   3.744  13.475
30241W        W97024  42.010  17.090   0.375
30242W        W97025   7.789   9.280   5.060
30243W        W97026  16.194  11.770  12.115
30244W        W97027  43.938  41.156   1.812
30245W        W97028   4.203  28.081  10.600
30246W        W97029   0.357  23.580   2.151
30247W        W97030  22.300  11.846  14.001
30248W        W97031  29.237  38.354   0.445
30249W        W97032  21.549  27.082   4.667
30250W        W97033   7.108  12.034  14.535
30251W        W97034   8.675  32.201   1.219
30252W        W97035  38.397  10.597   0.179
30253W        W97036  36.347  24.694   3.424
30254W        W97037  39.498   7.330   0.444
30255W        W97038  12.638  42.827  10.469
30256W        W97039  20.321   0.762   1.890
30257W        W97040   5.874  20.084  11.206
30258W        W97041  21.687   9.133  11.621
30259W        W97042  22.293  39.800   3.254
30260W        W97043  21.042  25.028   2.673
30261W        W97044  18.695  37.416   9.990
30262W        W97045  19.267  35.039   0.263
30263W        W97046  26.085   2.128  10.180
30264W        W97047  21.805  30.447   3.848
30265W        W97048  41.525   5.416  10.693
30266W        W97049  22.101  37.753  11.547
30267W        W97050  39.593   2.439   1.733
30268W        W97051   4.086  22.880   3.247
30269W        W97052   3.309   0.918   2.154
30270W        W97053   7.737  25.703   0.791
30271W        W97054  41.026  31.893   1.687
30272W        W97055  22.375  16.847   3.828
30273W        W97056  12.175  27.564  12.579
30274W        W97057  27.918  30.808   0.422
30275W        W97058   3.843  42.586   0.283
30276W        W97059   0.247   3.466   2.757
30277W        W97060   5.681  40.810   1.312
30278W        W97061  36.966   5.212  12.560
30279W        W97062  40.647   7.896  11.107
30280W        W97063  24.146   2.414   0.003
30281W        W97064   8.626  13.331   2.310
30282W        W97065  37.531  34.471  13.484
30283W        W97066   8.049  17.781   0.081
30284W        W97067  10.601  12.996  10.756
30285W        W97068  20.520   7.343  13.796
30286W        W97069  36.028  13.497   2.177
30287W        W97070  29.166  38.564   3.255
30288W        W97071  11.115  27.179   1.262
30289W        W97072   1.003  25.569   4.355
30290W        W97073  24.149  36.349  12.508
30291W        W97074  41.759  37.077  12.346
30292W        W97075  15.241  24.482   1.988
30293W        W97076   6.651  43.386  12.411
30294W        W97077  41.973  29.984   1.199
30295W        W97078  28.184  34.717  11.599
30296W        W97079  36.263  28.902  11.249
30297W        W97080  16.246  15.541   1.975
30298W        W97081  22.585  23.420   1.408
30299W        W97082  31.127  41.036  14.360
30300W        W97083  22.869  43.123   5.181
30301W        W97084   6.858  26.212   1.865
30302W        W97085  25.419  30.534   2.669
30303W        W97086  35.832  15.910   3.446
30304W        W97087  23.567  38.521   2.654
30305W        W97088  17.416  31.813  14.045
30306W        W97089  25.089  24.217  12.223
30307W        W97090   3.319   3.899  12.804
30308W        W97091  42.225  31.454   3.646
30309W        W97092  23.154  15.347  10.693
30310W        W97093   4.791  23.586   9.858
30311W        W97094  32.938  23.731  13.003
30312W        W97095  34.452  10.866   2.381
30313W        W97096  19.311  26.017   0.408
30314W        W97097  41.484   5.471   0.502
30315W        W97098  39.102  31.882   4.182
30316W        W97099  32.119  22.063   0.925
30317W        W97100  30.785   6.335  14.285
30318W        W97101  16.526  34.232  11.541
30319W        W97102  16.853  19.503   3.255
30320W        W97103   8.296  33.302   1.200
30321W        W97104   2.532  28.551  11.014
30322W        W97105  40.835  22.435   0.784
30323W        W97106  25.672  30.155  11.136
30324W        W97107   8.813  25.139  12.659
30325W        W97108  32.454  43.874  12.075
30326W        W97109   7.056  15.525   2.759
30327W        W97110  42.983   7.712  13.668
30328W        W97111   9.799   3.004   0.836
30329W        W97112   7.031   8.340  10.725
30330W        W97113  36.306   6.321   3.845
30331W        W97114  10.721   6.804   5.112
30332W        W97115  22.710  19.777   0.861
30333W        W97116  44.336  28.860   4.689
30334W        W97117  21.642   2.110   3.693
30335W        W97118  41.540  22.102   3.154
30336W        W97119  19.136   4.727   1.709
30337W        W97120  23.707  19.545   4.086
30338W        W97121  19.835   2.985   9.872
30339W        W97122  42.668  35.192  11.094
30340W        W97123  14.316  14.758   4.194
30341W        W97124  26.110  36.364   2.774
30342W        W97125  40.024  39.381   2.216
30343W        W97126  10.258  22.758   3.675
30344W        W97127  42.759  27.448  11.986
30345W        W97128  40.935  11.688   0.948
30346W        W97129  13.706  18.037   2.091
30347W        W97130  41.046  29.566   4.965
30348W        W97131   1.320  43.778   0.308
30349W        W97132  19.047  10.090   0.322
30350W        W97133  39.393  41.120   0.376
30351W        W97134  13.945  43.870  12.421
30352W        W97135   7.839  23.673   2.818
30353W        W97136  34.440   8.693   2.846
30354W        W97137  34.609  29.165  13.400
30355W        W97138  20.431  15.530   5.135
30356W        W97139  38.463   0.173   2.336
30357W        W97140  33.107  44.612   1.892
30358W        W97141   0.012  23.244  14.320
30359W        W97142  41.604  37.298   0.269
30360W        W97143  16.725  37.705   1.824
30361W        W97144  22.589  29.231  13.405
30362W        W97145  16.894  42.813   0.482
30363W        W97146  17.997  33.842  13.871
30364W        W97147  34.947  24.219  11.180
30365W        W97148  33.156   9.741  12.407
30366W        W97149   0.307   5.962  11.897
30367W        W97150  17.616  17.673  11.162
30368W        W97151  34.424  41.955   4.088
30369W        W97152  11.556  27.035  11.634
30370W        W97153  20.957  26.318  14.704
30371W        W97154   6.750  15.746   0.794
30372W        W97155  13.785  24.982   0.052
30373W        W97156  38.898   9.479  11.048
30374W        W97157   4.679  16.365   0.683
30375W        W97158  33.291  22.260   0.690
30376W        W97159  29.549  41.976   5.292
30377W        W97160  10.664   2.803   4.595
30378W        W97161  26.149  43.889   3.796
30379W        W97162  34.031  27.972  11.903
30380W        W97163  19.702  43.038  11.322
30381W        W97164  22.889  24.420  10.603
30382W        W97165  24.791  26.273  14.538
30383W        W97166  23.023  24.969   3.221
30384W        W97167  38.034  19.518   2.080
30385W        W97168   8.171   3.983   1.740
30386W        W97169  12.038  30.476  10.722
30387W        W97170  39.374   9.041  14.276
30388W        W97171  21.063  16.491   1.025
30389W        W97172  11.884  14.363   4.542
30390W        W97173  11.058  27.679   1.542
30391W        W97174  35.273  31.939   4.044
30392W        W97175  10.130  33.863  10.756
30393W        W97176   9.358  39.961  14.534
30394W        W97177  30.192  25.217   1.378
30395W        W97178  34.323  13.136  13.395
30396W        W97179   1.770  22.315  11.417
30397W        W97180   2.125   5.642  14.312
30398W        W97181  38.802  15.802  10.640
30399W        W97182   4.702  27.536   2.274
30400W        W97183  33.454  39.755  10.686
30401W        W97184  10.739  30.560  12.277
30402W        W97185  31.447  20.092   0.044
30403W        W97186  39.295   7.597   1.781
30404W        W97187  10.154  40.330  11.597
30405W        W97188  16.601  38.794  10.608
30406W        W97189  33.717  28.100  11.509
30407W        W97190   5.457  14.285   4.775
30408W        W97191  42.460  26.703   1.047
30409W        W97192   1.847   7.896   3.153
30410W        W97193   5.439  34.296   1.767
30411W        W97194  37.317  33.908   4.084
30412W        W97195   1.980  41.471  14.325
30413W        W97196  36.774   8.700   2.236
30414W        W97197  40.222   1.470  12.030
30415W        W97198  40.933  25.784  10.808
30416W        W97199  34.429  41.010   0.716
30417W        W97200  15.614  33.424   1.326
30418W        W97201  21.030  20.536   1.850
30419W        W97202  30.409   4.463   4.128
30420W        W97203  18.687  21.081  13.352
30421W        W97204   1.405   8.043  14.112
30422W        W97205  32.593  24.097  12.653
30423W        W97206  22.008  37.467   1.244
30424W        W97207  21.596  36.885   2.656
30425W        W97208  32.533   0.604  13.994
30426W        W97209  41.022  23.211   2.648
30427W        W97210  36.542  29.722  11.923
30428W        W97211  32.618  19.655   1.476
30429W        W97212  43.757  12.784  12.007
30430W        W97213  43.573  25.144   2.516
30431W        W97214  37.703  24.851   3.572
30432W        W97215  17.011  34.345  12.126
30433W        W97216  19.309  17.068   3.529
30434W        W97217  26.705  15.085  12.630
30435W        W97218  25.736  18.229  14.406
30436W        W97219   3.728  31.502  12.088
30437W        W97220  14.850  11.840   1.938
30438W        W97221  17.538  21.454  12.853
30439W        W97222  38.724  38.545   3.111
30440W        W97223  20.316  23.924   3.720
30441W        W97224  13.723  44.826   4.059
30442W        W97225  30.869  24.648  10.409
30443W        W97226  41.224   7.240  11.526
30444W        W97227   6.244  26.687   3.148
30445W        W97228  30.397   5.576   0.382
30446W        W97229  34.591  11.204   2.750
30447W        W97230  12.713  23.315   1.220
30448W        W97231  35.385  21.859  12.270
30449W        W97232  41.930  29.352   3.732
30450W        W97233   9.073   8.883  10.412
30451W        W97234  39.903  25.181   3.802
30452W        W97235   4.442  23.182  12.394
30453W        W97236  11.759  20.661   0.538
30454W        W97237  38.993   3.957   0.321
30455W        W97238  40.825  28.360  11.562
30456W        W97239  44.158   9.356   0.390
30457W        W97240   8.384  30.560   3.667
30458W        W97241  32.937  35.601  12.484
30459W        W97242   9.647  36.544  13.592
30460W        W97243  14.129   3.446  10.588
30461W        W97244  12.428   0.306  14.875
30462W        W97245  33.039   5.343  11.369
30463W        W97246  17.794  35.368   0.007
30464W        W97247   7.175  28.957  14.359
30465W        W97248   2.001  17.716   3.602
30466W        W97249  11.165  16.262   4.983
30467W        W97250  21.985  18.284   2.496
30468W        W97251   2.112  25.310  11.175
30469W        W97252  39.218  10.670  10.405
30470W        W97253   8.894  39.524   1.176
30471W        W97254  29.541   9.113  11.585
30472W        W97255  18.046  10.284   0.440
30473W        W97256  25.732   5.695   0.008
30474W        W97257  27.855  13.150  11.968
30475W        W97258  36.481   6.556   0.047
30476W        W97259  15.650  41.059   0.521
30477W        W97260  14.217  11.380  14.771
30478W        W97261   5.476  16.146   4.602
30479W        W97262   3.892  38.541  11.220
30480W        W97263   9.893  15.059  14.474
30481W        W97264   5.454  30.219   0.149
30482W        W97265  25.024   3.896  14.357
30483W        W97266  36.369  27.692  12.984
30484W        W97267  23.534  16.146  14.778
30485W        W97268  19.666  19.543  14.430
30486W        W97269  29.315  24.048   4.117
30487W        W97270  32.475   6.985   3.072
30488W        W97271  25.514  18.728  14.566
30489W        W97272  17.546  32.532   2.205
30490W        W97273  34.594   5.806   0.140
30491W        W97274  18.578   2.274  12.256
30492W        W97275  27.698  18.666  11.115
30493W        W97276   1.823  16.077  11.123
30494W        W97277  36.624  31.524  10.718
30495W        W97278  20.478   3.992  11.705
30496W        W97279   5.287  28.439  11.220
30497W        W97280  41.070   7.283   1.314
30498W        W97281   8.141  32.011   1.511
30499W        W97282  33.387  13.334   5.022
30500W        W97283  36.944  42.257   2.907
30501W        W97284   8.179  24.195  11.981
30502W        W97285  22.054  33.019   2.688
30503W        W97286   0.951   0.624   4.252
30504W        W97287  42.477  18.088   2.847
30505W        W97288  42.735   4.303   1.473
30506W        W97289  42.875  14.241  12.326
30507W        W97290  33.285  44.697  11.596
30508W        W97291  19.050  40.634  12.079
30509W        W97292  32.281   9.761  12.229
30510W        W97293  29.177  29.380   0.803
30511W        W97294  26.162  44.780  12.040
30512W        W97295  27.645  29.913   1.316
30513W        W97296  39.039  29.313  11.575
30514W        W97297   2.969  44.993  12.127
30515W        W97298  34.621  25.799  10.798
30516W        W97299  32.714  15.624   1.434
30517W        W97300   1.378   9.181   2.136
30518W        W97301  18.116   7.573  14.958
30519W        W97302  20.168   5.941  12.167
30520W        W97303  29.900  42.891  14.705
30521W        W97304  10.200  43.310   4.448
30522W        W97305   9.362  43.000   1.670
30523W        W97306  41.320   8.890   9.778
30524W        W97307   2.428  13.143   0.554
30525W        W97308  28.990  18.076   2.298
30526W        W97309   6.658  37.889   0.018
30527W        W97310  35.845  29.197   3.661
30528W        W97311  19.592  17.304   2.902
30529W        W97312  15.497   8.297   4.127
30530W        W97313  37.447  25.629  14.195
30531W        W97314   2.798   3.729  11.074
30532W        W97315  15.776  10.219   0.601
30533W        W97316   8.822  42.546   2.339
30534W        W97317  15.178   1.455  13.432
30535W        W97318   6.116  35.794   0.293
30536W        W97319  17.258  39.034  14.853
30537W        W97320  43.906  34.744   2.406
30538W        W97321  38.663  16.423   0.447
30539W        W97322   1.828  31.605   0.745
30540W        W97323   7.138   8.004  10.332
30541W        W97324  12.891  29.593  11.162
30542W        W97325  18.356  24.777  13.418
30543W        W97326   7.718  40.090   0.845
30544W        W97327  17.639  39.806   3.577
30545W        W97328  11.661  30.699  11.235
30546W        W97329   0.482  33.420  11.461
30547W        W97330  11.837  22.583   1.966
30548W        W97331  33.079  26.903  14.170
30549W        W97332  12.898  14.668   4.573
30550W        W97333  43.439   9.167   2.410
30551W        W97334   5.868  17.146   1.458
30552W        W97335  39.114  22.638  14.468
30553W        W97336  28.675  31.956   4.608
30554W        W97337  17.086  20.221  11.723
30555W        W97338   3.774  19.517  14.519
30556W        W97339  27.105   8.145   2.397
30557W        W97340  23.609  19.186   1.190
30558W        W97341   6.251  33.703   4.969
30559W        W97342   7.486  28.622  10.765
30560W        W97343   3.534  42.111   3.653
30561W        W97344  29.352  40.507  10.642
30562W        W97345  11.208  28.061  11.705
30563W        W97346  25.532   4.158   1.899
30564W        W97347  25.573  36.090   0.575
30565W        W97348  10.832  33.299  13.505
30566W        W97349  28.991  40.220   4.489
30567W        W97350  12.335  40.052   3.263
30568W        W97351  27.080  20.725  14.918
30569W        W97352  29.660  32.857  10.439
30570W        W97353  36.305  38.871   2.948
30571W        W97354  21.474  42.185   1.362
30572W        W97355  41.820  22.459   4.557
30573W        W97356  23.142  38.549   1.865
30574W        W97357  36.180   3.206   1.668
30575W        W97358  40.414  28.347   0.652
30576W        W97359  20.347  13.452   0.460
30577W        W97360  43.806  21.690  13.743
30578W        W97361  43.441  12.757  11.129
30579W        W97362  44.918   1.670  11.618
30580W        W97363  29.631  42.940  11.097
30581W        W97364  41.531  40.873  14.248
30582W        W97365  33.189   4.728   4.899
30583W        W97366   3.032  15.033   3.755
30584W        W97367  27.219   0.330  11.956
30585W        W97368   1.420  21.619  13.049
30586W        W97369  26.840  37.831  14.638
30587W        W97370  34.557  17.778   1.658
30588W        W97371  12.066  36.913  10.392
30589W        W97372  43.336  42.951   1.810
30590W        W97373  26.572  32.516  14.240
30591W        W97374  22.780  31.815   1.364
30592W        W97375  36.554  34.778  13.722
30593W        W97376  38.267  11.852   1.807
30594W        W97377  40.771  27.021  11.826
30595W        W97378  27.623  34.153   0.244
30596W        W97379  41.800  12.170  10.766
30597W        W97380   9.197  23.474  11.592
30598W        W97381  21.976  30.411   3.342
30599W        W97382  38.938  21.319  11.467
30600W        W97383  23.070  29.928   1.622
30601W        W97384  12.071   4.872   0.437
30602W        W97385  14.427  28.980  14.285
30603W        W97386  40.298  21.586  11.536
30604W        W97387  44.350  24.075   3.777
30605W        W97388  15.721   2.514   2.276
30606W        W97389  20.250   8.548  13.331
30607W        W97390  21.510  26.160  13.872
30608W        W97391  15.976  23.036  11.050
30609W        W97392  16.793  38.977  11.923
30610W        W97393  31.613  22.764  14.507
30611W        W97394  20.588   8.214   3.860
30612W        W97395  26.576   3.289   2.315
30613W        W97396  18.082  19.974   3.214
30614W        W97397  33.581  19.046  10.323
30615W        W97398  20.777  25.589   0.902
30616W        W97399  16.983  22.237  14.456
30617W        W97400  41.449  32.578   4.471
30618W        W97401  16.605  41.337   2.756
30619W        W97402  13.845  38.546   0.869
30620W        W97403  35.587  12.659  10.807
30621W        W97404  25.684   4.324   1.193
30622W        W97405  39.085   0.908  14.501
30623W        W97406   6.975  25.976  14.366
30624W        W97407  11.225  32.174  14.910
30625W        W97408  17.294  30.200   3.173
30626W        W97409   4.527  28.239  13.010
30627W        W97410  42.984  20.850  14.073
30628W        W97411  33.639   4.611  11.227
30629W        W97412  27.576   1.090  10.651
30630W        W97413  21.755  16.800   4.188
30631W        W97414   0.892  14.225   2.488
30632W        W97415  29.163  43.304  14.817
30633W        W97416  38.033  13.845  12.854
30634W        W97417   2.260  44.887   2.826
30635W        W97418  19.582  34.516  11.242
30636W        W97419   3.321  26.240  13.488
30637W        W97420  42.391  11.440   3.704
30638W        W97421  32.564  12.571  14.429
30639W        W97422  42.774  30.008   1.846
30640W        W97423   1.275  36.226  11.509
30641W        W97424   8.739   1.016  13.885
30642W        W97425  26.492  30.885  12.410
30643W        W97426  27.089  37.795   4.616
30644W        W97427  41.359  16.756   4.748
30645W        W97428  16.601  43.753   3.298
30646W        W97429  40.898  34.705   1.005
30647W        W97430  33.444  41.734  14.697
30648W        W97431  12.277  11.060   1.276
30649W        W97432  25.190  27.656  13.288
30650W        W97433  22.838  17.368   4.030
30651W        W97434   4.330  27.979  11.086
30652W        W97435   5.664  22.060  13.165
30653W        W97436  18.620  28.500  12.522
30654W        W97437  31.806  43.384   4.376
30655W        W97438  41.793  27.407  12.763
30656W        W97439  22.695  39.300   4.551
30657W        W97440  26.497  12.827  10.590
30658W        W97441  41.133  10.671  14.854
30659W        W97442  41.006  35.547  12.518
30660W        W97443  17.730  20.641  14.491
30661W        W97444  19.126  12.597  13.050
30662W        W97445  29.580  43.459  10.985
30663W        W97446  14.128  44.855  10.923
30664W        W97447  25.917  17.125  11.933
30665W        W97448  26.601   1.668   3.797
30666W        W97449  26.906  19.173   4.299
30667W        W97450  17.749  41.814   2.793
30668W        W97451  41.330  11.305   0.310
30669W        W97452  26.988   4.246  11.944
30670W        W97453   1.686   3.881   1.269
30671W        W97454  32.166  15.143   0.858
30672W        W97455  14.719   2.182   1.274
30673W        W97456  12.288  42.813   1.637
30674W        W97457  31.147   8.175  14.837
30675W        W97458  13.397   9.400   4.450
30676W        W97459  26.924   7.833   0.953
30677W        W97460   1.497  11.441   4.361
30678W        W97461  26.605  34.937   1.486
30679W        W97462  22.993  14.579  11.118
30680W        W97463  23.626  30.668   3.871
30681W        W97464  21.554  39.305  11.938
30682W        W97465  43.894  43.826   3.084
30683W        W97466  24.507  23.474  13.920
30684W        W97467  22.947  40.564   0.259
30685W        W97468   1.524  18.562  14.778
30686W        W97469  22.038   4.410   0.528
30687W        W97470   1.297  23.246   2.193
30688W        W97471  44.086  32.096  10.689
30689W        W97472   9.667  40.673   3.028
30690W        W97473  32.594  44.574   0.483
30691W        W97474  11.791  29.233   1.922
30692W        W97475  33.381   1.979   1.773
30693W        W97476   7.835  21.364  14.084
30694W        W97477  32.374  10.288  11.076
30695W        W97478  37.762  13.212  11.090
30696W        W97479  11.632  10.778  10.461
30697W        W97480   1.964  29.525  13.837
30698W        W97481  28.970  16.218   4.604
30699W        W97482  40.920  34.006  13.962
30700W        W97483  27.371  43.881  12.434
30701W        W97484  13.641  22.580  10.834
30702W        W97485  34.682  34.343  12.032
30703W        W97486  27.159  40.475  12.104
30704W        W97487  25.783   2.282   3.710
30705W        W97488  38.985  35.016  11.860
30706W        W97489  17.086  12.758  13.958
30707W        W97490  19.492  24.664   0.297
30708W        W97491   9.650  12.595   1.913
30709W        W97492   7.344  24.237   2.387
30710W        W97493  34.985  31.607   0.752
30711W        W97494  38.460  27.973   2.048
30712W        W97495  37.098  17.062  11.534
30713W        W97496  27.187  10.892   0.775
30714W        W97497  11.247  26.602   3.729
30715W        W97498  10.237  13.280   4.409
30716W        W97499  26.118  14.260  10.586
30717W        W97500  39.463  18.672  13.950
30718W        W97501  27.169  22.092   2.874
30719W        W97502  31.394  39.809   3.220
30720W        W97503  36.543   5.737   4.945
30721W        W97504  41.833  38.025  13.480
30722W        W97505  35.063  35.313   3.847
30723W        W97506  41.148   7.054  11.042
30724W        W97507  16.733  33.046   0.950
30725W        W97508  29.105  29.862  13.099
30726W        W97509  33.880  11.152  14.843
30727W        W97510   8.938  19.707   4.694
30728W        W97511  24.015  32.889  12.558
30729W        W97512  26.884  42.569  12.527
30730W        W97513   3.265  12.119   4.293
30731W        W97514   9.262   9.702  10.488
30732W        W97515   9.129  15.780  14.385
30733W        W97516  34.424   9.224   4.247
30734W        W97517  41.405  19.855   3.472
30735W        W97518  12.622  42.860  11.783
30736W        W97519  13.189  21.854  12.201
30737W        W97520  44.250  36.272  12.169
30738W        W97521  25.303   3.985  10.769
30739W        W97522  17.149   8.045   1.714
30740W        W97523  12.496  20.765  11.614
30741W        W97524  33.593  10.314   3.701
30742W        W97525   4.741   4.020   2.146
30743W        W97526   3.660   3.371   4.725
30744W        W97527   8.913   2.612   3.293
30745W        W97528  15.826  42.386   0.089
30746W        W97529  20.816   4.098   0.076
30747W        W97530  21.484  16.203   3.892
30748W        W97531  14.795  23.662   1.876
30749W        W97532  35.364   3.023   1.731
30750W        W97533  24.287  19.554   2.715
30751W        W97534  37.932  36.872   2.733
30752W        W97535  17.252  20.682  11.588
30753W        W97536  21.931  12.849  10.641
30754W        W97537  15.656  31.377   0.631
30755W        W97538  13.595   9.505  11.806
30756W        W97539  36.270  16.303  12.877
30757W        W97540  26.009  18.162   1.385
30758W        W97541  18.504   5.789   1.396
30759W        W97542  15.699  22.643   0.454
30760W        W97543  28.660  35.167  11.049
30761W        W97544  27.068  14.268   3.709
30762W        W97545  29.712   7.471  14.324
30763W        W97546  16.134  16.558   4.000
30764W        W97547  40.321   2.719   4.744
30765W        W97548  41.109  20.527  11.962
30766W        W97549  27.128  34.029  13.032
30767W        W97550  44.192  10.636   0.864
30768W        W97551   2.425  12.086   2.807
30769W        W97552  25.533   7.411   4.310
30770W        W97553  14.663  25.655  12.345
30771W        W97554  15.566  31.476  10.562
30772W        W97555  13.539  39.493   3.250
30773W        W97556   6.945   1.944  14.702
30774W        W97557   3.791  10.591   0.029
30775W        W97558  27.035  13.663  13.734
30776W        W97559  16.688  12.238  11.084
30777W        W97560  37.025  10.390   4.885
30778W        W97561  44.718  28.725   1.704
30779W        W97562  42.053  34.868  12.021
30780W        W97563  32.631  28.000   4.655
30781W        W97564  36.975   2.734  13.051
30782W        W97565  35.999   4.785   1.240
30783W        W97566  17.531  27.615  13.427
30784W        W97567  14.081  28.736  13.803
30785W        W97568   9.999   7.866   2.120
30786W        W97569   5.853  38.859  12.854
30787W        W97570   8.495  11.610   2.539
30788W        W97571  34.513  13.552  11.267
30789W        W97572  33.731  22.188   3.590
30790W        W97573   2.248  43.204   5.243
30791W        W97574  10.737  12.809  14.105
30792W        W97575  23.590   3.955   0.745
30793W        W97576  20.482  43.878  14.958
30794W        W97577  28.899  34.682   2.341
30795W        W97578  40.864  11.386   2.207
30796W        W97579  26.326  19.336  12.895
30797W        W97580   6.834   7.837   1.268
30798W        W97581  18.299  13.151  10.573
30799W        W97582  18.916  14.130   2.437
30800W        W97583  41.093   7.642  10.304
30801W        W97584  28.498  39.967   4.510
30802W        W97585   6.094  21.036   9.927
30803W        W97586  31.455  10.346  10.662
30804W        W97587  10.343  16.270   4.470
30805W        W97588  15.148   5.064  11.221
30806W        W97589  24.434  22.673  12.073
30807W        W97590  18.528   7.236   0.810
30808W        W97591  22.908  39.578  12.492
30809W        W97592   1.798  41.512   2.457
30810W        W97593  10.473  41.151  12.123
30811W        W97594   1.921  38.734  13.954
30812W        W97595  16.108  43.544   3.378
30813W        W97596  39.549  12.081   0.796
30814W        W97597  34.651  41.458   0.864
30815W        W97598  16.674  38.497   4.237
30816W        W97599  21.336  31.464  12.972
30817W        W97600  40.528  15.158  12.436
30818W        W97601   5.151  44.169   1.857
30819W        W97602  35.480  43.049  14.066
30820W        W97603  17.350  13.630   0.538
30821W        W97604   0.388  35.213   3.928
30822W        W97605  43.207  13.419  11.874
30823W        W97606  17.273  11.469  12.150
30824W        W97607  37.607  40.560   4.250
30825W        W97608   0.116  22.145  11.620
30826W        W97609  10.834  14.091   2.343
30827W        W97610  13.282   0.567   1.451
30828W        W97611  21.368   9.280  10.782
30829W        W97612   4.510  44.593  12.292
30830W        W97613  39.878  32.277   0.966
30831W        W97614   5.293  40.869  13.781
30832W        W97615  11.303  36.136  12.571
30833W        W97616   9.587  17.752  14.915
30834W        W97617  26.435   9.161  10.395
30835W        W97618  29.497  30.004   4.025
30836W        W97619  21.183   5.850  13.117
30837W        W97620  21.687  26.703  14.166
30838W        W97621  10.088  37.822  13.040
30839W        W97622   3.444  33.594  12.028
30840W        W97623  18.791   3.623  12.377
30841W        W97624  10.877  35.883   3.797
30842W        W97625  19.187   0.167   4.703
30843W        W97626  41.949   3.343  12.523
30844W        W97627  32.704  33.527  11.710
30845W        W97628   8.929  14.089  14.508
30846W        W97629  23.236  23.396  12.510
30847W        W97630   5.119  37.794  14.822
30848W        W97631  34.518  40.509   3.551
30849W        W97632  12.874  26.718  14.818
30850W        W97633  41.256  18.174   4.970
30851W        W97634  19.738  28.443   4.074
30852W        W97635  40.272   1.399  12.885
30853W        W97636  28.210  22.657  11.196
30854W        W97637  42.873  20.770   1.009
30855W        W97638  32.176  31.553   0.939
30856W        W97639  28.696   9.217   1.408
30857W        W97640  30.625   5.413   3.347
30858W        W97641   2.781  18.670  11.061
30859W        W97642  11.793  27.097   4.385
30860W        W97643  33.607  43.309   1.898
30861W        W97644   7.743  24.265   0.237
30862W        W97645  12.749  39.619   4.408
30863W        W97646   0.280  27.740   4.543
30864W        W97647   1.286   1.217   2.274
30865W        W97648  40.336  36.185  10.342
30866W        W97649   9.352   4.381  10.711
30867W        W97650  17.081  36.249   2.334
30868W        W97651  27.902  11.358  12.477
30869W        W97652   7.693  19.161   3.540
30870W        W97653  39.449  10.070   0.149
30871W        W97654  16.125  33.647   2.348
30872W        W97655  39.841  30.457   4.128
30873W        W97656   9.287  37.991  11.441
30874W        W97657  14.333  40.068   5.078
30875W        W97658   7.666  36.954   2.232
30876W        W97659   3.989  31.642   2.394
30877W        W97660   3.250  20.292   0.898
30878W        W97661  14.153  10.717  13.435
30879W        W97662  36.980   6.966  12.151
30880W        W97663  16.115  35.875  12.519
30881W        W97664  11.412   2.281   1.640
30882W        W97665   5.047  31.111   5.287
30883W        W97666  44.617   3.238  14.314
30884W        W97667   9.587  43.346  14.413
30885W        W97668   2.173  39.153   4.204
30886W        W97669  32.848  38.333  11.491
30887W        W97670  39.837   6.151  11.204
30888W        W97671   0.038  21.023  10.977
30889W        W97672   4.827  42.261  12.049
30890W        W97673  15.210  30.012   1.182
30891W        W97674  37.391  29.859  13.602
30892W        W97675   4.718   0.649  11.535
30893W        W97676  10.028   4.971  14.352
30894W        W97677  39.492  23.201  13.871
30895W        W97678  14.519  18.755  14.253
30896W        W97679  29.204  17.121   3.110
30897W        W97680  29.033  31.765  11.596
30898W        W97681   4.488  36.372   3.637
30899W        W97682  26.565  14.597  11.687
30900W        W97683  22.383  14.905   0.335
30901W        W97684  17.225  17.634  12.583
30902W        W97685   7.143  27.080   2.386
30903W        W97686  31.121  16.138  12.670
30904W        W97687   6.407  14.907   2.405
30905W        W97688  38.373  26.599  11.471
30906W        W97689  10.772  18.048  10.336
30907W        W97690  26.609   5.820   1.294
30908W        W97691  11.269   7.412   0.855
30909W        W97692  18.665  10.769  12.195
30910W        W97693  21.632  42.881  11.398
30911W        W97694  20.734  44.345   2.680
30912W        W97695  26.272  24.877   9.798
30913W        W97696   6.642  26.378   4.926
30914W        W97697  10.424  32.057  13.094
30915W        W97698  22.259  16.654   4.317
30916W        W97699  37.056  21.524   2.781
30917W        W97700  11.563   9.962   0.867
30918W        W97701  29.521  11.479  10.670
30919W        W97702  29.163  13.216  13.569
30920W        W97703  18.777  43.063  12.856
30921W        W97704   2.930  14.608   0.477
30922W        W97705  21.135  24.942  13.314
30923W        W97706  37.284  16.128   4.481
30924W        W97707  38.893  37.587  12.534
30925W        W97708   8.623  22.777  12.500
30926W        W97709   1.745  27.231   0.904
30927W        W97710   8.114  12.301   1.215
30928W        W97711  43.200  10.224   4.615
30929W        W97712   8.490   0.804  12.138
30930W        W97713  16.922  25.887   1.030
30931W        W97714  20.944  26.597  11.159
30932W        W97715  39.009  43.528  12.563
30933W        W97716   0.461  13.698  13.677
30934W        W97717  35.535   8.224   4.788
30935W        W97718  24.235  28.846  13.964
30936W        W97719  42.406  34.665  12.330
30937W        W97720   0.929  10.900  14.460
30938W        W97721  16.591  44.835  10.744
30939W        W97722   4.661  29.979  12.999
30940W        W97723  38.904  21.517  10.993
30941W        W97724  22.203  29.783  11.923
30942W        W97725  24.514  11.569   1.268
30943W        W97726  42.992   6.318   2.246
30944W        W97727   2.441  40.277  14.291
30945W        W97728  33.855  43.453  14.525
30946W        W97729  15.175  30.485   1.485
30947W        W97730  44.971  34.725   2.886
30948W        W97731   9.018   8.804   0.950
30949W        W97732  34.450  44.914   1.936
30950W        W97733   6.380  31.653   0.927
30951W        W97734   8.661  17.225  11.682
30952W        W97735  22.518  22.698  10.277
30953W        W97736  42.342   7.230  14.857
30954W        W97737  30.871  39.285  11.178
30955W        W97738   3.300   3.740   1.352
30956W        W97739   4.934  16.123  11.546
30957W        W97740  32.789  24.650  10.267
30958W        W97741   8.423  40.959   2.982
30959W        W97742  29.227  21.126  13.294
30960W        W97743  21.616  33.340  14.037
30961W        W97744   1.967  36.640  11.944
30962W        W97745  24.987  21.113   0.603
30963W        W97746   3.502   9.407   3.091
30964W        W97747  34.047  21.307  10.401
30965W        W97748  41.859  11.885  14.829
30966W        W97749   1.404  43.215   1.992
30967W        W97750  29.597  14.564  14.113
30968W        W97751  13.577  11.495  11.353
30969W        W97752  27.521  36.441   4.332
30970W        W97753  27.284  17.586   1.294
30971W        W97754   9.805  29.067  14.463
30972W        W97755  40.440  13.823   0.816
30973W        W97756  20.671  29.747  13.599
30974W        W97757  35.828   7.174   2.255
30975W        W97758  22.371   0.307  11.873
30976W        W97759  14.242  17.964   3.594
30977W        W97760  28.821  18.530  14.768
30978W        W97761  38.069  31.204   4.101
30979W        W97762  44.346   9.647  14.978
30980W        W97763  35.934   6.720   3.167
30981W        W97764  13.900  42.915  11.648
30982W        W97765  38.614  23.580  12.545
30983W        W97766  31.249  23.965  13.413
30984W        W97767  24.762  13.776  12.148
30985W        W97768  17.635  23.763  11.101
30986W        W97769  18.718  41.028  12.534
30987W        W97770  27.607  27.418  10.667
30988W        W97771  28.812  42.327  14.978
30989W        W97772  41.036  18.689   2.329
30990W        W97773  34.334   9.912  13.784
30991W        W97774  33.870  18.344  14.905
30992W        W97775  25.288  20.569  13.042
30993W        W97776  24.844  22.220   4.074
30994W        W97777  18.007   5.899   2.900
30995W        W97778   2.862  12.899   2.839
30996W        W97779  40.668  33.077  14.863
30997W        W97780   4.761  34.148  10.943
30998W        W97781  13.308  22.930  11.080
30999W        W97782   7.357  43.519  11.020
31000W        W97783  28.626  12.249   2.383
31001W        W97784   8.772  43.569  11.193
31002W        W97785   9.026  37.917  13.867
31003W        W97786   6.386  22.669   0.013
31004W        W97787   7.177   6.958   3.741
31005W        W97788  22.519  39.618   0.733
31006W        W97789  16.084  22.251   2.042
31007W        W97790  27.361  42.655   3.203
31008W        W97791  25.432   4.180  13.065
31009W        W97792   0.511  10.258  13.981
31010W        W97793   1.218  31.968   3.591
31011W        W97794  37.469  24.790  12.898
31012W        W97795  36.398  12.864   0.374
31013W        W97796  25.391  20.419  11.677
31014W        W97797  40.872  30.013  12.579
31015W        W97798  28.635  12.532   1.027
31016W        W97799  38.850  21.131  12.461
31017W        W97800  34.551  15.796  12.048
31018W        W97801   4.314  38.057  13.111
31019W        W97802  41.997  35.207  11.537
31020W        W97803   2.515  25.030   4.616
31021W        W97804  43.498  40.950   2.852
31022W        W97805  12.656   6.866  13.249
31023W        W97806  43.816  10.673  11.438
31024W        W97807  24.065   5.866  10.969
31025W        W97808  42.517  25.620   0.745
31026W        W97809  26.870  12.258  12.017
31027W        W97810  35.543   9.305  14.835
31028W        W97811  27.236  12.384  13.000
31029W        W97812  44.688  27.938  14.763
31030W        W97813   9.869   0.892   2.782
31031W        W97814  40.783  42.519  11.120
31032W        W97815  24.310   4.397  14.771
31033W        W97816  34.553  40.549   5.065
31034W        W97817  42.462  33.425  12.460
31035W        W97818  15.806  35.346   3.283
31036W        W97819  14.374  29.547   4.995
31037W        W97820  34.968   8.282  12.907
31038W        W97821  20.860  37.611  11.206
31039W        W97822  13.391  12.140   1.098
31040W        W97823  41.430  33.399  12.064
31041W        W97824  14.168  38.780   2.894
31042W        W97825   3.122  20.151   4.875
31043W        W97826  14.622  24.673  11.173
31044W        W97827  30.445  13.798   1.037
31045W        W97828   4.510   9.436   5.123
31046W        W97829  33.982   7.377   0.488
31047W        W97830   1.210  41.854  14.433
31048W        W97831   8.074  20.653   0.018
31049W        W97832  39.990  22.402  12.359
31050W        W97833  18.663  17.349   9.885
31051W        W97834  39.961   3.779  11.437
31052W        W97835  41.917  27.486   3.606
31053W        W97836   2.766   6.779   1.390
31054W        W97837  42.723  23.665   2.984
31055W        W97838  17.740   0.404   0.843
31056W        W97839  27.726  21.605  12.611
31057W        W97840   3.250   5.566   0.796
31058W        W97841  23.595   0.295   1.406
31059W        W97842  21.496   1.815  13.962
31060W        W97843   8.557  11.420   1.419
31061W        W97844  27.496   3.315   4.025
31062W        W97845  31.913   0.467  11.493
31063W        W97846  42.041  17.216  12.336
31064W        W97847  28.446  33.321  10.529
31065W        W97848  31.478  32.910   1.013
31066W        W97849  30.068  41.314  11.973
31067W        W97850  35.779   8.466   2.340
31068W        W97851   4.206  28.674  12.621
31069W        W97852   9.477   4.486  11.601
31070W        W97853  35.390   7.877  12.088
31071W        W97854  32.204   5.489  13.093
31072W        W97855   0.657  28.652  14.388
31073W        W97856  28.121  33.508   0.260
31074W        W97857   2.060  28.034   1.961
31075W        W97858  44.004  26.744  12.986
31076W        W97859   9.883   6.751  14.361
31077W        W97860  43.330   3.567  12.563
31078W        W97861  42.490  16.385   3.118
31079W        W97862  10.704  14.890   1.901
31080W        W97863   5.304  32.495   4.824
31081W        W97864  18.862  26.928   0.256
31082W        W97865  21.611   9.465  11.196
31083W        W97866  17.056  25.128  12.038
31084W        W97867  22.960  15.875   1.761
31085W        W97868   9.331  18.833  12.798
31086W        W97869   1.016  19.452  12.731
31087W        W97870   3.007  44.901   2.178
31088W        W97871  41.048  21.789   2.264
31089W        W97872  23.055  12.588   2.669
31090W        W97873  10.963  23.117   1.169
31091W        W97874  16.622  26.589   1.718
31092W        W97875  34.529  14.883  12.904
31093W        W97876  33.633  24.580  11.156
31094W        W97877  28.417  13.268   3.926
31095W        W97878  27.094  15.151  12.032
31096W        W97879  25.595  22.627   2.786
31097W        W97880  27.698  38.906   2.306
31098W        W97881  23.676  18.204  10.669
31099W        W97882  38.563   9.169  12.817
31100W        W97883   6.452  14.086   0.450
31101W        W97884  18.512  30.195   2.265
31102W        W97885   6.697   1.169   4.560
31103W        W97886  35.912   8.401  14.973
31104W        W97887  10.984  21.778  11.496
31105W        W97888   4.505  20.969   3.957
31106W        W97889  24.803  33.109   2.748
31107W        W97890   4.462  34.038   3.288
31108W        W97891   8.886  16.289   0.623
31109W        W97892  33.336  15.647  14.333
31110W        W97893  22.063   8.885  10.751
31111W        W97894   7.394  17.388   2.182
31112W        W97895  30.623  20.962   5.424
31113W        W97896  37.628  18.702   4.480
31114W        W97897  27.568  18.726   0.869
31115W        W97898  37.502   6.899   9.545
31116W        W97899  30.071  30.183  10.811
31117W        W97900  35.954  40.575  14.357
31118W        W97901  34.662  34.409   1.784
31119W        W97902  12.162   5.776   0.539
31120W        W97903  17.393  23.498   3.211
31121W        W97904  27.615  17.067   4.679
31122W        W97905  28.599  35.091  14.415
31123W        W97906   7.330  34.918   3.775
31124W        W97907  24.112   7.344  10.771
31125W        W97908  18.536  26.754  11.930
31126W        W97909  29.230  23.117   2.785
31127W        W97910  35.650  20.586   3.733
31128W        W97911  10.663  38.186  10.341
31129W        W97912   8.869  11.850   4.603
31130W        W97913   0.713  36.187   4.275
31131W        W97914  40.101  36.544   0.063
31132W        W97915  39.484  36.857  14.417
31133W        W97916  33.283  38.108  13.791
31134W        W97917  15.449   3.290  10.227
31135W        W97918  41.078  25.174  14.533
31136W        W97919  24.507   9.200  11.115
31137W        W97920   9.606   5.210  11.970
31138W        W97921   9.236   6.736  14.962
31139W        W97922  17.770  18.679   4.463
31140W        W97923  31.996  44.094  12.162
31141W        W97924  19.227   6.611   4.151
31142W        W97925  25.682  11.538  13.757
31143W        W97926  20.325  28.990  12.507
31144W        W97927  13.144   4.296  13.582
31145W        W97928  32.595  14.589   0.283
31146W        W97929   6.211   9.356  11.131
31147W        W97930  35.954   6.175   0.499
31148W        W97931  31.863  30.896   1.428
31149W        W97932   1.378   9.994   2.767
31150W        W97933  10.202  28.541   1.325
31151W        W97934  35.863  19.266   1.533
31152W        W97935  10.889  20.583  13.984
31153W        W97936  42.497  35.384   0.908
31154W        W97937  41.368  15.830   4.845
31155W        W97938  12.410  37.838  12.018
31156W        W97939   6.365   5.180  12.438
31157W        W97940   1.039  20.591  14.459
31158W        W97941  36.788  20.116  12.507
31159W        W97942  25.453  38.128  13.424
31160W        W97943  12.085  21.042  10.125
31161W        W97944  24.741  41.978   2.104
31162W        W97945  42.322  17.658  13.734
31163W        W97946  21.702   6.676  11.244
31164W        W97947  12.524  16.019   0.984
31165W        W97948  35.976  16.862  13.482
31166W        W97949  11.218   4.824  11.867
31167W        W97950   8.270  16.962   0.339
31168W        W97951  15.968  31.074  10.725
31169W        W97952  33.898  12.375   2.244
31170W        W97953  18.781  26.580   3.756
31171W        W97954  21.024   3.450   3.636
31172W        W97955  32.586  28.486   3.672
31173W        W97956   0.375  38.343  13.896
31174W        W97957  31.707  25.147  14.848
31175W        W97958  11.998  21.388   1.332
31176W        W97959   8.728  25.377   2.678
31177W        W97960  14.028  28.481  11.918
31178W        W97961   2.867   9.966  14.906
31179W        W97962   2.709  37.927   4.281
31180W        W97963  38.378  17.386   1.781
31181W        W97964  12.088   1.360  11.014
31182W        W97965   9.736  32.714   4.078
31183W        W97966  17.343   8.230  14.905
31184W        W97967  17.632  40.497   0.259
31185W        W97968  30.418   2.380   4.600
31186W        W97969  40.632  28.611   3.462
31187W        W97970  44.978  32.689   1.384
31188W        W97971  36.125  20.129   1.662
31189W        W97972  19.646  32.348  12.033
31190W        W97973  39.017  37.388  13.002
31191W        W97974  20.258  10.290  10.800
31192W        W97975  23.468  12.589  14.496
31193W        W97976  17.872  16.840   1.476
31194W        W97977  10.810  14.368   1.875
31195W        W97978  22.154  24.591   4.174
31196W        W97979  12.780  24.670  10.675
31197W        W97980  14.914  18.302  10.325
31198W        W97981  33.099  26.281  11.592
31199W        W97982  30.204  21.075   0.291
31200W        W97983  32.954  38.870  13.423
31201W        W97984  38.752  18.089   4.151
31202W        W97985  30.434   5.885   0.823
31203W        W97986   5.302  21.414  12.060
31204W        W97987  33.395  11.632  13.742
31205W        W97988  18.298  14.297  13.481
31206W        W97989  39.282  15.149  13.524
31207W        W97990   1.317  41.576  14.869
31208W        W97991   8.344  20.792   0.856
31209W        W97992  28.165  37.865  12.125
31210W        W97993  23.664  43.049   4.470
31211W        W97994  40.939  23.650   1.222
31212W        W97995  17.300   4.842  11.940
31213W        W97996  14.349  18.672   0.410
31214W        W97997  39.719  10.679   4.086
31215W        W97998   6.868   9.615  11.078
31216W        W97999  15.599  13.350   2.693
31217W        W98000  36.199  25.913   2.113
31218W        W98001   3.670  19.686   2.224
31219W        W98002  14.717  41.617  12.517
31220W        W98003  39.845  28.494  13.307
31221W        W98004  36.489  18.683   4.710
31222W        W98005  12.157  16.792   4.412
31223W        W98006  32.401   0.698  12.636
31224W        W98007  23.169  20.746  10.995
31225W        W98008  21.097  44.321   4.959
31226W        W98009   0.054  14.408   3.179
31227W        W98010  14.016  21.717  10.806
31228W        W98011  41.483  15.184   1.775
31229W        W98012  14.809   1.756   0.292
31230W        W98013  41.859   9.092   1.174
31231W        W98014  30.436  23.011   1.529
31232W        W98015  41.878  29.457  12.967
31233W        W98016  27.504  32.788  13.833
31234W        W98017  31.452  33.004  11.748
31235W        W98018  13.614  29.837   4.608
31236W        W98019  15.134  32.260   3.671
31237W        W98020   1.041  10.243   4.885
31238W        W98021   0.966  30.854  13.971
31239W        W98022  37.096  37.073   0.799
31240W        W98023  32.256  35.821  13.998
31241W        W98024  21.075   1.988  13.137
31242W        W98025  34.586  36.173   0.966
31243W        W98026   0.290  39.134  13.528
31244W        W98027  15.549   8.993  10.178
31245W        W98028   4.898  39.499  10.790
31246W        W98029  25.921  39.228   5.036
31247W        W98030  16.833  42.508   2.208
31248W        W98031  36.742   1.983   2.347
31249W        W98032   8.733  39.210  10.714
31250W        W98033   2.015  21.541   4.715
31251W        W98034  44.866  27.024   3.230
31252W        W98035   1.618  13.571   4.340
31253W        W98036  30.987   5.774   1.698
31254W        W98037  19.360  12.071   3.929
31255W        W98038   5.382   3.713  10.732
31256W        W98039  42.820  31.494   3.685
31257W        W98040  41.328  20.502   1.396
31258W        W98041  22.655  44.890   0.828
31259W        W98042  19.534   5.479  12.314
31260W        W98043   3.324  44.779  13.760
31261W        W98044  16.822  20.803   4.138
31262W        W98045  39.837  20.118  13.895
31263W        W98046  23.464  32.577   1.695
31264W        W98047  42.121  29.148  10.805
31265W        W98048  31.553  37.504   5.073
31266W        W98049  38.382   9.257  11.288
31267W        W98050  23.742  32.218  12.101
31268W        W98051  32.525  36.633   2.712
31269W        W98052   8.641  10.657   1.744
31270W        W98053  43.972  26.034  12.415
31271W        W98054  29.460  32.219  13.844
31272W        W98055   4.714  26.776  12.524
31273W        W98056  44.542  15.998   2.095
31274W        W98057  20.679  40.858   1.235
31275W        W98058  27.143  31.977   3.894
31276W        W98059  11.911  37.150   1.273
31277W        W98060  28.873   2.333   2.727
31278W        W98061  42.801  35.864   0.756
31279W        W98062  35.916  30.319   3.530
31280W        W98063  14.491  26.228   4.155
31281W        W98064   8.454   8.303  11.292
31282W        W98065  33.061  33.600   4.668
31283W        W98066  37.560   6.197   1.669
31284W        W98067  39.363  27.933   2.277
31285W        W98068   3.139  34.001  12.014
31286W        W98069  28.404  41.501   3.744
31287W        W98070  19.226   1.628  12.060
31288W        W98071   5.435  25.474  11.646
31289W        W98072  38.805  19.983  11.412
31290W        W98073   0.731  13.308  12.052
31291W        W98074  35.588  33.760  13.090
31292W        W98075  28.469   4.332   0.005
31293W        W98076   6.145  13.384   3.402
31294W        W98077  27.533  21.190  13.602
31295W        W98078  44.508  11.950   0.755
31296W        W98079  23.076  11.793   4.352
31297W        W98080  21.077   3.977   4.519
31298W        W98081   3.682  17.950  14.531
31299W        W98082  35.289  43.595  11.037
31300W        W98083  34.630   0.757  12.091
31301W        W98084  26.541  27.756   0.999
31302W        W98085   4.070  11.718  10.806
31303W        W98086  44.740  25.561  12.239
31304W        W98087  40.096  39.242  11.825
31305W        W98088  15.422  35.073   3.540
31306W        W98089  23.464  11.742  12.634
31307W        W98090   3.470  44.699  14.730
31308W        W98091  22.900  20.054   4.525
31309W        W98092   5.181  22.123  13.352
31310W        W98093  10.899  43.895  13.407
31311W        W98094  41.334   8.277   0.257
31312W        W98095  38.166   1.438   2.246
31313W        W98096  28.599   5.790  11.172
31314W        W98097  32.694  39.288  13.568
31315W        W98098  35.926  16.348   3.697
31316W        W98099  31.816  16.571   1.019
31317W        W98100  12.526  36.607   0.429
31318W        W98101  31.753  33.617  13.881
31319W        W98102  14.289  29.023   0.839
31320W        W98103  39.293  11.359   4.225
31321W        W98104  19.706  10.696  13.388
31322W        W98105  13.166   0.490   0.229
31323W        W98106  44.943  23.033   1.100
31324W        W98107  25.966  31.448   2.677
31325W        W98108  33.861   4.669  14.961
31326W        W98109  27.036  32.155  13.357
31327W        W98110  20.482  37.863  12.249
31328W        W98111  29.408  13.867   2.423
31329W        W98112  41.866  16.159   0.291
31330W        W98113  10.157  19.375   2.792
31331W        W98114  27.090   6.330  12.495
31332W        W98115   7.736  10.879  12.424
31333W        W98116  42.756  33.684  11.553
31334W        W98117  28.490   8.909   0.653
31335W        W98118  15.969  23.197  12.440
31336W        W98119  12.332  44.840   4.432
31337W        W98120   9.888  41.483  13.612
31338W        W98121  17.151  42.775  13.438
31339W        W98122  38.684  41.609   0.686
31340W        W98123   7.845  12.285  12.094
31341W        W98124  28.184  39.207   1.444
31342W        W98125  43.133  44.290   4.673
31343W        W98126  22.329   7.481  12.761
31344W        W98127  32.888  27.586  11.523
31345W        W98128   6.271  15.866   2.199
31346W        W98129  25.264  13.449  12.886
31347W        W98130   7.188  38.845   0.807
31348W        W98131  11.667  41.913  11.294
31349W        W98132  42.744  34.307  13.887
31350W        W98133   5.432   9.848   0.849
31351W        W98134  19.763  20.247   5.021
31352W        W98135   6.653   0.071  12.559
31353W        W98136  39.997  21.817  12.954
31354W        W98137  24.495  43.565   1.244
31355W        W98138   8.526  17.941   1.785
31356W        W98139   7.188  11.802   2.116
31357W        W98140   1.373  32.532  11.513
31358W        W98141  30.189   6.890   0.435
31359W        W98142  36.907   9.408  10.660
31360W        W98143  24.469  15.692   1.293
31361W        W98144  37.997  38.341  11.872
31362W        W98145  42.671   3.289  11.994
31363W        W98146   1.907  33.897  14.719
31364W        W98147  19.592  28.210  14.044
31365W        W98148  23.569  33.138  12.347
31366W        W98149  23.545   8.638   2.500
31367W        W98150  22.570  31.546  11.823
31368W        W98151  37.798  20.920  13.561
31369W        W98152  32.995   6.398  12.734
31370W        W98153  15.467  36.137  14.037
31371W        W98154  38.608   1.820  12.995
31372W        W98155  37.768  22.613  14.355
31373W        W98156  10.892  10.300   4.938
31374W        W98157  18.070  27.616  13.388
31375W        W98158  26.661   1.403  11.654
31376W        W98159  43.309  37.467   2.180
31377W        W98160  22.137  29.989  14.902
31378W        W98161  21.551  29.056  12.083
31379W        W98162  40.717  12.918  14.028
31380W        W98163  22.933   9.953   4.189
31381W        W98164  28.204   3.221   3.178
31382W        W98165   1.410  23.709   0.486
31383W        W98166  26.174  39.332   1.293
31384W        W98167  11.865  13.882  13.513
31385W        W98168   0.834  17.475  11.730
31386W        W98169  12.640  38.841  11.973
31387W        W98170   2.524  20.747   0.289
31388W        W98171  31.450  19.525  12.168
31389W        W98172  40.807  33.479  11.503
31390W        W98173  37.346  20.987  14.542
31391W        W98174  27.376  43.193  12.812
31392W        W98175   6.701  18.014   4.608
31393W        W98176  36.096  11.482   4.740
31394W        W98177  12.204  18.476  11.714
31395W        W98178  24.888   8.931   0.275
31396W        W98179   2.026  32.434   1.246
31397W        W98180  30.210   2.958  11.016
31398W        W98181  25.809   9.881   2.861
31399W        W98182   2.096  34.685   1.852
31400W        W98183  25.013  22.316  12.571
31401W        W98184  36.515   9.762   4.124
31402W        W98185  27.068  39.853   0.672
31403W        W98186  43.039  34.815  11.083
31404W        W98187   0.757  17.309   3.675
31405W        W98188  29.047  40.897   1.169
31406W        W98189  12.311  21.337   3.242
31407W        W98190  32.862  23.387  14.332
31408W        W98191  44.965   2.463  13.880
31409W        W98192   0.768  22.093   1.837
31410W        W98193  22.715  33.869  14.230
31411W        W98194   8.710  21.254  14.528
31412W        W98195   0.274  35.363  12.433
31413W        W98196  18.025  42.582  11.783
31414W        W98197  15.794  15.231   2.948
31415W        W98198   9.715  43.847  13.425
31416W        W98199  16.129  13.899   3.270
31417W        W98200  26.369  35.101   4.147
31418W        W98201  20.088   1.319  14.528
31419W        W98202  12.729  11.791  11.383
31420W        W98203  28.543  23.781   4.394
31421W        W98204  23.765   4.668   4.479
31422W        W98205   6.210   6.175   3.132
31423W        W98206  42.050  40.975  14.317
31424W        W98207  44.448   2.209  13.977
31425W        W98208  32.987  12.203   2.634
31426W        W98209  14.226  13.614  11.571
31427W        W98210  21.281   9.848   3.139
31428W        W98211  35.564   8.603   1.273
31429W        W98212  27.439  21.112   2.059
31430W        W98213   8.758  13.328   3.855
31431W        W98214  30.595  33.574   1.909
31432W        W98215  16.329  37.382   1.903
31433W        W98216   5.842  40.981  13.707
31434W        W98217   8.939   2.680   4.341
31435W        W98218   4.171  38.981  11.138
31436W        W98219  11.781  22.744   0.151
31437W        W98220  30.539  34.071   0.225
31438W        W98221  32.276   6.155  13.780
31439W        W98222  24.974  35.269  14.318
31440W        W98223  44.218  44.428   2.962
31441W        W98224  15.190  17.479  14.082
31442W        W98225  33.950  25.878   2.257
31443W        W98226  25.556  44.502  10.590
31444W        W98227  36.952  42.103  10.620
31445W        W98228  25.761  26.365   9.545
31446W        W98229  19.157  43.287   2.142
31447W        W98230  27.627   9.267  14.396
31448W        W98231  15.857  22.638   3.540
31449W        W98232  20.879  41.501  11.075
31450W        W98233  32.186  12.426   5.041
31451W        W98234  40.632  39.351  13.428
31452W        W98235  18.775  27.145   0.738
31453W        W98236  19.621  39.161   2.637
31454W        W98237  29.008   3.737   4.562
31455W        W98238   4.036  15.849  12.178
31456W        W98239  12.301  11.547   3.164
31457W        W98240   2.710  24.766   3.396
31458W        W98241  25.743   4.292  11.522
31459W        W98242  20.131  17.678   0.093
31460W        W98243  41.672  25.892   2.246
31461W        W98244  26.545  38.452  10.602
31462W        W98245  12.627  44.228  11.835
31463W        W98246  24.049  33.920   2.692
31464W        W98247  18.652  11.662  10.760
31465W        W98248  43.084   6.070  11.541
31466W        W98249  13.302  33.383   3.260
31467W        W98250  42.692  14.537  10.869
31468W        W98251  27.094  33.398  14.517
31469W        W98252  25.978  34.352   3.578
31470W        W98253   0.961  44.875  12.102
31471W        W98254  13.065  22.215   2.703
31472W        W98255  21.760  18.580  12.485
31473W        W98256  34.117  24.627   0.960
31474W        W98257  17.320   4.714   1.205
31475W        W98258   9.188   3.710   3.730
31476W        W98259  24.129  10.343  14.043
31477W        W98260   9.196  12.733  10.608
31478W        W98261  41.596  26.786  13.015
31479W        W98262  15.352  40.107   1.882
31480W        W98263  36.334  37.936   1.235
31481W        W98264  36.590  28.556  12.490
31482W        W98265  23.600  10.819  11.660
31483W        W98266  37.939  38.531  13.287
31484W        W98267  25.503  32.161   2.275
31485W        W98268  10.289  19.269  11.568
31486W        W98269  38.972  35.125   9.946
31487W        W98270  32.407   0.953  10.334
31488W        W98271  30.858   0.763  12.018
31489W        W98272  35.675  21.544   4.582
31490W        W98273   3.170   7.760   3.626
31491W        W98274   3.900  39.834   1.668
31492W        W98275  11.827  33.509   4.003
31493W        W98276  18.104  36.417  10.875
31494W        W98277  34.921  30.892   4.555
31495W        W98278  16.687  22.126  14.902
31496W        W98279  32.441   8.308  14.313
31497W        W98280  32.206  10.121  14.807
31498W        W98281  29.468  31.955  11.480
31499W        W98282   3.910  17.069  10.286
31500W        W98283   2.762  37.811   2.929
31501W        W98284  27.296   3.791  14.590
31502W        W98285  32.088  44.617  13.435
31503W        W98286  29.146   9.443  11.536
31504W        W98287  29.363  34.485  14.400
31505W        W98288  23.641   7.174   0.812
31506W        W98289  22.142  11.962   0.957
31507W        W98290  26.052  22.781  11.236
31508W        W98291  21.492  18.261   4.160
31509W        W98292  43.875  43.812   0.338
31510W        W98293  30.340  39.012  13.111
31511W        W98294   1.796  38.268  13.006
31512W        W98295  14.167  17.723   2.108
31513W        W98296  30.923  44.898  14.857
31514W        W98297  23.295  18.104   4.487
31515W        W98298   7.381   6.211   2.090
31516W        W98299  15.630  20.081  10.657
31517W        W98300  31.267  15.096   4.712
31518W        W98301  11.564  18.198  10.967
31519W        W98302  33.747  31.404   4.449
31520W        W98303   2.536  11.715   0.849
31521W        W98304  17.543  39.788   2.726
31522W        W98305  42.884  37.760   0.272
31523W        W98306  18.242  42.857   3.108
31524W        W98307  41.531  32.368   0.320
31525W        W98308   2.145  24.785   1.164
31526W        W98309   0.490  16.042  11.558
31527W        W98310  34.366   6.330  11.947
31528W        W98311  32.398  36.546  11.247
31529W        W98312   6.233  13.693   1.827
31530W        W98313   1.966  10.297  13.903
31531W        W98314  18.586   2.999   4.511
31532W        W98315  40.555  12.800  12.378
31533W        W98316  14.334  27.142   1.715
31534W        W98317  40.996  19.800   1.734
31535W        W98318   5.000  27.164   4.342
31536W        W98319  25.521  42.106  13.921
31537W        W98320  33.508  19.061  12.197
31538W        W98321   0.755  19.079   0.330
31539W        W98322  44.828   5.005  11.506
31540W        W98323  24.424  44.998  13.988
31541W        W98324  26.632  41.583  11.682
31542W        W98325  37.497  33.528  10.680
31543W        W98326  13.216  26.963  12.288
31544W        W98327   0.961  11.866   1.442
31545W        W98328  22.189  15.212   2.147
31546W        W98329  15.580  17.607   0.787
31547W        W98330  10.746  37.641  11.633
31548W        W98331   5.968  27.457  14.236
31549W        W98332  31.015  43.798  12.044
31550W        W98333  12.145   8.788   3.365
31551W        W98334  31.571   4.555  14.591
31552W        W98335  42.794  36.475   3.233
31553W        W98336  14.262  22.262  12.936
31554W        W98337  44.282  18.421  11.409
31555W        W98338  34.054  22.998   5.014
31556W        W98339  28.589  41.950  14.471
31557W        W98340  27.939  10.786   0.448
31558W        W98341  41.323  10.852  10.632
31559W        W98342   7.312  22.234   2.698
31560W        W98343  43.290   3.266  14.003
31561W        W98344  36.068   5.342  14.391
31562W        W98345  26.975  23.992   4.541
31563W        W98346  31.431   9.702   4.533
31564W        W98347  20.099   0.695   0.029
31565W        W98348  34.034   7.747   1.137
31566W        W98349  31.565  17.609  14.385
31567W        W98350  16.025  26.983   2.458
31568W        W98351  37.374   3.570   4.988
31569W        W98352   9.471  18.284  11.958
31570W        W98353  25.043  15.902  11.485
31571W        W98354  38.050  40.115   3.050
31572W        W98355  14.873  41.339  13.961
31573W        W98356  36.847  16.279   4.140
31574W        W98357  44.923  42.377  11.547
31575W        W98358  30.128  28.328  13.958
31576W        W98359  35.941  42.487   0.485
31577W        W98360  37.488  21.349   3.588
31578W        W98361  37.155  37.816  13.871
31579W        W98362  36.059  19.384   3.203
31580W        W98363   9.455  38.238   2.288
31581W        W98364  43.007  32.383  11.946
31582W        W98365  32.033  34.619  14.810
31583W        W98366  16.767  33.357  13.583
31584W        W98367  39.491   5.318  14.259
31585W        W98368  25.513  34.395  11.128
31586W        W98369   5.761   7.961  14.965
31587W        W98370   7.370  36.949  10.805
31588W        W98371   6.534  32.827  13.560
31589W        W98372  29.346  19.622   0.339
31590W        W98373  10.247   6.916   2.367
31591W        W98374   8.635   6.208   2.687
31592W        W98375  34.999  43.482   2.828
31593W        W98376  30.889   4.889   4.994
31594W        W98377  13.494   1.026  10.272
31595W        W98378  31.368  24.064  11.526
31596W        W98379  43.349  20.149  14.419
31597W        W98380  28.362  37.094   2.968
31598W        W98381  12.285  32.454  14.433
31599W        W98382  30.683   6.243  10.766
31600W        W98383   4.760  20.078  10.628
31601W        W98384  26.698  18.696   5.035
31602W        W98385   3.262  30.292   2.346
31603W        W98386   1.591   7.804   0.435
31604W        W98387   9.068  23.980  12.953
31605W        W98388   8.610  11.683  12.947
31606W        W98389  13.618  37.058   1.949
31607W        W98390  29.201   9.070   1.467
31608W        W98391  14.149   5.810  12.358
31609W        W98392   8.426  16.089   0.398
31610W        W98393  21.067  44.182  13.119
31611W        W98394  23.513   0.712  12.147
31612W        W98395  15.731   4.393   3.659
31613W        W98396  42.041   6.143   0.681
31614W        W98397  29.626  24.536  11.873
31615W        W98398   9.656  12.475  12.492
31616W        W98399  33.865  25.223  11.225
31617W        W98400  20.638  20.295   2.475
31618W        W98401  38.866  36.087   4.136
31619W        W98402   6.036  11.224  11.355
31620W        W98403  39.048  21.672  12.249
31621W        W98404  20.011  24.611   4.872
31622W        W98405  11.601   8.187  14.772
31623W        W98406  21.082   6.681  10.589
31624W        W98407  15.189  43.573  10.335
31625W        W98408  17.409  13.121  13.735
31626W        W98409   8.767  26.142  13.555
31627W        W98410  25.891  33.921   0.364
31628W        W98411  17.537  36.746   9.978
31629W        W98412   2.786  40.725  14.810
31630W        W98413  18.044  36.810   1.454
31631W        W98414   2.739  22.540   3.703
31632W        W98415  41.372  20.201   4.745
31633W        W98416   7.442  33.110   4.559
31634W        W98417  37.592   3.962   1.441
31635W        W98418  40.397  19.044  14.606
31636W        W98419   6.434  44.343   3.249
31637W        W98420  16.625  43.288  13.884
31638W        W98421   1.250  17.703   2.791
31639W        W98422  32.552  31.353  12.859
31640W        W98423  29.062  38.475   9.695
31641W        W98424  19.927  10.761   1.387
31642W        W98425  37.859  33.488   1.329
31643W        W98426   7.619  18.116  13.334
31644W        W98427  14.254   2.253  14.981
31645W        W98428   9.730   0.838  11.047
31646W        W98429  16.255  13.529  14.994
31647W        W98430  36.331  10.703   4.402
31648W        W98431  40.372  43.041   5.031
31649W        W98432  39.636   4.182   3.637
31650W        W98433   8.808  13.022  12.895
31651W        W98434   1.869  25.746  11.699
31652W        W98435   8.703  20.171   3.095
31653W        W98436  18.200  29.131  14.412
31654W        W98437  35.796   1.486  11.626
31655W        W98438  41.732   8.843  14.524
31656W        W98439  30.397  43.471  13.056
31657W        W98440  22.625  24.723   3.983
31658W        W98441   9.202  42.351   4.328
31659W        W98442  31.522  26.464   1.426
31660W        W98443   6.395   6.341   5.222
31661W        W98444  18.164  42.062   0.249
31662W        W98445   8.873  41.941   0.228
31663W        W98446  36.912  20.998  14.247
31664W        W98447  26.385  26.811  11.216
31665W        W98448  43.472  18.730   2.331
31666W        W98449  24.200  33.474  13.028
31667W        W98450  21.783   3.697   0.865
31668W        W98451  30.441  27.701   0.704
31669W        W98452  13.622  20.077   1.734
31670W        W98453  10.821  42.233  11.827
31671W        W98454  32.956  36.242   0.240
31672W        W98455  22.668  34.027   4.137
31673W        W98456  26.648  33.399  11.455
31674W        W98457  31.967  16.228  10.642
31675W        W98458  10.581  34.743  11.617
31676W        W98459   4.651  16.296  12.912
31677W        W98460  29.568  34.553   4.303
31678W        W98461  15.332  12.871   5.070
31679W        W98462  21.670  24.964   3.211
31680W        W98463  30.388  15.303  13.348
31681W        W98464  20.223  27.074  12.430
31682W        W98465  43.767  15.003  13.878
31683W        W98466  23.649  19.982   3.195
31684W        W98467   9.208  19.031  11.500
31685W        W98468  11.413   9.891  12.002
31686W        W98469  31.026  40.882  12.479
31687W        W98470  19.667   6.862   4.221
31688W        W98471  35.497  18.017   0.839
31689W        W98472  44.841  35.621  12.368
31690W        W98473  25.886  41.246   1.716
31691W        W98474  44.951  18.509   1.446
31692W        W98475  21.967  41.854   3.271
31693W        W98476  30.440  35.514  11.175
31694W        W98477  13.889  43.557  14.753
31695W        W98478  22.976  34.520  13.527
31696W        W98479  30.145  10.927  11.221
31697W        W98480  36.955  29.102  10.682
31698W        W98481  27.728  21.902  11.739
31699W        W98482  23.545   2.947  13.420
31700W        W98483  35.636   9.881   0.755
31701W        W98484  19.908  11.979  12.059
31702W        W98485  31.118  16.286   4.086
31703W        W98486  32.358   5.454   3.081
31704W        W98487  14.537   7.317  14.405
31705W        W98488  23.041  41.509  10.269
31706W        W98489   4.310   1.487  12.890
31707W        W98490   0.553  27.998   4.139
31708W        W98491  32.040   9.041   3.266
31709W        W98492  40.584   3.635   2.702
31710W        W98493   0.419  43.350  10.934
31711W        W98494   4.175   5.212   1.912
31712W        W98495  41.940   0.971  12.925
31713W        W98496  31.985  37.003  13.402
31714W        W98497  33.412  37.018  10.732
31715W        W98498   2.027  30.196  14.333
31716W        W98499  44.030  13.185  13.833
31717W        W98500  32.449  23.498  13.010
31718W        W98501  42.639  14.683  11.607
31719W        W98502  16.096   2.548  13.279
31720W        W98503   6.058  28.007   1.797
31721W        W98504  31.902  36.502  13.405
31722W        W98505  40.878  31.071  10.825
31723W        W98506  10.196  10.187   0.008
31724W        W98507  42.840  25.220   3.773
31725W        W98508   1.215   3.404   0.635
31726W        W98509  18.576   6.722   3.307
31727W        W98510   5.750  18.623   0.463
31728W        W98511   4.595  42.931  13.556
31729W        W98512  44.883  28.140  12.925
31730W        W98513  36.789   7.828  11.866
31731W        W98514  19.995   1.375  11.442
31732W        W98515   6.256  38.099   0.348
31733W        W98516  40.945  22.311   2.341
31734W        W98517   5.484  29.557   3.307
31735W        W98518  20.758   4.212   1.445
31736W        W98519  15.839   3.940  13.431
31737W        W98520  11.895  33.232   1.218
31738W        W98521   6.269  32.635  13.153
31739W        W98522  29.459  14.307   1.169
31740W        W98523   0.987  37.518   1.999
31741W        W98524  18.382  17.255   0.463
31742W        W98525  40.804  26.143   3.745
31743W        W98526  42.032  42.791   0.977
31744W        W98527  14.018  11.195  11.232
31745W        W98528  32.018  42.927  11.724
31746W        W98529  40.390  28.645  14.639
31747W        W98530  39.091  43.730  11.423
31748W        W98531  35.343  37.048   4.273
31749W        W98532  38.547  39.918  14.859
31750W        W98533   5.769  11.665  11.467
31751W        W98534  27.169  11.321   0.331
31752W        W98535  44.233  22.826  13.122
31753W        W98536  16.331  18.609  13.956
31754W        W98537   1.358  25.170  11.924
31755W        W98538  30.417  43.350   0.318
31756W        W98539   9.725  30.121   1.460
31757W        W98540  17.555  42.416  14.712
31758W        W98541  20.130  31.017  11.110
31759W        W98542  41.434   0.036   0.106
31760W        W98543  33.513  26.361   1.223
31761W        W98544  26.164  38.404   0.219
31762W        W98545  13.421  29.086  14.038
31763W        W98546   9.761  13.019   4.610
31764W        W98547  25.227   6.968   0.719
31765W        W98548   4.357  24.315  14.967
31766W        W98549  11.150  17.445  12.224
31767W        W98550  10.845  13.843   1.899
31768W        W98551  31.264  23.231   4.519
31769W        W98552  13.360  11.557   3.975
31770W        W98553  43.777  27.604  11.136
31771W        W98554  35.277   5.478  14.691
31772W        W98555  26.382  20.643  14.334
31773W        W98556  16.697  40.273   1.091
31774W        W98557  28.582   3.803  14.878
31775W        W98558  40.808   6.806   0.282
31776W        W98559   8.918  14.596  12.632
31777W        W98560  31.016  29.809   2.472
31778W        W98561   1.074  36.932   0.901
31779W        W98562  37.456  18.427   0.780
31780W        W98563   8.678  41.357   2.661
31781W        W98564  34.621  31.568  10.893
31782W        W98565  42.223  44.915   1.505
31783W        W98566   1.155  36.327   1.882
31784W        W98567  35.442   1.881  10.721
31785W        W98568  19.485  26.500   0.273
31786W        W98569  37.067  18.895  12.829
31787W        W98570  29.146   9.278  13.297
31788W        W98571  24.478  35.848  11.906
31789W        W98572  29.227  16.136  12.112
31790W        W98573   2.369  13.771  13.431
31791W        W98574   2.205  21.109  13.528
31792W        W98575  23.599  42.850   2.363
31793W        W98576   7.209   9.870   3.359
31794W        W98577   0.698  26.164  13.612
31795W        W98578  28.868  13.675  13.542
31796W        W98579  26.151  11.039  10.631
31797W        W98580  21.150  10.266  10.979
31798W        W98581  11.306  35.950   3.077
31799W        W98582  43.287   2.830   4.254
31800W        W98583  19.019   7.341  12.108
31801W        W98584  13.122  19.670   1.033
31802W        W98585  22.254   2.478   1.943
31803W        W98586  26.785  24.255  12.573
31804W        W98587  38.342  28.775   3.216
31805W        W98588  23.132  44.430   3.129
31806W        W98589   5.866  31.628   1.834
31807W        W98590  39.447  29.674  14.296
31808W        W98591  19.555  13.723  11.381
31809W        W98592   1.726  38.762   1.915
31810W        W98593  41.288  22.617   3.237
31811W        W98594  11.179  12.064  10.347
31812W        W98595  25.542  41.407  10.073
31813W        W98596  24.123  14.392   4.164
31814W        W98597  44.230  21.199  14.466
31815W        W98598  18.627  38.049   3.225
31816W        W98599  30.863   6.515  12.251
31817W        W98600  23.491  19.733   3.634
31818W        W98601  18.558  19.240   5.090
31819W        W98602  40.486  25.785  14.891
31820W        W98603   3.960  22.388   3.307
31821W        W98604  30.905  22.759  14.873
31822W        W98605  12.217   0.790   3.098
31823W        W98606  34.175  32.465  13.496
31824W        W98607  20.516  15.220   2.339
31825W        W98608  35.810   9.181  13.346
31826W        W98609  12.669  13.072   4.681
31827W        W98610  37.292  42.398  12.025
31828W        W98611  26.911  23.013   0.345
31829W        W98612  18.130   7.565   0.879
31830W        W98613  30.045  21.277   2.384
31831W        W98614  15.679   5.259   3.493
31832W        W98615   6.760  14.567  11.699
31833W        W98616  25.232  24.846  11.497
31834W        W98617  23.420  14.068   5.031
31835W        W98618  40.394  32.543  14.903
31836W        W98619  36.534  44.358  11.104
31837W        W98620  34.766   2.947  13.816
31838W        W98621  36.807  29.139  14.820
31839W        W98622  15.758   4.754   2.335
31840W        W98623   8.597  40.876   2.481
31841W        W98624  19.594   5.728  11.438
31842W        W98625  20.254  27.136  10.634
31843W        W98626  33.421  32.058  13.494
31844W        W98627  42.255  12.472   3.811
31845W        W98628  18.586   5.477   0.964
31846W        W98629  26.894  40.447  13.845
31847W        W98630  28.616  31.896   1.084
31848W        W98631  36.329  35.583  13.467
31849W        W98632   3.305  34.016   1.667
31850W        W98633  20.263  27.600  14.063
31851W        W98634  39.980  33.582   4.100
31852W        W98635  18.357  35.444  13.535
31853W        W98636   8.626  38.395  14.553
31854W        W98637   4.494  31.985   3.251
31855W        W98638  29.368  44.843   1.779
31856W        W98639  43.299  21.363   1.428
31857W        W98640   9.923  27.564  11.570
31858W        W98641  44.279  24.962  14.389
31859W        W98642   8.925  21.801  13.079
31860W        W98643  16.788  42.670   2.689
31861W        W98644   4.889   9.891  10.745
31862W        W98645  27.153  43.797   0.728
31863W        W98646  27.574  25.686   2.344
31864W        W98647  21.754  37.435  14.289
31865W        W98648  44.053  43.725  13.520
31866W        W98649  13.822  26.249   2.200
31867W        W98650  14.712  11.108   0.448
31868W        W98651  39.387  43.369   2.665
31869W        W98652  11.453  21.111  14.341
31870W        W98653  37.611  24.202  14.756
31871W        W98654  28.401  39.731   3.671
31872W        W98655  16.339  44.903  12.166
31873W        W98656  43.628  34.224  13.544
31874W        W98657  14.167   4.992  11.604
31875W        W98658  17.312  22.859  11.174
31876W        W98659  36.513  31.500  13.925
31877W        W98660  13.698  19.006   4.695
31878W        W98661   2.790  17.645  14.808
31879W        W98662   0.410  27.367   2.603
31880W        W98663  27.195  12.233  14.787
31881W        W98664  43.389  41.203   4.939
31882W        W98665   1.223  26.031   4.373
31883W        W98666  35.134   1.733  11.107
31884W        W98667  25.115   4.827  13.338
31885W        W98668  18.279   8.452  14.393
31886W        W98669  26.431  42.297  13.883
31887W        W98670  15.716  39.744   1.782
31888W        W98671   7.681  40.385   1.277
31889W        W98672  36.937  22.562   1.247
31890W        W98673  33.461  42.319   0.902
31891W        W98674   4.243  25.753   3.087
31892W        W98675  26.407   1.294  11.216
31893W        W98676  10.372  21.674   2.596
31894W        W98677  19.108  36.587  11.119
31895W        W98678  40.449   8.201   4.489
31896W        W98679   3.814  19.200  10.636
31897W        W98680  33.695  22.277   4.506
31898W        W98681   7.299  42.363  12.539
31899W        W98682   0.508  11.819   1.187
31900W        W98683  23.002  19.805  10.671
31901W        W98684   0.768  26.605   3.791
31902W        W98685   0.391  42.327   2.765
31903W        W98686  44.412   5.813   0.915
31904W        W98687  33.342   2.722  11.570
31905W        W98688  40.338  16.603   4.573
31906W        W98689   0.209  14.019   5.504
31907W        W98690  11.067  24.949  11.446
31908W        W98691   8.244  41.569  10.874
31909W        W98692  44.167  35.983   5.003
31910W        W98693  39.025   7.873  12.847
31911W        W98694  28.525   6.511   3.269
31912W        W98695  19.717  26.197  13.811
31913W        W98696   1.510   0.878  11.540
31914W        W98697  44.053  11.372  11.663
31915W        W98698  11.975  18.976   2.268
31916W        W98699   3.851   4.443  11.243
31917W        W98700   7.236  19.644  14.509
31918W        W98701  21.567  13.243  10.584
31919W        W98702  13.431  18.346  11.903
31920W        W98703  37.432  37.414  13.659
31921W        W98704  18.930  10.690   3.637
31922W        W98705  30.443  18.322  12.176
31923W        W98706  16.476  14.221  14.295
31924W        W98707  32.045  29.258  14.440
31925W        W98708   8.328  24.987  12.608
31926W        W98709  26.633   8.783   0.948
31927W        W98710  36.458   6.777   3.179
31928W        W98711  31.962  20.748  13.034
31929W        W98712  31.080  33.337  12.560
31930W        W98713  44.189  30.928  14.263
31931W        W98714   2.629  27.486  14.290
31932W        W98715  41.897  40.578   2.411
31933W        W98716  39.997  24.020  11.377
31934W        W98717  12.819  38.323  14.739
31935W        W98718  20.941  10.385   2.412
31936W        W98719  36.573   8.937   0.356
31937W        W98720  35.397  28.097  12.167
31938W        W98721   8.684  17.235  10.787
31939W        W98722  39.066  23.034   3.272
31940W        W98723  12.903  11.171  10.532
31941W        W98724   7.202  43.975  12.326
31942W        W98725  35.011   5.175   1.418
31943W        W98726  41.544  23.252  12.576
31944W        W98727  10.232  42.285   2.890
31945W        W98728   2.992   0.426  13.035
31946W        W98729  25.804  40.570   1.001
31947W        W98730  13.144  14.580   2.636
31948W        W98731  31.046  27.892   3.078
31949W        W98732  40.067  15.128  14.952
31950W        W98733   8.079  32.400  14.051
31951W        W98734  22.187  15.878   0.740
31952W        W98735  26.838   5.847   0.687
31953W        W98736  21.669  43.032  11.913
31954W        W98737  37.684   2.730  10.614
31955W        W98738  39.832   9.068  11.171
31956W        W98739   2.306  15.759   2.894
31957W        W98740  15.283  27.125   1.804
31958W        W98741   9.010  39.457   2.375
31959W        W98742  37.866  14.781  11.877
31960W        W98743  23.910  38.455  14.673
31961W        W98744  10.221  34.021  12.993
31962W        W98745  24.020  35.912  10.804
31963W        W98746   2.898  37.002   2.276
31964W        W98747  16.959  42.507  14.025
31965W        W98748  13.396  21.011   0.968
31966W        W98749  27.073  10.847  11.317
31967W        W98750   8.928  20.595  14.851
31968W        W98751  44.403  29.752  14.959
31969W        W98752  10.119  20.372   2.731
31970W        W98753  28.183  12.531   1.728
31971W        W98754  14.589  41.803  14.071
31972W        W98755  24.199  26.476   3.141
31973W        W98756  38.803   3.864   3.187
31974W        W98757   6.185  28.095  12.078
31975W        W98758  24.136  27.531  11.741
31976W        W98759   1.037  25.253   3.585
31977W        W98760  27.949  10.390   2.241
31978W        W98761   2.185  41.279   0.820
31979W        W98762  17.192   6.876  10.734
31980W        W98763  33.251  32.039  14.335
31981W        W98764   0.050  39.475  12.370
31982W        W98765  14.864  19.586  10.570
31983W        W98766  21.081  11.212   3.579
31984W        W98767  18.276  13.246   2.310
31985W        W98768  29.230  32.141  13.287
31986W        W98769  19.678  38.187  11.432
31987W        W98770  36.864  21.022  11.257
31988W        W98771  34.454   5.412   4.124
31989W        W98772   1.731  36.780  13.502
31990W        W98773   6.433   6.201   2.680
31991W        W98774  29.000  22.605  10.816
31992W        W98775  43.391  38.460   0.724
31993W        W98776   2.238  23.769   0.417
31994W        W98777   0.741  12.604   0.863
31995W        W98778  26.741  29.038   1.629
31996W        W98779  20.713   0.409  10.413
31997W        W98780   5.968  35.460  14.851
31998W        W98781  27.998  28.872  10.520
31999W        W98782   8.474   1.733  13.358
32000W        W98783  39.849   0.293  11.414
32001W        W98784  21.481  31.045  12.488
32002W        W98785  32.070  18.211  12.623
32003W        W98786  19.624   9.604  10.834
32004W        W98787  18.739  20.034   4.680
32005W        W98788  43.826   3.058   4.384
32006W        W98789  19.340  25.231   2.400
32007W        W98790  22.668  12.680   0.148
32008W        W98791  30.871  30.184   4.456
32009W        W98792  22.489  43.006  11.154
32010W        W98793  31.653   0.993   0.015
32011W        W98794  10.351  16.943  10.259
32012W        W98795   0.245  18.950   0.280
32013W        W98796  41.072  11.605   1.789
32014W        W98797  19.708  40.785   1.040
32015W        W98798  29.827  29.721   3.600
32016W        W98799  41.689   6.685   4.137
32017W        W98800  41.173  43.815   2.311
32018W        W98801  14.149  29.202  12.924
32019W        W98802  10.825   4.629   0.802
32020W        W98803  17.829  11.112   1.850
32021W        W98804  20.577   7.555  10.691
32022W        W98805  31.231  15.766   1.355
32023W        W98806  14.267  31.669   1.907
32024W        W98807  11.920  41.368  12.008
32025W        W98808  18.329  43.973   1.705
32026W        W98809  21.361  40.493  11.842
32027W        W98810  21.021  12.577  11.595
32028W        W98811  29.648  22.229   0.892
32029W        W98812  30.580  29.087  10.943
32030W        W98813  37.464  31.106   1.302
32031W        W98814  23.191  38.012  13.800
32032W        W98815  38.384  32.677   1.121
32033W        W98816  42.265  25.837  11.043
32034W        W98817  43.490  23.222  12.020
32035W        W98818  35.054  11.410   2.682
32036W        W98819  18.560  19.498  13.887
32037W        W98820  38.157  38.404   4.287
32038W        W98821  42.558  22.743   4.131
32039W        W98822  19.084  26.246   5.132
32040W        W98823  19.912  15.219  11.688
32041W        W98824  11.357  25.733   1.353
32042W        W98825   5.671  44.582   4.686
32043W        W98826  37.651   5.933  12.528
32044W        W98827  40.787  12.361   0.220
32045W        W98828  26.556  23.627   0.573
32046W        W98829  22.182  42.285  13.327
32047W        W98830   5.206  41.875  14.350
32048W        W98831  18.317   3.718  13.577
32049W        W98832  21.720   4.095   2.347
32050W        W98833  13.313   0.767  11.566
32051W        W98834  10.702  11.186   4.591
32052W        W98835  17.272  43.852  12.191
32053W        W98836  19.824  19.245  13.990
32054W        W98837  40.204  13.810   1.830
32055W        W98838  13.112  33.993   1.444
32056W        W98839  32.904  29.298   2.823
32057W        W98840  26.538  34.577   0.173
32058W        W98841  42.868  16.064  10.763
32059W        W98842  10.499  15.046  14.118
32060W        W98843  36.453  36.079  13.359
32061W        W98844  44.751  32.646   4.134
32062W        W98845  23.199   1.695  14.297
32063W        W98846  31.701  43.957  10.746
32064W        W98847   8.074  21.178   4.250
32065W        W98848  11.206  25.931  14.890
32066W        W98849  35.864  16.303  14.312
32067W        W98850   4.122  12.839  13.833
32068W        W98851  29.371  19.648   3.967
32069W        W98852  41.565  23.753   1.256
32070W        W98853  11.671  32.058  12.642
32071W        W98854  12.589  30.936  13.057
32072W        W98855  35.297  11.228  14.873
32073W        W98856  42.801  39.316   2.679
32074W        W98857  38.625  40.517  13.097
32075W        W98858  11.670   5.663  14.931
32076W        W98859   7.175  44.538  10.726
32077W        W98860  12.756  34.562  12.925
32078W        W98861   6.438  15.600  13.816
32079W        W98862  41.907   5.431   2.387
32080W        W98863  35.333  25.687  14.411
32081W        W98864  33.717   8.583   4.083
32082W        W98865  32.095  31.362   1.407
32083W        W98866   4.316   7.301   2.876
32084W        W98867  12.900  16.643   0.281
32085W        W98868   5.393  30.049   2.197
32086W        W98869  12.425  41.392  14.873
32087W        W98870  15.015  16.162   3.063
32088W        W98871   0.540  30.236  14.074
32089W        W98872   6.043  19.557   2.016
32090W        W98873  36.315  28.149  14.017
32091W        W98874  32.004  29.423  14.951
32092W        W98875   8.794  15.040  12.363
32093W        W98876   1.870  28.208  13.953
32094W        W98877  24.170  13.578  12.078
32095W        W98878  21.550  38.459  10.523
32096W        W98879   9.182   8.349  11.902
32097W        W98880   7.743   6.501   1.826
32098W        W98881  34.225  17.834  11.191
32099W        W98882  31.731   9.838   1.280
32100W        W98883  30.918  29.668   0.568
32101W        W98884  44.947   7.638  12.465
32102W        W98885  11.241   1.410   0.290
32103W        W98886  26.636  41.403   0.502
32104W        W98887  41.364  41.870   0.906
32105W        W98888  19.503  24.388   1.209
32106W        W98889  12.429  30.998   0.353
32107W        W98890  27.136  10.351  10.549
32108W        W98891   8.609  14.090   1.820
32109W        W98892  32.904  42.608  14.557
32110W        W98893  19.232  24.157   0.404
32111W        W98894  20.958   4.521  14.763
32112W        W98895  20.088  25.525  13.512
32113W        W98896  38.949  44.226   4.631
32114W        W98897  38.988   9.975  12.000
32115W        W98898  37.352   0.830   5.160
32116W        W98899  27.906  32.440  13.923
32117W        W98900   9.819  37.142  14.450
32118W        W98901  27.682  24.348  12.576
32119W        W98902   2.282  26.920  10.470
32120W        W98903  35.208  23.509  11.217
32121W        W98904  39.081  34.152  13.147
32122W        W98905   7.783  13.341  13.451
32123W        W98906  28.363  20.566   0.859
32124W        W98907  13.897  34.103  11.054
32125W        W98908  14.709  39.415   2.796
32126W        W98909  44.437  31.402  13.576
32127W        W98910  20.037  10.314  13.349
32128W        W98911   8.130   2.700  11.119
32129W        W98912  20.610  24.696  11.589
32130W        W98913   8.268  24.044   2.421
32131W        W98914  24.393  27.108   4.205
32132W        W98915   6.304  16.107   4.131
32133W        W98916  38.386  20.173  14.245
32134W        W98917  23.175  40.039  12.644
32135W        W98918  30.470  20.211   4.503
32136W        W98919  38.857  38.076  12.388
32137W        W98920  32.039  41.157   0.794
32138W        W98921  42.994   6.134   4.147
32139W        W98922  22.913   2.920   3.255
32140W        W98923  14.074  15.547  13.824
32141W        W98924  34.623   9.182   1.597
32142W        W98925  27.663  38.506  12.058
32143W        W98926  44.900   0.676  12.526
32144W        W98927  31.870  17.267   0.437
32145W        W98928  11.701  23.095  12.976
32146W        W98929  15.686  35.880   2.570
32147W        W98930  32.339   1.587  11.167
32148W        W98931  33.109  15.061   2.244
32149W        W98932   7.594  29.061  11.648
32150W        W98933  27.488  28.321  13.940
32151W        W98934   0.211   7.235  13.393
32152W        W98935  11.752   5.623   4.122
32153W        W98936  40.341  11.439   1.299
32154W        W98937  17.777   4.307  11.028
32155W        W98938   4.342   5.693  11.209
32156W        W98939  16.093  24.125   1.798
32157W        W98940  20.907  43.547  14.945
32158W        W98941   3.418  16.471   2.262
32159W        W98942  18.346  13.417   1.324
32160W        W98943  34.809  14.756  11.215
32161W        W98944  33.936  27.067   2.318
32162W        W98945  32.666  31.201   1.667
32163W        W98946  19.215  20.642  10.673
32164W        W98947  41.959  42.019  14.490
32165W        W98948  29.560  19.658  10.434
32166W        W98949   8.814  44.892   4.096
32167W        W98950  15.991  37.597  13.415
32168W        W98951   9.606  23.214  14.046
32169W        W98952  33.863  10.823  10.608
32170W        W98953  22.140  18.221  10.742
32171W        W98954   9.199   4.347  11.194
32172W        W98955   1.419   6.700   3.679
32173W        W98956  42.256  26.240  14.410
32174W        W98957  35.612  41.724  11.401
32175W        W98958  15.733  44.311  13.792
32176W        W98959  44.701   4.329  14.814
32177W        W98960  10.158  20.083  11.098
32178W        W98961   9.402  33.649  11.222
32179W        W98962  37.519  26.387   4.075
32180W        W98963  30.480  25.264  12.599
32181W        W98964   3.938  10.497   2.479
32182W        W98965   5.309   2.752  12.312
32183W        W98966  35.406  33.975  14.317
32184W        W98967  39.138  18.822   3.340
32185W        W98968  42.871  22.712   0.860
32186W        W98969   3.653  30.153  12.981
32187W        W98970  18.006  32.415   2.444
32188W        W98971  27.736   9.142   3.401
32189W        W98972  36.774  17.277   2.693
32190W        W98973  24.135   6.283  11.650
32191W        W98974  11.157  14.659   4.501
32192W        W98975  18.568  24.747  10.798
32193W        W98976   6.446  42.480  14.722
32194W        W98977  43.478  30.119   1.201
32195W        W98978  17.067  33.658   4.006
32196W        W98979  14.802  28.162  12.991
32197W        W98980  35.670  38.808  12.040
32198W        W98981  27.007  42.310   3.356
32199W        W98982  24.216  39.034  10.383
32200W        W98983  34.043  24.872   4.331
32201W        W98984  40.896   8.789  13.048
32202W        W98985  13.712  27.892  11.581
32203W        W98986  23.070   0.941   4.616
32204W        W98987  44.026  31.321  12.496
32205W        W98988  17.192  37.321   2.392
32206W        W98989  40.245  42.826  12.568
32207W        W98990  24.893  35.013  12.513
32208W        W98991  34.674  29.207   4.118
32209W        W98992  22.024  34.874  12.096
32210W        W98993  32.606  22.519  14.574
32211W        W98994   7.095   4.351   3.118
32212W        W98995  40.100  40.190   2.658
32213W        W98996  19.267  17.480  13.152
32214W        W98997   0.936   6.953   4.658
32215W        W98998  10.305  33.473   0.449
32216W        W98999  22.796  11.724  13.973
32217W        W99000  26.122  28.042   1.120
32218W        W99001  39.411  20.628   3.859
32219W        W99002  32.047  11.900   4.935
32220W        W99003  20.107  25.983   2.828
32221W        W99004  39.005  17.050  10.798
32222W        W99005  11.594   6.534  12.955
32223W        W99006  13.737  25.294   1.071
32224W        W99007   6.362   0.771  10.168
32225W        W99008  18.228   1.387   2.113
32226W        W99009  33.513  16.695  14.110
32227W        W99010   5.202  10.115   0.450
32228W        W99011  20.539  26.843  12.042
32229W        W99012  19.141   4.479  14.254
32230W        W99013  11.448  27.018   1.630
32231W        W99014  10.990  25.065   3.888
32232W        W99015   9.776  14.585  10.823
32233W        W99016  27.753  11.438  11.204
32234W        W99017   3.262  25.485  13.973
32235W        W99018  25.468  13.175  12.425
32236W        W99019   0.369  33.607   3.405
32237W        W99020  11.018  41.348  14.423
32238W        W99021  38.591  31.011  11.597
32239W        W99022   7.384  34.883   1.649
32240W        W99023  41.274  12.964   3.216
32241W        W99024  38.270  32.898   2.285
32242W        W99025  34.519  35.364   2.768
32243W        W99026   2.618  19.019   1.845
32244W        W99027  10.581   4.920  11.143
32245W        W99028   5.359  20.886   2.324
32246W        W99029  44.431   3.232  12.510
32247W        W99030  16.293  34.635   3.187
32248W        W99031  43.476   3.531   2.539
32249W        W99032  15.355  24.076  10.882
32250W        W99033  38.860  42.746  11.133
32251W        W99034  21.860  35.194  11.308
32252W        W99035  32.638   0.349  12.090
32253W        W99036  18.890  39.535   4.127
32254W        W99037  31.886  36.080  12.478
32255W        W99038   7.260  33.548   1.384
32256W        W99039  37.052  32.348  10.737
32257W        W99040  22.221  11.271   1.731
32258W        W99041  29.388  25.167   2.115
32259W        W99042  25.946   7.928  13.454
32260W        W99043  21.389   3.132  13.883
32261W        W99044  12.349  27.125  11.486
32262W        W99045  28.066  29.651  14.030
32263W        W99046  25.594  17.791  14.793
32264W        W99047   5.501  34.697   0.626
32265W        W99048  30.598  20.492   1.014
32266W        W99049   0.006  11.161  13.594
32267W        W99050  40.013  43.119  12.941
32268W        W99051   1.584  40.899  13.310
32269W        W99052  43.066  43.935   0.744
32270W        W99053  20.279  31.927   1.209
32271W        W99054  14.181   9.796   1.105
32272W        W99055   9.223  21.006   0.350
32273W        W99056  41.391  18.106   4.189
32274W        W99057  19.501  16.298   4.403
32275W        W99058  15.027   4.224  11.432
32276W        W99059  15.528  44.623  13.451
32277W        W99060  16.680   6.909  10.664
32278W        W99061  38.404  30.695  14.853
32279W        W99062  23.190  19.057   2.277
32280W        W99063  26.357  29.011   0.686
32281W        W99064  41.568  26.404   2.156
32282W        W99065  24.552  40.937  12.395
32283W        W99066  37.343  37.092  12.402
32284W        W99067  13.909  28.255  13.844
32285W        W99068  27.610   7.552   0.425
32286W        W99069  19.122  28.581   4.849
32287W        W99070  31.563  18.139  12.818
32288W        W99071  36.175  23.138  13.552
32289W        W99072  23.585  38.033  13.424
32290W        W99073   0.237  13.229   1.341
32291W        W99074  30.657  16.332  11.152
32292W        W99075  15.289   2.034  11.660
32293W        W99076   6.367  24.380  13.972
32294W        W99077  32.483  23.270   0.732
32295W        W99078   1.902  29.432  12.878
32296W        W99079   6.620  30.582  11.051
32297W        W99080   9.690   5.717  10.861
32298W        W99081   6.108  23.830   0.085
32299W        W99082  23.215   5.867   4.659
32300W        W99083  30.717  33.028  12.810
32301W        W99084  12.736  42.217  13.484
32302W        W99085  25.006  13.892  12.584
32303W        W99086   3.520  43.361   0.734
32304W        W99087   5.895   6.166   2.697
32305W        W99088   8.854  30.816   2.852
32306W        W99089  43.075  42.830  14.742
32307W        W99090  34.352  11.703  10.585
32308W        W99091  18.203   8.228   0.421
32309W        W99092  20.468   8.292   2.979
32310W        W99093  16.754  26.188   2.441
32311W        W99094  20.350   1.113   2.639
32312W        W99095  13.887   0.062   3.631
32313W        W99096  37.433  19.229   0.470
32314W        W99097  37.623   3.992  11.077
32315W        W99098  24.615  33.528  12.707
32316W        W99099  33.360  14.764   2.929
32317W        W99100  27.078  25.905   4.067
32318W        W99101  42.989  20.766  11.646
32319W        W99102  36.029   4.256  12.313
32320W        W99103  33.998  21.439  13.357
32321W        W99104   1.417  25.209   0.928
32322W        W99105  22.235   8.863   4.131
32323W        W99106   6.150  43.779   4.141
32324W        W99107  19.945  43.533  10.888
32325W        W99108  41.085  25.677   3.833
32326W        W99109  39.785  15.966  12.572
32327W        W99110  10.488  15.388   4.181
32328W        W99111   4.252  18.448  13.070
32329W        W99112   5.734  39.532  14.362
32330W        W99113  22.466  16.199   4.104
32331W        W99114  43.953  10.905  13.989
32332W        W99115  12.359  23.046   3.114
32333W        W99116  25.487   4.785  13.690
32334W        W99117  29.040  34.617  10.741
32335W        W99118  25.447  35.843   3.786
32336W        W99119  10.446  43.106   0.273
32337W        W99120   2.051  34.275   3.692
32338W        W99121  24.373  29.720  14.378
32339W        W99122  33.505   1.724  11.672
32340W        W99123   5.955  32.180  11.041
32341W        W99124  39.032   9.326   4.719
32342W        W99125  29.328  20.199   2.307
32343W        W99126  13.063  17.597  13.857
32344W        W99127  11.870  17.667  14.479
32345W        W99128  13.283  23.124   1.696
32346W        W99129   6.741  18.434  10.673
32347W        W99130  35.828  22.708  14.394
32348W        W99131  42.591  39.897  11.569
32349W        W99132  42.505  36.764  14.487
32350W        W99133  21.653   6.277   4.629
32351W        W99134  34.012  10.319  10.263
32352W        W99135  32.586   5.666  11.787
32353W        W99136  22.941  16.752   0.378
32354W        W99137  37.995  39.337   2.816
32355W        W99138  16.868   1.897   1.017
32356W        W99139  13.806   4.335   1.230
32357W        W99140   8.736  42.393  12.051
32358W        W99141   8.963  13.017   3.052
32359W        W99142   1.874   9.603   3.264
32360W        W99143  30.066  14.219   5.002
32361W        W99144  37.014   1.514   1.373
32362W        W99145   9.520  42.685   1.295
32363W        W99146  44.120  21.995  10.908
32364W        W99147  34.905   6.766   3.122
32365W        W99148  23.751  39.081  14.271
32366W        W99149   4.525  16.366   3.410
32367W        W99150  21.105  40.048  12.140
32368W        W99151  31.090  33.524   3.652
32369W        W99152   3.657  37.515   1.711
32370W        W99153   5.047  20.549   1.933
32371W        W99154  12.086  44.891   2.626
32372W        W99155  38.987  39.623  10.616
32373W        W99156  38.508  41.546  10.758
32374W        W99157  19.018  12.795   2.098
32375W        W99158   6.155  27.027  11.448
32376W        W99159  14.319  36.149  12.203
32377W        W99160  37.611  21.460  13.493
32378W        W99161  28.063   9.202   0.183
32379W        W99162  10.913  39.426  12.645
32380W        W99163  16.136   3.523   0.767
32381W        W99164  31.919  23.762  14.771
32382W        W99165  25.245  33.616   1.666
32383W        W99166  36.498  44.411   0.326
32384W        W99167  16.840  37.679  13.225
32385W        W99168  26.178  33.640  11.539
32386W        W99169  32.012  42.070   1.815
32387W        W99170  42.355  19.580  10.581
32388W        W99171  18.316  10.352   0.003
32389W        W99172  24.085  14.181   1.388
32390W        W99173  30.411  30.071   4.102
32391W        W99174  16.559  17.984   2.363
32392W        W99175  16.713  18.495  11.673
32393W        W99176  35.042  35.810   4.012
32394W        W99177  21.118  34.409  12.079
32395W        W99178  34.429  15.315  12.003
32396W        W99179  15.900  30.916  13.146
32397W        W99180  21.744  34.971   1.801
32398W        W99181  13.636  20.989   0.353
32399W        W99182  33.040  16.187   0.813
32400W        W99183  36.489  25.586  13.041
32401W        W99184  13.891  16.083   0.924
32402W        W99185  34.331  38.009  13.530
32403W        W99186  39.919  29.874  12.927
32404W        W99187  33.698  26.647   3.174
32405W        W99188  10.206  31.570  13.372
32406W        W99189  22.196  23.914   3.695
32407W        W99190   1.671  15.714   1.759
32408W        W99191  33.669  27.509  11.980
32409W        W99192  30.905  18.299  14.804
32410W        W99193  33.709  11.890  13.417
32411W        W99194  13.188  40.444  12.540
32412W        W99195  42.096  33.089   1.275
32413W        W99196  19.527  28.941   2.675
32414W        W99197  16.179  35.321  11.590
32415W        W99198  25.754  10.204   4.126
32416W        W99199  43.829  44.745   0.480
32417W        W99200  16.186  10.313  10.231
32418W        W99201  30.255  27.461   1.511
32419W        W99202  41.471   4.338  13.289
32420W        W99203   7.524  20.682  11.127
32421W        W99204   8.736  13.864   3.727
32422W        W99205   3.190  16.062  12.055
32423W        W99206  42.992  39.262  14.256
32424W        W99207   2.651  25.148  13.625
32425W        W99208  13.171  37.524  13.632
32426W        W99209  27.121  12.841   4.706
32427W        W99210  42.643  20.948   1.779
32428W        W99211   3.052   0.073   0.377
32429W        W99212  32.934   5.695   0.773
32430W        W99213  14.375   0.828  10.772
32431W        W99214   5.452   6.435   2.697
32432W        W99215  40.411  30.431   1.943
32433W        W99216   8.758  23.015  13.766
32434W        W99217  10.326  12.781   5.158
32435W        W99218  36.625  21.227  12.168
32436W        W99219  42.808   6.262   0.199
32437W        W99220  25.367  14.215   1.736
32438W        W99221  31.002  40.837  14.855
32439W        W99222  18.726  31.387  11.452
32440W        W99223  36.587  39.508  13.112
32441W        W99224   4.685  39.315  14.484
32442W        W99225   9.847  38.421  14.720
32443W        W99226  37.673  17.755   0.303
32444W        W99227  20.214  21.494   1.652
32445W        W99228  29.419   6.950   2.803
32446W        W99229  44.627  17.610   1.825
32447W        W99230  12.835  32.881  11.994
32448W        W99231  15.855  15.922  12.365
32449W        W99232  25.132  18.578  11.464
32450W        W99233  25.931  31.975   1.368
32451W        W99234  44.710  40.266  14.514
32452W        W99235  33.158   1.416   1.815
32453W        W99236   1.798  30.470   4.576
32454W        W99237  16.552  17.213  12.959
32455W        W99238   1.914  38.233  13.889
32456W        W99239  33.841  36.463  13.743
32457W        W99240  14.699  24.700   4.956
32458W        W99241  16.970  37.937  12.377
32459W        W99242  21.168  43.384   2.355
32460W        W99243  27.407  16.565  13.465
32461W        W99244  17.514  37.484  13.594
32462W        W99245  16.256   9.921   1.432
32463W        W99246   8.735  26.146   1.713
32464W        W99247  36.562  20.658   3.654
32465W        W99248  13.633  13.201   4.412
32466W        W99249   0.426  39.891   1.647
32467W        W99250  33.999  25.103   1.182
32468W        W99251  42.686  42.240  12.836
32469W        W99252  34.029  26.955  13.829
32470W        W99253  39.307   6.377   3.738
32471W        W99254  33.114  34.586  14.526
32472W        W99255  16.857   5.227  14.452
32473W        W99256  29.346   8.306  11.248
32474W        W99257  41.065   7.421   0.318
32475W        W99258  23.988   8.254   4.098
32476W        W99259  34.512  30.631  10.632
32477W        W99260  10.869  17.096   3.095
32478W        W99261  33.450  29.207  12.600
32479W        W99262   1.924  14.713   0.267
32480W        W99263  14.721  15.055   3.587
32481W        W99264  20.594  30.473   1.300
32482W        W99265  29.992   3.717   2.208
32483W        W99266   4.222  13.117  12.533
32484W        W99267  43.887  35.013  14.113
32485W        W99268  28.452  15.508   0.853
32486W        W99269  42.101  41.621   4.549
32487W        W99270  35.341  44.173   1.160
32488W        W99271  24.923   3.311   0.808
32489W        W99272   0.684  29.170   4.449
32490W        W99273   8.316  39.572   0.343
32491W        W99274   7.053  41.002  14.558
32492W        W99275  13.280   7.433  10.189
32493W        W99276  38.802  16.688  13.336
32494W        W99277  40.912  23.074   4.090
32495W        W99278   4.234  28.530  11.711
32496W        W99279  13.137  29.004   3.087
32497W        W99280  35.972  15.396   1.646
32498W        W99281  13.650  39.824  13.813
32499W        W99282  27.242  41.843   2.722
32500W        W99283  19.563  16.384   0.355
32501W        W99284  25.479  15.125   3.379
32502W        W99285  39.753  18.614   3.861
32503W        W99286  42.174  22.384  10.961
32504W        W99287   8.862  37.476  14.036
32505W        W99288  39.254  38.757  11.127
32506W        W99289  26.250  10.231   1.385
32507W        W99290  39.388  25.395   3.683
32508W        W99291   6.268   4.991  11.947
32509W        W99292  16.386   1.971   0.808
32510W        W99293  43.736  25.032  14.008
32511W        W99294  31.132  28.552   1.893
32512W        W99295   9.914   0.364  10.967
32513W        W99296  34.865   6.276   4.387
32514W        W99297  38.240  30.465  13.739
32515W        W99298  39.497  20.811  10.616
32516W        W99299  35.687  23.702   2.920
32517W        W99300  15.656   5.391  13.713
32518W        W99301  40.472  20.526   1.944
32519W        W99302   7.240  21.217   0.759
32520W        W99303   5.144  19.578  12.293
32521W        W99304  16.832  18.147   3.720
32522W        W99305  44.194  28.673   0.833
32523W        W99306  14.715   9.740  10.939
32524W        W99307  29.887   7.743  12.603
32525W        W99308  12.798  32.342   3.224
32526W        W99309  43.900  41.261   3.025
32527W        W99310  42.189   6.607   3.944
32528W        W99311  24.092  34.322  14.031
32529W        W99312   4.667  39.638   3.313
32530W        W99313  11.921  32.295  10.294
32531W        W99314  30.930  40.881  10.582
32532W        W99315  11.798  32.526  11.522
32533W        W99316  31.153  37.980   3.267
32534W        W99317  40.115  42.090  13.934
32535W        W99318  21.404  30.104  10.767
32536W        W99319  10.304  18.167  10.587
32537W        W99320  18.641  23.597   2.519
32538W        W99321   2.034  19.686   3.264
32539W        W99322   6.390  28.132   1.417
32540W        W99323  44.871  13.706   2.074
32541W        W99324   0.676  31.962   2.090
32542W        W99325  28.912  15.863  12.448
32543W        W99326   8.826  35.378  12.130
32544W        W99327  32.982  39.480  11.714
32545W        W99328   6.819  27.634   0.833
32546W        W99329   2.973  13.642   2.469
32547W        W99330   9.486  41.351   2.277
32548W        W99331  43.761  17.618   2.860
32549W        W99332  42.705  32.012   2.328
32550W        W99333  44.165  15.804  12.385
32551W        W99334  22.518   0.454   4.580
32552W        W99335  33.140  28.082  10.547
32553W        W99336  36.457  35.025   4.920
32554W        W99337  27.998  18.328   4.452
32555W        W99338  14.144  41.824  11.574
32556W        W99339  44.527  13.312  10.737
32557W        W99340  25.094  10.656  12.575
32558W        W99341   3.506  10.244   4.615
32559W        W99342   9.849   0.555   1.450
32560W        W99343   8.756   3.348   2.430
32561W        W99344  10.347  10.234  13.079
32562W        W99345  32.048  38.822  12.484
32563W        W99346  18.392  26.174   2.002
32564W        W99347  38.338  22.827   0.255
32565W        W99348  43.897  19.666  14.744
32566W        W99349  23.000   4.425   0.301
32567W        W99350  33.318  28.562   3.097
32568W        W99351  39.345  16.628  10.763
32569W        W99352   7.296  24.196   2.900
32570W        W99353  40.309  25.224  10.726
32571W        W99354  14.750  23.611  10.845
32572W        W99355  10.629  43.204   0.960
32573W        W99356  29.011   8.373   3.761
32574W        W99357  32.493  43.933  14.842
32575W        W99358  18.033  40.289   0.994
32576W        W99359  33.757   3.022   4.842
32577W        W99360  40.520  33.859  11.256
32578W        W99361  30.182  14.816  10.504
32579W        W99362  20.482  38.485   1.773
32580W        W99363  14.630  39.176   3.643
32581W        W99364  39.967  27.638   4.098
32582W        W99365  43.260  43.090   0.140
32583W        W99366  13.222  44.525   4.568
32584W        W99367  19.346  12.224  10.747
32585W        W99368  39.147  20.708   4.836
32586W        W99369  36.194  21.696   9.881
32587W        W99370  18.552  41.451  10.272
32588W        W99371  18.770   0.887   3.659
32589W        W99372   3.744  37.035   3.684
32590W        W99373  11.280  33.409   3.377
32591W        W99374  41.451  42.572   4.084
32592W        W99375  30.494  31.073  12.349
32593W        W99376  32.622   4.269   3.665
32594W        W99377  28.734   0.489   2.693
32595W        W99378  40.761   7.587  11.523
32596W        W99379  37.100  34.044  12.916
32597W        W99380  44.322  11.592  11.270
32598W        W99381   2.063  19.324  12.793
32599W        W99382  22.591  35.772  14.008
32600W        W99383  27.500  11.672   4.109
32601W        W99384   3.026  42.473  11.655
32602W        W99385  12.583  36.397  12.320
32603W        W99386  26.742  18.769  11.159
32604W        W99387   1.618  29.490   3.620
32605W        W99388  35.585  41.804  13.330
32606W        W99389  19.497  34.776  14.869
32607W        W99390  28.727   6.198   2.872
32608W        W99391  33.444  44.928  11.180
32609W        W99392  43.021  43.285   3.865
32610W        W99393   3.215  38.334   1.205
32611W        W99394  11.104  34.581  10.835
32612W        W99395  36.495  16.673   4.724
32613W        W99396  36.850  39.058   4.675
32614W        W99397  22.609  40.063  11.889
32615W        W99398   9.826  38.745   4.102
32616W        W99399  19.667  18.385   2.964
32617W        W99400  44.330  24.605  14.784
32618W        W99401  24.765  11.858   1.692
32619W        W99402  34.980  13.108   0.202
32620W        W99403  30.554  33.606   4.415
32621W        W99404  42.148  21.459  12.834
32622W        W99405   6.377  39.814  10.692
32623W        W99406  22.982  13.760   1.841
32624W        W99407  33.406  32.634   0.049
32625W        W99408  33.279   8.305  12.403
32626W        W99409  40.442   9.628   2.261
32627W        W99410  37.314  43.809  11.198
32628W        W99411  17.383   6.775  12.021
32629W        W99412  34.629  42.157  13.467
32630W        W99413  22.227  38.800  11.606
32631W        W99414  44.024   0.480  14.392
32632W        W99415   9.302   2.145   4.978
32633W        W99416  36.794   1.536  11.716
32634W        W99417   9.900  10.106  13.300
32635W        W99418   6.678   2.472   2.299
32636W        W99419  35.002  37.221  14.887
32637W        W99420  11.343  39.185   9.869
32638W        W99421  21.234  10.791   3.300
32639W        W99422   3.411  41.546  13.854
32640W        W99423  28.208   6.440  13.372
32641W        W99424  42.055  33.059  10.515
32642W        W99425  25.606  26.785  13.456
32643W        W99426  12.263  21.714   2.246
32644W        W99427  15.335  32.818  14.215
32645W        W99428  39.646  10.382   2.973
32646W        W99429  33.713  29.444   2.067
32647W        W99430  12.416  20.501   1.644
32648W        W99431  20.490  16.757  14.385
32649W        W99432  41.892  21.171   1.377
32650W        W99433  13.303  25.311  13.498
32651W        W99434  34.862   9.285   2.381
32652W        W99435  16.792  41.588   2.319
32653W        W99436  30.392  19.846   0.314
32654W        W99437  22.761  23.027   2.879
32655W        W99438  19.125   3.240   3.303
32656W        W99439  37.888  44.344   2.961
32657W        W99440   2.123   9.418  12.431
32658W        W99441   9.154   7.145  10.718
32659W        W99442   9.526   4.934  14.440
32660W        W99443  42.347  30.731   1.220
32661W        W99444   6.350   4.718  13.132
32662W        W99445  40.417  10.140   2.351
32663W        W99446  28.444  17.807   3.872
32664W        W99447  22.197  20.992   3.887
32665W        W99448  11.347  44.718  13.077
32666W        W99449   5.908  24.649  13.479
32667W        W99450  36.272   3.864  12.544
32668W        W99451  11.490  12.941   4.930
32669W        W99452   6.300  35.046   0.774
32670W        W99453   5.302  25.243  12.137
32671W        W99454  29.429  43.818   4.036
32672W        W99455  36.481  28.851  13.475
32673W        W99456  33.162  11.747   3.271
32674W        W99457   4.323  34.434   2.946
32675W        W99458  39.519  15.157  14.978
32676W        W99459   5.675  10.175  10.994
32677W        W99460  23.232   7.627  12.043
32678W        W99461  39.493  13.088  13.536
32679W        W99462   7.607  28.066   0.963
32680W        W99463  22.597   1.619  10.372
32681W        W99464  11.249  32.108  12.102
32682W        W99465   1.894  20.167   5.254
32683W        W99466  20.596  20.571  11.970
32684W        W99467  21.776  43.371   4.139
32685W        W99468  22.579  30.733   2.673
32686W        W99469  31.346  39.365   4.906
32687W        W99470   5.153  11.162  12.437
32688W        W99471  41.498   4.890  11.966
32689W        W99472  40.907  34.177   4.572
32690W        W99473  14.714  22.273   0.914
32691W        W99474  28.601  26.513   1.431
32692W        W99475  23.778  15.797   0.346
32693W        W99476  11.409   7.675   2.213
32694W        W99477  11.698   9.655   2.157
32695W        W99478  24.789  34.826  14.591
32696W        W99479  41.876  39.972   1.223
32697W        W99480   8.540  40.834  11.191
32698W        W99481  12.667  14.415   4.178
32699W        W99482   8.999  18.237  12.152
32700W        W99483  27.139  26.164   0.196
32701W        W99484  25.082  15.413   2.923
32702W        W99485  15.536  31.063  10.998
32703W        W99486  32.070  12.722  14.349
32704W        W99487  42.607  12.934   3.071
32705W        W99488  20.122  24.572  11.678
32706W        W99489  16.327  37.735   1.478
32707W        W99490  38.994  11.582  12.796
32708W        W99491  28.218  29.075   1.540
32709W        W99492   4.310  42.484   1.896
32710W        W99493  26.457  10.112  11.074
32711W        W99494  24.649  11.431  14.245
32712W        W99495  38.514  18.276  10.089
32713W        W99496  44.887  38.425   4.062
32714W        W99497  26.979  43.556   0.303
32715W        W99498  39.945  36.410  12.533
32716W        W99499  26.895   9.308  10.590
32717W        W99500  31.529  23.144   3.702
32718W        W99501   5.372  34.530   3.622
32719W        W99502   2.454   2.342  12.526
32720W        W99503  12.304  36.858   1.683
32721W        W99504  22.203  29.551   4.778
32722W        W99505  25.534  40.858  14.364
32723W        W99506  27.525  10.621  13.871
32724W        W99507  18.761   1.470   0.756
32725W        W99508  13.679  35.987  10.735
32726W        W99509   7.780  24.602  14.325
32727W        W99510  30.147  10.717  10.751
32728W        W99511   1.333  31.651  10.456
32729W        W99512  33.074  17.293  13.115
32730W        W99513  11.589  44.829  11.999
32731W        W99514  32.129  38.977   1.266
32732W        W99515  42.565  44.304  14.353
32733W        W99516  41.021   4.958  11.098
32734W        W99517   9.332   5.307  12.399
32735W        W99518  22.880  23.891   3.358
32736W        W99519  26.565  44.787   2.215
32737W        W99520   9.410   0.865  12.180
32738W        W99521  16.596   2.447  11.540
32739W        W99522  33.055  14.913   4.123
32740W        W99523   9.355   7.240   2.343
32741W        W99524  34.262  38.052   1.813
32742W        W99525  24.081  31.942   1.147
32743W        W99526  25.608  22.157  10.771
32744W        W99527  41.341  20.325  11.277
32745W        W99528  21.214  10.171   1.213
32746W        W99529  27.010   4.160   0.367
32747W        W99530   6.093  34.157   3.247
32748W        W99531  30.818  17.117  10.854
32749W        W99532  34.480   3.385  14.817
32750W        W99533  43.390  39.046   1.212
32751W        W99534  13.684  36.818  12.028
32752W        W99535  41.925  33.363   0.817
32753W        W99536   1.283  29.409  11.281
32754W        W99537  26.237  37.279  12.124
32755W        W99538  10.665  27.174   4.558
32756W        W99539   7.777  35.250  12.908
32757W        W99540   1.883  23.578  11.594
32758W        W99541  27.285  12.622  11.244
32759W        W99542  21.135  18.628   4.255
32760W        W99543  28.643  38.883   1.511
32761W        W99544  43.792  19.581  11.216
32762W        W99545   5.750  17.154   3.324
32763W        W99546  13.068  39.491   3.443
32764W        W99547  42.541  17.708  11.588
32765W        W99548  15.311  12.176  11.662
32766W        W99549  17.739  36.426   4.016
32767W        W99550   5.912   0.453   4.606
32768W        W99551  24.002   2.954   0.211
32769W        W99552  27.944   4.742   3.339
32770W        W99553  30.828  16.898   4.865
32771W        W99554  19.570   2.003  12.386
32772W        W99555   1.087   8.941  10.300
32773W        W99556  17.543  40.069   4.119
32774W        W99557  27.911  42.563   0.226
32775W        W99558  30.807  38.549  14.534
32776W        W99559   6.902  22.909   2.983
32777W        W99560  39.943  34.005   1.002
32778W        W99561  32.674  42.944   2.829
32779W        W99562  13.304  36.286   2.921
32780W        W99563  12.532  31.957   2.954
32781W        W99564  19.586  24.166   2.853
32782W        W99565  34.412  21.705   2.856
32783W        W99566  37.898  22.408   3.645
32784W        W99567  42.358   2.995  10.658
32785W        W99568  37.840   7.164  10.668
32786W        W99569  43.631  41.992  14.872
32787W        W99570   3.358  38.217   2.326
32788W        W99571  27.535  23.951  11.203
32789W        W99572  20.434  40.493  11.648
32790W        W99573   0.747  38.053   3.215
32791W        W99574  41.066  39.454   2.270
32792W        W99575  21.519  36.039   3.223
32793W        W99576   0.509  17.722  14.910
32794W        W99577  26.709  42.301   0.652
32795W        W99578  16.588  31.434   3.692
32796W        W99579  10.074  19.088  11.125
32797W        W99580  44.979   5.917   0.940
32798W        W99581  21.482   2.941  13.407
32799W        W99582  27.576  37.695  11.176
32800W        W99583   3.236  33.083   1.661
32801W        W99584  28.635  13.841  12.090
32802W        W99585  41.007  28.131  14.799
32803W        W99586  42.773  26.522   3.086
32804W        W99587  44.953  40.453  12.633
32805W        W99588  15.515   5.143   0.408
32806W        W99589  36.916  16.683   1.351
32807W        W99590  33.349  11.552   5.226
32808W        W99591  24.426  27.099  12.789
32809W        W99592  16.443  29.084   4.019
32810W        W99593   1.026  15.000   0.049
32811W        W99594  23.415  42.439   1.199
32812W        W99595  41.136  40.562   1.052
32813W        W99596   6.943  42.313   0.717
32814W        W99597  13.608  18.514  11.436
32815W        W99598  19.156  33.681  13.208
32816W        W99599  33.633   6.746   3.507
32817W        W99600  24.703  34.568   2.625
32818W        W99601  18.710   2.844   1.167
32819W        W99602  44.803  31.090  11.357
32820W        W99603  23.617  16.245   3.216
32821W        W99604  41.942  18.535   0.369
32822W        W99605  24.100  34.635   3.642
32823W        W99606  28.510   7.787   3.380
32824W        W99607  32.592  27.698   1.370
32825W        W99608  19.629   8.454  11.556
32826W        W99609  17.544   1.426  14.876
32827W        W99610   8.256  18.482   0.075
32828W        W99611  24.982  25.630  11.902
32829W        W99612  15.341  30.615   3.710
32830W        W99613  38.341  42.594   4.230
32831W        W99614  37.737  31.672  14.052
32832W        W99615  18.480  27.984   3.562
32833W        W99616  24.524  17.026   3.160
32834W        W99617  11.316  44.315  11.866
32835W        W99618   0.816  13.250   4.212
32836W        W99619   5.955  39.374   0.764
32837W        W99620  11.131  22.215   1.829
32838W        W99621  20.245  22.929  14.421
32839W        W99622   6.982   2.085   4.787
32840W        W99623  42.127  39.920  13.367
32841W        W99624  24.602   8.279  11.405
32842W        W99625  37.991  23.611  10.714
32843W        W99626  33.121  16.124  11.480
32844W        W99627  39.272  34.730   2.708
32845W        W99628   9.838   9.662   1.258
32846W        W99629  44.100  11.021  13.447
32847W        W99630  28.521  17.091   4.859
32848W        W99631  22.199  40.128   1.781
32849W        W99632  33.449  11.170   4.265
32850W        W99633  11.371  13.930  13.319
32851W        W99634  34.377   6.327   1.784
32852W        W99635  43.782  18.803  14.348
32853W        W99636  36.974  32.898   2.522
32854W        W99637   8.186  22.300   4.206
32855W        W99638  19.721  42.296  13.398
32856W        W99639   7.405  38.272  11.150
32857W        W99640   0.220  23.078   1.526
32858W        W99641  17.607   9.601   2.670
32859W        W99642  41.548  26.584  13.854
32860W        W99643   4.973  31.710   3.228
32861W        W99644  38.967  20.664   0.254
32862W        W99645  16.444  21.786  14.581
32863W        W99646   3.802  14.802   0.285
32864W        W99647  38.608  33.897  14.790
32865W        W99648  36.546   0.414  13.741
32866W        W99649  18.329  13.500   4.619
32867W        W99650  15.708  17.299   3.557
32868W        W99651  39.253  34.048  10.997
32869W        W99652  41.374  26.437  13.393
32870W        W99653  12.550  12.671  11.392
32871W        W99654  33.644  22.171  13.024
32872W        W99655   4.162   5.095   3.960
32873W        W99656  31.900  34.589  12.589
32874W        W99657  43.593  12.430   1.934
32875W        W99658  28.196  28.244   0.786
32876W        W99659  10.139  34.819   1.805
32877W        W99660  14.803  26.526  11.309
32878W        W99661   5.284  35.838  10.646
32879W        W99662  17.081   3.805   0.743
32880W        W99663   4.671  15.839   4.840
32881W        W99664  30.909  43.415  12.931
32882W        W99665  13.181  11.868   3.093
32883W        W99666   8.470  20.502  12.493
32884W        W99667   5.093   5.847   1.385
32885W        W99668  43.531  42.867  11.721
32886W        W99669  12.308  17.915  14.489
32887W        W99670  33.587  17.431  14.742
32888W        W99671  28.124   8.836  14.328
32889W        W99672   7.293  44.027  13.783
32890W        W99673  14.787  32.863  13.906
32891W        W99674  19.649  42.900   3.518
32892W        W99675   6.748  27.688  12.808
32893W        W99676  10.327  32.250  14.958
32894W        W99677  19.174   1.225   1.864
32895W        W99678   5.458  30.185   0.670
32896W        W99679  36.930  27.349   0.396
32897W        W99680  29.534  16.166   3.851
32898W        W99681  41.155  38.004  12.531
32899W        W99682  28.662  42.334  11.954
32900W        W99683  35.575   1.948  11.672
32901W        W99684  25.677  20.440  13.403
32902W        W99685  30.455  28.518  13.600
32903W        W99686  31.090  33.077  12.096
32904W        W99687  22.728  16.612  13.510
32905W        W99688   2.312  27.963   3.745
32906W        W99689  34.934  19.868   0.379
32907W        W99690  25.410  43.091  13.882
32908W        W99691  10.875   0.306  12.874
32909W        W99692  13.351  33.249   4.908
32910W        W99693  37.921  42.658   3.098
32911W        W99694  44.555   5.547   1.338
32912W        W99695   9.320  13.394   3.146
32913W        W99696  18.659  14.701  14.328
32914W        W99697  38.949  13.111   4.591
32915W        W99698  37.940  14.250   1.409
32916W        W99699  28.860   4.313  13.910
32917W        W99700  21.716  34.365  12.925
32918W        W99701   6.634  29.977   4.679
32919W        W99702   1.898  12.581   1.965
32920W        W99703  39.256  33.295   2.320
32921W        W99704   2.616  11.023   2.394
32922W        W99705   1.188  23.167   0.191
32923W        W99706   8.272  28.856   3.198
32924W        W99707  20.023  39.010  10.554
32925W        W99708  34.881  40.545  12.557
32926W        W99709  39.845  14.728  12.037
32927W        W99710  24.922   2.236  13.398
32928W        W99711  33.366  18.225  12.073
32929W        W99712  34.387   3.694  11.916
32930W        W99713  29.202  35.173   3.238
32931W        W99714  38.440   7.999   1.697
32932W        W99715  17.619   6.607  12.452
32933W        W99716  35.603  22.517   3.518
32934W        W99717  20.952  21.555  11.040
32935W        W99718   2.685  19.870  13.357
32936W        W99719  33.368  43.466  12.883
32937W        W99720   9.294  13.074  13.069
32938W        W99721  27.895  28.361   2.000
32939W        W99722  32.661  43.035  11.013
32940W        W99723  42.925  11.329  10.560
32941W        W99724  36.514   2.418  12.944
32942W        W99725   5.025  32.004  12.021
32943W        W99726  14.093   7.700   1.754
32944W        W99727  24.486  31.288  14.069
32945W        W99728   3.891  40.271  11.552
32946W        W99729  25.093  24.075   3.727
32947W        W99730  18.678   0.701  14.362
32948W        W99731   4.864  38.626  12.059
32949W        W99732  10.980  17.541   4.055
32950W        W99733  16.288  12.378  12.924
32951W        W99734  37.759  19.606   4.729
32952W        W99735  21.420  21.587   0.431
32953W        W99736  27.372  24.907   0.413
32954W        W99737   0.013  25.697   3.565
32955W        W99738   1.726  28.185   2.838
32956W        W99739   5.223  35.443   3.350
32957W        W99740  16.733   4.487   1.890
32958W        W99741  44.913  37.845   2.773
32959W        W99742  25.366  40.043  12.171
32960W        W99743  29.694   2.356   0.014
32961W        W99744   1.321  25.019   2.273
32962W        W99745  30.661  20.691   4.493
32963W        W99746  23.703  10.793  14.755
32964W        W99747   8.509   0.924   4.770
32965W        W99748  11.764  31.908  12.167
32966W        W99749  14.888  17.898  13.952
32967W        W99750  30.809  24.163  13.212
32968W        W99751  21.909  30.096  10.666
32969W        W99752  16.915  35.887  10.811
32970W        W99753  26.955  32.325  14.976
32971W        W99754   1.738  37.511   1.978
32972W        W99755  28.208  31.084   0.761
32973W        W99756  11.396  41.199   0.238
32974W        W99757   4.902  15.729  11.226
32975W        W99758  37.484  14.275  11.884
32976W        W99759  23.057  23.867  12.144
32977W        W99760  30.616  35.426   3.878
32978W        W99761  40.094  12.852   3.728
32979W        W99762  22.707   5.011  13.525
32980W        W99763   2.547   7.753   2.984
32981W        W99764   6.587  13.221  11.732
32982W        W99765  18.283  34.061   2.746
32983W        W99766   1.370  22.361  12.463
32984W        W99767  26.083  14.152  11.974
32985W        W99768  23.031  28.601  12.492
32986W        W99769  20.570  14.256   4.122
32987W        W99770  39.881   8.885  13.590
32988W        W99771  33.612  43.899  14.773
32989W        W99772  21.351  27.059  13.467
32990W        W99773  42.695  42.029   4.027
32991W        W99774  35.983  40.847   1.234
32992W        W99775  40.286  26.667   0.325
32993W        W99776  31.307  33.673  12.908
32994W        W99777  27.453  17.104   2.740
32995W        W99778  11.174  44.990  14.470
32996W        W99779  22.789  37.548   0.798
32997W        W99780  40.290  29.019  11.156
32998W        W99781  25.034  18.477  14.014
32999W        W99782   7.970  43.854   4.579
33000W        W99783  31.947   4.808  10.696
33001W        W99784  34.589   9.723   1.716
33002W        W99785  38.827  34.414   1.333
33003W        W99786  44.901   3.982   2.117
33004W        W99787  42.317   4.055   1.292
33005W        W99788   7.863  42.892   2.656
33006W        W99789   1.849  18.266   4.931
33007W        W99790  15.891  13.115   3.061
33008W        W99791   9.641   8.344   1.467
33009W        W99792  16.639  34.289  10.184
33010W        W99793   4.226  25.220  10.430
33011W        W99794  44.972  12.653  13.396
33012W        W99795   2.751  20.161   2.099
33013W        W99796  38.425  42.769  13.523
33014W        W99797   7.172  26.646   3.613
33015W        W99798  30.894  19.142   0.088
33016W        W99799  15.843  40.169   0.549
33017W        W99800   8.668  42.333  10.654
33018W        W99801  27.049   0.741  11.714
33019W        W99802  43.034  23.079  13.413
33020W        W99803   4.299  15.390  13.338
33021W        W99804  33.413  25.239   2.490
33022W        W99805   8.524   0.517  13.055
33023W        W99806   7.723  17.411   2.712
33024W        W99807  26.326  16.476  14.770
33025W        W99808  23.392  14.355   0.138
33026W        W99809  42.831  11.408  12.868
33027W        W99810   5.639  21.425  11.577
33028W        W99811  32.256  35.414  12.820
33029W        W99812   8.307  27.218  11.931
33030W        W99813  18.553   8.155   2.496
33031W        W99814  21.246  26.562  12.418
33032W        W99815   9.789  34.135  11.102
33033W        W99816  35.921   0.466   0.285
33034W        W99817   6.011  33.916  12.884
33035W        W99818  44.241  19.323  11.154
33036W        W99819   3.422  31.450  12.505
33037W        W99820  34.097  31.832  14.110
33038W        W99821  44.512   9.254  13.962
33039W        W99822  43.216  11.606  12.520
33040W        W99823   4.915  24.938  12.021
33041W        W99824  44.249   8.143   0.725
33042W        W99825  44.151  26.643   1.954
33043W        W99826  18.186  23.524   3.552
33044W        W99827   9.195  11.240  13.527
33045W        W99828  16.231  12.792  11.140
33046W        W99829  11.264  14.368   4.063
33047W        W99830  26.728   3.930  11.629
33048W        W99831  39.505  24.087   0.830
33049W        W99832  14.735  32.680   0.278
33050W        W99833   0.910   2.761   0.728
33051W        W99834   9.339  15.774   4.438
33052W        W99835   3.517   0.706  10.751
33053W        W99836  37.563  25.698  13.679
33054W        W99837  11.246  25.584   4.711
33055W        W99838  42.330  41.110  11.191
33056W        W99839  28.444  16.711   3.631
33057W        W99840  34.857  14.038   4.100
33058W        W99841  39.299  28.042   4.613
33059W        W99842   8.658   7.714  10.121
33060W        W99843  39.399   9.291   3.794
33061W        W99844  28.986  39.054   3.012
33062W        W99845   9.104   0.024  10.921
33063W        W99846  17.263  17.733   2.969
33064W        W99847   8.979  33.286   1.912
33065W        W99848   0.198  20.696  14.840
33066W        W99849  23.106  16.180  11.760
33067W        W99850  13.210  15.708   4.142
33068W        W99851   3.998  20.506   1.879
33069W        W99852  29.593  25.023  12.089
33070W        W99853  43.475  33.022  12.189
33071W        W99854  31.137  20.725   3.752
33072W        W99855  27.070  17.954   1.011
33073W        W99856   9.037  16.904  14.822
33074W        W99857  35.553  19.727   0.278
33075W        W99858  25.889  38.378  13.229
33076W        W99859   8.691  35.605  11.382
33077W        W99860  36.346  21.063   1.262
33078W        W99861  34.569  11.599  13.548
33079W        W99862  43.384  24.961   4.198
33080W        W99863  23.065  22.144  13.408
33081W        W99864  40.239  10.920   0.903
33082W        W99865  25.596  25.003   3.392
33083W        W99866  13.667   5.276  11.217
33084W        W99867   0.819  34.414   0.184
33085W        W99868  18.281  14.610  11.084
33086W        W99869  21.279   4.593  11.048
33087W        W99870   7.255   2.016   3.643
33088W        W99871  38.263  32.360  11.501
33089W        W99872  39.854  32.371  13.800
33090W        W99873  37.981  41.813  11.470
33091W        W99874  10.718   2.625   2.047
33092W        W99875   0.289  27.729   1.156
33093W        W99876  20.127  14.661  13.794
33094W        W99877  10.184  39.747  12.463
33095W        W99878  32.035  20.782   1.255
33096W        W99879  21.467  12.673  12.683
33097W        W99880  40.502   7.294  12.427
33098W        W99881   3.731  35.918  12.751
33099W        W99882  38.952  27.541  12.127
33100W        W99883  13.945  38.725   5.069
33101W        W99884  43.349  18.568   1.226
33102W        W99885  20.453   0.382   0.246
33103W        W99886  11.401  43.945  13.452
33104W        W99887  44.585   2.800   3.180
33105W        W99888   7.034   8.693   1.912
33106W        W99889  28.984  33.639   3.190
33107W        W99890  22.197  25.611  12.664
33108W        W99891   5.654  41.044  12.855
33109W        W99892  29.644  13.677  11.723
33110W        W99893  12.669  43.584  13.494
33111W        W99894  35.976   2.724  11.266
33112W        W99895  29.007  24.150   0.650
33113W        W99896  24.305  30.970   4.613
33114W        W99897  37.085  44.829   4.954
33115W        W99898  15.015  22.648  10.971
33116W        W99899  24.973  16.136   3.739
33117W        W99900   4.217  34.172  13.439
33118W        W99901  18.144  11.812  10.759
33119W        W99902  16.773  12.052   4.148
33120W        W99903  27.375  38.514   2.388
33121W        W99904  16.379  11.259  11.492
33122W        W99905  12.627  33.588   4.603
33123W        W99906  35.724  10.842   3.046
33124W        W99907   8.697  41.460   0.361
33125W        W99908   6.648   9.684  14.482
33126W        W99909   7.079   0.678  14.941
33127W        W99910  24.097  16.851   2.954
33128W        W99911   6.172  32.088   4.910
33129W        W99912  27.533   8.273   4.758
33130W        W99913   4.506   2.785   0.860
33131W        W99914  44.341   5.240   4.058
33132W        W99915  24.292  40.516  11.275
33133W        W99916   1.752   1.028   4.556
33134W        W99917  11.886  42.738  14.859
33135W        W99918  30.938  39.970   2.316
33136W        W99919   6.152  36.470   1.703
33137W        W99920  36.650  18.544  12.814
33138W        W99921  35.281  43.893   0.353
33139W        W99922  43.581  26.572   1.901
33140W        W99923  40.521  44.956   4.517
33141W        W99924  30.175  35.122   4.326
33142W        W99925   7.400  17.386   1.251
33143W        W99926  14.305  18.687  11.579
33144W        W99927  20.288   2.254  13.437
33145W        W99928  11.029  36.569  13.438
33146W        W99929  20.200   4.458  13.094
33147W        W99930  24.864  19.311   2.279
33148W        W99931  11.897  35.626   2.623
33149W        W99932   8.214  33.574  13.404
33150W        W99933   9.410   7.470   3.908
33151W        W99934  33.951  33.433   3.275
33152W        W99935  24.240  42.137  10.306
33153W        W99936  26.000   8.259   4.325
33154W        W99937   7.245  22.535   3.129
33155W        W99938  18.739   0.247   0.292
33156W        W99939  15.315  13.737  12.009
33157W        W99940  40.573  16.720  13.804
33158W        W99941  10.712  40.344  14.414
33159W        W99942   7.465   6.757   4.811
33160W        W99943   5.675  22.343   1.217
33161W        W99944   8.066   8.735   5.092
33162W        W99945   4.929   5.152  11.704
33163W        W99946  33.590  24.956   4.874
33164W        W99947  30.115  33.890  11.705
33165W        W99948   6.566  17.169  11.578
33166W        W99949  36.473   4.310   3.105
33167W        W99950  13.351   7.937  10.199
33168W        W99951  19.693  39.649   2.782
33169W        W99952  36.954  15.340   2.818
33170W        W99953  43.989   0.489   3.877
33171W        W99954   4.439  29.549   3.180
33172W        W99955  43.817   1.460   2.075
33173W        W99956  33.892  37.501  14.247
33174W        W99957   3.492  24.361   0.364
33175W        W99958  16.880   8.119   3.882
33176W        W99959   0.855  17.009  11.969
33177W        W99960  34.791  20.128  13.330
33178W        W99961  37.094  23.807  14.779
33179W        W99962   3.837  42.849   3.182
33180W        W99963   1.264  33.634  10.446
33181W        W99964  38.982  43.985  12.872
33182W        W99965  35.141  17.221  11.275
33183W        W99966  21.325  21.468   4.154
33184W        W99967  37.444  39.388  12.926
33185W        W99968  31.972  32.544   0.520
33186W        W99969  43.861   8.142   3.384
33187W        W99970  27.998  28.120  14.461
33188W        W99971  23.088  22.702   0.365
33189W        W99972  29.181  28.364   0.763
33190W        W99973  38.885  32.055  11.114
33191W        W99974  30.163   3.651   3.986
33192W        W99975  36.051   9.038  12.904
33193W        W99976  32.945   8.556   3.634
33194W        W99977  13.802  17.801   1.186
33195W        W99978  34.818  31.401  10.407
33196W        W99979  14.550   4.319  10.958
33197W        W99980  13.270  23.915   4.138
33198W        W99981  28.479  44.910  12.223
33199W        W99982  32.507  40.046  12.401
33200W        W99983  16.358   3.367   4.202
33201W        W99984  29.576  13.577  14.434
33202W        W99985  23.238  30.630  11.771
33203W        W99986  38.922  20.459   4.425
33204W        W99987  13.097   2.548  12.849
33205W        W99988  26.489  10.833  12.912
33206W        W99989  42.241  19.131  13.442
33207W        W99990  11.570  29.794   0.555
33208W        W99991  16.901   3.219   0.412
33209W        W99992  16.272  43.762  11.073
33210W        W99993  26.293   1.171   4.631
33211W        W99994  44.021  33.640  12.829
33212W        W99995  37.296  21.033  13.433
33213W        W99996  10.766  10.882   1.858
33214W        W99997  40.509   9.403   1.312
33215W        W99998   0.949  37.888   3.658
33216W        W99999  30.514  39.379  10.750
33217W        W    0  36.918  40.398   2.238
33218W        W    1  20.192  40.215  12.933
33219W        W    2   9.236  19.846  11.136
33220W        W    3  22.372  32.880   1.666
33221W        W    4  43.477  20.418   1.356
33222W        W    5  29.853  27.038   0.929
33223W        W    6  31.407  41.047   0.841
33224W        W    7   6.232  14.166  12.059
33225W        W    8  30.443  34.893   1.764
33226W        W    9   9.184  32.445  10.684
33227W        W   10  11.699  12.313   1.356
33228W        W   11  27.557  36.455   2.566
33229W        W   12  18.615  21.960   3.175
33230W        W   13  34.387  39.474   4.951
33231W        W   14  25.987  23.980  13.335
33232W        W   15  37.761  38.620  11.530
33233W        W   16  40.497   5.182   0.498
33234W        W   17  43.200  27.105   2.480
33235W        W   18  11.751   2.968   0.738
33236W        W   19  37.287   7.288   2.035
33237W        W   20  40.384   8.050   2.167
33238W        W   21  26.917  14.379   0.392
33239W        W   22  13.058  17.092   1.895
33240W        W   23  24.844   7.789   4.071
33241W        W   24  44.409  40.989  12.843
33242W        W   25  29.176  19.336  14.799
33243W        W   26  24.940  14.833  11.585
33244W        W   27  22.394  19.119   3.769
33245W        W   28  19.577  33.043  14.067
33246W        W   29   7.350  38.048  14.647
33247W        W   30   1.956   5.640   4.395
33248W        W   31  41.803  41.329   4.085
33249W        W   32   8.381  24.005  14.555
33250W        W   33  27.430   2.754   0.917
33251W        W   34  16.770  25.188   0.143
33252W        W   35  13.674  43.966  11.939
33253W        W   36  41.600  28.345   4.423
33254W        W   37  22.300  44.735   2.765
33255W        W   38  21.286  39.992  11.670
33256W        W   39  35.946  42.719   2.499
33257W        W   40  14.370  32.310   4.184
33258W        W   41  17.874   7.794   2.691
33259W        W   42   7.166  29.996  10.502
33260W        W   43  43.778  14.663  14.338
33261W        W   44  17.214  10.760  12.204
33262W        W   45   5.658   8.189  11.712
33263W        W   46   2.956  13.360  11.459
33264W        W   47  17.592  18.833   1.351
33265W        W   48   5.400  40.365  14.339
33266W        W   49  33.027  22.656   2.779
33267W        W   50  26.207   5.703  14.404
33268W        W   51  14.824   8.488  14.963
33269W        W   52  26.797  39.347  10.274
33270W        W   53  25.995   2.465  10.559
33271W        W   54  12.796  28.151  12.335
33272W        W   55  10.715  22.489   3.653
33273W        W   56  29.886  19.548   2.648
33274W        W   57  17.804  44.620   2.293
33275W        W   58  16.254  39.452  10.963
33276W        W   59  33.073  33.343  12.105
33277W        W   60  12.062  13.132   0.990
33278W        W   61   3.889  40.310   3.128
33279W        W   62   3.000   2.173   5.004
33280W        W   63  14.595  21.055  12.578
33281W        W   64  43.355  44.817   0.243
33282W        W   65   0.196  29.175   4.671
33283W        W   66  39.469  16.718   4.202
33284W        W   67  10.842  28.575   4.513
33285W        W   68  44.768  36.468  14.227
33286W        W   69  19.160  25.225  12.170
33287W        W   70  38.624   1.955  13.561
33288W        W   71  39.474   8.675   3.214
33289W        W   72   5.297  36.457  13.380
33290W        W   73  24.587  21.198  13.859
33291W        W   74   5.912  37.213  13.355
33292W        W   75  29.077  11.336  11.397
33293W        W   76  24.353   9.810  12.774
33294W        W   77  17.317   4.615   3.621
33295W        W   78  32.523  40.071   0.957
33296W        W   79  22.403   7.402  11.138
33297W        W   80  40.735  20.927  14.726
33298W        W   81  35.022  18.898  14.382
33299W        W   82  37.044  10.824   3.692
33300W        W   83  33.541  31.548   3.350
33301W        W   84  36.352   0.985   0.228
33302W        W   85   3.992   6.744  13.983
33303W        W   86  19.592  15.741   0.282
33304W        W   87  43.003  43.932   1.669
33305W        W   88  44.906  43.279   0.188
33306W        W   89  15.278   2.993  13.614
33307W        W   90   5.641  33.954   4.163
33308W        W   91  28.573  43.990   3.116
33309W        W   92  26.174   4.329   1.335
33310W        W   93  38.064   2.697   0.911
33311W        W   94  12.160  23.363  11.801
33312W        W   95   2.352  40.018   3.572
33313W        W   96   1.197   3.217  10.679
33314W        W   97   8.188  15.983  13.843
33315W        W   98  23.985   9.521  14.007
33316W        W   99  31.956  21.575  14.504
33317W        W  100  44.590   5.482  12.795
33318W        W  101  33.009  33.217  13.063
33319W        W  102  26.916  41.344   1.727
33320W        W  103   3.155  29.626   4.572
33321W        W  104  30.645   4.293  14.384
33322W        W  105  21.535   7.400   2.265
33323W        W  106  34.411  30.578   2.928
33324W        W  107  22.667  29.369   1.895
33325W        W  108  20.964  42.012   4.506
33326W        W  109  10.208  35.788  13.100
33327W        W  110  42.775  36.074   2.836
33328W        W  111   4.706  23.938   1.378
33329W        W  112  16.511  40.558   3.235
33330W        W  113  38.853  16.965   2.621
33331W        W  114   2.166  31.952  12.296
33332W        W  115  31.905   4.404   1.527
33333W        W  116  41.919  13.063   3.947
33334W        W  117  22.726  30.938   1.721
33335W        W  118  16.553  43.478  13.395
33336W        W  119  29.540   0.422  12.398
33337W        W  120  16.141  41.236  12.907
33338W        W  121  33.115  16.186   3.193
33339W        W  122  37.867  43.020  10.883
33340W        W  123  19.653  28.584  10.374
33341W        W  124   6.158   6.844  13.433
33342W        W  125  25.886   6.899  14.938
33343W        W  126  43.730  23.041   0.646
33344W        W  127  18.328   6.408   2.627
33345W        W  128  17.617  21.907   2.881
33346W        W  129  12.689  26.864  13.525
33347W        W  130   0.382  39.087  14.395
33348W        W  131  29.582  14.201  13.451
33349W        W  132  10.852  28.563  14.206
33350W        W  133   1.493  23.229  11.129
33351W        W  134  22.250  31.821  13.771
33352W        W  135   5.838  29.962   4.053
33353W        W  136  26.399  32.712   2.296
33354W        W  137   4.403   4.403   3.503
33355W        W  138  21.127  12.184   3.588
33356W        W  139  29.913  28.003  13.058
33357W        W  140   8.127  16.720   3.987
33358W        W  141  23.116  33.229   3.653
33359W        W  142   5.949  15.350  11.607
33360W        W  143   4.364   8.297   1.133
33361W        W  144  10.213  20.316   3.261
33362W        W  145  25.188  36.324   3.826
33363W        W  146  26.719  34.926  11.332
33364W        W  147  21.770  23.599  13.481
33365W        W  148  43.935  26.488  11.707
33366W        W  149  40.597  35.429  10.776
33367W        W  150  31.153   4.409  14.341
33368W        W  151  15.610   7.577   3.685
33369W        W  152   4.447  26.145   3.386
33370W        W  153  16.795  32.941   2.924
33371W        W  154  23.747  33.365  11.538
33372W        W  155   6.846  17.762   3.690
33373W        W  156  41.007  37.292   3.698
33374W        W  157   4.378  33.803   4.678
33375W        W  158  13.241  14.293   4.466
33376W        W  159  29.493  35.817   4.757
33377W        W  160  29.592  34.004  13.387
33378W        W  161  15.818  19.786  12.562
33379W        W  162  36.166  38.617  12.868
33380W        W  163  16.196  30.149   0.590
33381W        W  164   3.479  30.478   4.130
33382W        W  165  15.547  43.942   1.085
33383W        W  166  29.808  40.545   3.663
33384W        W  167   7.989  20.054  10.719
33385W        W  168   2.422  37.289   0.795
33386W        W  169  35.887  23.164  10.587
33387W        W  170  17.192  11.240  13.046
33388W        W  171  25.172   9.484   2.248
33389W        W  172  37.882  34.990  11.706
33390W        W  173  32.659  31.704   0.065
33391W        W  174  40.217  14.044  13.080
33392W        W  175  35.615  24.509   1.408
33393W        W  176  26.203  11.910   1.218
33394W        W  177  27.287  12.997  10.823
33395W        W  178  26.132  41.136   4.212
33396W        W  179  20.040  38.866   2.841
33397W        W  180  18.609  43.954   3.751
33398W        W  181  37.332  19.733   1.395
33399W        W  182  29.479  24.104  12.156
33400W        W  183  28.724  27.462  14.294
33401W        W  184  22.429   3.793  10.785
33402W        W  185   2.083   2.308   4.766
33403W        W  186  27.704  10.467   3.182
33404W        W  187  35.885  32.080  13.480
33405W        W  188  32.317  38.881   1.785
33406W        W  189  16.015  36.021  14.108
33407W        W  190  28.703  13.278  12.430
33408W        W  191  31.117   7.225   0.712
33409W        W  192  34.844  38.894  13.700
33410W        W  193  11.016  37.435   4.678
33411W        W  194  35.921  10.074  13.020
33412W        W  195   3.210  17.313   1.693
33413W        W  196  38.583  18.147   0.308
33414W        W  197  13.967  15.139   4.268
33415W        W  198  18.588   8.222  11.499
33416W        W  199   3.376  31.893  10.698
33417W        W  200  11.264   4.528  14.887
33418W        W  201  13.716  42.315  12.475
33419W        W  202   3.712  43.575   0.297
33420W        W  203  34.859   4.758   4.621
33421W        W  204  39.298  27.047  11.526
33422W        W  205  21.730  42.964   3.795
33423W        W  206  22.156  13.096   2.825
33424W        W  207  36.626  44.165  14.897
33425W        W  208  14.505  35.961  13.473
33426W        W  209  27.907  24.158   1.462
33427W        W  210  31.392  13.662  11.163
33428W        W  211  43.968  28.146   4.237
33429W        W  212  35.409  40.272  13.744
33430W        W  213  43.523   9.766   4.122
33431W        W  214  13.293  11.935  12.957
33432W        W  215   2.503  22.662  13.935
33433W        W  216  13.293  25.013  13.043
33434W        W  217   5.734   7.986  13.445
33435W        W  218   7.796  13.383   4.238
33436W        W  219  18.714  30.410  10.116
33437W        W  220  23.634   6.365  14.328
33438W        W  221  39.626  21.044   1.743
33439W        W  222  40.021  30.884   1.300
33440W        W  223  43.269   9.326  13.023
33441W        W  224  13.206  27.503   3.732
33442W        W  225  31.102  15.699  11.912
33443W        W  226  20.222   6.516  14.267
33444W        W  227  19.274  32.034  10.880
33445W        W  228  29.186   0.214   4.098
33446W        W  229   9.769  38.492   2.778
33447W        W  230   2.952   3.882   0.744
33448W        W  231  21.073  27.651  13.352
33449W        W  232   8.787  39.819   0.235
33450W        W  233  20.323  20.256   0.310
33451W        W  234  34.468  21.189   3.741
33452W        W  235   3.541  10.844  10.557
33453W        W  236   0.180  40.152   0.311
33454W        W  237   8.730   0.959   1.186
33455W        W  238   5.662  35.925   4.081
33456W        W  239   3.071  42.050  11.343
33457W        W  240   3.893  26.341   0.110
33458W        W  241  34.547  35.899  14.973
33459W        W  242  24.043  23.086   1.337
33460W        W  243  36.350   9.484  13.041
33461W        W  244  39.698   2.237   2.843
33462W        W  245  24.545  23.664  10.727
33463W        W  246  44.985  37.068  12.010
33464W        W  247  31.487  20.014  13.879
33465W        W  248  31.937   3.706  10.907
33466W        W  249  28.672   0.313   3.164
33467W        W  250  23.652  35.997   4.049
33468W        W  251   6.806   4.569   4.618
33469W        W  252  28.775  39.862   2.223
33470W        W  253  42.778  20.493   4.159
33471W        W  254  20.728   6.992  11.288
33472W        W  255   9.113  32.498  12.823
33473W        W  256  28.558   0.363  14.779
33474W        W  257  15.039  27.059   3.609
33475W        W  258  38.276   1.873   1.152
33476W        W  259   1.383   9.049  11.110
33477W        W  260  28.453  29.632   4.559
33478W        W  261  10.018  11.791  13.822
33479W        W  262  28.932   8.511   4.700
33480W        W  263  38.512  38.025  11.406
33481W        W  264  25.578   2.195   0.019
33482W        W  265  44.866   1.646  14.138
33483W        W  266   1.506  44.823  14.846
33484W        W  267  14.736  32.828  12.612
33485W        W  268   1.827  21.263   1.092
33486W        W  269  23.425  44.826   1.294
33487W        W  270  11.299  26.724   2.019
33488W        W  271   6.635   6.824   0.763
33489W        W  272  26.144  10.393  13.276
33490W        W  273  15.644  35.595   3.700
33491W        W  274   5.396  37.879   3.338
33492W        W  275  30.014   8.874   2.370
33493W        W  276   4.754  11.040   1.867
33494W        W  277  13.609   9.245   2.317
33495W        W  278  35.974   0.254  14.397
33496W        W  279  33.436  33.679   0.991
33497W        W  280  37.477  14.342   3.281
33498W        W  281  43.725  37.984  13.133
33499W        W  282  15.913  32.852  13.656
33500W        W  283  28.080   2.285  13.025
33501W        W  284  14.363  18.466   0.885
33502W        W  285  40.006  29.710   0.367
33503W        W  286  23.163  44.293  13.087
33504W        W  287  29.525  21.682  12.417
33505W        W  288  22.510  14.010   1.734
33506W        W  289  10.659  31.906   3.707
33507W        W  290  37.806  11.332  12.040
33508W        W  291  22.926  20.498  11.994
33509W        W  292  36.659  40.175  13.899
33510W        W  293   3.826  12.804   4.730
33511W        W  294  41.586  33.115   1.377
33512W        W  295  32.683  25.071  13.800
33513W        W  296  21.163  39.369  14.454
33514W        W  297  18.711  42.546  12.833
33515W        W  298  44.441  20.027  11.648
33516W        W  299  35.080  23.504  12.837
33517W        W  300  20.825  35.155  13.677
33518W        W  301  22.045  44.839  12.570
33519W        W  302  28.910  30.644   1.398
33520W        W  303  43.911   7.230   1.879
33521W        W  304  22.388  27.837   2.149
33522W        W  305  36.755  30.102  11.578
33523W        W  306  18.865  18.174  13.772
33524W        W  307  41.851   6.477   0.346
33525W        W  308  40.049  15.261   4.915
33526W        W  309  42.526  11.751   1.949
33527W        W  310  34.368  26.711   4.231
33528W        W  311  41.193  28.230  11.206
33529W        W  312  17.187  15.717   1.845
33530W        W  313  41.999  41.866  12.425
33531W        W  314   2.329  30.879  13.054
33532W        W  315  14.670  41.470  13.396
33533W        W  316  15.842  30.972  14.640
33534W        W  317  34.860  20.198   2.205
33535W        W  318  12.854  40.121   2.503
33536W        W  319   4.894  13.595   0.182
33537W        W  320  17.664  44.264  13.836
33538W        W  321   7.170  32.903  11.207
33539W        W  322  17.617  25.015  11.548
33540W        W  323  33.378  44.877   0.189
33541W        W  324  44.197  30.404   4.785
33542W        W  325  17.794  42.572   2.289
33543W        W  326  42.395   1.430   1.221
33544W        W  327  29.819  27.568  12.574
33545W        W  328   7.850  40.984   4.829
33546W        W  329  41.823  26.365  12.105
33547W        W  330  40.876   3.211  12.087
33548W        W  331  26.451  31.936  11.628
33549W        W  332  36.012  13.316   0.025
33550W        W  333  10.410  30.133  12.976
33551W        W  334  38.371  43.016  11.173
33552W        W  335  11.172  36.669   3.591
33553W        W  336  18.682  20.078  12.612
33554W        W  337  35.366   3.811  12.298
33555W        W  338   9.454  36.194   4.871
33556W        W  339  27.152   5.492   3.095
33557W        W  340  18.822  41.758  13.548
33558W        W  341  19.714  24.271   1.684
33559W        W  342  36.366  15.614  13.955
33560W        W  343  32.609  13.107  14.457
33561W        W  344  22.506   5.314   2.450
33562W        W  345  18.853  13.225  14.948
33563W        W  346  25.178  43.113  11.744
33564W        W  347   9.234  21.399  14.515
33565W        W  348  24.592   6.850   1.444
33566W        W  349  35.657  13.271   3.757
33567W        W  350  37.758  41.084  11.087
33568W        W  351  32.946  23.444  13.468
33569W        W  352  22.220  32.910   4.096
33570W        W  353  22.763  42.776   3.651
33571W        W  354  37.261   0.594  12.626
33572W        W  355  43.965  33.843  13.538
33573W        W  356  40.087  35.014   4.166
33574W        W  357  15.167   4.035   4.036
33575W        W  358   0.504   6.370   4.198
33576W        W  359  43.482   0.424  11.704
33577W        W  360   1.810  35.349   1.286
33578W        W  361  23.463  36.306  12.948
33579W        W  362   6.726   8.424  13.835
33580W        W  363  12.542  14.496  13.132
33581W        W  364  33.072  33.379   3.301
33582W        W  365   9.593  44.815  12.065
33583W        W  366  32.095  24.081   4.491
33584W        W  367  22.221  44.215   5.287
33585W        W  368  10.627  26.163  14.815
33586W        W  369  10.697  28.353  13.218
33587W        W  370  13.700  33.007   2.294
33588W        W  371  42.819   0.524   2.252
33589W        W  372  24.757   6.662  14.420
33590W        W  373  32.438   7.542  13.937
33591W        W  374  34.266  29.940  12.909
33592W        W  375  30.688  36.031   4.402
33593W        W  376  16.342  14.566  10.697
33594W        W  377  12.530  14.118  14.493
33595W        W  378  41.803   0.121  14.543
33596W        W  379  20.523  23.969  13.856
33597W        W  380  41.898  18.543  12.404
33598W        W  381  16.993   3.613  12.070
33599W        W  382  22.133  39.961  11.441
33600W        W  383  30.610  29.735   4.433
33601W        W  384   0.677  43.279  14.638
33602W        W  385  10.662  29.287  12.030
33603W        W  386   9.867  40.626  12.485
33604W        W  387  20.144  43.041   4.831
33605W        W  388  27.167  37.305   4.191
33606W        W  389  25.455  29.326   5.521
33607W        W  390  19.499  32.592   4.344
33608W        W  391  26.504  13.912   5.044
33609W        W  392   1.315  41.569  13.947
33610W        W  393  24.209  39.816  14.864
33611W        W  394   7.442  18.139   0.376
33612W        W  395  18.865  35.350  13.464
33613W        W  396  34.358  19.132  12.503
33614W        W  397  33.638  14.256  11.265
33615W        W  398   3.885  34.140  12.492
33616W        W  399  19.280  27.085  11.516
33617W        W  400   2.702  26.214  14.736
33618W        W  401  12.218   8.690  12.145
33619W        W  402  10.880  37.070  11.644
33620W        W  403  42.522  34.529   1.482
33621W        W  404  27.757  16.608  11.020
33622W        W  405   6.486   5.149   2.749
33623W        W  406  19.566  10.220  12.029
33624W        W  407  17.455   6.427   3.663
33625W        W  408   9.889  41.829  13.234
33626W        W  409  16.993  19.914   0.643
33627W        W  410   0.526  13.074   0.914
33628W        W  411  15.977  41.847  11.083
33629W        W  412   1.190  16.533  13.766
33630W        W  413  13.883  33.986  13.138
33631W        W  414   0.453  42.869  12.609
33632W        W  415  11.057  38.363  14.895
33633W        W  416  25.104  32.547  10.391
33634W        W  417  12.158  24.313   3.562
33635W        W  418   4.710  41.218   1.591
33636W        W  419  20.343  10.151   1.750
33637W        W  420  25.662  28.602  12.499
33638W        W  421   2.083  19.238   1.766
33639W        W  422  40.459  38.020   1.215
33640W        W  423  27.044  44.122  10.279
33641W        W  424  20.316   8.262  10.886
33642W        W  425  35.612  32.737  13.400
33643W        W  426   6.049   8.256   0.925
33644W        W  427  23.813  12.055  11.515
33645W        W  428   6.646   8.410  11.521
33646W        W  429  33.170  36.490  12.467
33647W        W  430  14.199   7.143  11.573
33648W        W  431  32.599   2.543  13.962
33649W        W  432  18.964  44.966  10.412
33650W        W  433  24.545  30.928   2.860
33651W        W  434  39.397  42.760   1.858
33652W        W  435  24.282   1.981  14.225
33653W        W  436   0.962  18.752   2.275
33654W        W  437   2.349   1.619   0.780
33655W        W  438  25.002  10.683   0.105
33656W        W  439  10.356   4.849   0.965
33657W        W  440  25.419  22.604  10.573
33658W        W  441   6.625  38.474   2.812
33659W        W  442  11.912   1.219  11.507
33660W        W  443   8.314   8.515   0.431
33661W        W  444  21.524  17.745  13.055
33662W        W  445  21.525  25.216   2.776
33663W        W  446   0.751  20.887  13.546
33664W        W  447  21.221  44.795   0.315
33665W        W  448  37.573  18.744   0.383
33666W        W  449  35.370  37.231  12.495
33667W        W  450  44.560  13.436   4.588
33668W        W  451  15.200   5.212  13.564
33669W        W  452  40.301   6.666  10.571
33670W        W  453   4.109  20.318   1.412
33671W        W  454   5.779  36.796   1.489
33672W        W  455   9.254   4.973   0.349
33673W        W  456   2.370  10.860  13.406
33674W        W  457  11.081   6.747   5.493
33675W        W  458  30.963   6.907  13.454
33676W        W  459  18.169  41.066   3.621
33677W        W  460   4.295  25.649   2.109
33678W        W  461  10.974  14.316   2.792
33679W        W  462  21.858  27.848   2.289
33680W        W  463  32.481  11.497  12.532
33681W        W  464  30.513   4.948   1.341
33682W        W  465  19.198  39.979  13.744
33683W        W  466   3.671  13.404   2.468
33684W        W  467  17.212  25.127   5.047
33685W        W  468  12.866  25.112  11.987
33686W        W  469  31.344  34.438  13.917
33687W        W  470  19.204  29.241  10.393
33688W        W  471  13.876  23.363  12.496
33689W        W  472  14.302   3.058   0.260
33690W        W  473  17.557  34.165   4.131
33691W        W  474  25.989  28.005  12.812
33692W        W  475  28.481  41.563   2.246
33693W        W  476  23.512  24.522  11.868
33694W        W  477  36.840   8.372   2.614
33695W        W  478   0.468  23.742  13.400
33696W        W  479   6.285  36.825   1.339
33697W        W  480   0.369  37.110  14.433
33698W        W  481  42.406  41.054   1.548
33699W        W  482  14.186  21.512   2.934
33700W        W  483   9.247  31.927   1.847
33701W        W  484   0.562  23.086  10.726
33702W        W  485  32.013   0.780   4.226
33703W        W  486  21.980  41.065  13.871
33704W        W  487  16.317  31.290  11.058
33705W        W  488  32.014  39.234  11.428
33706W        W  489  44.224  41.012  14.287
33707W        W  490  32.561  16.112   1.018
33708W        W  491  29.439  43.701   2.336
33709W        W  492  27.535  19.974   2.843
33710W        W  493  35.417  16.170   0.705
33711W        W  494  32.242  41.100  12.978
33712W        W  495  27.621   0.506  11.695
33713W        W  496  29.850  11.182   1.912
33714W        W  497   0.286  37.096  11.593
33715W        W  498  26.042  40.713  14.483
33716W        W  499  11.683  33.276   4.798
33717W        W  500  38.831   2.823  12.912
33718W        W  501  38.720  26.097  13.953
33719W        W  502   1.955  28.690  13.843
33720W        W  503  10.202  18.059  14.375
33721W        W  504  30.944  38.388   0.022
33722W        W  505   2.730  32.580  11.845
33723W        W  506   6.664  10.657  12.532
33724W        W  507  13.590  31.094   4.700
33725W        W  508   6.639  11.276   3.392
33726W        W  509  18.291  12.305   2.293
33727W        W  510  21.150  32.871   1.223
33728W        W  511  39.028  15.217  14.761
33729W        W  512  38.984  41.851  11.459
33730W        W  513  30.484  34.051   3.178
33731W        W  514   6.130  23.190  10.488
33732W        W  515   1.768  27.127   2.822
33733W        W  516  25.743  24.527  11.162
33734W        W  517  44.053  15.256   2.690
33735W        W  518  28.919   0.543   3.804
33736W        W  519  21.011  40.580  12.792
33737W        W  520  41.957  43.364   2.175
33738W        W  521  24.830  22.312  14.948
33739W        W  522  43.309  23.259  14.992
33740W        W  523  25.881  43.127  10.175
33741W        W  524  39.112  38.964   0.231
33742W        W  525   4.739  22.995   0.881
33743W        W  526  33.849  13.838   0.561
33744W        W  527   2.318  14.148  10.711
33745W        W  528   9.806  39.999   1.275
33746W        W  529  12.911  24.274  11.163
33747W        W  530  33.976  16.284   0.424
33748W        W  531  38.452  23.026  14.779
33749W        W  532   4.961  42.700  11.247
33750W        W  533   3.380  23.189  12.486
33751W        W  534   9.312  37.759   2.428
33752W        W  535   2.430  39.541   3.271
33753W        W  536  42.770  43.763  14.881
33754W        W  537  31.363  15.892   4.302
33755W        W  538  22.786  32.573   0.914
33756W        W  539  35.287  10.331   1.780
33757W        W  540  26.233   5.737   2.273
33758W        W  541  20.160  41.645  13.862
33759W        W  542  43.484  32.701   4.472
33760W        W  543  12.785   4.777   4.418
33761W        W  544   4.623  11.627   2.689
33762W        W  545  34.417  12.783   1.671
33763W        W  546  15.373  16.146   0.822
33764W        W  547  24.467  10.617   0.836
33765W        W  548  33.086   2.404   0.842
33766W        W  549   9.584  24.258  12.101
33767W        W  550   1.218  13.889  12.991
33768W        W  551  22.036  20.134   4.961
33769W        W  552  13.659  38.144  14.428
33770W        W  553  32.623  35.444   3.414
33771W        W  554  36.532  20.953   3.260
33772W        W  555  11.745   4.764  11.676
33773W        W  556  36.456   5.635  10.459
33774W        W  557  43.772  19.980  12.046
33775W        W  558  33.714  40.489  11.083
33776W        W  559  27.048  39.444  12.112
33777W        W  560  36.309  39.026  13.959
33778W        W  561  35.539  27.059  12.087
33779W        W  562  29.470   2.464  12.078
33780W        W  563  35.970  40.333  12.476
33781W        W  564  41.121  44.934  11.701
33782W        W  565   1.700   7.598   1.553
33783W        W  566   1.219   2.661   1.362
33784W        W  567  34.263  37.582   0.040
33785W        W  568  36.463   8.385   3.405
33786W        W  569  34.112   2.556  13.063
33787W        W  570  12.047  32.707   0.425
33788W        W  571  26.683   2.187  11.239
33789W        W  572  12.175  42.954   0.238
33790W        W  573   0.376  30.025   0.816
33791W        W  574  14.091  35.180  14.748
33792W        W  575   0.945  20.738  10.641
33793W        W  576  23.062  29.464  12.679
33794W        W  577  35.782  35.564  13.005
33795W        W  578  26.892   8.565   3.362
33796W        W  579  26.292  44.352   0.051
33797W        W  580  24.697  34.386  14.302
33798W        W  581  19.102   5.950   2.805
33799W        W  582   5.109   3.935   4.672
33800W        W  583  28.089  28.501   5.003
33801W        W  584  18.067  11.072  11.246
33802W        W  585   9.070  27.493  11.868
33803W        W  586  25.325  20.449   2.864
33804W        W  587  34.151  36.023  12.077
33805W        W  588  30.203  14.373   2.737
33806W        W  589  32.417  40.216  14.187
33807W        W  590  27.620  36.356  10.570
33808W        W  591  26.107  37.797  10.316
33809W        W  592   4.352  22.052  14.331
33810W        W  593  32.996  20.010   2.151
33811W        W  594   5.499   7.751  11.969
33812W        W  595   5.752   4.220  11.575
33813W        W  596  41.401  43.990   1.779
33814W        W  597  15.232  34.940  10.765
33815W        W  598  28.674  11.148  14.093
33816W        W  599   2.751  30.225  10.785
33817W        W  600  37.599  33.728  11.150
33818W        W  601  13.625   4.443  11.354
33819W        W  602  14.342  39.266   0.777
33820W        W  603   4.953  25.167   0.865
33821W        W  604   5.969  19.622   3.803
33822W        W  605  30.628  40.302   4.107
33823W        W  606  34.010  27.583  13.576
33824W        W  607  44.589  33.327  13.773
33825W        W  608  26.970  23.328  13.014
33826W        W  609  43.804   5.323   4.941
33827W        W  610  41.591  20.658   4.970
33828W        W  611  25.690  21.110   4.120
33829W        W  612  23.015  21.684  13.724
33830W        W  613  11.162  20.711   3.415
33831W        W  614  24.932  42.894   0.848
33832W        W  615   6.353  32.174  14.412
33833W        W  616  18.916  23.964   2.280
33834W        W  617  42.527  27.154   1.311
33835W        W  618  17.741  44.902   0.885
33836W        W  619  42.422   7.371   1.816
33837W        W  620   6.227  13.195   2.936
33838W        W  621  16.114  22.066  14.316
33839W        W  622  17.087   3.423  12.531
33840W        W  623  16.353  19.044  12.974
33841W        W  624  22.801  33.325  13.587
33842W        W  625  43.808  27.974  11.562
33843W        W  626  37.135  21.574  12.527
33844W        W  627  34.806   9.484   3.167
33845W        W  628  13.058  22.457  13.553
33846W        W  629  19.281  12.879  13.433
33847W        W  630  24.144  37.153  12.120
33848W        W  631  38.973  22.657   5.297
33849W        W  632  26.495   7.714  14.963
33850W        W  633   9.000  19.574  12.414
33851W        W  634  32.519  24.765  13.429
33852W        W  635  31.012  16.856   3.968
33853W        W  636  43.811  32.386  14.357
33854W        W  637  39.823   2.934  10.617
33855W        W  638   6.401  22.624  11.181
33856W        W  639  35.054  22.089  11.945
33857W        W  640   0.881  10.186   1.473
33858W        W  641  20.132  35.843  12.571
33859W        W  642  35.894  39.943  11.688
33860W        W  643  39.000   2.375  10.396
33861W        W  644   6.802  23.836  14.534
33862W        W  645  13.755  36.945   3.474
33863W        W  646  34.494  14.753   3.673
33864W        W  647  29.668   9.390  14.364
33865W        W  648  21.218  25.804   3.377
33866W        W  649   6.753  17.623   4.156
33867W        W  650  12.132  38.915  11.430
33868W        W  651  21.760  41.336  10.675
33869W        W  652  28.359  37.072   1.610
33870W        W  653  44.795  14.146  10.139
33871W        W  654  11.635  43.614  12.680
33872W        W  655   6.435  26.184  11.763
33873W        W  656  42.793  19.466  11.369
33874W        W  657  37.731   5.682   0.331
33875W        W  658   8.610  21.423  11.936
33876W        W  659  37.130  14.361   9.848
33877W        W  660  25.767   5.494   0.487
33878W        W  661  42.284  19.437   3.473
33879W        W  662  44.789  35.464  13.432
33880W        W  663  16.505   9.697   3.660
33881W        W  664   3.409  36.041  11.592
33882W        W  665  17.724   2.695   3.117
33883W        W  666  42.035   3.771   0.710
33884W        W  667  11.358  35.916   4.018
33885W        W  668  31.036  17.981  12.945
33886W        W  669  27.036  11.714  12.656
33887W        W  670   8.825  27.037  14.592
33888W        W  671   1.153   3.410   4.637
33889W        W  672  18.321  39.897   1.156
33890W        W  673   6.321   3.850   4.556
33891W        W  674  24.305  10.065   4.080
33892W        W  675  22.566  39.371  13.046
33893W        W  676  32.520  11.732  10.907
33894W        W  677  36.560  12.075   1.513
33895W        W  678  17.462  14.823   3.618
33896W        W  679  28.114  23.655  12.651
33897W        W  680  26.017  44.206   1.838
33898W        W  681  37.450   8.318  13.946
33899W        W  682  26.391  32.927  12.543
33900W        W  683  14.090  39.983  12.868
33901W        W  684  24.988  26.286   0.028
33902W        W  685  10.074  38.087   2.699
33903W        W  686  28.442   1.260   0.744
33904W        W  687  19.070  26.180  11.025
33905W        W  688  35.672  18.317   4.946
33906W        W  689  22.513   4.895   4.402
33907W        W  690  29.260  41.374  10.295
33908W        W  691  17.170  36.833   0.525
33909W        W  692  39.623  21.068  11.052
33910W        W  693  14.710  34.409  11.177
33911W        W  694   2.884  38.023   2.469
33912W        W  695  19.772   3.251  13.126
33913W        W  696  32.484   9.308  12.023
33914W        W  697  13.347  22.135   1.226
33915W        W  698  23.505   1.404  10.461
33916W        W  699  42.871  37.874  14.212
33917W        W  700   7.823  32.905  12.484
33918W        W  701  36.853  17.093   3.667
33919W        W  702  20.447  18.293   1.859
33920W        W  703  44.038  23.672  12.955
33921W        W  704  22.605  35.088   2.333
33922W        W  705  18.244  44.495   3.696
33923W        W  706  32.560  37.575   2.172
33924W        W  707  25.790  22.234  13.144
33925W        W  708  33.159  28.435  14.509
33926W        W  709  35.610  25.532   4.320
33927W        W  710  41.556   2.786  13.275
33928W        W  711   9.815   8.594  12.174
33929W        W  712  31.966   6.122   2.869
33930W        W  713  23.694  26.017   1.632
33931W        W  714  28.670  24.191  13.825
33932W        W  715  36.027  42.828  12.232
33933W        W  716  20.772  35.875  14.259
33934W        W  717  25.949  15.493  13.916
33935W        W  718   2.808  27.489   1.852
33936W        W  719   5.230   5.482  11.968
33937W        W  720   8.363  27.436   3.568
33938W        W  721  33.538  14.272   0.721
33939W        W  722   7.705  30.448   0.764
33940W        W  723   3.922   6.595   0.198
33941W        W  724  36.869  31.899   0.314
33942W        W  725  15.363  38.028   2.383
33943W        W  726  10.110  20.630  13.494
33944W        W  727  44.024  12.196   2.680
33945W        W  728  24.277   6.794  14.565
33946W        W  729  29.531  29.912  12.501
33947W        W  730  35.105  34.911  11.614
33948W        W  731  34.013  35.828   4.852
33949W        W  732  17.266   9.899  12.855
33950W        W  733  43.944   0.286   3.419
33951W        W  734  37.521  21.275   0.388
33952W        W  735  23.200  19.463   0.283
33953W        W  736  11.371  15.172   0.084
33954W        W  737  15.755  18.197   3.778
33955W        W  738  29.712  37.846   2.392
33956W        W  739   5.737  42.264  13.565
33957W        W  740  21.468  12.173   2.270
33958W        W  741   4.133  14.519   1.275
33959W        W  742  35.275  21.567   2.262
33960W        W  743  18.130   8.997   0.950
33961W        W  744   4.805  40.035  14.711
33962W        W  745  22.431  33.911  10.302
33963W        W  746  13.237  34.832   3.378
33964W        W  747  37.752  30.158   1.292
33965W        W  748  23.069   7.202   2.609
33966W        W  749   6.373  44.376   5.095
33967W        W  750  28.507  37.337  14.838
33968W        W  751   1.318   4.891   1.265
33969W        W  752  21.296  34.406   2.812
33970W        W  753  18.089   5.169  11.528
33971W        W  754   5.893  34.030   1.803
33972W        W  755   3.449  21.408  14.917
33973W        W  756  25.974  35.983   2.296
33974W        W  757  11.911  13.747   3.205
33975W        W  758   5.588  24.610   4.389
33976W        W  759  21.099  16.811   3.401
33977W        W  760  10.671  22.647  12.548
33978W        W  761  21.955  24.510  10.524
33979W        W  762  43.796   9.947   2.354
33980W        W  763   4.177   9.251  14.019
33981W        W  764  23.083   0.350  11.432
33982W        W  765   6.198  31.848  12.904
33983W        W  766  10.686  34.979  12.808
33984W        W  767  13.624  19.122  12.911
33985W        W  768  28.939   4.205  10.774
33986W        W  769  36.127  21.461  10.332
33987W        W  770   4.592   5.377   0.239
33988W        W  771   3.082   0.580   0.254
33989W        W  772  29.974  33.123   2.417
33990W        W  773  22.248  33.333  13.585
33991W        W  774  39.044   3.737  13.282
33992W        W  775  12.689   4.267  10.879
33993W        W  776  26.684   9.524   0.378
33994W        W  777  26.074  19.801  11.409
33995W        W  778   3.468  18.254   0.837
33996W        W  779  34.551  43.186  10.656
33997W        W  780   1.837  28.542   2.001
33998W        W  781  12.259  27.358   0.739
33999W        W  782  27.055  17.113   1.259
34000W        W  783  43.065  39.991   1.733
34001W        W  784  40.483  40.415  11.626
34002W        W  785   4.637  27.259   1.821
34003W        W  786   8.518  41.662   0.966
34004W        W  787  23.284  36.633  13.976
34005W        W  788   9.460   1.275  12.488
34006W        W  789  32.140  43.362  13.664
34007W        W  790  38.993   9.827  14.434
34008W        W  791  37.911   5.599  11.628
34009W        W  792   9.336  25.613  13.440
34010W        W  793  10.218  18.369   2.842
34011W        W  794  36.095   8.567   3.697
34012W        W  795  36.826  20.780  11.957
34013W        W  796  33.972  40.787   2.362
34014W        W  797  16.377  27.132   0.550
34015W        W  798  31.219  44.806  12.049
34016W        W  799   0.862  26.247  14.896
34017W        W  800   1.947   9.332  12.927
34018W        W  801  38.312  14.346   1.771
34019W        W  802   0.191  13.173  11.914
34020W        W  803   9.873  15.157   2.833
34021W        W  804  16.975  21.181  14.235
34022W        W  805  36.662   1.337   0.438
34023W        W  806   1.420  25.492  13.902
34024W        W  807   6.466   0.872  14.254
34025W        W  808   6.611  37.424   3.745
34026W        W  809   0.460  34.919   2.920
34027W        W  810  33.357  15.343   4.131
34028W        W  811   1.652  31.889   0.332
34029W        W  812  12.615   0.443   3.180
34030W        W  813  24.364  30.408   2.821
34031W        W  814  12.304  35.893  12.958
34032W        W  815  41.002  11.700   0.432
34033W        W  816  42.919  16.683  14.377
34034W        W  817  25.474   5.509   5.046
34035W        W  818  43.038  23.698  13.944
34036W        W  819  43.948  28.097  13.610
34037W        W  820  39.104  29.705  11.236
34038W        W  821  44.293  38.310  13.861
34039W        W  822  31.934  29.989   2.650
34040W        W  823  15.594   2.055  14.803
34041W        W  824  15.787  26.354  12.925
34042W        W  825  41.862  15.367  13.925
34043W        W  826  21.222  22.874  10.580
34044W        W  827  33.864  10.574   1.873
34045W        W  828  40.944  11.050   2.694
34046W        W  829  40.365  38.427  10.634
34047W        W  830  44.789  35.396  11.886
34048W        W  831  19.468  35.790   0.367
34049W        W  832   5.613  31.002  11.543
34050W        W  833  14.459  31.217  14.191
34051W        W  834   4.674  37.406   2.740
34052W        W  835  35.471  37.639   1.185
34053W        W  836  39.208   5.157  13.357
34054W        W  837  42.931  26.708   2.190
34055W        W  838  40.796   3.946   3.093
34056W        W  839  20.704  19.259   2.204
34057W        W  840  14.311  32.345  13.285
34058W        W  841  12.474  15.385  13.293
34059W        W  842  39.998  11.849   0.639
34060W        W  843  30.324  34.505  11.070
34061W        W  844  19.757  27.358  10.766
34062W        W  845  28.657  13.777   1.378
34063W        W  846  11.616  41.197  13.600
34064W        W  847  28.447  38.862   0.414
34065W        W  848  32.555  27.940   2.694
34066W        W  849  15.840  33.256  10.994
34067W        W  850   2.819  32.881   0.841
34068W        W  851   6.426  22.541   4.545
34069W        W  852  42.905  41.092  14.912
34070W        W  853   7.046  36.056  12.872
34071W        W  854  22.228  21.511  14.804
34072W        W  855   2.274  30.216   4.577
34073W        W  856  25.227  36.356  11.425
34074W        W  857  39.654  18.291   0.417
34075W        W  858  24.455  24.602  14.857
34076W        W  859   9.621  44.323   1.675
34077W        W  860  27.099  18.027  11.302
34078W        W  861  23.784  27.628   3.402
34079W        W  862  43.272  41.507   0.453
34080W        W  863   0.344  26.415  12.513
34081W        W  864  11.509  37.115  12.809
34082W        W  865  12.798  30.671   4.707
34083W        W  866  31.101  17.575   0.912
34084W        W  867   2.021  25.313   2.884
34085W        W  868  37.549  33.892  12.593
34086W        W  869   3.441  43.771   3.231
34087W        W  870  11.737  13.111  13.031
34088W        W  871  29.345  33.971  11.145
34089W        W  872   0.940  30.414  10.908
34090W        W  873  26.274  28.001  11.960
34091W        W  874  30.026   5.357  10.645
34092W        W  875  37.351  29.074  11.975
34093W        W  876  37.128  31.423  10.798
34094W        W  877  42.959  35.817  13.303
34095W        W  878  15.072  35.416  13.510
34096W        W  879  41.027   8.842   4.387
34097W        W  880  42.330  16.644   4.545
34098W        W  881  34.870  26.742  12.893
34099W        W  882  13.838  31.976   1.977
34100W        W  883  28.354  18.871  12.882
34101W        W  884   5.023  15.283   1.382
34102W        W  885  31.429  43.452  12.973
34103W        W  886  11.117  42.987   2.171
34104W        W  887   0.862  21.852   0.052
34105W        W  888  36.583  36.084   3.608
34106W        W  889  31.841  12.661  14.869
34107W        W  890   8.477  33.391   2.022
34108W        W  891  31.335  14.740  12.587
34109W        W  892   3.223  44.327   4.709
34110W        W  893   1.082  11.710   3.676
34111W        W  894  42.042   3.366  14.287
34112W        W  895   8.722  38.787  11.602
34113W        W  896  28.036   3.533  12.590
34114W        W  897  12.061  28.082  13.410
34115W        W  898  22.841  31.462  10.880
34116W        W  899  25.293  21.780  13.798
34117W        W  900   8.990   4.160   2.006
34118W        W  901   3.413  38.967  11.633
34119W        W  902  11.921  39.411   3.809
34120W        W  903   3.543  19.167   1.871
34121W        W  904  18.812  20.292   0.288
34122W        W  905  26.162  20.130   4.325
34123W        W  906   1.830  32.020   5.154
34124W        W  907   1.978  14.817   3.664
34125W        W  908  44.563  22.108  12.443
34126W        W  909  23.488   5.629  10.404
34127W        W  910  33.481  28.078  14.796
34128W        W  911   1.975  35.442  14.905
34129W        W  912  27.486  44.302   0.733
34130W        W  913  25.899  18.369  13.718
34131W        W  914   6.155  37.893  14.893
34132W        W  915  35.765  26.151   1.999
34133W        W  916  36.424   9.512   1.927
34134W        W  917  19.766  41.732  13.377
34135W        W  918  15.080  18.941  14.235
34136W        W  919  14.403  18.726   1.699
34137W        W  920  41.515  30.810   0.371
34138W        W  921  17.651   9.084  12.779
34139W        W  922  22.660   2.521   0.367
34140W        W  923  15.423  12.867  10.920
34141W        W  924   7.440   9.459   3.585
34142W        W  925   3.985  44.878   3.787
34143W        W  926   8.775   5.105   3.191
34144W        W  927  13.161  10.432   0.401
34145W        W  928  39.792  18.486  12.371
34146W        W  929   9.646  34.662  11.449
34147W        W  930  38.959  13.679   1.619
34148W        W  931   8.756  20.054  12.572
34149W        W  932  13.874  37.397   3.229
34150W        W  933  13.684  44.228   1.421
34151W        W  934  28.084  27.917   2.816
34152W        W  935  28.294   8.270   0.010
34153W        W  936  40.440   2.494   0.133
34154W        W  937  13.990   7.125  12.111
34155W        W  938   6.303  19.584   2.499
34156W        W  939  42.720  13.635   3.516
34157W        W  940  38.301   2.941  11.662
34158W        W  941   9.112  10.410   1.763
34159W        W  942  41.759  18.075   2.007
34160W        W  943  20.014  19.069   0.016
34161W        W  944   0.105  12.867   1.740
34162W        W  945  27.461  29.252  11.424
34163W        W  946   3.399   0.637  14.305
34164W        W  947  25.354  30.993   4.978
34165W        W  948  37.388  10.369  10.929
34166W        W  949  31.550  35.502   4.281
34167W        W  950  36.857  22.266   4.363
34168W        W  951  23.005  28.135  11.460
34169W        W  952  13.144  33.707   4.725
34170W        W  953  16.542  18.490  14.443
34171W        W  954  18.269  12.626  11.051
34172W        W  955  21.141   7.388   3.305
34173W        W  956   6.005   3.350  13.748
34174W        W  957  13.517  38.231   0.300
34175W        W  958  26.076  35.454   3.922
34176W        W  959  43.175  12.733  12.831
34177W        W  960  26.531   6.866  10.741
34178W        W  961   5.355  12.708   4.501
34179W        W  962   2.964  31.497   1.290
34180W        W  963  42.811  16.657  12.591
34181W        W  964  37.491  11.231   1.708
34182W        W  965  37.500  32.443  13.361
34183W        W  966  30.147   5.495  12.534
34184W        W  967  10.980  20.095   5.120
34185W        W  968  31.545  39.326   4.428
34186W        W  969  36.966  29.087   2.929
34187W        W  970  31.110  15.620  10.602
34188W        W  971  27.880  17.613  13.887
34189W        W  972  25.768  27.872  11.979
34190W        W  973  13.749  14.738  10.939
34191W        W  974  36.269  34.007   3.335
34192W        W  975  41.969  37.697   3.209
34193W        W  976   0.089  39.643   0.253
34194W        W  977  27.737  18.807   2.308
34195W        W  978  39.289  27.931  12.041
34196W        W  979  20.020  21.108  14.186
34197W        W  980  36.954  38.500  10.679
34198W        W  981   9.368  13.555   0.809
34199W        W  982  21.533   4.316  11.585
34200W        W  983  28.346   0.735   0.560
34201W        W  984  24.134  28.175  10.513
34202W        W  985  15.348   2.814   1.429
34203W        W  986  16.569   6.500  12.370
34204W        W  987  31.461  11.396  11.878
34205W        W  988  35.213   0.198  12.586
34206W        W  989   0.485  10.081   4.176
34207W        W  990  18.470  26.894   1.120
34208W        W  991  15.360  34.044  11.218
34209W        W  992  36.613  34.001  14.164
34210W        W  993  30.152   8.779  11.216
34211W        W  994  24.253  23.747  12.628
34212W        W  995  12.894  24.639   4.780
34213W        W  996  27.403   5.326   1.984
34214W        W  997  24.215  34.127   0.059
34215W        W  998  15.241  33.587  11.055
34216W        W  999  24.295   8.189   0.762
34217W        W 1000  19.184  43.846   0.308
34218W        W 1001  44.291  17.028  11.066
34219W        W 1002  22.660   7.635   2.895
34220W        W 1003  18.338   4.911  11.139
34221W        W 1004  10.922  39.167  14.940
34222W        W 1005   6.054  23.012  13.302
34223W        W 1006  36.068  39.790   4.511
34224W        W 1007  33.985  19.718  13.088
34225W        W 1008  32.551  17.388  11.658
34226W        W 1009  19.843  38.505  12.664
34227W        W 1010   8.748  42.208  11.145
34228W        W 1011   2.506  10.878   1.455
34229W        W 1012  40.430   2.390  13.069
34230W        W 1013   3.741  22.273  12.088
34231W        W 1014   1.510  22.519   3.139
34232W        W 1015  12.100  35.560  13.348
34233W        W 1016  36.558  30.542  14.482
34234W        W 1017  26.441  26.434   2.181
34235W        W 1018  17.565   9.709   0.795
34236W        W 1019   2.853  27.421   2.731
34237W        W 1020   4.747  31.087   1.742
34238W        W 1021  38.802  23.169   3.706
34239W        W 1022   5.427  11.271   3.662
34240W        W 1023  26.638  39.509  12.485
34241W        W 1024  21.080  28.944   4.993
34242W        W 1025  17.782  16.435   1.820
34243W        W 1026  33.007  21.259   0.436
34244W        W 1027  10.870  12.622  12.437
34245W        W 1028  39.482  24.576   1.730
34246W        W 1029  24.818  41.521   4.277
34247W        W 1030  39.825  26.225   3.735
34248W        W 1031  33.861   0.570  13.551
34249W        W 1032  12.177   4.985   2.388
34250W        W 1033  35.855  36.908   0.287
34251W        W 1034  19.166  18.282   2.855
34252W        W 1035  32.844   5.494  13.870
34253W        W 1036  29.109  43.679  12.052
34254W        W 1037  25.733  39.591  10.277
34255W        W 1038  26.183  14.757  11.127
34256W        W 1039  42.298  11.966  10.760
34257W        W 1040  14.171  43.457   1.536
34258W        W 1041  17.877  12.728   3.599
34259W        W 1042  24.200  24.547   2.740
34260W        W 1043   5.369  29.527  13.525
34261W        W 1044  15.871   5.558   0.446
34262W        W 1045  13.625   9.757   2.870
34263W        W 1046  40.299  11.911  13.838
34264W        W 1047  31.179   0.491   1.036
34265W        W 1048  41.662  11.795  13.955
34266W        W 1049  42.658  16.040  14.940
34267W        W 1050  39.793   7.597  11.313
34268W        W 1051  32.228  38.959   2.852
34269W        W 1052  16.684  42.903   1.811
34270W        W 1053   5.140   1.407   2.356
34271W        W 1054  36.815  39.063  13.297
34272W        W 1055   6.743  17.952  10.983
34273W        W 1056  35.979   8.781   0.477
34274W        W 1057  22.348  26.419   4.537
34275W        W 1058   4.421  32.591  13.549
34276W        W 1059  31.642  22.716   4.633
34277W        W 1060  30.157  10.791   1.715
34278W        W 1061  38.518  12.848   0.288
34279W        W 1062   8.408  26.996  13.295
34280W        W 1063  36.560  40.943  10.814
34281W        W 1064  42.310  39.896   0.262
34282W        W 1065  29.659  21.651  13.998
34283W        W 1066  13.617  26.894  12.608
34284W        W 1067   9.658  13.329   2.377
34285W        W 1068  12.209  20.527  14.484
34286W        W 1069  42.773  33.085  14.480
34287W        W 1070  14.065  36.971   0.642
34288W        W 1071  32.645  12.349  13.982
34289W        W 1072  36.970  42.602  10.493
34290W        W 1073  44.384  12.227  12.419
34291W        W 1074  37.846  37.079  13.577
34292W        W 1075  37.102   4.107  11.600
34293W        W 1076  26.517  35.856  13.522
34294W        W 1077  19.256  24.480  11.202
34295W        W 1078  37.463  34.039  10.581
34296W        W 1079  31.107  44.037  13.303
34297W        W 1080  42.644   0.027   3.346
34298W        W 1081  37.897   1.962   3.551
34299W        W 1082   2.507  27.950   1.733
34300W        W 1083   5.813   3.954   3.330
34301W        W 1084   8.186  33.779   1.006
34302W        W 1085  31.187  21.620  11.522
34303W        W 1086  25.955  41.182   2.601
34304W        W 1087  36.441  15.611  10.919
34305W        W 1088  32.590  17.098   4.740
34306W        W 1089  21.750  34.682  11.125
34307W        W 1090   2.719  41.938  14.496
34308W        W 1091  12.347  15.920  11.659
34309W        W 1092  38.421  34.378   3.927
34310W        W 1093  23.936  32.016  10.640
34311W        W 1094   4.317  32.035   4.365
34312W        W 1095  12.649  22.506  14.516
34313W        W 1096  31.383  22.027  11.285
34314W        W 1097  13.170  17.320   4.715
34315W        W 1098   6.833   8.177  12.927
34316W        W 1099  39.357   1.240  11.658
34317W        W 1100   7.714  19.346   4.059
34318W        W 1101  15.142  26.677  13.855
34319W        W 1102  38.380  38.346  13.473
34320W        W 1103  12.185  35.121   0.404
34321W        W 1104   4.199  29.505   4.538
34322W        W 1105  37.981  39.294  13.498
34323W        W 1106  23.897  37.394   1.863
34324W        W 1107  39.753  33.744   3.631
34325W        W 1108   1.500  20.669  10.649
34326W        W 1109  10.857  11.574   2.328
34327W        W 1110  11.949  24.188  13.590
34328W        W 1111  28.022   9.903  10.979
34329W        W 1112  32.582  35.918   0.906
34330W        W 1113  26.383  38.067  12.435
34331W        W 1114   2.423  32.104   0.752
34332W        W 1115  25.042  31.161  10.680
34333W        W 1116  14.781  20.228   4.657
34334W        W 1117   9.254  18.450   3.022
34335W        W 1118  18.716   1.247  14.349
34336W        W 1119   8.906  14.173  10.831
34337W        W 1120  20.173  25.808   3.324
34338W        W 1121  41.827  32.826  11.530
34339W        W 1122   5.166   8.996  11.296
34340W        W 1123  22.005  41.793  13.377
34341W        W 1124   2.887   9.387   3.139
34342W        W 1125  44.787  34.936   1.676
34343W        W 1126  25.967  12.620  11.992
34344W        W 1127   7.851  14.876   4.035
34345W        W 1128   1.381  39.958   0.804
34346W        W 1129  40.165  31.650   0.410
34347W        W 1130  27.602   8.745   4.544
34348W        W 1131  41.253  21.594  14.765
34349W        W 1132  41.013  15.645  11.974
34350W        W 1133  13.413  38.213  10.145
34351W        W 1134  36.968  32.459   0.958
34352W        W 1135   4.905  40.279   1.140
34353W        W 1136  34.542  11.874  13.992
34354W        W 1137  13.084  36.508  12.303
34355W        W 1138  29.673  25.826  12.049
34356W        W 1139   1.236  42.865   4.592
34357W        W 1140  13.342  28.647   2.130
34358W        W 1141   9.344  37.690  13.566
34359W        W 1142   7.545  14.770  12.866
34360W        W 1143   7.938  40.935  14.844
34361W        W 1144  44.580   8.499  13.529
34362W        W 1145  23.696  27.080  11.549
34363W        W 1146  37.757  29.097   0.257
34364W        W 1147  15.540  43.412   4.759
34365W        W 1148  30.183  39.914   0.276
34366W        W 1149   2.674  36.304   2.468
34367W        W 1150  34.095  33.776  10.691
34368W        W 1151   2.348  29.858   1.790
34369W        W 1152   5.310  11.571   2.371
34370W        W 1153   8.125   8.275  14.443
34371W        W 1154  30.548  12.082  13.363
34372W        W 1155  12.304  17.249   0.701
34373W        W 1156  19.782  15.745   3.146
34374W        W 1157  40.832   1.352  14.055
34375W        W 1158  33.908  41.017   0.708
34376W        W 1159  13.721   9.638  10.781
34377W        W 1160   4.513  19.007   1.571
34378W        W 1161  42.246  11.146   0.266
34379W        W 1162  25.502  35.083  10.701
34380W        W 1163  40.359   6.629   3.776
34381W        W 1164  29.987  19.653  12.855
34382W        W 1165  25.002  36.010  14.800
34383W        W 1166  18.904   6.434  10.678
34384W        W 1167  23.640   9.735  10.488
34385W        W 1168  26.654   3.302   9.975
34386W        W 1169  33.471   1.764  14.261
34387W        W 1170  31.028   2.652  11.113
34388W        W 1171  38.801   8.621   3.204
34389W        W 1172  21.985   0.697  10.589
34390W        W 1173  25.456  22.586   3.705
34391W        W 1174   1.476  24.612  10.752
34392W        W 1175   5.105  12.390   4.804
34393W        W 1176   0.280  38.087   4.039
34394W        W 1177   0.469   7.717  12.526
34395W        W 1178  32.359   5.952   4.167
34396W        W 1179   1.269  26.406  11.205
34397W        W 1180  19.497   3.340  10.094
34398W        W 1181  41.388  11.581   2.198
34399W        W 1182  18.046  35.457  10.636
34400W        W 1183  11.742   0.042   0.928
34401W        W 1184   0.758  35.949   1.249
34402W        W 1185  14.918   2.834  12.542
34403W        W 1186  31.717  32.923  11.341
34404W        W 1187  42.964  16.299  11.212
34405W        W 1188   6.804   0.512  10.404
34406W        W 1189   2.704  38.514  14.388
34407W        W 1190  38.920  16.163   1.892
34408W        W 1191  15.546  44.430   1.286
34409W        W 1192  41.785  41.383  14.967
34410W        W 1193   3.264  41.264  10.783
34411W        W 1194  15.756  22.350  12.089
34412W        W 1195   3.419  26.962  13.066
34413W        W 1196  40.758   8.436   3.642
34414W        W 1197  20.637  19.255  11.436
34415W        W 1198  29.459  26.224   1.028
34416W        W 1199  11.910  43.885  12.348
34417W        W 1200  16.291   8.489   2.587
34418W        W 1201  31.054   2.340   1.823
34419W        W 1202  40.168  35.869   4.542
34420W        W 1203  16.560  26.722  10.648
34421W        W 1204  18.922  27.211   3.221
34422W        W 1205  30.549  19.728  12.113
34423W        W 1206  30.792  25.848  11.191
34424W        W 1207  24.356  35.907   0.472
34425W        W 1208  23.516   8.888  12.250
34426W        W 1209  20.286  10.811  11.194
34427W        W 1210  25.817  43.158   5.455
34428W        W 1211  29.503  15.633  10.785
34429W        W 1212  16.722  37.244   0.836
34430W        W 1213  20.188  41.964   2.816
34431W        W 1214  35.080  27.196   0.085
34432W        W 1215  17.160  32.406   4.995
34433W        W 1216   8.167  22.504  13.349
34434W        W 1217   0.816  40.360  11.482
34435W        W 1218  40.993  28.858  11.567
34436W        W 1219  10.360  40.122   2.927
34437W        W 1220  17.727  31.413  12.919
34438W        W 1221  29.178  22.685   2.312
34439W        W 1222  25.874   1.826   4.063
34440W        W 1223  13.073   1.066  11.162
34441W        W 1224  33.200  42.819  13.946
34442W        W 1225  44.977  38.385   2.925
34443W        W 1226  17.564   8.639  14.526
34444W        W 1227  10.153  16.608   4.817
34445W        W 1228  24.638  10.330  14.266
34446W        W 1229   7.802  12.139   2.175
34447W        W 1230  28.677  40.864   4.959
34448W        W 1231  23.962   4.865   2.544
34449W        W 1232  41.437   3.819  14.848
34450W        W 1233  24.643  27.763   4.520
34451W        W 1234  42.825  19.453  10.395
34452W        W 1235   6.800  21.281  12.625
34453W        W 1236  28.669  29.484  13.582
34454W        W 1237  22.584  41.837   0.060
34455W        W 1238  25.898  27.628   2.192
34456W        W 1239   8.645   2.854  13.801
34457W        W 1240   7.611  39.313  11.160
34458W        W 1241  37.102   2.185   3.665
34459W        W 1242  37.588  28.746   1.335
34460W        W 1243  10.713   1.056  12.352
34461W        W 1244   5.412   6.775  12.399
34462W        W 1245   1.620  32.367   3.456
34463W        W 1246  17.757  17.081   3.598
34464W        W 1247  25.148   4.700  11.126
34465W        W 1248  21.237  37.513   4.157
34466W        W 1249   7.285   7.848  10.814
34467W        W 1250  34.873  29.848   4.625
34468W        W 1251  36.834  28.472   3.210
34469W        W 1252   0.865   1.875  11.992
34470W        W 1253  17.823   5.383   4.515
34471W        W 1254  12.229  18.107   4.487
34472W        W 1255   4.378  30.367   1.316
34473W        W 1256  17.824  35.673   2.721
34474W        W 1257  23.869   0.179  12.042
34475W        W 1258  17.777  17.283  10.408
34476W        W 1259  39.323   4.605  10.315
34477W        W 1260  10.611   3.308   1.274
34478W        W 1261   2.846   4.278  11.188
34479W        W 1262   8.730  40.254   0.494
34480W        W 1263  14.643   7.223   2.400
34481W        W 1264   6.945  10.793   2.696
34482W        W 1265   6.780  44.568  12.592
34483W        W 1266  27.689   2.489  12.762
34484W        W 1267  44.606  42.841  10.045
34485W        W 1268  12.558  23.943   2.359
34486W        W 1269   8.724   2.920   1.228
34487W        W 1270   1.457   4.824  11.508
34488W        W 1271  16.636   5.269  14.930
34489W        W 1272  23.705  39.145  10.277
34490W        W 1273  14.529  12.338  12.902
34491W        W 1274  15.160  38.009  12.934
34492W        W 1275   1.038  34.236  11.688
34493W        W 1276   4.396  25.157   0.878
34494W        W 1277  26.913  24.660   2.610
34495W        W 1278   7.776  16.307  14.398
34496W        W 1279  17.701  44.840  12.533
34497W        W 1280  25.101  37.044  12.062
34498W        W 1281   2.849  25.107   0.641
34499W        W 1282   2.774  28.193   3.861
34500W        W 1283  41.015  34.079  12.989
34501W        W 1284  39.077  40.792   2.101
34502W        W 1285  33.419  26.293   0.175
34503W        W 1286  32.606  12.061  12.665
34504W        W 1287  35.033  22.250   1.958
34505W        W 1288  10.245  12.781   4.628
34506W        W 1289  37.440  36.121   3.625
34507W        W 1290  43.904  34.848   4.855
34508W        W 1291  13.350  15.805  14.216
34509W        W 1292  13.726  23.068  14.237
34510W        W 1293  35.332  10.683  13.281
34511W        W 1294  17.151   5.662  14.292
34512W        W 1295  17.181  32.052  13.464
34513W        W 1296  44.485  10.920  14.459
34514W        W 1297   2.968  44.056  11.190
34515W        W 1298   4.404   3.900   0.857
34516W        W 1299  32.912  26.757  11.627
34517W        W 1300  11.460  28.121   4.676
34518W        W 1301   6.378   1.069  13.412
34519W        W 1302  39.034  42.037   1.514
34520W        W 1303  38.544   8.587   4.118
34521W        W 1304   1.431   2.011   1.795
34522W        W 1305  35.603   4.400   4.582
34523W        W 1306  20.871  13.274   5.461
34524W        W 1307  25.203  20.583  12.159
34525W        W 1308  22.688  37.604   4.670
34526W        W 1309  37.683   2.810  13.832
34527W        W 1310  14.485  13.288  11.888
34528W        W 1311  30.992  44.316   4.000
34529W        W 1312  11.890  23.667   3.770
34530W        W 1313  30.037  44.323  11.320
34531W        W 1314  32.337  13.850   3.202
34532W        W 1315  13.153  18.093   2.271
34533W        W 1316  29.209   9.783   4.413
34534W        W 1317  29.283  36.716   0.035
34535W        W 1318  15.815  43.010   1.356
34536W        W 1319   1.229  24.108   0.195
34537W        W 1320  35.209   5.973  14.532
34538W        W 1321  38.324  39.776   4.338
34539W        W 1322  42.852  29.048   4.098
34540W        W 1323  11.828  40.590   0.740
34541W        W 1324  33.578  23.619   4.461
34542W        W 1325  19.014  25.291   4.124
34543W        W 1326  26.427  22.481   2.861
34544W        W 1327  23.114   4.176   0.739
34545W        W 1328  37.386  24.289   1.230
34546W        W 1329  38.783   8.135  10.764
34547W        W 1330  21.576   2.331  13.836
34548W        W 1331  19.729  34.256   0.416
34549W        W 1332  23.081  17.862   2.870
34550W        W 1333  13.827  43.487  12.061
34551W        W 1334  35.363  35.026   4.154
34552W        W 1335  28.007  16.746   3.923
34553W        W 1336  15.117  42.733   5.400
34554W        W 1337  38.395   5.135   2.786
34555W        W 1338  27.987  39.120  13.621
34556W        W 1339  44.010  39.274  14.321
34557W        W 1340   2.772  30.430   3.650
34558W        W 1341  18.800   4.334  10.874
34559W        W 1342  39.467   3.779   0.553
34560W        W 1343   9.229   3.374   0.009
34561W        W 1344  41.352   6.834   0.921
34562W        W 1345   1.830  19.018  12.076
34563W        W 1346  11.103   9.605  10.766
34564W        W 1347  23.641  18.912   0.727
34565W        W 1348  21.971   5.888  11.436
34566W        W 1349  32.872   3.687  10.702
34567W        W 1350  29.218  22.160   2.580
34568W        W 1351  15.074  22.133   3.544
34569W        W 1352   6.904  18.581   3.938
34570W        W 1353  35.813  32.856   3.960
34571W        W 1354  44.417  35.883  12.473
34572W        W 1355  43.291  27.968   2.272
34573W        W 1356  17.050  42.953  14.737
34574W        W 1357  36.626  15.807  12.068
34575W        W 1358  44.928  39.212   3.641
34576W        W 1359   8.467  14.563  11.094
34577W        W 1360  21.551  35.108   4.019
34578W        W 1361  22.411   1.323  11.006
34579W        W 1362  23.646   4.008   3.263
34580W        W 1363   8.778  19.629  11.038
34581W        W 1364  27.291  30.329  14.938
34582W        W 1365  34.056  17.334   1.338
34583W        W 1366  43.924   3.205   4.885
34584W        W 1367   5.110  10.304   3.818
34585W        W 1368  29.906   2.506   2.746
34586W        W 1369   5.394   2.343  14.024
34587W        W 1370  14.606  14.652  13.876
34588W        W 1371  17.369  21.197  12.441
34589W        W 1372  20.223  31.128   1.413
34590W        W 1373  16.313  29.683   0.418
34591W        W 1374  12.736  34.024   4.852
34592W        W 1375  23.155  42.261   4.807
34593W        W 1376  33.506  39.626   1.990
34594W        W 1377  36.972  16.151  10.680
34595W        W 1378  16.495   6.442   2.158
34596W        W 1379  22.045   0.267   3.615
34597W        W 1380  24.563   2.355  10.784
34598W        W 1381  13.809  24.571  10.688
34599W        W 1382   0.351  21.531  13.961
34600W        W 1383  38.919  18.185  10.965
34601W        W 1384  32.484  21.019   1.175
34602W        W 1385   3.338   3.195   1.453
34603W        W 1386  40.059   0.467   4.209
34604W        W 1387  18.838   1.039  14.808
34605W        W 1388  15.841  23.731  13.254
34606W        W 1389  16.150  35.137   0.944
34607W        W 1390   2.191  35.021  10.767
34608W        W 1391  14.015  31.495   2.444
34609W        W 1392  29.829  21.478   2.835
34610W        W 1393  16.714  31.118   4.104
34611W        W 1394  16.562  43.978   2.702
34612W        W 1395   8.908  12.617  14.440
34613W        W 1396  31.714   6.320  12.412
34614W        W 1397  29.673   9.720  12.869
34615W        W 1398  12.149   4.862  12.489
34616W        W 1399  14.612  36.138  11.726
34617W        W 1400  18.195  12.619   0.783
34618W        W 1401   0.059   5.484   1.196
34619W        W 1402  33.587  22.732   0.813
34620W        W 1403  33.330  27.706   4.449
34621W        W 1404   8.027  25.609   4.249
34622W        W 1405  23.607   0.713  10.839
34623W        W 1406  24.429  38.442   4.629
34624W        W 1407  21.982   6.966  10.536
34625W        W 1408   6.822  12.150   2.337
34626W        W 1409  32.707  40.361   4.772
34627W        W 1410  33.857  11.245  14.268
34628W        W 1411  13.791   2.367   4.765
34629W        W 1412   6.211  19.521  12.564
34630W        W 1413  19.967  25.257  13.076
34631W        W 1414  10.867   0.358   2.265
34632W        W 1415  35.349   5.007  13.462
34633W        W 1416  12.673   4.882  12.571
34634W        W 1417  33.443  14.234   2.243
34635W        W 1418   6.606  37.789   2.391
34636W        W 1419   7.597  25.070  12.030
34637W        W 1420   2.751  42.927   4.606
34638W        W 1421  43.062   3.871  11.309
34639W        W 1422  26.295  29.584  14.828
34640W        W 1423   8.057   5.392   1.273
34641W        W 1424  32.952  24.897   5.544
34642W        W 1425  19.490  42.413   2.921
34643W        W 1426   4.757   1.172  11.584
34644W        W 1427   3.805  38.075   3.880
34645W        W 1428   0.037   6.327   3.285
34646W        W 1429  36.808   4.331  11.203
34647W        W 1430  10.901   7.055   3.709
34648W        W 1431  26.234  37.661   1.735
34649W        W 1432  44.001  24.599  13.877
34650W        W 1433   8.260  11.734  12.077
34651W        W 1434  17.363  15.579  14.996
34652W        W 1435  26.135  28.171   3.631
34653W        W 1436  16.814  17.088  11.218
34654W        W 1437   1.734  23.239  12.557
34655W        W 1438  43.874  15.734  13.967
34656W        W 1439  42.096  33.928  12.093
34657W        W 1440   1.375  30.580   1.628
34658W        W 1441   6.679   2.762  13.964
34659W        W 1442  40.014  14.279   1.983
34660W        W 1443  39.506  30.874   2.293
34661W        W 1444  19.048  39.618  12.006
34662W        W 1445  13.586   5.587   2.737
34663W        W 1446  18.536   0.576  11.161
34664W        W 1447  38.307   4.778  14.861
34665W        W 1448  19.514  35.204   4.798
34666W        W 1449  34.710  26.855  13.370
34667W        W 1450  20.103   4.512   2.228
34668W        W 1451   0.259  12.696   0.675
34669W        W 1452  13.599  16.576   3.714
34670W        W 1453  12.453   1.245   3.750
34671W        W 1454  16.022  42.546  10.634
34672W        W 1455  36.975  23.166   0.358
34673W        W 1456  36.035  22.753   3.343
34674W        W 1457  28.418   5.008  13.359
34675W        W 1458  14.936  18.783  10.517
34676W        W 1459  38.006  34.586   4.180
34677W        W 1460  13.120  41.787   4.150
34678W        W 1461   6.828  11.664  12.558
34679W        W 1462  18.913  34.537  12.859
34680W        W 1463  17.234  40.045   4.543
34681W        W 1464  31.891  13.094  14.025
34682W        W 1465  24.912  43.844   2.258
34683W        W 1466  38.577  15.892  11.981
34684W        W 1467  11.829   9.106  13.458
34685W        W 1468   1.023   8.337   1.900
34686W        W 1469  21.189  28.727   3.181
34687W        W 1470  30.915  26.126  13.056
34688W        W 1471  28.141  29.096   1.040
34689W        W 1472  19.077  25.063   1.457
34690W        W 1473  39.877  37.416  11.135
34691W        W 1474  21.107  26.784  10.196
34692W        W 1475  36.112  37.048  11.243
34693W        W 1476  18.620  32.147   4.562
34694W        W 1477   3.530   7.843  12.928
34695W        W 1478  18.744  12.388  11.882
34696W        W 1479  39.811  20.238  11.106
34697W        W 1480   8.644  22.268  12.597
34698W        W 1481  14.716   8.539   2.658
34699W        W 1482   2.631  41.010   3.579
34700W        W 1483  23.693   5.955   3.738
34701W        W 1484  25.651   0.242   2.330
34702W        W 1485  18.833  39.550   2.664
34703W        W 1486  22.052  16.441   1.896
34704W        W 1487  16.242   5.708  12.940
34705W        W 1488  37.334  27.854  11.031
34706W        W 1489  10.860   6.383  14.558
34707W        W 1490  34.279  32.233  14.386
34708W        W 1491   3.391  15.253   1.177
34709W        W 1492  21.921  32.520  12.644
34710W        W 1493  12.264   2.381   0.239
34711W        W 1494  43.615  27.015  14.004
34712W        W 1495  31.446   4.875   3.195
34713W        W 1496  32.439   3.891  12.347
34714W        W 1497  23.934  33.428   2.815
34715W        W 1498  18.418  36.959   3.806
34716W        W 1499  21.061   4.727   2.820
34717W        W 1500  35.962   8.085   2.757
34718W        W 1501  22.111  36.037   4.882
34719W        W 1502   8.623  32.434  12.398
34720W        W 1503  21.250  10.187  12.813
34721W        W 1504  31.894  15.495   2.127
34722W        W 1505  44.753   0.060   0.376
34723W        W 1506  35.182  38.825  12.207
34724W        W 1507  16.674  14.146   0.858
34725W        W 1508  39.781  44.483   3.163
34726W        W 1509   0.307  10.598   0.266
34727W        W 1510  11.637  16.889   1.841
34728W        W 1511  11.668  36.306   2.182
34729W        W 1512  37.953  19.610  14.824
34730W        W 1513  34.969   2.442  12.778
34731W        W 1514  15.080  35.421   3.729
34732W        W 1515  27.440  30.492  14.046
34733W        W 1516  33.076  19.564  14.064
34734W        W 1517  25.998   1.790   1.715
34735W        W 1518  12.580   1.837  14.384
34736W        W 1519   0.330  24.119   0.415
34737W        W 1520  18.820  13.661  10.692
34738W        W 1521  43.867  29.742  12.846
34739W        W 1522   5.204  25.191   1.309
34740W        W 1523  20.729   5.303  12.691
34741W        W 1524  33.399  10.367  14.519
34742W        W 1525   9.883  38.400  12.451
34743W        W 1526   5.897   3.651   2.916
34744W        W 1527  19.008  17.555  10.230
34745W        W 1528  44.116  35.495   1.951
34746W        W 1529  18.456  29.931  14.871
34747W        W 1530  43.006  12.569   1.317
34748W        W 1531  44.903  22.459  10.774
34749W        W 1532   8.296  15.877  11.438
34750W        W 1533  44.955  19.550  13.039
34751W        W 1534  28.742  41.885   2.608
34752W        W 1535  26.969  43.571  12.474
34753W        W 1536  40.339  41.541   2.965
34754W        W 1537   5.196  23.080  11.714
34755W        W 1538  12.214   3.978  10.707
34756W        W 1539   8.540  44.202  14.235
34757W        W 1540  18.419  39.822  13.150
34758W        W 1541   9.785  38.368   0.252
34759W        W 1542  36.977  21.995   4.797
34760W        W 1543   7.471   3.335   4.553
34761W        W 1544  38.344  21.550  14.806
34762W        W 1545  23.615  18.013  13.981
34763W        W 1546  15.453  21.677   4.241
34764W        W 1547  27.671  24.081   2.820
34765W        W 1548  13.432  34.616   0.429
34766W        W 1549  20.230   4.501  11.093
34767W        W 1550  23.702  40.446   5.013
34768W        W 1551  32.183  12.570  13.005
34769W        W 1552  41.835  41.940   0.666
34770W        W 1553   8.222   1.230   4.481
34771W        W 1554   7.971   2.694  12.036
34772W        W 1555   2.321  35.100   3.311
34773W        W 1556  15.184  43.224   0.793
34774W        W 1557  12.275  12.656  10.604
34775W        W 1558  36.658  41.891   2.375
34776W        W 1559   8.631  19.565  14.763
34777W        W 1560  23.160   5.787  12.134
34778W        W 1561  31.550  43.074   2.870
34779W        W 1562  38.921  33.519   3.693
34780W        W 1563  31.448  32.517  14.695
34781W        W 1564  11.611  34.507   4.965
34782W        W 1565  34.949  37.778   4.957
34783W        W 1566  15.068  41.886   3.604
34784W        W 1567  15.224  10.595   2.416
34785W        W 1568  17.746  43.450  13.468
34786W        W 1569  19.135  38.977   2.679
34787W        W 1570  17.151  22.572   4.569
34788W        W 1571  13.568  14.622   2.943
34789W        W 1572   2.480  42.865  12.470
34790W        W 1573  19.417  24.913  14.780
34791W        W 1574  21.647  27.014   0.187
34792W        W 1575  29.223  33.131   4.855
34793W        W 1576  23.631  43.941  11.209
34794W        W 1577   0.171   7.662  10.683
34795W        W 1578  38.052  21.757  12.594
34796W        W 1579  17.269   1.984   0.301
34797W        W 1580   0.027   0.839  11.684
34798W        W 1581  24.889  32.882  11.148
34799W        W 1582  12.822  33.986  12.078
34800W        W 1583   8.351   3.822  11.041
34801W        W 1584   1.600   4.282  10.638
34802W        W 1585  42.360   0.500  13.952
34803W        W 1586  31.440  27.693  13.396
34804W        W 1587  25.625  16.852   2.818
34805W        W 1588  19.003  23.955   3.389
34806W        W 1589  15.619  16.609   4.157
34807W        W 1590   6.184  11.661  14.568
34808W        W 1591   0.951  42.542  10.672
34809W        W 1592  20.836  25.536   2.419
34810W        W 1593  33.425  10.811   4.680
34811W        W 1594  19.775   1.741   4.111
34812W        W 1595  27.040  30.830   4.991
34813W        W 1596  10.743   9.845  10.494
34814W        W 1597  44.065   2.720   4.075
34815W        W 1598   2.961  43.598  12.134
34816W        W 1599  35.053  14.302  10.936
34817W        W 1600  13.784  37.930  14.928
34818W        W 1601  25.751   3.249   4.100
34819W        W 1602  29.014  24.483   3.770
34820W        W 1603  10.494  28.459   1.775
34821W        W 1604   4.045  17.265  14.027
34822W        W 1605   5.210  35.970   1.263
34823W        W 1606  34.884  42.373  12.994
34824W        W 1607  29.617  15.872   0.445
34825W        W 1608  12.647  28.485  12.695
34826W        W 1609  38.864  41.047   0.357
34827W        W 1610  18.083  23.406  12.866
34828W        W 1611  38.751  33.181  11.947
34829W        W 1612   1.088  38.790   1.857
34830W        W 1613  42.940  21.205  12.958
34831W        W 1614  21.079  14.102   0.925
34832W        W 1615  14.633  23.915   4.452
34833W        W 1616   8.374  39.847  14.897
34834W        W 1617  23.212  35.115   0.363
34835W        W 1618   0.881  42.451   1.367
34836W        W 1619  34.694  13.643   1.464
34837W        W 1620  12.122   3.445  13.579
34838W        W 1621  21.563  28.364   3.226
34839W        W 1622  37.320  15.620  13.483
34840W        W 1623   3.862  37.018   0.967
34841W        W 1624   4.278   9.875   1.377
34842W        W 1625   7.417  43.807  12.872
34843W        W 1626  41.039   5.955   2.451
34844W        W 1627  18.992  41.139  12.106
34845W        W 1628   5.690   0.225   1.398
34846W        W 1629  33.097  35.103  11.162
34847W        W 1630  21.626  13.548  12.500
34848W        W 1631  37.441   2.372  13.063
34849W        W 1632  12.378  20.384   2.130
34850W        W 1633  30.121  14.621   4.107
34851W        W 1634  41.763  14.722   2.813
34852W        W 1635   4.091  41.936  11.732
34853W        W 1636  35.109  36.871  12.216
34854W        W 1637  28.198  21.504  12.884
34855W        W 1638  21.026  30.943   1.734
34856W        W 1639  26.664  14.620   0.835
34857W        W 1640  16.863  15.693  14.221
34858W        W 1641  43.954  34.973  12.144
34859W        W 1642  25.816  34.955   2.806
34860W        W 1643  10.617  18.653  13.039
34861W        W 1644  20.423  44.513   3.636
34862W        W 1645  43.183  39.108   1.724
34863W        W 1646  29.546  22.259   3.333
34864W        W 1647  35.631  42.708   0.887
34865W        W 1648   7.884  13.372   2.913
34866W        W 1649  43.736  10.825   2.020
34867W        W 1650  19.581  22.055  11.557
34868W        W 1651   5.006  36.903  13.473
34869W        W 1652  13.285   7.745   2.108
34870W        W 1653  13.826  38.745   4.152
34871W        W 1654  19.823  18.014   4.577
34872W        W 1655  19.261   6.061  13.222
34873W        W 1656  30.146  28.232  11.512
34874W        W 1657  12.646  23.801   1.444
34875W        W 1658  28.061   3.220   4.086
34876W        W 1659  34.440   3.454   1.264
34877W        W 1660  10.337  25.265  13.318
34878W        W 1661  12.002  21.122   4.752
34879W        W 1662  38.166   6.416  13.537
34880W        W 1663   1.691   3.142  13.857
34881W        W 1664  33.834   6.310  11.658
34882W        W 1665  13.622  12.463   2.575
34883W        W 1666  34.439  37.818   2.244
34884W        W 1667  33.449  32.429  14.030
34885W        W 1668  39.472  33.689   2.046
34886W        W 1669  24.984  24.695   2.229
34887W        W 1670  26.049  37.724  12.157
34888W        W 1671  19.660   1.824  13.586
34889W        W 1672  17.256  11.398  10.506
34890W        W 1673  38.825  24.180   4.736
34891W        W 1674  32.442  33.980   4.700
34892W        W 1675   2.974  24.289   1.721
34893W        W 1676  35.054  32.715  13.439
34894W        W 1677  15.362   3.258  13.164
34895W        W 1678  16.121  44.526   3.301
34896W        W 1679  26.055  16.552   2.667
34897W        W 1680  25.377  43.314   1.220
34898W        W 1681  24.045  31.399  11.458
34899W        W 1682  43.203  22.095  12.363
34900W        W 1683  20.964   0.474  12.479
34901W        W 1684  32.795  25.475   0.387
34902W        W 1685  12.062  20.581   0.111
34903W        W 1686  13.101  27.090  13.306
34904W        W 1687  14.540  18.707  12.857
34905W        W 1688  20.608  31.869   0.291
34906W        W 1689  10.863  22.227   4.096
34907W        W 1690  11.827  11.631  12.436
34908W        W 1691  23.749  13.679  10.797
34909W        W 1692   5.430  39.994   4.090
34910W        W 1693   7.957  16.208   4.558
34911W        W 1694  37.132  16.728   3.405
34912W        W 1695  33.712  41.016  13.208
34913W        W 1696   9.869  17.817   4.577
34914W        W 1697   6.914  17.806   3.190
34915W        W 1698  43.628  39.468   2.846
34916W        W 1699  12.018  18.210   4.016
34917W        W 1700  29.557  40.193  13.079
34918W        W 1701  38.996   2.795   3.695
34919W        W 1702  31.010  19.172  10.666
34920W        W 1703  11.754  37.533  12.979
34921W        W 1704  39.321  15.789  10.758
34922W        W 1705  37.962  38.889   4.278
34923W        W 1706  41.254  26.024   2.542
34924W        W 1707  38.611  19.995  12.935
34925W        W 1708  10.471   2.315  10.562
34926W        W 1709   5.049  10.479   5.048
34927W        W 1710   8.264   3.535  14.548
34928W        W 1711   0.349   1.557  11.153
34929W        W 1712   1.340   1.641  14.999
34930W        W 1713  27.013   2.480   4.866
34931W        W 1714   9.308  19.598  14.114
34932W        W 1715  27.047   9.608   1.290
34933W        W 1716  16.691  31.507   0.344
34934W        W 1717  44.802   1.915  11.142
34935W        W 1718  42.046  18.988  10.356
34936W        W 1719   7.338   1.015   2.437
34937W        W 1720  18.828  26.498   1.146
34938W        W 1721   5.201  10.780  11.666
34939W        W 1722  39.907  25.672  13.317
34940W        W 1723  33.146  27.949  12.325
34941W        W 1724  12.681  12.119   3.780
34942W        W 1725  34.172  40.303  11.222
34943W        W 1726  15.703  34.499  14.052
34944W        W 1727   9.543   9.687   3.047
34945W        W 1728  13.359   1.415  11.995
34946W        W 1729   2.919  26.144  12.920
34947W        W 1730   5.319  31.672  10.441
34948W        W 1731  26.122  30.919  13.627
34949W        W 1732   0.711  30.624   3.851
34950W        W 1733  28.423  14.111  13.404
34951W        W 1734  17.639  12.202   1.393
34952W        W 1735   1.316  17.464   3.264
34953W        W 1736  27.193  10.318  12.633
34954W        W 1737  18.024   1.220   1.628
34955W        W 1738  29.847  16.520   0.737
34956W        W 1739   3.256  13.612  13.086
34957W        W 1740  11.251  10.740   2.850
34958W        W 1741  12.772   8.154   3.123
34959W        W 1742  14.733  35.427  13.957
34960W        W 1743  29.359  12.897   3.167
34961W        W 1744   8.919  38.211  10.565
34962W        W 1745  36.500  42.975   5.002
34963W        W 1746  25.012  34.343  11.126
34964W        W 1747   9.800  10.831  10.699
34965W        W 1748  44.272  35.406   3.438
34966W        W 1749  19.944   3.331  12.636
34967W        W 1750  41.031  30.767  14.461
34968W        W 1751  19.184   7.556   0.245
34969W        W 1752  29.878  12.171  14.961
34970W        W 1753  31.255  42.880   4.597
34971W        W 1754  23.503  37.668   2.787
34972W        W 1755   1.339  11.079   2.695
34973W        W 1756  35.904  44.538   9.978
34974W        W 1757  36.448   2.422  11.220
34975W        W 1758  20.831   1.269   3.032
34976W        W 1759   4.081   1.360  11.135
34977W        W 1760  29.198  27.677   2.185
34978W        W 1761   7.294  30.685   1.821
34979W        W 1762  41.748   5.890   3.828
34980W        W 1763  26.249  25.638  13.496
34981W        W 1764  11.067   2.801  13.997
34982W        W 1765  30.974  26.031   2.322
34983W        W 1766  42.870   7.949  13.226
34984W        W 1767  28.701  22.243   2.729
34985W        W 1768  31.209  18.088   3.218
34986W        W 1769  29.266  44.395  13.968
34987W        W 1770  19.619  18.203  11.088
34988W        W 1771  39.059  25.323   0.055
34989W        W 1772  42.641  14.733   0.813
34990W        W 1773  25.462  38.915   0.356
34991W        W 1774  16.692  27.878   1.016
34992W        W 1775  39.064  19.622  11.142
34993W        W 1776  39.279  35.375  14.447
34994W        W 1777   6.425  14.089   0.977
34995W        W 1778   8.120  30.430   3.233
34996W        W 1779  30.988  30.609   0.411
34997W        W 1780   9.580   5.415   1.776
34998W        W 1781  12.729  10.778  13.430
34999W        W 1782  44.514   8.655   2.813
35000W        W 1783  22.216  21.137   2.881
35001W        W 1784   7.296  24.272  13.743
35002W        W 1785  25.305  23.471  11.134
35003W        W 1786  38.383   5.718  13.047
35004W        W 1787   3.531  27.525   0.560
35005W        W 1788  27.237   8.240  14.841
35006W        W 1789  23.372  39.904   9.656
35007W        W 1790  16.287  44.319  14.428
35008W        W 1791  41.476  30.011  11.646
35009W        W 1792  32.472  41.928   2.583
35010W        W 1793  22.784  22.428   3.771
35011W        W 1794  11.174  43.496  12.506
35012W        W 1795   8.887  41.049   0.065
35013W        W 1796  36.355  36.434   2.731
35014W        W 1797   8.185  35.524   1.858
35015W        W 1798  29.531  26.425   2.906
35016W        W 1799   1.028  22.274  14.096
35017W        W 1800  30.070   3.231   4.689
35018W        W 1801   4.963  24.935   3.650
35019W        W 1802   7.429  11.079   0.447
35020W        W 1803  28.975  41.462   2.409
35021W        W 1804  12.783  40.761   3.625
35022W        W 1805   5.730   6.294  11.258
35023W        W 1806  43.490  41.495   2.822
35024W        W 1807  26.537  17.241  11.268
35025W        W 1808  25.044  29.957   4.135
35026W        W 1809   7.247   5.286   4.499
35027W        W 1810  15.794  34.134  13.672
35028W        W 1811  32.480  38.939   0.309
35029W        W 1812  25.252  36.961  12.981
35030W        W 1813  16.915  21.677  14.436
35031W        W 1814  12.141  39.642   2.402
35032W        W 1815  21.469  40.200   2.396
35033W        W 1816  32.222  25.907   1.359
35034W        W 1817  16.338  34.354   4.544
35035W        W 1818  39.979  32.638   2.597
35036W        W 1819  12.286  37.734   1.903
35037W        W 1820  33.802  35.551   0.347
35038W        W 1821  36.011  16.236  10.830
35039W        W 1822  11.041  19.367   3.424
35040W        W 1823  43.352  23.475   4.943
35041W        W 1824   2.086   4.909  11.024
35042W        W 1825  12.305   9.624  14.330
35043W        W 1826  25.834   5.097   5.074
35044W        W 1827   7.696  21.516   3.131
35045W        W 1828  43.803  15.902   1.582
35046W        W 1829  41.552   7.878   3.261
35047W        W 1830  19.726  27.909   0.885
35048W        W 1831  20.106  36.521  14.226
35049W        W 1832   7.710  16.822   0.923
35050W        W 1833  23.398   6.598   1.957
35051W        W 1834  15.657  43.771  13.992
35052W        W 1835   7.345  38.957  14.831
35053W        W 1836   3.143  24.627  14.861
35054W        W 1837  17.240  42.161   3.863
35055W        W 1838  25.983   1.918  11.769
35056W        W 1839  36.053  26.844   5.053
35057W        W 1840   5.981  18.580  10.487
35058W        W 1841  24.574  31.749   1.033
35059W        W 1842  14.204  15.680   1.087
35060W        W 1843  31.969  37.772  13.860
35061W        W 1844  17.221   4.127   3.738
35062W        W 1845  36.095  19.190  11.644
35063W        W 1846   9.672  18.770   3.807
35064W        W 1847  34.616   5.705  14.157
35065W        W 1848   5.393  27.431   1.008
35066W        W 1849  16.232  38.445  10.764
35067W        W 1850  39.909  21.676   4.106
35068W        W 1851  19.661  38.534   0.811
35069W        W 1852  13.180  14.065  13.960
35070W        W 1853   0.925  40.997   2.345
35071W        W 1854   1.400  30.151  12.374
35072W        W 1855  25.177   0.466   1.321
35073W        W 1856  12.992  10.452   0.898
35074W        W 1857  42.298  11.282  12.028
35075W        W 1858   2.981  40.778  11.620
35076W        W 1859   5.056  15.993  12.039
35077W        W 1860  24.070  22.632  11.120
35078W        W 1861  29.342  16.634   3.154
35079W        W 1862  39.775  27.063  13.899
35080W        W 1863  37.380  23.172   1.239
35081W        W 1864  15.992   4.770  14.531
35082W        W 1865  20.177  44.283  11.538
35083W        W 1866  41.803  17.421   3.564
35084W        W 1867  42.749  35.131   2.828
35085W        W 1868   1.513  23.593   4.254
35086W        W 1869  23.987  43.855   2.028
35087W        W 1870  36.668   0.114   3.940
35088W        W 1871  21.755  30.054  13.361
35089W        W 1872   3.537  44.287   0.152
35090W        W 1873  44.789  28.845  12.084
35091W        W 1874  31.606  14.998   1.697
35092W        W 1875  42.712  42.880  13.795
35093W        W 1876  34.101   5.797  14.093
35094W        W 1877  17.005  42.972   3.376
35095W        W 1878   4.973  15.561  10.400
35096W        W 1879  29.501  43.937  13.832
35097W        W 1880  12.625   3.775  11.024
35098W        W 1881  24.122  27.675   2.191
35099W        W 1882   3.141   0.419   2.113
35100W        W 1883  34.142  43.578   3.060
35101W        W 1884   0.345  39.121  11.207
35102W        W 1885  41.171  33.142  12.444
35103W        W 1886   0.828   4.351  11.384
35104W        W 1887  18.686  41.733  11.597
35105W        W 1888  44.769  18.264   4.338
35106W        W 1889   0.309   1.501  13.426
35107W        W 1890  21.135  31.441   1.943
35108W        W 1891  28.455  41.329   1.780
35109W        W 1892  14.336  22.767  12.894
35110W        W 1893  36.877  34.890  11.567
35111W        W 1894  41.089  30.688  11.168
35112W        W 1895  36.714   0.359   4.414
35113W        W 1896  40.381  18.757   1.406
35114W        W 1897  12.417  43.369   2.327
35115W        W 1898  11.715  36.625  11.941
35116W        W 1899  20.910  19.069  10.672
35117W        W 1900   2.460  31.557   1.431
35118W        W 1901   8.605  32.466  12.905
35119W        W 1902   3.294  22.927  14.821
35120W        W 1903  20.054  25.783  13.057
35121W        W 1904  25.393  30.143   3.224
35122W        W 1905  23.587   8.134   3.405
35123W        W 1906  11.829   3.604  10.745
35124W        W 1907  16.159  33.476   3.257
35125W        W 1908   9.082  37.299   2.510
35126W        W 1909  23.749  30.562  12.523
35127W        W 1910   5.530  28.055   1.687
35128W        W 1911   8.627  10.281  13.021
35129W        W 1912  23.257  32.071  12.984
35130W        W 1913  39.009  16.404   0.856
35131W        W 1914  30.741  32.677  12.140
35132W        W 1915   8.437  10.739  11.854
35133W        W 1916   0.780  41.997  14.151
35134W        W 1917  16.594  40.750   1.247
35135W        W 1918  19.033  23.765  10.684
35136W        W 1919   1.698  35.730   0.377
35137W        W 1920  11.786  17.227  12.934
35138W        W 1921  44.199  39.015   3.595
35139W        W 1922   2.262  13.293   3.214
35140W        W 1923  20.950  23.808   0.651
35141W        W 1924  31.509  23.788  11.085
35142W        W 1925   2.009  33.456   0.094
35143W        W 1926  17.657  33.166  14.988
35144W        W 1927  40.172   0.469  14.454
35145W        W 1928  10.787  32.447  14.726
35146W        W 1929  44.148  37.437  10.960
35147W        W 1930  35.150  22.507   3.245
35148W        W 1931   9.971   4.467  14.425
35149W        W 1932  31.163  32.391   3.398
35150W        W 1933  42.404  29.975   4.151
35151W        W 1934  14.402  11.566   1.937
35152W        W 1935  44.095  37.414   2.659
35153W        W 1936  31.891  29.737   0.790
35154W        W 1937  12.497  36.584  11.290
35155W        W 1938  12.856  10.888  11.416
35156W        W 1939  27.036   3.181   1.254
35157W        W 1940  13.161  34.738   4.213
35158W        W 1941   0.248   2.388   1.208
35159W        W 1942  11.405  10.917   1.719
35160W        W 1943  37.580  33.526   1.777
35161W        W 1944   9.140  36.350   4.074
35162W        W 1945  38.517  14.548   2.216
35163W        W 1946   9.900  20.259   3.682
35164W        W 1947  44.292  26.445   3.618
35165W        W 1948  19.582  11.037  14.354
35166W        W 1949  42.534   7.835  13.916
35167W        W 1950  27.394  15.241   2.948
35168W        W 1951  35.061  35.515   0.060
35169W        W 1952  31.445   8.200  10.327
35170W        W 1953  11.790  32.900  11.929
35171W        W 1954   6.333  24.193   3.420
35172W        W 1955   1.330  13.556  13.381
35173W        W 1956  15.107  26.620   1.905
35174W        W 1957  44.693  36.513  13.714
35175W        W 1958   7.158   2.449   1.245
35176W        W 1959  43.431  29.606   1.273
35177W        W 1960  10.418  32.380  12.362
35178W        W 1961  18.081  10.698   1.643
35179W        W 1962  44.952  12.911  13.842
35180W        W 1963  31.102  24.274   2.708
35181W        W 1964  12.087   2.988  12.103
35182W        W 1965  38.536  32.394   0.709
35183W        W 1966   0.505   7.939   2.744
35184W        W 1967  20.784  34.977   2.318
35185W        W 1968   4.247  40.491   2.238
35186W        W 1969  38.635  22.720  12.065
35187W        W 1970  26.660   5.647   3.267
35188W        W 1971   1.466  29.545   1.849
35189W        W 1972   2.798  17.746   1.743
35190W        W 1973  40.797   5.192  12.455
35191W        W 1974  10.373  34.091   2.768
35192W        W 1975  27.277  17.672  12.958
35193W        W 1976  29.360   3.692   0.418
35194W        W 1977  39.603  25.729  11.049
35195W        W 1978  14.073   7.119  14.410
35196W        W 1979  39.658  44.754   1.914
35197W        W 1980  17.888   9.660  11.353
35198W        W 1981  37.444  12.861   2.223
35199W        W 1982  23.700  44.178  12.998
35200W        W 1983   3.202   7.315   4.742
35201W        W 1984  32.986  35.116  13.297
35202W        W 1985  25.260   2.802   2.221
35203W        W 1986   3.134  41.947  14.797
35204W        W 1987   7.584  44.380   1.824
35205W        W 1988  14.768  14.741  13.345
35206W        W 1989   5.155  39.336   0.354
35207W        W 1990  19.749  25.475   3.631
35208W        W 1991  27.081   3.875  13.695
35209W        W 1992   4.262  35.276   0.356
35210W        W 1993  28.117   6.955   4.540
35211W        W 1994  20.359  15.829  10.283
35212W        W 1995  20.297  36.997  10.768
35213W        W 1996  10.568  29.734   0.705
35214W        W 1997   5.277  38.014   1.867
35215W        W 1998  29.678   2.320   2.289
35216W        W 1999  16.045  15.884   4.103
35217W        W 2000   3.829  17.672   4.397
35218W        W 2001  40.087  20.566  13.961
35219W        W 2002  38.477   7.162   1.325
35220W        W 2003  38.772  28.608  10.680
35221W        W 2004  39.932  30.685  13.543
35222W        W 2005  28.233   4.322  13.057
35223W        W 2006   2.470  37.327  11.468
35224W        W 2007  29.955   7.124   1.768
35225W        W 2008  17.136  16.124   0.885
35226W        W 2009  36.987   3.708   1.771
35227W        W 2010   8.297  31.140  12.574
35228W        W 2011  23.972  15.305  13.978
35229W        W 2012  10.137   5.796  14.695
35230W        W 2013  41.836  25.739   0.439
35231W        W 2014  34.229  42.748   2.491
35232W        W 2015  20.530  39.500  14.642
35233W        W 2016   1.977  18.307  13.912
35234W        W 2017  25.300  27.630  14.730
35235W        W 2018  29.624  43.347   3.213
35236W        W 2019   2.784  26.120   0.616
35237W        W 2020  12.134  15.842   0.033
35238W        W 2021  41.432  27.553   3.868
35239W        W 2022  23.683  16.796  10.694
35240W        W 2023  27.115  21.114   3.462
35241W        W 2024  31.909   2.054  12.369
35242W        W 2025  41.487  25.671  13.353
35243W        W 2026  33.510  16.664  10.791
35244W        W 2027  28.432   5.414  14.849
35245W        W 2028  29.583  25.370  10.819
35246W        W 2029  31.148  43.918   4.612
35247W        W 2030   7.649  21.233  11.194
35248W        W 2031   9.523  39.597   3.185
35249W        W 2032  15.110   7.232  11.428
35250W        W 2033  36.916   8.573   0.465
35251W        W 2034   7.980  10.129  12.141
35252W        W 2035  10.101  14.153  12.213
35253W        W 2036  36.657  42.897  13.014
35254W        W 2037  42.544  22.475   2.738
35255W        W 2038  27.665  16.037   4.819
35256W        W 2039   1.362   9.879  14.332
35257W        W 2040   5.413   7.623   3.388
35258W        W 2041  44.883  11.658  13.545
35259W        W 2042  17.669  29.451  12.524
35260W        W 2043   7.798  38.000   3.910
35261W        W 2044  39.434  41.958  11.203
35262W        W 2045   6.179  44.813   2.688
35263W        W 2046  17.286  36.103  13.010
35264W        W 2047   9.882  18.143   0.719
35265W        W 2048  22.197  39.470  11.276
35266W        W 2049  16.790   0.872   1.669
35267W        W 2050  25.466  39.382  14.830
35268W        W 2051  14.309  19.134   2.417
35269W        W 2052  41.482  22.124   2.289
35270W        W 2053  30.564  37.247  10.650
35271W        W 2054   5.395  25.151   3.354
35272W        W 2055  19.323  10.300  14.949
35273W        W 2056  28.193   1.403  10.162
35274W        W 2057  31.094  39.801   1.849
35275W        W 2058   4.895  40.277  12.884
35276W        W 2059  27.805   8.273   4.319
35277W        W 2060  35.670  16.793   3.866
35278W        W 2061   9.836  31.931   3.042
35279W        W 2062   0.217  20.230  13.572
35280W        W 2063   6.249  43.043   1.010
35281W        W 2064  19.136  33.769  13.722
35282W        W 2065   6.410   1.123   1.503
35283W        W 2066  25.714   1.323  12.479
35284W        W 2067  11.083  22.682   3.334
35285W        W 2068  13.171  24.210  14.622
35286W        W 2069  11.567  40.547   3.583
35287W        W 2070  30.231  13.137  12.027
35288W        W 2071  44.683  35.618  14.624
35289W        W 2072  38.955   9.310  14.419
35290W        W 2073  29.731  20.139  14.276
35291W        W 2074  39.391  41.089  12.488
35292W        W 2075  14.322  26.521  13.316
35293W        W 2076  37.485   6.169   2.206
35294W        W 2077  30.929  40.289   1.770
35295W        W 2078  17.655   2.186   3.212
35296W        W 2079   2.869  38.037   1.467
35297W        W 2080   1.446  12.328   1.963
35298W        W 2081   3.450   6.857  13.953
35299W        W 2082  22.675   6.317   3.296
35300W        W 2083  39.242   9.185  13.445
35301W        W 2084  21.029  19.190   3.201
35302W        W 2085  17.586   3.885   4.935
35303W        W 2086  21.503  29.007   3.517
35304W        W 2087   4.057  31.439  11.132
35305W        W 2088   0.396  10.606   4.105
35306W        W 2089   3.668   9.136  13.970
35307W        W 2090   7.844   2.847   1.293
35308W        W 2091  12.664  27.992  10.477
35309W        W 2092  24.958  10.171  11.242
35310W        W 2093  17.132   1.256  11.527
35311W        W 2094  29.584  18.765  10.275
35312W        W 2095  28.789  21.883  13.314
35313W        W 2096  17.412  26.554  12.649
35314W        W 2097  40.858   9.854   4.620
35315W        W 2098  17.385   3.324   4.103
35316W        W 2099   5.365  34.146  11.148
35317W        W 2100  38.638   8.640  10.684
35318W        W 2101  20.537  40.354   1.500
35319W        W 2102  41.784  33.678   2.233
35320W        W 2103  39.945  36.974  13.790
35321W        W 2104  20.574  30.940   0.367
35322W        W 2105  44.211  17.781   4.122
35323W        W 2106  15.512   7.815  10.792
35324W        W 2107  37.075   4.808  11.101
35325W        W 2108  20.201   3.871  13.902
35326W        W 2109   1.482  33.810  12.366
35327W        W 2110  38.116  36.496   2.418
35328W        W 2111  12.031   0.191  13.901
35329W        W 2112   9.167  36.922  12.399
35330W        W 2113  14.430  38.783  11.846
35331W        W 2114   4.426  35.957   4.581
35332W        W 2115  21.482  18.268   3.288
35333W        W 2116  38.072  31.144  13.420
35334W        W 2117  12.330  25.993   1.245
35335W        W 2118  29.451  35.158   2.730
35336W        W 2119  31.501  20.017   4.590
35337W        W 2120  41.240  34.543  12.921
35338W        W 2121  10.871  27.628   2.028
35339W        W 2122   3.840   7.597  10.902
35340W        W 2123  31.225   1.424  10.409
35341W        W 2124  21.493  21.464   3.621
35342W        W 2125  34.163   7.500   3.302
35343W        W 2126  29.477  13.938   4.053
35344W        W 2127  26.256  26.533   2.901
35345W        W 2128  27.232   3.681  11.458
35346W        W 2129   6.772  41.618   4.779
35347W        W 2130  42.820  22.204  13.278
35348W        W 2131  17.805   8.379  10.709
35349W        W 2132   7.896  30.031  14.942
35350W        W 2133  14.532   8.804   4.658
35351W        W 2134  24.670  23.143  12.136
35352W        W 2135  34.665  44.069  13.856
35353W        W 2136  12.320  19.569   0.281
35354W        W 2137  36.852  26.604   2.366
35355W        W 2138  24.402  41.256  12.772
35356W        W 2139  22.209  17.576  11.857
35357W        W 2140  17.073   3.748   4.965
35358W        W 2141   3.867   8.911  11.965
35359W        W 2142  10.663   8.918  11.433
35360W        W 2143   4.899  16.662   4.624
35361W        W 2144  24.139  23.916   9.859
35362W        W 2145   3.769  25.365  14.435
35363W        W 2146  36.053   6.600  12.849
35364W        W 2147  16.142  10.341  13.497
35365W        W 2148  16.656  34.678  12.926
35366W        W 2149  40.948  40.919   1.385
35367W        W 2150  32.223  30.729  11.119
35368W        W 2151  34.831  43.344   3.733
35369W        W 2152  16.788   5.939   2.715
35370W        W 2153  31.086  38.823  13.538
35371W        W 2154   5.283   3.186  10.507
35372W        W 2155  22.777  30.388   1.699
35373W        W 2156  32.384   9.283   3.588
35374W        W 2157  25.037  30.648  10.570
35375W        W 2158  10.705  20.585  11.727
35376W        W 2159  27.699  40.539  10.773
35377W        W 2160   9.276  14.401  14.284
35378W        W 2161  19.188  33.477   1.559
35379W        W 2162   1.276  19.172   2.221
35380W        W 2163  44.377  17.652   3.663
35381W        W 2164  20.557   2.394   9.806
35382W        W 2165  17.289  11.632   0.773
35383W        W 2166  12.624   1.872  11.552
35384W        W 2167   1.370  36.568   1.291
35385W        W 2168   1.280   5.848  12.054
35386W        W 2169  32.311  17.388   5.059
35387W        W 2170  26.099  44.933  12.535
35388W        W 2171  34.586  32.652   4.024
35389W        W 2172  23.083  28.162   1.488
35390W        W 2173  17.270  20.304  13.227
35391W        W 2174  15.274  33.388  13.417
35392W        W 2175   3.892  41.838  11.278
35393W        W 2176  40.862  26.894   2.860
35394W        W 2177  24.697  24.756  14.416
35395W        W 2178  12.700  22.510   2.451
35396W        W 2179   0.607  23.061   3.503
35397W        W 2180  14.166  24.688  14.845
35398W        W 2181  24.105  15.443   3.227
35399W        W 2182   0.370  11.240  12.072
35400W        W 2183  25.036  44.038  12.373
35401W        W 2184  30.715  18.370  10.724
35402W        W 2185   9.813  32.345   1.198
35403W        W 2186  43.031  14.346  10.069
35404W        W 2187  19.768  41.992  13.830
35405W        W 2188   8.241  28.401  13.483
35406W        W 2189  26.015   7.956   1.751
35407W        W 2190  14.260  42.224  14.175
35408W        W 2191  15.463  41.852  11.136
35409W        W 2192   5.486   1.801   4.477
35410W        W 2193   9.507  27.408   0.266
35411W        W 2194  31.961  36.844   4.679
35412W        W 2195  34.342  21.770  14.168
35413W        W 2196  30.167  35.011  13.015
35414W        W 2197  13.182  38.038  13.793
35415W        W 2198  28.527  41.391  14.480
35416W        W 2199   0.754  18.299  14.370
35417W        W 2200  16.051   3.806   3.521
35418W        W 2201  13.781  10.753  14.288
35419W        W 2202   3.285  27.502  12.005
35420W        W 2203  29.464  12.248  11.187
35421W        W 2204  37.018  11.253   0.935
35422W        W 2205  28.973  26.077   2.681
35423W        W 2206   4.732  34.024  12.811
35424W        W 2207  31.241  35.389   3.584
35425W        W 2208  26.710  13.522   2.405
35426W        W 2209  44.505   6.801   2.679
35427W        W 2210  17.574  20.737   3.659
35428W        W 2211  15.841   4.816   4.531
35429W        W 2212  28.510  40.466   3.053
35430W        W 2213  13.187  10.696   1.665
35431W        W 2214   6.660   7.831   2.675
35432W        W 2215  33.642  42.229  14.773
35433W        W 2216  15.712  28.505   0.468
35434W        W 2217  11.448  33.804  12.438
35435W        W 2218  44.770   9.226   3.555
35436W        W 2219   2.246  37.503   4.189
35437W        W 2220  18.645   2.738   4.055
35438W        W 2221  38.568  17.675   3.480
35439W        W 2222  41.884  33.554  10.543
35440W        W 2223  43.377  32.822   3.982
35441W        W 2224  32.281  38.524   4.911
35442W        W 2225  30.350  32.869  13.116
35443W        W 2226  42.032  30.019  12.037
35444W        W 2227  20.336  20.922   5.034
35445W        W 2228  11.808  14.631  13.984
35446W        W 2229   2.963  32.624   0.302
35447W        W 2230   2.197  38.175  11.167
35448W        W 2231   7.530   7.399   1.928
35449W        W 2232   6.432  22.714   2.943
35450W        W 2233  25.910   6.011  13.459
35451W        W 2234   2.350  28.344  13.655
35452W        W 2235  40.074  29.441   4.713
35453W        W 2236  19.262  41.862  11.671
35454W        W 2237   2.223  22.645   2.782
35455W        W 2238   3.807  36.861   0.462
35456W        W 2239  32.171   6.405  10.764
35457W        W 2240  26.169  38.372  14.718
35458W        W 2241  17.661  31.392  13.838
35459W        W 2242  33.917  18.228  11.173
35460W        W 2243  36.502  38.197  12.871
35461W        W 2244  16.745   2.210  12.955
35462W        W 2245  19.499   7.765   3.750
35463W        W 2246  11.281  19.302  14.141
35464W        W 2247  16.237  25.557  14.495
35465W        W 2248  28.522  27.609   2.845
35466W        W 2249  21.175  36.075   0.589
35467W        W 2250  23.258  23.666   3.687
35468W        W 2251  19.212  29.493   2.263
35469W        W 2252  12.520  25.974  13.472
35470W        W 2253  26.095   3.556   0.201
35471W        W 2254  27.368  32.666   4.257
35472W        W 2255  36.422   2.311   4.158
35473W        W 2256  13.873  34.695   2.299
35474W        W 2257  31.416  34.123  13.126
35475W        W 2258  25.455  40.808  13.373
35476W        W 2259  44.400  26.361   2.339
35477W        W 2260  41.359  28.970  14.351
35478W        W 2261  36.943   7.742   0.192
35479W        W 2262   4.990  33.491  14.878
35480W        W 2263  22.695  10.764   1.299
35481W        W 2264  33.820  14.201   3.214
35482W        W 2265  40.568  37.194  12.913
35483W        W 2266  41.628   5.707   4.301
35484W        W 2267   7.249  24.424   1.863
35485W        W 2268  35.889  42.256   0.955
35486W        W 2269  43.892   7.240   3.354
35487W        W 2270  13.931  30.647  11.943
35488W        W 2271  12.605  23.520   4.507
35489W        W 2272  38.600  42.887   1.793
35490W        W 2273  20.713  27.325   1.716
35491W        W 2274  18.055  21.992  14.315
35492W        W 2275  19.526  39.059  13.545
35493W        W 2276   5.138  30.474   2.306
35494W        W 2277   4.887   5.613   2.274
35495W        W 2278  31.606  14.537  14.496
35496W        W 2279  35.118  20.268  12.949
35497W        W 2280  28.434  15.770   3.129
35498W        W 2281  12.050  36.610  14.507
35499W        W 2282  33.973  14.389   1.451
35500W        W 2283   9.157  35.852  13.382
35501W        W 2284  29.098  30.932  14.948
35502W        W 2285  44.347  21.712  13.834
35503W        W 2286   9.880  36.154  14.728
35504W        W 2287  20.603  34.223  13.398
35505W        W 2288  25.038  28.196  12.465
35506W        W 2289   8.222  18.166  11.147
35507W        W 2290   2.072  38.355   0.875
35508W        W 2291  43.551  12.586  11.595
35509W        W 2292   8.144   6.264   0.326
35510W        W 2293  32.594   7.672   2.255
35511W        W 2294  33.456  37.010   2.389
35512W        W 2295  11.762  29.405  13.097
35513W        W 2296  31.486  23.285  11.159
35514W        W 2297  25.043  30.945   1.380
35515W        W 2298  18.554  44.587  13.085
35516W        W 2299  29.585   3.197  12.525
35517W        W 2300  31.545   1.339   0.957
35518W        W 2301  24.701  25.450   4.381
35519W        W 2302  18.066  30.682  11.694
35520W        W 2303  18.564  28.933   1.955
35521W        W 2304  10.710  38.461  11.636
35522W        W 2305  32.139  21.451  13.610
35523W        W 2306  39.466  26.871  14.526
35524W        W 2307  27.175  12.765   2.188
35525W        W 2308  36.691  30.587  13.974
35526W        W 2309  26.018   8.728  14.987
35527W        W 2310  19.082  42.565  11.064
35528W        W 2311  40.632  16.808  11.330
35529W        W 2312  15.028  17.967  12.533
35530W        W 2313  36.329  31.984   1.544
35531W        W 2314   1.884  18.458  12.973
35532W        W 2315  28.604  37.977  14.079
35533W        W 2316  43.077  40.524   1.725
35534W        W 2317  32.421  40.843   0.948
35535W        W 2318   2.495  42.376   4.651
35536W        W 2319  11.298  22.009  11.953
35537W        W 2320   5.104  41.237   1.944
35538W        W 2321  34.986   7.445   4.652
35539W        W 2322  13.876  26.533   1.355
35540W        W 2323   2.837   3.059  12.972
35541W        W 2324  34.588  17.705   2.160
35542W        W 2325  32.370  17.433   0.275
35543W        W 2326  23.793  12.654  11.626
35544W        W 2327   4.971  18.257   2.887
35545W        W 2328  33.167  26.673  12.820
35546W        W 2329   4.291  27.386   1.404
35547W        W 2330  20.445  39.453  11.499
35548W        W 2331   2.505  30.053   0.593
35549W        W 2332  21.734  21.623  13.440
35550W        W 2333   7.494  24.645   2.711
35551W        W 2334  23.545  29.256  11.970
35552W        W 2335  43.846   5.498   1.179
35553W        W 2336   3.017  18.646   3.284
35554W        W 2337  29.549  39.054   2.191
35555W        W 2338   2.431  37.771  13.426
35556W        W 2339  42.095   2.810  12.564
35557W        W 2340  30.286  21.605  10.637
35558W        W 2341  44.768  35.840  13.099
35559W        W 2342   8.288  25.445  12.411
35560W        W 2343  20.793   9.918  11.169
35561W        W 2344   9.528  28.175  13.553
35562W        W 2345  29.743   9.754   4.520
35563W        W 2346  28.628   9.718   2.725
35564W        W 2347   6.110  33.701  10.164
35565W        W 2348  38.325  21.897   0.792
35566W        W 2349   7.221  44.457   0.777
35567W        W 2350   6.333  21.848  10.527
35568W        W 2351  33.207  19.397  14.906
35569W        W 2352  25.794   1.088  13.445
35570W        W 2353   4.749   9.644   1.357
35571W        W 2354  36.620   6.048  12.208
35572W        W 2355   7.374  44.031  14.318
35573W        W 2356  39.491  13.294  13.069
35574W        W 2357  14.379  41.775   1.761
35575W        W 2358  31.428  25.559   1.745
35576W        W 2359  22.134  22.833  10.627
35577W        W 2360   6.630  29.619   2.379
35578W        W 2361  31.954   6.214   0.505
35579W        W 2362  35.120  43.266  10.656
35580W        W 2363  41.796  21.490   5.052
35581W        W 2364  19.167  43.759   2.351
35582W        W 2365  20.073  44.518   3.245
35583W        W 2366  10.593   7.266   3.299
35584W        W 2367   6.325   3.416  14.164
35585W        W 2368  34.753  29.139  13.929
35586W        W 2369  42.285  21.638  14.785
35587W        W 2370   9.867  34.680   0.723
35588W        W 2371  35.361  34.822  12.399
35589W        W 2372  43.901  26.173   1.882
35590W        W 2373  17.634   4.838  10.853
35591W        W 2374  15.163  22.050   4.493
35592W        W 2375  10.218   0.068  14.566
35593W        W 2376  35.850   8.981   2.363
35594W        W 2377  42.954   4.808   2.836
35595W        W 2378  31.912  20.526  12.145
35596W        W 2379   3.780  36.581   0.012
35597W        W 2380  16.199  24.682   4.252
35598W        W 2381  14.124  34.801  10.607
35599W        W 2382  44.989  14.426  11.537
35600W        W 2383   6.179  30.073   4.929
35601W        W 2384  20.636  29.684  13.047
35602W        W 2385  24.795   2.189  14.267
35603W        W 2386  17.664  43.909   4.597
35604W        W 2387  44.741  20.569   0.755
35605W        W 2388   4.692  38.596   2.271
35606W        W 2389  15.954  21.670  13.482
35607W        W 2390   5.776  10.394   0.779
35608W        W 2391  19.175  10.931  11.951
35609W        W 2392  11.891  11.211  10.650
35610W        W 2393  16.868  19.330  12.088
35611W        W 2394   6.446  39.530   0.694
35612W        W 2395  31.531   4.364  12.041
35613W        W 2396  33.618   5.427   4.112
35614W        W 2397  28.860   1.928  12.485
35615W        W 2398  27.928  16.007   2.080
35616W        W 2399  41.758  29.943   1.770
35617W        W 2400  27.765  18.509   1.343
35618W        W 2401  44.078  44.271  11.675
35619W        W 2402  32.549  43.078  11.515
35620W        W 2403  26.470  17.749  14.095
35621W        W 2404   0.010  17.281  12.544
35622W        W 2405  20.943   3.441   2.231
35623W        W 2406   8.602  44.483   0.758
35624W        W 2407  43.823  42.694  12.959
35625W        W 2408  30.887  32.446  13.852
35626W        W 2409  26.828   2.870  12.071
35627W        W 2410  43.828  27.442  14.967
35628W        W 2411  29.934   3.508   2.711
35629W        W 2412  15.538   6.211   4.173
35630W        W 2413  23.543   5.260   0.373
35631W        W 2414  31.207  22.756   4.368
35632W        W 2415   2.588  30.026   2.738
35633W        W 2416  30.497  30.091  12.965
35634W        W 2417  35.707   5.711   1.337
35635W        W 2418  20.730  15.397   3.736
35636W        W 2419  35.939  38.141   3.203
35637W        W 2420  30.253  31.908   4.017
35638W        W 2421   7.311  43.315  11.491
35639W        W 2422   8.735  37.822   0.211
35640W        W 2423   5.636  15.239   0.798
35641W        W 2424  10.269   7.684   3.129
35642W        W 2425   2.727  28.604   3.544
35643W        W 2426   3.919  37.543   5.081
35644W        W 2427  35.106  27.391   2.296
35645W        W 2428   9.690   2.854  13.760
35646W        W 2429  21.818   8.911   3.247
35647W        W 2430  34.878  35.752   1.875
35648W        W 2431  29.974  41.311  13.402
35649W        W 2432  28.068  32.543   2.647
35650W        W 2433   9.104  16.691   3.100
35651W        W 2434  25.146   7.502  11.563
35652W        W 2435  36.510  14.877   0.405
35653W        W 2436   9.636  28.158   3.645
35654W        W 2437  14.057  30.481  13.837
35655W        W 2438  40.449  43.400   1.348
35656W        W 2439  22.121  13.354  13.584
35657W        W 2440   8.143  39.813  11.179
35658W        W 2441  29.992  20.050  12.496
35659W        W 2442  16.029  41.173   0.870
35660W        W 2443  18.071  26.963  12.120
35661W        W 2444  44.465  30.584  14.518
35662W        W 2445  42.318  25.326  11.049
35663W        W 2446   5.390   0.493   2.798
35664W        W 2447   0.558  41.573  12.542
35665W        W 2448  23.471  36.124   0.322
35666W        W 2449  36.126  35.890   3.458
35667W        W 2450  37.904  29.922   2.194
35668W        W 2451  30.643   8.275  10.653
35669W        W 2452  30.012   6.803  14.951
35670W        W 2453  44.937  30.196   0.581
35671W        W 2454  37.403  20.545  14.211
35672W        W 2455  36.978  12.229   3.751
35673W        W 2456  17.247  17.618   0.811
35674W        W 2457   5.229  30.109   1.699
35675W        W 2458  16.106  31.622   1.351
35676W        W 2459  29.169   2.817   3.317
35677W        W 2460  14.815  39.985   3.536
35678W        W 2461  22.905   1.410  11.086
35679W        W 2462   6.647  44.888  14.409
35680W        W 2463  39.299   9.143   0.524
35681W        W 2464  21.816  36.113   1.302
35682W        W 2465  20.047  37.072  11.220
35683W        W 2466  31.613   2.785  14.315
35684W        W 2467  29.133  33.575  10.762
35685W        W 2468  18.323  44.935   1.748
35686W        W 2469  12.346  21.252  11.506
35687W        W 2470  24.293  33.320   4.107
35688W        W 2471   6.342  11.189   2.919
35689W        W 2472  23.478  12.111   3.161
35690W        W 2473  37.356   2.985   3.470
35691W        W 2474  36.362   9.593  12.512
35692W        W 2475  21.752  17.199  10.624
35693W        W 2476  32.014  17.929  10.195
35694W        W 2477  42.886  12.452   2.224
35695W        W 2478   6.370   9.401  11.615
35696W        W 2479   7.765  10.518  12.792
35697W        W 2480   5.704  35.946   1.456
35698W        W 2481  32.626  36.883   3.184
35699W        W 2482  13.536  18.272   1.131
35700W        W 2483   0.192  15.857   1.856
35701W        W 2484   0.033  32.033  12.225
35702W        W 2485  16.532  36.361  13.412
35703W        W 2486  43.979  19.145   3.705
35704W        W 2487  17.813  44.916   1.786
35705W        W 2488  34.511  22.767   1.372
35706W        W 2489  15.158   1.259   4.090
35707W        W 2490  42.826  27.611  13.025
35708W        W 2491  33.458  35.896  11.538
35709W        W 2492  34.156  23.643   0.883
35710W        W 2493  29.977  44.832   4.478
35711W        W 2494  37.183   8.026   3.864
35712W        W 2495  14.256   5.872  14.730
35713W        W 2496  27.612   8.892   1.123
35714W        W 2497  31.060  36.748  13.532
35715W        W 2498  30.966  37.339  12.703
35716W        W 2499  22.644  29.912   1.939
35717W        W 2500  41.386  15.600   1.483
35718W        W 2501  28.899  15.631   3.862
35719W        W 2502  18.187  27.550  12.876
35720W        W 2503  13.806   8.608   2.828
35721W        W 2504   2.470  44.522   0.758
35722W        W 2505  12.108  36.332   3.466
35723W        W 2506  10.758  37.515   0.920
35724W        W 2507  13.322  12.561   3.740
35725W        W 2508  34.459   9.032  12.984
35726W        W 2509  20.657  18.646   4.518
35727W        W 2510  34.353  16.648  13.495
35728W        W 2511   4.390   2.713  14.075
35729W        W 2512  31.413  41.898   4.332
35730W        W 2513  42.510   4.369  13.503
35731W        W 2514  26.521  42.346   3.150
35732W        W 2515  33.112  36.377  14.344
35733W        W 2516   0.020  39.439  10.951
35734W        W 2517  39.067  31.935  11.584
35735W        W 2518  41.048  22.104  11.279
35736W        W 2519  36.428  20.131   4.217
35737W        W 2520  34.627   2.558  13.411
35738W        W 2521  36.646   7.383  12.115
35739W        W 2522  38.339  20.121  11.966
35740W        W 2523  14.695  22.261   3.137
35741W        W 2524  41.746  10.927   0.360
35742W        W 2525  12.691  41.244   1.253
35743W        W 2526  41.734  43.609  13.422
35744W        W 2527  12.243  22.749   4.113
35745W        W 2528  33.644  24.234   1.418
35746W        W 2529  22.761  18.147   0.731
35747W        W 2530  26.509   6.249  12.978
35748W        W 2531  20.114  29.466  12.450
35749W        W 2532  39.889  28.660  11.480
35750W        W 2533   2.903  39.517  14.164
35751W        W 2534  20.662  38.164   4.396
35752W        W 2535  15.907  11.808  11.158
35753W        W 2536  19.586  43.883  11.048
35754W        W 2537  23.088  34.902  10.630
35755W        W 2538   3.036  27.526  10.750
35756W        W 2539   6.133  37.707  11.516
35757W        W 2540   1.833  14.493  14.266
35758W        W 2541  19.117  30.666   4.583
35759W        W 2542  15.219  11.226   4.107
35760W        W 2543   2.494   7.959   0.437
35761W        W 2544  17.625   0.369  10.723
35762W        W 2545  12.324   0.799   4.562
35763W        W 2546  40.009  11.841  13.416
35764W        W 2547  26.576  35.565   4.038
35765W        W 2548  39.618  26.137   1.174
35766W        W 2549  24.570   8.331  11.958
35767W        W 2550   0.463   0.697  13.906
35768W        W 2551  15.945   8.105   2.454
35769W        W 2552  17.371  22.224   3.825
35770W        W 2553  12.189  30.169  13.062
35771W        W 2554  41.742   2.032  13.836
35772W        W 2555  34.568  26.974   4.654
35773W        W 2556   7.870  10.284  11.267
35774W        W 2557   7.453  40.976   4.499
35775W        W 2558  15.687   4.663   1.825
35776W        W 2559  28.992  15.759  14.973
35777W        W 2560  19.252  33.417  12.195
35778W        W 2561  11.290   3.014  12.581
35779W        W 2562  34.989  35.919  12.450
35780W        W 2563  12.030  23.453   3.089
35781W        W 2564  26.399  40.335  13.607
35782W        W 2565  38.406  16.057  11.543
35783W        W 2566  41.559  35.612   2.160
35784W        W 2567  38.758  44.397   3.283
35785W        W 2568   5.366  39.343   2.217
35786W        W 2569  42.838  37.317   0.012
35787W        W 2570  40.828   2.014   2.289
35788W        W 2571   3.283  31.825  11.471
35789W        W 2572  32.805  38.813  12.941
35790W        W 2573   1.506  24.208  14.266
35791W        W 2574  42.360  18.112  13.104
35792W        W 2575  35.866   2.810   1.546
35793W        W 2576   7.341  40.944  11.600
35794W        W 2577  12.061   9.923  13.433
35795W        W 2578  15.468  13.133  13.630
35796W        W 2579   4.213  41.230  13.577
35797W        W 2580  10.858  22.490   2.873
35798W        W 2581  25.596  11.148   4.154
35799W        W 2582  22.048  36.624   2.658
35800W        W 2583   8.909  39.897   1.565
35801W        W 2584  11.363  42.320  11.136
35802W        W 2585  18.688   9.397  14.812
35803W        W 2586  28.334  10.621   1.288
35804W        W 2587  34.641  34.437  12.859
35805W        W 2588  32.562   5.473  10.224
35806W        W 2589   9.210  41.601   3.217
35807W        W 2590  23.032  34.296   1.067
35808W        W 2591  33.454  14.260  10.777
35809W        W 2592   1.315  22.526  13.503
35810W        W 2593  42.591  16.867   0.172
35811W        W 2594  36.856  36.975  12.445
35812W        W 2595   9.349  23.521  12.981
35813W        W 2596  43.374  39.509   1.436
35814W        W 2597  44.621  31.350   0.795
35815W        W 2598  19.240  29.836  13.867
35816W        W 2599  26.725  39.925   2.802
35817W        W 2600  11.446  35.975   0.733
35818W        W 2601   8.265  23.229  13.860
35819W        W 2602  32.479  36.138   1.903
35820W        W 2603  23.584  22.036  13.557
35821W        W 2604  13.158  27.138  14.232
35822W        W 2605   4.599   1.330   3.257
35823W        W 2606   6.288  40.093   1.356
35824W        W 2607  11.494   9.655  14.712
35825W        W 2608  36.390  21.937   2.330
35826W        W 2609  26.101  31.369  13.340
35827W        W 2610  25.093  18.663  13.282
35828W        W 2611  41.321  24.235   1.238
35829W        W 2612  14.786  34.160   0.298
35830W        W 2613  18.667  23.453   3.362
35831W        W 2614  34.490  40.266   0.910
35832W        W 2615  41.429  42.306  13.957
35833W        W 2616  38.454  39.351  12.490
35834W        W 2617  22.949   6.954  10.345
35835W        W 2618  21.064   5.851  10.688
35836W        W 2619   7.687   1.477  13.272
35837W        W 2620  17.288  33.556  12.410
35838W        W 2621  42.235   6.133   3.736
35839W        W 2622  26.320  11.149  10.008
35840W        W 2623   8.230  17.583   2.747
35841W        W 2624  12.732  15.255   0.406
35842W        W 2625  44.732  23.175   0.655
35843W        W 2626  26.701  24.071   0.800
35844W        W 2627   6.779  29.339  14.395
35845W        W 2628  26.509  29.617  13.917
35846W        W 2629   9.173  28.509   1.481
35847W        W 2630  35.926  38.821   2.565
35848W        W 2631   7.925   5.683  11.720
35849W        W 2632   3.672  30.076   4.946
35850W        W 2633   3.095  24.741   0.937
35851W        W 2634   0.468  36.861   1.320
35852W        W 2635  43.073  44.764   2.343
35853W        W 2636  32.114  15.759  11.980
35854W        W 2637   6.678  10.097  13.230
35855W        W 2638   5.783  25.897   2.372
35856W        W 2639  42.074  23.044   3.212
35857W        W 2640  24.142  16.381  11.559
35858W        W 2641   3.536  23.132  11.973
35859W        W 2642   3.726  17.965  11.914
35860W        W 2643  27.879  19.125   2.685
35861W        W 2644  10.630  34.639  13.855
35862W        W 2645   2.626  16.660   1.192
35863W        W 2646  19.114  14.438  14.526
35864W        W 2647  36.447   6.674   0.937
35865W        W 2648   0.892  43.439   2.811
35866W        W 2649  35.603  20.180  12.051
35867W        W 2650  36.586  20.823   1.655
35868W        W 2651  22.551   3.198  14.478
35869W        W 2652  39.006  32.980   3.725
35870W        W 2653  30.423   1.752  14.916
35871W        W 2654   8.156  42.028   0.917
35872W        W 2655  36.748  26.973   4.498
35873W        W 2656  22.002  14.163   4.093
35874W        W 2657  22.550   5.491  13.604
35875W        W 2658  14.790  14.796   4.434
35876W        W 2659  14.052   4.318  11.087
35877W        W 2660   8.632  31.343   5.026
35878W        W 2661  44.737  17.504  13.936
35879W        W 2662  28.106  41.861   0.274
35880W        W 2663  35.061  34.386   3.873
35881W        W 2664   1.364  10.581  10.906
35882W        W 2665  12.335  28.276   4.537
35883W        W 2666  14.070  31.972  13.637
35884W        W 2667  37.599   3.236  14.501
35885W        W 2668  32.906  10.276   1.383
35886W        W 2669   7.405  30.439  13.000
35887W        W 2670  29.468   7.359  14.771
35888W        W 2671   2.950  37.053   4.068
35889W        W 2672  18.220  35.343   1.316
35890W        W 2673  17.613  22.700  11.874
35891W        W 2674  35.635   4.502  11.912
35892W        W 2675  44.875  37.522   1.177
35893W        W 2676   8.007   6.897   0.016
35894W        W 2677  40.800  30.059   3.239
35895W        W 2678  15.693  39.817   4.451
35896W        W 2679  18.544  43.541  13.766
35897W        W 2680  39.256   4.845  11.595
35898W        W 2681  23.686  27.473   2.926
35899W        W 2682  30.644  18.022   5.267
35900W        W 2683  24.782  36.483   2.616
35901W        W 2684  44.087  36.511   3.768
35902W        W 2685   2.974   4.820   0.745
35903W        W 2686  18.163  34.318   1.362
35904W        W 2687  41.195  17.575  12.029
35905W        W 2688  15.774  34.823   3.226
35906W        W 2689  41.377  28.467  14.533
35907W        W 2690  40.384  20.747   2.959
35908W        W 2691   2.264  35.313   4.162
35909W        W 2692  13.552   7.895   5.507
35910W        W 2693  38.100  23.541   2.773
35911W        W 2694  40.543  26.561   9.926
35912W        W 2695  23.530  25.677  14.437
35913W        W 2696  28.908   5.483   2.472
35914W        W 2697   5.785  33.515   1.953
35915W        W 2698  23.419  36.417   4.223
35916W        W 2699  39.310   2.407  11.249
35917W        W 2700  14.085  18.787  13.043
35918W        W 2701  18.961  27.144   2.204
35919W        W 2702  33.013  22.009   2.868
35920W        W 2703  13.709  21.197   3.425
35921W        W 2704  43.364  37.714  12.131
35922W        W 2705  41.780  43.180  12.542
35923W        W 2706  38.788  32.862  14.923
35924W        W 2707   8.913  33.384   3.667
35925W        W 2708   5.332  30.540   1.442
35926W        W 2709  20.681  22.529   4.502
35927W        W 2710  13.850  28.362   0.786
35928W        W 2711  33.794  37.427   3.637
35929W        W 2712  40.328   4.170   2.228
35930W        W 2713  27.274  34.878  10.731
35931W        W 2714  29.597  12.534   1.775
35932W        W 2715  22.918  13.674  13.259
35933W        W 2716  21.222  13.266  11.988
35934W        W 2717  20.981  18.140   4.151
35935W        W 2718  36.818  43.489   1.831
35936W        W 2719   5.429  40.386   0.301
35937W        W 2720   1.154  40.887  11.060
35938W        W 2721  31.055  19.287  14.039
35939W        W 2722  30.141  28.350  14.921
35940W        W 2723  12.107  19.808   1.424
35941W        W 2724  15.369  21.296  14.021
35942W        W 2725  19.300  44.590   2.801
35943W        W 2726   8.597  12.609  13.176
35944W        W 2727   4.836  16.180   3.040
35945W        W 2728  30.986  13.785   0.443
35946W        W 2729  39.980  42.481   4.512
35947W        W 2730   1.544  34.288   3.749
35948W        W 2731  30.176  40.195  14.853
35949W        W 2732  29.191  37.367   1.257
35950W        W 2733  17.097   8.787  12.065
35951W        W 2734   5.035   7.671  12.972
35952W        W 2735  13.008  28.091   0.802
35953W        W 2736  24.412   4.623   2.613
35954W        W 2737   9.929   2.812   0.343
35955W        W 2738  34.498   2.478  11.529
35956W        W 2739  13.713  21.709   3.532
35957W        W 2740  39.729   2.867  14.430
35958W        W 2741   4.785  35.864  12.576
35959W        W 2742  35.459  43.524  13.821
35960W        W 2743  44.496  32.923  10.089
35961W        W 2744  35.733  35.656  14.385
35962W        W 2745  22.561  26.735   4.121
35963W        W 2746  37.907  12.840  12.995
35964W        W 2747  18.398  35.340   0.816
35965W        W 2748   0.035  28.026   4.125
35966W        W 2749  28.926  37.907   3.821
35967W        W 2750  37.673   7.082   4.595
35968W        W 2751  27.788   8.192   3.382
35969W        W 2752  10.317  21.111  11.011
35970W        W 2753  26.692  26.403   3.182
35971W        W 2754  31.707  25.574   2.471
35972W        W 2755  16.978   9.868   3.702
35973W        W 2756   9.614  37.603  12.010
35974W        W 2757   9.819  25.479  11.745
35975W        W 2758  38.639  31.486  13.707
35976W        W 2759   1.150  40.467  11.995
35977W        W 2760  27.746  30.068  14.034
35978W        W 2761  16.161  39.158  12.564
35979W        W 2762  11.960  29.676  14.593
35980W        W 2763  14.311  31.981  14.107
35981W        W 2764  24.094  15.012  10.561
35982W        W 2765   5.938   6.529  14.499
35983W        W 2766  25.965  11.638  14.170
35984W        W 2767  33.364   8.811   3.778
35985W        W 2768  36.015   8.194   4.571
35986W        W 2769  18.741  33.376   0.796
35987W        W 2770  13.350   3.038   3.627
35988W        W 2771   5.198  10.837   4.685
35989W        W 2772  30.183  22.429   2.149
35990W        W 2773  28.364  12.641  13.657
35991W        W 2774  18.648  26.181  13.636
35992W        W 2775   7.562  34.635   2.854
35993W        W 2776  29.646  12.181  13.395
35994W        W 2777  15.079  40.473   3.865
35995W        W 2778  27.000   2.525  11.055
35996W        W 2779  38.901  21.145   0.029
35997W        W 2780  44.915   5.876  12.601
35998W        W 2781  31.043  30.937   4.367
35999W        W 2782  25.633  34.444  12.435
36000W        W 2783  28.670  17.247   3.790
36001W        W 2784  35.520  34.920  11.924
36002W        W 2785  35.062  15.894   1.720
36003W        W 2786  44.079  38.373  12.428
36004W        W 2787  11.358  17.622   2.196
36005W        W 2788  38.321  39.030   1.806
36006W        W 2789  26.160  11.801  13.730
36007W        W 2790   5.664   8.595  13.120
36008W        W 2791  16.654  27.233  10.739
36009W        W 2792  35.577  43.919   5.026
36010W        W 2793  39.080  12.868  10.737
36011W        W 2794   4.031  17.670   3.938
36012W        W 2795  42.549   4.458  11.722
36013W        W 2796  10.236  33.017   2.381
36014W        W 2797  29.387   8.320  12.961
36015W        W 2798  27.016   8.323  11.672
36016W        W 2799  16.818  43.001  11.508
36017W        W 2800  42.266   6.019  11.205
36018W        W 2801  25.430  13.370  14.357
36019W        W 2802  36.456  32.334   1.155
36020W        W 2803   1.245  37.446  11.633
36021W        W 2804  13.361   0.751   0.659
36022W        W 2805  24.435  40.859   0.848
36023W        W 2806  18.673  28.174  12.092
36024W        W 2807  23.387  23.135   3.563
36025W        W 2808  28.573   6.267   0.458
36026W        W 2809  24.148  30.085  10.900
36027W        W 2810  31.622  26.106   4.628
36028W        W 2811  14.207  27.701  11.560
36029W        W 2812  10.309  19.041   2.379
36030W        W 2813  35.592   5.843  14.874
36031W        W 2814  22.941  42.371   3.329
36032W        W 2815  22.154  44.522   3.232
36033W        W 2816  32.521  16.119   2.296
36034W        W 2817  41.490   4.676   1.479
36035W        W 2818  44.863  11.781  14.463
36036W        W 2819   5.833  20.258  12.456
36037W        W 2820   9.997  39.074  12.020
36038W        W 2821  40.494  27.431   3.803
36039W        W 2822  35.146  42.818  13.073
36040W        W 2823   8.875  22.276  10.019
36041W        W 2824  15.536  28.444  11.645
36042W        W 2825  18.721  17.664   3.132
36043W        W 2826  14.694  44.321   4.774
36044W        W 2827  35.969  10.879  12.580
36045W        W 2828  20.358  39.701   3.412
36046W        W 2829  35.125  12.338   3.529
36047W        W 2830  19.569   1.809  12.908
36048W        W 2831  43.045   0.536  13.309
36049W        W 2832  25.567   3.995  13.534
36050W        W 2833  13.698  31.665  10.872
36051W        W 2834  17.097  16.112  14.008
36052W        W 2835  42.414   1.111  12.935
36053W        W 2836  41.032  18.539  11.220
36054W        W 2837  21.143  27.693  10.439
36055W        W 2838  21.285  27.862  12.129
36056W        W 2839  13.878  40.461   1.201
36057W        W 2840  25.026  15.507  11.792
36058W        W 2841  30.990  39.404  11.683
36059W        W 2842  18.218  15.118  13.950
36060W        W 2843  42.529  38.311   2.929
36061W        W 2844  28.050  35.640  12.516
36062W        W 2845  22.126   5.293  14.954
36063W        W 2846  22.127  32.148   2.763
36064W        W 2847  21.205  32.171   3.635
36065W        W 2848  35.065  32.847  10.727
36066W        W 2849  18.593  41.918   3.828
36067W        W 2850  41.935  11.825  12.561
36068W        W 2851   3.378  24.415  10.505
36069W        W 2852  21.183  15.626   1.122
36070W        W 2853  39.351  38.129   4.440
36071W        W 2854  16.477   1.790  13.153
36072W        W 2855  41.881   5.149   0.451
36073W        W 2856  40.389  18.639  14.280
36074W        W 2857   9.668  12.909   2.770
36075W        W 2858  25.843   6.296   3.273
36076W        W 2859  43.381  32.680  14.362
36077W        W 2860  27.951  14.747   4.567
36078W        W 2861  21.498  38.115  14.158
36079W        W 2862  22.236  29.182  11.558
36080W        W 2863  19.979  11.650  10.503
36081W        W 2864  30.334  15.334  11.615
36082W        W 2865  19.518  20.613  12.121
36083W        W 2866  24.048   9.532  11.543
36084W        W 2867  15.156  34.968   4.606
36085W        W 2868  17.568  17.255   1.517
36086W        W 2869   0.296  24.743   4.542
36087W        W 2870  26.706  28.277  10.577
36088W        W 2871  39.933   9.518  12.352
36089W        W 2872  10.871  16.717   2.374
36090W        W 2873  38.982  42.714  11.996
36091W        W 2874   7.833  19.861   4.112
36092W        W 2875  44.430  41.377   0.952
36093W        W 2876  12.715  44.747  12.410
36094W        W 2877  33.521  34.026   2.101
36095W        W 2878  25.920   3.080   0.170
36096W        W 2879   6.907   8.923  13.997
36097W        W 2880  42.284  36.417   4.632
36098W        W 2881   4.762  34.784   4.281
36099W        W 2882  26.207   9.570  14.380
36100W        W 2883  19.220  38.491   0.544
36101W        W 2884  43.460   3.017  14.489
36102W        W 2885   0.460  44.395  13.079
36103W        W 2886  17.636   9.210   3.085
36104W        W 2887  16.082  44.027   4.121
36105W        W 2888  19.575  12.868  12.957
36106W        W 2889   7.913  38.372   3.119
36107W        W 2890   7.919  40.087  12.828
36108W        W 2891  32.443   5.960   3.215
36109W        W 2892  13.947   4.264  14.033
36110W        W 2893  30.160   4.356  11.969
36111W        W 2894  37.633  18.812  12.944
36112W        W 2895  34.420  24.832  13.518
36113W        W 2896   0.312  18.692   0.726
36114W        W 2897  24.582  38.890  13.952
36115W        W 2898   1.771  44.408   1.406
36116W        W 2899   5.359  32.972   2.686
36117W        W 2900  33.962  38.434   2.807
36118W        W 2901   7.440  44.446   0.282
36119W        W 2902   9.588  29.550  12.077
36120W        W 2903  31.098  21.491   1.770
36121W        W 2904  27.145  27.044  12.753
36122W        W 2905  35.614  35.057   1.803
36123W        W 2906  27.703  44.570  13.881
36124W        W 2907  35.884  11.589  13.948
36125W        W 2908   9.447  15.416   4.824
36126W        W 2909  11.401   8.204   0.462
36127W        W 2910  40.793  38.637  13.052
36128W        W 2911  27.070  25.678   3.577
36129W        W 2912  31.911   8.968   2.303
36130W        W 2913  41.030  13.074   0.823
36131W        W 2914  24.977  30.470  11.504
36132W        W 2915  26.231   5.310   2.955
36133W        W 2916  23.976  20.749  12.583
36134W        W 2917  43.301  43.326  13.554
36135W        W 2918  39.547  28.024  11.603
36136W        W 2919  20.659   6.116  10.913
36137W        W 2920  16.549  22.103  12.099
36138W        W 2921  38.586   9.687   2.003
36139W        W 2922  32.522  34.910  13.415
36140W        W 2923  27.913  25.420   1.189
36141W        W 2924  42.747   7.842   2.326
36142W        W 2925  31.946  37.962  11.991
36143W        W 2926  30.506  20.430   5.416
36144W        W 2927  14.377   8.776   2.974
36145W        W 2928  19.298  29.129   3.802
36146W        W 2929  40.536  24.083   0.585
36147W        W 2930  29.954  30.658   3.666
36148W        W 2931  30.982  22.978   2.119
36149W        W 2932  39.502  38.888  10.684
36150W        W 2933   4.308   9.473   0.484
36151W        W 2934  36.976  12.779   3.717
36152W        W 2935   2.431  28.953  14.465
36153W        W 2936  38.885  41.487   4.584
36154W        W 2937  27.981  25.411  13.899
36155W        W 2938  39.909  10.169  10.972
36156W        W 2939   5.373  40.057   1.357
36157W        W 2940  14.586  29.907  12.136
36158W        W 2941  22.950   3.416   3.074
36159W        W 2942  12.334  40.439  12.030
36160W        W 2943  18.205   4.455  12.049
36161W        W 2944  25.763  22.201   3.609
36162W        W 2945  44.933  35.368  10.954
36163W        W 2946  35.341  32.197   4.491
36164W        W 2947   9.102  20.184   1.895
36165W        W 2948  20.308  42.045  12.585
36166W        W 2949  34.230   0.783  14.622
36167W        W 2950  39.815   1.103   2.767
36168W        W 2951  37.135  11.150  12.856
36169W        W 2952  35.943  27.273   2.674
36170W        W 2953  10.175  10.897  12.268
36171W        W 2954  34.484  39.045  10.713
36172W        W 2955  21.174   0.930  11.582
36173W        W 2956  14.548  27.743  11.959
36174W        W 2957   5.900  14.104  13.859
36175W        W 2958  26.981  11.810  14.584
36176W        W 2959  25.579  42.312  12.410
36177W        W 2960  12.474  42.520   3.154
36178W        W 2961   4.250  44.326   2.177
36179W        W 2962   2.181  13.623   0.480
36180W        W 2963  38.555  23.991   3.223
36181W        W 2964  11.134  13.420  13.339
36182W        W 2965  42.939   5.136   3.262
36183W        W 2966  20.851  19.178  13.875
36184W        W 2967  35.107  36.730   2.670
36185W        W 2968  27.115  31.928  11.147
36186W        W 2969   2.776  17.146  11.572
36187W        W 2970  23.862  22.481   9.735
36188W        W 2971   3.406  35.841   0.766
36189W        W 2972   6.795   6.263  11.083
36190W        W 2973   3.689  27.573   4.412
36191W        W 2974  43.121  16.813   2.403
36192W        W 2975  26.464  42.509  10.323
36193W        W 2976  43.749  37.331   0.705
36194W        W 2977  38.096  43.632   1.572
36195W        W 2978  38.125  16.741   2.633
36196W        W 2979  18.555  13.668   3.252
36197W        W 2980  20.193  37.536  12.517
36198W        W 2981  29.722  15.976  12.112
36199W        W 2982  40.929  18.393   3.328
36200W        W 2983  21.599   8.179   3.455
36201W        W 2984  28.040  33.872  13.403
36202W        W 2985  15.580  15.150   4.795
36203W        W 2986  38.408  38.631  13.055
36204W        W 2987  14.098  28.952  12.122
36205W        W 2988  14.395  30.003  13.449
36206W        W 2989  34.784  12.818  13.535
36207W        W 2990  24.420  41.991   0.209
36208W        W 2991  38.652  23.098   4.601
36209W        W 2992  17.153   1.273   4.058
36210W        W 2993  18.945   6.040   1.468
36211W        W 2994  14.559  15.795   0.745
36212W        W 2995  36.861   8.767  12.888
36213W        W 2996  41.740  39.055  14.481
36214W        W 2997  31.959   3.344  14.968
36215W        W 2998  15.230  22.235   1.764
36216W        W 2999  32.178  24.183  12.367
36217W        W 3000   1.990   3.692  11.295
36218W        W 3001  34.215  26.479  11.799
36219W        W 3002  10.772  12.076   2.417
36220W        W 3003   0.008  32.098   2.592
36221W        W 3004   4.419   4.416   2.969
36222W        W 3005   2.400  41.797  13.427
36223W        W 3006   4.927  37.068   2.415
36224W        W 3007  21.052  38.600  10.405
36225W        W 3008  33.888   3.773   3.659
36226W        W 3009  13.110   4.059  12.698
36227W        W 3010  36.854  35.999  12.478
36228W        W 3011  32.688   4.345  13.531
36229W        W 3012  13.757  35.764  14.730
36230W        W 3013  41.310  31.641   0.815
36231W        W 3014  28.676  36.087  11.219
36232W        W 3015   3.665   3.248  12.512
36233W        W 3016  32.046  41.865   2.878
36234W        W 3017  21.960  40.270   2.243
36235W        W 3018  12.217  21.061  13.920
36236W        W 3019  40.634  19.558   5.100
36237W        W 3020  19.062  43.593   2.872
36238W        W 3021  18.692   0.287  10.746
36239W        W 3022  42.117  30.511   4.222
36240W        W 3023  29.979  10.106   4.201
36241W        W 3024  36.918   2.781  14.994
36242W        W 3025  15.223  41.330   0.512
36243W        W 3026  13.710  10.684   1.243
36244W        W 3027  28.980   1.904   0.956
36245W        W 3028  42.876  33.653   2.673
36246W        W 3029  16.821  12.736   1.614
36247W        W 3030  40.385  26.179  13.116
36248W        W 3031  40.380  36.994   1.275
36249W        W 3032  43.311  31.527   2.675
36250W        W 3033  24.492  37.513   0.995
36251W        W 3034  37.397   8.552  11.828
36252W        W 3035  25.720  30.865   1.685
36253W        W 3036  27.683   0.036   4.883
36254W        W 3037  35.872  42.365   4.092
36255W        W 3038  42.784   3.794   1.272
36256W        W 3039  22.101  28.952   0.122
36257W        W 3040   6.355  13.380  12.984
36258W        W 3041   8.219   6.951  11.704
36259W        W 3042  25.921  13.780   1.002
36260W        W 3043  43.596   4.856  13.653
36261W        W 3044  43.670   6.744   0.957
36262W        W 3045  40.627  43.537   3.508
36263W        W 3046  14.851  22.197  10.774
36264W        W 3047  27.690  11.254   0.388
36265W        W 3048  34.860  20.120   1.383
36266W        W 3049  36.796   9.233   3.343
36267W        W 3050  43.075   6.633   4.068
36268W        W 3051  19.706   3.745  12.932
36269W        W 3052  39.274  39.361   2.906
36270W        W 3053  22.609  32.459   0.423
36271W        W 3054  30.764  33.526  13.939
36272W        W 3055  40.427  19.222   3.868
36273W        W 3056  39.314  31.571   4.526
36274W        W 3057  27.189   7.392  14.287
36275W        W 3058  34.508  21.616   1.036
36276W        W 3059  40.011   6.231  10.592
36277W        W 3060  33.614   3.168   3.601
36278W        W 3061  16.406   4.892  13.569
36279W        W 3062  26.193  30.684  12.023
36280W        W 3063  43.271  32.585   3.080
36281W        W 3064  28.703  16.606  11.558
36282W        W 3065  10.369  20.819   2.589
36283W        W 3066   7.602  16.617   3.307
36284W        W 3067  26.701  26.636   2.670
36285W        W 3068  40.480   2.017  14.960
36286W        W 3069  33.398   1.163   2.209
36287W        W 3070  43.798  21.324   1.573
36288W        W 3071   3.504  22.643  11.259
36289W        W 3072  29.190  18.094   2.795
36290W        W 3073  44.232  41.269   4.320
36291W        W 3074  30.977  15.040  14.969
36292W        W 3075  33.584  27.352   1.417
36293W        W 3076  19.840  39.024   0.913
36294W        W 3077   2.264  22.216  11.539
36295W        W 3078   7.941  17.864   1.860
36296W        W 3079  33.082  28.146   2.835
36297W        W 3080  38.052  12.562  12.573
36298W        W 3081   1.808  32.959  10.881
36299W        W 3082   1.115  14.835  14.082
36300W        W 3083  19.728  16.350   2.561
36301W        W 3084   5.724  16.237  13.980
36302W        W 3085  17.673  21.114   0.790
36303W        W 3086  44.412  36.004  10.879
36304W        W 3087  43.456  19.761  10.877
36305W        W 3088  36.476   5.628   4.445
36306W        W 3089  21.498  39.017   1.705
36307W        W 3090  26.889   5.094  11.641
36308W        W 3091  20.749  26.715  14.987
36309W        W 3092  10.990  28.955   0.230
36310W        W 3093  33.181  40.816   1.276
36311W        W 3094  23.352  35.418  13.682
36312W        W 3095  35.331  33.975   4.233
36313W        W 3096  31.729  35.466   2.664
36314W        W 3097  41.235  19.785   0.288
36315W        W 3098  23.704   6.378   1.224
36316W        W 3099  17.316   5.507  11.506
36317W        W 3100  20.004   5.766  14.925
36318W        W 3101  41.852  30.246  12.453
36319W        W 3102   7.452  16.343   1.360
36320W        W 3103  22.938   3.660   1.327
36321W        W 3104  33.196   0.268   4.229
36322W        W 3105  33.875  23.625   2.274
36323W        W 3106  27.713  31.211   1.490
36324W        W 3107  12.108   8.574  11.277
36325W        W 3108  18.135  14.577  12.525
36326W        W 3109  10.282   8.819  12.048
36327W        W 3110  20.147   7.688   1.917
36328W        W 3111   2.088   0.810  13.378
36329W        W 3112  12.502  13.196  14.552
36330W        W 3113  34.005  39.338   1.254
36331W        W 3114  26.460  29.639   2.731
36332W        W 3115  15.083  19.118  12.552
36333W        W 3116  15.733  21.064  10.784
36334W        W 3117  22.627  38.465  13.535
36335W        W 3118   1.501   8.578  11.174
36336W        W 3119  10.114  39.936   4.517
36337W        W 3120   3.734   7.383   5.038
36338W        W 3121  36.403  33.682   3.724
36339W        W 3122   7.774  27.626  10.904
36340W        W 3123  41.075  26.733  13.116
36341W        W 3124  33.846  40.060  14.325
36342W        W 3125  25.469  31.005  11.533
36343W        W 3126  22.817   1.810   3.244
36344W        W 3127  27.119  11.388  14.831
36345W        W 3128  19.625   9.096  10.990
36346W        W 3129   9.651  26.607  12.058
36347W        W 3130  13.317  16.755  14.978
36348W        W 3131  30.485   1.692   1.277
36349W        W 3132  30.941   1.931   1.218
36350W        W 3133  27.826   8.379  11.018
36351W        W 3134  10.869  15.840   0.338
36352W        W 3135   6.433  26.643   1.638
36353W        W 3136  41.052  17.587   0.455
36354W        W 3137   0.860   9.902  14.513
36355W        W 3138  34.215  17.803   1.276
36356W        W 3139  13.090  36.447   3.721
36357W        W 3140  11.174   6.367  11.860
36358W        W 3141   7.742  20.588  13.502
36359W        W 3142  15.695  17.836   4.722
36360W        W 3143   7.711   2.807   4.644
36361W        W 3144  21.969   6.817  13.857
36362W        W 3145  31.337  27.068  13.955
36363W        W 3146  27.758  41.903   1.787
36364W        W 3147  40.637  44.911  11.495
36365W        W 3148   9.614  22.609   1.945
36366W        W 3149   9.410  18.768   2.620
36367W        W 3150  15.813  21.463   1.421
36368W        W 3151  24.613  29.255   1.722
36369W        W 3152   0.321  44.841   1.086
36370W        W 3153  15.351  32.424   2.721
36371W        W 3154  34.556  34.848   2.777
36372W        W 3155  19.675  24.322  11.510
36373W        W 3156  21.615  13.738   0.644
36374W        W 3157  17.569  13.964   4.085
36375W        W 3158   4.304  36.624  13.818
36376W        W 3159   4.372   9.607  13.152
36377W        W 3160   4.391   3.440   2.796
36378W        W 3161   7.268  40.538  10.612
36379W        W 3162  23.934  10.593   0.836
36380W        W 3163  43.405  36.962   2.125
36381W        W 3164  40.293  42.881  10.693
36382W        W 3165   4.102  15.172   0.875
36383W        W 3166  15.868  44.353   3.740
36384W        W 3167   4.988  23.581  11.859
36385W        W 3168  25.705  24.694  11.657
36386W        W 3169  39.044  32.470  12.401
36387W        W 3170  24.422  14.801  11.794
36388W        W 3171  22.408  30.029   3.233
36389W        W 3172  32.512  44.791  11.224
36390W        W 3173  32.375  44.152  12.549
36391W        W 3174  22.623   4.264   0.893
36392W        W 3175  27.132   0.814  11.207
36393W        W 3176  37.942  25.053   4.014
36394W        W 3177  29.002  36.038   1.309
36395W        W 3178   2.351   4.372   4.225
36396W        W 3179  24.546  17.215  12.670
36397W        W 3180  16.498  42.065   2.206
36398W        W 3181   7.731  40.522   2.880
36399W        W 3182  13.837   9.385   3.650
36400W        W 3183  41.520   0.937  11.174
36401W        W 3184   1.498   7.768  10.353
36402W        W 3185  28.367  28.438   2.292
36403W        W 3186  21.468  30.095  11.535
36404W        W 3187  16.075  36.426   4.177
36405W        W 3188  38.150  14.221  14.057
36406W        W 3189  43.284  43.700  12.868
36407W        W 3190  12.729  37.796   4.603
36408W        W 3191   1.700  37.007  13.027
36409W        W 3192  44.027  43.547  14.004
36410W        W 3193  36.410  33.359   1.380
36411W        W 3194  16.087  32.628   1.264
36412W        W 3195  33.549  23.100   5.088
36413W        W 3196  29.132  41.865   1.297
36414W        W 3197  18.565  29.215  11.082
36415W        W 3198   3.451   7.121  10.400
36416W        W 3199   9.199  29.000  12.671
36417W        W 3200  18.222   6.837  11.167
36418W        W 3201  42.969  13.377  14.561
36419W        W 3202  32.620   2.082  11.994
36420W        W 3203  27.815   0.766   0.454
36421W        W 3204   6.818  44.511   3.585
36422W        W 3205  21.281  28.993   4.083
36423W        W 3206  38.325  29.124  14.018
36424W        W 3207  44.992  21.777   2.139
36425W        W 3208  39.899  19.714  13.122
36426W        W 3209  29.437  26.927  13.067
36427W        W 3210   8.739  11.180  13.293
36428W        W 3211  35.461  16.807  12.140
36429W        W 3212  29.539   7.601   0.458
36430W        W 3213  31.718  17.697  10.714
36431W        W 3214  28.993   3.425   3.658
36432W        W 3215  33.516  43.507   2.375
36433W        W 3216  13.805   8.619  10.392
36434W        W 3217   2.411  12.695   0.858
36435W        W 3218  31.104  17.179   1.729
36436W        W 3219   5.402  11.168  11.967
36437W        W 3220  15.700  42.101  11.956
36438W        W 3221  42.027  13.710   1.404
36439W        W 3222  21.472  40.394   0.987
36440W        W 3223   3.803   5.402   0.889
36441W        W 3224   4.530  43.446  13.455
36442W        W 3225  23.049  10.393  11.654
36443W        W 3226   9.984  44.269  13.366
36444W        W 3227   7.527  37.453  12.853
36445W        W 3228  42.428  35.014  12.900
36446W        W 3229   7.315  19.123   1.983
36447W        W 3230  37.401  43.807   4.253
36448W        W 3231  38.600  15.615   0.386
36449W        W 3232  14.773  31.441   1.845
36450W        W 3233  15.067  24.799   2.713
36451W        W 3234  20.044  37.607   5.074
36452W        W 3235  17.533  18.277   0.068
36453W        W 3236  18.071  33.344  11.078
36454W        W 3237  14.608  23.495   2.820
36455W        W 3238  23.116   3.579  11.208
36456W        W 3239  20.312  24.163  11.455
36457W        W 3240  39.860  30.023  10.985
36458W        W 3241   8.196  44.974   3.255
36459W        W 3242   2.689   3.485   4.714
36460W        W 3243  23.666   0.863  13.118
36461W        W 3244  12.930  34.495  13.823
36462W        W 3245  12.157   3.936   0.338
36463W        W 3246  34.352  10.838  13.469
36464W        W 3247  12.832  15.306  11.093
36465W        W 3248  19.543  11.664  10.786
36466W        W 3249  34.494   3.664  11.036
36467W        W 3250  23.254   1.901  12.814
36468W        W 3251  33.409  11.191  14.537
36469W        W 3252  31.489   6.918  14.859
36470W        W 3253  25.910   3.016  12.156
36471W        W 3254   7.750  19.050   0.681
36472W        W 3255   2.320  38.919  14.524
36473W        W 3256  29.689  43.095  13.170
36474W        W 3257  41.014  41.581  10.775
36475W        W 3258  32.595   3.745   3.661
36476W        W 3259  29.422  27.481   4.916
36477W        W 3260  17.956  11.724  12.972
36478W        W 3261  32.650  19.930   4.472
36479W        W 3262  30.572   2.166   3.063
36480W        W 3263  22.782  30.067   2.410
36481W        W 3264   8.848  43.849   2.649
36482W        W 3265  23.209  16.641  11.587
36483W        W 3266  27.964   9.156  12.886
36484W        W 3267   7.954  12.302   1.701
36485W        W 3268  28.480   2.091   4.586
36486W        W 3269  24.504  10.462   0.287
36487W        W 3270  23.401   5.402   4.922
36488W        W 3271   9.966  44.440  14.748
36489W        W 3272   3.655  34.556   0.463
36490W        W 3273  36.913   8.643  11.120
36491W        W 3274  27.628  34.807  12.349
36492W        W 3275   9.666  26.395   0.011
36493W        W 3276  35.809  28.908  14.818
36494W        W 3277   3.933   9.687   4.360
36495W        W 3278   7.273  21.753   0.749
36496W        W 3279   5.989  24.958   2.188
36497W        W 3280  43.915  36.906  14.101
36498W        W 3281  17.673  32.805  13.822
36499W        W 3282  25.177  42.585  11.675
36500W        W 3283   6.401  11.660   1.364
36501W        W 3284  25.739  13.160   0.883
36502W        W 3285   6.278  31.987  13.943
36503W        W 3286  35.929   4.832   2.683
36504W        W 3287  19.938  34.528   3.745
36505W        W 3288  21.978  30.401  12.936
36506W        W 3289  25.059   2.359  10.656
36507W        W 3290  42.886  31.951  10.858
36508W        W 3291  42.589  15.193  12.348
36509W        W 3292  40.924  10.355   0.756
36510W        W 3293   6.731  39.686  14.088
36511W        W 3294  20.759  12.411   1.373
36512W        W 3295   0.025  16.719  13.210
36513W        W 3296  28.913   1.489   0.660
36514W        W 3297  13.283  24.929  13.944
36515W        W 3298  17.515   9.830  12.107
36516W        W 3299  33.598  32.703  11.363
36517W        W 3300  20.789  40.402  14.096
36518W        W 3301  26.620  34.970  13.184
36519W        W 3302   1.590  25.765   4.065
36520W        W 3303  31.877  28.947  12.198
36521W        W 3304  32.802  19.043   4.933
36522W        W 3305   3.101  44.097  12.151
36523W        W 3306  23.832  33.872  10.602
36524W        W 3307  15.224   0.697  10.477
36525W        W 3308  32.795  29.035  13.891
36526W        W 3309  10.263  14.213   4.602
36527W        W 3310  10.827   1.536  12.204
36528W        W 3311  19.575  41.362   4.574
36529W        W 3312  10.186   3.921  11.173
36530W        W 3313  26.396   5.285   1.987
36531W        W 3314  27.999  39.490  11.718
36532W        W 3315   2.849  29.079   2.022
36533W        W 3316  12.027  13.281   1.827
36534W        W 3317   7.941  31.380   4.206
36535W        W 3318  27.943  38.504  11.575
36536W        W 3319  43.402   9.091  14.718
36537W        W 3320  29.450  21.804   1.217
36538W        W 3321   6.431  40.300   1.824
36539W        W 3322  20.257  22.571   3.211
36540W        W 3323  44.488  18.222  14.381
36541W        W 3324  42.341  28.954  12.672
36542W        W 3325   6.589  19.564  11.970
36543W        W 3326  12.923   8.510  11.621
36544W        W 3327   3.849  10.507   4.305
36545W        W 3328  13.157  23.520   0.798
36546W        W 3329  11.962   5.765  13.351
36547W        W 3330  20.692  19.026   3.562
36548W        W 3331   3.244  39.559   1.182
36549W        W 3332  34.489   4.691  11.196
36550W        W 3333  17.222   8.950   4.979
36551W        W 3334   8.528  30.838   4.968
36552W        W 3335   8.966   1.419  12.554
36553W        W 3336  26.326  37.052  13.005
36554W        W 3337  12.653   9.532   1.821
36555W        W 3338   8.670   2.832   2.351
36556W        W 3339  43.565  20.953   1.253
36557W        W 3340  16.135  26.168   1.280
36558W        W 3341  10.706  12.618  13.586
36559W        W 3342  20.780  27.248  11.835
36560W        W 3343   8.399   6.695  10.907
36561W        W 3344  21.912  26.752   4.483
36562W        W 3345  35.342  16.952   5.155
36563W        W 3346  20.137  34.981  12.451
36564W        W 3347   5.732  44.885  12.998
36565W        W 3348  34.867  21.227   2.270
36566W        W 3349  26.224  35.624   3.074
36567W        W 3350  28.556  12.875   0.020
36568W        W 3351   3.210  43.481  11.028
36569W        W 3352  39.351  31.434   4.009
36570W        W 3353  16.351   8.353  12.882
36571W        W 3354  13.584   5.199  12.987
36572W        W 3355   6.731   5.187   1.362
36573W        W 3356  42.296  43.176  11.039
36574W        W 3357  34.933   7.776   2.755
36575W        W 3358  26.681   2.087   0.584
36576W        W 3359   0.835  27.697   1.845
36577W        W 3360  43.310  44.299   3.682
36578W        W 3361  37.885  23.956   2.059
36579W        W 3362  42.358   7.440   2.340
36580W        W 3363   8.939  40.862   2.867
36581W        W 3364  39.972  26.781   4.584
36582W        W 3365  29.613  44.098  11.482
36583W        W 3366   4.369  29.418  13.648
36584W        W 3367  40.600  10.209  13.989
36585W        W 3368  14.328  38.376   0.757
36586W        W 3369  14.562  42.700   1.183
36587W        W 3370  35.586  32.161   0.433
36588W        W 3371  38.238   0.500   2.728
36589W        W 3372  20.803  37.639   3.138
36590W        W 3373  12.762   1.828   4.566
36591W        W 3374  34.382  17.351   0.920
36592W        W 3375  19.348  13.921  13.426
36593W        W 3376  22.593  32.001  11.559
36594W        W 3377  14.674  41.617   1.320
36595W        W 3378  23.229  26.111  13.138
36596W        W 3379  10.999  15.245  13.170
36597W        W 3380  15.313   3.862  12.646
36598W        W 3381  23.103  12.175  14.719
36599W        W 3382  38.186  44.630   0.778
36600W        W 3383  27.674  25.990   0.879
36601W        W 3384  41.913  27.811   1.683
36602W        W 3385  38.631  39.037  12.852
36603W        W 3386  12.597  20.343  13.002
36604W        W 3387  44.274  38.778   0.153
36605W        W 3388  14.150  20.603   3.692
36606W        W 3389   7.288  31.945  14.694
36607W        W 3390  44.893  44.461   3.350
36608W        W 3391  32.504   8.059  13.857
36609W        W 3392  29.206  10.833  11.158
36610W        W 3393  33.156  42.137  14.584
36611W        W 3394  12.817  35.436  14.255
36612W        W 3395  15.394   5.251  10.708
36613W        W 3396  34.117  29.708  10.897
36614W        W 3397   8.683   7.296  10.397
36615W        W 3398  18.575  29.675  14.003
36616W        W 3399   1.734  34.209  13.837
36617W        W 3400   7.844   1.487   3.166
36618W        W 3401   4.856   7.375   2.954
36619W        W 3402  26.992  38.075  10.768
36620W        W 3403  29.108  11.336  14.399
36621W        W 3404  31.087  37.557   0.278
36622W        W 3405  33.403   3.263  11.652
36623W        W 3406   7.677  37.605   0.846
36624W        W 3407   7.334   3.922  13.155
36625W        W 3408   9.845  44.378   4.437
36626W        W 3409   9.891   5.255  11.545
36627W        W 3410   8.895   7.800   1.785
36628W        W 3411  32.213  20.196  11.910
36629W        W 3412   4.311  38.064   1.715
36630W        W 3413   3.814  26.043  13.131
36631W        W 3414  34.352  21.342   2.503
36632W        W 3415   9.901  23.537  13.053
36633W        W 3416   6.895  12.554  13.873
36634W        W 3417  25.404  36.137  10.703
36635W        W 3418  37.818  27.076  13.994
36636W        W 3419  12.708  30.889   4.234
36637W        W 3420  31.136  19.116  12.095
36638W        W 3421  14.547  18.317   1.372
36639W        W 3422  40.689  10.051   4.179
36640W        W 3423  27.196   0.929  13.569
36641W        W 3424  39.957   0.169   1.891
36642W        W 3425  34.051  20.688   3.348
36643W        W 3426  18.456  34.880  11.539
36644W        W 3427  22.215  40.087   3.675
36645W        W 3428  25.147   8.860  13.329
36646W        W 3429  21.978  25.523   9.728
36647W        W 3430  44.720  27.856  11.948
36648W        W 3431  22.637  11.372  13.080
36649W        W 3432   8.631  16.793  13.917
36650W        W 3433   7.536  32.987  13.299
36651W        W 3434  25.692  24.808  13.455
36652W        W 3435  28.881   3.887  11.284
36653W        W 3436   6.839  31.865   1.060
36654W        W 3437  42.946   0.678   1.510
36655W        W 3438  43.010  42.370   4.890
36656W        W 3439  10.597  17.231  11.589
36657W        W 3440  20.040  23.505  12.578
36658W        W 3441  27.539  21.271  10.566
36659W        W 3442  24.634   8.638  14.408
36660W        W 3443   1.219   0.428  11.565
36661W        W 3444  32.408  36.598  12.203
36662W        W 3445  28.995  44.871   0.035
36663W        W 3446  29.427  38.865  10.722
36664W        W 3447  33.854  41.698   2.702
36665W        W 3448  24.748  23.154  14.715
36666W        W 3449  15.376   0.573  10.944
36667W        W 3450  43.227   6.142   2.738
36668W        W 3451  21.655  14.831  13.637
36669W        W 3452   0.432  15.021  12.478
36670W        W 3453  43.896   6.259   1.817
36671W        W 3454  34.858  17.137   3.691
36672W        W 3455  33.404  17.689   3.975
36673W        W 3456  10.747   4.988  10.228
36674W        W 3457  19.981  24.149  11.919
36675W        W 3458  36.028  23.845   2.170
36676W        W 3459  33.438  18.716   2.505
36677W        W 3460   9.637  16.506   1.735
36678W        W 3461   1.666   0.932   1.380
36679W        W 3462   5.001  29.152   1.941
36680W        W 3463  17.167   0.071  11.927
36681W        W 3464  16.628  19.161   3.568
36682W        W 3465  42.972   5.445   0.996
36683W        W 3466  28.374   4.617  14.558
36684W        W 3467  44.472  42.999   0.312
36685W        W 3468   3.351  27.598  12.512
36686W        W 3469  32.665  12.801   0.226
36687W        W 3470   9.738  10.174   4.319
36688W        W 3471  11.595  40.786  10.802
36689W        W 3472   5.425  15.615   0.455
36690W        W 3473  12.910  23.881   3.346
36691W        W 3474  15.321  24.490  10.593
36692W        W 3475  26.434  27.154   3.720
36693W        W 3476  34.508   2.257  12.957
36694W        W 3477   9.074  21.799   3.389
36695W        W 3478  17.845  28.643  11.102
36696W        W 3479  29.074   7.245   1.306
36697W        W 3480  14.113  34.349   4.160
36698W        W 3481  41.480  42.515   1.791
36699W        W 3482   5.124   6.642   2.326
36700W        W 3483  17.291  12.744  14.958
36701W        W 3484  22.885  21.883  12.090
36702W        W 3485   4.709   4.799   0.065
36703W        W 3486   7.732   8.820  10.450
36704W        W 3487  14.208  15.202   4.987
36705W        W 3488  34.142  35.819  12.932
36706W        W 3489  41.920   4.377   1.406
36707W        W 3490   6.288  37.195  10.853
36708W        W 3491  39.319   7.702  14.964
36709W        W 3492  38.370  37.801   1.613
36710W        W 3493  39.948   8.306   2.391
36711W        W 3494  39.551  10.983   4.489
36712W        W 3495  23.182  32.558  10.736
36713W        W 3496  21.176  21.950   4.067
36714W        W 3497  32.714  26.455   3.342
36715W        W 3498  38.331   0.029  13.810
36716W        W 3499  14.670  12.768  14.087
36717W        W 3500  16.065  24.630   4.759
36718W        W 3501  21.615   5.852  13.963
36719W        W 3502  36.319  27.408   2.325
36720W        W 3503  27.516  26.894   0.498
36721W        W 3504   8.859  35.501   3.824
36722W        W 3505   3.849  32.205  12.842
36723W        W 3506  18.550   4.461  13.392
36724W        W 3507  19.442  36.875   3.651
36725W        W 3508  40.857  19.024  13.170
36726W        W 3509   2.967  17.436  13.425
36727W        W 3510  42.210  12.080   0.877
36728W        W 3511  27.213  24.515  12.429
36729W        W 3512  36.529  32.382   3.130
36730W        W 3513  44.236  33.545   2.726
36731W        W 3514  25.763  10.551   3.241
36732W        W 3515  10.757   0.973  13.820
36733W        W 3516  32.822   8.808   4.564
36734W        W 3517  34.217  23.221   3.717
36735W        W 3518  20.208  38.770  14.398
36736W        W 3519  28.460  38.478  11.386
36737W        W 3520  43.072   3.177  12.287
36738W        W 3521  10.677  33.259  11.437
36739W        W 3522  33.004   3.241  12.886
36740W        W 3523  11.266  32.072   2.692
36741W        W 3524   8.186  31.021   0.965
36742W        W 3525  42.296   2.227  14.980
36743W        W 3526  18.595  31.869  13.451
36744W        W 3527  36.824  26.132  14.695
36745W        W 3528   7.323  33.886   0.677
36746W        W 3529  12.719  28.655  12.199
36747W        W 3530   5.364  22.556  13.559
36748W        W 3531   3.778  31.533  10.655
36749W        W 3532  41.968  18.974  12.670
36750W        W 3533  28.669  28.930   4.366
36751W        W 3534  22.311  18.039   4.586
36752W        W 3535  27.676  30.865   3.668
36753W        W 3536   7.743  42.595  12.680
36754W        W 3537  34.242  17.292   2.266
36755W        W 3538   1.224  20.553  14.951
36756W        W 3539  33.337  41.110  13.945
36757W        W 3540   0.807  18.178   1.464
36758W        W 3541  18.271   5.411   0.286
36759W        W 3542   2.939  13.320  14.235
36760W        W 3543  23.242   6.508   1.465
36761W        W 3544  25.978  19.860   1.858
36762W        W 3545   1.735  19.648   1.366
36763W        W 3546   8.065  16.654   3.067
36764W        W 3547   9.076  21.219   4.129
36765W        W 3548   9.555   8.602   2.269
36766W        W 3549  29.547   2.301  10.743
36767W        W 3550  39.108  41.022   0.817
36768W        W 3551  11.347  40.139  11.963
36769W        W 3552  39.002  13.400  12.857
36770W        W 3553  27.562  24.976  14.548
36771W        W 3554  36.994  25.947   2.880
36772W        W 3555  38.435  28.719  14.328
36773W        W 3556  32.379  35.825  12.508
36774W        W 3557  25.480  31.484   3.444
36775W        W 3558  17.528  43.450  11.967
36776W        W 3559  37.188  21.085  11.712
36777W        W 3560  35.779  36.772   1.256
36778W        W 3561   4.314  15.021   1.336
36779W        W 3562   8.655  38.611  12.569
36780W        W 3563  29.399  22.815   4.117
36781W        W 3564  27.016   6.759   2.157
36782W        W 3565  16.631  35.877  12.348
36783W        W 3566  32.578  44.500   2.714
36784W        W 3567  24.007  39.839  13.508
36785W        W 3568  27.704   3.869   2.880
36786W        W 3569   9.283   6.194   3.595
36787W        W 3570  23.715  24.932  13.125
36788W        W 3571  40.329   1.966  12.103
36789W        W 3572  32.038   2.939   2.319
36790W        W 3573  42.909   2.162  12.449
36791W        W 3574  28.895  14.046   5.038
36792W        W 3575   2.233   1.807   4.501
36793W        W 3576  33.843  14.672  13.853
36794W        W 3577  31.328  34.887   0.727
36795W        W 3578  14.606  35.817  12.592
36796W        W 3579  28.057  30.308   0.327
36797W        W 3580  41.679   8.948  10.164
36798W        W 3581  33.106  33.332  13.884
36799W        W 3582  41.888  22.537  11.975
36800W        W 3583  44.066  34.435   3.131
36801W        W 3584   8.254   8.429  12.952
36802W        W 3585  13.066  18.731   3.627
36803W        W 3586   7.745  44.123   1.388
36804W        W 3587   9.158   3.948   3.180
36805W        W 3588  24.469  37.794   3.160
36806W        W 3589  41.228  29.391  14.633
36807W        W 3590  44.638  38.462   1.954
36808W        W 3591  38.458  16.860   4.495
36809W        W 3592   2.871  30.696  11.939
36810W        W 3593  41.542  26.216   0.423
36811W        W 3594  17.548   4.034   0.746
36812W        W 3595  12.770  40.325   1.153
36813W        W 3596   6.445  38.902  11.904
36814W        W 3597  12.696  39.004   0.317
36815W        W 3598  26.686  44.121  14.106
36816W        W 3599  21.538   0.543  12.229
36817W        W 3600  40.042  26.419   3.301
36818W        W 3601  29.084  35.869   0.365
36819W        W 3602  35.806  21.561  13.182
36820W        W 3603  13.304  24.685  10.613
36821W        W 3604  27.233   2.679   2.125
36822W        W 3605  30.036  11.677  14.995
36823W        W 3606  35.949   8.341   3.229
36824W        W 3607  37.871  14.497  13.759
36825W        W 3608  15.055  13.180   3.638
36826W        W 3609   6.783   1.595  12.857
36827W        W 3610  20.098  41.698   0.385
36828W        W 3611  11.770  23.839  11.215
36829W        W 3612   5.852  22.043  14.243
36830W        W 3613  29.042   6.359   3.229
36831W        W 3614  21.138  13.932   0.444
36832W        W 3615  19.790  12.628   3.792
36833W        W 3616  23.758   5.786   2.782
36834W        W 3617  13.824  34.176   3.487
36835W        W 3618   2.412   5.958  14.014
36836W        W 3619  19.416  18.511  11.448
36837W        W 3620  34.426  26.437   3.816
36838W        W 3621  37.317  35.052   0.307
36839W        W 3622  34.786  26.123   1.769
36840W        W 3623  17.614  30.002   4.389
36841W        W 3624  36.177  16.637  12.499
36842W        W 3625   1.537  34.652  14.076
36843W        W 3626  21.713  29.592  10.726
36844W        W 3627  11.568  30.679   2.860
36845W        W 3628  39.068  29.355   1.331
36846W        W 3629  21.471  43.296  13.056
36847W        W 3630  28.968  32.076  11.200
36848W        W 3631  20.203  25.460  11.217
36849W        W 3632   1.983  30.394   3.733
36850W        W 3633  42.377  42.863  10.587
36851W        W 3634  40.367  24.747  11.639
36852W        W 3635  44.690  29.980  11.520
36853W        W 3636  33.987  31.498   0.517
36854W        W 3637  44.237  23.678   0.876
36855W        W 3638  31.045  33.883  12.491
36856W        W 3639  11.589   6.567   2.921
36857W        W 3640  44.352  32.462   0.693
36858W        W 3641  35.949  32.598  11.808
36859W        W 3642  40.797  38.510   2.571
36860W        W 3643  43.671  11.398  14.945
36861W        W 3644  16.244  38.496   3.950
36862W        W 3645  35.048   0.719   4.354
36863W        W 3646  32.653  23.059   3.640
36864W        W 3647  11.395  32.594   3.590
36865W        W 3648   4.006  35.854   2.033
36866W        W 3649  28.735  31.789  12.011
36867W        W 3650  13.857  43.206   0.802
36868W        W 3651  23.801  11.354   2.879
36869W        W 3652  43.552   4.536  12.372
36870W        W 3653  26.169   9.637  10.983
36871W        W 3654  24.219   9.167   4.290
36872W        W 3655  29.724  27.352   1.352
36873W        W 3656   1.097  35.087   0.302
36874W        W 3657  34.034  26.266  10.717
36875W        W 3658  26.068   7.364   4.374
36876W        W 3659  22.274  11.140  12.782
36877W        W 3660   7.631  29.399   2.275
36878W        W 3661  30.246   4.736   3.175
36879W        W 3662  43.405  13.672   0.856
36880W        W 3663   1.802   0.236  14.799
36881W        W 3664   6.283  36.767   0.435
36882W        W 3665  28.326  15.013   1.470
36883W        W 3666  11.745   8.866   2.412
36884W        W 3667  40.749   5.749   0.328
36885W        W 3668  42.912  12.076  11.665
36886W        W 3669  12.104  15.660  12.573
36887W        W 3670  34.831   2.326  11.902
36888W        W 3671  35.529  20.716   0.507
36889W        W 3672  19.178  26.757  12.619
36890W        W 3673  27.321   0.686   2.713
36891W        W 3674  21.087  40.332   4.889
36892W        W 3675  13.153  28.748   1.663
36893W        W 3676  39.010  15.602   3.640
36894W        W 3677  41.612  21.617   2.115
36895W        W 3678  18.850  42.786   2.198
36896W        W 3679  43.388  19.826   4.014
36897W        W 3680  18.679  10.109  12.947
36898W        W 3681  12.109  36.645  11.607
36899W        W 3682  37.327  20.763   3.192
36900W        W 3683  27.825  41.891  14.487
36901W        W 3684   2.911  37.589   3.951
36902W        W 3685  10.783  39.472  12.092
36903W        W 3686  37.498  25.201  13.816
36904W        W 3687   9.472  19.663  13.619
36905W        W 3688  25.168  41.035   0.367
36906W        W 3689  22.189   2.336   2.914
36907W        W 3690  32.908  10.126   0.874
36908W        W 3691  38.414   5.288  14.744
36909W        W 3692  32.910   3.274   4.357
36910W        W 3693  14.043  11.411  12.907
36911W        W 3694  43.236  26.439  12.430
36912W        W 3695   7.296  15.540  10.747
36913W        W 3696   1.337   3.055   1.720
36914W        W 3697  20.452  15.765  11.183
36915W        W 3698  16.538  21.270   3.398
36916W        W 3699   5.672  11.788  14.931
36917W        W 3700  29.789  44.310  10.090
36918W        W 3701  37.335  36.170   4.130
36919W        W 3702   8.905  32.056  13.979
36920W        W 3703  28.168  36.840  13.854
36921W        W 3704  32.597  25.533   3.847
36922W        W 3705   3.262   7.630   0.727
36923W        W 3706  14.623  33.809   4.954
36924W        W 3707  24.563  26.861   1.347
36925W        W 3708  35.444  24.943  11.912
36926W        W 3709  40.770  27.355  13.862
36927W        W 3710  16.615   0.107   1.240
36928W        W 3711  21.223  28.490  14.339
36929W        W 3712  26.218   4.354   4.864
36930W        W 3713  37.740  41.743   4.823
36931W        W 3714  35.012  40.581  14.265
36932W        W 3715  19.291  24.127   1.956
36933W        W 3716  31.374  23.675   0.504
36934W        W 3717   7.900  30.777  13.514
36935W        W 3718   6.929   5.417  11.121
36936W        W 3719  39.778  39.802   2.809
36937W        W 3720  18.256   2.163   4.206
36938W        W 3721  36.477   0.499  12.443
36939W        W 3722  12.707  26.588   0.722
36940W        W 3723   6.360  27.724   0.551
36941W        W 3724  16.605   3.225  10.876
36942W        W 3725   7.732  38.581  12.490
36943W        W 3726  28.619   7.873  11.977
36944W        W 3727  32.587  33.115   0.457
36945W        W 3728  43.771   2.365   0.942
36946W        W 3729  29.176  32.865  12.543
36947W        W 3730   4.748  33.371   4.720
36948W        W 3731  26.034  17.139   0.334
36949W        W 3732  21.380  42.042   0.064
36950W        W 3733  40.427   2.371  14.586
36951W        W 3734  19.308  20.524   0.851
36952W        W 3735  42.161  23.641  11.849
36953W        W 3736  10.795  23.583   0.986
36954W        W 3737   4.411  13.633   3.888
36955W        W 3738   6.197   9.782  11.907
36956W        W 3739   2.453  34.533   4.619
36957W        W 3740   3.347  21.941  13.919
36958W        W 3741   8.819   7.600  11.588
36959W        W 3742  23.736   6.897   4.298
36960W        W 3743   6.192   7.522   3.679
36961W        W 3744  15.696   9.861  11.624
36962W        W 3745   2.296  10.867   3.311
36963W        W 3746   8.671  19.072   0.466
36964W        W 3747  18.682  12.277   0.991
36965W        W 3748  39.342   8.520  12.890
36966W        W 3749  13.437   8.638  10.757
36967W        W 3750   2.898  12.139  11.055
36968W        W 3751  13.165  25.846   0.695
36969W        W 3752  31.008  28.252  10.943
36970W        W 3753  39.617   4.454  10.722
36971W        W 3754  33.432   0.729  10.716
36972W        W 3755  32.399  33.050   2.669
36973W        W 3756   8.420  30.009   3.195
36974W        W 3757   0.466   4.912   4.296
36975W        W 3758  11.417  42.349   4.377
36976W        W 3759  16.267  42.808  14.499
36977W        W 3760  11.981  19.753   3.260
36978W        W 3761  21.997  39.370  13.101
36979W        W 3762  29.649  38.985  11.523
36980W        W 3763  12.150  10.217   2.813
36981W        W 3764  43.471  30.879  13.829
36982W        W 3765  18.883  30.097  13.536
36983W        W 3766  26.621  34.491  11.968
36984W        W 3767  38.973   2.121  14.548
36985W        W 3768   9.181   5.182  10.334
36986W        W 3769  11.707  33.968   3.203
36987W        W 3770  22.242  10.699  12.013
36988W        W 3771  18.889  43.225   4.492
36989W        W 3772   4.425  25.082  11.405
36990W        W 3773  41.291  42.454  11.138
36991W        W 3774  25.552   3.878  10.309
36992W        W 3775   7.626   4.790   1.678
36993W        W 3776  16.248  22.112  10.824
36994W        W 3777  26.412  30.964  11.618
36995W        W 3778  24.618  26.934  10.607
36996W        W 3779   8.632   4.691  13.479
36997W        W 3780  11.208  38.635   0.327
36998W        W 3781  32.863  24.587   0.406
36999W        W 3782  24.164  27.788  14.003
37000W        W 3783   6.736   4.426   2.108
37001W        W 3784   5.489  39.825  11.274
37002W        W 3785  34.558  44.142   0.096
37003W        W 3786   0.524  15.837   2.243
37004W        W 3787  11.303   8.308   9.928
37005W        W 3788  21.096  37.102  11.151
37006W        W 3789  26.574  30.893  13.348
37007W        W 3790   3.524   8.925  10.730
37008W        W 3791  25.857  44.289  11.854
37009W        W 3792  27.135  10.360   4.406
37010W        W 3793  26.476  27.975   3.241
37011W        W 3794  15.192  18.818   2.306
37012W        W 3795  30.399  20.788  14.897
37013W        W 3796  41.333   9.248   2.241
37014W        W 3797  25.550  36.813   4.600
37015W        W 3798   6.274   6.676   1.843
37016W        W 3799  38.879  27.000  10.688
37017W        W 3800  21.574  13.620   3.127
37018W        W 3801  36.677  40.829   0.046
37019W        W 3802   6.807  21.990   2.739
37020W        W 3803  40.783  21.986   4.153
37021W        W 3804  35.013  15.642   1.221
37022W        W 3805  12.668   8.911   4.950
37023W        W 3806  10.363  43.333  12.098
37024W        W 3807  33.434  25.494  11.315
37025W        W 3808  26.661  24.013   0.217
37026W        W 3809   9.427  40.432  11.170
37027W        W 3810  38.834  16.269  13.938
37028W        W 3811  16.599  24.311  11.768
37029W        W 3812  42.506  27.624  14.588
37030W        W 3813  24.586  21.693   3.266
37031W        W 3814  11.095   3.899  12.262
37032W        W 3815  12.696   0.076   1.363
37033W        W 3816  27.843  31.302  12.001
37034W        W 3817  12.736  21.768  10.958
37035W        W 3818   5.231  19.888  13.667
37036W        W 3819  39.142   1.687  14.360
37037W        W 3820  27.853  20.565   4.141
37038W        W 3821   5.923  38.090  12.319
37039W        W 3822  43.453  40.284   0.812
37040W        W 3823   1.024   7.312   3.362
37041W        W 3824  35.169  26.569   4.481
37042W        W 3825  31.043  41.996  13.410
37043W        W 3826  20.580  23.463   2.408
37044W        W 3827  16.345  20.596  11.896
37045W        W 3828  13.218   7.394   2.869
37046W        W 3829   2.898   3.726   2.733
37047W        W 3830  15.774   8.647  11.593
37048W        W 3831  21.447  23.881   5.002
37049W        W 3832  41.048   9.179  13.905
37050W        W 3833  15.929  28.926  14.566
37051W        W 3834  20.997  15.281   9.781
37052W        W 3835  19.893  12.093  13.402
37053W        W 3836   5.848  14.351   2.654
37054W        W 3837  35.891   3.339   3.001
37055W        W 3838   2.561  19.464  12.517
37056W        W 3839  35.802  15.691  11.187
37057W        W 3840  35.524  28.922   3.223
37058W        W 3841  17.112  22.622  11.567
37059W        W 3842  15.253  35.923   3.687
37060W        W 3843  19.004  18.689   0.930
37061W        W 3844   2.955   1.548  14.361
37062W        W 3845   2.627  29.555  11.589
37063W        W 3846  39.596  22.769  12.294
37064W        W 3847  32.551  12.561   2.815
37065W        W 3848  12.399   3.608  12.054
37066W        W 3849  43.929  28.879   1.244
37067W        W 3850  15.222  38.966  13.881
37068W        W 3851  12.309  32.910   1.041
37069W        W 3852  32.403  17.811  14.887
37070W        W 3853  11.110  12.599   2.996
37071W        W 3854  24.888   5.292  11.915
37072W        W 3855  39.966  31.672  13.211
37073W        W 3856   6.144  17.053   4.034
37074W        W 3857   9.754  32.926  12.167
37075W        W 3858   9.739  41.397   0.503
37076W        W 3859  30.367  21.258   1.594
37077W        W 3860   3.997   0.039  11.193
37078W        W 3861  22.760  16.401  10.465
37079W        W 3862  31.627  24.759  11.258
37080W        W 3863  31.432  18.802   1.023
37081W        W 3864  25.550  20.356   3.675
37082W        W 3865  40.389  40.146   4.974
37083W        W 3866   3.537  15.762  12.333
37084W        W 3867   2.348  37.225   4.686
37085W        W 3868  10.965   2.335  12.746
37086W        W 3869   6.271  17.637   2.409
37087W        W 3870  22.603   6.456   4.630
37088W        W 3871  19.819   6.857   1.057
37089W        W 3872   4.830   7.263  11.728
37090W        W 3873   3.218  41.044  14.831
37091W        W 3874  43.245   8.292  12.454
37092W        W 3875  13.608  19.605   0.026
37093W        W 3876  16.372   0.531   0.366
37094W        W 3877   0.301  19.081  11.716
37095W        W 3878  12.919  22.023   3.284
37096W        W 3879   5.735   7.798   3.733
37097W        W 3880  23.613  17.554   1.418
37098W        W 3881  39.868  23.761   3.263
37099W        W 3882  28.352  25.144   4.682
37100W        W 3883  14.140  24.021   4.614
37101W        W 3884  41.347  34.582  14.257
37102W        W 3885   2.638  30.421   0.958
37103W        W 3886  19.761  40.431  13.120
37104W        W 3887  36.923  23.020   2.536
37105W        W 3888  20.626  25.692  11.407
37106W        W 3889   8.915  20.851  14.254
37107W        W 3890  15.059   5.287   4.740
37108W        W 3891  25.638   1.227   1.472
37109W        W 3892   1.946  28.472  11.843
37110W        W 3893  14.122  20.342  14.880
37111W        W 3894  44.507   2.975  14.754
37112W        W 3895  24.710  43.862   0.812
37113W        W 3896  26.995  14.148  13.548
37114W        W 3897  17.750  23.553  11.566
37115W        W 3898   7.346  15.742  11.212
37116W        W 3899  17.221   2.196  11.990
37117W        W 3900  37.914   1.497  11.438
37118W        W 3901  42.233  42.092   4.245
37119W        W 3902   6.526  22.539  12.666
37120W        W 3903  44.768  26.154  13.443
37121W        W 3904   6.961  15.521   3.993
37122W        W 3905  43.271  26.378   3.629
37123W        W 3906  15.375  25.167   0.369
37124W        W 3907  23.643  15.202  10.699
37125W        W 3908  32.015  38.504   2.929
37126W        W 3909   8.979  20.599   1.474
37127W        W 3910  11.934   1.620  13.397
37128W        W 3911   9.024  22.337   3.420
37129W        W 3912  40.756  20.007   2.952
37130W        W 3913  14.858  36.151  13.859
37131W        W 3914   3.796  44.811   1.476
37132W        W 3915  31.654  18.817   2.383
37133W        W 3916  27.776  24.129   4.116
37134W        W 3917  22.796  27.530   1.846
37135W        W 3918  37.940   5.876   3.456
37136W        W 3919  10.193   8.702  12.536
37137W        W 3920   4.026  23.787   0.838
37138W        W 3921  42.240  36.384   3.290
37139W        W 3922  23.175  15.293  13.296
37140W        W 3923  28.701  25.211   3.724
37141W        W 3924   0.040  40.441  14.888
37142W        W 3925   1.081  28.185   1.749
37143W        W 3926  23.906  10.480   0.332
37144W        W 3927  11.181  43.764   3.208
37145W        W 3928  27.585   5.332   2.824
37146W        W 3929  41.188  10.779   4.127
37147W        W 3930  42.777  28.351  10.746
37148W        W 3931  12.164  26.873  13.600
37149W        W 3932  19.330  41.015  14.979
37150W        W 3933  15.293   6.278   3.699
37151W        W 3934  16.280  25.664   4.951
37152W        W 3935  30.674  18.815  10.436
37153W        W 3936  13.242  33.912   0.943
37154W        W 3937  19.086   1.890   0.388
37155W        W 3938   9.916  18.596   0.925
37156W        W 3939  37.926   6.416  14.000
37157W        W 3940  30.021  28.569   2.760
37158W        W 3941  41.875  43.733  14.960
37159W        W 3942  14.039  26.569  12.448
37160W        W 3943  35.663  29.457   2.395
37161W        W 3944  20.238   9.818  13.899
37162W        W 3945   5.417  12.338  13.847
37163W        W 3946  19.713  13.019  10.850
37164W        W 3947  26.261  44.676   1.822
37165W        W 3948  34.482  21.281  10.722
37166W        W 3949  34.341  27.513  13.973
37167W        W 3950  41.995   3.934  13.982
37168W        W 3951  31.863  28.630   2.625
37169W        W 3952  40.532  23.386   3.571
37170W        W 3953  39.844   7.237   1.776
37171W        W 3954  31.180  42.999   3.699
37172W        W 3955  19.930  22.758  11.217
37173W        W 3956  14.842  10.755  13.834
37174W        W 3957  28.981  34.199  13.544
37175W        W 3958   9.232  29.737  10.629
37176W        W 3959  32.980  40.844   4.521
37177W        W 3960  22.989  11.559   2.948
37178W        W 3961  12.913  41.971   3.304
37179W        W 3962  41.341  20.244   0.012
37180W        W 3963   3.940  15.591   3.191
37181W        W 3964  37.056  38.806   1.755
37182W        W 3965  22.455  42.477   1.663
37183W        W 3966   5.772   2.306   1.266
37184W        W 3967  36.882  20.728   4.572
37185W        W 3968  37.443   3.519  10.870
37186W        W 3969   0.065  13.040   3.290
37187W        W 3970  22.284  30.526  14.483
37188W        W 3971  16.202  35.067   3.471
37189W        W 3972  25.034   6.872  13.810
37190W        W 3973  19.008  21.740   0.396
37191W        W 3974   7.559  11.529  11.054
37192W        W 3975  21.579   3.422   3.175
37193W        W 3976  12.147  24.846  10.605
37194W        W 3977   1.254  12.239  11.778
37195W        W 3978   6.125  37.094   1.767
37196W        W 3979  15.860  22.647   4.500
37197W        W 3980  26.019  38.887  14.455
37198W        W 3981   4.334  44.885  13.743
37199W        W 3982   5.107   3.450   1.287
37200W        W 3983  19.206  40.090   1.628
37201W        W 3984  27.164   1.940  13.160
37202W        W 3985  24.217   0.966  14.904
37203W        W 3986  12.518  10.601  12.915
37204W        W 3987  13.324  32.506  14.563
37205W        W 3988  43.901   4.444  13.514
37206W        W 3989  30.516  27.607  13.339
37207W        W 3990   9.686  12.361   2.804
37208W        W 3991  17.123  10.605   4.160
37209W        W 3992  41.888  30.837   2.699
37210W        W 3993  19.033  25.526   3.669
37211W        W 3994  25.657  41.149   1.269
37212W        W 3995  36.988  29.546   4.630
37213W        W 3996  34.514  37.179  12.845
37214W        W 3997  27.628   9.946   0.261
37215W        W 3998  37.337  30.540   0.971
37216W        W 3999  30.400  33.912  13.848
37217W        W 4000  40.534  26.576   0.789
37218W        W 4001   7.749   3.945  12.228
37219W        W 4002  24.672  14.579   4.156
37220W        W 4003  21.530   5.395  13.677
37221W        W 4004  35.704  12.444   1.366
37222W        W 4005  31.359  20.592  14.872
37223W        W 4006  15.659  34.174   2.915
37224W        W 4007  29.175   5.191  13.352
37225W        W 4008  31.175  16.058   0.909
37226W        W 4009  36.971   4.075  13.453
37227W        W 4010  25.794  28.271   0.325
37228W        W 4011   8.399  12.917  11.407
37229W        W 4012  31.090  22.453  11.247
37230W        W 4013  41.147  24.484  11.247
37231W        W 4014   0.123  39.056   1.794
37232W        W 4015  33.194  31.539   2.887
37233W        W 4016  19.367   2.004   4.314
37234W        W 4017  27.682  12.280  11.113
37235W        W 4018  20.891   5.456  10.404
37236W        W 4019  44.853  32.552   2.844
37237W        W 4020  34.096   8.615   0.955
37238W        W 4021  22.482  39.198   5.004
37239W        W 4022  36.950  17.165   3.162
37240W        W 4023   7.798   2.370  11.287
37241W        W 4024  29.103  11.086   2.393
37242W        W 4025   6.137  22.377  12.364
37243W        W 4026   9.826  10.012   2.231
37244W        W 4027  27.270   7.389  14.798
37245W        W 4028  13.259  22.044  11.527
37246W        W 4029  11.935  43.027  13.466
37247W        W 4030  34.958  22.095   0.406
37248W        W 4031   4.982  37.126   3.050
37249W        W 4032  21.067  23.535   2.185
37250W        W 4033  14.563  19.160  12.575
37251W        W 4034  44.963  16.786  11.419
37252W        W 4035  34.629  29.623  14.063
37253W        W 4036  38.442  34.520   2.081
37254W        W 4037  26.146  10.042  10.660
37255W        W 4038   3.434  36.353  12.968
37256W        W 4039  41.793  17.464  10.535
37257W        W 4040  40.781  28.089   4.291
37258W        W 4041  34.493  42.936  11.232
37259W        W 4042  32.455   4.805  14.286
37260W        W 4043  21.510  13.870  10.295
37261W        W 4044  26.566  22.474  14.546
37262W        W 4045   8.683   5.403   3.621
37263W        W 4046  10.469  29.060  11.599
37264W        W 4047  19.082  10.649   1.584
37265W        W 4048  32.134  20.675  11.708
37266W        W 4049  22.052   2.605   3.326
37267W        W 4050  37.274   4.664  12.465
37268W        W 4051  26.565  20.342   0.830
37269W        W 4052  15.151  41.835   0.302
37270W        W 4053   6.206  23.633  13.499
37271W        W 4054  30.240  13.424  13.380
37272W        W 4055  34.253   8.818   3.343
37273W        W 4056  41.378   2.518  11.057
37274W        W 4057   4.310   1.359  14.311
37275W        W 4058  17.765   2.792   2.240
37276W        W 4059  13.579  11.443  13.186
37277W        W 4060   8.262  14.126   3.670
37278W        W 4061  38.405  42.464  12.404
37279W        W 4062   0.622  10.764  11.976
37280W        W 4063  38.865  14.379  10.817
37281W        W 4064  36.342  20.584   4.456
37282W        W 4065  34.171  44.783  12.586
37283W        W 4066  33.860   2.152   1.807
37284W        W 4067  34.937   0.536   3.877
37285W        W 4068   9.377  10.217  11.082
37286W        W 4069  28.124  42.578  10.658
37287W        W 4070  25.663  33.387   3.715
37288W        W 4071   1.471  37.474  10.000
37289W        W 4072  40.097  33.597   0.710
37290W        W 4073  23.126  44.357  11.179
37291W        W 4074  24.412  15.561  13.065
37292W        W 4075  16.268  30.483   2.116
37293W        W 4076   2.950  23.494  12.989
37294W        W 4077   4.161  36.511  11.498
37295W        W 4078  44.554  31.103  12.360
37296W        W 4079  28.490   5.699   1.259
37297W        W 4080  17.152  26.599  13.623
37298W        W 4081   2.864  33.405  11.415
37299W        W 4082  35.654  40.462   1.870
37300W        W 4083  36.375  32.046  14.671
37301W        W 4084  11.404  37.061   3.799
37302W        W 4085  21.664   5.066   4.126
37303W        W 4086  18.625  34.939  10.668
37304W        W 4087  40.459  10.642   2.419
37305W        W 4088  10.856  32.697  10.557
37306W        W 4089  38.591   8.187   2.270
37307W        W 4090  38.266  44.494  12.950
37308W        W 4091  10.685  28.484  11.624
37309W        W 4092  27.137   9.772  10.567
37310W        W 4093  26.261  26.635  14.673
37311W        W 4094  23.948  21.823  11.396
37312W        W 4095  31.608  15.595  11.997
37313W        W 4096  12.723   5.240   4.639
37314W        W 4097  31.155  22.539   0.830
37315W        W 4098  23.572  14.643  11.830
37316W        W 4099  35.334  19.982   2.212
37317W        W 4100  24.005  20.810   3.167
37318W        W 4101   7.296  25.957   1.806
37319W        W 4102  12.839  40.818   2.612
37320W        W 4103  16.282  38.043  13.333
37321W        W 4104  17.603  19.802   2.946
37322W        W 4105  15.363   0.533   2.401
37323W        W 4106  26.022   4.404   4.348
37324W        W 4107  14.974  43.731  11.319
37325W        W 4108  14.844  40.987   0.493
37326W        W 4109  36.545  41.539   2.730
37327W        W 4110  38.299  40.805   1.425
37328W        W 4111  11.858  12.189   2.727
37329W        W 4112  23.566  40.101  13.490
37330W        W 4113  14.219  12.595   3.247
37331W        W 4114   4.328   2.584  13.580
37332W        W 4115  27.031  24.448   4.072
37333W        W 4116  37.173  44.748   2.657
37334W        W 4117  22.562   4.389  10.329
37335W        W 4118  28.099  12.176  13.487
37336W        W 4119   6.952  37.477   1.789
37337W        W 4120  20.530  36.580  14.505
37338W        W 4121  17.983   6.236  12.440
37339W        W 4122  24.949  18.157   2.876
37340W        W 4123  43.910  21.557  12.863
37341W        W 4124  13.643   5.869  11.745
37342W        W 4125  31.219  33.063   3.858
37343W        W 4126  25.508  17.314   4.186
37344W        W 4127  32.358  27.593   3.013
37345W        W 4128  10.096  43.769  13.033
37346W        W 4129  35.902   0.547  13.100
37347W        W 4130  26.035  22.405  11.599
37348W        W 4131  15.612  20.254   3.153
37349W        W 4132  14.305  31.291   1.565
37350W        W 4133  41.783  14.270   3.084
37351W        W 4134  15.143  31.594   1.002
37352W        W 4135  12.856  26.666   1.230
37353W        W 4136   2.403  18.590   3.806
37354W        W 4137  19.243  25.089  13.809
37355W        W 4138  19.726  39.987  12.861
37356W        W 4139  29.008   3.366   1.254
37357W        W 4140  32.897  19.754  11.653
37358W        W 4141  40.346   3.661   2.241
37359W        W 4142  29.493  15.741  11.720
37360W        W 4143  18.309  35.926   2.015
37361W        W 4144  30.866  24.127  11.577
37362W        W 4145  23.961   5.809   4.144
37363W        W 4146  26.900  44.439   2.387
37364W        W 4147  19.481  36.856  13.926
37365W        W 4148   5.021  24.454   4.560
37366W        W 4149   3.246  38.311  12.913
37367W        W 4150  25.242   8.317  14.751
37368W        W 4151   1.529   9.392   4.899
37369W        W 4152  23.760  17.979   0.389
37370W        W 4153  14.714  44.267  12.665
37371W        W 4154  28.934  13.676  11.460
37372W        W 4155  30.123  26.926   4.068
37373W        W 4156   1.293  36.385   4.772
37374W        W 4157  25.128  41.892   0.812
37375W        W 4158  15.591  29.643   1.699
37376W        W 4159  41.846  25.783  14.051
37377W        W 4160  26.696   9.013   4.173
37378W        W 4161   2.689  17.622  13.958
37379W        W 4162  18.859   4.316   1.009
37380W        W 4163  26.532  34.769  14.705
37381W        W 4164  15.609   3.175   4.123
37382W        W 4165  10.274  22.524  12.095
37383W        W 4166  32.726   2.453   0.252
37384W        W 4167  27.474   4.008   3.921
37385W        W 4168  12.390   5.325  12.490
37386W        W 4169  19.496   2.804  13.382
37387W        W 4170  19.718  43.546  11.425
37388W        W 4171  41.741  29.565   0.409
37389W        W 4172  15.286   2.021  12.575
37390W        W 4173  26.488   4.801  13.102
37391W        W 4174  14.720  19.188  14.508
37392W        W 4175   2.385  22.177   0.415
37393W        W 4176  35.894   8.500  12.950
37394W        W 4177   3.165   9.350   4.109
37395W        W 4178  11.860   7.769  13.858
37396W        W 4179  24.110  12.401   0.334
37397W        W 4180  35.337  12.830  14.912
37398W        W 4181  38.641  20.612  12.540
37399W        W 4182  21.185  18.996  14.364
37400W        W 4183  26.495   2.972  13.927
37401W        W 4184  43.244  26.225  13.451
37402W        W 4185  25.092  39.771   1.398
37403W        W 4186  44.328  11.819  13.364
37404W        W 4187  35.158  30.629   0.838
37405W        W 4188  43.884   8.869   2.284
37406W        W 4189  35.382  28.082  11.669
37407W        W 4190  16.044  22.095   4.778
37408W        W 4191  32.654  32.406  12.103
37409W        W 4192  43.817  25.760   0.374
37410W        W 4193  40.276  25.971   3.682
37411W        W 4194  14.182  33.506  13.164
37412W        W 4195   7.153  35.127   4.299
37413W        W 4196  26.562   8.447   0.584
37414W        W 4197   6.452  14.633   4.312
37415W        W 4198  38.653  12.738  13.841
37416W        W 4199  18.066  23.672  14.148
37417W        W 4200  25.892  31.120  10.761
37418W        W 4201   2.161   3.886   4.122
37419W        W 4202   2.722  12.816  13.496
37420W        W 4203  10.772   3.471  13.775
37421W        W 4204   3.261  44.903   4.127
37422W        W 4205   8.385  27.178  14.830
37423W        W 4206  30.494  37.026   4.599
37424W        W 4207  10.525  39.506   0.352
37425W        W 4208  24.747  36.980  12.894
37426W        W 4209  12.163  19.743  13.823
37427W        W 4210  38.906  43.363   4.772
37428W        W 4211  42.571  43.859  13.446
37429W        W 4212  31.581  31.185  13.861
37430W        W 4213   8.630  13.621  12.405
37431W        W 4214  42.456  24.516  13.632
37432W        W 4215   2.958  37.233   3.575
37433W        W 4216  25.180  35.037  13.892
37434W        W 4217   1.286  28.127  12.939
37435W        W 4218   3.337  28.652   0.870
37436W        W 4219  11.683  24.986   4.449
37437W        W 4220  43.326  20.517   2.728
37438W        W 4221   6.249  25.782  13.997
37439W        W 4222   7.364  12.084  12.034
37440W        W 4223  35.310  11.736   1.759
37441W        W 4224  29.075   3.779   2.221
37442W        W 4225  24.020   5.957   1.466
37443W        W 4226  14.111  36.067  11.719
37444W        W 4227  29.827  17.361   2.354
37445W        W 4228   9.733   2.200   2.181
37446W        W 4229  31.482  18.187   3.674
37447W        W 4230  19.319   8.912  12.996
37448W        W 4231  44.155  29.072  11.643
37449W        W 4232  37.514  17.451   0.703
37450W        W 4233  24.062  41.923   2.811
37451W        W 4234  22.909  16.959   1.907
37452W        W 4235  19.892  17.982  12.376
37453W        W 4236  16.418  37.965   2.306
37454W        W 4237  26.672  27.440  13.424
37455W        W 4238  38.415  27.203   1.265
37456W        W 4239  15.178  33.656  12.956
37457W        W 4240  25.347   4.895  10.666
37458W        W 4241  18.865  35.344  14.312
37459W        W 4242  35.809  13.478  11.166
37460W        W 4243  14.555  22.220  14.505
37461W        W 4244  12.465  37.834   2.543
37462W        W 4245  20.741  40.997  11.052
37463W        W 4246  34.962  10.788   2.469
37464W        W 4247  26.164   0.485  14.303
37465W        W 4248  10.325  10.044  14.526
37466W        W 4249  29.263   5.499   1.940
37467W        W 4250  20.152  17.133   1.720
37468W        W 4251   4.665  11.434   0.947
37469W        W 4252  17.772   6.371  12.906
37470W        W 4253  27.443   1.072   1.874
37471W        W 4254  33.114  25.112  14.660
37472W        W 4255  29.135  23.803   2.124
37473W        W 4256   7.962  22.318  13.814
37474W        W 4257  30.083   1.783  14.031
37475W        W 4258  16.186  33.842  11.690
37476W        W 4259  33.863  11.436  12.831
37477W        W 4260   7.238  40.302   0.769
37478W        W 4261  42.970  38.958  11.657
37479W        W 4262  35.528  27.655  12.385
37480W        W 4263   8.965  29.989  10.991
37481W        W 4264  38.436   7.741   3.504
37482W        W 4265  13.746   4.980  10.663
37483W        W 4266  42.192   1.800  12.083
37484W        W 4267  24.575  36.491  11.154
37485W        W 4268  28.907   4.298   3.138
37486W        W 4269  10.753   0.203  13.362
37487W        W 4270  23.416  17.622  14.270
37488W        W 4271  42.747   6.191  11.165
37489W        W 4272   8.906  28.651  12.915
37490W        W 4273  21.159   6.051   4.646
37491W        W 4274  44.544  44.794  11.983
37492W        W 4275  13.583  41.255  13.370
37493W        W 4276  25.987   3.890   1.113
37494W        W 4277  17.175  44.090  13.757
37495W        W 4278  36.020  41.434  11.554
37496W        W 4279  24.031  21.823   3.286
37497W        W 4280  14.202  14.751   1.024
37498W        W 4281  44.520  33.632   1.354
37499W        W 4282  37.517  39.892  13.793
37500W        W 4283   0.963  13.515   1.881
37501W        W 4284   9.647  29.898  14.838
37502W        W 4285  41.891  16.076  12.152
37503W        W 4286  34.795  21.243   1.408
37504W        W 4287  25.346  36.566   3.374
37505W        W 4288  23.767  24.015  14.366
37506W        W 4289  26.181  11.257  13.884
37507W        W 4290  22.671   2.140  11.241
37508W        W 4291  20.197   4.009   0.247
37509W        W 4292  22.559  12.244  10.425
37510W        W 4293  23.244  36.321   3.701
37511W        W 4294  26.446  41.053  10.323
37512W        W 4295  23.712  13.214   2.152
37513W        W 4296   3.119   1.085  10.717
37514W        W 4297  28.532  13.499  11.152
37515W        W 4298  39.219  17.334  13.952
37516W        W 4299  26.360  19.065   2.142
37517W        W 4300  40.906  17.729   2.267
37518W        W 4301  39.195  38.967   5.186
37519W        W 4302  20.401  44.997  10.587
37520W        W 4303  39.976  12.151   1.077
37521W        W 4304   1.861  39.914  10.526
37522W        W 4305  37.343  10.407  12.000
37523W        W 4306   6.916   4.756  11.865
37524W        W 4307  37.145  15.814   2.993
37525W        W 4308   1.167  12.106   0.026
37526W        W 4309  23.259  31.789  11.125
37527W        W 4310  38.808  19.231  14.903
37528W        W 4311  27.541  31.164  11.105
37529W        W 4312  27.042  21.628   2.645
37530W        W 4313  10.032   3.239  10.726
37531W        W 4314   7.787  11.865   1.501
37532W        W 4315  15.132  40.997  12.910
37533W        W 4316  38.534   2.392  13.322
37534W        W 4317  35.475  40.938   1.390
37535W        W 4318  29.490   5.105  11.182
37536W        W 4319  17.128  16.321  11.560
37537W        W 4320  35.109  18.490   4.093
37538W        W 4321  29.457  17.445  11.106
37539W        W 4322  42.231  32.919  13.527
37540W        W 4323  33.596   2.168  14.999
37541W        W 4324   8.520   8.629   0.879
37542W        W 4325  29.880  34.627  12.275
37543W        W 4326   1.142   5.253  12.000
37544W        W 4327  34.782   8.957   4.019
37545W        W 4328   3.452   2.379   3.218
37546W        W 4329   1.652  36.127   5.044
37547W        W 4330   7.150   4.877   0.750
37548W        W 4331   8.116  27.799   0.452
37549W        W 4332  35.641  36.783   2.667
37550W        W 4333  33.948  21.788   5.353
37551W        W 4334   8.396  36.886   1.744
37552W        W 4335  37.334  23.717  13.135
37553W        W 4336  39.518  10.777  10.994
37554W        W 4337  31.908  33.981   2.128
37555W        W 4338  14.842  38.521  14.834
37556W        W 4339  41.874   1.799  11.588
37557W        W 4340   3.663  26.169  12.625
37558W        W 4341  14.778  44.206  14.041
37559W        W 4342   6.263  20.178  12.108
37560W        W 4343  41.776  15.369   3.224
37561W        W 4344  43.901  42.452   3.428
37562W        W 4345  44.546  16.819  13.342
37563W        W 4346  16.519  35.438  10.713
37564W        W 4347  31.721  14.753  13.415
37565W        W 4348   2.451   5.026  11.396
37566W        W 4349  38.121  32.903  10.655
37567W        W 4350   6.777  37.983   2.894
37568W        W 4351   3.276  35.616  13.399
37569W        W 4352  21.673  32.801  13.157
37570W        W 4353  32.051  37.277  12.958
37571W        W 4354  16.667  23.655   2.752
37572W        W 4355  39.559   6.672   4.531
37573W        W 4356  44.806  13.689   2.605
37574W        W 4357  30.939  25.223  12.951
37575W        W 4358  20.181  32.497   4.293
37576W        W 4359  12.193  25.986  13.882
37577W        W 4360   3.834  34.904  13.261
37578W        W 4361  31.067  17.100   4.443
37579W        W 4362  42.495  38.773   0.815
37580W        W 4363  35.529  10.707  14.223
37581W        W 4364  29.959  38.917   0.953
37582W        W 4365  15.514  23.114   3.121
37583W        W 4366  42.328   1.404   4.227
37584W        W 4367   2.656  31.646  14.975
37585W        W 4368  40.350  13.614   2.321
37586W        W 4369  35.148  18.984  12.937
37587W        W 4370  43.430  20.822  13.776
37588W        W 4371   0.784  26.730   1.300
37589W        W 4372  13.880   8.276   0.752
37590W        W 4373  12.208   9.404   0.049
37591W        W 4374  33.162  10.720   1.374
37592W        W 4375   3.010  22.731  13.898
37593W        W 4376   3.432  38.771   2.828
37594W        W 4377  33.592  41.813   4.676
37595W        W 4378  39.330  37.283   0.726
37596W        W 4379  31.393  30.881  12.421
37597W        W 4380   4.123  41.887   4.211
37598W        W 4381  39.033   8.472   2.171
37599W        W 4382   4.734  13.938  11.625
37600W        W 4383   6.884  30.398  12.872
37601W        W 4384   3.371   8.417  10.807
37602W        W 4385  42.078  37.373   2.725
37603W        W 4386  13.652  17.367   2.702
37604W        W 4387  28.490   0.379  14.261
37605W        W 4388  36.100   5.896  10.122
37606W        W 4389  31.141  34.653   3.230
37607W        W 4390  34.195   3.272   4.747
37608W        W 4391  42.385  21.557  11.005
37609W        W 4392  18.182   6.885   0.049
37610W        W 4393  40.985   1.078  13.215
37611W        W 4394  27.134  42.319  11.735
37612W        W 4395  39.639  20.898  13.885
37613W        W 4396  39.031  15.266   2.372
37614W        W 4397  29.719  39.498   1.489
37615W        W 4398  14.079  33.038   2.825
37616W        W 4399  22.854  39.016   9.834
37617W        W 4400  23.088  17.332  14.821
37618W        W 4401  42.274  14.425  11.149
37619W        W 4402  40.339  29.595  14.967
37620W        W 4403  32.974  38.337   2.353
37621W        W 4404  18.321  37.104   2.962
37622W        W 4405  29.977  23.565  12.561
37623W        W 4406   7.676  30.006  10.652
37624W        W 4407  37.528   9.877   0.306
37625W        W 4408  15.492  35.955   0.541
37626W        W 4409  43.768   4.216  13.986
37627W        W 4410  15.323  35.821   1.768
37628W        W 4411  10.084  41.730  14.492
37629W        W 4412   8.184  17.180   0.828
37630W        W 4413  19.836  14.987   2.814
37631W        W 4414  44.207   7.494   2.203
37632W        W 4415  34.543  26.769  11.574
37633W        W 4416  13.242  31.968  11.580
37634W        W 4417  10.657  41.684   0.820
37635W        W 4418  14.467  40.325   3.430
37636W        W 4419   8.275   0.286  12.683
37637W        W 4420  42.923   9.989  10.285
37638W        W 4421  43.819  34.459   4.514
37639W        W 4422  44.440   2.707  14.288
37640W        W 4423  32.707   6.272  13.484
37641W        W 4424  36.376   8.396   2.905
37642W        W 4425  21.676  43.792   0.920
37643W        W 4426  44.478  21.988  14.711
37644W        W 4427  38.921   1.496  11.917
37645W        W 4428  25.165  42.041   2.637
37646W        W 4429  31.528   5.623   2.261
37647W        W 4430  21.049  31.847  12.678
37648W        W 4431   7.545  28.452  12.189
37649W        W 4432  19.340   6.115  10.714
37650W        W 4433  20.803  29.656   4.561
37651W        W 4434  43.530  36.825  12.069
37652W        W 4435  40.278   6.855   0.266
37653W        W 4436   4.933  33.087  12.486
37654W        W 4437  24.643  23.872  12.957
37655W        W 4438  44.373  28.998  14.554
37656W        W 4439  13.360   5.374   3.293
37657W        W 4440  21.753  15.880   2.324
37658W        W 4441  24.198  30.390  12.688
37659W        W 4442  29.928  26.688  13.526
37660W        W 4443  28.459  12.590   3.648
37661W        W 4444  23.152  42.455  10.957
37662W        W 4445  44.050  37.544   1.696
37663W        W 4446  12.208   6.878  11.611
37664W        W 4447   6.993  12.628   2.627
37665W        W 4448   3.053   2.395  11.173
37666W        W 4449  11.899  37.817   4.864
37667W        W 4450   5.238   7.320   4.506
37668W        W 4451   6.081  12.146  14.787
37669W        W 4452  23.515  43.336   4.063
37670W        W 4453  42.053   4.951  10.117
37671W        W 4454  30.966  42.001   4.567
37672W        W 4455   3.447  31.418  14.937
37673W        W 4456  11.348  19.297  12.026
37674W        W 4457  29.232  36.956   3.285
37675W        W 4458  23.306  25.985  11.874
37676W        W 4459  39.762  16.463   0.394
37677W        W 4460  43.761   2.392  11.511
37678W        W 4461  19.009   6.310   2.446
37679W        W 4462  18.025  27.052   2.266
37680W        W 4463  27.236  42.420  14.162
37681W        W 4464   6.010  33.086  13.541
37682W        W 4465   3.241  43.436   1.681
37683W        W 4466   8.376  32.401   0.715
37684W        W 4467   8.640  13.894   3.097
37685W        W 4468  27.123  32.348   0.462
37686W        W 4469  34.410   4.372  13.861
37687W        W 4470   6.160  12.771   0.443
37688W        W 4471  39.139   9.424   2.112
37689W        W 4472  42.790  38.023   4.708
37690W        W 4473  32.326  29.625  13.253
37691W        W 4474   0.068  38.830   3.273
37692W        W 4475  12.286  31.913  10.874
37693W        W 4476  18.244   1.194   4.518
37694W        W 4477  21.271  10.561  11.834
37695W        W 4478  44.651   6.312  10.489
37696W        W 4479  31.832  22.721   3.714
37697W        W 4480  27.977  22.813  11.632
37698W        W 4481  13.259  44.361  14.557
37699W        W 4482  26.384  25.789   1.723
37700W        W 4483  40.029  27.567   0.076
37701W        W 4484  41.857   9.446   2.570
37702W        W 4485  19.640  10.373   4.150
37703W        W 4486   8.883  41.319   4.297
37704W        W 4487  12.757  14.157   4.627
37705W        W 4488  35.100  11.228   1.281
37706W        W 4489   3.776  27.339   3.532
37707W        W 4490  22.369   1.430  13.117
37708W        W 4491  37.098   7.880   1.479
37709W        W 4492  25.273  17.200   1.827
37710W        W 4493  33.491  27.852   1.347
37711W        W 4494   2.304  26.553  13.402
37712W        W 4495  37.327  29.166   0.586
37713W        W 4496   9.908   8.448  12.890
37714W        W 4497  14.667  19.166  13.976
37715W        W 4498   5.136   6.379  12.598
37716W        W 4499  43.575  14.520  13.877
37717W        W 4500  10.229  35.241   2.748
37718W        W 4501  29.080  37.112   2.419
37719W        W 4502  24.267  39.967   0.430
37720W        W 4503   9.426  34.583  10.982
37721W        W 4504  26.289  21.295  11.034
37722W        W 4505  11.117  19.357   2.815
37723W        W 4506  38.036  26.874  14.424
37724W        W 4507  10.247  38.337   0.532
37725W        W 4508  20.333  32.876  13.478
37726W        W 4509  36.369  28.953   0.962
37727W        W 4510  22.641  13.087  14.260
37728W        W 4511  18.938   2.452  11.924
37729W        W 4512  21.771  40.313  11.594
37730W        W 4513  40.637  32.012  12.462
37731W        W 4514  19.088  35.211  11.352
37732W        W 4515  31.613  28.096   4.741
37733W        W 4516  23.526   8.497  12.563
37734W        W 4517  18.367  15.809  12.890
37735W        W 4518   4.988  34.278  14.484
37736W        W 4519  42.861  24.750  12.513
37737W        W 4520  32.041  27.633   4.066
37738W        W 4521  36.599   9.315   4.365
37739W        W 4522  11.116   0.141   1.754
37740W        W 4523  39.923  33.255   3.643
37741W        W 4524  19.776  35.080  14.462
37742W        W 4525  28.608   2.981  11.627
37743W        W 4526  43.945  37.570   3.754
37744W        W 4527   6.932  10.456   0.864
37745W        W 4528  35.881  43.946   3.101
37746W        W 4529   8.135  19.438   0.412
37747W        W 4530  22.551  29.716  12.688
37748W        W 4531   8.141  20.466   2.279
37749W        W 4532  17.815  25.449  13.891
37750W        W 4533   2.339  28.016   4.659
37751W        W 4534  39.837  33.677   2.861
37752W        W 4535  37.567  30.153  14.507
37753W        W 4536   2.864  23.241  11.192
37754W        W 4537  19.036  34.149   1.907
37755W        W 4538   7.275  27.725   2.714
37756W        W 4539   8.284  24.177   1.922
37757W        W 4540   6.783  17.868  13.948
37758W        W 4541  22.581   2.965   4.000
37759W        W 4542   6.394  36.603   2.697
37760W        W 4543  21.765   5.220   3.639
37761W        W 4544   3.200  29.130   0.782
37762W        W 4545  12.333  11.835  13.292
37763W        W 4546   5.872  43.427  10.766
37764W        W 4547  17.837   4.155   3.128
37765W        W 4548  15.803   6.730  13.633
37766W        W 4549  23.700  41.358  11.587
37767W        W 4550   2.520  18.178   2.642
37768W        W 4551  18.804  25.493  11.382
37769W        W 4552  18.055   2.175  11.594
37770W        W 4553  21.595   7.686  11.105
37771W        W 4554  25.955  30.113  10.715
37772W        W 4555  27.656   0.626  14.311
37773W        W 4556  21.983   0.408   2.746
37774W        W 4557  11.273  23.529   1.264
37775W        W 4558  26.352  34.105  10.719
37776W        W 4559  30.890  26.442  11.721
37777W        W 4560   1.077  27.137  12.737
37778W        W 4561  11.123  30.472   1.252
37779W        W 4562  11.388   6.929   4.100
37780W        W 4563  23.144  21.166   2.433
37781W        W 4564  18.319   2.156  10.823
37782W        W 4565  12.585   1.883   1.901
37783W        W 4566   8.908  14.182   4.113
37784W        W 4567  25.028  29.577  10.903
37785W        W 4568  19.966  37.069   5.050
37786W        W 4569  41.978   6.140  13.397
37787W        W 4570   3.324  17.232   3.027
37788W        W 4571  39.324  20.162   1.279
37789W        W 4572  26.198  23.604   3.254
37790W        W 4573  32.665  25.132  12.489
37791W        W 4574  18.518  28.674  12.027
37792W        W 4575   6.452  15.603  14.328
37793W        W 4576   8.193  26.526   3.117
37794W        W 4577  36.482   7.899   1.782
37795W        W 4578  44.317  41.914  10.959
37796W        W 4579  29.093  34.527   4.526
37797W        W 4580  17.749  10.765   1.216
37798W        W 4581  16.114  39.367  13.078
37799W        W 4582  35.619  17.617  13.664
37800W        W 4583  25.439   6.191  11.725
37801W        W 4584   5.767  38.513  10.698
37802W        W 4585  27.987   6.711   3.148
37803W        W 4586   0.188   2.982   2.915
37804W        W 4587  15.367  19.221  12.967
37805W        W 4588   4.033  30.742  10.942
37806W        W 4589   3.727  12.733   3.750
37807W        W 4590  15.495  14.758  10.722
37808W        W 4591  22.112  38.259  11.635
37809W        W 4592  30.375  13.926   2.326
37810W        W 4593  30.136   9.552  12.463
37811W        W 4594   9.540   0.306   0.175
37812W        W 4595  25.413   0.350  14.808
37813W        W 4596  40.144   5.320   1.823
37814W        W 4597  14.198  39.075   4.350
37815W        W 4598   2.038   4.765  13.734
37816W        W 4599   5.879  34.638   4.151
37817W        W 4600  15.013  41.357   0.982
37818W        W 4601   6.362  30.680   2.964
37819W        W 4602  15.693  39.525   3.191
37820W        W 4603   9.936  35.850   5.080
37821W        W 4604  26.961  24.834   1.171
37822W        W 4605  29.768  21.249   4.449
37823W        W 4606   3.247  12.277   4.973
37824W        W 4607  16.338   6.007   4.109
37825W        W 4608  19.631  44.758   0.910
37826W        W 4609  36.660  21.438   3.216
37827W        W 4610  41.755  11.956  13.461
37828W        W 4611   3.944  40.756  11.440
37829W        W 4612  35.164   3.858   5.548
37830W        W 4613  25.637  23.758   0.342
37831W        W 4614  17.329   3.473   3.067
37832W        W 4615  37.061  44.342  11.097
37833W        W 4616  26.566  14.534   0.029
37834W        W 4617  26.539   6.857   3.530
37835W        W 4618  20.018  33.838   4.167
37836W        W 4619  34.078  14.668   1.886
37837W        W 4620  24.072  27.995  12.020
37838W        W 4621  34.362  11.887   3.602
37839W        W 4622  29.154  36.115   4.505
37840W        W 4623  17.198   3.036   2.807
37841W        W 4624  44.490  16.304  13.530
37842W        W 4625  22.123  42.794  13.235
37843W        W 4626   4.539  26.401   1.216
37844W        W 4627  30.141  40.498   4.063
37845W        W 4628  26.873  22.599   4.534
37846W        W 4629  24.658  24.037   9.846
37847W        W 4630  39.391  38.755  14.829
37848W        W 4631  31.611  40.059   0.975
37849W        W 4632   8.624  40.172  11.653
37850W        W 4633  34.990  15.788   2.369
37851W        W 4634  44.045  31.966   3.888
37852W        W 4635  41.838  34.120   1.302
37853W        W 4636  13.575  16.141   3.461
37854W        W 4637  14.161  24.291   2.762
37855W        W 4638  17.511  32.710  14.724
37856W        W 4639  11.181  31.463   3.387
37857W        W 4640  22.114  15.840  12.037
37858W        W 4641  37.460   4.292   3.424
37859W        W 4642   9.233  18.623   0.319
37860W        W 4643  15.521  44.968  12.665
37861W        W 4644  12.824  13.071  11.591
37862W        W 4645  38.964  11.633   3.105
37863W        W 4646  21.409  19.351  12.015
37864W        W 4647  20.049   9.327   2.240
37865W        W 4648  41.940  27.955  10.577
37866W        W 4649  20.546  28.914   0.186
37867W        W 4650  15.046  23.628  14.379
37868W        W 4651  29.882  16.473  12.921
37869W        W 4652  35.599  36.289   1.362
37870W        W 4653   9.402  37.120   1.691
37871W        W 4654  13.905  28.469   2.182
37872W        W 4655  34.632  35.117   3.651
37873W        W 4656  13.707  37.516   2.750
37874W        W 4657   0.695   6.302   4.990
37875W        W 4658  15.140  34.444  14.840
37876W        W 4659  29.540  27.945   4.095
37877W        W 4660  14.576  41.087  12.541
37878W        W 4661  19.272  36.046  14.229
37879W        W 4662  24.516  15.361  12.571
37880W        W 4663  36.324  19.671  14.380
37881W        W 4664  35.952  17.388   4.612
37882W        W 4665  26.382  22.539  12.009
37883W        W 4666  15.911   5.028   0.076
37884W        W 4667  25.384  35.716  12.063
37885W        W 4668  23.531  18.719  11.210
37886W        W 4669  12.607  25.020   5.020
37887W        W 4670  33.477   2.127   3.771
37888W        W 4671  13.276  40.502   5.052
37889W        W 4672  21.298  12.604   3.904
37890W        W 4673  39.329   3.568  12.888
37891W        W 4674  17.856  25.979  12.993
37892W        W 4675  35.826   7.700  12.419
37893W        W 4676  43.769  32.910   1.346
37894W        W 4677  27.964  11.250   1.260
37895W        W 4678  33.317  20.147  13.520
37896W        W 4679  33.857  27.631   2.828
37897W        W 4680   9.217   9.927   1.568
37898W        W 4681  26.205  22.572  12.962
37899W        W 4682   7.714  36.065   3.277
37900W        W 4683  34.996   0.971   3.600
37901W        W 4684  40.825  18.372  14.358
37902W        W 4685  20.659   4.260   3.577
37903W        W 4686  25.455  19.300   0.786
37904W        W 4687  11.223   4.975   0.126
37905W        W 4688  41.432  10.195  11.562
37906W        W 4689  36.118  20.033   2.581
37907W        W 4690  27.661  28.284   0.721
37908W        W 4691  41.488  27.504   4.371
37909W        W 4692  14.134  11.163  10.503
37910W        W 4693   2.154  19.061  11.645
37911W        W 4694  17.620  36.464   1.459
37912W        W 4695  43.363  26.198   0.729
37913W        W 4696  44.132  15.155  10.238
37914W        W 4697   6.616  16.495  10.416
37915W        W 4698  20.628   8.431   4.748
37916W        W 4699  37.896  38.400   3.805
37917W        W 4700  23.104  40.847   2.203
37918W        W 4701  34.131  34.964   1.203
37919W        W 4702  17.082  15.152   1.672
37920W        W 4703  23.164   8.685   4.218
37921W        W 4704  16.674  16.720   2.189
37922W        W 4705  16.863   5.735  11.354
37923W        W 4706   3.167  24.045  14.577
37924W        W 4707  41.947   8.411  12.113
37925W        W 4708  16.269  14.586   1.649
37926W        W 4709   8.399  29.367  11.581
37927W        W 4710  21.439   5.596   4.100
37928W        W 4711  40.815  31.791   0.783
37929W        W 4712   5.896   8.168   0.433
37930W        W 4713  34.330  25.008   2.688
37931W        W 4714  14.335   7.963   3.833
37932W        W 4715   7.317  29.377   1.411
37933W        W 4716   6.435   7.755   4.893
37934W        W 4717  15.880   6.887  12.020
37935W        W 4718  31.386  36.340  13.665
37936W        W 4719  40.365   8.328  11.214
37937W        W 4720  31.569  11.678  14.798
37938W        W 4721  42.011   7.280   1.503
37939W        W 4722  20.961  12.102   4.502
37940W        W 4723  23.552  42.123   4.483
37941W        W 4724  19.304  31.642   0.345
37942W        W 4725  44.448  31.919  11.494
37943W        W 4726  37.328  27.681   0.498
37944W        W 4727  16.499  16.243  13.149
37945W        W 4728  42.748   9.272  13.023
37946W        W 4729  44.802  11.579   1.431
37947W        W 4730   1.512   5.291   3.066
37948W        W 4731  14.851  42.888  13.716
37949W        W 4732  22.658   3.753   0.913
37950W        W 4733  10.324  38.328  12.214
37951W        W 4734  35.735  20.833   1.845
37952W        W 4735  18.041  24.265  11.873
37953W        W 4736  17.668  39.433  11.125
37954W        W 4737  13.562  16.851  12.119
37955W        W 4738   7.373  17.543  14.540
37956W        W 4739   8.466  43.075   4.406
37957W        W 4740  27.442   5.864  11.641
37958W        W 4741  16.587  14.717  14.383
37959W        W 4742  13.734  35.070   2.643
37960W        W 4743  24.824  17.767   0.295
37961W        W 4744  18.959  41.044   4.705
37962W        W 4745  33.007   7.924   4.177
37963W        W 4746  22.795  38.515  14.869
37964W        W 4747  13.606  20.783  12.335
37965W        W 4748   5.754   3.894   0.282
37966W        W 4749   5.021  43.807   3.621
37967W        W 4750  33.848  40.568  13.432
37968W        W 4751  42.427  34.073   4.361
37969W        W 4752  21.019  19.789  13.940
37970W        W 4753  40.742  11.719   1.425
37971W        W 4754  10.908  28.164  12.616
37972W        W 4755  28.576  19.710  11.476
37973W        W 4756  16.466  13.225  10.256
37974W        W 4757  19.639  35.461  12.151
37975W        W 4758   9.854  30.804  11.123
37976W        W 4759  40.044  22.832   4.844
37977W        W 4760  31.514  35.157   1.409
37978W        W 4761  32.973  41.933   1.779
37979W        W 4762   7.196   1.509  13.464
37980W        W 4763  15.405  40.815   9.814
37981W        W 4764   9.924   4.518   0.796
37982W        W 4765   7.249  40.904   0.744
37983W        W 4766  24.138   2.702  12.104
37984W        W 4767  42.810  29.944   2.383
37985W        W 4768  33.860  22.188   1.844
37986W        W 4769  26.116   1.619  12.573
37987W        W 4770  17.705  23.708   1.276
37988W        W 4771  28.001  13.023   1.714
37989W        W 4772  43.588   8.315   4.025
37990W        W 4773   7.406   0.359   1.832
37991W        W 4774   1.509  28.962  11.998
37992W        W 4775  26.324  40.546  14.065
37993W        W 4776  32.494   0.478  14.884
37994W        W 4777   6.660  15.294   2.164
37995W        W 4778  18.237  23.146  13.362
37996W        W 4779   1.801  16.603   4.071
37997W        W 4780  14.220  40.528   0.237
37998W        W 4781  22.937  37.036  13.917
37999W        W 4782   1.380   4.873  13.273
38000W        W 4783  39.808  31.422  12.779
38001W        W 4784  17.333  20.732   0.899
38002W        W 4785  37.916  41.528   3.162
38003W        W 4786  41.739  17.739  12.872
38004W        W 4787  11.391  20.692  13.906
38005W        W 4788  20.508  31.167   0.824
38006W        W 4789   9.712   6.897   2.120
38007W        W 4790  31.706   2.313  13.083
38008W        W 4791  37.083  24.990  12.414
38009W        W 4792  11.870  34.778  12.447
38010W        W 4793  19.500   4.486   2.827
38011W        W 4794  35.129  41.212  11.353
38012W        W 4795  35.229  26.671   3.894
38013W        W 4796  14.863  30.569  11.118
38014W        W 4797  27.428  40.389  11.656
38015W        W 4798   7.192  42.909   4.168
38016W        W 4799  34.003  14.935  14.946
38017W        W 4800  42.849   6.687  11.178
38018W        W 4801  16.469  30.972  11.976
38019W        W 4802   9.851  14.295   0.725
38020W        W 4803  26.227  14.271  13.067
38021W        W 4804  18.768   8.756  11.245
38022W        W 4805  43.296  11.466   0.345
38023W        W 4806  14.404   4.497   0.442
38024W        W 4807  18.063  13.548   3.252
38025W        W 4808  35.806   2.154  13.947
38026W        W 4809  14.677   5.172  11.068
38027W        W 4810  30.135  22.756   2.552
38028W        W 4811   0.670  12.193  14.942
38029W        W 4812   3.004   6.720  11.620
38030W        W 4813  37.472  10.522  14.621
38031W        W 4814  20.492  42.286  12.106
38032W        W 4815  15.117  27.237   2.724
38033W        W 4816  34.346  23.447  11.114
38034W        W 4817  12.770  36.979   2.469
38035W        W 4818  30.524  33.563  13.478
38036W        W 4819  22.342  14.686   2.226
38037W        W 4820   9.632  24.770  12.029
38038W        W 4821  30.165   9.819  12.921
38039W        W 4822  38.851  22.142   0.344
38040W        W 4823  42.873  34.248   1.203
38041W        W 4824   9.799  18.188  14.689
38042W        W 4825  30.618  33.020  11.349
38043W        W 4826  29.022  14.304   0.722
38044W        W 4827  16.871   3.230   4.210
38045W        W 4828  34.573  23.369   3.306
38046W        W 4829  27.064  38.919  10.348
38047W        W 4830   3.252  11.589   2.801
38048W        W 4831  12.716  38.600  12.427
38049W        W 4832  22.312  26.710   1.436
38050W        W 4833   2.464   6.943   2.758
38051W        W 4834   1.235  19.295   3.231
38052W        W 4835  34.841  27.743   2.036
38053W        W 4836   9.622  43.420   3.629
38054W        W 4837  20.778  28.202  14.374
38055W        W 4838   4.696  42.382  10.451
38056W        W 4839   1.976  30.475  13.890
38057W        W 4840  34.586  11.712  10.135
38058W        W 4841  34.100   1.222   1.815
38059W        W 4842  28.720  11.659  13.725
38060W        W 4843  19.101  18.199   2.088
38061W        W 4844   1.882  41.922   1.696
38062W        W 4845  18.122  32.914  11.377
38063W        W 4846  27.106  32.034   2.725
38064W        W 4847   3.410  38.537   0.326
38065W        W 4848  14.390  20.049  12.243
38066W        W 4849  22.475  43.329   1.878
38067W        W 4850  12.950   3.483  12.929
38068W        W 4851  21.007   7.203   0.269
38069W        W 4852   0.234  44.852   3.331
38070W        W 4853   7.813  28.647  11.426
38071W        W 4854  20.346  21.462   0.331
38072W        W 4855  26.540  41.941   5.453
38073W        W 4856   9.855  44.699  10.688
38074W        W 4857  41.423  26.664   3.803
38075W        W 4858  25.400   2.436   0.460
38076W        W 4859  20.168  31.105  12.003
38077W        W 4860  24.987   2.203   2.773
38078W        W 4861  44.825   0.208  14.859
38079W        W 4862  34.160   3.902  14.042
38080W        W 4863  41.061  30.506   0.394
38081W        W 4864   0.304  23.473  13.813
38082W        W 4865   5.926  20.725   2.209
38083W        W 4866  39.797  31.061  13.867
38084W        W 4867  28.909  19.320  13.623
38085W        W 4868  33.345  44.063   9.939
38086W        W 4869  20.568  19.543  14.137
38087W        W 4870  15.657  36.041   0.046
38088W        W 4871  11.353  43.251  13.880
38089W        W 4872  20.234  22.674  10.797
38090W        W 4873  30.003  33.867   0.941
38091W        W 4874  44.270   7.422  14.329
38092W        W 4875  38.328  43.342  11.612
38093W        W 4876  20.181   0.036   4.486
38094W        W 4877   3.904   3.838   0.974
38095W        W 4878  22.812  20.948  11.286
38096W        W 4879  10.256  21.610   4.553
38097W        W 4880  28.940  35.188   2.353
38098W        W 4881  33.893  34.933   3.847
38099W        W 4882  14.299  10.388   2.804
38100W        W 4883  29.621  29.079   0.880
38101W        W 4884  15.741  17.140   2.746
38102W        W 4885  16.932  42.843  12.361
38103W        W 4886  41.504  37.504   4.418
38104W        W 4887  37.255  17.209  10.781
38105W        W 4888  23.148  35.159  11.107
38106W        W 4889  35.773  23.246  14.483
38107W        W 4890  36.044   7.686   0.054
38108W        W 4891  10.675  20.090  13.951
38109W        W 4892   2.795  19.113  10.795
38110W        W 4893  38.633  22.944  10.664
38111W        W 4894  40.298  18.624  12.418
38112W        W 4895  39.616  23.109   4.944
38113W        W 4896   0.908  32.998  10.932
38114W        W 4897  12.260  44.506  13.165
38115W        W 4898  17.528  42.878   3.670
38116W        W 4899  22.575  24.714  11.538
38117W        W 4900  24.736  40.222   0.286
38118W        W 4901  30.088  25.542   0.975
38119W        W 4902  23.141   5.292  13.513
38120W        W 4903  41.020  18.319   0.803
38121W        W 4904  39.427   5.395   2.314
38122W        W 4905  20.075  30.360  14.608
38123W        W 4906   1.785  21.337   3.158
38124W        W 4907  41.374  44.632  11.385
38125W        W 4908  31.868  29.515  13.479
38126W        W 4909  21.547  11.629   3.222
38127W        W 4910  29.085  27.078  11.614
38128W        W 4911  25.587  12.651  12.477
38129W        W 4912  18.193   4.227   1.932
38130W        W 4913  27.541  40.456   0.473
38131W        W 4914  21.143  14.589   0.786
38132W        W 4915  25.906  19.653   1.383
38133W        W 4916  15.698  28.012   2.823
38134W        W 4917  42.004  17.911  14.058
38135W        W 4918  30.514  44.403   3.790
38136W        W 4919  40.361  34.031  12.205
38137W        W 4920  35.439  19.398  13.026
38138W        W 4921  25.430   1.378  14.328
38139W        W 4922  13.364  44.844  13.883
38140W        W 4923  33.062  37.623  13.991
38141W        W 4924  39.288  24.669   0.216
38142W        W 4925  15.118  28.801   1.810
38143W        W 4926   8.471  22.659  14.263
38144W        W 4927  12.740   2.309   2.189
38145W        W 4928   9.584  29.119   2.396
38146W        W 4929  43.383  22.179   2.273
38147W        W 4930  35.948  28.607   1.801
38148W        W 4931   1.194  40.501   0.498
38149W        W 4932  30.069  17.513   4.462
38150W        W 4933   0.972  19.613   4.140
38151W        W 4934  29.654  23.196  12.626
38152W        W 4935  19.520  29.266  11.967
38153W        W 4936  25.910   9.270  13.437
38154W        W 4937  24.157   8.709  13.324
38155W        W 4938   3.771   1.297   4.088
38156W        W 4939  27.119  37.045   2.291
38157W        W 4940   5.940   0.904  12.845
38158W        W 4941  33.450  18.551   0.666
38159W        W 4942  31.905  36.025   3.605
38160W        W 4943  14.804   6.352  13.505
38161W        W 4944  16.985  37.019   4.115
38162W        W 4945   4.038  26.925  14.852
38163W        W 4946   7.174  26.462  12.523
38164W        W 4947  41.874  21.459  13.262
38165W        W 4948   4.900  25.553   2.795
38166W        W 4949   7.696  20.992   0.885
38167W        W 4950  25.264  33.186  13.543
38168W        W 4951  35.571  24.032  13.036
38169W        W 4952   3.363  25.133   0.789
38170W        W 4953   2.313  44.706  14.370
38171W        W 4954  16.620  34.320   1.844
38172W        W 4955  25.262   4.509   3.679
38173W        W 4956  42.215  18.934   3.568
38174W        W 4957  10.024   7.604   1.658
38175W        W 4958  16.394  31.105  13.254
38176W        W 4959  20.202  27.834   3.102
38177W        W 4960   0.751  21.036   1.798
38178W        W 4961  39.333  26.361  14.529
38179W        W 4962  32.026  22.268   0.253
38180W        W 4963  14.739  39.486  12.501
38181W        W 4964   0.362  39.453   4.364
38182W        W 4965  29.952  26.681   2.564
38183W        W 4966  34.850  33.103  11.157
38184W        W 4967  12.594   3.483  13.362
38185W        W 4968   2.481  21.708  10.768
38186W        W 4969   5.718  15.264  13.456
38187W        W 4970  25.948   4.168  13.012
38188W        W 4971  32.045  20.959  13.557
38189W        W 4972   6.284  40.853  10.656
38190W        W 4973   1.582  39.416  14.930
38191W        W 4974  33.725  41.368  11.130
38192W        W 4975  35.376  10.422   5.056
38193W        W 4976  18.307  14.139   2.403
38194W        W 4977  17.993  16.014  11.598
38195W        W 4978   0.035  13.403  13.790
38196W        W 4979  17.258  33.008  11.396
38197W        W 4980  41.556  24.132   1.682
38198W        W 4981  13.178  26.579  13.414
38199W        W 4982   5.719  29.817   1.851
38200W        W 4983  19.057  28.505  12.093
38201W        W 4984   2.475   7.261   3.165
38202W        W 4985   1.991  16.066  13.399
38203W        W 4986  20.178  20.126   2.246
38204W        W 4987   8.820  11.613  12.446
38205W        W 4988  17.224   2.955   4.468
38206W        W 4989  10.805  43.488   1.443
38207W        W 4990  19.285  34.297   0.808
38208W        W 4991  18.722  14.682   1.305
38209W        W 4992  12.339  32.205   4.186
38210W        W 4993   9.705  28.055  10.739
38211W        W 4994   7.791  40.813   3.859
38212W        W 4995  29.009  10.702  13.927
38213W        W 4996  27.465  38.933  10.706
38214W        W 4997  16.141  19.746  11.050
38215W        W 4998  38.830   8.115   3.308
38216W        W 4999  41.535   9.382   3.268
38217W        W 5000  35.471  16.966  14.917
38218W        W 5001  34.788  16.763   3.318
38219W        W 5002  27.570   9.294  10.455
38220W        W 5003  12.539  25.811  14.952
38221W        W 5004  18.220  20.809  13.569
38222W        W 5005  37.946   7.825   0.431
38223W        W 5006   0.874  15.135   4.631
38224W        W 5007  42.779  34.974  14.857
38225W        W 5008   0.226  20.523   2.769
38226W        W 5009  14.308   6.175  13.422
38227W        W 5010   5.443  31.461  10.907
38228W        W 5011  23.070  26.654   4.087
38229W        W 5012   8.657  13.808  11.576
38230W        W 5013   1.261  33.170   0.425
38231W        W 5014  21.336  41.278  10.969
38232W        W 5015  33.923  44.801  11.055
38233W        W 5016  24.214  35.500   4.543
38234W        W 5017  36.006  22.224   3.353
38235W        W 5018   2.992  39.927   1.892
38236W        W 5019  23.157  24.184   3.688
38237W        W 5020  17.545   8.847  13.644
38238W        W 5021  18.258  39.375  12.386
38239W        W 5022  19.966  18.800  12.004
38240W        W 5023   8.993  28.759  11.772
38241W        W 5024  35.333  16.685   1.953
38242W        W 5025  17.075  41.021   4.633
38243W        W 5026  10.584  41.042   1.588
38244W        W 5027  28.247  42.865  12.347
38245W        W 5028  23.186   9.901   3.343
38246W        W 5029  43.289  38.549  11.576
38247W        W 5030  18.282  41.429  11.436
38248W        W 5031  35.821  36.811   4.440
38249W        W 5032  32.922  24.110   2.720
38250W        W 5033  31.703  42.605   2.695
38251W        W 5034  13.801  11.193   2.651
38252W        W 5035  41.552   4.225   1.722
38253W        W 5036  40.361  30.322   4.203
38254W        W 5037  32.465  33.355  14.423
38255W        W 5038   6.864  35.116  12.535
38256W        W 5039   9.363  36.773  11.056
38257W        W 5040  21.747   2.264  11.423
38258W        W 5041   9.846  14.228  11.210
38259W        W 5042  37.551  36.083  13.832
38260W        W 5043  32.196   0.931   1.741
38261W        W 5044  35.007  35.557  13.387
38262W        W 5045  23.817  41.435  13.417
38263W        W 5046  27.500  11.749  14.024
38264W        W 5047  18.244   3.195   2.761
38265W        W 5048  37.805  25.965  14.033
38266W        W 5049  17.169  19.906   3.265
38267W        W 5050  24.116  30.277  14.028
38268W        W 5051  34.600  16.695  10.695
38269W        W 5052  36.399  10.178   3.771
38270W        W 5053  22.929  38.689   3.809
38271W        W 5054  24.161  11.604   4.616
38272W        W 5055  29.435  42.558   0.604
38273W        W 5056  16.169   3.029  13.446
38274W        W 5057   2.422  14.179  14.542
38275W        W 5058  15.381  10.750   4.934
38276W        W 5059  33.892   7.507   2.032
38277W        W 5060  27.166   0.115   4.115
38278W        W 5061  27.869  32.472  12.472
38279W        W 5062  32.688  18.581  10.957
38280W        W 5063  28.569  34.660  11.041
38281W        W 5064  19.251  21.670   3.194
38282W        W 5065  11.144  34.371   1.355
38283W        W 5066  14.904  35.483  11.167
38284W        W 5067  44.272  15.549  14.837
38285W        W 5068  10.639  23.667   4.341
38286W        W 5069   1.330   8.364   1.477
38287W        W 5070   1.844  13.638  13.444
38288W        W 5071  25.453   0.263  13.541
38289W        W 5072  12.353  11.080  14.256
38290W        W 5073  19.618  20.281  13.106
38291W        W 5074  23.255  26.109  14.420
38292W        W 5075  14.384   0.806   3.138
38293W        W 5076   4.638  26.177  12.542
38294W        W 5077  22.021  24.096   3.234
38295W        W 5078  18.781  22.126   2.694
38296W        W 5079  38.434  32.469   0.190
38297W        W 5080  29.006  13.771   0.677
38298W        W 5081  31.035   0.844  12.898
38299W        W 5082  32.650  11.746   3.181
38300W        W 5083  17.553  44.522  13.404
38301W        W 5084  39.948  32.131   3.717
38302W        W 5085  12.759  37.264  13.856
38303W        W 5086  17.759  12.558  13.145
38304W        W 5087  25.464  16.335  13.349
38305W        W 5088  42.386  26.155   3.125
38306W        W 5089  35.439  24.256   0.740
38307W        W 5090  14.880  42.907   2.529
38308W        W 5091   6.317  42.349   4.394
38309W        W 5092   9.347  34.538  14.367
38310W        W 5093   0.124  35.586  13.830
38311W        W 5094  10.898  36.032  14.874
38312W        W 5095  12.817  44.365   2.283
38313W        W 5096  15.666  26.897  12.979
38314W        W 5097   9.731  13.040  14.454
38315W        W 5098  30.109  24.410   4.173
38316W        W 5099  18.698   8.153  14.453
38317W        W 5100  35.802  25.940  14.451
38318W        W 5101  20.658  42.013   0.248
38319W        W 5102  15.311  18.115   1.722
38320W        W 5103  21.915  44.054   4.902
38321W        W 5104  14.184   6.415   1.626
38322W        W 5105  25.513   3.515  10.731
38323W        W 5106  15.835  39.511  13.499
38324W        W 5107  24.351  11.481   4.143
38325W        W 5108  41.303   8.362  13.527
38326W        W 5109  38.657  32.064  12.836
38327W        W 5110  39.010  39.175  10.351
38328W        W 5111  11.282  25.026  11.923
38329W        W 5112   7.198  29.628  14.555
38330W        W 5113   8.128  18.729  14.490
38331W        W 5114  40.860  11.622   2.655
38332W        W 5115  17.365  28.589  10.947
38333W        W 5116  34.078  25.188  10.760
38334W        W 5117  37.008  21.486  11.443
38335W        W 5118   0.211  41.208   1.359
38336W        W 5119   1.838  41.438  12.765
38337W        W 5120  13.032   9.350   1.410
38338W        W 5121  27.672  28.194   2.488
38339W        W 5122  16.533  31.042   0.459
38340W        W 5123   5.722  35.571   3.326
38341W        W 5124  42.655  44.884  11.553
38342W        W 5125  22.905  33.916   2.204
38343W        W 5126   1.504  11.626  13.530
38344W        W 5127  32.382  38.504  14.512
38345W        W 5128  40.920  38.085  10.773
38346W        W 5129  41.741  18.033  11.210
38347W        W 5130  35.448  18.758  12.232
38348W        W 5131  40.259  42.503  11.090
38349W        W 5132   7.184  44.731  13.062
38350W        W 5133  21.825  37.285  11.038
38351W        W 5134  12.053   3.707   4.186
38352W        W 5135  10.855  43.145   3.657
38353W        W 5136  40.222   8.049  13.953
38354W        W 5137   3.828  30.686   1.205
38355W        W 5138  36.353  17.302   3.668
38356W        W 5139  14.255   6.280  12.102
38357W        W 5140  12.413  38.637  10.657
38358W        W 5141  35.783  29.613  10.782
38359W        W 5142  11.555  35.816  10.154
38360W        W 5143  22.719  29.348   3.918
38361W        W 5144   0.843  14.279  13.030
38362W        W 5145  11.379  10.087   4.560
38363W        W 5146  33.155  23.667   4.766
38364W        W 5147  43.252  18.528   2.773
38365W        W 5148  44.258  10.836   3.322
38366W        W 5149  23.260   7.702  11.081
38367W        W 5150   1.712  16.292   1.032
38368W        W 5151  27.124   4.903  12.987
38369W        W 5152  18.558  40.220  13.479
38370W        W 5153  32.948  23.226  13.006
38371W        W 5154  21.303   3.654  13.811
38372W        W 5155  15.584  24.515   2.965
38373W        W 5156  28.822  29.673   1.839
38374W        W 5157   0.344  23.649   2.708
38375W        W 5158  34.214   1.929   0.493
38376W        W 5159  21.697  36.630   0.845
38377W        W 5160  10.677  32.077   0.974
38378W        W 5161  15.834  24.244   5.054
38379W        W 5162  31.385   2.286  11.121
38380W        W 5163  44.463   4.420   3.696
38381W        W 5164  23.094  39.068   0.429
38382W        W 5165   2.158   1.817   0.323
38383W        W 5166  15.146   5.139   0.943
38384W        W 5167   7.077  28.568   3.839
38385W        W 5168   9.728  17.810  14.319
38386W        W 5169  42.971  31.057   1.397
38387W        W 5170  35.368  43.837   2.946
38388W        W 5171  19.768   2.286   1.786
38389W        W 5172  27.117   8.854  14.475
38390W        W 5173  31.039   3.386   5.050
38391W        W 5174   6.332  23.917   1.841
38392W        W 5175   4.905  31.603  10.757
38393W        W 5176  21.546  38.717   4.814
38394W        W 5177   8.782  35.396  14.550
38395W        W 5178  35.125   5.834   2.690
38396W        W 5179  26.402  37.569  12.548
38397W        W 5180  31.807   2.488  10.864
38398W        W 5181  17.589  31.597   1.145
38399W        W 5182  15.673   1.202  13.486
38400W        W 5183  16.638  33.334  13.089
38401W        W 5184  38.920  28.468   3.687
38402W        W 5185  26.262  14.852  12.542
38403W        W 5186  12.886  25.192  12.792
38404W        W 5187  39.714  34.213  11.166
38405W        W 5188  31.236  23.576   1.790
38406W        W 5189  24.652   6.243  14.143
38407W        W 5190  26.113  21.567  10.639
38408W        W 5191  41.314  44.176  12.827
38409W        W 5192  16.036  40.540  14.865
38410W        W 5193  16.795  40.479  13.309
38411W        W 5194  16.211  36.981  14.236
38412W        W 5195  10.672  16.643   0.582
38413W        W 5196  44.979  33.008  13.578
38414W        W 5197   2.364   5.780  13.519
38415W        W 5198  40.900  27.204   4.284
38416W        W 5199  13.220   3.191  11.668
38417W        W 5200   6.843   3.412   2.303
38418W        W 5201  25.882  36.962   1.363
38419W        W 5202   2.963  32.523  13.838
38420W        W 5203  39.383  36.828   0.954
38421W        W 5204  13.664  27.076   4.080
38422W        W 5205  34.236   4.930  14.178
38423W        W 5206  37.574   6.354  10.571
38424W        W 5207  28.008  41.435  14.350
38425W        W 5208  34.562   2.396   1.639
38426W        W 5209   6.215  25.442  13.109
38427W        W 5210  40.730  16.151  14.471
38428W        W 5211  11.731  22.605   1.052
38429W        W 5212   6.814  16.973   2.773
38430W        W 5213  41.043  44.983   4.580
38431W        W 5214  37.861  44.454   1.166
38432W        W 5215  40.347  15.926  10.810
38433W        W 5216  38.472  22.611   2.410
38434W        W 5217  36.329   9.716   4.590
38435W        W 5218  25.511   5.958   0.398
38436W        W 5219  38.384  17.897  13.544
38437W        W 5220  29.390   2.874   2.101
38438W        W 5221  36.805  26.735   3.733
38439W        W 5222   3.238  29.909   3.356
38440W        W 5223  21.793  42.698  10.552
38441W        W 5224  29.980  32.992  13.958
38442W        W 5225  38.643   3.357   0.891
38443W        W 5226   7.869  42.039   2.794
38444W        W 5227  12.161   5.285   0.728
38445W        W 5228  13.209  35.806  14.330
38446W        W 5229   8.392   1.353   1.948
38447W        W 5230  22.555  19.082  14.875
38448W        W 5231  41.700   3.503  13.907
38449W        W 5232   2.276   9.276   0.860
38450W        W 5233  28.868  16.696   3.332
38451W        W 5234   3.576  39.857   3.865
38452W        W 5235  43.511  31.836  14.748
38453W        W 5236  20.415  30.149   2.868
38454W        W 5237  44.271  32.177  13.437
38455W        W 5238  38.380  26.591   1.983
38456W        W 5239  10.897   6.659  13.025
38457W        W 5240  33.994   7.745  11.899
38458W        W 5241  23.905  36.563  12.958
38459W        W 5242  13.694  28.149  12.428
38460W        W 5243  40.467   7.675  10.651
38461W        W 5244  37.643  24.290   2.911
38462W        W 5245  14.130   8.057   0.352
38463W        W 5246  44.243  20.575   0.631
38464W        W 5247  33.701   5.001   0.324
38465W        W 5248  42.253  41.309  13.408
38466W        W 5249  19.818  13.927  10.689
38467W        W 5250  12.640  38.512   1.125
38468W        W 5251  31.671  26.017   0.376
38469W        W 5252  14.706  13.945  12.049
38470W        W 5253  42.912  24.709  14.931
38471W        W 5254  40.883  24.220  10.897
38472W        W 5255  29.610  44.856  13.055
38473W        W 5256  10.741  12.525   3.360
38474W        W 5257  37.615   6.149   4.540
38475W        W 5258  41.430  10.595   3.695
38476W        W 5259  31.056  28.260   2.684
38477W        W 5260  30.474  25.576  13.447
38478W        W 5261  43.581  17.947  10.402
38479W        W 5262  22.188  29.318   2.133
38480W        W 5263  30.171  30.893   4.578
38481W        W 5264  32.823  20.997   2.726
38482W        W 5265  24.002  43.044  10.163
38483W        W 5266  29.257  13.575   3.729
38484W        W 5267   1.816  38.989  12.261
38485W        W 5268   7.300  34.809  12.538
38486W        W 5269   3.381   5.156  10.393
38487W        W 5270  38.305  21.000  12.395
38488W        W 5271  12.597  37.381   3.625
38489W        W 5272  31.614   0.789  12.516
38490W        W 5273   5.040   9.411   3.230
38491W        W 5274  26.885  34.072   1.323
38492W        W 5275  33.188   2.684  12.478
38493W        W 5276  23.778  12.387   1.874
38494W        W 5277  35.075  33.416   3.448
38495W        W 5278  15.844  28.142  14.847
38496W        W 5279  31.795  43.585   2.491
38497W        W 5280  18.542  18.599   2.227
38498W        W 5281  15.536   7.444   1.225
38499W        W 5282  40.254  35.764  11.556
38500W        W 5283  21.641  22.631   2.621
38501W        W 5284  42.461   3.536   0.444
38502W        W 5285   6.934  28.166  12.955
38503W        W 5286   2.515  36.456  13.287
38504W        W 5287  30.887  31.472  12.814
38505W        W 5288   6.074  38.207  11.613
38506W        W 5289  21.627  32.451  14.508
38507W        W 5290  22.613  41.941  13.992
38508W        W 5291  24.989  30.300  13.983
38509W        W 5292  37.879  44.729   0.284
38510W        W 5293  40.557   0.810  10.677
38511W        W 5294  33.411  38.589  13.931
38512W        W 5295  17.634  41.320   4.581
38513W        W 5296  38.502  12.887   4.368
38514W        W 5297  17.579   0.078   2.228
38515W        W 5298  11.708   6.694   2.027
38516W        W 5299   3.442   4.652   1.460
38517W        W 5300  17.251  24.015   1.352
38518W        W 5301  10.032   8.424   2.129
38519W        W 5302  16.083  32.020  10.666
38520W        W 5303  17.075  27.562  14.697
38521W        W 5304  35.427  26.604   1.245
38522W        W 5305  11.688  36.348  11.514
38523W        W 5306  41.427  23.888   2.292
38524W        W 5307  22.467  30.384  13.802
38525W        W 5308  33.541  26.753  13.583
38526W        W 5309  26.224  32.280   1.689
38527W        W 5310  23.743   4.116   2.292
38528W        W 5311   8.253   8.239  14.965
38529W        W 5312   2.808  43.313   0.015
38530W        W 5313  39.197  29.786  11.746
38531W        W 5314   1.935  21.720  10.716
38532W        W 5315  24.141  20.294   4.719
38533W        W 5316  44.145  30.184   3.659
38534W        W 5317   1.546  12.165   0.418
38535W        W 5318  10.141   6.702  10.769
38536W        W 5319  17.302  24.505   3.317
38537W        W 5320  26.396  38.365  13.339
38538W        W 5321  18.613  14.189   2.857
38539W        W 5322  23.108  11.520   4.814
38540W        W 5323  28.739  21.901   1.007
38541W        W 5324  21.067  25.356  11.236
38542W        W 5325  30.118   5.996  13.219
38543W        W 5326  26.256   6.456   4.041
38544W        W 5327  25.962  39.302   0.016
38545W        W 5328  37.592   5.183   4.551
38546W        W 5329  42.053  37.365  12.708
38547W        W 5330  26.911  12.780  13.713
38548W        W 5331  18.283   5.934   0.966
38549W        W 5332  29.692   7.140   0.209
38550W        W 5333  10.594  13.314   2.679
38551W        W 5334  38.168   2.523   0.423
38552W        W 5335  16.632   9.943   0.848
38553W        W 5336  44.424  41.436  14.040
38554W        W 5337  43.966  41.208  11.703
38555W        W 5338  41.563  34.604  12.491
38556W        W 5339  21.126  27.313   3.297
38557W        W 5340  18.329  22.060  10.671
38558W        W 5341  21.005  11.876  13.005
38559W        W 5342  24.999  38.890  12.498
38560W        W 5343  44.555  26.539   3.177
38561W        W 5344  35.203  40.960   2.923
38562W        W 5345  18.170  38.971  14.016
38563W        W 5346   9.048  38.116  11.897
38564W        W 5347  43.348   1.944  12.772
38565W        W 5348   2.293  26.243   0.412
38566W        W 5349   4.680  35.518  12.188
38567W        W 5350  20.620  25.493   3.357
38568W        W 5351  14.171   3.333   1.204
38569W        W 5352  25.665  17.774  10.380
38570W        W 5353  34.499   2.441   4.356
38571W        W 5354  40.758  43.711   3.990
38572W        W 5355   7.224   3.769   1.922
38573W        W 5356  36.866   7.501   3.183
38574W        W 5357   4.386  16.069   2.410
38575W        W 5358  28.223  35.691   0.877
38576W        W 5359  23.379   9.380   1.591
38577W        W 5360  40.784  41.640  11.235
38578W        W 5361  42.457  25.209   3.082
38579W        W 5362  14.564   7.197   1.890
38580W        W 5363  24.182   0.227  12.460
38581W        W 5364  11.814  15.416  14.307
38582W        W 5365  37.306  36.492  14.061
38583W        W 5366  27.518   8.931  12.795
38584W        W 5367   5.574  18.010  14.073
38585W        W 5368   1.408   9.162   4.439
38586W        W 5369  36.668  44.554  14.077
38587W        W 5370  42.229  17.512   0.707
38588W        W 5371  44.900   4.736  14.204
38589W        W 5372  10.652  31.830  13.508
38590W        W 5373  32.073  15.211  13.028
38591W        W 5374  24.614  10.884  11.542
38592W        W 5375  30.885  30.089   3.944
38593W        W 5376  31.011  33.551   0.973
38594W        W 5377   8.169  27.975  14.253
38595W        W 5378   8.231  21.018  13.935
38596W        W 5379  20.651  44.073   0.414
38597W        W 5380  10.100  26.928   0.544
38598W        W 5381  30.702   8.692  11.235
38599W        W 5382  30.962   2.417  10.649
38600W        W 5383  23.754  14.918   1.310
38601W        W 5384  42.558  10.271   0.950
38602W        W 5385  23.146  31.549   3.643
38603W        W 5386  23.831  22.090  14.069
38604W        W 5387  34.917  26.921   2.400
38605W        W 5388  13.226  43.882   3.405
38606W        W 5389  20.165  15.489  12.054
38607W        W 5390  28.560  12.008   1.007
38608W        W 5391  21.308  25.300  14.724
38609W        W 5392  40.388  24.471  13.019
38610W        W 5393  26.119  14.383  11.512
38611W        W 5394  31.922  30.066   3.164
38612W        W 5395   2.792  11.624   1.657
38613W        W 5396  21.125  22.247  12.386
38614W        W 5397  17.638  18.047  13.018
38615W        W 5398  36.434   0.478   0.174
38616W        W 5399  44.453  22.309   4.554
38617W        W 5400   4.753   4.156  12.504
38618W        W 5401  23.169  33.991  14.989
38619W        W 5402   3.518  42.426   1.335
38620W        W 5403  14.658   2.901   3.267
38621W        W 5404   4.692  33.980  13.321
38622W        W 5405  27.728   3.417  11.457
38623W        W 5406  26.358   6.171   2.545
38624W        W 5407  28.508   8.891  11.475
38625W        W 5408  28.892  39.386   3.595
38626W        W 5409   0.240  13.327   1.940
38627W        W 5410   7.481  41.816   2.222
38628W        W 5411  27.216  11.824  11.726
38629W        W 5412   3.491  12.274   3.768
38630W        W 5413  26.422  43.456   1.392
38631W        W 5414  38.493  16.593  12.379
38632W        W 5415  36.336  25.801   2.595
38633W        W 5416  39.761  16.676   3.776
38634W        W 5417  22.230  20.405   2.311
38635W        W 5418  23.463  18.072   3.167
38636W        W 5419  22.075   1.803   2.664
38637W        W 5420  15.728  44.286   1.795
38638W        W 5421  14.177  28.433  13.398
38639W        W 5422  14.206   2.040   4.700
38640W        W 5423  42.043  39.578   3.821
38641W        W 5424  15.956  22.006   2.516
38642W        W 5425  28.712  20.736   0.516
38643W        W 5426  26.658  38.300  14.519
38644W        W 5427  31.107  18.777  14.763
38645W        W 5428  11.175  20.281  12.414
38646W        W 5429  44.153  16.172  10.574
38647W        W 5430  19.910  15.072  14.090
38648W        W 5431  23.066  39.783   1.402
38649W        W 5432  38.451  30.992  13.742
38650W        W 5433  32.442  10.178   4.138
38651W        W 5434  15.321   6.167  13.717
38652W        W 5435  36.930  41.065  14.120
38653W        W 5436  17.520  12.725   2.265
38654W        W 5437  28.913   1.557  11.619
38655W        W 5438  42.610   6.302  12.137
38656W        W 5439  14.547  24.423  12.141
38657W        W 5440  22.990  23.037   4.415
38658W        W 5441   6.530  29.162   4.790
38659W        W 5442  12.901  33.763  14.594
38660W        W 5443  36.853  42.792  13.935
38661W        W 5444  17.334  12.770   1.644
38662W        W 5445   6.385  11.158  11.733
38663W        W 5446   5.453   4.817  12.651
38664W        W 5447   5.114  37.524  14.366
38665W        W 5448  21.008   1.668   2.724
38666W        W 5449  12.107  32.435   0.867
38667W        W 5450  34.998   1.049  10.684
38668W        W 5451   3.659   7.189   4.555
38669W        W 5452   9.320  12.636   3.631
38670W        W 5453  26.113   2.260   3.207
38671W        W 5454  32.487  44.950   0.854
38672W        W 5455  31.750   6.382  13.175
38673W        W 5456   7.195  16.032  11.586
38674W        W 5457  29.442  16.842   0.179
38675W        W 5458  38.580  15.175   4.178
38676W        W 5459  19.089  10.054  12.044
38677W        W 5460  17.036  34.016   0.960
38678W        W 5461  22.293  32.407  10.612
38679W        W 5462  26.273  29.053   0.168
38680W        W 5463   7.628  42.579   1.412
38681W        W 5464  31.174   1.050  12.443
38682W        W 5465  43.192  19.185   3.306
38683W        W 5466   7.368  32.015   0.177
38684W        W 5467   7.427  34.592  12.056
38685W        W 5468  42.675  40.503  12.753
38686W        W 5469  28.146  38.805   1.780
38687W        W 5470  10.169  18.940   3.769
38688W        W 5471   2.326  28.456   1.806
38689W        W 5472  44.959  30.202  11.137
38690W        W 5473  33.311  40.438  10.232
38691W        W 5474  28.969  38.043  11.961
38692W        W 5475  27.263  39.022   4.771
38693W        W 5476  29.145  15.424   9.770
38694W        W 5477  33.441  28.601  14.004
38695W        W 5478  15.955  13.147  10.370
38696W        W 5479  40.305  33.852  12.676
38697W        W 5480  30.022  16.154  10.370
38698W        W 5481   9.926   7.406   1.187
38699W        W 5482  11.582  20.596   3.117
38700W        W 5483  23.113  28.428  12.012
38701W        W 5484   0.972  41.753   3.643
38702W        W 5485  13.307  29.156   2.104
38703W        W 5486   7.567   7.790   3.311
38704W        W 5487  43.807  39.042   3.110
38705W        W 5488  31.629  40.275   3.369
38706W        W 5489  26.773  40.131  11.675
38707W        W 5490  13.882  23.606   2.355
38708W        W 5491  34.498  31.852   4.745
38709W        W 5492  17.286  19.705   4.210
38710W        W 5493  43.719  30.914  13.370
38711W        W 5494  38.362  27.256   3.211
38712W        W 5495  28.599   8.463   0.869
38713W        W 5496  16.039   1.855   4.779
38714W        W 5497  19.115  15.144   0.861
38715W        W 5498   4.264  13.133   1.071
38716W        W 5499  38.805   9.227   0.342
38717W        W 5500   0.413   0.020  13.517
38718W        W 5501  18.139  14.348   1.358
38719W        W 5502  37.375   4.144  14.508
38720W        W 5503   3.848  31.859  13.292
38721W        W 5504  23.731  18.684   2.756
38722W        W 5505  41.079  28.777   2.276
38723W        W 5506  31.894  16.564   3.690
38724W        W 5507  27.621   6.378   4.202
38725W        W 5508  23.041   9.407  12.578
38726W        W 5509  13.138  27.799   3.309
38727W        W 5510  39.098   3.470   0.122
38728W        W 5511  41.015  31.094   4.600
38729W        W 5512  14.835  40.759   4.655
38730W        W 5513  37.171  28.347  11.187
38731W        W 5514   1.414  19.725  13.992
38732W        W 5515   3.141  24.475   2.177
38733W        W 5516  44.994   1.576  10.790
38734W        W 5517  30.335   1.498   4.591
38735W        W 5518  16.557  25.278  12.039
38736W        W 5519  28.251  28.740   3.640
38737W        W 5520   1.668   4.229  14.949
38738W        W 5521  32.465  43.386  12.666
38739W        W 5522   3.894   3.917   2.001
38740W        W 5523  17.039  10.367   0.477
38741W        W 5524  14.222  36.863  14.299
38742W        W 5525  31.183   5.189   0.523
38743W        W 5526   9.790  16.353   0.541
38744W        W 5527   4.244  29.120  12.879
38745W        W 5528  17.958  14.332   3.658
38746W        W 5529  10.394  37.357   0.575
38747W        W 5530  10.117  17.586   2.133
38748W        W 5531  18.644  24.266  14.810
38749W        W 5532  15.588  18.693   4.542
38750W        W 5533  11.716  24.561  10.683
38751W        W 5534  34.266  40.601   4.526
38752W        W 5535  35.971  38.338   3.681
38753W        W 5536  44.457   0.795   0.852
38754W        W 5537  42.035   7.048   9.953
38755W        W 5538  37.422  39.457   1.862
38756W        W 5539  23.072   3.894  14.152
38757W        W 5540   3.722   6.974  14.925
38758W        W 5541   2.898   9.250   2.238
38759W        W 5542   7.317  27.397  13.514
38760W        W 5543  13.998  34.555  10.178
38761W        W 5544   4.745   6.256   4.040
38762W        W 5545  43.241  24.084  11.626
38763W        W 5546  25.228   6.849  14.289
38764W        W 5547  10.762  40.282  10.663
38765W        W 5548   8.930  18.895   1.902
38766W        W 5549   9.107  22.626  12.565
38767W        W 5550  15.590  42.838  14.997
38768W        W 5551  40.133   1.782  10.727
38769W        W 5552   0.006  26.218   1.609
38770W        W 5553  34.486  16.872  14.321
38771W        W 5554  13.706  16.090   2.294
38772W        W 5555  16.064  16.742  13.533
38773W        W 5556  19.577  18.586   3.887
38774W        W 5557  21.143   4.905  11.910
38775W        W 5558   1.338  18.744  14.302
38776W        W 5559  17.620  17.870   3.959
38777W        W 5560  42.281  33.892  11.612
38778W        W 5561   3.428  14.525  12.987
38779W        W 5562  25.916   0.259  14.737
38780W        W 5563  22.052  28.809  11.960
38781W        W 5564   3.554  22.655  11.762
38782W        W 5565  37.598  27.535  10.686
38783W        W 5566   4.945  30.200  14.364
38784W        W 5567   0.692  14.552   0.835
38785W        W 5568  44.333   3.444   2.590
38786W        W 5569  23.161  18.766   2.743
38787W        W 5570  24.478  18.179  11.125
38788W        W 5571   8.761  43.474   4.623
38789W        W 5572   5.191  11.274   1.494
38790W        W 5573  41.616  13.581  14.177
38791W        W 5574  18.281  25.640   1.347
38792W        W 5575  23.107  27.090   1.846
38793W        W 5576   0.568  14.632  10.324
38794W        W 5577  44.230  12.335   0.941
38795W        W 5578  17.076  41.584  12.939
38796W        W 5579  29.461  15.160  12.920
38797W        W 5580  35.054   8.388  11.096
38798W        W 5581   4.801  21.573   1.597
38799W        W 5582  27.607   8.704   0.233
38800W        W 5583  37.467  44.430   4.162
38801W        W 5584  13.481  15.262   4.329
38802W        W 5585  34.860  30.124   3.271
38803W        W 5586  24.651  29.999   2.721
38804W        W 5587  30.686  41.581   2.079
38805W        W 5588  28.607  21.338   2.374
38806W        W 5589  21.192  23.129   1.283
38807W        W 5590  24.462   0.387  10.761
38808W        W 5591  28.064  41.311  12.543
38809W        W 5592  21.068  37.046  12.919
38810W        W 5593  41.419  15.690  10.578
38811W        W 5594  22.938   6.940   1.372
38812W        W 5595   2.440  29.885  13.416
38813W        W 5596   3.787  43.435  13.318
38814W        W 5597  23.988   8.170   2.675
38815W        W 5598  19.626  33.399   2.290
38816W        W 5599  23.726  36.699  11.630
38817W        W 5600   3.749  28.017  13.903
38818W        W 5601  36.304  25.192   1.373
38819W        W 5602  15.620  28.436   3.719
38820W        W 5603  15.868  22.836  14.989
38821W        W 5604   8.727  30.367   0.811
38822W        W 5605  44.792  33.221   4.039
38823W        W 5606  20.043  33.986   1.874
38824W        W 5607  23.563  43.847   4.081
38825W        W 5608  15.003  25.419   1.336
38826W        W 5609   0.196   3.789   1.288
38827W        W 5610  29.530  11.129   1.279
38828W        W 5611  12.522   0.101   1.877
38829W        W 5612  23.089  20.409  14.840
38830W        W 5613  27.598   6.406   3.672
38831W        W 5614  32.536  43.297   2.459
38832W        W 5615   0.952  43.542  14.980
38833W        W 5616  34.939  20.750  13.841
38834W        W 5617  17.243  31.920   4.586
38835W        W 5618  17.314   2.205  13.115
38836W        W 5619   4.286   0.043  12.193
38837W        W 5620  19.517  21.811  14.695
38838W        W 5621  37.518  43.947  14.613
38839W        W 5622  39.338   8.216   3.036
38840W        W 5623   6.004  20.239   3.175
38841W        W 5624  18.396   1.421  10.979
38842W        W 5625   9.111  29.167  14.979
38843W        W 5626   8.084   4.663  13.438
38844W        W 5627  24.018  34.939  10.617
38845W        W 5628  31.615   1.864   4.834
38846W        W 5629  11.612  16.507   0.258
38847W        W 5630  27.225  10.906  13.546
38848W        W 5631  35.759  25.434  12.729
38849W        W 5632   4.759  13.346  14.691
38850W        W 5633  10.406  36.270  10.598
38851W        W 5634  26.255  26.987   0.466
38852W        W 5635  27.194  15.599  14.446
38853W        W 5636   1.941  36.823   1.469
38854W        W 5637  23.894   9.706   4.059
38855W        W 5638  27.604  33.458  12.476
38856W        W 5639  40.382  31.263  11.232
38857W        W 5640  35.758  13.564  13.014
38858W        W 5641  41.827  11.449   0.385
38859W        W 5642  12.321  40.782  11.182
38860W        W 5643  14.485  16.516  13.324
38861W        W 5644  37.698   8.678  11.437
38862W        W 5645  29.994   3.295   1.869
38863W        W 5646  30.932  40.083  13.422
38864W        W 5647  44.936  14.295   4.033
38865W        W 5648  25.717  22.716  13.956
38866W        W 5649   1.549   4.812   3.301
38867W        W 5650  21.113   1.595  13.508
38868W        W 5651  19.242   0.357  13.994
38869W        W 5652  41.023  25.379  11.651
38870W        W 5653   1.516   7.295  10.061
38871W        W 5654  10.338  23.612  13.891
38872W        W 5655  41.267  33.010   1.823
38873W        W 5656  15.796  44.781   1.616
38874W        W 5657   5.598   8.440   0.022
38875W        W 5658  11.441  14.075   2.756
38876W        W 5659   4.755  25.650  14.861
38877W        W 5660  36.587  34.282  12.111
38878W        W 5661  22.969  24.710   2.249
38879W        W 5662   3.892  42.963   0.747
38880W        W 5663  15.115  35.637   2.216
38881W        W 5664  40.200   5.775  11.106
38882W        W 5665   3.733  25.396  10.995
38883W        W 5666  26.313  23.243   1.740
38884W        W 5667   3.854  15.901   1.147
38885W        W 5668  32.410  26.705   4.663
38886W        W 5669  26.653  36.359   2.782
38887W        W 5670  35.022  39.132  14.467
38888W        W 5671   6.294  44.768  11.427
38889W        W 5672  41.573   7.467   1.698
38890W        W 5673  38.828  11.971   1.360
38891W        W 5674  11.302  29.938   2.225
38892W        W 5675  20.690  43.280  11.122
38893W        W 5676  40.518   6.863   0.717
38894W        W 5677  28.697  30.903   0.752
38895W        W 5678   9.216  21.933  14.426
38896W        W 5679  20.583   7.789   0.714
38897W        W 5680  34.521  10.202  13.386
38898W        W 5681  22.196  12.163  14.423
38899W        W 5682  30.122  35.553   4.037
38900W        W 5683  24.563  40.496   1.344
38901W        W 5684  25.443  23.223   4.525
38902W        W 5685  33.822  33.573  12.505
38903W        W 5686  17.537  31.230   2.108
38904W        W 5687  10.645   1.057   3.124
38905W        W 5688  29.916   8.801  11.659
38906W        W 5689  34.143  15.226  12.489
38907W        W 5690  44.039   3.791  13.962
38908W        W 5691  41.541  44.427  10.545
38909W        W 5692  22.150  39.037  13.939
38910W        W 5693   8.845  25.676   2.239
38911W        W 5694   8.239  15.486  11.115
38912W        W 5695  43.840  39.949  13.989
38913W        W 5696   1.554  25.137   2.749
38914W        W 5697  10.437  19.089   0.119
38915W        W 5698  30.517  34.809  10.691
38916W        W 5699  23.850  32.151   4.758
38917W        W 5700  22.946  25.228   2.280
38918W        W 5701  39.501  19.089  11.905
38919W        W 5702   9.371  37.497  12.496
38920W        W 5703  10.381  41.374   4.231
38921W        W 5704   9.846   8.306   0.957
38922W        W 5705   9.881  17.122  11.087
38923W        W 5706  17.184  18.089   4.148
38924W        W 5707   4.045   8.856  13.724
38925W        W 5708   6.426   5.601   1.972
38926W        W 5709   3.744  11.797   3.078
38927W        W 5710  38.854  16.639  11.099
38928W        W 5711  44.696  14.831  14.840
38929W        W 5712   2.822  19.007  14.465
38930W        W 5713   2.389  23.561   4.623
38931W        W 5714  16.435   0.918   4.494
38932W        W 5715   0.913   4.828  11.602
38933W        W 5716  19.385  42.266   4.753
38934W        W 5717  14.310  39.375  10.301
38935W        W 5718  17.844  33.627   0.891
38936W        W 5719  44.913  28.674   0.373
38937W        W 5720  43.289   1.471   2.403
38938W        W 5721  34.404  31.396   1.294
38939W        W 5722  25.583  19.931  11.588
38940W        W 5723  34.149  12.468  11.166
38941W        W 5724  38.571  36.503   4.157
38942W        W 5725   0.609  15.350   0.371
38943W        W 5726  10.283   4.700   4.570
38944W        W 5727   2.564  22.632  11.565
38945W        W 5728  32.200  37.890  14.953
38946W        W 5729  42.812  25.361   1.616
38947W        W 5730  35.321  13.680   3.667
38948W        W 5731   5.225   4.744  14.077
38949W        W 5732  23.644  28.452   3.286
38950W        W 5733  23.740   1.650   2.249
38951W        W 5734  31.044  10.193   3.388
38952W        W 5735  28.949   1.356   4.423
38953W        W 5736  36.908  27.673  12.924
38954W        W 5737   0.858   2.993   1.248
38955W        W 5738  20.714  29.611   0.802
38956W        W 5739  20.114  37.336   4.640
38957W        W 5740  43.541   5.939  14.895
38958W        W 5741  42.851  24.303   1.345
38959W        W 5742  12.381  41.557  10.721
38960W        W 5743  18.347  37.398   4.980
38961W        W 5744  43.864   3.396  11.891
38962W        W 5745  39.247  20.159   4.691
38963W        W 5746  38.596  35.787  12.372
38964W        W 5747  30.918  44.328  12.921
38965W        W 5748  33.902  15.705   3.267
38966W        W 5749  15.523  40.518  14.948
38967W        W 5750  37.258  33.774   4.577
38968W        W 5751  13.773   0.468   0.807
38969W        W 5752  42.312  18.289  12.203
38970W        W 5753   9.869  13.810   2.190
38971W        W 5754  29.316  25.110  13.087
38972W        W 5755   5.177  13.661  12.549
38973W        W 5756  41.935  41.859   1.177
38974W        W 5757   7.215  13.521  11.181
38975W        W 5758  43.233  25.083  10.801
38976W        W 5759   9.271  11.314   0.732
38977W        W 5760   0.104  21.214   1.317
38978W        W 5761  17.181  23.612  10.329
38979W        W 5762  35.395  37.618  11.163
38980W        W 5763  29.664  40.400   1.495
38981W        W 5764  34.508   8.134   3.607
38982W        W 5765  18.147   1.835  12.523
38983W        W 5766  21.129  41.532  13.310
38984W        W 5767  27.054  30.377  11.700
38985W        W 5768  34.838  22.700  13.365
38986W        W 5769   6.401  32.144   1.224
38987W        W 5770   4.542  41.767  12.797
38988W        W 5771  17.843  38.440  13.397
38989W        W 5772  21.769  10.301   4.644
38990W        W 5773   3.297  44.325   1.630
38991W        W 5774  29.194  16.498  11.734
38992W        W 5775  20.578  39.022  11.261
38993W        W 5776  30.009  42.002  10.870
38994W        W 5777   8.736   5.585  11.192
38995W        W 5778  26.115  16.905   0.805
38996W        W 5779   9.826  28.534  10.561
38997W        W 5780  18.604  16.805  12.648
38998W        W 5781  44.701  18.582  12.165
38999W        W 5782  13.943  38.808  11.660
39000W        W 5783   4.339  18.675  13.897
39001W        W 5784  30.663  10.889  11.145
39002W        W 5785  27.113  34.210   3.014
39003W        W 5786  11.839  15.053   0.298
39004W        W 5787  10.817   5.264   4.046
39005W        W 5788  36.917  26.505   4.659
39006W        W 5789  31.429  37.332   2.513
39007W        W 5790  30.894   0.042  13.484
39008W        W 5791  39.863  28.563  14.718
39009W        W 5792  20.468  26.427  13.615
39010W        W 5793   9.733  34.034  12.814
39011W        W 5794   0.284   4.952   2.863
39012W        W 5795  25.459  27.375   5.617
39013W        W 5796   2.327  25.211   2.388
39014W        W 5797  29.125  43.900  12.855
39015W        W 5798   7.161  10.633  10.708
39016W        W 5799  25.005  13.058  12.049
39017W        W 5800  37.644  33.062  10.506
39018W        W 5801  34.659  35.882   1.383
39019W        W 5802  42.587  41.316  11.659
39020W        W 5803  17.167  40.907   3.355
39021W        W 5804   5.205  32.667   4.095
39022W        W 5805  43.213   5.444  12.009
39023W        W 5806  19.086  24.766   2.404
39024W        W 5807   9.002  23.686   3.032
39025W        W 5808  40.848  13.376  13.767
39026W        W 5809   3.426   4.809  10.843
39027W        W 5810  35.545  10.405  11.959
39028W        W 5811   4.889  12.657  11.054
39029W        W 5812   4.874  36.030  11.499
39030W        W 5813  32.790  31.186   2.926
39031W        W 5814  24.812  30.900   2.338
39032W        W 5815  41.806  43.320  11.140
39033W        W 5816  11.615   0.985  13.813
39034W        W 5817  35.885  26.560   4.657
39035W        W 5818  30.918  34.090  13.880
39036W        W 5819  34.415  15.760   0.020
39037W        W 5820  44.820  35.326  10.439
39038W        W 5821  34.051  40.914   1.874
39039W        W 5822   0.276  37.374   2.209
39040W        W 5823   1.430  38.893  14.997
39041W        W 5824  29.615   9.267  13.108
39042W        W 5825  13.458   5.120   2.843
39043W        W 5826  15.788  20.746  14.995
39044W        W 5827   6.582  22.211   1.357
39045W        W 5828  10.412   6.261   9.872
39046W        W 5829  19.272  27.433  13.851
39047W        W 5830  22.576  38.981  13.401
39048W        W 5831  14.329  25.729   3.254
39049W        W 5832  40.483  33.684  13.980
39050W        W 5833   2.936   4.489   1.428
39051W        W 5834  36.088  43.728  10.659
39052W        W 5835  29.429  25.459   2.567
39053W        W 5836  44.849  21.601  10.695
39054W        W 5837  10.363  31.006   3.133
39055W        W 5838  23.134  35.987   4.295
39056W        W 5839  33.500  31.406  10.665
39057W        W 5840  18.118  24.500   4.390
39058W        W 5841  10.798  15.466  13.979
39059W        W 5842  28.057  13.752   4.033
39060W        W 5843  39.362  13.865   4.103
39061W        W 5844  33.635  32.067  12.138
39062W        W 5845  23.001  36.452   3.215
39063W        W 5846  12.786  44.360   1.391
39064W        W 5847  29.521  44.189   3.680
39065W        W 5848  23.972  38.890   4.618
39066W        W 5849  39.325   8.823  13.816
39067W        W 5850  20.402  29.676   1.850
39068W        W 5851  13.608  18.827  11.866
39069W        W 5852   4.968  44.541  13.068
39070W        W 5853  44.559  17.024  11.633
39071W        W 5854  27.565  29.051   3.122
39072W        W 5855   9.388  17.577  11.217
39073W        W 5856  12.147  35.344   3.774
39074W        W 5857   1.922  23.071   0.907
39075W        W 5858  43.769  25.070   4.556
39076W        W 5859   1.379  37.088   0.305
39077W        W 5860  28.091   6.582  11.700
39078W        W 5861   2.482  21.344  12.085
39079W        W 5862  20.660   9.482  14.001
39080W        W 5863  30.871  44.032   1.515
39081W        W 5864  21.127  38.889   0.445
39082W        W 5865  43.028   2.442  11.064
39083W        W 5866  30.672   3.502   0.430
39084W        W 5867  35.192  41.875   1.422
39085W        W 5868  21.679  19.663  10.763
39086W        W 5869  33.822  19.311  12.515
39087W        W 5870  15.536  32.145   3.319
39088W        W 5871   1.872   9.200  11.996
39089W        W 5872  18.273  28.620  14.333
39090W        W 5873   8.772  23.122   2.227
39091W        W 5874  33.444  30.667   1.806
39092W        W 5875  11.824  10.818   1.353
39093W        W 5876  21.946  21.535   0.637
39094W        W 5877  12.241  43.433   4.669
39095W        W 5878  41.393  26.691  12.083
39096W        W 5879  20.790  28.671   1.239
39097W        W 5880  17.088  23.446  14.603
39098W        W 5881  33.972  15.461   0.028
39099W        W 5882  28.332  25.553   3.586
39100W        W 5883   0.850  24.537   2.859
39101W        W 5884   0.242  42.508   3.663
39102W        W 5885  24.414   7.148  12.809
39103W        W 5886  31.741   3.276   0.921
39104W        W 5887  17.696   9.333   0.105
39105W        W 5888  33.882  25.676  12.353
39106W        W 5889  39.652   7.190  10.252
39107W        W 5890   3.198  32.012   4.722
39108W        W 5891  34.742  29.742  12.894
39109W        W 5892  19.043   5.193   4.858
39110W        W 5893  31.065  36.911  11.010
39111W        W 5894   4.770  15.315   2.757
39112W        W 5895   9.125  12.594   5.123
39113W        W 5896   4.797  22.782   4.958
39114W        W 5897   9.012  35.285  11.670
39115W        W 5898  24.240  19.276  14.521
39116W        W 5899   2.063  19.571   2.362
39117W        W 5900  19.812  11.162   1.727
39118W        W 5901  33.034  44.109   1.888
39119W        W 5902  44.622  43.704   4.104
39120W        W 5903  38.087  10.221  10.246
39121W        W 5904  30.619  43.189   0.755
39122W        W 5905  20.418  36.068  13.457
39123W        W 5906  29.972   6.874   2.247
39124W        W 5907  41.794  27.101   4.889
39125W        W 5908  41.911  29.750  11.625
39126W        W 5909   7.680  35.518  11.183
39127W        W 5910  13.659  43.771   2.276
39128W        W 5911   1.387  38.313  12.689
39129W        W 5912  15.938   0.290  14.509
39130W        W 5913  16.178  10.852  13.588
39131W        W 5914   7.067  17.512  14.955
39132W        W 5915  42.073  35.348   3.849
39133W        W 5916  40.515   8.871   1.284
39134W        W 5917   0.872  33.531   4.626
39135W        W 5918  24.728  40.037   2.632
39136W        W 5919   4.256  29.028  11.843
39137W        W 5920  17.152   0.793   2.704
39138W        W 5921   0.230  14.566   0.514
39139W        W 5922  34.529   8.210  10.717
39140W        W 5923  29.008   2.626  11.502
39141W        W 5924   2.080   8.671  14.226
39142W        W 5925  37.429  26.593  10.228
39143W        W 5926  28.361  44.555  10.553
39144W        W 5927  32.535  36.661   3.797
39145W        W 5928  36.401   5.821  12.859
39146W        W 5929  17.267  18.998  13.961
39147W        W 5930  28.502  41.584   0.479
39148W        W 5931  10.013  31.630  12.069
39149W        W 5932  30.228  44.435  10.446
39150W        W 5933   4.178  12.842   1.951
39151W        W 5934  11.026   4.363   3.865
39152W        W 5935  31.230  16.356  13.995
39153W        W 5936  26.543  25.323  14.433
39154W        W 5937  10.721  36.911   2.212
39155W        W 5938  24.163  19.073  12.762
39156W        W 5939  26.465  40.567  11.713
39157W        W 5940  41.532   5.817  14.822
39158W        W 5941  12.741   8.761   2.238
39159W        W 5942   9.421  10.570   0.347
39160W        W 5943  14.684  25.339   9.772
39161W        W 5944  25.998   6.884  11.641
39162W        W 5945  28.960  25.208   4.533
39163W        W 5946  20.493  31.518  11.670
39164W        W 5947   7.314  18.494   0.009
39165W        W 5948  27.252  43.189  11.320
39166W        W 5949  37.246   9.932   3.679
39167W        W 5950  27.722  28.250   3.004
39168W        W 5951  33.654  27.522  11.088
39169W        W 5952  38.478   1.318   3.421
39170W        W 5953  38.062  33.738  12.459
39171W        W 5954  13.840  23.615   1.413
39172W        W 5955   7.344  22.263   0.824
39173W        W 5956  37.986  43.308   0.182
39174W        W 5957  12.245  21.596  11.115
39175W        W 5958  13.733  40.725   5.064
39176W        W 5959   8.275  34.691   1.221
39177W        W 5960  41.333  39.096   2.721
39178W        W 5961  22.636  17.485  12.440
39179W        W 5962  24.252  21.182   1.375
39180W        W 5963   0.717   0.752   3.047
39181W        W 5964   3.477  23.122   0.890
39182W        W 5965   7.756  25.682  11.166
39183W        W 5966  33.943  36.486   1.471
39184W        W 5967  26.169  37.414   1.288
39185W        W 5968  15.293  23.690  12.639
39186W        W 5969  17.704  25.973  12.460
39187W        W 5970  13.004  12.385  12.935
39188W        W 5971  39.179  19.171  13.961
39189W        W 5972  11.110  17.491   2.644
39190W        W 5973   3.141  39.895  12.834
39191W        W 5974  16.814  13.848  14.163
39192W        W 5975  16.365  22.060  12.772
39193W        W 5976  29.969  27.253  11.704
39194W        W 5977  29.573  12.934  10.586
39195W        W 5978  30.644   1.950   4.402
39196W        W 5979  10.090  44.576  10.213
39197W        W 5980  38.331  11.257  14.402
39198W        W 5981  21.323   8.176   1.112
39199W        W 5982  11.877  15.367   3.688
39200W        W 5983  27.226  28.239   2.799
39201W        W 5984  36.380  14.761   0.895
39202W        W 5985  39.483  24.160  12.111
39203W        W 5986  31.637  20.612   1.943
39204W        W 5987  35.371  15.820  11.888
39205W        W 5988  32.199   4.053   0.725
39206W        W 5989  37.574  43.398  11.047
39207W        W 5990  12.417  42.569   1.201
39208W        W 5991   3.299  21.430  13.970
39209W        W 5992  40.311  36.449  14.486
39210W        W 5993  44.544  27.002   1.879
39211W        W 5994  40.821  31.271   0.892
39212W        W 5995  29.387  28.402  11.639
39213W        W 5996  41.830  11.069   1.263
39214W        W 5997   1.650  30.931  13.959
39215W        W 5998  43.359  24.954  13.326
39216W        W 5999  40.504  11.262  12.789
39217W        W 6000  12.404  33.940   3.762
39218W        W 6001  14.212  40.069  12.021
39219W        W 6002  29.160  40.958  11.072
39220W        W 6003  14.893   5.833  13.583
39221W        W 6004  15.543  31.045   4.662
39222W        W 6005  33.131  28.614  11.736
39223W        W 6006  37.145  43.590   3.162
39224W        W 6007  29.053   9.309   0.497
39225W        W 6008  32.558  33.169  12.671
39226W        W 6009  40.904  31.589  13.251
39227W        W 6010  10.166  40.465   5.168
39228W        W 6011  43.951  41.583   0.838
39229W        W 6012  31.367  10.843   1.320
39230W        W 6013  23.985  31.851  12.463
39231W        W 6014  31.385  43.146   4.160
39232W        W 6015  25.976  34.115   4.707
39233W        W 6016  41.241  29.076   0.676
39234W        W 6017   5.023  41.431   4.530
39235W        W 6018   4.473  31.443   1.431
39236W        W 6019  12.743   6.102   2.208
39237W        W 6020  21.478  22.427   2.135
39238W        W 6021   4.029  29.817   0.002
39239W        W 6022   8.127   6.251   2.739
39240W        W 6023  33.497  23.676   3.656
39241W        W 6024  34.137   8.257   2.690
39242W        W 6025  41.262  19.548  14.417
39243W        W 6026  21.017  22.073  11.052
39244W        W 6027  39.305   5.501   3.684
39245W        W 6028  19.687  31.816  10.637
39246W        W 6029  11.734  36.240   3.794
39247W        W 6030  43.355  36.861   4.149
39248W        W 6031   5.713  33.906   2.302
39249W        W 6032  30.977   5.797   0.795
39250W        W 6033  43.524  38.122  11.394
39251W        W 6034  34.345   2.788   3.150
39252W        W 6035   9.599   2.269   4.568
39253W        W 6036  36.111  41.105  12.062
39254W        W 6037  12.824  27.546  13.381
39255W        W 6038  39.519  20.540   0.431
39256W        W 6039  32.889   9.219   0.947
39257W        W 6040   9.638  34.591   1.214
39258W        W 6041  38.104   3.582   4.437
39259W        W 6042  40.992  19.241   0.886
39260W        W 6043   3.723  22.218   1.501
39261W        W 6044   4.797  40.466   2.177
39262W        W 6045  44.370  42.497  11.719
39263W        W 6046  25.059   4.477   0.377
39264W        W 6047  41.011  40.478   2.814
39265W        W 6048  14.140  30.697   2.439
39266W        W 6049   8.394  41.098  10.767
39267W        W 6050  24.080  13.846  14.270
39268W        W 6051  10.339  27.942   2.877
39269W        W 6052   8.922   3.200  10.837
39270W        W 6053   3.812  12.883   1.013
39271W        W 6054  17.278  38.218  14.280
39272W        W 6055  17.322  35.300   1.240
39273W        W 6056  18.037  12.912  12.560
39274W        W 6057  37.809  36.433   4.751
39275W        W 6058   0.172  32.137   2.110
39276W        W 6059  25.993  13.864  11.547
39277W        W 6060  21.700  27.532  13.851
39278W        W 6061   2.960  15.630  10.612
39279W        W 6062  17.032   9.870  12.211
39280W        W 6063  15.151  17.645  14.566
39281W        W 6064  20.270  41.340  13.446
39282W        W 6065  15.823  14.410   2.298
39283W        W 6066  22.960  11.386  12.153
39284W        W 6067  42.043  22.076  14.936
39285W        W 6068   1.498  28.349   2.370
39286W        W 6069   3.168   7.248   3.728
39287W        W 6070  37.414  36.564  11.629
39288W        W 6071  20.652  36.220  11.199
39289W        W 6072  26.724  37.081  14.117
39290W        W 6073  21.692  22.130  11.773
39291W        W 6074  25.903  31.182   4.191
39292W        W 6075   2.799  36.540   2.015
39293W        W 6076  17.574  17.553   0.265
39294W        W 6077  37.347  31.647  13.485
39295W        W 6078  44.928  15.369   4.193
39296W        W 6079  37.396  15.101   2.830
39297W        W 6080  10.594  36.945   0.789
39298W        W 6081  17.543  42.067  14.329
39299W        W 6082  17.236  14.377   2.368
39300W        W 6083  24.085   3.690   2.347
39301W        W 6084  44.700  20.419   4.746
39302W        W 6085   3.316   5.406  11.498
39303W        W 6086  36.639  44.305   4.486
39304W        W 6087  21.406  25.074   4.577
39305W        W 6088  20.988   0.857  10.342
39306W        W 6089  38.148  41.264  12.922
39307W        W 6090  42.590  37.807   4.230
39308W        W 6091  40.449  29.374   0.417
39309W        W 6092   5.699   4.335   2.437
39310W        W 6093  11.131  16.370  10.561
39311W        W 6094  25.094  15.958   4.378
39312W        W 6095  20.558  31.079   3.613
39313W        W 6096  36.537  37.866   2.643
39314W        W 6097  11.152   1.987   3.266
39315W        W 6098  24.818  39.519  12.459
39316W        W 6099   3.508   3.010   0.976
39317W        W 6100  37.451  31.857  11.267
39318W        W 6101  31.137  29.950  14.770
39319W        W 6102  35.001  31.979  13.314
39320W        W 6103   6.286  14.080  10.730
39321W        W 6104   5.890  42.377   4.120
39322W        W 6105  44.365  43.197  14.336
39323W        W 6106   6.206  26.954   3.703
39324W        W 6107  40.440  17.512   3.253
39325W        W 6108  18.106  12.004  10.279
39326W        W 6109  36.050  34.079   0.735
39327W        W 6110  27.597  19.166  13.959
39328W        W 6111   7.435  14.359   3.356
39329W        W 6112   0.997  30.614  11.774
39330W        W 6113  43.974  39.838   2.942
39331W        W 6114   0.693  44.162   0.591
39332W        W 6115  26.368  12.711   3.129
39333W        W 6116  41.551  39.244   2.221
39334W        W 6117  19.182  42.053  12.122
39335W        W 6118   5.699  10.834   4.501
39336W        W 6119  11.808  40.425  12.001
39337W        W 6120  26.623  25.061   2.454
39338W        W 6121   3.906  33.762   3.019
39339W        W 6122  25.203  30.523  13.540
39340W        W 6123  38.115  27.784   4.047
39341W        W 6124  43.738  35.840   0.627
39342W        W 6125  15.478  17.730   2.112
39343W        W 6126  20.614  44.414   0.011
39344W        W 6127  12.392  26.851  14.878
39345W        W 6128   4.457   5.878   0.134
39346W        W 6129  30.364  38.596  11.753
39347W        W 6130  38.074  15.672   3.275
39348W        W 6131   8.127  13.764  10.914
39349W        W 6132  27.900   4.886  13.319
39350W        W 6133  24.067  35.439   2.679
39351W        W 6134  26.787   3.428   1.846
39352W        W 6135  17.369  33.396   0.782
39353W        W 6136  43.384  17.055  13.913
39354W        W 6137   5.359  21.867  14.848
39355W        W 6138  25.199  22.386   4.682
39356W        W 6139   1.449  29.356   4.091
39357W        W 6140  43.345   4.057  12.309
39358W        W 6141  19.096  19.661   3.775
39359W        W 6142   2.937  42.498   2.905
39360W        W 6143  39.335  14.897  11.151
39361W        W 6144  40.383   4.184   4.278
39362W        W 6145  17.640  39.243   3.572
39363W        W 6146  39.008   5.451   0.950
39364W        W 6147  39.595   1.700  14.865
39365W        W 6148   5.165  18.077  12.963
39366W        W 6149  17.507  29.439   4.246
39367W        W 6150  28.211  23.350   3.166
39368W        W 6151   8.653  19.578   1.204
39369W        W 6152  13.642  38.013   2.910
39370W        W 6153  19.005  28.998   2.765
39371W        W 6154  30.861  38.387  13.295
39372W        W 6155   9.313  10.356   2.246
39373W        W 6156   4.477  33.361  14.941
39374W        W 6157  11.692  31.225   2.681
39375W        W 6158  25.155  39.928  11.705
39376W        W 6159   3.834  33.506  11.637
39377W        W 6160  44.220  18.499  14.033
39378W        W 6161  39.012  41.373  13.166
39379W        W 6162  19.219  22.833   1.438
39380W        W 6163  35.839  33.348   2.397
39381W        W 6164  25.005  17.248   2.263
39382W        W 6165  40.098  44.853  10.690
39383W        W 6166   0.566  18.676  12.433
39384W        W 6167   3.174   2.732   1.252
39385W        W 6168  16.635  11.397  13.903
39386W        W 6169  26.023  35.723   1.809
39387W        W 6170  28.967  42.639   0.927
39388W        W 6171  37.144  10.849   4.695
39389W        W 6172  17.934   6.884   2.758
39390W        W 6173   7.775  42.383  12.035
39391W        W 6174  42.959  17.003  10.067
39392W        W 6175  42.102  41.038   3.241
39393W        W 6176  16.731  24.591   4.093
39394W        W 6177  12.083  20.322   1.319
39395W        W 6178  19.197  23.340   1.345
39396W        W 6179  40.496  28.863  13.759
39397W        W 6180  38.431  18.554  11.394
39398W        W 6181  38.055  42.236  14.290
39399W        W 6182  34.101   4.191  10.455
39400W        W 6183  37.410  15.675  11.544
39401W        W 6184  15.390   3.289   4.673
39402W        W 6185  13.179   1.653   4.137
39403W        W 6186  18.255   8.770  13.982
39404W        W 6187  39.057  32.785  11.476
39405W        W 6188   9.947  19.137   0.224
39406W        W 6189  22.180  40.561  12.630
39407W        W 6190  44.170  13.228   4.856
39408W        W 6191  34.384  30.068   2.433
39409W        W 6192  31.532  17.760   0.375
39410W        W 6193  29.700   4.760   2.294
39411W        W 6194  14.283   1.713  12.335
39412W        W 6195  36.077  14.732   4.466
39413W        W 6196  21.664  27.997  10.002
39414W        W 6197   5.297  14.558  13.083
39415W        W 6198  38.433  33.883   1.972
39416W        W 6199  34.932  33.025   1.831
39417W        W 6200  22.053  34.152  12.575
39418W        W 6201  25.000   8.774  14.786
39419W        W 6202  33.831  28.594   3.095
39420W        W 6203  20.658  30.001   1.536
39421W        W 6204  39.124  25.659  13.798
39422W        W 6205   2.302  43.512   0.596
39423W        W 6206   4.241   8.938  11.470
39424W        W 6207  34.370  41.064  10.665
39425W        W 6208  29.665  44.876  14.051
39426W        W 6209   0.629   9.658  11.911
39427W        W 6210  37.539  27.057  14.438
39428W        W 6211   4.776   0.307   1.376
39429W        W 6212  29.587  34.655   3.790
39430W        W 6213  25.437  16.345   3.607
39431W        W 6214  13.724  25.163   0.546
39432W        W 6215  18.157   1.951   0.302
39433W        W 6216   0.003  14.922   3.188
39434W        W 6217  29.232  22.826  11.240
39435W        W 6218  27.171  11.086  11.987
39436W        W 6219  41.886  37.996  10.719
39437W        W 6220   4.189  19.699   2.246
39438W        W 6221  32.645  42.488  12.249
39439W        W 6222  15.648  17.704  11.108
39440W        W 6223  41.828  34.649  13.997
39441W        W 6224  24.197  13.325  11.615
39442W        W 6225  14.095  40.821  12.427
39443W        W 6226  18.182   1.789   2.825
39444W        W 6227  24.602  34.449   0.301
39445W        W 6228  18.788  21.993  14.903
39446W        W 6229  22.662  24.996  13.881
39447W        W 6230   3.964   1.760  14.372
39448W        W 6231   8.348   3.307   0.962
39449W        W 6232   1.404  14.182   3.011
39450W        W 6233  30.155  16.480   0.292
39451W        W 6234  23.627   7.194   4.709
39452W        W 6235  36.047   5.832  13.512
39453W        W 6236  23.702   9.927   2.893
39454W        W 6237   1.776   2.012   3.594
39455W        W 6238   5.262  25.214  11.217
39456W        W 6239  26.925  28.454   5.390
39457W        W 6240   3.914  38.401   1.607
39458W        W 6241  36.439  10.335   2.678
39459W        W 6242   5.587  22.719  11.723
39460W        W 6243  32.494  11.510  11.366
39461W        W 6244   7.171  20.509  10.771
39462W        W 6245  20.357  38.263  11.023
39463W        W 6246  20.098   1.172  12.411
39464W        W 6247  10.191  13.890  11.672
39465W        W 6248  27.932  25.142  12.589
39466W        W 6249  31.353  28.381   1.413
39467W        W 6250  11.371  16.880   0.981
39468W        W 6251  32.859  35.311   4.461
39469W        W 6252  22.677  34.541  10.603
39470W        W 6253  19.163  28.618   0.255
39471W        W 6254  22.900   7.569  14.562
39472W        W 6255  44.806  13.542   1.193
39473W        W 6256  23.299   3.682  13.722
39474W        W 6257  41.835  30.186  10.753
39475W        W 6258  16.690   5.690  10.852
39476W        W 6259  40.176  37.416   4.086
39477W        W 6260  39.563   4.394  13.910
39478W        W 6261  41.112   2.938   1.129
39479W        W 6262  10.229  32.348   0.836
39480W        W 6263  15.363  10.222   1.804
39481W        W 6264  32.220  26.891   1.141
39482W        W 6265   3.649  34.372  11.609
39483W        W 6266  36.611  11.712  14.778
39484W        W 6267  42.364  37.907  10.953
39485W        W 6268  41.556  22.025   4.511
39486W        W 6269  35.516  37.825   1.681
39487W        W 6270  37.397  29.065   3.407
39488W        W 6271   7.234   2.376  13.564
39489W        W 6272  40.173  36.249  13.986
39490W        W 6273  44.215  19.576   2.697
39491W        W 6274  10.903   3.465  12.023
39492W        W 6275  12.862  26.203  14.840
39493W        W 6276  33.925  31.640   4.914
39494W        W 6277  40.617  23.512   2.716
39495W        W 6278  41.809  30.624  14.035
39496W        W 6279  35.556  17.100   1.700
39497W        W 6280  37.641   9.155  13.812
39498W        W 6281  25.548  11.805  12.118
39499W        W 6282  15.233  41.943  14.305
39500W        W 6283   3.197  13.208   3.647
39501W        W 6284  38.184   3.423  10.429
39502W        W 6285   3.495  27.317   1.430
39503W        W 6286  26.510  11.545   2.427
39504W        W 6287  41.381  31.468  14.931
39505W        W 6288  18.108  36.310   1.347
39506W        W 6289   9.366  22.686  13.017
39507W        W 6290  33.185  43.552   4.573
39508W        W 6291  16.706   4.593   0.991
39509W        W 6292  38.636   7.215  14.432
39510W        W 6293  37.039  31.470   2.560
39511W        W 6294   7.152  41.821  14.160
39512W        W 6295  39.324  27.573  13.397
39513W        W 6296   5.868  32.851   0.280
39514W        W 6297  41.821  27.116   2.315
39515W        W 6298  31.351  31.442   0.301
39516W        W 6299  36.526  37.948   0.762
39517W        W 6300  37.999   0.655   0.741
39518W        W 6301   8.520  25.345   4.202
39519W        W 6302  44.286  30.729   4.398
39520W        W 6303  12.298  11.443  11.848
39521W        W 6304   2.222  25.501   0.215
39522W        W 6305   7.322  12.730  11.550
39523W        W 6306  42.569   0.353  13.496
39524W        W 6307   6.401  13.598  14.314
39525W        W 6308   3.398  43.930  10.896
39526W        W 6309   9.362  13.906  12.027
39527W        W 6310  33.304  39.850  11.977
39528W        W 6311  17.527  21.815  11.999
39529W        W 6312  44.016  33.957  14.493
39530W        W 6313  39.593   5.949   3.648
39531W        W 6314   4.950  32.098  13.316
39532W        W 6315  39.280  40.044  10.495
39533W        W 6316  29.026  27.510  11.892
39534W        W 6317  34.081  35.379   4.081
39535W        W 6318   5.894  23.737   2.931
39536W        W 6319   4.550   8.626  13.778
39537W        W 6320  15.114  26.325  10.763
39538W        W 6321  31.478   3.658   1.190
39539W        W 6322  11.760  11.359   0.954
39540W        W 6323  11.833   0.469   1.240
39541W        W 6324  18.182  23.895   3.924
39542W        W 6325  40.105  23.041   2.366
39543W        W 6326  20.038  24.669   0.305
39544W        W 6327  10.348  28.395  12.010
39545W        W 6328  13.567   1.864   3.246
39546W        W 6329  39.079  16.935  14.242
39547W        W 6330  21.659  41.817  11.672
39548W        W 6331  21.805   6.211  10.199
39549W        W 6332  42.493  35.513  12.624
39550W        W 6333  22.828  35.326  10.334
39551W        W 6334  28.584   8.611   3.551
39552W        W 6335   0.256  25.026   0.293
39553W        W 6336  38.812   1.989   0.232
39554W        W 6337   6.539  39.971  12.834
39555W        W 6338  44.467  41.071  11.434
39556W        W 6339  18.280  43.526   3.773
39557W        W 6340   7.298  28.576   1.854
39558W        W 6341  25.482   9.354  11.616
39559W        W 6342   4.042  28.523   4.145
39560W        W 6343  21.664  31.390   2.887
39561W        W 6344  24.149  24.029   2.816
39562W        W 6345  25.873  24.387  12.340
39563W        W 6346  42.550   4.541  12.634
39564W        W 6347  16.964  41.084  13.100
39565W        W 6348  17.151   4.756  14.287
39566W        W 6349  29.062   1.982  10.727
39567W        W 6350  41.252  40.850   3.633
39568W        W 6351  19.457   1.458   2.762
39569W        W 6352   8.117  15.133  14.024
39570W        W 6353  18.178  34.989  10.389
39571W        W 6354  17.054  14.090   0.504
39572W        W 6355  23.652  25.710  13.536
39573W        W 6356  24.977  12.914   3.553
39574W        W 6357  38.067   4.742  10.831
39575W        W 6358  20.204  25.586  10.716
39576W        W 6359   4.437  17.012   4.082
39577W        W 6360  23.082   9.383  13.992
39578W        W 6361  42.007  42.250  10.758
39579W        W 6362  43.674  30.876  14.293
39580W        W 6363  33.487   7.559   2.362
39581W        W 6364  41.773  33.706  11.482
39582W        W 6365  17.751  41.888  11.563
39583W        W 6366  31.016  27.940  10.509
39584W        W 6367  29.623   3.554  10.388
39585W        W 6368   5.940   6.593  13.031
39586W        W 6369   7.728  13.259   3.745
39587W        W 6370  14.236  39.434  12.580
39588W        W 6371  31.076  10.674  13.373
39589W        W 6372  33.128  24.239  12.097
39590W        W 6373  21.137  13.273  13.852
39591W        W 6374   9.101  27.013   4.852
39592W        W 6375  10.224  12.223  13.563
39593W        W 6376   9.515  39.851  11.941
39594W        W 6377  18.715  38.700   1.677
39595W        W 6378  22.524  22.217  10.481
39596W        W 6379  27.585  26.060  14.399
39597W        W 6380   7.801   4.514   1.270
39598W        W 6381  18.018  44.870  11.908
39599W        W 6382  19.327   2.360   2.653
39600W        W 6383  25.496  25.998  13.921
39601W        W 6384   2.500   4.370   0.366
39602W        W 6385   8.858  27.900  12.433
39603W        W 6386   8.281  38.559  11.785
39604W        W 6387   6.854   6.645  12.918
39605W        W 6388  10.822  29.684  11.122
39606W        W 6389   0.453  33.008  10.639
39607W        W 6390  14.214  31.016  13.123
39608W        W 6391   9.293   4.362  12.091
39609W        W 6392  26.538  42.219   2.110
39610W        W 6393  12.857  17.540   0.233
39611W        W 6394  21.814  44.700  11.557
39612W        W 6395   5.338  39.961  13.653
39613W        W 6396   9.782  37.015  13.100
39614W        W 6397  14.509   1.795   2.096
39615W        W 6398  31.974  36.568   0.329
39616W        W 6399  44.606  13.559   1.664
39617W        W 6400  31.310  34.927  14.086
39618W        W 6401  34.173  37.998   4.459
39619W        W 6402  27.716  26.308   5.100
39620W        W 6403   0.474  25.316  11.833
39621W        W 6404  20.595  42.744  14.447
39622W        W 6405  27.111  26.170   0.704
39623W        W 6406   8.234  43.316   3.650
39624W        W 6407   3.335  28.284  14.360
39625W        W 6408   1.307   5.169  10.674
39626W        W 6409  39.983  12.685  12.932
39627W        W 6410  11.510  18.812  12.152
39628W        W 6411  41.667   5.656   1.681
39629W        W 6412  13.650  43.904   3.709
39630W        W 6413   0.977  13.587   0.009
39631W        W 6414  40.291   8.181  14.439
39632W        W 6415  18.214  42.549  11.303
39633W        W 6416  31.411  15.092  10.739
39634W        W 6417  26.649  30.711   3.382
39635W        W 6418  14.691  13.736  10.420
39636W        W 6419  25.408   4.645  14.179
39637W        W 6420  31.901  13.843  11.117
39638W        W 6421  14.792   1.995  13.012
39639W        W 6422  33.653   4.324  10.252
39640W        W 6423  39.574  31.782  13.628
39641W        W 6424  21.234   4.446   2.387
39642W        W 6425   5.338  24.518   0.450
39643W        W 6426  10.894  41.417  12.041
39644W        W 6427  26.489  18.075   2.599
39645W        W 6428   6.156   2.629   2.161
39646W        W 6429  19.748  29.089   3.113
39647W        W 6430  17.159   4.050  11.146
39648W        W 6431  25.904  13.473  12.507
39649W        W 6432  38.942  17.034   5.002
39650W        W 6433  29.467  35.087   0.963
39651W        W 6434  28.275  16.572  11.849
39652W        W 6435  20.779  34.028  12.135
39653W        W 6436  42.586  41.691  13.337
39654W        W 6437  44.877  16.666  13.733
39655W        W 6438  41.470  10.311  12.460
39656W        W 6439  19.133  44.462   4.226
39657W        W 6440   1.527  31.045   3.660
39658W        W 6441  15.740  26.141  10.746
39659W        W 6442  24.069  23.757  11.624
39660W        W 6443  30.607  22.746  12.533
39661W        W 6444  44.831  35.104  12.488
39662W        W 6445  16.858  10.121   4.122
39663W        W 6446  42.208  17.213   2.331
39664W        W 6447  28.705  24.772   4.554
39665W        W 6448  31.333  39.018  12.887
39666W        W 6449  25.020  27.071   4.935
39667W        W 6450  12.728  31.138  12.197
39668W        W 6451  30.250  29.286  12.648
39669W        W 6452  33.327  16.030  12.452
39670W        W 6453  40.382   3.918  11.099
39671W        W 6454  30.926  35.550  14.553
39672W        W 6455  40.075   9.329  14.860
39673W        W 6456  28.536  27.599  12.039
39674W        W 6457  23.516  32.021  12.543
39675W        W 6458  25.201  28.017   1.478
39676W        W 6459  32.938  29.179  12.961
39677W        W 6460  31.615  16.809  13.293
39678W        W 6461  36.962   9.298  14.888
39679W        W 6462  44.859  24.447   1.251
39680W        W 6463  13.958  16.515  13.393
39681W        W 6464  24.992  24.618   0.771
39682W        W 6465   9.150  24.835  10.756
39683W        W 6466   9.786  12.286  13.847
39684W        W 6467  22.262  33.606   4.732
39685W        W 6468  35.082  44.078  14.910
39686W        W 6469  18.027  23.214   1.767
39687W        W 6470  33.555  41.652  13.832
39688W        W 6471  13.134  42.866   2.172
39689W        W 6472  24.869   6.486  14.932
39690W        W 6473  41.295  36.871   0.862
39691W        W 6474   6.865  24.088   1.194
39692W        W 6475  11.662  20.091  12.524
39693W        W 6476  16.734  28.196   2.188
39694W        W 6477  34.388   6.328   0.044
39695W        W 6478  33.878  23.438   4.066
39696W        W 6479  15.709   9.440   4.137
39697W        W 6480  15.540   4.702  14.309
39698W        W 6481   3.647   2.588  12.068
39699W        W 6482  44.242  37.112   3.168
39700W        W 6483  43.072   0.222   2.578
39701W        W 6484  39.648  35.344   1.296
39702W        W 6485  30.683  39.982   0.079
39703W        W 6486  27.251   6.691   1.177
39704W        W 6487  40.884  35.762  12.050
39705W        W 6488   9.276  31.632  13.834
39706W        W 6489   1.908   3.505  12.611
39707W        W 6490  30.272  20.108  12.930
39708W        W 6491  25.477  40.948   0.830
39709W        W 6492  13.384  29.390   1.204
39710W        W 6493  29.910  10.225   2.785
39711W        W 6494  23.780  18.413   2.315
39712W        W 6495  30.015  36.522  13.830
39713W        W 6496  32.178  24.701  14.512
39714W        W 6497   0.527   6.851  13.157
39715W        W 6498  40.518  42.713  14.431
39716W        W 6499  12.339  38.278   2.789
39717W        W 6500  20.430  11.368   0.778
39718W        W 6501  26.917  25.239  11.998
39719W        W 6502  15.840   9.557   3.656
39720W        W 6503  37.367  24.619   4.547
39721W        W 6504  18.104   8.184   2.260
39722W        W 6505  12.756  22.053   4.154
39723W        W 6506  21.504  14.293   0.515
39724W        W 6507  27.560  39.626   1.801
39725W        W 6508   3.009  40.792  10.746
39726W        W 6509  36.589  19.289  11.565
39727W        W 6510  28.498  27.053   1.883
39728W        W 6511  24.742  16.000   0.360
39729W        W 6512  33.920  28.162   1.276
39730W        W 6513  27.124  38.118   0.502
39731W        W 6514   0.999  28.473   2.270
39732W        W 6515  44.272  43.013   3.780
39733W        W 6516   2.393  13.766  14.869
39734W        W 6517   1.845  43.070  13.311
39735W        W 6518  44.839  27.611   4.880
39736W        W 6519  27.901  43.085  14.441
39737W        W 6520   4.935   8.648   3.634
39738W        W 6521  42.381   5.684  10.377
39739W        W 6522  30.776  37.337  14.907
39740W        W 6523  24.509  17.451   0.060
39741W        W 6524  41.538  12.827  10.754
39742W        W 6525  13.360  31.423   2.616
39743W        W 6526  43.060  14.297  14.757
39744W        W 6527  19.634  16.344  11.339
39745W        W 6528  26.121   7.168   3.283
39746W        W 6529  16.317  20.620   0.038
39747W        W 6530  30.056  34.528  14.723
39748W        W 6531  25.196   3.563   4.631
39749W        W 6532  44.435  11.634   0.287
39750W        W 6533  39.467   6.178  14.788
39751W        W 6534  38.696   3.254   2.887
39752W        W 6535  39.860  28.764   0.730
39753W        W 6536  11.112  32.588  13.052
39754W        W 6537  33.899  18.903   2.234
39755W        W 6538  28.101  35.119  12.417
39756W        W 6539   1.432  11.753   2.144
39757W        W 6540  17.484  25.353   3.596
39758W        W 6541  31.144  35.537   1.793
39759W        W 6542  30.407  29.195   3.139
39760W        W 6543  20.904  36.098  13.268
39761W        W 6544  21.333   7.902   2.404
39762W        W 6545  14.364  36.121   4.581
39763W        W 6546  28.512  34.152  11.086
39764W        W 6547  17.138  26.616   1.771
39765W        W 6548  25.617  30.538   0.866
39766W        W 6549  25.984   1.171   3.186
39767W        W 6550  36.596  23.621  14.812
39768W        W 6551  43.525  13.223   9.910
39769W        W 6552   0.366  36.310   2.144
39770W        W 6553  25.171   9.292  12.357
39771W        W 6554  24.714   6.742   3.249
39772W        W 6555  25.969   6.928  12.581
39773W        W 6556  17.284  37.655  11.047
39774W        W 6557  13.374  10.918   2.880
39775W        W 6558   6.350   7.287   5.171
39776W        W 6559  43.882  26.414   2.355
39777W        W 6560   1.443  24.157  13.402
39778W        W 6561   0.247  34.808   4.291
39779W        W 6562   2.758  13.227   0.130
39780W        W 6563  17.342  19.523  12.049
39781W        W 6564  17.706  42.948  12.070
39782W        W 6565  43.249   2.029   1.399
39783W        W 6566   3.332   8.209   4.710
39784W        W 6567  30.228  42.969  14.320
39785W        W 6568   2.402  21.876   4.620
39786W        W 6569  41.225  22.194   3.556
39787W        W 6570   2.887  15.830   2.315
39788W        W 6571  39.588   2.782  11.040
39789W        W 6572   9.362  32.047  11.641
39790W        W 6573   5.079  37.396   3.581
39791W        W 6574   4.202   5.631   3.648
39792W        W 6575  27.989  39.098  14.494
39793W        W 6576  13.068  32.627  14.052
39794W        W 6577  20.786  15.695   4.155
39795W        W 6578  33.684  39.898  13.850
39796W        W 6579   0.558  33.595  13.983
39797W        W 6580   6.838  23.120  11.133
39798W        W 6581  20.467  15.185   0.379
39799W        W 6582  26.190   8.264  12.237
39800W        W 6583   9.777  16.230   0.024
39801W        W 6584  39.073  44.393   1.789
39802W        W 6585   5.186  24.815  12.466
39803W        W 6586   0.732  35.088  12.529
39804W        W 6587  28.681  15.256  11.965
39805W        W 6588  29.742   9.593  11.602
39806W        W 6589  26.690   9.602  14.221
39807W        W 6590  36.840  17.771   3.244
39808W        W 6591  10.773  42.718  12.085
39809W        W 6592  22.022  39.784   2.131
39810W        W 6593  33.515   3.270  13.042
39811W        W 6594  31.055  36.659   0.936
39812W        W 6595  18.160  26.630  13.342
39813W        W 6596  28.686  29.500   0.805
39814W        W 6597  39.068  28.347  10.998
39815W        W 6598  36.317  41.211  14.929
39816W        W 6599  18.277   2.717   0.893
39817W        W 6600   7.218  36.993   2.647
39818W        W 6601  32.459  11.274   3.417
39819W        W 6602  22.322   9.169  13.305
39820W        W 6603  17.587  26.619  12.014
39821W        W 6604   0.934  24.746  12.190
39822W        W 6605   1.275   1.194  12.003
39823W        W 6606   7.756  20.994  10.754
39824W        W 6607  12.282  32.334   4.716
39825W        W 6608  20.429  29.196  11.213
39826W        W 6609   9.139  17.166  10.530
39827W        W 6610   3.831   4.329   1.161
39828W        W 6611   0.115  15.737   5.026
39829W        W 6612  19.681   9.671  13.103
39830W        W 6613  21.567  29.649   0.668
39831W        W 6614   6.474  11.374  13.863
39832W        W 6615  31.474   7.024  11.412
39833W        W 6616  39.103  12.115   3.323
39834W        W 6617  43.422  12.203  13.106
39835W        W 6618   1.994  43.957   3.288
39836W        W 6619  10.385  42.101   9.910
39837W        W 6620  30.178  33.267  12.494
39838W        W 6621  33.855  18.916  10.729
39839W        W 6622   6.015  25.733   0.460
39840W        W 6623   3.189  34.338   1.068
39841W        W 6624  43.597  33.985  11.092
39842W        W 6625  36.830  43.723   0.346
39843W        W 6626  26.465  40.517  14.987
39844W        W 6627   4.898  34.886   1.548
39845W        W 6628  13.774  26.895  11.701
39846W        W 6629   7.480  18.303   2.724
39847W        W 6630   3.630  24.844  11.711
39848W        W 6631   2.869  22.681   4.204
39849W        W 6632   8.877  14.555  10.472
39850W        W 6633  25.886   6.103  14.359
39851W        W 6634  21.186  40.384  13.737
39852W        W 6635  35.917  31.354  14.180
39853W        W 6636  30.867   2.146  11.086
39854W        W 6637  38.330  29.357   1.793
39855W        W 6638   4.134   8.606   4.229
39856W        W 6639   8.312  25.014  13.558
39857W        W 6640  30.601  39.013  12.659
39858W        W 6641  36.119  31.534   2.664
39859W        W 6642   2.350   9.232  14.771
39860W        W 6643  25.394  29.461  14.383
39861W        W 6644   9.622  15.596   4.027
39862W        W 6645  37.868  44.210  14.327
39863W        W 6646  21.711   8.243   0.763
39864W        W 6647  25.958  12.201   4.721
39865W        W 6648  11.752   2.161  12.537
39866W        W 6649   2.766  20.093   4.164
39867W        W 6650   0.947  43.062   4.175
39868W        W 6651  44.866   5.148   4.071
39869W        W 6652  17.038  12.246   2.806
39870W        W 6653  12.658   4.740  10.656
39871W        W 6654  44.227  20.270  12.057
39872W        W 6655  35.833   0.484  10.682
39873W        W 6656  42.247  15.446  12.008
39874W        W 6657  41.460  41.496  12.005
39875W        W 6658   1.054   6.765   1.272
39876W        W 6659   7.729  22.296   3.926
39877W        W 6660   2.244  31.873  13.010
39878W        W 6661  25.127  41.524   2.640
39879W        W 6662  39.415   7.655  13.133
39880W        W 6663  32.568  10.712  11.991
39881W        W 6664  14.695   1.007   4.011
39882W        W 6665  15.319  42.304   3.354
39883W        W 6666  34.634  32.318   1.239
39884W        W 6667  36.161  17.108   4.113
39885W        W 6668  10.171  15.625   1.791
39886W        W 6669  24.453  29.577   1.318
39887W        W 6670  18.104  19.707   2.768
39888W        W 6671  23.915   3.246   1.400
39889W        W 6672  28.997  16.497   0.465
39890W        W 6673  44.652  25.536  14.438
39891W        W 6674   7.141   2.693  12.619
39892W        W 6675  23.467  16.240  10.764
39893W        W 6676   8.506  14.236   0.887
39894W        W 6677   0.718  10.424   2.327
39895W        W 6678  29.368  38.323  11.075
39896W        W 6679   6.523   8.622  14.819
39897W        W 6680  43.049  17.681   2.426
39898W        W 6681  11.441  42.923   9.944
39899W        W 6682   0.543  43.061  13.500
39900W        W 6683  29.108  31.447  14.874
39901W        W 6684  18.059  44.294  14.873
39902W        W 6685  23.767  36.320   2.843
39903W        W 6686  38.165   5.424   3.617
39904W        W 6687  14.234  40.014   0.226
39905W        W 6688  31.477  10.122   0.880
39906W        W 6689  33.043  29.651  12.803
39907W        W 6690  16.554  32.234  10.661
39908W        W 6691   1.385  22.054  12.041
39909W        W 6692  30.919  41.565  14.311
39910W        W 6693  25.297  16.475   4.573
39911W        W 6694  43.282   6.768  14.934
39912W        W 6695  28.190  26.735   3.129
39913W        W 6696  27.600  18.166  11.172
39914W        W 6697  14.687  15.908   1.278
39915W        W 6698  43.853  23.969   0.683
39916W        W 6699  14.022  18.315   3.260
39917W        W 6700  15.224  12.447   4.795
39918W        W 6701  22.769   4.310  12.033
39919W        W 6702   2.621  43.990  11.998
39920W        W 6703  28.257  25.029   1.275
39921W        W 6704  26.549   9.009   2.187
39922W        W 6705  42.982  12.026   1.329
39923W        W 6706   1.407  18.359   1.799
39924W        W 6707  17.852  22.585   2.354
39925W        W 6708  30.963   7.703  14.776
39926W        W 6709  41.384  28.146  12.047
39927W        W 6710  10.784  11.185  12.760
39928W        W 6711  12.795  39.640  10.521
39929W        W 6712  15.714   7.679  10.343
39930W        W 6713   9.652   6.925  10.735
39931W        W 6714  38.806  11.257   1.301
39932W        W 6715  28.435   0.631   4.141
39933W        W 6716   6.273   6.249  11.252
39934W        W 6717   9.683  38.589   1.827
39935W        W 6718  28.610   6.345  12.553
39936W        W 6719  34.347  38.805   0.944
39937W        W 6720   0.253  30.991  11.554
39938W        W 6721  44.005  17.142   4.131
39939W        W 6722  16.992   5.877   9.846
39940W        W 6723  21.633  38.217   3.296
39941W        W 6724  29.948   1.034  14.594
39942W        W 6725  14.830   8.914  14.712
39943W        W 6726   8.738  10.297   2.105
39944W        W 6727  37.072  28.122   2.204
39945W        W 6728  14.622  22.858  11.211
39946W        W 6729  35.031   4.624  13.260
39947W        W 6730  24.114  23.559   1.132
39948W        W 6731  27.454  34.117   1.324
39949W        W 6732  27.096  19.788   2.625
39950W        W 6733  40.822   8.403  12.001
39951W        W 6734   0.297  34.648   3.783
39952W        W 6735  43.556  10.581   4.596
39953W        W 6736  30.050  44.217  12.542
39954W        W 6737  36.396  38.439   3.243
39955W        W 6738  35.020   1.237   1.905
39956W        W 6739  16.986   0.303   2.648
39957W        W 6740  33.523  35.453  11.074
39958W        W 6741   8.197  40.093  14.066
39959W        W 6742  18.438  32.419  11.497
39960W        W 6743  33.594  24.663  14.358
39961W        W 6744  27.068  10.808   3.566
39962W        W 6745  34.344  23.061  11.442
39963W        W 6746  44.856  13.929  11.463
39964W        W 6747  44.890  25.496   2.267
39965W        W 6748  15.252  23.626  12.124
39966W        W 6749  10.280   1.009  13.619
39967W        W 6750  23.715  20.293  12.509
39968W        W 6751  34.938  28.879   3.826
39969W        W 6752  38.700  13.636  11.538
39970W        W 6753  16.615  19.912  10.942
39971W        W 6754  20.196  21.197   0.827
39972W        W 6755  23.315  23.870  13.410
39973W        W 6756  30.260  37.257  13.376
39974W        W 6757  14.915  40.048  13.404
39975W        W 6758   6.333  37.700  10.864
39976W        W 6759  17.594  39.280   2.661
39977W        W 6760  42.558  38.274  13.540
39978W        W 6761  11.789  15.376  12.112
39979W        W 6762  35.239   9.907   2.574
39980W        W 6763  33.442  19.018  12.714
39981W        W 6764   7.124  19.795  13.370
39982W        W 6765  33.257  44.333  12.830
39983W        W 6766  26.373  26.964  12.074
39984W        W 6767  18.538  38.933  12.551
39985W        W 6768   5.440  41.461  12.063
39986W        W 6769  44.273  15.024  13.710
39987W        W 6770  28.486  44.848   1.313
39988W        W 6771  27.169   5.315   2.452
39989W        W 6772   6.322  16.627  12.806
39990W        W 6773  35.028   3.511   3.817
39991W        W 6774  24.144  15.265   1.401
39992W        W 6775  27.457  20.909   4.205
39993W        W 6776  37.253   9.818  11.451
39994W        W 6777  38.622  20.427  11.639
39995W        W 6778  42.813   6.562  10.337
39996W        W 6779  37.103  10.918  13.865
39997W        W 6780  44.342  16.516   3.655
39998W        W 6781   6.737  30.431   0.764
39999W        W 6782  27.194  13.797   3.909
40000W        W 6783  28.719  34.302   1.540
40001W        W 6784  27.885  14.216   1.359
40002W        W 6785  11.442  31.988   0.372
40003W        W 6786   4.765  15.699   1.285
40004W        W 6787  28.572  13.945   2.315
40005W        W 6788   7.819  35.674  11.643
40006W        W 6789  37.525  18.506   1.381
40007W        W 6790   7.727  44.809  13.660
40008W        W 6791  27.697   2.219  10.945
40009W        W 6792  20.971  10.044   4.246
40010W        W 6793  14.617  29.516  11.643
40011W        W 6794  28.099  29.490  11.917
40012W        W 6795   4.808   2.666  13.376
40013W        W 6796  20.682  28.569  12.365
40014W        W 6797  14.701  29.731  14.917
40015W        W 6798  12.940  12.270   1.359
40016W        W 6799  15.116  15.873  10.068
40017W        W 6800  39.987  38.294   1.406
40018W        W 6801   6.672  12.204   4.240
40019W        W 6802  13.247  29.960   2.389
40020W        W 6803   2.198   8.781   5.023
40021W        W 6804  14.033  11.587  13.398
40022W        W 6805   5.934  37.284  11.726
40023W        W 6806  20.091   6.006  14.128
40024W        W 6807   6.253  18.980   0.950
40025W        W 6808  14.315  14.348   1.350
40026W        W 6809  12.126  41.947  12.892
40027W        W 6810  15.983  37.277   2.736
40028W        W 6811  40.333   4.628   4.561
40029W        W 6812  31.691  34.212  10.289
40030W        W 6813  14.737  42.566  12.316
40031W        W 6814  16.289  32.972   3.156
40032W        W 6815  15.397  42.497  13.602
40033W        W 6816  40.502  30.488   3.414
40034W        W 6817   6.672   5.275   2.298
40035W        W 6818  43.527   6.050   5.392
40036W        W 6819  27.265  18.943  11.790
40037W        W 6820  34.350  31.916   2.742
40038W        W 6821  19.664  40.917   1.530
40039W        W 6822  35.859  15.770  13.961
40040W        W 6823  38.153   6.108  11.687
40041W        W 6824  13.188  21.152   1.417
40042W        W 6825  27.994  28.141   0.321
40043W        W 6826   4.296  22.505   0.968
40044W        W 6827  28.232  42.113   3.971
40045W        W 6828  24.120  31.990   2.137
40046W        W 6829  38.092   3.125  14.308
40047W        W 6830  33.456   8.623  13.923
40048W        W 6831  33.950  31.914   0.152
40049W        W 6832  17.268   8.281   4.171
40050W        W 6833   6.839  33.100   1.071
40051W        W 6834  41.818  30.086   4.152
40052W        W 6835   2.037  25.512   3.383
40053W        W 6836  18.287  24.719   1.824
40054W        W 6837   2.530  31.623   4.263
40055W        W 6838   2.981  16.611  12.505
40056W        W 6839  37.817  28.485  10.625
40057W        W 6840  38.079  19.994  10.531
40058W        W 6841   3.021  27.026  14.793
40059W        W 6842  43.376  36.852  11.098
40060W        W 6843   4.318  10.330  11.566
40061W        W 6844  22.498  26.575   1.936
40062W        W 6845  38.107  37.468  11.990
40063W        W 6846  21.233   6.496   4.421
40064W        W 6847  41.493  42.094  10.822
40065W        W 6848  21.680   8.135  11.565
40066W        W 6849   5.738   4.431  10.747
40067W        W 6850  42.293  30.459   3.462
40068W        W 6851  15.393  43.425   2.101
40069W        W 6852  36.202  20.538   1.960
40070W        W 6853   7.456  43.797   3.684
40071W        W 6854   9.234  42.096  11.567
40072W        W 6855  40.106  16.669  11.448
40073W        W 6856  32.992   9.807   0.456
40074W        W 6857  42.392  43.653   1.219
40075W        W 6858  27.672   6.220   0.530
40076W        W 6859  28.077   9.254  14.663
40077W        W 6860  44.781  35.162   2.686
40078W        W 6861  33.321  23.179   4.572
40079W        W 6862  23.978  18.437   1.458
40080W        W 6863  44.349  12.400   1.442
40081W        W 6864  24.662  36.608   1.589
40082W        W 6865  27.998  11.527   1.691
40083W        W 6866  22.941  35.531   1.758
40084W        W 6867   3.788   7.549   0.305
40085W        W 6868  10.137  25.713  11.395
40086W        W 6869  35.814   9.632   4.689
40087W        W 6870  29.640   0.898  12.694
40088W        W 6871  25.452  43.708  11.091
40089W        W 6872   8.458  29.224  12.568
40090W        W 6873  29.764  31.666   4.614
40091W        W 6874   2.257  43.736   1.894
40092W        W 6875  33.470   6.294   1.826
40093W        W 6876  10.761  36.551   2.861
40094W        W 6877   9.517  39.503   2.282
40095W        W 6878  34.869   6.980   4.425
40096W        W 6879  17.569   2.326  14.055
40097W        W 6880  28.089  42.771   1.469
40098W        W 6881  36.308  19.886  10.705
40099W        W 6882  43.897  32.465   4.278
40100W        W 6883  14.702  15.238  11.670
40101W        W 6884   8.483  17.583   2.302
40102W        W 6885  19.462  18.091   3.341
40103W        W 6886  27.723  34.864   1.747
40104W        W 6887   7.451  13.041  11.170
40105W        W 6888   3.362  18.578   1.227
40106W        W 6889  38.263   3.203  12.091
40107W        W 6890   2.693   1.046   1.651
40108W        W 6891   6.306   3.604  14.681
40109W        W 6892   3.686  19.688  13.499
40110W        W 6893   3.768  42.452  13.308
40111W        W 6894  17.986  32.453   3.259
40112W        W 6895  28.165  10.488   4.510
40113W        W 6896  30.806  19.154  11.150
40114W        W 6897   1.338   3.156   5.049
40115W        W 6898  30.484  28.782   4.988
40116W        W 6899  29.452   7.755   4.614
40117W        W 6900  33.171  25.302  10.564
40118W        W 6901  40.347  22.214  14.411
40119W        W 6902  38.409  30.447   1.787
40120W        W 6903  32.861  43.455  14.819
40121W        W 6904  32.753  43.793  12.494
40122W        W 6905  40.412  18.729   4.650
40123W        W 6906  42.887   5.956  13.502
40124W        W 6907  43.458   8.662   2.071
40125W        W 6908   8.610  34.473   2.899
40126W        W 6909   1.704  26.045   4.498
40127W        W 6910  32.774   5.657   3.989
40128W        W 6911  28.975  42.802  13.565
40129W        W 6912  39.997  10.454   3.711
40130W        W 6913  41.039  31.977   3.514
40131W        W 6914   0.340  31.053  10.700
40132W        W 6915  31.165   6.131  12.401
40133W        W 6916  19.847  42.188   4.248
40134W        W 6917  18.983  10.950  13.082
40135W        W 6918   0.538   6.870   1.336
40136W        W 6919  38.917   3.497   9.952
40137W        W 6920   5.423  28.530   1.492
40138W        W 6921  38.915  23.256  10.349
40139W        W 6922   5.225  19.432   4.749
40140W        W 6923   7.498  18.116  12.438
40141W        W 6924  32.908   2.153   2.884
40142W        W 6925  27.561  41.680   5.412
40143W        W 6926  18.296  25.662  11.233
40144W        W 6927  17.914  37.439   4.090
40145W        W 6928  24.279  40.959   0.339
40146W        W 6929  39.585  14.408   1.197
40147W        W 6930  31.361  22.008  12.060
40148W        W 6931   5.825  39.850   1.506
40149W        W 6932  25.545  24.132  11.994
40150W        W 6933  39.707  14.897   1.311
40151W        W 6934  33.191  41.333  12.628
40152W        W 6935  32.070  22.590   4.155
40153W        W 6936  27.612  33.172  12.948
40154W        W 6937  31.506  26.505   0.518
40155W        W 6938  18.754  29.427  11.529
40156W        W 6939  37.963  34.383   3.716
40157W        W 6940   4.649  18.483   1.518
40158W        W 6941  24.814  31.045   3.284
40159W        W 6942  25.402  19.580   1.242
40160W        W 6943  16.759  41.464  10.757
40161W        W 6944  18.974  15.759   2.403
40162W        W 6945  31.226   7.716   1.037
40163W        W 6946  24.831   1.498  13.468
40164W        W 6947  21.644   3.496  11.937
40165W        W 6948  28.852  40.465  10.810
40166W        W 6949  28.466  29.368   0.362
40167W        W 6950   9.114  27.352  11.086
40168W        W 6951  17.835  22.565   3.327
40169W        W 6952  29.067  28.579  10.433
40170W        W 6953  21.815   2.511  13.415
40171W        W 6954  31.144  15.573  13.304
40172W        W 6955  23.440   1.504  11.009
40173W        W 6956  11.212  37.628   2.258
40174W        W 6957  28.171  22.288   2.669
40175W        W 6958  16.762   9.254   3.601
40176W        W 6959  20.412   3.255  12.435
40177W        W 6960  22.799  19.812   0.327
40178W        W 6961  31.665  40.175  13.455
40179W        W 6962  11.153  32.960  11.133
40180W        W 6963  37.983  14.414   2.722
40181W        W 6964   5.375  38.925  10.807
40182W        W 6965   9.426  18.692   0.810
40183W        W 6966  43.445  31.565   0.171
40184W        W 6967  11.093  27.159   2.280
40185W        W 6968  44.566  44.541  14.010
40186W        W 6969  11.900  37.961   1.271
40187W        W 6970  40.838  32.200  14.843
40188W        W 6971  36.052  10.228   2.345
40189W        W 6972  37.439   8.701   1.341
40190W        W 6973  38.480  23.868  10.738
40191W        W 6974   0.928  36.126  10.051
40192W        W 6975   4.281  35.959  12.202
40193W        W 6976  34.780   6.896   1.283
40194W        W 6977  33.105   2.976   4.763
40195W        W 6978  31.462   1.144  12.956
40196W        W 6979  39.881  31.950  10.865
40197W        W 6980  10.319  40.440  13.782
40198W        W 6981  44.470  20.028   2.391
40199W        W 6982  24.578  33.281   1.407
40200W        W 6983   5.897   5.673   1.927
40201W        W 6984  14.068  22.612   1.731
40202W        W 6985  18.087  28.216  11.372
40203W        W 6986  42.046  16.208   2.885
40204W        W 6987   7.625  12.616   0.908
40205W        W 6988  41.000  13.280   3.534
40206W        W 6989  30.558  14.704  14.723
40207W        W 6990   3.555   3.374   3.286
40208W        W 6991  24.071   2.740  14.338
40209W        W 6992  15.221  44.073  12.226
40210W        W 6993  38.115  18.691  13.144
40211W        W 6994   3.670  13.949   0.184
40212W        W 6995  39.777  13.290   3.040
40213W        W 6996   1.474   5.848  11.576
40214W        W 6997  32.692  42.644  13.733
40215W        W 6998   0.981  22.003  12.405
40216W        W 6999  18.815  12.765  14.706
40217W        W 7000   2.815  41.357   1.469
40218W        W 7001  32.073  15.560   2.698
40219W        W 7002  11.153  20.270   1.205
40220W        W 7003  34.078  17.371   3.889
40221W        W 7004  31.473   3.280  14.023
40222W        W 7005   0.802  13.247   4.710
40223W        W 7006  22.644  40.767  14.843
40224W        W 7007  34.913   3.566  13.070
40225W        W 7008  24.324  11.379   2.861
40226W        W 7009  20.918  29.816  12.376
40227W        W 7010   2.997  27.402   1.374
40228W        W 7011  38.786   8.948   0.806
40229W        W 7012  42.368  41.549   2.285
40230W        W 7013   7.861  24.646  11.921
40231W        W 7014  26.181  30.120   1.394
40232W        W 7015   4.998   3.414  12.027
40233W        W 7016  40.385  15.539   3.185
40234W        W 7017   4.778  33.320   3.487
40235W        W 7018  32.474  19.768  11.993
40236W        W 7019  13.185  36.846  14.554
40237W        W 7020  18.691  41.252  13.471
40238W        W 7021  20.292   0.080  11.087
40239W        W 7022  17.381  27.114   0.292
40240W        W 7023  24.722   6.228   3.296
40241W        W 7024   6.442  22.094   2.303
40242W        W 7025   1.974  28.390   4.469
40243W        W 7026  11.662  24.092   4.512
40244W        W 7027  27.937  21.521  12.005
40245W        W 7028  34.981  27.781   1.544
40246W        W 7029  16.734   1.390   3.790
40247W        W 7030  22.695  12.238  12.073
40248W        W 7031  35.443   1.241   3.098
40249W        W 7032   6.765  14.881   3.564
40250W        W 7033  38.644   4.336   2.008
40251W        W 7034   7.314  36.920  12.669
40252W        W 7035   6.232  18.342  13.419
40253W        W 7036  18.940  38.070   0.776
40254W        W 7037   9.128  30.932  11.633
40255W        W 7038  11.594  44.771  13.951
40256W        W 7039  28.434  33.872   1.503
40257W        W 7040  34.116  31.821  14.658
40258W        W 7041  18.480   1.551  10.245
40259W        W 7042   9.492   6.560   1.173
40260W        W 7043   2.410  29.343   1.707
40261W        W 7044  36.485  22.004   4.109
40262W        W 7045  13.821  30.640   4.702
40263W        W 7046  31.027   0.764   4.109
40264W        W 7047  20.667   0.037  12.301
40265W        W 7048  35.608  11.695   2.206
40266W        W 7049  17.591  10.185   1.479
40267W        W 7050  29.868  26.043  12.926
40268W        W 7051   4.485  32.863   2.203
40269W        W 7052  40.344   5.488   0.903
40270W        W 7053  38.761  17.711  12.014
40271W        W 7054  39.348  34.050  13.582
40272W        W 7055   0.467   2.703  12.039
40273W        W 7056   9.705  20.173  14.359
40274W        W 7057  17.327  31.921   2.816
40275W        W 7058  42.059   4.741   2.790
40276W        W 7059  40.800  33.366   4.245
40277W        W 7060  12.082  43.029   4.057
40278W        W 7061   6.212  16.176  13.033
40279W        W 7062  37.943  38.110  13.614
40280W        W 7063  29.611  37.618   0.308
40281W        W 7064   2.331  26.387   2.931
40282W        W 7065   5.726  25.581  13.116
40283W        W 7066  25.505  43.349   2.688
40284W        W 7067  11.216  20.150   4.662
40285W        W 7068  44.270  42.939  13.007
40286W        W 7069  11.635  13.429  13.451
40287W        W 7070  20.030  19.316  11.989
40288W        W 7071   6.804  36.916   1.235
40289W        W 7072  44.933  33.681  11.633
40290W        W 7073  12.714  43.841   1.243
40291W        W 7074   2.303  22.895   2.340
40292W        W 7075  23.674  23.659  12.612
40293W        W 7076   8.787  19.802  14.315
40294W        W 7077  17.394   8.899   2.315
40295W        W 7078   8.227  29.131  13.021
40296W        W 7079   7.930  29.273  11.348
40297W        W 7080   3.342  13.650   3.304
40298W        W 7081  34.533  35.145  12.292
40299W        W 7082   8.748  12.494  10.771
40300W        W 7083  31.059  29.826   1.097
40301W        W 7084  16.806  39.087  12.899
40302W        W 7085  36.941  41.593  10.731
40303W        W 7086   8.235  13.626   0.175
40304W        W 7087  22.723   4.068   1.934
40305W        W 7088  43.334   9.716   4.608
40306W        W 7089  22.093  30.440   0.904
40307W        W 7090  27.474   1.171   2.754
40308W        W 7091  27.572  15.705   3.636
40309W        W 7092  21.089   4.961  12.991
40310W        W 7093  26.988   6.102  11.644
40311W        W 7094  43.008  26.167   2.176
40312W        W 7095  23.067  29.914  14.882
40313W        W 7096   1.319  31.803   4.676
40314W        W 7097  17.683  38.600   2.132
40315W        W 7098   8.325  26.111  13.282
40316W        W 7099  31.476  43.324   1.044
40317W        W 7100  41.418  27.392  11.451
40318W        W 7101  19.537   6.787   4.719
40319W        W 7102   2.081  21.877   3.750
40320W        W 7103   2.212  29.979  13.891
40321W        W 7104  27.208  27.034   3.995
40322W        W 7105  36.068   1.450   2.321
40323W        W 7106  31.274   0.933  10.702
40324W        W 7107  43.640  22.194  13.620
40325W        W 7108   8.584   9.777  14.247
40326W        W 7109  35.807   3.004   2.014
40327W        W 7110  29.573  42.369   1.067
40328W        W 7111  43.313  35.496  14.521
40329W        W 7112  30.308  42.628   3.679
40330W        W 7113  44.771  16.629  11.982
40331W        W 7114  14.315  41.620  12.026
40332W        W 7115  27.039  15.663   2.405
40333W        W 7116  27.496  13.630   3.178
40334W        W 7117  42.994  44.533   4.222
40335W        W 7118  36.067  38.713   0.647
40336W        W 7119   4.293  18.783   2.478
40337W        W 7120  12.524  12.540  13.113
40338W        W 7121  43.948  18.293  10.726
40339W        W 7122   2.953   9.383  10.668
40340W        W 7123  42.582  32.447  11.334
40341W        W 7124   6.373  33.498  14.774
40342W        W 7125  30.950  35.026  11.043
40343W        W 7126  30.456  12.086  11.577
40344W        W 7127  39.294  18.114  13.028
40345W        W 7128  22.480  13.074   0.873
40346W        W 7129  28.624  44.881  14.179
40347W        W 7130  32.068  18.488   2.349
40348W        W 7131  22.106  22.459  12.791
40349W        W 7132  21.685  32.278  11.207
40350W        W 7133  24.114  12.972  13.724
40351W        W 7134  38.492  19.182   1.933
40352W        W 7135  34.521   0.150  13.063
40353W        W 7136   8.617  27.407   4.710
40354W        W 7137  40.034   1.738   0.173
40355W        W 7138  18.526   9.291   3.631
40356W        W 7139  37.287   1.936   2.409
40357W        W 7140  25.962  38.367  12.730
40358W        W 7141  38.420   7.893   3.007
40359W        W 7142  33.311   9.933   4.464
40360W        W 7143  30.513  12.447   3.708
40361W        W 7144  13.513  28.008   0.940
40362W        W 7145   5.992  16.196  12.529
40363W        W 7146  19.741   8.707   4.668
40364W        W 7147  30.288  36.384   3.765
40365W        W 7148  13.648  28.211   4.840
40366W        W 7149  39.922  13.925   2.356
40367W        W 7150  38.263  41.778   4.580
40368W        W 7151   5.538   2.871   3.260
40369W        W 7152   9.712  28.925   0.482
40370W        W 7153  34.825  16.381  14.962
40371W        W 7154  25.259  19.431  11.650
40372W        W 7155  19.312  44.833   1.900
40373W        W 7156  10.821  28.445  10.593
40374W        W 7157  31.642  35.803   0.434
40375W        W 7158  22.628  18.661  10.403
40376W        W 7159  37.763  13.778   2.316
40377W        W 7160  39.117  28.914   3.857
40378W        W 7161  12.922   1.411   1.150
40379W        W 7162  41.466  13.876  11.626
40380W        W 7163  41.954  11.606   0.869
40381W        W 7164  13.851   6.296   4.297
40382W        W 7165  21.937  35.071   0.027
40383W        W 7166  40.044  39.308   1.220
40384W        W 7167  35.051  22.959  13.769
40385W        W 7168  23.208   0.792  14.895
40386W        W 7169  13.547   3.495  13.849
40387W        W 7170  37.589  30.025   3.767
40388W        W 7171  25.376  43.640   4.207
40389W        W 7172  33.145  35.953   3.309
40390W        W 7173  32.199  44.848   2.788
40391W        W 7174  37.841   1.790  13.842
40392W        W 7175   9.406  44.472   2.138
40393W        W 7176  37.902  19.124   4.600
40394W        W 7177  39.713  17.665  10.675
40395W        W 7178  13.595   8.907  13.586
40396W        W 7179  16.689  38.263   3.759
40397W        W 7180  44.955  19.718   4.081
40398W        W 7181   8.259  18.036   3.159
40399W        W 7182  12.104  20.024  11.127
40400W        W 7183  41.821  26.680   0.302
40401W        W 7184   5.691  30.419  13.729
40402W        W 7185  26.651   8.925  12.685
40403W        W 7186  36.572  27.856  13.451
40404W        W 7187  10.804  30.177   0.495
40405W        W 7188  35.866   5.485   4.153
40406W        W 7189  32.624  10.141  11.542
40407W        W 7190  14.101  21.247   2.468
40408W        W 7191  15.622  41.882  13.937
40409W        W 7192  11.083  19.677  11.788
40410W        W 7193  12.906  40.787  13.472
40411W        W 7194  22.194  20.186  12.660
40412W        W 7195   9.672  38.853  12.426
40413W        W 7196  32.528  16.088   4.521
40414W        W 7197  11.352  34.380   0.384
40415W        W 7198  20.126  35.347  13.035
40416W        W 7199  33.793  37.997   4.120
40417W        W 7200  17.894  21.373   1.854
40418W        W 7201  35.009  26.083   4.593
40419W        W 7202  14.415  40.964  13.512
40420W        W 7203  20.032  25.750  13.974
40421W        W 7204  40.589  33.768  13.084
40422W        W 7205  39.212   4.310  13.514
40423W        W 7206  39.049  27.285   2.137
40424W        W 7207  28.484  31.781   2.868
40425W        W 7208  42.451   7.016  11.022
40426W        W 7209  10.778  28.779  12.037
40427W        W 7210   6.255  13.627  10.511
40428W        W 7211  19.666   2.144   3.817
40429W        W 7212  11.935  27.916  12.888
40430W        W 7213  20.506  12.024   2.534
40431W        W 7214  16.842  32.398  13.335
40432W        W 7215  13.265   6.447   2.923
40433W        W 7216  41.922  14.779  14.187
40434W        W 7217  24.629   5.761  11.816
40435W        W 7218  37.291  22.339   0.951
40436W        W 7219  26.016  14.115  11.069
40437W        W 7220  13.407  40.799  13.496
40438W        W 7221   8.190  17.534  12.997
40439W        W 7222   7.084  31.313  14.927
40440W        W 7223  43.931  22.309   2.759
40441W        W 7224  12.221  16.192   2.249
40442W        W 7225  23.972  35.953   2.494
40443W        W 7226  24.908  15.348   3.817
40444W        W 7227  36.943  18.789  13.340
40445W        W 7228  40.815  18.502  10.756
40446W        W 7229  36.950  39.988  10.804
40447W        W 7230  25.632   1.390   3.906
40448W        W 7231  42.426  39.067   2.322
40449W        W 7232  19.504   0.435   3.868
40450W        W 7233   2.171  18.457  12.493
40451W        W 7234  21.267  36.650   1.785
40452W        W 7235  42.295  16.782   3.504
40453W        W 7236  18.514   8.859  10.294
40454W        W 7237  13.346  19.669   1.907
40455W        W 7238  31.465  33.900   3.382
40456W        W 7239  27.981  42.021   3.041
40457W        W 7240  10.338  30.923  12.553
40458W        W 7241  10.934  27.708  13.864
40459W        W 7242  42.105  19.084  11.678
40460W        W 7243  21.221  33.290   2.086
40461W        W 7244  15.726  24.504  14.020
40462W        W 7245  20.998   5.029   1.514
40463W        W 7246  26.943  38.292   4.079
40464W        W 7247  18.292  18.521  10.659
40465W        W 7248  41.408  14.732  11.949
40466W        W 7249  37.931  12.149  13.825
40467W        W 7250  23.979  42.270  11.226
40468W        W 7251  34.930  25.332  13.871
40469W        W 7252   0.376  28.898  11.216
40470W        W 7253  38.959  34.351  12.591
40471W        W 7254  35.488  20.747  14.393
40472W        W 7255   9.597  22.129   4.664
40473W        W 7256  28.449  20.762  10.724
40474W        W 7257   3.974  30.151   0.945
40475W        W 7258  21.167  19.768   2.250
40476W        W 7259  38.849   0.730   3.885
40477W        W 7260  33.049  14.555   2.316
40478W        W 7261  42.099  17.714   1.195
40479W        W 7262  15.581   4.660  12.491
40480W        W 7263  18.331  17.825  12.787
40481W        W 7264  13.626  43.896  12.843
40482W        W 7265   7.789  33.406  10.768
40483W        W 7266  11.304   9.430   5.216
40484W        W 7267  35.472  27.601   2.600
40485W        W 7268  16.981   6.469   4.564
40486W        W 7269  13.706  14.746   1.918
40487W        W 7270  20.406  29.940   4.710
40488W        W 7271   2.333   8.159  10.771
40489W        W 7272  30.979  25.629   0.479
40490W        W 7273  11.384  29.634  12.411
40491W        W 7274  34.762  27.210  11.648
40492W        W 7275   5.375   2.966  11.854
40493W        W 7276  20.157  30.463  13.566
40494W        W 7277   1.795  10.618   0.508
40495W        W 7278   0.549   3.884  13.988
40496W        W 7279  30.190   2.904  14.448
40497W        W 7280  17.657  29.050  10.728
40498W        W 7281  37.042   1.307  11.328
40499W        W 7282  42.614  34.003  12.113
40500W        W 7283  40.249  22.150   4.130
40501W        W 7284  38.229  42.387  12.871
40502W        W 7285  14.506   3.419  13.154
40503W        W 7286  36.037   5.708   1.751
40504W        W 7287  30.134   6.357   3.623
40505W        W 7288   3.999  33.433   2.006
40506W        W 7289   7.936   3.156  11.044
40507W        W 7290  12.178  23.133  12.278
40508W        W 7291  16.805  43.523  11.527
40509W        W 7292   0.912  40.586  13.844
40510W        W 7293  13.117   4.902   3.185
40511W        W 7294  15.566  15.100   3.412
40512W        W 7295  14.778  43.086   3.810
40513W        W 7296  42.413  35.949   3.850
40514W        W 7297  38.995   7.951   3.754
40515W        W 7298  34.322  20.293   3.646
40516W        W 7299  17.824  26.485  12.965
40517W        W 7300  38.639  39.253  10.750
40518W        W 7301  41.960  36.020   2.194
40519W        W 7302  11.704   5.538  10.324
40520W        W 7303  14.370   8.585   5.101
40521W        W 7304  15.064  26.827  10.556
40522W        W 7305  25.896  29.372  14.284
40523W        W 7306   1.236   9.310   0.693
40524W        W 7307   2.420  16.254   2.406
40525W        W 7308  23.731  25.064  14.553
40526W        W 7309  42.384  34.429   4.756
40527W        W 7310  30.955   3.282   4.105
40528W        W 7311  24.204  11.253   1.959
40529W        W 7312  26.029  41.195  12.945
40530W        W 7313  10.773  10.123  13.837
40531W        W 7314   7.645   9.932   0.422
40532W        W 7315  11.681  25.739   0.925
40533W        W 7316   0.967  21.759  11.933
40534W        W 7317  30.202   4.982  13.958
40535W        W 7318   8.861  34.339  12.859
40536W        W 7319  12.163  43.484  13.489
40537W        W 7320  25.301  13.644  10.785
40538W        W 7321   6.741  37.019   2.874
40539W        W 7322  24.984  24.029   1.164
40540W        W 7323  37.265  29.465   2.734
40541W        W 7324  22.630  13.696  11.654
40542W        W 7325  32.169  10.464   2.454
40543W        W 7326  28.896  39.841   9.634
40544W        W 7327   4.395  12.313  13.864
40545W        W 7328   3.052   7.649   3.003
40546W        W 7329  41.607  17.286  12.606
40547W        W 7330  18.997  31.554  12.599
40548W        W 7331  40.036  14.628  14.801
40549W        W 7332  42.472   4.745   1.619
40550W        W 7333   1.423  36.563  13.128
40551W        W 7334  17.713  23.727  10.571
40552W        W 7335   1.703  38.531   4.573
40553W        W 7336  30.734  42.679   0.763
40554W        W 7337  21.137  38.836  14.474
40555W        W 7338  24.271  35.456  14.034
40556W        W 7339  26.547  28.747  14.495
40557W        W 7340  30.407  17.850  11.017
40558W        W 7341  19.338  26.170  11.963
40559W        W 7342  16.116  19.623  13.974
40560W        W 7343  40.510  25.881   1.271
40561W        W 7344  20.904  16.849   2.538
40562W        W 7345  19.057  39.418   0.886
40563W        W 7346  40.763  15.549   0.387
40564W        W 7347  41.111  19.647   3.858
40565W        W 7348  20.027  13.947  12.086
40566W        W 7349  37.942  38.946  14.776
40567W        W 7350   3.261   3.968  11.058
40568W        W 7351  30.116  37.526   2.333
40569W        W 7352   5.155  42.701   4.542
40570W        W 7353  18.216  42.494   1.741
40571W        W 7354  24.576  12.600   0.161
40572W        W 7355  21.940  34.835  13.010
40573W        W 7356  44.790   9.425  14.405
40574W        W 7357  42.753  34.499   4.367
40575W        W 7358  36.769  13.150   1.779
40576W        W 7359  35.480  42.363  13.245
40577W        W 7360  11.692  13.654   1.965
40578W        W 7361   4.933  28.249   4.456
40579W        W 7362  31.406   8.943  14.415
40580W        W 7363  13.424  42.791   5.075
40581W        W 7364   3.249  36.842   3.680
40582W        W 7365  10.250  43.428  14.918
40583W        W 7366  36.948  10.877   1.386
40584W        W 7367  44.332  43.319   1.642
40585W        W 7368  23.765   7.864  13.084
40586W        W 7369  32.586  44.176  10.529
40587W        W 7370  13.206   4.652  10.125
40588W        W 7371  26.648  10.406  11.487
40589W        W 7372  29.191  40.054  12.521
40590W        W 7373  38.420  29.340   2.705
40591W        W 7374  39.268  27.155  14.925
40592W        W 7375  34.981  14.174  12.812
40593W        W 7376  36.848   2.386   3.269
40594W        W 7377  11.700  25.991   0.063
40595W        W 7378  35.498   8.065  13.701
40596W        W 7379  24.425  37.382  13.888
40597W        W 7380  16.084  26.907   4.792
40598W        W 7381   6.440  43.552   3.796
40599W        W 7382  28.661  43.474   1.204
40600W        W 7383  22.252  37.866   2.203
40601W        W 7384  24.130   3.255   3.592
40602W        W 7385  38.069  43.728   4.057
40603W        W 7386  33.780  26.203   4.539
40604W        W 7387  21.592  41.494   3.339
40605W        W 7388  33.299  10.635  12.848
40606W        W 7389   4.731  18.118   3.705
40607W        W 7390   4.794   9.884  13.030
40608W        W 7391  18.169   5.797  14.508
40609W        W 7392  20.664  13.157   4.989
40610W        W 7393   4.715  26.766  10.546
40611W        W 7394  33.155  24.400   1.427
40612W        W 7395  34.112  27.683  14.405
40613W        W 7396  40.693   9.299  12.991
40614W        W 7397   3.971   8.473  14.457
40615W        W 7398  42.348  21.662   4.171
40616W        W 7399  23.691  44.467   3.930
40617W        W 7400   5.238  37.010  13.036
40618W        W 7401  44.520   9.407   4.893
40619W        W 7402   8.263   5.727   4.300
40620W        W 7403  29.217   8.578   1.683
40621W        W 7404  23.864  32.049  10.139
40622W        W 7405  14.815  20.786  10.916
40623W        W 7406  12.220  41.612  11.637
40624W        W 7407  39.884  13.391  12.335
40625W        W 7408  30.752  38.367   3.180
40626W        W 7409  20.732  27.469   0.897
40627W        W 7410  35.628  14.751   2.770
40628W        W 7411  44.193   6.778   0.983
40629W        W 7412   5.225  28.162  13.335
40630W        W 7413  10.978   3.844   2.176
40631W        W 7414  39.939  23.803   1.273
40632W        W 7415  34.548  28.010   4.559
40633W        W 7416  35.634   3.992  11.896
40634W        W 7417  26.813  19.022  12.993
40635W        W 7418  16.982  11.212   4.880
40636W        W 7419  34.962   5.803   0.543
40637W        W 7420  35.530   0.787   2.303
40638W        W 7421  12.312  30.561   2.596
40639W        W 7422  43.721  40.362  11.577
40640W        W 7423  21.706  43.346  11.105
40641W        W 7424   1.576  30.002  14.913
40642W        W 7425  23.463   2.659   3.910
40643W        W 7426  27.755  17.682   1.522
40644W        W 7427  29.596  35.001   5.215
40645W        W 7428  11.572  28.103  10.417
40646W        W 7429  15.590   4.245  10.706
40647W        W 7430  44.339   5.242  11.411
40648W        W 7431   7.463  44.494  14.552
40649W        W 7432  29.916  21.581  10.991
40650W        W 7433  23.673  26.133   2.611
40651W        W 7434  23.154  30.327  13.188
40652W        W 7435  21.983  38.983   2.665
40653W        W 7436  14.706  29.670   3.635
40654W        W 7437   8.752  35.531   4.766
40655W        W 7438  36.380  39.345  11.499
40656W        W 7439  19.169  28.639  14.747
40657W        W 7440  30.803  28.387  13.248
40658W        W 7441  18.864  28.916  12.347
40659W        W 7442  17.546  39.432  14.047
40660W        W 7443  35.230   2.435   2.407
40661W        W 7444  44.723  20.320  13.455
40662W        W 7445   9.710  36.988   0.483
40663W        W 7446  12.305  13.859  12.330
40664W        W 7447   5.951  39.313  12.035
40665W        W 7448  11.904   5.376   3.721
40666W        W 7449   1.490   9.802   9.846
40667W        W 7450  32.101  22.613  10.911
40668W        W 7451  14.253   6.729  11.860
40669W        W 7452  28.134  34.697  13.777
40670W        W 7453  12.861  36.950   2.976
40671W        W 7454  21.490  44.790  12.879
40672W        W 7455  29.755   5.136  14.962
40673W        W 7456  11.195  36.450   3.135
40674W        W 7457  40.831  20.631  13.383
40675W        W 7458   0.059  34.905  11.132
40676W        W 7459  44.232   5.109   2.249
40677W        W 7460  11.777   3.997   0.960
40678W        W 7461   6.783   6.126   1.332
40679W        W 7462  12.070  42.442   0.855
40680W        W 7463  33.081  13.377  10.673
40681W        W 7464   7.880  32.888   0.015
40682W        W 7465  23.509  23.791   2.412
40683W        W 7466  17.412  10.712  12.710
40684W        W 7467   6.284   8.657  12.352
40685W        W 7468  24.938  36.022  11.992
40686W        W 7469  27.419  42.721  11.585
40687W        W 7470  44.267  12.891   1.436
40688W        W 7471  44.800   6.913   1.815
40689W        W 7472  27.415  17.736   3.861
40690W        W 7473  21.200  34.008   3.710
40691W        W 7474  16.436   9.012   0.392
40692W        W 7475  16.497  28.457   1.820
40693W        W 7476  43.960  35.975  12.670
40694W        W 7477   6.446  20.978   2.665
40695W        W 7478  28.505  31.929  13.458
40696W        W 7479  15.840  43.897  13.508
40697W        W 7480  44.715  18.997   0.198
40698W        W 7481  18.592  40.729  13.445
40699W        W 7482  20.208  26.742  14.989
40700W        W 7483  36.878   0.243  10.683
40701W        W 7484  44.901   3.828  10.793
40702W        W 7485  40.817   0.790   4.051
40703W        W 7486  38.772  38.432   2.276
40704W        W 7487  23.699  40.080  12.990
40705W        W 7488  20.327  24.139  14.350
40706W        W 7489  25.241   9.901   1.364
40707W        W 7490  30.983   1.825  14.347
40708W        W 7491  39.774   8.068  12.000
40709W        W 7492  27.761  33.143  11.613
40710W        W 7493   6.504  25.057   2.237
40711W        W 7494  38.250   3.890   4.053
40712W        W 7495  41.115   6.218  14.582
40713W        W 7496   8.364  23.124   3.199
40714W        W 7497   3.337  22.431   3.136
40715W        W 7498  10.633   5.828   2.397
40716W        W 7499  20.233  29.482   0.959
40717W        W 7500  25.608  27.360   3.759
40718W        W 7501  37.360   6.364   1.214
40719W        W 7502  14.290  24.457   0.292
40720W        W 7503  20.535   1.477   1.265
40721W        W 7504  30.088   9.618   4.131
40722W        W 7505   0.110   3.788   3.149
40723W        W 7506  11.285  14.377  11.540
40724W        W 7507  12.290  41.447   3.926
40725W        W 7508  32.552   4.720  12.031
40726W        W 7509  20.912  38.517   3.267
40727W        W 7510  40.997  10.930  12.047
40728W        W 7511  26.881  20.673   3.367
40729W        W 7512  15.580  17.201  11.986
40730W        W 7513  28.622  29.579  13.067
40731W        W 7514  12.347  14.586   3.720
40732W        W 7515   4.541  29.900  14.834
40733W        W 7516  34.656  38.574  14.849
40734W        W 7517  36.682  27.068   2.181
40735W        W 7518  27.487  39.364  12.435
40736W        W 7519   7.493   9.600  14.168
40737W        W 7520  17.144   2.400   1.238
40738W        W 7521  20.656  13.234  12.348
40739W        W 7522   9.360  14.241  14.820
40740W        W 7523   4.694  10.382  14.804
40741W        W 7524  20.028  11.823  13.837
40742W        W 7525  10.637   6.791   0.723
40743W        W 7526  32.230  26.743   2.507
40744W        W 7527  40.482  30.244  11.628
40745W        W 7528  44.823  14.720  13.643
40746W        W 7529  21.306  27.081  11.489
40747W        W 7530  42.925   7.793   0.421
40748W        W 7531  19.602  16.802  11.611
40749W        W 7532  34.766  23.756  11.305
40750W        W 7533  18.988  11.118   3.889
40751W        W 7534  43.171   7.630   3.541
40752W        W 7535  27.021   1.825   0.863
40753W        W 7536  19.919  29.880   4.826
40754W        W 7537  43.554  39.504   3.800
40755W        W 7538  15.506  43.982   2.427
40756W        W 7539  25.679  33.391  11.203
40757W        W 7540  27.515  20.097   0.495
40758W        W 7541  15.809  38.932  12.163
40759W        W 7542   8.439  17.579   3.217
40760W        W 7543  20.065  24.750  13.037
40761W        W 7544  21.266  33.385  13.519
40762W        W 7545  23.691  35.122   1.983
40763W        W 7546  19.196   2.980   2.380
40764W        W 7547  13.890   4.504   0.348
40765W        W 7548  18.795  18.109  10.450
40766W        W 7549  22.148   0.055  14.284
40767W        W 7550   8.397  30.924  11.226
40768W        W 7551  42.003  26.135   3.882
40769W        W 7552   3.343  28.245   1.762
40770W        W 7553   7.202  23.502  14.400
40771W        W 7554  29.896  43.525  13.015
40772W        W 7555   8.761   6.595   3.007
40773W        W 7556   5.165   5.766   3.204
40774W        W 7557  39.788   1.199  11.958
40775W        W 7558  20.105  10.645  11.659
40776W        W 7559  43.436  31.661   1.147
40777W        W 7560  32.160  25.195   3.662
40778W        W 7561  25.287  18.116  11.555
40779W        W 7562  34.616   1.917   1.923
40780W        W 7563   9.785  11.975  13.402
40781W        W 7564  19.767  24.589   3.094
40782W        W 7565  15.707   9.201  13.761
40783W        W 7566   5.429  37.901  13.552
40784W        W 7567   5.234  23.447  13.119
40785W        W 7568  34.480  44.252  14.345
40786W        W 7569  10.055  32.109   0.395
40787W        W 7570  29.494  17.235   1.612
40788W        W 7571   2.538   1.489  11.180
40789W        W 7572   7.634  39.480  14.542
40790W        W 7573   4.724  26.784  11.589
40791W        W 7574  23.554  44.076   0.169
40792W        W 7575  36.342  40.059   0.923
40793W        W 7576  43.979   1.778  13.559
40794W        W 7577  14.571  10.928  12.903
40795W        W 7578  23.358  38.441  14.761
40796W        W 7579   2.150   9.941   2.935
40797W        W 7580  37.889   7.098  14.830
40798W        W 7581  13.990  25.440  11.551
40799W        W 7582   0.716  33.303  12.090
40800W        W 7583  15.076  31.561  13.879
40801W        W 7584  37.377  34.648  11.979
40802W        W 7585  11.903  26.995  14.968
40803W        W 7586   4.232  12.645  10.582
40804W        W 7587  21.505  31.999  10.698
40805W        W 7588  44.920  39.485   4.094
40806W        W 7589  12.208  13.327  12.320
40807W        W 7590  17.707  40.086   3.116
40808W        W 7591  23.151  44.808  13.973
40809W        W 7592   3.725  37.851  13.811
40810W        W 7593  39.527   3.655   3.784
40811W        W 7594  20.588  31.346  12.156
40812W        W 7595  17.442   1.245   2.794
40813W        W 7596   0.789  14.182  10.507
40814W        W 7597  13.378  34.089   3.784
40815W        W 7598  42.524   6.916   9.756
40816W        W 7599   0.769  30.892   3.277
40817W        W 7600   3.355  39.338   4.603
40818W        W 7601   8.278   5.812  13.038
40819W        W 7602   1.313  40.935  13.780
40820W        W 7603   5.110  27.721  14.137
40821W        W 7604  32.654   6.211  10.761
40822W        W 7605  22.456  38.436  10.410
40823W        W 7606  28.731   3.805   1.401
40824W        W 7607   2.819  15.819  13.410
40825W        W 7608  19.975  44.761   3.688
40826W        W 7609   8.697   9.687   1.401
40827W        W 7610  31.605   3.362   0.375
40828W        W 7611  36.763  39.336   1.178
40829W        W 7612  27.732  36.430  14.845
40830W        W 7613  30.827  31.861  12.489
40831W        W 7614  12.244  22.328  10.499
40832W        W 7615   8.172  42.534  10.540
40833W        W 7616  32.573   0.158  10.658
40834W        W 7617   1.978  39.359  14.560
40835W        W 7618  12.549  21.216   4.284
40836W        W 7619   9.212  34.940  11.349
40837W        W 7620  42.020   2.283  12.588
40838W        W 7621  14.508   4.312  14.976
40839W        W 7622  10.880  43.958   2.816
40840W        W 7623  20.988   7.145  13.871
40841W        W 7624  41.717  30.869   1.751
40842W        W 7625  30.919  14.073  14.108
40843W        W 7626  29.720   8.235  14.953
40844W        W 7627  25.569  35.051   4.546
40845W        W 7628   6.416  31.196  12.711
40846W        W 7629  25.443  31.458   0.878
40847W        W 7630  42.803  18.530  12.214
40848W        W 7631  28.682  35.282   1.382
40849W        W 7632  23.196  30.703   0.338
40850W        W 7633  41.877  32.237  12.371
40851W        W 7634   0.354  36.842   2.169
40852W        W 7635   8.818  15.629   0.326
40853W        W 7636  42.798  39.141  12.620
40854W        W 7637  15.536  29.131   1.693
40855W        W 7638  44.486  11.444  14.408
40856W        W 7639   5.765  36.879  12.023
40857W        W 7640  11.673  21.641   0.813
40858W        W 7641  31.656  43.030  14.799
40859W        W 7642  42.207  10.383   0.009
40860W        W 7643   0.755  11.323  13.102
40861W        W 7644   2.371  12.230  10.558
40862W        W 7645   5.120  28.994  10.830
40863W        W 7646  42.623  16.905   2.265
40864W        W 7647  43.195  15.462   1.883
40865W        W 7648  10.994  42.224   1.817
40866W        W 7649  31.076  32.180  14.281
40867W        W 7650  14.790  35.147  14.385
40868W        W 7651   1.873   6.567  14.157
40869W        W 7652  27.931   1.293   2.151
40870W        W 7653  33.072  30.003   4.242
40871W        W 7654  24.024  44.835  11.198
40872W        W 7655  13.108  38.603  13.258
40873W        W 7656  41.402  30.751   4.699
40874W        W 7657  39.402  27.385  11.136
40875W        W 7658  17.986  34.129   1.798
40876W        W 7659  28.885  42.919  14.487
40877W        W 7660  44.766  29.994   2.466
40878W        W 7661   9.212  12.612   0.412
40879W        W 7662  18.989  14.055  12.752
40880W        W 7663  42.937  20.132   0.246
40881W        W 7664  29.516  36.022  10.793
40882W        W 7665  15.173   8.214  11.536
40883W        W 7666  23.841   9.976  14.250
40884W        W 7667  14.764   3.848   1.696
40885W        W 7668  15.145  44.241   0.883
40886W        W 7669  32.468  19.161  13.983
40887W        W 7670  16.302  29.136   3.490
40888W        W 7671  31.479  14.727   2.673
40889W        W 7672  26.050  38.597   4.452
40890W        W 7673  40.068  24.259   1.907
40891W        W 7674  17.477  12.437  14.584
40892W        W 7675  14.273  14.902  11.174
40893W        W 7676  14.279  21.995   0.910
40894W        W 7677  21.271  32.836   2.392
40895W        W 7678  13.689   8.176  10.618
40896W        W 7679  28.161   7.001  12.043
40897W        W 7680  21.040  41.250   5.029
40898W        W 7681  42.636   5.689  11.061
40899W        W 7682  14.203   8.756  14.530
40900W        W 7683  15.873  21.314  13.882
40901W        W 7684  40.295   4.923   0.898
40902W        W 7685  15.075  10.227  11.590
40903W        W 7686   5.359  17.377  12.419
40904W        W 7687  30.162   0.202  14.089
40905W        W 7688  18.125  29.115  10.526
40906W        W 7689  24.962  17.493   4.587
40907W        W 7690   0.097  31.873   0.853
40908W        W 7691   7.442  21.969   2.196
40909W        W 7692  38.299  41.922   0.460
40910W        W 7693  38.446  42.040  13.167
40911W        W 7694   5.205   4.152   1.091
40912W        W 7695  41.517  41.482  10.774
40913W        W 7696  28.190   7.431   3.584
40914W        W 7697  16.330  30.286  11.103
40915W        W 7698  35.069   5.479  12.885
40916W        W 7699  16.522  29.311   1.673
40917W        W 7700  37.673  23.058  11.944
40918W        W 7701   5.302   0.015  14.221
40919W        W 7702  35.302   9.451   3.216
40920W        W 7703  11.896  34.564  12.895
40921W        W 7704  41.681  18.295  13.965
40922W        W 7705   2.705   9.657  14.498
40923W        W 7706  30.118  18.572   2.961
40924W        W 7707  18.663  27.505   3.624
40925W        W 7708  34.654  43.316   1.816
40926W        W 7709  25.134   8.691   0.691
40927W        W 7710  24.905  33.094  12.649
40928W        W 7711  31.043   0.452   0.524
40929W        W 7712  14.722  16.031   2.182
40930W        W 7713   5.646   0.589   1.022
40931W        W 7714  23.114   9.406  10.720
40932W        W 7715  21.751   9.617   1.819
40933W        W 7716   2.480   4.790  13.989
40934W        W 7717   5.703   2.790  12.934
40935W        W 7718  19.963  38.896   3.808
40936W        W 7719  19.963  28.646  11.674
40937W        W 7720  22.156   8.376  11.853
40938W        W 7721  16.555  24.051   0.854
40939W        W 7722  25.165   5.283  13.563
40940W        W 7723  10.216  37.179   2.382
40941W        W 7724  39.571  32.007  11.547
40942W        W 7725   6.795  28.422   1.644
40943W        W 7726  31.130  18.675  10.705
40944W        W 7727   4.445   2.204   1.510
40945W        W 7728   2.219   2.925   4.285
40946W        W 7729   8.740  44.805  12.129
40947W        W 7730   2.012  44.213   1.853
40948W        W 7731   7.718  29.162   3.856
40949W        W 7732  44.740  15.250  13.649
40950W        W 7733  36.408  27.377   2.941
40951W        W 7734  40.447  15.321   3.667
40952W        W 7735  23.955  41.279  10.403
40953W        W 7736  22.186  17.499   2.775
40954W        W 7737  36.569  10.737  14.877
40955W        W 7738   0.367  16.651  13.585
40956W        W 7739  13.324   7.192  14.822
40957W        W 7740  16.791   2.699   2.170
40958W        W 7741   5.910   8.375   2.862
40959W        W 7742  16.837  30.100  11.153
40960W        W 7743  27.022  11.171   4.476
40961W        W 7744  36.260  11.166  12.123
40962W        W 7745   9.838   2.427  14.998
40963W        W 7746  38.741  19.631   1.742
40964W        W 7747  36.460  27.698   1.462
40965W        W 7748  28.079  10.151  11.446
40966W        W 7749  20.701  29.131   0.972
40967W        W 7750  18.306  34.542  10.733
40968W        W 7751  20.577  32.431   1.694
40969W        W 7752   4.506  26.557   1.716
40970W        W 7753  15.100   0.218   1.058
40971W        W 7754  44.238   5.760  14.510
40972W        W 7755  20.242  12.296  13.096
40973W        W 7756   9.921  14.281   4.223
40974W        W 7757   7.344   8.301   2.286
40975W        W 7758  12.826  28.422  10.724
40976W        W 7759  32.101  14.384  13.468
40977W        W 7760  15.106   7.704   2.852
40978W        W 7761   2.284  24.573   4.754
40979W        W 7762  34.905  11.270  13.897
40980W        W 7763   4.654  14.752  13.874
40981W        W 7764  18.627  38.876  13.802
40982W        W 7765   8.416   3.366  14.064
40983W        W 7766   5.992  26.666   4.300
40984W        W 7767  30.227  34.514   3.100
40985W        W 7768  29.545  12.423   1.207
40986W        W 7769  33.473  10.278  10.445
40987W        W 7770  18.596   1.700   0.318
40988W        W 7771  22.994  25.650  14.491
40989W        W 7772  36.304  14.804  11.148
40990W        W 7773  32.814  36.425   2.310
40991W        W 7774  14.301   4.377   2.193
40992W        W 7775   4.988  11.697  10.339
40993W        W 7776  16.276   9.624   1.848
40994W        W 7777  21.778   8.810  13.883
40995W        W 7778  30.457  41.917  11.204
40996W        W 7779  36.253  32.140  13.848
40997W        W 7780  23.105  41.487  12.256
40998W        W 7781  20.285  10.588   0.969
40999W        W 7782   3.092  19.840   4.471
41000W        W 7783  19.259   9.509   3.134
41001W        W 7784  14.839  12.710   5.019
41002W        W 7785  28.020   9.015  10.308
41003W        W 7786  43.278  23.514   4.422
41004W        W 7787  42.323  38.276   4.808
41005W        W 7788  38.238   2.154  13.921
41006W        W 7789  24.056  25.140   0.608
41007W        W 7790  21.033  21.651   3.670
41008W        W 7791  32.656  30.131   0.468
41009W        W 7792  29.949  39.968   1.481
41010W        W 7793  26.221  26.310   1.729
41011W        W 7794  36.531  11.118   1.079
41012W        W 7795  34.767  29.009  11.184
41013W        W 7796  13.009   9.031  11.672
41014W        W 7797   7.563   4.646  14.411
41015W        W 7798  44.751   1.474   1.430
41016W        W 7799  16.021  31.015   0.489
41017W        W 7800  41.104  15.765   0.715
41018W        W 7801   3.239  21.746   0.266
41019W        W 7802   9.572  31.711  14.592
41020W        W 7803  44.348  13.536   0.335
41021W        W 7804  10.105  18.795  11.623
41022W        W 7805   5.442  16.852  12.424
41023W        W 7806   0.951  10.833  10.803
41024W        W 7807  39.303   8.941   1.906
41025W        W 7808  30.280  30.420   2.024
41026W        W 7809  38.213  27.451  12.266
41027W        W 7810  21.428   7.963   5.104
41028W        W 7811  13.900  24.424   4.392
41029W        W 7812   7.475  17.808  12.018
41030W        W 7813  34.575   2.778  12.933
41031W        W 7814  41.059  25.963  12.744
41032W        W 7815  36.108   3.252   4.758
41033W        W 7816   3.262  32.625  13.427
41034W        W 7817  39.938  41.759  12.635
41035W        W 7818  20.493  18.305  13.491
41036W        W 7819  33.903  42.540  10.693
41037W        W 7820  25.169  16.076  12.957
41038W        W 7821   2.032   6.966   4.265
41039W        W 7822  28.117  41.415  12.041
41040W        W 7823  21.265   4.876   4.410
41041W        W 7824  36.041  22.205  13.616
41042W        W 7825  27.767  34.507   5.016
41043W        W 7826  26.820   3.554  14.657
41044W        W 7827  12.263   5.383   3.174
41045W        W 7828  41.871  21.455  11.102
41046W        W 7829  11.310  27.524  10.761
41047W        W 7830  33.093   4.085  13.799
41048W        W 7831  11.786  28.963   3.255
41049W        W 7832  40.607   7.393  11.051
41050W        W 7833  20.113  18.920   3.321
41051W        W 7834  42.413  36.980   2.631
41052W        W 7835  38.544  32.966   1.852
41053W        W 7836   7.744  22.614  13.089
41054W        W 7837  42.832   6.333  13.097
41055W        W 7838  43.549   7.276   4.214
41056W        W 7839  23.089   1.920  11.035
41057W        W 7840  44.745  39.818  10.645
41058W        W 7841   0.495   9.253  11.564
41059W        W 7842  41.345  30.855  10.753
41060W        W 7843   8.201  26.690  14.678
41061W        W 7844  27.983  14.854  13.481
41062W        W 7845  32.452  23.472   2.717
41063W        W 7846  13.616  34.945   0.031
41064W        W 7847  11.156  33.605   1.709
41065W        W 7848  18.316  11.584  11.198
41066W        W 7849  44.975  18.584   2.372
41067W        W 7850  13.937   8.992   0.444
41068W        W 7851   8.890  10.031  12.055
41069W        W 7852  27.741  39.949  11.605
41070W        W 7853  39.743  36.716   1.337
41071W        W 7854   5.714  20.616  10.766
41072W        W 7855   2.132  39.356   1.761
41073W        W 7856   5.754   0.559  12.475
41074W        W 7857  42.837  26.014   2.920
41075W        W 7858  19.151  31.308   2.787
41076W        W 7859  20.980  17.131   4.872
41077W        W 7860  13.273  30.156   0.576
41078W        W 7861   0.698  36.791  13.589
41079W        W 7862  14.881  16.336  10.899
41080W        W 7863  11.355  31.562   4.889
41081W        W 7864  42.776  28.094  11.180
41082W        W 7865  40.906  30.628  13.966
41083W        W 7866   6.936  35.126  11.698
41084W        W 7867  31.063  16.054   0.035
41085W        W 7868  17.117  36.360   1.422
41086W        W 7869   4.709  10.351  14.273
41087W        W 7870  31.554   7.359   1.251
41088W        W 7871   7.605  15.898   1.804
41089W        W 7872  31.085  30.645  12.990
41090W        W 7873  22.700  20.411  13.433
41091W        W 7874  32.263   9.181  10.868
41092W        W 7875  20.590  33.211   0.891
41093W        W 7876  11.921  40.096   2.245
41094W        W 7877  36.648  42.427   3.678
41095W        W 7878   9.780   7.439   3.016
41096W        W 7879  37.923  24.660  11.632
41097W        W 7880  34.056  30.344   2.124
41098W        W 7881  10.573   2.874  11.059
41099W        W 7882  39.057  32.446   3.743
41100W        W 7883  44.981   6.765   0.442
41101W        W 7884  21.088  18.185  11.144
41102W        W 7885  39.162   5.321   4.166
41103W        W 7886  15.086  28.117  10.445
41104W        W 7887  36.431  44.075  11.511
41105W        W 7888  11.189   5.959   0.240
41106W        W 7889  20.257  13.572  13.535
41107W        W 7890  44.586  42.480   1.809
41108W        W 7891  31.519  43.928  12.052
41109W        W 7892  26.946  15.199   4.750
41110W        W 7893  43.616  15.179  10.311
41111W        W 7894   0.245  28.733  11.721
41112W        W 7895  33.883  37.137  10.900
41113W        W 7896  23.757  14.124   0.439
41114W        W 7897  40.853   8.621  12.567
41115W        W 7898  19.192  17.125   5.463
41116W        W 7899  44.683  21.813   1.257
41117W        W 7900  39.054  27.229  14.421
41118W        W 7901   0.841  22.214   0.440
41119W        W 7902  43.453   2.193   1.850
41120W        W 7903  31.993  12.804   1.219
41121W        W 7904   4.323  38.985  10.609
41122W        W 7905  23.469  27.456   0.861
41123W        W 7906   0.327  43.809   0.758
41124W        W 7907  12.881  24.296   3.034
41125W        W 7908   0.125  32.589  11.612
41126W        W 7909  15.658  37.990  11.666
41127W        W 7910  12.586  22.440  12.042
41128W        W 7911   9.984  14.745  11.257
41129W        W 7912  19.280  10.773  11.445
41130W        W 7913  42.486  24.019  13.486
41131W        W 7914  12.292  29.517   3.773
41132W        W 7915  22.069  38.882   3.566
41133W        W 7916  15.620   2.359   1.733
41134W        W 7917   5.779   9.175   2.635
41135W        W 7918  19.619  42.798  13.565
41136W        W 7919  44.036  10.151   5.015
41137W        W 7920   6.835  14.294   1.271
41138W        W 7921   9.203  26.465  10.778
41139W        W 7922   0.904  26.552  10.853
41140W        W 7923  36.903  14.660  10.779
41141W        W 7924  41.534  36.114   1.929
41142W        W 7925   1.285  23.204  14.688
41143W        W 7926  35.723  42.733  14.410
41144W        W 7927  27.504  32.516   0.813
41145W        W 7928  14.021   1.830  10.746
41146W        W 7929  18.174   1.732  13.986
41147W        W 7930  12.352  16.189  13.240
41148W        W 7931  29.641   5.804  12.575
41149W        W 7932  20.611   1.283   3.566
41150W        W 7933   6.885  36.507   1.555
41151W        W 7934  29.978  33.798   3.432
41152W        W 7935  41.528  28.647  13.124
41153W        W 7936  38.624  18.892  14.513
41154W        W 7937   7.962  38.962  12.096
41155W        W 7938   3.701  42.702   4.588
41156W        W 7939  14.284  15.005   0.264
41157W        W 7940   2.763   8.490  13.457
41158W        W 7941  13.707  15.268   2.617
41159W        W 7942  43.499  32.053   2.749
41160W        W 7943  20.229  24.587  11.164
41161W        W 7944  22.182  36.410   2.206
41162W        W 7945  41.960  31.455   0.604
41163W        W 7946  21.249  24.586  12.929
41164W        W 7947  10.808  23.972   0.027
41165W        W 7948  39.701   6.610   1.653
41166W        W 7949  18.002   1.700  14.868
41167W        W 7950   8.928  33.797   1.879
41168W        W 7951  41.312  33.307  12.918
41169W        W 7952  22.235   6.047  11.852
41170W        W 7953   5.459  36.878  10.675
41171W        W 7954  30.704  42.840  12.119
41172W        W 7955  43.427  20.992  11.478
41173W        W 7956  20.981  17.225   2.203
41174W        W 7957  13.740  16.313   0.487
41175W        W 7958  33.917   7.823   2.474
41176W        W 7959  38.996  19.188   4.913
41177W        W 7960   8.569   8.899   5.074
41178W        W 7961  35.963  19.768   3.551
41179W        W 7962  20.809  32.594  13.497
41180W        W 7963  36.445  20.476  14.730
41181W        W 7964   7.521  20.739  12.668
41182W        W 7965  27.365  13.885  11.742
41183W        W 7966  43.305  14.348  12.060
41184W        W 7967  19.625  14.645  14.312
41185W        W 7968  25.047  20.474  14.916
41186W        W 7969  43.030   7.165  11.046
41187W        W 7970   1.209  42.857   1.142
41188W        W 7971  40.448   2.790  13.904
41189W        W 7972  34.301  30.951  14.914
41190W        W 7973  40.608   4.152   2.656
41191W        W 7974  41.285  31.533   4.770
41192W        W 7975  22.567  22.122   2.821
41193W        W 7976  38.004   1.757   1.848
41194W        W 7977  29.942  30.405  14.698
41195W        W 7978   7.318  43.815   2.650
41196W        W 7979  40.698   2.307   2.699
41197W        W 7980  40.417   4.671   0.435
41198W        W 7981  10.251  28.824   2.759
41199W        W 7982  21.995  37.904   0.918
41200W        W 7983  41.893   6.156  14.043
41201W        W 7984  42.953  37.473  12.520
41202W        W 7985  19.657  26.788   2.428
41203W        W 7986  17.081  39.798   4.071
41204W        W 7987  38.322  39.098   3.585
41205W        W 7988  30.426   8.674   3.685
41206W        W 7989  24.225  12.900  13.158
41207W        W 7990  20.901  16.430  14.302
41208W        W 7991  10.840   7.310  14.464
41209W        W 7992  34.113  14.761  13.392
41210W        W 7993   7.615  31.134  11.573
41211W        W 7994  26.044  30.333   0.344
41212W        W 7995  29.871   7.359  12.007
41213W        W 7996  39.427   4.041  12.598
41214W        W 7997  37.066  18.218   0.269
41215W        W 7998  28.922  20.141   3.576
41216W        W 7999  43.912  21.093  13.871
41217W        W 8000   0.685  38.227  14.281
41218W        W 8001  20.155   7.819  12.763
41219W        W 8002   8.520  27.875  12.822
41220W        W 8003  11.872  31.959   0.924
41221W        W 8004  38.252   7.494   1.691
41222W        W 8005  41.981  10.545  14.486
41223W        W 8006  25.026   6.194  14.543
41224W        W 8007   1.794  10.168  14.381
41225W        W 8008   8.380   0.889   0.814
41226W        W 8009  20.534  17.321  14.327
41227W        W 8010  16.379  18.173  11.971
41228W        W 8011   9.440  36.401  14.554
41229W        W 8012  21.953  16.300  11.425
41230W        W 8013   1.840  24.659   3.968
41231W        W 8014  32.281   5.239  12.520
41232W        W 8015   1.797  19.797  10.673
41233W        W 8016   5.513  18.979   2.861
41234W        W 8017  26.083  23.765  11.557
41235W        W 8018  26.527  38.992   2.566
41236W        W 8019  34.137  12.480   4.007
41237W        W 8020  14.805   9.054   5.670
41238W        W 8021   2.275   1.963  14.831
41239W        W 8022  32.047  21.712  14.028
41240W        W 8023   0.456   9.399  14.946
41241W        W 8024   2.175  43.183  14.224
41242W        W 8025  27.330   1.895   2.315
41243W        W 8026  40.379   0.357   0.139
41244W        W 8027  40.442   3.977   3.477
41245W        W 8028  29.861  37.921   0.974
41246W        W 8029   3.282  35.093   4.858
41247W        W 8030  38.163  42.173  11.114
41248W        W 8031  32.963  41.793  12.710
41249W        W 8032  42.831   3.123  14.938
41250W        W 8033  43.703  29.777  11.990
41251W        W 8034   1.882   1.715   1.756
41252W        W 8035  32.625  30.102  13.931
41253W        W 8036  41.076  40.003  12.368
41254W        W 8037   7.012   2.901   2.374
41255W        W 8038  36.644   7.749   3.586
41256W        W 8039  24.023  19.128   2.898
41257W        W 8040  27.641  43.541  11.433
41258W        W 8041  34.615  31.713   9.936
41259W        W 8042   8.411  27.040  13.808
41260W        W 8043  19.646  28.701  14.569
41261W        W 8044  10.876  17.303   4.518
41262W        W 8045  36.692  27.493   1.875
41263W        W 8046  24.862  40.537   2.624
41264W        W 8047  41.314  23.983  12.927
41265W        W 8048  22.469  13.360   2.516
41266W        W 8049  11.474  36.418   0.235
41267W        W 8050  25.186  22.680   0.856
41268W        W 8051  13.134   5.471  12.971
41269W        W 8052   7.852  42.129   1.318
41270W        W 8053   4.987  43.273  13.642
41271W        W 8054  32.899  32.046  13.460
41272W        W 8055  18.076  29.416  14.011
41273W        W 8056   1.343  14.088   1.177
41274W        W 8057  39.016  44.516  14.556
41275W        W 8058  19.000  10.320   4.326
41276W        W 8059  31.477  37.314  10.716
41277W        W 8060  33.719  26.623   2.171
41278W        W 8061   0.854  13.125  10.798
41279W        W 8062  16.055  17.291  14.393
41280W        W 8063  22.824  34.772  11.050
41281W        W 8064  21.247  17.503   1.819
41282W        W 8065  19.555  41.846  14.505
41283W        W 8066  22.980   2.338   4.486
41284W        W 8067  25.522  22.069   1.742
41285W        W 8068  15.878  25.132   0.234
41286W        W 8069   8.299  38.982  13.411
41287W        W 8070  18.039  14.261  11.732
41288W        W 8071   8.975  19.862  11.596
41289W        W 8072  11.819  32.319   4.933
41290W        W 8073  26.507   8.325  11.430
41291W        W 8074   8.941  39.739  11.527
41292W        W 8075  30.442   1.900  14.414
41293W        W 8076  38.465   3.811   0.164
41294W        W 8077  38.265  16.366   0.069
41295W        W 8078  23.258  33.167  14.542
41296W        W 8079   2.225  15.924  12.056
41297W        W 8080  38.094  34.641   0.142
41298W        W 8081  14.942  27.125   4.104
41299W        W 8082  14.348   9.018  12.038
41300W        W 8083   5.419   9.241   1.890
41301W        W 8084   6.377   9.923   3.414
41302W        W 8085  14.098  14.278   5.026
41303W        W 8086   3.811   1.264   3.562
41304W        W 8087   3.842  26.776   0.421
41305W        W 8088  27.158  34.865   0.763
41306W        W 8089  42.060  27.898  14.836
41307W        W 8090  24.167  34.421  10.681
41308W        W 8091  26.631  16.075   1.788
41309W        W 8092   6.921  33.090  11.903
41310W        W 8093  42.645  33.637   3.647
41311W        W 8094   8.267  19.071   4.284
41312W        W 8095  43.198   1.041  13.490
41313W        W 8096  38.077  25.308   0.589
41314W        W 8097  29.480  37.018  12.488
41315W        W 8098  33.436  24.034  10.414
41316W        W 8099   8.808  13.299  11.445
41317W        W 8100  24.110  36.823  14.345
41318W        W 8101  29.256   1.482   1.071
41319W        W 8102  17.557   0.017   3.617
41320W        W 8103   0.271  35.045   1.714
41321W        W 8104   4.858   0.242   3.719
41322W        W 8105   3.191  11.428  14.901
41323W        W 8106  41.673   6.932  10.345
41324W        W 8107  20.419  34.654   5.098
41325W        W 8108  29.997  20.355   5.487
41326W        W 8109  40.741  10.849  12.485
41327W        W 8110  22.111  24.189  11.131
41328W        W 8111  44.699  24.594   0.746
41329W        W 8112  30.377  40.384   0.879
41330W        W 8113  27.846   9.387   2.428
41331W        W 8114  37.861  13.567   0.918
41332W        W 8115  18.296   4.712   3.833
41333W        W 8116   3.219  22.218  12.003
41334W        W 8117  29.502  24.255   0.774
41335W        W 8118  19.658  27.869   0.015
41336W        W 8119  19.695  31.546  12.427
41337W        W 8120   0.455  21.194   4.575
41338W        W 8121  41.777   0.470   1.205
41339W        W 8122  20.114  27.606   2.619
41340W        W 8123   4.521  17.106  14.860
41341W        W 8124  26.476   9.210  10.914
41342W        W 8125   5.297  32.757   2.227
41343W        W 8126  19.017  24.562   1.236
41344W        W 8127  16.168  19.665  14.979
41345W        W 8128  41.908  10.066  14.238
41346W        W 8129  41.508   5.422   3.130
41347W        W 8130  41.869  35.143   4.697
41348W        W 8131  30.508  27.367  10.775
41349W        W 8132  32.367  19.621  10.244
41350W        W 8133   5.387  28.038  14.451
41351W        W 8134  28.994  43.473   3.756
41352W        W 8135  11.042  38.987  10.809
41353W        W 8136  42.412  19.602   1.288
41354W        W 8137  35.905   5.330   1.050
41355W        W 8138   9.879  25.529   4.409
41356W        W 8139  25.146  11.161   3.177
41357W        W 8140  30.895  37.468   4.153
41358W        W 8141  11.705  32.389   1.757
41359W        W 8142  28.754   1.472   1.204
41360W        W 8143  22.054   6.450  12.817
41361W        W 8144  23.600  43.515   0.851
41362W        W 8145  16.145  35.573   0.009
41363W        W 8146  25.509  21.703   0.362
41364W        W 8147   7.829  35.902   2.372
41365W        W 8148  28.671  19.652   4.545
41366W        W 8149  38.691  31.561   2.599
41367W        W 8150  28.437  15.193  14.564
41368W        W 8151  43.393  17.086   3.689
41369W        W 8152  29.229  33.514   1.199
41370W        W 8153  26.210  25.176  11.315
41371W        W 8154  14.574  42.286  11.075
41372W        W 8155   2.225  38.830  12.611
41373W        W 8156  22.258  24.723  14.056
41374W        W 8157   1.421  25.856  14.726
41375W        W 8158  11.073  10.972  11.896
41376W        W 8159   9.024  18.323  13.451
41377W        W 8160  32.648  41.644   4.269
41378W        W 8161  21.001  40.586   0.883
41379W        W 8162  31.938  16.844  11.500
41380W        W 8163  38.200  27.502   2.791
41381W        W 8164  40.924   0.269  10.827
41382W        W 8165  26.248  10.229   4.224
41383W        W 8166  15.299  23.059  14.437
41384W        W 8167  23.151  26.657   2.647
41385W        W 8168  43.900  15.235   5.274
41386W        W 8169  24.600  42.943  11.085
41387W        W 8170  43.123   7.682  12.483
41388W        W 8171  34.145  17.071   3.171
41389W        W 8172  40.581  40.999   2.207
41390W        W 8173   4.904  31.877  12.491
41391W        W 8174  43.372  14.968   1.786
41392W        W 8175  21.296  35.483  14.381
41393W        W 8176  34.533  24.726  11.471
41394W        W 8177  34.701  27.909   0.747
41395W        W 8178  37.681  13.041   4.108
41396W        W 8179  38.177   7.544   9.700
41397W        W 8180  32.136  33.947   0.407
41398W        W 8181  11.255  19.280   0.975
41399W        W 8182  11.828   6.115   4.061
41400W        W 8183  37.839   8.075  12.959
41401W        W 8184  13.035   0.584   5.040
41402W        W 8185  20.191  13.400  12.519
41403W        W 8186   9.109  35.378   2.988
41404W        W 8187  21.469  28.580  14.800
41405W        W 8188  13.985  11.630  11.655
41406W        W 8189   4.869  44.599  14.975
41407W        W 8190   7.867   9.158  13.151
41408W        W 8191   2.953  20.286   3.733
41409W        W 8192  36.299  31.526  11.547
41410W        W 8193  40.965   5.894  10.655
41411W        W 8194  28.303  10.236  13.604
41412W        W 8195  42.707   9.099  13.502
41413W        W 8196  29.479  33.038  12.148
41414W        W 8197  12.313  32.945  11.940
41415W        W 8198   1.842  10.105   3.350
41416W        W 8199  20.560  16.557   2.287
41417W        W 8200  16.059  17.520   0.059
41418W        W 8201  11.904  17.108   4.735
41419W        W 8202  15.216  11.161   4.621
41420W        W 8203  14.112   3.446   1.720
41421W        W 8204   2.380  42.361   4.143
41422W        W 8205   8.731  26.174   4.037
41423W        W 8206  41.609  16.820  11.642
41424W        W 8207   3.518  44.891   4.593
41425W        W 8208  41.364  17.331   0.975
41426W        W 8209  14.210  39.732   1.622
41427W        W 8210  14.296   2.818   1.296
41428W        W 8211  10.419  28.618   4.825
41429W        W 8212  29.183   7.188  10.679
41430W        W 8213   8.503  32.635  11.399
41431W        W 8214  36.845  41.295  14.940
41432W        W 8215  35.405  42.914   1.334
41433W        W 8216  37.309   1.161   4.650
41434W        W 8217  28.073   6.248   3.777
41435W        W 8218  28.571  14.845  14.942
41436W        W 8219  25.745  35.763  14.027
41437W        W 8220  24.591  11.094  12.073
41438W        W 8221  37.002   5.963  11.406
41439W        W 8222  28.115  19.702  12.352
41440W        W 8223  36.028  28.929   3.222
41441W        W 8224  33.164  20.559   3.534
41442W        W 8225  28.996   8.380  11.674
41443W        W 8226  32.918   3.374   3.833
41444W        W 8227   0.301  39.792   3.153
41445W        W 8228  27.932  30.875   1.157
41446W        W 8229  29.259   8.135  14.751
41447W        W 8230  22.241  43.500  11.080
41448W        W 8231  42.409   7.832  13.408
41449W        W 8232  43.530   3.790   0.770
41450W        W 8233  22.210  40.647   0.251
41451W        W 8234  16.980  28.453  13.459
41452W        W 8235   5.302  18.020   3.761
41453W        W 8236  28.433  37.859   2.397
41454W        W 8237  30.178  18.878   1.227
41455W        W 8238  11.944  25.995  11.091
41456W        W 8239  21.770  20.468  10.631
41457W        W 8240  17.563   3.880   2.399
41458W        W 8241  31.539  37.332  14.405
41459W        W 8242  20.296  21.779   4.113
41460W        W 8243  18.278  13.396   5.677
41461W        W 8244  22.310  19.689  12.824
41462W        W 8245  16.926  19.717   4.945
41463W        W 8246  16.964   6.327   2.380
41464W        W 8247  44.434   1.793  10.047
41465W        W 8248  31.190  20.147  14.605
41466W        W 8249  22.548  20.610   3.405
41467W        W 8250  20.597  13.309   0.962
41468W        W 8251  36.958  43.267   4.403
41469W        W 8252  20.050  41.305   4.091
41470W        W 8253  30.228   1.998   0.341
41471W        W 8254  15.127  32.704  10.989
41472W        W 8255  15.617  27.094   1.398
41473W        W 8256  39.009  15.460   4.133
41474W        W 8257  36.611  31.404   3.883
41475W        W 8258  30.812   4.930   0.842
41476W        W 8259  43.822  10.469   2.378
41477W        W 8260  24.935  27.226  10.177
41478W        W 8261   7.936  29.479  13.255
41479W        W 8262  30.144  42.056  14.338
41480W        W 8263  34.664  10.899  11.157
41481W        W 8264  20.575  11.114  14.412
41482W        W 8265  23.684  41.593   2.656
41483W        W 8266  29.437   0.453   2.203
41484W        W 8267  13.682  31.768  11.380
41485W        W 8268  29.890  33.317   3.240
41486W        W 8269  33.525  29.329  11.248
41487W        W 8270  40.640   7.778  13.850
41488W        W 8271   2.961  27.735  13.320
41489W        W 8272  36.655  28.487   0.985
41490W        W 8273  38.053  24.141  10.679
41491W        W 8274  30.996   6.310   1.471
41492W        W 8275  29.076  23.308  13.534
41493W        W 8276  19.524  29.569  12.872
41494W        W 8277  29.216  20.529   0.536
41495W        W 8278  35.584  26.806  10.708
41496W        W 8279  25.042  29.862  14.922
41497W        W 8280  43.477  42.425  11.981
41498W        W 8281  13.665  31.492  14.583
41499W        W 8282  28.745  30.341  13.375
41500W        W 8283   9.698  20.734   4.393
41501W        W 8284   0.944  25.673  12.468
41502W        W 8285   5.726  36.237  12.668
41503W        W 8286  12.197  24.553   1.915
41504W        W 8287  18.646  33.364  14.776
41505W        W 8288  29.481  26.692  11.169
41506W        W 8289  27.879   4.009   1.331
41507W        W 8290  38.804   7.396   0.950
41508W        W 8291  38.902   6.836   2.894
41509W        W 8292  29.611   9.299   0.677
41510W        W 8293  32.616  40.805   0.393
41511W        W 8294   7.741  28.905   3.325
41512W        W 8295  15.382  11.484   1.133
41513W        W 8296   0.061   4.727  13.226
41514W        W 8297  21.490  21.308  13.073
41515W        W 8298  22.665   1.715  14.287
41516W        W 8299  42.339   6.538  11.221
41517W        W 8300  33.812  23.527  14.443
41518W        W 8301  17.630   3.508  11.520
41519W        W 8302  17.627  18.190  14.534
41520W        W 8303  17.586   1.655   4.770
41521W        W 8304  21.297  12.521  14.472
41522W        W 8305  11.470  37.400  12.011
41523W        W 8306  34.094  42.372   2.142
41524W        W 8307   9.447  31.596  11.356
41525W        W 8308  42.442  12.341  14.545
41526W        W 8309  37.835  42.014  10.737
41527W        W 8310  32.633  37.547   4.012
41528W        W 8311  38.869  28.228   2.461
41529W        W 8312   2.387   7.722  12.028
41530W        W 8313  25.443  12.813   4.330
41531W        W 8314  35.062  38.518   0.142
41532W        W 8315   6.376  16.061   2.802
41533W        W 8316  32.549  41.612  11.521
41534W        W 8317   5.374   4.932   1.738
41535W        W 8318   8.503  16.818  14.841
41536W        W 8319  11.335   8.410   3.644
41537W        W 8320  28.520  31.014   3.188
41538W        W 8321   5.154  17.116  11.567
41539W        W 8322  33.589   2.051   4.475
41540W        W 8323  23.305  21.337   4.939
41541W        W 8324  12.741  40.475   2.133
41542W        W 8325  41.585  43.349   3.688
41543W        W 8326   2.811  28.357   1.679
41544W        W 8327  16.966  34.850  13.334
41545W        W 8328  10.259  15.478  12.617
41546W        W 8329  38.430  38.948   0.044
41547W        W 8330   8.427  14.687  12.477
41548W        W 8331  11.279  30.469   3.725
41549W        W 8332  36.954   8.171   1.889
41550W        W 8333  39.995  29.134  13.840
41551W        W 8334  24.237   0.952   3.609
41552W        W 8335  26.654  18.498   4.159
41553W        W 8336  11.949  16.964   0.387
41554W        W 8337  41.879  23.478  12.266
41555W        W 8338  36.646  41.059  12.045
41556W        W 8339  32.434  12.982  13.170
41557W        W 8340  10.238  14.917   1.187
41558W        W 8341  38.917  39.024   4.724
41559W        W 8342   4.322  27.197   2.239
41560W        W 8343  27.765  29.351  10.560
41561W        W 8344  39.683  10.505   9.657
41562W        W 8345  17.639  33.877  12.210
41563W        W 8346   3.419  17.877   4.172
41564W        W 8347  20.604  30.813  12.203
41565W        W 8348  40.910  38.989   2.424
41566W        W 8349   5.748  29.179   0.686
41567W        W 8350  26.278   4.809   2.713
41568W        W 8351  40.331  28.049  12.009
41569W        W 8352  26.792  13.136  12.174
41570W        W 8353   6.733  11.916  12.074
41571W        W 8354  26.976  25.171   3.445
41572W        W 8355   0.480   6.906   0.412
41573W        W 8356  13.860  37.943  13.444
41574W        W 8357  33.416   8.065   2.379
41575W        W 8358   4.416  28.201   4.568
41576W        W 8359  19.133  29.069  11.380
41577W        W 8360  11.123   1.177   0.755
41578W        W 8361  41.971  28.935   3.365
41579W        W 8362  29.576  30.945  11.615
41580W        W 8363  35.502  32.369  14.521
41581W        W 8364   5.894  43.401  12.969
41582W        W 8365  32.928  14.820   1.850
41583W        W 8366  29.120  42.736   2.308
41584W        W 8367   8.580  37.576   4.164
41585W        W 8368  30.551  15.829  11.559
41586W        W 8369   2.300  36.292   2.110
41587W        W 8370  29.711  37.913   4.237
41588W        W 8371   9.527  11.267  10.188
41589W        W 8372   0.519  19.150  12.611
41590W        W 8373  29.635   5.215   0.899
41591W        W 8374   6.428  41.941   2.370
41592W        W 8375  25.096  15.425   4.298
41593W        W 8376  22.202  41.576  12.427
41594W        W 8377  25.028   3.315  12.073
41595W        W 8378  31.708  12.840   0.360
41596W        W 8379  44.452  14.276  11.570
41597W        W 8380  39.875  43.234   4.209
41598W        W 8381  30.894  35.803  12.455
41599W        W 8382  28.673   1.513   1.723
41600W        W 8383  41.602  14.910  13.773
41601W        W 8384   0.921  23.750  11.644
41602W        W 8385  40.365   6.926   4.214
41603W        W 8386  12.702  16.217   1.447
41604W        W 8387  42.990   0.825  11.979
41605W        W 8388  23.374   4.259  14.945
41606W        W 8389  33.073  23.970  12.552
41607W        W 8390  41.371  31.998  11.151
41608W        W 8391  31.201  34.408   2.744
41609W        W 8392  28.869  36.802  11.741
41610W        W 8393  31.640  17.400  11.122
41611W        W 8394  14.780  21.727  14.428
41612W        W 8395  20.750  25.188   0.552
41613W        W 8396   6.851  33.769   0.476
41614W        W 8397  17.119  10.677  11.662
41615W        W 8398   4.853  29.997   2.041
41616W        W 8399  23.167  10.865   0.421
41617W        W 8400   2.384  20.543  14.801
41618W        W 8401   1.403  12.035  10.917
41619W        W 8402  31.910  11.587  12.061
41620W        W 8403  44.083  25.835  13.277
41621W        W 8404  33.914  23.996  10.255
41622W        W 8405  21.082  21.988  14.328
41623W        W 8406   6.178  37.590   0.922
41624W        W 8407  19.036  20.083   0.761
41625W        W 8408  11.786  16.991  13.868
41626W        W 8409  39.974  19.984   3.547
41627W        W 8410   3.194  28.990   2.407
41628W        W 8411   6.155  15.362   2.275
41629W        W 8412   6.639  10.737  14.482
41630W        W 8413  12.357  26.821  11.878
41631W        W 8414  42.277  16.510   2.186
41632W        W 8415  20.667  33.165  10.509
41633W        W 8416  21.714  10.904  14.608
41634W        W 8417  12.809  19.202   3.669
41635W        W 8418  21.828  31.478  13.455
41636W        W 8419  18.282  20.707  14.419
41637W        W 8420  38.392  21.037   5.105
41638W        W 8421  14.689   8.667  12.447
41639W        W 8422  26.889  10.434  11.020
41640W        W 8423   4.483  16.721   4.920
41641W        W 8424  16.002   9.729  14.277
41642W        W 8425  39.071  35.835   2.781
41643W        W 8426   0.165  12.780   5.046
41644W        W 8427  36.478   8.886   4.614
41645W        W 8428   5.216  32.041   0.293
41646W        W 8429  29.402  27.906  13.174
41647W        W 8430  36.883  19.246   4.569
41648W        W 8431   9.118  41.779  12.347
41649W        W 8432  33.954  39.346   2.210
41650W        W 8433  31.918  14.619   0.788
41651W        W 8434  39.928  31.600   2.227
41652W        W 8435  41.337  27.504   4.941
41653W        W 8436  14.157  24.430   1.913
41654W        W 8437  36.518  21.296   5.019
41655W        W 8438  37.965  25.862   3.813
41656W        W 8439   9.828  22.814  12.111
41657W        W 8440   9.781  44.026   1.276
41658W        W 8441  19.923   2.220  11.991
41659W        W 8442  10.972  21.233   3.309
41660W        W 8443  19.272  32.453  11.190
41661W        W 8444   5.482  11.490  12.659
41662W        W 8445  32.473  22.267   4.053
41663W        W 8446  27.405  13.660   0.569
41664W        W 8447  29.851  16.596   3.223
41665W        W 8448  37.034  18.098   3.589
41666W        W 8449   4.596  17.988   1.123
41667W        W 8450  34.557   3.157  11.045
41668W        W 8451  32.580  38.132  13.089
41669W        W 8452  30.064  17.140   1.940
41670W        W 8453  10.886   5.747  12.007
41671W        W 8454  10.201  17.213   4.131
41672W        W 8455  39.465   0.254  12.916
41673W        W 8456   7.297  41.619   4.848
41674W        W 8457  40.218  24.863   1.174
41675W        W 8458  25.573  20.161  13.837
41676W        W 8459   5.454  28.570   3.331
41677W        W 8460  13.425  21.251   5.057
41678W        W 8461  20.552   7.001   0.431
41679W        W 8462  35.313  38.006  10.816
41680W        W 8463  41.465  23.458   2.563
41681W        W 8464  28.461  41.791   3.063
41682W        W 8465   7.565  22.613  13.572
41683W        W 8466  11.061  16.117   1.329
41684W        W 8467  23.467   4.957   1.170
41685W        W 8468   5.768   6.447   3.176
41686W        W 8469  14.857  38.960   2.346
41687W        W 8470  40.387  40.909  11.546
41688W        W 8471   1.528   8.445   1.943
41689W        W 8472  43.738  18.858  12.513
41690W        W 8473  29.120   7.037   1.778
41691W        W 8474  39.497  25.600  10.565
41692W        W 8475  25.326  16.754   3.243
41693W        W 8476  41.915  26.167  11.169
41694W        W 8477   8.435   3.547  12.380
41695W        W 8478  21.095  25.288   4.217
41696W        W 8479   6.270   3.923   0.105
41697W        W 8480  40.441  25.054   3.071
41698W        W 8481  20.611  33.060   3.703
41699W        W 8482  22.805  39.769   3.190
41700W        W 8483  15.424  12.847   2.773
41701W        W 8484  14.016  33.798  11.436
41702W        W 8485  33.165   4.555  13.550
41703W        W 8486  34.053   3.562  12.279
41704W        W 8487  16.317  40.979  14.865
41705W        W 8488  40.016  28.076   1.504
41706W        W 8489  22.492  20.451  14.728
41707W        W 8490   8.781  43.080  12.838
41708W        W 8491  12.088   5.807  10.635
41709W        W 8492  43.347  18.447  13.475
41710W        W 8493  30.061  35.415  14.751
41711W        W 8494  34.477  15.306   1.916
41712W        W 8495  14.499  22.476   2.667
41713W        W 8496   1.486   9.267  14.610
41714W        W 8497  44.588  43.770   1.552
41715W        W 8498   5.160  24.701   4.121
41716W        W 8499  43.010  13.881  13.106
41717W        W 8500  34.930  44.791  11.381
41718W        W 8501  24.561  27.470   2.421
41719W        W 8502  43.485  44.392   4.295
41720W        W 8503  19.295  19.645   0.844
41721W        W 8504  32.932  19.293   2.655
41722W        W 8505  42.024  22.645  14.230
41723W        W 8506  39.758  28.307   2.364
41724W        W 8507  18.734  34.391   2.797
41725W        W 8508  26.285  25.758   2.787
41726W        W 8509  39.354  14.076  13.541
41727W        W 8510   3.309  18.302  14.648
41728W        W 8511   3.861  39.907  10.311
41729W        W 8512   7.117  38.868   1.755
41730W        W 8513   0.241  21.988   4.045
41731W        W 8514  10.100  43.788   0.906
41732W        W 8515  13.469   6.196  13.867
41733W        W 8516  25.839  28.115  14.840
41734W        W 8517   8.731  42.711  10.997
41735W        W 8518   6.815  31.436   2.781
41736W        W 8519  43.581  10.872   1.544
41737W        W 8520  12.868   7.758   0.264
41738W        W 8521  10.680  18.076   2.776
41739W        W 8522  43.015   6.576   9.863
41740W        W 8523  18.959   0.407   3.737
41741W        W 8524  10.765  43.470   0.466
41742W        W 8525  35.291  28.462   3.145
41743W        W 8526  36.433  20.983  12.947
41744W        W 8527  18.425  38.026   0.859
41745W        W 8528  23.568  39.576  13.347
41746W        W 8529  10.242  24.846  14.267
41747W        W 8530   7.175  41.751   2.681
41748W        W 8531  17.259  21.590  14.066
41749W        W 8532  39.275  36.910  13.427
41750W        W 8533   9.376  16.729  10.656
41751W        W 8534  11.851   8.024   0.220
41752W        W 8535  23.694  27.449   2.402
41753W        W 8536  42.399  34.102   2.381
41754W        W 8537   1.879  28.929  11.613
41755W        W 8538  24.317  13.749   3.673
41756W        W 8539  38.852  42.906   3.259
41757W        W 8540  20.900  29.546   2.797
41758W        W 8541   4.405   6.775   4.634
41759W        W 8542  30.481   1.526   0.392
41760W        W 8543  29.697  44.965   2.158
41761W        W 8544  13.220  27.883  12.509
41762W        W 8545  34.264   6.752   1.336
41763W        W 8546   6.588  22.970  13.516
41764W        W 8547  22.242  16.616  12.566
41765W        W 8548  34.985  14.648   1.258
41766W        W 8549  21.765   6.479  12.115
41767W        W 8550   9.122  16.287  10.513
41768W        W 8551  31.265  19.101   3.816
41769W        W 8552  12.659   6.207  11.139
41770W        W 8553  44.597  14.304   3.547
41771W        W 8554  31.424  18.694  13.483
41772W        W 8555  25.381   1.687   4.239
41773W        W 8556  19.727  24.569  11.028
41774W        W 8557   5.727  41.410   2.670
41775W        W 8558  44.064  39.571   4.784
41776W        W 8559  39.541  43.372  14.486
41777W        W 8560  23.025  26.831  13.838
41778W        W 8561   9.897  28.542  12.935
41779W        W 8562  31.539   8.636   0.624
41780W        W 8563  25.226  20.251  14.422
41781W        W 8564  10.839   5.319   2.269
41782W        W 8565  19.843  26.734   1.348
41783W        W 8566   7.812   2.309  13.618
41784W        W 8567  43.997  19.491  13.814
41785W        W 8568  32.619  21.732   3.092
41786W        W 8569  39.501  32.665   1.492
41787W        W 8570   5.278  10.190  13.545
41788W        W 8571   5.857  35.985  14.872
41789W        W 8572  20.870  37.908   2.417
41790W        W 8573  11.832   5.235   5.058
41791W        W 8574  38.956  24.155   2.849
41792W        W 8575  36.553  33.699   5.082
41793W        W 8576  25.887  16.690  11.483
41794W        W 8577  24.519  44.738   4.763
41795W        W 8578  39.978   5.399  14.940
41796W        W 8579   0.783  36.365  11.691
41797W        W 8580   8.731   8.744   1.906
41798W        W 8581   0.028   1.348   1.880
41799W        W 8582  22.496   8.811   4.580
41800W        W 8583  18.518  39.014  13.325
41801W        W 8584   5.573  14.122   1.269
41802W        W 8585  21.544   6.837  10.784
41803W        W 8586  36.601   2.142   0.722
41804W        W 8587  25.948  37.354  13.853
41805W        W 8588  43.946  29.349  11.122
41806W        W 8589  14.310  12.832   1.237
41807W        W 8590   4.693  13.142  11.155
41808W        W 8591   3.813  10.139   1.392
41809W        W 8592  31.173   9.656  14.955
41810W        W 8593  42.500  28.016   2.721
41811W        W 8594  34.122  30.567  10.956
41812W        W 8595  43.101  35.645   2.882
41813W        W 8596   3.519  32.706  11.162
41814W        W 8597  10.500  16.691  13.410
41815W        W 8598   0.495  30.703  13.857
41816W        W 8599  33.209  18.108   5.136
41817W        W 8600   8.527  20.781  14.562
41818W        W 8601  27.932   6.701  13.832
41819W        W 8602  16.167  23.461  10.664
41820W        W 8603  20.545  41.726   0.658
41821W        W 8604   2.334  39.979  10.805
41822W        W 8605   3.471   5.033  12.897
41823W        W 8606  41.632   5.226   3.573
41824W        W 8607  11.879   5.303  12.495
41825W        W 8608  42.465  35.457   4.216
41826W        W 8609  40.383   3.788   3.947
41827W        W 8610  16.233  13.401   3.338
41828W        W 8611  27.721  23.089  13.136
41829W        W 8612  11.698  35.345   3.538
41830W        W 8613  33.375  27.979  11.005
41831W        W 8614  43.856  16.904  14.540
41832W        W 8615  12.981  14.496  12.169
41833W        W 8616   8.212  41.459   3.477
41834W        W 8617   7.393  14.874  11.575
41835W        W 8618   8.028   6.561  10.559
41836W        W 8619  24.275  11.097  14.103
41837W        W 8620  33.889  33.105  13.435
41838W        W 8621   1.593  26.700   0.904
41839W        W 8622  13.713   4.264  14.490
41840W        W 8623   2.581  40.269   1.790
41841W        W 8624  29.103  21.595   3.746
41842W        W 8625  21.899  44.044  14.814
41843W        W 8626   4.018  27.679  14.368
41844W        W 8627  22.017  18.596  11.106
41845W        W 8628  29.886  39.593  14.048
41846W        W 8629   4.713  41.606   1.957
41847W        W 8630  35.123  40.299   4.298
41848W        W 8631  33.889  22.225  13.535
41849W        W 8632  21.745  37.113  13.406
41850W        W 8633  39.059  24.698   4.675
41851W        W 8634  43.160  10.760   9.873
41852W        W 8635  37.596  12.196  11.209
41853W        W 8636  25.091   6.283   1.337
41854W        W 8637  11.658  10.854  13.550
41855W        W 8638  27.184  14.113   0.794
41856W        W 8639   1.783  14.730  12.951
41857W        W 8640  37.495  17.646  10.603
41858W        W 8641  30.663  25.411  10.917
41859W        W 8642  38.745  10.835  13.434
41860W        W 8643  30.723  18.367  11.572
41861W        W 8644  36.875  43.176  11.711
41862W        W 8645  18.015   9.315   4.427
41863W        W 8646  20.409  25.567  14.307
41864W        W 8647  19.289   9.289  10.625
41865W        W 8648   3.468   7.918  11.649
41866W        W 8649  20.146   7.048   4.218
41867W        W 8650  22.462   0.845   9.755
41868W        W 8651  21.569  21.820   4.478
41869W        W 8652   6.771  12.772  14.397
41870W        W 8653  32.495   8.780   3.669
41871W        W 8654  40.250  16.825  10.973
41872W        W 8655  33.020  20.708  11.280
41873W        W 8656  42.208  37.096  13.574
41874W        W 8657  15.579   6.938   1.148
41875W        W 8658  28.528  15.737  13.809
41876W        W 8659  19.624  31.854   3.851
41877W        W 8660   8.848  40.449   0.960
41878W        W 8661   9.308  16.279  14.333
41879W        W 8662  13.809  41.900   0.893
41880W        W 8663  44.293  42.426   2.784
41881W        W 8664  18.486   7.979   0.819
41882W        W 8665   4.341  22.358  13.919
41883W        W 8666  12.706  32.404  14.816
41884W        W 8667  11.008  39.845  12.326
41885W        W 8668  10.742  42.941   1.410
41886W        W 8669  32.800  26.975   3.157
41887W        W 8670  40.412  30.456   0.858
41888W        W 8671  37.807   2.060   4.952
41889W        W 8672   9.663  34.986   1.840
41890W        W 8673  28.101  38.890   0.825
41891W        W 8674  18.562  31.393   3.749
41892W        W 8675  30.896  22.155  12.972
41893W        W 8676  42.026   4.899  14.964
41894W        W 8677   2.666  25.833  14.404
41895W        W 8678  17.305  30.419   4.524
41896W        W 8679   2.195  12.357   3.309
41897W        W 8680   1.432   0.032  13.480
41898W        W 8681   3.938  13.151   1.488
41899W        W 8682  32.579  18.285   1.849
41900W        W 8683  40.450  33.645  10.766
41901W        W 8684  42.910  18.059  12.337
41902W        W 8685  32.988   9.282   4.423
41903W        W 8686  15.649  19.060   1.589
41904W        W 8687  37.438  29.378  13.408
41905W        W 8688  22.693  24.975  13.012
41906W        W 8689  42.308   5.888  12.050
41907W        W 8690  17.828   9.233  10.481
41908W        W 8691  21.044  36.944  13.865
41909W        W 8692  25.856  19.059   4.025
41910W        W 8693   4.706   2.540   4.696
41911W        W 8694  21.959  26.621  12.011
41912W        W 8695  43.914  11.206   4.092
41913W        W 8696  12.128  35.888   5.146
41914W        W 8697  42.894  28.370   3.415
41915W        W 8698   0.912  12.453  12.094
41916W        W 8699   5.315  13.985   4.268
41917W        W 8700  37.103  17.182   0.536
41918W        W 8701   5.136   7.658   0.319
41919W        W 8702  14.228  16.053  13.874
41920W        W 8703   1.294  37.601   0.266
41921W        W 8704  43.767  43.862  11.620
41922W        W 8705  14.314   7.380   5.461
41923W        W 8706  38.018  12.150   0.765
41924W        W 8707  33.436  25.789  12.574
41925W        W 8708  13.783  37.089  11.597
41926W        W 8709  36.221  40.368   0.529
41927W        W 8710  43.483   8.700   2.619
41928W        W 8711  26.787   7.193   5.017
41929W        W 8712  28.537  31.950   2.334
41930W        W 8713  41.932  42.273   2.961
41931W        W 8714  42.217  34.989   1.663
41932W        W 8715  11.265   9.830  10.349
41933W        W 8716  19.819  39.428   0.317
41934W        W 8717   9.444  39.823   2.724
41935W        W 8718   7.482  35.485  14.709
41936W        W 8719  25.094  23.674   0.794
41937W        W 8720   6.187   0.105  13.122
41938W        W 8721  10.244   2.470  13.854
41939W        W 8722  26.066  42.507  14.857
41940W        W 8723   5.366   2.216   3.635
41941W        W 8724  21.996  14.109  11.071
41942W        W 8725  13.152  22.480   0.733
41943W        W 8726  17.291  35.533   1.713
41944W        W 8727  10.689  14.513   3.186
41945W        W 8728  17.241  11.911  10.533
41946W        W 8729  10.496  40.537   2.336
41947W        W 8730  37.546  41.736   0.001
41948W        W 8731  27.932  40.991  13.456
41949W        W 8732  15.558  43.461   1.576
41950W        W 8733  42.838  23.213   2.720
41951W        W 8734   5.652  25.538  11.154
41952W        W 8735  23.811  10.447   1.999
41953W        W 8736  31.013  44.181   0.216
41954W        W 8737  44.771  38.084  11.949
41955W        W 8738  11.186  35.583   2.732
41956W        W 8739  25.239   8.349  13.893
41957W        W 8740   0.320  28.134  12.588
41958W        W 8741   3.399   1.544  11.500
41959W        W 8742  12.301   1.459   0.304
41960W        W 8743  12.422  29.567   2.856
41961W        W 8744  27.532  19.805   2.317
41962W        W 8745  24.706  19.813  13.850
41963W        W 8746  33.100   3.426   9.949
41964W        W 8747   9.380   5.672   2.697
41965W        W 8748  28.950  19.632   0.674
41966W        W 8749   8.191  28.972   4.023
41967W        W 8750  33.354  32.063  11.711
41968W        W 8751  19.563  19.631   1.296
41969W        W 8752  24.018  13.570   1.837
41970W        W 8753  31.944   4.725   3.342
41971W        W 8754  30.811   8.759   4.936
41972W        W 8755  31.046  34.068   0.380
41973W        W 8756  16.447   6.413   3.814
41974W        W 8757  32.678  10.352  14.787
41975W        W 8758  15.242  19.030   4.385
41976W        W 8759   4.781  19.749   3.611
41977W        W 8760   1.176   1.970  11.540
41978W        W 8761  34.082  24.470  11.574
41979W        W 8762  30.528   3.784  12.417
41980W        W 8763  13.707  20.300   3.700
41981W        W 8764  32.590  29.963   3.916
41982W        W 8765  33.420  18.091  11.220
41983W        W 8766  38.288  12.863  11.921
41984W        W 8767  36.907  38.825   1.252
41985W        W 8768  16.785   7.780   3.522
41986W        W 8769  10.587  24.517   4.254
41987W        W 8770  16.601  15.185  14.939
41988W        W 8771  41.363  30.860   3.841
41989W        W 8772  30.396  15.280   4.007
41990W        W 8773   2.850  12.188   4.621
41991W        W 8774  24.996  13.232   1.809
41992W        W 8775   0.850  37.584  13.951
41993W        W 8776  22.034   5.652   0.406
41994W        W 8777   2.381   5.083  13.515
41995W        W 8778  13.555  41.886   3.850
41996W        W 8779   7.657  35.806  13.469
41997W        W 8780  37.352  22.195   4.219
41998W        W 8781  18.477  13.630   0.018
41999W        W 8782  36.626  13.364  12.929
42000W        W 8783  24.259  31.531  13.081
42001W        W 8784  37.532  17.215  11.242
42002W        W 8785   9.485  37.623  11.132
42003W        W 8786  33.185   4.340   0.946
42004W        W 8787  29.125  41.399   1.021
42005W        W 8788  38.360   5.136   0.701
42006W        W 8789  26.640  34.539  10.665
42007W        W 8790  10.663  43.737   4.549
42008W        W 8791   2.418   7.308  14.305
42009W        W 8792  27.735  27.639   3.322
42010W        W 8793  35.325  33.854  11.131
42011W        W 8794  21.708  15.302   3.782
42012W        W 8795  29.656  30.922  14.354
42013W        W 8796  28.541  22.340  10.901
42014W        W 8797  33.395  18.579  12.440
42015W        W 8798   0.391   5.862   4.242
42016W        W 8799  11.564  25.243  11.561
42017W        W 8800  20.984  13.380   4.623
42018W        W 8801  32.210  21.136  11.921
42019W        W 8802  32.523  17.063  13.855
42020W        W 8803  22.697  22.075   1.423
42021W        W 8804  41.462   0.963  13.055
42022W        W 8805   7.856   4.692   2.982
42023W        W 8806   6.486  39.169   1.142
42024W        W 8807  27.039  28.072   1.746
42025W        W 8808  35.973   1.994   0.524
42026W        W 8809   3.329  34.810   0.941
42027W        W 8810  10.238  37.907  12.539
42028W        W 8811   1.869  41.429  11.905
42029W        W 8812  25.084  20.352   4.421
42030W        W 8813  37.433  38.065   3.978
42031W        W 8814  29.229  23.004   4.716
42032W        W 8815  20.232   2.469  13.954
42033W        W 8816  15.423  28.959  14.510
42034W        W 8817  36.589  11.265  10.597
42035W        W 8818  32.895  31.182  14.904
42036W        W 8819  24.668  36.530   2.105
42037W        W 8820  21.719  24.776  13.019
42038W        W 8821  33.489   4.099   3.721
42039W        W 8822  40.069   9.466   9.844
42040W        W 8823   6.626  14.707  11.244
42041W        W 8824  43.979  24.725   3.368
42042W        W 8825   3.475  15.104   4.623
42043W        W 8826   3.072   3.495  10.296
42044W        W 8827  20.778  44.778  14.565
42045W        W 8828   8.438  43.847  11.427
42046W        W 8829  32.268  29.148  11.970
42047W        W 8830  34.793   5.647  14.661
42048W        W 8831   4.378  19.306   2.533
42049W        W 8832  35.349  29.902  11.584
42050W        W 8833   2.520  14.961  11.159
42051W        W 8834  35.147  37.819   0.776
42052W        W 8835  11.210  19.618   1.960
42053W        W 8836  32.702  23.592  12.570
42054W        W 8837   1.348  21.156  14.969
42055W        W 8838  44.983  21.480  11.180
42056W        W 8839   6.875   1.667   2.758
42057W        W 8840  28.044  26.186  10.258
42058W        W 8841  16.153  19.304  11.707
42059W        W 8842   0.913  23.714   0.300
42060W        W 8843   8.284  40.931   1.625
42061W        W 8844  31.801  40.045  11.923
42062W        W 8845  42.746  17.675  12.046
42063W        W 8846  23.952  35.527  11.129
42064W        W 8847  21.014   0.112   1.516
42065W        W 8848  29.262  17.521   3.784
42066W        W 8849  33.364  26.683  14.560
42067W        W 8850  13.908   4.831  11.135
42068W        W 8851  14.257  17.530  13.574
42069W        W 8852   2.180  12.913  13.416
42070W        W 8853  35.449  24.001  12.163
42071W        W 8854  28.069  33.416  13.675
42072W        W 8855   8.591   5.353  10.715
42073W        W 8856  16.935  35.141   1.585
42074W        W 8857  16.756  18.595  10.640
42075W        W 8858  44.737  17.767  13.411
42076W        W 8859  42.455  37.415  10.725
42077W        W 8860  33.997   4.353   3.575
42078W        W 8861   4.745   0.478  11.039
42079W        W 8862  32.595  38.343  10.605
42080W        W 8863  22.938  23.386  13.119
42081W        W 8864  29.722  14.341   9.677
42082W        W 8865  15.878   1.291  12.084
42083W        W 8866  16.365  44.294   2.300
42084W        W 8867  26.185  33.362   3.688
42085W        W 8868   8.525  35.588   3.072
42086W        W 8869  24.408  33.218  14.979
42087W        W 8870  27.064   1.757  12.439
42088W        W 8871   7.314  29.474   3.662
42089W        W 8872  32.169  33.245   3.130
42090W        W 8873  30.891  42.443   2.191
42091W        W 8874   8.755  34.874   0.401
42092W        W 8875  41.342  23.453  13.033
42093W        W 8876  33.749  26.564  12.009
42094W        W 8877  24.571  30.588   3.259
42095W        W 8878   2.521  37.253   3.815
42096W        W 8879   9.360   9.290  14.801
42097W        W 8880  42.377   8.830  14.592
42098W        W 8881  22.729  15.532   2.760
42099W        W 8882  32.461  21.243   3.048
42100W        W 8883   8.758  31.906   1.657
42101W        W 8884  44.635  44.417   0.857
42102W        W 8885  23.013  10.627   0.878
42103W        W 8886  15.652  33.582  14.501
42104W        W 8887   7.627   1.453  12.746
42105W        W 8888  41.541   1.219   3.390
42106W        W 8889  38.631  34.746  12.563
42107W        W 8890  14.694  29.626   2.645
42108W        W 8891  21.643  39.883  14.275
42109W        W 8892  39.698  22.502  10.709
42110W        W 8893  12.333  14.811  12.777
42111W        W 8894  42.001  31.985  11.404
42112W        W 8895  30.629  35.393  12.033
42113W        W 8896   6.986   3.913  11.548
42114W        W 8897  16.672  23.490   1.923
42115W        W 8898  15.316  43.887   4.682
42116W        W 8899   8.208  18.129   0.900
42117W        W 8900  44.615   2.745  10.130
42118W        W 8901   9.844  41.854  10.754
42119W        W 8902   5.835  27.983   4.489
42120W        W 8903  41.969  37.432   4.632
42121W        W 8904  12.719   6.504   0.174
42122W        W 8905  25.530  12.868  14.506
42123W        W 8906  36.158  41.473   3.678
42124W        W 8907  24.454  13.852   2.605
42125W        W 8908  23.259  27.509   2.127
42126W        W 8909  19.246  25.191  10.379
42127W        W 8910  20.822  36.900   3.644
42128W        W 8911  21.665  44.741   1.029
42129W        W 8912  30.954   0.858   3.156
42130W        W 8913   9.433   4.727  13.964
42131W        W 8914  33.638  23.710   0.869
42132W        W 8915  37.601  18.220   2.109
42133W        W 8916  38.556  43.750   1.199
42134W        W 8917  24.082  10.830  13.319
42135W        W 8918   6.171  28.977  12.932
42136W        W 8919  41.236   5.357   4.482
42137W        W 8920   9.311  13.423  11.163
42138W        W 8921  43.991   2.411  13.851
42139W        W 8922   3.803  10.746   1.514
42140W        W 8923  42.699  30.446   3.048
42141W        W 8924  35.495   4.186  11.020
42142W        W 8925  22.871  39.926   1.893
42143W        W 8926   1.257  41.048  14.788
42144W        W 8927   2.920  27.047  14.272
42145W        W 8928  10.438  31.210  13.974
42146W        W 8929   1.391  25.694   0.780
42147W        W 8930  19.111  23.325   2.730
42148W        W 8931   3.369   0.237  13.491
42149W        W 8932  39.513  40.559  11.864
42150W        W 8933   0.794  23.591  10.744
42151W        W 8934  35.506  40.656  14.065
42152W        W 8935   1.706  40.004   2.375
42153W        W 8936  33.973  30.839  14.515
42154W        W 8937   2.757  30.730  10.612
42155W        W 8938  34.912  10.931   4.236
42156W        W 8939  30.742  27.427   4.606
42157W        W 8940  15.139  17.584   3.247
42158W        W 8941  12.148  33.354  13.996
42159W        W 8942  23.176  44.938   0.327
42160W        W 8943  28.345  43.257   2.679
42161W        W 8944  25.720  37.398   3.487
42162W        W 8945  37.015  30.942  10.537
42163W        W 8946  36.042  15.132   0.740
42164W        W 8947  28.259  31.499  10.734
42165W        W 8948   6.195   3.077   4.053
42166W        W 8949  14.052  27.191   1.278
42167W        W 8950  30.681   7.938   1.855
42168W        W 8951  16.233  44.216  11.652
42169W        W 8952  26.322  25.787   0.809
42170W        W 8953   7.098  12.852   4.168
42171W        W 8954  17.500  36.115  11.942
42172W        W 8955  20.269   5.668  13.392
42173W        W 8956  10.740   0.502   0.372
42174W        W 8957  36.588  32.067  10.734
42175W        W 8958  31.655   7.187  13.889
42176W        W 8959  38.876   7.465  14.827
42177W        W 8960  24.532   2.043   0.039
42178W        W 8961  17.142  13.608  13.851
42179W        W 8962  41.108  21.160   0.004
42180W        W 8963  18.748   7.651   4.949
42181W        W 8964  14.635   9.351   2.301
42182W        W 8965   1.164   4.139  14.820
42183W        W 8966  36.394  23.186  12.651
42184W        W 8967  14.294  44.297   0.418
42185W        W 8968  16.212  41.897  14.589
42186W        W 8969  10.869  29.442  11.576
42187W        W 8970  31.838   7.391   4.589
42188W        W 8971  39.123  30.368   1.253
42189W        W 8972  24.031  27.914  14.980
42190W        W 8973  42.800  12.724   1.779
42191W        W 8974  32.018  40.102  11.231
42192W        W 8975  38.404  40.312  13.539
42193W        W 8976  36.274  26.590   0.898
42194W        W 8977  15.362  13.345   1.215
42195W        W 8978  27.543  39.637   0.858
42196W        W 8979  30.312  28.000   1.540
42197W        W 8980  40.994  24.910   0.777
42198W        W 8981  37.821  44.482  14.787
42199W        W 8982  39.138  37.281  14.423
42200W        W 8983  32.615  31.220   0.330
42201W        W 8984  11.686  10.349  13.334
42202W        W 8985  40.769  32.324   0.806
42203W        W 8986   9.898  28.593   3.265
42204W        W 8987  18.890   6.155  12.775
42205W        W 8988  25.627  43.311  13.440
42206W        W 8989  29.879   8.890  14.322
42207W        W 8990   7.556   8.742   2.042
42208W        W 8991  30.971   8.833  10.778
42209W        W 8992  11.987  44.491   4.231
42210W        W 8993  27.173  44.977  14.872
42211W        W 8994  15.610  39.700   0.364
42212W        W 8995  25.480   2.753   1.764
42213W        W 8996  23.390  22.296   4.989
42214W        W 8997   3.851  44.743  13.903
42215W        W 8998  14.075   0.322  10.666
42216W        W 8999  44.453  21.773   4.676
42217W        W 9000   2.918   7.671   0.338
42218W        W 9001  36.726  20.524   4.114
42219W        W 9002  17.273  37.127  11.043
42220W        W 9003  18.062  25.176  12.346
42221W        W 9004  27.615  42.878  12.113
42222W        W 9005   2.164   5.218   2.256
42223W        W 9006  23.559  42.023  14.899
42224W        W 9007  17.675  11.666  10.286
42225W        W 9008  33.334   0.271   1.332
42226W        W 9009  13.609  11.914  13.403
42227W        W 9010   3.377  26.125   4.998
42228W        W 9011  29.335  26.060  12.947
42229W        W 9012   0.140  14.340  12.008
42230W        W 9013  42.314  14.625   2.196
42231W        W 9014  37.665  32.352   3.118
42232W        W 9015   8.830  33.577   0.565
42233W        W 9016  27.885   7.205   3.233
42234W        W 9017   7.321  36.139   2.379
42235W        W 9018  25.084  33.602  14.368
42236W        W 9019  19.956  17.099  12.450
42237W        W 9020  28.560  14.802   3.911
42238W        W 9021  25.157  15.439  13.588
42239W        W 9022  36.044   8.709   1.467
42240W        W 9023  26.994   5.755   2.663
42241W        W 9024  29.872  28.443  12.780
42242W        W 9025  11.899  27.458  13.946
42243W        W 9026  39.521  36.064   2.901
42244W        W 9027  44.591  22.037  10.678
42245W        W 9028   0.263   5.093  14.346
42246W        W 9029  19.152   3.948  11.639
42247W        W 9030  39.784  22.078  11.941
42248W        W 9031  32.273  44.192   0.286
42249W        W 9032  21.616  38.051  11.515
42250W        W 9033  27.932   5.268  12.978
42251W        W 9034  16.303   3.479   1.736
42252W        W 9035   6.452  13.514   2.576
42253W        W 9036  44.710  26.748   0.822
42254W        W 9037  38.570  33.461   4.062
42255W        W 9038   7.285  31.506  11.504
42256W        W 9039  44.658  29.971  12.918
42257W        W 9040  13.558   7.187   0.798
42258W        W 9041  36.981  41.826   1.637
42259W        W 9042  22.016  18.763   2.793
42260W        W 9043  10.253  38.817  12.375
42261W        W 9044   0.966  20.680   0.420
42262W        W 9045  20.360  31.817  13.447
42263W        W 9046  17.466  28.562   1.236
42264W        W 9047  13.061   2.667  14.027
42265W        W 9048  40.380  35.389  12.547
42266W        W 9049  19.355  13.619   0.752
42267W        W 9050  39.383   3.921  14.058
42268W        W 9051   2.056  20.740  11.652
42269W        W 9052  19.511   7.255   1.192
42270W        W 9053  43.488  43.829  12.063
42271W        W 9054  29.926  43.691   2.149
42272W        W 9055   5.346  35.227  10.679
42273W        W 9056   6.639  39.571   1.463
42274W        W 9057  18.164   3.998   1.457
42275W        W 9058  26.345  36.989  13.746
42276W        W 9059  18.286  19.836  14.580
42277W        W 9060  40.013  18.073  10.703
42278W        W 9061  11.774  31.508  14.533
42279W        W 9062  13.178  37.921  11.584
42280W        W 9063  12.465  16.522  12.487
42281W        W 9064   9.849  16.652   2.546
42282W        W 9065   6.980   9.686  12.687
42283W        W 9066   6.353  38.745  10.673
42284W        W 9067  22.058  19.374  13.179
42285W        W 9068   1.922  14.039  14.478
42286W        W 9069  21.325   5.488  14.202
42287W        W 9070  10.245  36.755   4.482
42288W        W 9071   6.187   8.865   4.966
42289W        W 9072  27.084  26.624   0.411
42290W        W 9073  11.064   5.116  11.026
42291W        W 9074  40.554  43.575  12.040
42292W        W 9075  30.330  42.513  13.883
42293W        W 9076  36.928   3.798   4.631
42294W        W 9077  35.378  17.838  11.974
42295W        W 9078  15.847  16.114  11.047
42296W        W 9079  21.664   0.193   2.369
42297W        W 9080   6.109   2.722  10.379
42298W        W 9081  32.943   1.678   4.334
42299W        W 9082  30.060  32.507   0.781
42300W        W 9083  17.502  17.218  11.834
42301W        W 9084   1.515   8.348   0.447
42302W        W 9085  15.400  31.922  13.096
42303W        W 9086  22.589  35.325   4.360
42304W        W 9087  30.594  11.727   1.049
42305W        W 9088  36.206  14.033   2.873
42306W        W 9089  27.412  24.979   1.827
42307W        W 9090  36.472  12.009   2.864
42308W        W 9091   7.149  19.048  10.577
42309W        W 9092  24.606  24.000  11.122
42310W        W 9093  28.993  34.177   2.296
42311W        W 9094  13.640  11.576   1.152
42312W        W 9095  15.484  17.781   3.583
42313W        W 9096   1.462   5.743   3.654
42314W        W 9097  25.299  39.542  12.589
42315W        W 9098  38.078  17.688   2.761
42316W        W 9099  44.333  10.674  11.504
42317W        W 9100  35.788  13.530   4.189
42318W        W 9101   9.373  36.360   2.754
42319W        W 9102  29.619  15.776   3.027
42320W        W 9103  10.871  13.560   2.327
42321W        W 9104  43.240  25.101   4.675
42322W        W 9105  32.991  44.005  12.064
42323W        W 9106  30.714  15.981  13.891
42324W        W 9107  25.729   3.289   5.011
42325W        W 9108  42.596  26.945  12.344
42326W        W 9109  30.687   0.387   4.002
42327W        W 9110  29.485  36.518   4.110
42328W        W 9111   6.841   3.472  13.364
42329W        W 9112  36.463  40.649   4.107
42330W        W 9113  33.987   4.366  12.014
42331W        W 9114  41.111   2.334   1.919
42332W        W 9115  17.484  19.731  10.497
42333W        W 9116  44.577  43.111  14.809
42334W        W 9117  15.703  10.707   0.411
42335W        W 9118   1.260  21.085   1.883
42336W        W 9119  30.602  37.518  14.433
42337W        W 9120  38.783  41.596   2.263
42338W        W 9121  39.835  16.336  14.401
42339W        W 9122  28.556  27.667  13.300
42340W        W 9123  42.002  42.957  11.446
42341W        W 9124   3.215  41.798  10.856
42342W        W 9125   3.967   1.797   2.621
42343W        W 9126  16.062  25.428  11.960
42344W        W 9127  11.562  19.519  14.638
42345W        W 9128  25.461  10.749   2.860
42346W        W 9129   6.041  38.963   1.313
42347W        W 9130  25.436  43.990  14.991
42348W        W 9131  23.291  21.977   0.818
42349W        W 9132   8.322  33.121  11.275
42350W        W 9133  10.681  35.919  12.902
42351W        W 9134  13.034  13.326  10.568
42352W        W 9135   4.249  11.804  13.929
42353W        W 9136  10.869  12.146  14.926
42354W        W 9137  21.141  10.805  12.466
42355W        W 9138  33.172  25.273  13.842
42356W        W 9139   2.246  28.759   3.341
42357W        W 9140  23.781  19.040  14.797
42358W        W 9141  25.168   2.690   0.877
42359W        W 9142  11.206  28.213   2.354
42360W        W 9143  41.876   3.043  12.967
42361W        W 9144   6.898  43.488   0.379
42362W        W 9145  10.155  24.004   2.242
42363W        W 9146  37.449   1.807   3.747
42364W        W 9147  25.621  16.923  12.743
42365W        W 9148   7.345  43.179   0.376
42366W        W 9149  30.994  22.236   0.371
42367W        W 9150  39.573   8.922   1.474
42368W        W 9151  32.869  30.566  12.119
42369W        W 9152  18.006  13.644   4.250
42370W        W 9153  42.256   2.531   2.529
42371W        W 9154  21.269  10.837  10.320
42372W        W 9155  12.484  43.056  13.546
42373W        W 9156  37.052  36.589   4.215
42374W        W 9157  26.219   8.101   0.754
42375W        W 9158   6.748  25.055  12.410
42376W        W 9159   1.473  29.877   4.020
42377W        W 9160  33.731   4.222  11.583
42378W        W 9161  35.133   4.673  11.926
42379W        W 9162  38.889  14.659   4.648
42380W        W 9163  29.994  36.287  12.493
42381W        W 9164  18.555   0.205  14.546
42382W        W 9165  16.779  24.055  13.697
42383W        W 9166  27.845  12.045   4.142
42384W        W 9167  32.564  29.904   0.033
42385W        W 9168  21.264  14.569  10.810
42386W        W 9169  39.280  34.265  11.470
42387W        W 9170  22.064  11.166   3.719
42388W        W 9171   3.766  17.513  12.155
42389W        W 9172  16.197  11.120  14.046
42390W        W 9173  11.679  18.331  13.349
42391W        W 9174   7.534   6.339  13.473
42392W        W 9175  25.115   7.851   3.606
42393W        W 9176   1.585  37.043  11.551
42394W        W 9177  25.276  34.523  11.565
42395W        W 9178  29.027  16.833  12.634
42396W        W 9179  14.245  44.222   4.528
42397W        W 9180  18.615  44.477   1.430
42398W        W 9181  21.241  36.412  11.143
42399W        W 9182   3.290  36.147   1.244
42400W        W 9183   6.631   5.860   3.135
42401W        W 9184   9.182  39.594   1.887
42402W        W 9185   2.990  32.065   3.109
42403W        W 9186  38.911  38.071   0.277
42404W        W 9187  38.237   5.792  10.426
42405W        W 9188  12.145  38.385   3.782
42406W        W 9189  33.550  17.755  11.978
42407W        W 9190  33.087  14.583  14.335
42408W        W 9191  24.756  32.525   4.555
42409W        W 9192  11.004  21.239  13.107
42410W        W 9193  38.861  29.593   0.908
42411W        W 9194   2.441  39.158   2.125
42412W        W 9195  27.012  18.208   5.369
42413W        W 9196   7.293  40.575   0.336
42414W        W 9197   0.615  11.116  11.617
42415W        W 9198  16.258  41.869  12.762
42416W        W 9199  31.220  37.958  12.667
42417W        W 9200  31.317  37.568   0.750
42418W        W 9201  20.162  35.435  12.165
42419W        W 9202   3.349  25.474   1.174
42420W        W 9203   1.789   7.205   4.673
42421W        W 9204  27.522  38.303   0.206
42422W        W 9205   7.450  19.158   2.980
42423W        W 9206  41.074  24.752  13.514
42424W        W 9207  22.485  39.851  11.044
42425W        W 9208  17.771   2.047  13.304
42426W        W 9209  17.504  25.131   2.699
42427W        W 9210  23.894  11.148  11.377
42428W        W 9211   2.928  36.022   0.853
42429W        W 9212  40.967  40.849  12.389
42430W        W 9213  13.489   3.950   1.366
42431W        W 9214  35.936  14.359  10.761
42432W        W 9215  43.572  36.243  12.454
42433W        W 9216   9.790  26.118  14.017
42434W        W 9217  16.789  25.209  12.955
42435W        W 9218  15.167  23.122  11.995
42436W        W 9219  41.784   5.809  12.997
42437W        W 9220   4.068  13.763  11.111
42438W        W 9221  12.162  18.999  12.865
42439W        W 9222  35.826  31.878   4.833
42440W        W 9223  20.963   0.440   0.729
42441W        W 9224  44.080   7.677   0.855
42442W        W 9225  29.323  27.963   3.621
42443W        W 9226  23.530  20.539  13.639
42444W        W 9227   2.392  36.518   1.656
42445W        W 9228  21.150  16.752  12.576
42446W        W 9229  43.110  40.114  12.476
42447W        W 9230  12.179  43.844   2.347
42448W        W 9231   2.875  25.638   4.991
42449W        W 9232  43.678  33.281  12.597
42450W        W 9233  18.671  42.020  12.813
42451W        W 9234  33.291  28.101   3.312
42452W        W 9235  41.996  23.681   2.270
42453W        W 9236  31.929  36.643  12.472
42454W        W 9237  15.777  10.249   2.181
42455W        W 9238   8.801  19.916   5.183
42456W        W 9239   6.025  42.589  11.301
42457W        W 9240  27.559   0.176   3.790
42458W        W 9241  27.569  43.779   4.665
42459W        W 9242  17.479  25.704   0.236
42460W        W 9243  28.117  43.078  14.938
42461W        W 9244   5.254   1.838  13.968
42462W        W 9245   4.932  18.877  14.745
42463W        W 9246  20.986  44.026   0.808
42464W        W 9247   8.238   0.835   1.796
42465W        W 9248   7.717  22.914   4.771
42466W        W 9249  39.558  22.670   4.170
42467W        W 9250  10.076   1.484   2.735
42468W        W 9251  20.191  12.548  14.462
42469W        W 9252  18.329  11.772   4.900
42470W        W 9253  19.136  10.333   2.376
42471W        W 9254  37.650  23.357  12.363
42472W        W 9255  17.174  21.669  12.540
42473W        W 9256  43.436  29.402  13.588
42474W        W 9257  32.971  44.834   2.342
42475W        W 9258  39.351  24.639  11.214
42476W        W 9259   2.916  36.995  11.668
42477W        W 9260   7.279  24.000  14.692
42478W        W 9261  35.536  42.716  13.648
42479W        W 9262  40.713  21.480   1.889
42480W        W 9263   4.538  38.816  14.710
42481W        W 9264  15.823   5.223  14.178
42482W        W 9265  32.147  41.310  11.765
42483W        W 9266   4.265  26.094   1.819
42484W        W 9267   3.459  17.486  14.437
42485W        W 9268  39.412  33.398   3.787
42486W        W 9269  18.780  39.465  14.502
42487W        W 9270  26.684  10.829   3.198
42488W        W 9271  24.958  37.117  13.417
42489W        W 9272  35.111  22.039   2.425
42490W        W 9273  44.822   1.200   2.336
42491W        W 9274  36.180  26.103   1.622
42492W        W 9275  19.553  39.867  10.741
42493W        W 9276  23.375  16.176  12.477
42494W        W 9277  25.506  30.635   0.366
42495W        W 9278  23.799  12.887  14.137
42496W        W 9279  29.351  15.699   0.871
42497W        W 9280  25.552  21.592  11.480
42498W        W 9281   8.830   7.604   4.020
42499W        W 9282  11.397  13.923  12.460
42500W        W 9283  25.577  16.281  11.598
42501W        W 9284  14.059  16.062   1.436
42502W        W 9285   2.945  26.066   4.676
42503W        W 9286  35.344  30.171   0.323
42504W        W 9287  23.599  27.677  11.197
42505W        W 9288  29.145   1.527  14.692
42506W        W 9289  32.730  42.118   3.401
42507W        W 9290   4.871  12.237   1.819
42508W        W 9291   2.648  24.573   4.399
42509W        W 9292  32.217  40.079   4.591
42510W        W 9293  22.978  27.563  14.667
42511W        W 9294  18.486  30.530   2.684
42512W        W 9295   0.497   7.086   2.345
42513W        W 9296  41.495  43.974  12.005
42514W        W 9297  32.412  23.467  14.058
42515W        W 9298   2.816   8.915  12.574
42516W        W 9299   8.495   3.053   1.886
42517W        W 9300  43.075   1.663   4.809
42518W        W 9301  29.704  36.065  12.138
42519W        W 9302  27.665  19.548   3.212
42520W        W 9303  25.111  28.381  12.964
42521W        W 9304  27.590  32.771   3.793
42522W        W 9305  28.580   2.741  10.751
42523W        W 9306   3.711  42.956  13.056
42524W        W 9307   9.734  30.878  13.602
42525W        W 9308  39.716  42.877  11.500
42526W        W 9309  14.406  30.326   5.013
42527W        W 9310   6.505  11.817  14.164
42528W        W 9311   8.551  16.834  12.557
42529W        W 9312  39.152  17.441  12.631
42530W        W 9313  44.908  22.737   4.600
42531W        W 9314  14.265   3.959  11.842
42532W        W 9315  44.311  35.072  13.821
42533W        W 9316  25.934  20.937   2.403
42534W        W 9317  37.076  30.080   0.913
42535W        W 9318  30.383  12.227   1.768
42536W        W 9319  13.969  38.650   1.418
42537W        W 9320  32.997   5.161  14.838
42538W        W 9321  10.825   7.622   2.202
42539W        W 9322  18.478  40.261  14.335
42540W        W 9323  43.133  44.037   4.092
42541W        W 9324  17.378   4.197   1.321
42542W        W 9325  35.918  30.830   3.404
42543W        W 9326  22.354   7.833   2.521
42544W        W 9327   3.247  31.532   0.834
42545W        W 9328  25.686  22.016   4.098
42546W        W 9329  31.779  10.732   4.417
42547W        W 9330  43.505   9.585   2.134
42548W        W 9331  11.465  21.651  13.987
42549W        W 9332  31.545  12.827  13.697
42550W        W 9333  20.020  13.966   2.365
42551W        W 9334  13.810  13.676   4.278
42552W        W 9335  40.700   8.018  10.350
42553W        W 9336  14.847  31.036  14.706
42554W        W 9337   6.927  29.418   1.767
42555W        W 9338   8.096  44.705  11.022
42556W        W 9339  22.273  15.516   0.305
42557W        W 9340  28.422   6.982  12.537
42558W        W 9341   6.141  23.129   0.767
42559W        W 9342  31.570  44.645   4.456
42560W        W 9343  44.126  43.067   5.067
42561W        W 9344  43.230  14.291   3.083
42562W        W 9345  19.079  14.731   2.274
42563W        W 9346   5.489  27.138   4.867
42564W        W 9347   2.931  11.656   4.538
42565W        W 9348  24.713   9.268   2.131
42566W        W 9349  16.230  36.367  12.937
42567W        W 9350  29.397  24.880   4.474
42568W        W 9351  31.861  16.356   2.741
42569W        W 9352   6.903  34.629   0.126
42570W        W 9353  23.621  35.827   0.739
42571W        W 9354  33.174   0.734   2.620
42572W        W 9355  12.315   7.055   0.150
42573W        W 9356  29.038  22.082  14.307
42574W        W 9357  14.680  38.118  10.856
42575W        W 9358  12.949  27.709   4.717
42576W        W 9359  21.671  28.525   4.231
42577W        W 9360  33.819  12.246  10.439
42578W        W 9361   7.878  11.125   3.765
42579W        W 9362  15.668  33.060  14.537
42580W        W 9363  37.883  31.178   2.100
42581W        W 9364  26.090   4.963   3.718
42582W        W 9365  44.999  44.011  12.775
42583W        W 9366  10.689   2.504   2.797
42584W        W 9367  39.735   5.556  11.185
42585W        W 9368   6.122   2.990  10.818
42586W        W 9369  12.097  29.489  10.729
42587W        W 9370   1.756  28.428  13.013
42588W        W 9371  23.268  25.225  14.384
42589W        W 9372   8.785  17.068  13.496
42590W        W 9373  29.331  11.177   1.914
42591W        W 9374  16.611   6.362  13.293
42592W        W 9375   8.262  28.860   2.348
42593W        W 9376  35.799  43.812   0.248
42594W        W 9377   8.607  11.670   1.878
42595W        W 9378  40.423  15.445  11.495
42596W        W 9379   4.716  19.055  13.794
42597W        W 9380  42.822  19.537   1.942
42598W        W 9381  10.967  23.675  10.558
42599W        W 9382   0.954   2.274   0.927
42600W        W 9383   3.926   4.237  12.082
42601W        W 9384  30.632  22.425   2.406
42602W        W 9385  30.295  35.564   4.836
42603W        W 9386  35.641  41.811  10.687
42604W        W 9387  43.434  34.978  12.932
42605W        W 9388  38.589   7.240  12.975
42606W        W 9389  27.688  19.045  14.889
42607W        W 9390  42.389  39.618  11.168
42608W        W 9391  11.738  35.834  11.517
42609W        W 9392  18.536  25.073   2.647
42610W        W 9393  34.566  14.309  11.133
42611W        W 9394  32.407  15.678  12.392
42612W        W 9395  32.937   1.358   2.275
42613W        W 9396  22.273  12.204   1.848
42614W        W 9397   9.705  36.880   3.664
42615W        W 9398   5.706  14.216   4.002
42616W        W 9399  33.996  11.349   0.698
42617W        W 9400   6.917  37.535   0.313
42618W        W 9401  19.612   1.482  12.424
42619W        W 9402  37.383  15.518  12.510
42620W        W 9403  15.790  17.558  12.378
42621W        W 9404   6.435  20.696   4.511
42622W        W 9405  23.216  35.342   2.176
42623W        W 9406  24.179  35.062  11.109
42624W        W 9407  37.637  18.760  14.456
42625W        W 9408  12.634  25.161  13.777
42626W        W 9409  42.156  21.740   3.681
42627W        W 9410  40.117  24.489  11.228
42628W        W 9411  37.520  43.122  14.977
42629W        W 9412  15.127  14.055  11.664
42630W        W 9413  16.423  17.493   2.282
42631W        W 9414  18.958  12.439  13.523
42632W        W 9415  18.810  17.905   1.739
42633W        W 9416  44.384   4.090   1.493
42634W        W 9417  17.564  11.582  14.828
42635W        W 9418  21.363  42.360   2.149
42636W        W 9419  13.178  18.625  10.670
42637W        W 9420  14.460  33.645  11.803
42638W        W 9421  24.080  36.588   0.823
42639W        W 9422  41.359  11.661  13.249
42640W        W 9423  12.350  32.993   1.778
42641W        W 9424  33.097  26.601  13.345
42642W        W 9425  18.965  17.098  12.403
42643W        W 9426  26.764  37.590   4.252
42644W        W 9427   4.566  20.474   3.960
42645W        W 9428  22.715  22.582   3.266
42646W        W 9429  11.951  28.092  10.785
42647W        W 9430  31.600  10.565  12.211
42648W        W 9431  25.646  21.760  13.392
42649W        W 9432  38.992  20.734   2.642
42650W        W 9433  37.829  23.117  14.484
42651W        W 9434  38.050  32.690   3.844
42652W        W 9435  33.169  22.090  11.668
42653W        W 9436  42.939  10.081  13.759
42654W        W 9437  37.322  23.691   1.176
42655W        W 9438  38.648  15.793  12.938
42656W        W 9439   9.564  15.598   0.811
42657W        W 9440  26.042  18.379  11.837
42658W        W 9441   8.248   8.948   1.716
42659W        W 9442  31.811  26.561   0.981
42660W        W 9443  15.817  40.271   1.700
42661W        W 9444  25.886  44.081   5.080
42662W        W 9445  15.567  40.516   2.106
42663W        W 9446  34.499  27.161  11.194
42664W        W 9447  39.134   5.471   0.338
42665W        W 9448  38.838  11.506  11.969
42666W        W 9449   7.770  29.476   0.795
42667W        W 9450   6.740  30.046   3.669
42668W        W 9451  26.171  27.155  14.762
42669W        W 9452   8.990  27.953   0.363
42670W        W 9453  32.976  12.903   1.486
42671W        W 9454  32.637  18.213  10.614
42672W        W 9455  33.192  34.040  10.924
42673W        W 9456  19.826  36.023   0.079
42674W        W 9457  21.248  27.013   2.403
42675W        W 9458  24.043  32.507  10.351
42676W        W 9459  27.404   9.800  14.367
42677W        W 9460  12.338  34.554  12.544
42678W        W 9461  42.562   4.776   0.745
42679W        W 9462  35.179   9.255   4.116
42680W        W 9463  39.357  34.861  10.639
42681W        W 9464  41.490  19.592   1.934
42682W        W 9465  23.653  37.225  11.733
42683W        W 9466  22.014  14.737   2.861
42684W        W 9467  27.979   4.797  14.290
42685W        W 9468  26.030  36.123  13.529
42686W        W 9469  30.109  15.403  14.940
42687W        W 9470  39.572   0.184   4.159
42688W        W 9471  32.541   4.998   1.783
42689W        W 9472  18.773  39.622  12.845
42690W        W 9473   8.437  11.903   4.877
42691W        W 9474  26.577  38.428  13.826
42692W        W 9475   5.973  21.304   2.801
42693W        W 9476  39.887  10.540   0.763
42694W        W 9477  22.155   6.619  13.346
42695W        W 9478  37.289  11.855   1.915
42696W        W 9479  15.446  39.458  13.835
42697W        W 9480  13.747  22.192   3.295
42698W        W 9481  13.188  30.548  10.295
42699W        W 9482  23.998  16.631  12.026
42700W        W 9483  16.684   4.690   3.331
42701W        W 9484  11.245  16.867  11.444
42702W        W 9485  27.237  35.557   3.283
42703W        W 9486   9.254   8.788  11.592
42704W        W 9487  24.041  31.169  13.812
42705W        W 9488   0.171  20.726   3.705
42706W        W 9489  18.525  30.798  14.447
42707W        W 9490  40.563   9.560  13.445
42708W        W 9491  25.619  40.835  12.870
42709W        W 9492  40.492  43.988   2.225
42710W        W 9493  27.349  32.267  13.774
42711W        W 9494   8.871   7.716  14.317
42712W        W 9495  36.755  41.359  13.757
42713W        W 9496  35.089  16.994  13.388
42714W        W 9497   1.784  32.802  13.285
42715W        W 9498  21.321   2.798   0.984
42716W        W 9499  27.396  41.886  14.768
42717W        W 9500  31.912   7.384  12.122
42718W        W 9501  12.367  37.100   5.180
42719W        W 9502  22.740   0.350  14.025
42720W        W 9503  22.373  37.103  10.895
42721W        W 9504  21.303  21.325  12.600
42722W        W 9505  32.193  10.383   3.711
42723W        W 9506  24.653   7.701   1.466
42724W        W 9507  14.509  24.043  14.470
42725W        W 9508  35.510   4.953   1.389
42726W        W 9509  28.921   2.434   0.590
42727W        W 9510   9.706  27.627   1.241
42728W        W 9511  27.105  21.246   2.980
42729W        W 9512   1.293  16.593   2.816
42730W        W 9513   4.622  10.836  12.530
42731W        W 9514  18.400  15.735   0.656
42732W        W 9515  10.899  27.319   0.755
42733W        W 9516  36.051   2.393   1.889
42734W        W 9517  34.875   8.405   2.164
42735W        W 9518  22.656  32.650   4.150
42736W        W 9519  16.591  35.590   0.291
42737W        W 9520   1.877  11.842  13.952
42738W        W 9521  12.584  41.267   0.733
42739W        W 9522  43.283  22.367   1.291
42740W        W 9523  27.545  24.032  13.087
42741W        W 9524  35.056  26.061  10.691
42742W        W 9525   7.257  25.076   0.443
42743W        W 9526  21.517  13.974   4.152
42744W        W 9527  36.939  13.631  11.576
42745W        W 9528  16.025  15.482   5.343
42746W        W 9529  39.410   0.780  12.871
42747W        W 9530  31.273  29.370   2.355
42748W        W 9531  44.777  34.563   0.425
42749W        W 9532  31.802   1.475   2.392
42750W        W 9533   3.170  36.869   5.026
42751W        W 9534  37.900  40.528  12.492
42752W        W 9535  28.898  34.492  13.142
42753W        W 9536  39.077  43.809  13.824
42754W        W 9537  31.332  40.045  13.854
42755W        W 9538  23.957   5.854  11.469
42756W        W 9539  28.209   4.824  12.919
42757W        W 9540   0.785   3.492   0.344
42758W        W 9541  35.846   7.215   3.314
42759W        W 9542   6.730  19.187   3.217
42760W        W 9543   6.834  43.852   2.385
42761W        W 9544  27.542   9.328   1.403
42762W        W 9545  39.649  12.322   4.193
42763W        W 9546  14.379  30.366  11.965
42764W        W 9547  18.788  31.652   0.427
42765W        W 9548   5.840  40.110   4.401
42766W        W 9549  10.337  32.404   1.741
42767W        W 9550  39.041  36.044  14.205
42768W        W 9551  27.629  44.901   2.913
42769W        W 9552  33.999  36.413   3.637
42770W        W 9553  23.672  36.964   1.610
42771W        W 9554  19.410  40.065  12.458
42772W        W 9555   6.002  22.378   2.243
42773W        W 9556   5.843  20.608   1.184
42774W        W 9557  24.077  44.544   0.997
42775W        W 9558  42.368  23.163   0.342
42776W        W 9559  14.263  14.125  11.630
42777W        W 9560  43.035   0.233   3.082
42778W        W 9561  17.579   0.683   3.347
42779W        W 9562  18.098  25.999   2.849
42780W        W 9563  26.490  14.588  10.739
42781W        W 9564  10.975  19.767   2.404
42782W        W 9565  42.696   6.072  10.262
42783W        W 9566  11.087  22.087  12.909
42784W        W 9567  16.837  21.699   4.396
42785W        W 9568  38.648   2.844  14.140
42786W        W 9569  36.470  15.772  11.419
42787W        W 9570  11.060  21.727   3.437
42788W        W 9571  28.400  23.357   2.189
42789W        W 9572   4.748   4.847  12.109
42790W        W 9573   7.869  12.284   0.355
42791W        W 9574  42.991  23.225  12.576
42792W        W 9575   5.795  19.228   1.680
42793W        W 9576  41.972  35.431   0.904
42794W        W 9577  40.396  26.509   4.692
42795W        W 9578  23.997  42.416   2.579
42796W        W 9579  28.655  23.149  13.853
42797W        W 9580  36.003   1.049  11.906
42798W        W 9581  18.236   7.950  14.309
42799W        W 9582   2.252  11.824  14.329
42800W        W 9583   5.922   7.492   3.213
42801W        W 9584  32.408  37.074   4.130
42802W        W 9585  25.661  10.863  10.745
42803W        W 9586  43.954  17.132  11.569
42804W        W 9587  43.391  11.110  10.210
42805W        W 9588  37.385   0.079  12.548
42806W        W 9589   1.669  20.794   1.782
42807W        W 9590  39.271  29.349  13.454
42808W        W 9591  10.434  31.016   3.713
42809W        W 9592  21.324  36.367  13.384
42810W        W 9593   4.028  22.527  11.136
42811W        W 9594  37.338  39.021   2.138
42812W        W 9595  38.063  17.039   2.194
42813W        W 9596   8.732  29.451   4.461
42814W        W 9597  37.395  44.475  14.487
42815W        W 9598  15.910  20.593   3.352
42816W        W 9599  12.243   6.284   1.759
42817W        W 9600  23.671   3.988  13.436
42818W        W 9601  41.670   7.452   2.959
42819W        W 9602  22.734  12.812  13.377
42820W        W 9603  13.366  20.654  10.959
42821W        W 9604  39.734  13.019   4.036
42822W        W 9605  10.209  40.855  14.909
42823W        W 9606  19.029  44.913  10.932
42824W        W 9607  37.131  39.530  10.621
42825W        W 9608   3.337  11.633  13.577
42826W        W 9609  31.002   7.474   0.249
42827W        W 9610  11.343  27.520   0.951
42828W        W 9611  29.582  34.687   2.880
42829W        W 9612  35.882   3.707  12.229
42830W        W 9613  44.283  16.246  12.656
42831W        W 9614  29.505  38.527  10.223
42832W        W 9615  35.777   9.826   2.502
42833W        W 9616  24.973  20.546   0.465
42834W        W 9617  22.601  44.819  10.728
42835W        W 9618  14.311   8.337  12.593
42836W        W 9619   2.386  29.605   0.803
42837W        W 9620   2.306  43.474  13.822
42838W        W 9621  32.972  15.660  13.949
42839W        W 9622   7.957  14.523  12.487
42840W        W 9623  34.964   1.823  13.452
42841W        W 9624  21.000  22.194   1.846
42842W        W 9625  37.991  18.829  11.249
42843W        W 9626   1.201  16.095  12.737
42844W        W 9627  11.684  15.857  14.507
42845W        W 9628  42.300   3.549   1.223
42846W        W 9629   5.968  22.540   3.113
42847W        W 9630  40.529  18.073  10.672
42848W        W 9631  40.985   3.565   1.853
42849W        W 9632  31.640  12.921   2.385
42850W        W 9633   7.006   3.119  11.959
42851W        W 9634  17.763   2.747  12.046
42852W        W 9635   7.213  41.107   0.273
42853W        W 9636   4.919   9.384   0.926
42854W        W 9637  15.307  27.260  10.370
42855W        W 9638   7.163   9.673   1.118
42856W        W 9639  20.121  39.473   0.829
42857W        W 9640  18.090   6.365   1.276
42858W        W 9641   1.089  44.463  14.802
42859W        W 9642  35.201  15.741   9.998
42860W        W 9643  41.481   1.232   0.519
42861W        W 9644  21.802   2.294   1.799
42862W        W 9645  13.073   2.795  10.829
42863W        W 9646  21.731  12.995  13.579
42864W        W 9647  20.991  20.469  12.929
42865W        W 9648  24.078  27.535  11.236
42866W        W 9649  33.583  27.186   2.756
42867W        W 9650   9.759  31.855  11.070
42868W        W 9651   4.339   5.109  14.835
42869W        W 9652  33.269   1.008   5.117
42870W        W 9653  40.175  22.631  10.616
42871W        W 9654  25.069  29.348  12.745
42872W        W 9655  25.054   5.824  12.406
42873W        W 9656  18.707  26.873  12.417
42874W        W 9657   9.090  31.653  11.002
42875W        W 9658   1.733  39.059  10.999
42876W        W 9659  20.123   3.236  10.707
42877W        W 9660  23.914  43.003  12.413
42878W        W 9661  29.488  24.700   3.784
42879W        W 9662  29.774  29.087  12.667
42880W        W 9663   1.825  33.420   1.956
42881W        W 9664   3.145   1.773  12.592
42882W        W 9665  13.236  41.142   3.380
42883W        W 9666  35.881  10.309  13.502
42884W        W 9667  32.383  25.496  13.864
42885W        W 9668  39.547  27.577   1.743
42886W        W 9669  26.565  39.679   0.798
42887W        W 9670  11.367  34.164  11.152
42888W        W 9671  26.979  33.414  13.070
42889W        W 9672  29.185  14.353   4.157
42890W        W 9673  12.677  20.655  14.696
42891W        W 9674  13.486   0.386   3.629
42892W        W 9675  21.293  24.669   2.924
42893W        W 9676  41.534  29.650   4.081
42894W        W 9677  35.728  18.555   5.427
42895W        W 9678  39.935  17.026   0.448
42896W        W 9679  26.410  12.301   2.805
42897W        W 9680  11.053  18.903   3.667
42898W        W 9681  23.455   0.224   1.890
42899W        W 9682  30.399  35.051   4.796
42900W        W 9683  31.575  21.023   9.943
42901W        W 9684  11.654  22.396  13.565
42902W        W 9685  44.484  42.401   4.586
42903W        W 9686  15.629  10.645  12.469
42904W        W 9687  33.369   2.198  14.539
42905W        W 9688  29.804  41.510   2.255
42906W        W 9689   1.095   4.841  11.120
42907W        W 9690   9.075  32.410   1.862
42908W        W 9691  18.159  19.283  13.011
42909W        W 9692  35.087  25.750  12.059
42910W        W 9693  41.522  13.761   1.272
42911W        W 9694  36.588  34.387   3.229
42912W        W 9695  36.767  35.745  11.088
42913W        W 9696  28.173   4.975  11.141
42914W        W 9697  39.136  20.762  13.900
42915W        W 9698  24.436  14.348   5.214
42916W        W 9699  41.966  44.869   1.951
42917W        W 9700   0.897   6.243   0.009
42918W        W 9701   0.432  27.715  14.689
42919W        W 9702  13.021  42.477  11.657
42920W        W 9703  35.523   8.052   0.114
42921W        W 9704  27.518  39.686  12.022
42922W        W 9705  43.867   4.268   1.770
42923W        W 9706  41.566  25.464  11.421
42924W        W 9707  25.319  17.111  13.760
42925W        W 9708  26.047  28.639  10.386
42926W        W 9709   4.917  25.173   4.100
42927W        W 9710  16.127  16.057   1.086
42928W        W 9711   2.812  43.360  11.694
42929W        W 9712   6.098  10.679   4.028
42930W        W 9713  24.842  11.254  10.418
42931W        W 9714  20.184  25.199   4.156
42932W        W 9715  27.195  13.280   4.071
42933W        W 9716  40.318  40.594   1.379
42934W        W 9717  17.749  29.835  12.161
42935W        W 9718  28.300   2.179  13.914
42936W        W 9719   1.896  13.216  12.217
42937W        W 9720   4.668  14.403  12.990
42938W        W 9721  15.772  11.683  14.417
42939W        W 9722  31.346   3.278   4.470
42940W        W 9723  42.368  41.987   1.487
42941W        W 9724  10.291  38.541   1.003
42942W        W 9725  44.669  19.787   3.639
42943W        W 9726  41.895   6.317  12.912
42944W        W 9727  18.038  16.476  10.742
42945W        W 9728  12.182  38.169  10.743
42946W        W 9729  25.075  19.901  11.643
42947W        W 9730  10.918  42.138  11.331
42948W        W 9731  35.150  12.569  14.479
42949W        W 9732  44.086  42.849  12.518
42950W        W 9733  13.279   0.988  12.877
42951W        W 9734  28.500   3.376  11.966
42952W        W 9735   1.020   1.977  14.014
42953W        W 9736  41.982  19.257  13.882
42954W        W 9737  15.592  25.126   4.019
42955W        W 9738  27.391   2.076  12.692
42956W        W 9739  32.661  16.235  11.247
42957W        W 9740  28.280  36.374  14.900
42958W        W 9741  28.982  16.622  13.943
42959W        W 9742  35.580  17.176  13.387
42960W        W 9743  13.826  12.785   2.928
42961W        W 9744   9.350   8.786   2.734
42962W        W 9745  29.480  17.358  12.909
42963W        W 9746  41.101  31.009  14.920
42964W        W 9747  30.669  23.212  13.452
42965W        W 9748  34.471  29.150  11.610
42966W        W 9749  40.832  22.082  14.548
42967W        W 9750  11.636  15.782  12.790
42968W        W 9751  16.785   7.268   0.824
42969W        W 9752   3.353  31.087  12.136
42970W        W 9753  40.839   5.111  14.795
42971W        W 9754  15.833   1.317   3.880
42972W        W 9755  12.752  43.272  12.116
42973W        W 9756  31.692  36.007   1.463
42974W        W 9757   5.612  26.411  11.631
42975W        W 9758  15.304  40.031   3.712
42976W        W 9759  20.667  31.320   1.711
42977W        W 9760  37.328  23.049   4.159
42978W        W 9761  32.658   6.354   2.237
42979W        W 9762  21.869  25.150  11.052
42980W        W 9763  41.774  10.578  11.553
42981W        W 9764   8.184  20.224   3.855
42982W        W 9765   0.024   9.887  14.393
42983W        W 9766  36.023  24.088  14.067
42984W        W 9767  38.872  29.002  14.332
42985W        W 9768   0.773   9.347  10.261
42986W        W 9769  20.128   2.558   2.174
42987W        W 9770  40.401   6.860   1.210
42988W        W 9771  31.672  28.152  11.522
42989W        W 9772  19.962   0.209  12.640
42990W        W 9773  18.916  20.537   2.475
42991W        W 9774  33.710  21.995  14.846
42992W        W 9775  22.211  39.606   1.208
42993W        W 9776   8.337  15.162  12.623
42994W        W 9777   9.536  18.471  11.092
42995W        W 9778  12.185  15.676   1.908
42996W        W 9779  39.359   6.671  11.079
42997W        W 9780  11.588  23.853  13.471
42998W        W 9781  42.816  38.980   4.974
42999W        W 9782  11.907  22.532  11.269
43000W        W 9783  37.960  31.001   1.142
43001W        W 9784  41.087  17.038   0.461
43002W        W 9785  24.127   6.723  12.857
43003W        W 9786  42.156  41.725  14.857
43004W        W 9787  36.321  37.730  12.971
43005W        W 9788   2.521  13.259  13.256
43006W        W 9789  23.437  11.531   4.079
43007W        W 9790   1.156  44.914   2.617
43008W        W 9791  26.513   1.905   1.521
43009W        W 9792   1.848  38.490  12.502
43010W        W 9793  19.543   8.926  14.900
43011W        W 9794  42.822   3.861   0.282
43012W        W 9795  14.530   6.705   0.295
43013W        W 9796  35.000  14.649  13.048
43014W        W 9797  41.986  31.052   4.490
43015W        W 9798  39.290  37.062   4.215
43016W        W 9799  25.126  33.605   0.298
43017W        W 9800  15.613  24.158   4.578
43018W        W 9801  37.963  13.283  11.988
43019W        W 9802   8.350  12.332  12.104
43020W        W 9803  11.742  13.595  13.971
43021W        W 9804  15.328  25.981   3.224
43022W        W 9805   4.321   5.770  12.535
43023W        W 9806  13.817   7.766  11.032
43024W        W 9807   7.008   3.352   0.237
43025W        W 9808  21.790  11.826   2.813
43026W        W 9809  40.957  15.119   5.149
43027W        W 9810  28.363  14.758   4.928
43028W        W 9811  25.355  20.796   2.475
43029W        W 9812  43.495  24.599  13.828
43030W        W 9813  16.252  40.368   1.379
43031W        W 9814  27.559  22.282   0.378
43032W        W 9815  27.028  14.510   1.229
43033W        W 9816  20.052  17.770  13.125
43034W        W 9817   9.341  21.893  14.914
43035W        W 9818   3.498  24.991  12.708
43036W        W 9819  22.745   2.058   1.352
43037W        W 9820  18.775  41.851  14.948
43038W        W 9821  40.391   1.314  10.741
43039W        W 9822  43.343  44.380  12.042
43040W        W 9823  26.739   7.380  14.005
43041W        W 9824  32.294  31.468  12.047
43042W        W 9825  30.957  25.166   2.313
43043W        W 9826  17.074  39.282   4.079
43044W        W 9827   9.909   3.642  12.032
43045W        W 9828  22.081  22.691   4.524
43046W        W 9829  19.674  14.524   3.586
43047W        W 9830  30.879   6.718  14.850
43048W        W 9831  14.984   8.291  11.061
43049W        W 9832  23.538  19.090  12.129
43050W        W 9833  11.753  23.721  11.758
43051W        W 9834  31.382  32.473  11.555
43052W        W 9835  42.986  33.328  14.892
43053W        W 9836  22.567   1.400  12.638
43054W        W 9837  16.208  14.174   0.691
43055W        W 9838  24.544  22.004   1.762
43056W        W 9839   4.801  18.122  12.562
43057W        W 9840  15.333  20.792  12.237
43058W        W 9841   2.630   2.437   2.380
43059W        W 9842  29.587  30.902  13.435
43060W        W 9843  20.524  30.808   1.696
43061W        W 9844   7.673   0.883  11.263
43062W        W 9845  17.621   5.903   4.740
43063W        W 9846  19.225  15.829   0.969
43064W        W 9847  12.772  31.580  12.508
43065W        W 9848  30.249  13.779  13.884
43066W        W 9849  31.576   4.615   2.245
43067W        W 9850  16.867  42.209   1.421
43068W        W 9851  21.350  37.041   3.098
43069W        W 9852  42.024  23.921   4.580
43070W        W 9853   9.362  21.183   2.798
43071W        W 9854  26.663  16.251   2.328
43072W        W 9855  36.112  28.737   2.752
43073W        W 9856  32.354   2.810   3.408
43074W        W 9857  18.488  32.490  10.795
43075W        W 9858  11.399  19.290   3.816
43076W        W 9859   0.852  17.287   2.745
43077W        W 9860  24.699  41.479  13.636
43078W        W 9861  33.752  38.835   3.097
43079W        W 9862  29.415   9.426  11.964
43080W        W 9863  32.337   8.635   2.286
43081W        W 9864   0.752   1.999   0.544
43082W        W 9865  26.447   2.749   1.435
43083W        W 9866  12.661  23.418   3.703
43084W        W 9867  10.208  21.495  11.976
43085W        W 9868  17.657  36.250  14.921
43086W        W 9869  32.971  11.379  14.284
43087W        W 9870   3.604  15.117   0.701
43088W        W 9871   9.259  33.862   2.291
43089W        W 9872  11.625  10.285  11.697
43090W        W 9873   7.419   7.925  14.112
43091W        W 9874  11.863  37.956  14.734
43092W        W 9875  39.017  27.025   2.601
43093W        W 9876  17.134   6.932   4.428
43094W        W 9877   8.939  41.403   1.845
43095W        W 9878  43.971  24.556   1.440
43096W        W 9879  39.457  26.595   4.564
43097W        W 9880  11.744  16.633   0.733
43098W        W 9881  28.948   2.427   3.602
43099W        W 9882  15.554   6.307   1.855
43100W        W 9883   4.060  44.487  11.998
43101W        W 9884  43.680  27.729  12.902
43102W        W 9885   2.682  42.557   3.374
43103W        W 9886   1.903   3.413   1.245
43104W        W 9887  41.503   2.131   1.641
43105W        W 9888  15.820  10.192   1.552
43106W        W 9889   6.152   8.855  11.059
43107W        W 9890  31.538   9.140   3.271
43108W        W 9891  26.928  39.773  14.924
43109W        W 9892  19.076  31.639  11.691
43110W        W 9893   1.645  27.863   2.380
43111W        W 9894  26.550  15.025  11.406
43112W        W 9895   5.208  21.183  11.611
43113W        W 9896  29.694  36.090  11.261
43114W        W 9897   9.778  37.414   4.499
43115W        W 9898  41.903  37.706  13.073
43116W        W 9899  21.198   8.959   2.144
43117W        W 9900  40.443  19.172   4.377
43118W        W 9901  42.772  39.248  13.483
43119W        W 9902  14.420  28.227  13.811
43120W        W 9903  38.516  35.015  12.980
43121W        W 9904  13.319  43.321   4.084
43122W        W 9905  44.065   1.221   1.674
43123W        W 9906  32.039  27.666   2.219
43124W        W 9907  31.660   7.690  12.891
43125W        W 9908   7.722   1.124   4.619
43126W        W 9909  36.263  13.093   1.785
43127W        W 9910  11.210  33.525   4.853
43128W        W 9911   1.458   2.276  13.968
43129W        W 9912  40.750  37.618   2.302
43130W        W 9913  13.079   2.173  12.488
43131W        W 9914   6.190  43.778   2.792
43132W        W 9915  27.289  10.755  10.862
43133W        W 9916  43.252  40.746   4.774
43134W        W 9917  10.887   0.322   4.678
43135W        W 9918  43.260  11.613  11.633
43136W        W 9919  33.086  21.210  11.056
43137W        W 9920  31.628  13.640  10.706
43138W        W 9921  34.161  20.257  14.693
43139W        W 9922  14.133  14.674  14.853
43140W        W 9923  31.352  41.015  12.108
43141W        W 9924   8.349  18.501  11.499
43142W        W 9925  23.889   0.990   1.876
43143W        W 9926  37.339  38.390   3.083
43144W        W 9927   8.397  36.090  12.964
43145W        W 9928  13.366   0.889   4.103
43146W        W 9929   9.345   6.447   4.041
43147W        W 9930  26.707  33.809   4.138
43148W        W 9931  11.817  29.427   0.050
43149W        W 9932  33.908  44.200   4.225
43150W        W 9933  41.992  18.212  11.607
43151W        W 9934  40.862   2.452  13.904
43152W        W 9935  29.506  28.397   2.761
43153W        W 9936  29.541  13.406  10.405
43154W        W 9937  24.939   6.332  13.134
43155W        W 9938  14.857  10.356   2.136
43156W        W 9939   5.243   8.467  11.399
43157W        W 9940   7.786  20.524   1.877
43158W        W 9941  13.796   2.977   1.427
43159W        W 9942   1.281  35.840  13.613
43160W        W 9943   6.831   2.383   3.810
43161W        W 9944   4.155  10.252   3.923
43162W        W 9945  17.046  38.865  11.450
43163W        W 9946  33.761  26.996   1.792
43164W        W 9947  24.929   7.841  14.797
43165W        W 9948  41.895   0.451  10.495
43166W        W 9949  38.435   9.435  10.808
43167W        W 9950  18.233  44.912  13.862
43168W        W 9951   1.826  36.379   4.610
43169W        W 9952   7.761  35.600  12.518
43170W        W 9953  36.610  23.745   0.728
43171W        W 9954  35.526  36.495  10.968
43172W        W 9955  14.457  44.443  11.665
43173W        W 9956  20.195  26.456   9.965
43174W        W 9957  19.300  32.298  14.938
43175W        W 9958  43.723  11.676  12.418
43176W        W 9959  22.621  31.678   4.477
43177W        W 9960  20.427  37.891   3.687
43178W        W 9961  41.941   3.239  10.917
43179W        W 9962  14.836   9.878  11.871
43180W        W 9963  36.300  37.011   1.258
43181W        W 9964  40.173   4.396   1.793
43182W        W 9965   2.298   5.133  11.864
43183W        W 9966  26.041  37.491  13.028
43184W        W 9967  25.507  10.827  13.047
43185W        W 9968  24.549   6.888  14.999
43186W        W 9969  36.226  42.753  14.499
43187W        W 9970   0.251  14.689  13.970
43188W        W 9971  27.134  19.202  13.364
43189W        W 9972  11.202  13.799   4.784
43190W        W 9973  22.620  20.442  12.482
43191W        W 9974  41.940  12.852   0.723
43192W        W 9975  19.111  36.116  13.325
43193W        W 9976  41.916  21.189   2.317
43194W        W 9977  27.765  15.354  12.990
43195W        W 9978   5.983   6.145  11.669
43196W        W 9979  28.078  31.611   5.056
43197W        W 9980  40.651  16.262   2.790
43198W        W 9981   2.472   1.702   2.924
43199W        W 9982  21.753  25.618   5.540
43200W        W 9983  23.624  44.831  12.352
43201W        W 9984  37.725   0.210   4.644
43202W        W 9985  32.118  41.337   2.122
43203W        W 9986  25.662  30.867  14.619
43204W        W 9987  18.274  17.210   5.472
43205W        W 9988  27.126  20.426  10.623
43206W        W 9989  18.222  35.005   2.206
43207W        W 9990  10.760  37.005  13.884
43208W        W 9991  33.194  18.112   0.836
43209W        W 9992   2.209   7.432  13.831
43210W        W 9993   5.777   8.917  13.530
43211W        W 9994  33.077   7.012   2.758
43212W        W 9995  23.055  42.546   2.843
43213W        W 9996  37.854  20.220  11.336
43214W        W 9997  14.096  34.052   0.769
43215W        W 9998  27.112  43.275  10.697
43216W        W 9999  34.520  38.486   1.568
43217W        W10000  32.782  10.620   1.006
43218W        W10001  22.118  23.038   0.278
43219W        W10002  13.647  38.554  13.093
43220W        W10003  15.345  12.280  13.898
43221W        W10004  18.088  22.055   2.626
43222W        W10005  31.878  31.135   4.075
43223W        W10006  28.540   7.374   4.781
43224W        W10007   1.787   8.974  14.910
43225W        W10008   8.638   7.848   4.876
43226W        W10009  42.811   4.988  12.560
43227W        W10010  23.501   8.395   3.866
43228W        W10011  29.479   0.398   4.483
43229W        W10012  32.936  44.368  14.454
43230W        W10013  13.063   3.293   3.986
43231W        W10014  10.635  35.898   4.254
43232W        W10015  40.330  32.310   1.198
43233W        W10016  24.068  44.346  14.323
43234W        W10017  23.940  22.143  11.000
43235W        W10018  37.534  26.859   1.897
43236W        W10019  34.510  23.019  12.414
43237W        W10020  34.061  37.854  11.583
43238W        W10021  42.058   3.294  11.413
43239W        W10022  26.717  13.158  11.674
43240W        W10023  23.097   8.873  12.590
43241W        W10024  22.576  28.063  14.057
43242W        W10025  28.269   1.735   2.686
43243W        W10026  35.338  30.408  11.655
43244W        W10027  21.332  25.467   1.514
43245W        W10028   1.320  26.945  12.336
43246W        W10029  13.649  23.996  14.719
43247W        W10030  32.917   1.038  13.812
43248W        W10031  17.688  14.303  12.521
43249W        W10032   3.161   6.230  11.211
43250W        W10033  24.779  31.270  12.136
43251W        W10034  14.806  22.561   2.253
43252W        W10035  13.431  17.930  14.005
43253W        W10036  38.162   2.666  14.036
43254W        W10037  32.938   7.398  12.307
43255W        W10038  11.000  43.378   4.105
43256W        W10039  25.175  20.055  12.125
43257W        W10040  10.708   1.006   1.093
43258W        W10041  29.858  19.211   0.942
43259W        W10042  21.522  25.321   9.878
43260W        W10043  41.900  40.258  14.012
43261W        W10044  43.538  43.919   1.697
43262W        W10045  31.195  19.673  14.842
43263W        W10046  20.131  36.131   0.480
43264W        W10047  12.159  40.957  14.927
43265W        W10048  40.848  21.564   0.202
43266W        W10049  31.022  20.541   0.717
43267W        W10050  27.027   6.963  13.562
43268W        W10051  19.211  29.198  12.578
43269W        W10052  25.487  37.855   5.547
43270W        W10053  19.101   3.851  14.898
43271W        W10054   8.342  42.443  13.741
43272W        W10055   1.959  37.866   2.873
43273W        W10056  31.604  32.051  12.982
43274W        W10057  44.150  37.290   4.146
43275W        W10058  32.553   9.750   3.824
43276W        W10059  38.756  14.115   3.240
43277W        W10060  41.983  10.308  12.460
43278W        W10061  43.260  17.799   9.837
43279W        W10062   8.054  14.813  12.906
43280W        W10063  17.867  29.322  13.013
43281W        W10064   1.481  24.502  13.812
43282W        W10065  11.574   5.030   1.835
43283W        W10066  22.866  33.019  14.201
43284W        W10067  36.959   1.892  11.373
43285W        W10068  37.605  19.492   2.415
43286W        W10069   2.421   1.199  11.574
43287W        W10070  29.080  35.975   5.171
43288W        W10071  16.969  32.052  13.930
43289W        W10072  32.443  11.895   0.771
43290W        W10073  39.031  42.912   2.641
43291W        W10074   7.692   6.838  13.474
43292W        W10075  28.000  19.263  12.116
43293W        W10076   1.141  26.269   3.909
43294W        W10077  10.810  21.240  10.859
43295W        W10078  10.354   8.781  13.485
43296W        W10079  27.881  14.398  10.260
43297W        W10080  15.059  21.141   4.651
43298W        W10081  29.424  20.440   0.043
43299W        W10082  25.422  23.151  14.044
43300W        W10083   9.343  25.492  14.344
43301W        W10084  27.995  19.337   4.549
43302W        W10085  35.376  38.900  10.460
43303W        W10086  19.506  42.349  11.882
43304W        W10087   2.895   0.491   2.554
43305W        W10088   0.093  22.796   1.946
43306W        W10089  12.821  20.495  10.720
43307W        W10090  18.307  40.776   3.213
43308W        W10091  20.637  19.536   3.419
43309W        W10092   5.914   0.992   3.177
43310W        W10093  36.914  35.974   4.738
43311W        W10094  19.267   0.698  14.789
43312W        W10095  21.254  34.599   0.269
43313W        W10096  44.203  28.629   1.739
43314W        W10097  23.600   4.852   9.819
43315W        W10098  13.818   7.865   3.800
43316W        W10099  35.596  19.601   3.201
43317W        W10100  40.785   6.641   4.061
43318W        W10101   8.364  37.362  13.948
43319W        W10102  27.471   9.456  13.517
43320W        W10103  42.532  40.387  10.653
43321W        W10104  37.140   3.331   4.595
43322W        W10105  18.722   2.988   3.601
43323W        W10106  15.168   4.455   1.698
43324W        W10107  14.866  15.573   2.382
43325W        W10108  26.860   3.489   0.876
43326W        W10109   3.454  24.952  12.195
43327W        W10110  30.148  23.061   0.531
43328W        W10111  18.961  44.472  13.385
43329W        W10112  38.933  16.685   3.309
43330W        W10113  44.278  30.636   3.905
43331W        W10114  11.202  38.099  12.506
43332W        W10115  19.290  17.518  14.846
43333W        W10116  34.851  14.074  11.940
43334W        W10117  40.629  20.848   4.442
43335W        W10118  39.383  40.000  14.385
43336W        W10119   3.887  13.648   3.410
43337W        W10120   1.256  43.775  11.850
43338W        W10121  35.708   6.362   2.130
43339W        W10122  31.583   9.334  13.152
43340W        W10123  39.121  26.670  14.910
43341W        W10124  23.948  23.693  10.289
43342W        W10125  11.554  19.778   4.803
43343W        W10126  33.378  34.501  11.535
43344W        W10127  41.036  16.240  13.600
43345W        W10128  19.269   3.295  11.436
43346W        W10129  38.569  20.043   3.129
43347W        W10130  13.827  34.216   2.982
43348W        W10131  22.695   0.542  12.917
43349W        W10132  23.445  42.050  13.258
43350W        W10133  41.847  26.613   4.637
43351W        W10134   3.320  16.871   0.275
43352W        W10135  28.371  11.777  10.706
43353W        W10136  10.828  14.587  11.658
43354W        W10137  19.136   0.938  10.740
43355W        W10138  29.989  18.805   4.351
43356W        W10139   0.300   0.794   3.716
43357W        W10140   7.775  17.360  14.269
43358W        W10141  28.971  35.025   3.681
43359W        W10142  36.347  17.952   3.250
43360W        W10143  29.287   1.822   3.296
43361W        W10144  29.242  11.143   2.877
43362W        W10145  10.400  29.469  10.235
43363W        W10146   8.637  19.683   0.274
43364W        W10147  23.171  29.713   0.455
43365W        W10148  16.287  29.974   2.179
43366W        W10149  20.321   9.569   0.925
43367W        W10150  26.843   7.687   2.296
43368W        W10151  43.916  28.066   0.828
43369W        W10152   8.948   0.507  12.093
43370W        W10153   0.397  21.452   0.377
43371W        W10154  13.540  15.253  12.167
43372W        W10155  18.774  22.765   4.101
43373W        W10156   6.680  38.477   0.373
43374W        W10157  12.173  19.190  11.532
43375W        W10158  13.355  13.688  11.765
43376W        W10159  42.465  22.134   3.557
43377W        W10160  23.698  41.728  12.930
43378W        W10161   0.546  18.810   3.203
43379W        W10162  12.914  26.034  11.098
43380W        W10163  27.412  30.006  13.642
43381W        W10164  41.585  17.691   4.831
43382W        W10165   8.569  37.390  14.952
43383W        W10166   4.851  23.760  12.798
43384W        W10167   5.694  25.085  10.899
43385W        W10168  23.147  42.026  13.985
43386W        W10169  15.742   3.738  14.465
43387W        W10170  30.688  27.533  12.810
43388W        W10171  15.337  25.786  11.471
43389W        W10172  44.992  35.980   4.593
43390W        W10173  30.342   6.443  11.114
43391W        W10174  15.999  16.330  13.236
43392W        W10175  18.797  31.754  11.088
43393W        W10176  19.660  35.063  12.989
43394W        W10177  11.312  12.626   1.251
43395W        W10178  19.998   8.202  12.445
43396W        W10179   8.172  22.630   3.240
43397W        W10180  29.912  35.967  13.776
43398W        W10181  22.625  28.734  13.444
43399W        W10182  44.487  44.442   2.402
43400W        W10183   9.347  36.659  11.832
43401W        W10184  44.590  39.902   4.087
43402W        W10185  31.528  28.330   0.297
43403W        W10186   9.040   7.722  12.538
43404W        W10187  16.810  12.652   4.877
43405W        W10188  18.722  29.339   4.538
43406W        W10189   6.379  42.473   3.889
43407W        W10190   3.949  18.028   2.681
43408W        W10191  41.036  39.117  10.749
43409W        W10192  43.552   9.813   1.227
43410W        W10193  40.528  12.573  12.857
43411W        W10194  11.151  12.191   3.305
43412W        W10195  15.839  32.413  13.409
43413W        W10196   4.109   5.100  14.371
43414W        W10197  22.068  21.156  12.198
43415W        W10198   7.884   5.240   4.924
43416W        W10199  12.775  17.094   0.509
43417W        W10200  40.381  19.096   3.379
43418W        W10201  23.521  38.621   4.586
43419W        W10202   6.071  21.525  14.375
43420W        W10203  41.217  40.070  10.837
43421W        W10204  18.633  23.874  11.315
43422W        W10205  20.829  42.355  11.378
43423W        W10206  15.223  20.603   3.122
43424W        W10207   2.504  20.572   3.269
43425W        W10208   9.094  32.131  10.270
43426W        W10209  43.987   9.857   0.312
43427W        W10210  12.821  44.207   4.728
43428W        W10211  42.884   7.022  10.110
43429W        W10212  42.799   4.356  13.913
43430W        W10213  29.429  35.361   4.551
43431W        W10214   6.673   3.335  10.811
43432W        W10215  10.131  22.587   1.267
43433W        W10216  22.209   5.532   4.500
43434W        W10217  29.606   1.963  12.037
43435W        W10218  14.150  43.976   3.218
43436W        W10219  26.274  17.421   0.908
43437W        W10220  43.818  25.241  14.475
43438W        W10221  28.140  17.503  10.866
43439W        W10222  12.417  24.286  14.135
43440W        W10223  20.992  14.324  11.205
43441W        W10224  27.645  27.504  13.636
43442W        W10225   3.280  23.296   4.875
43443W        W10226  23.999  20.063  10.673
43444W        W10227  12.716  18.705   4.389
43445W        W10228   7.329  34.420   3.704
43446W        W10229  22.302   2.789  14.755
43447W        W10230  38.392  24.272   0.442
43448W        W10231   5.534  24.224  11.269
43449W        W10232  33.582   4.681   2.738
43450W        W10233  28.937   6.952  13.406
43451W        W10234  34.316   2.744  13.927
43452W        W10235  34.512  31.596  14.308
43453W        W10236  34.652  22.251  13.211
43454W        W10237   9.456  21.707  13.179
43455W        W10238  33.069  13.166   3.102
43456W        W10239  15.258  20.523   4.608
43457W        W10240  19.597   2.781   4.108
43458W        W10241  21.423   6.883   0.316
43459W        W10242  33.210  42.989  13.007
43460W        W10243  41.909   4.162  11.903
43461W        W10244  41.080  22.177   4.611
43462W        W10245  13.483  32.898   3.267
43463W        W10246  22.195   2.929  12.190
43464W        W10247   2.388  22.107  12.528
43465W        W10248  24.115  19.463   0.422
43466W        W10249  17.746  33.979  14.639
43467W        W10250  27.692  43.457   3.289
43468W        W10251  29.874  11.597   2.779
43469W        W10252  24.129   7.511   1.686
43470W        W10253  21.517  37.974   4.213
43471W        W10254   4.472   2.459  14.950
43472W        W10255   5.903  44.104   3.280
43473W        W10256  24.430  13.117  10.962
43474W        W10257   5.606   3.164   2.835
43475W        W10258  43.927  37.995   1.992
43476W        W10259   0.056  34.528   1.424
43477W        W10260  44.265  39.965  10.070
43478W        W10261  27.921  29.963  12.617
43479W        W10262  19.559  24.030   0.003
43480W        W10263  33.678  28.161  10.630
43481W        W10264  35.530   9.855  12.001
43482W        W10265   0.962  42.799  12.567
43483W        W10266  23.224   5.855  13.171
43484W        W10267  36.629  13.614  10.741
43485W        W10268  33.685  32.238   1.637
43486W        W10269  17.876  38.111   4.125
43487W        W10270  10.781   2.536   4.156
43488W        W10271   7.935  10.862  11.935
43489W        W10272  41.005  31.620  14.300
43490W        W10273  34.794  16.524  11.558
43491W        W10274   4.413  25.680   2.606
43492W        W10275  20.276  42.576   0.769
43493W        W10276  38.104  32.699   1.833
43494W        W10277  20.575  19.169   4.452
43495W        W10278  18.132  26.124  13.536
43496W        W10279  33.477  40.949   3.266
43497W        W10280  44.860  13.170   3.747
43498W        W10281  19.875  32.903   4.194
43499W        W10282  29.521   9.450  10.723
43500W        W10283  14.196  43.449   3.283
43501W        W10284  18.570  13.330   3.652
43502W        W10285  34.840  20.275  11.643
43503W        W10286   6.195  12.697   1.486
43504W        W10287  13.596   8.717   0.732
43505W        W10288  40.301  23.536  10.589
43506W        W10289  10.332  18.152  10.048
43507W        W10290  24.198  10.279   1.164
43508W        W10291   6.351  23.605  14.684
43509W        W10292   7.459  15.631   0.449
43510W        W10293  29.421  31.144  11.159
43511W        W10294  44.970  22.951  14.755
43512W        W10295  23.960  41.413   5.018
43513W        W10296  24.872  43.199   1.258
43514W        W10297  42.348  38.112   1.894
43515W        W10298  40.635  35.902   1.712
43516W        W10299  30.706  20.721   9.828
43517W        W10300   8.721  30.385  12.513
43518W        W10301  27.404  35.326  13.260
43519W        W10302  27.068  19.269   0.285
43520W        W10303  13.025   6.733  11.769
43521W        W10304  14.248  10.592  13.932
43522W        W10305  10.205  24.553  12.572
43523W        W10306  38.896  26.625  11.063
43524W        W10307  42.139  27.861   4.995
43525W        W10308  20.980   6.386   3.463
43526W        W10309   8.633   3.867  14.431
43527W        W10310  28.059   8.216   2.018
43528W        W10311   5.337   8.923   3.797
43529W        W10312  44.790  34.946   4.541
43530W        W10313  34.673  32.052  12.930
43531W        W10314  10.204  36.352  11.489
43532W        W10315   5.356  32.811  14.457
43533W        W10316  20.035  26.788   5.084
43534W        W10317   3.064  25.398  13.417
43535W        W10318  17.335   3.868  12.441
43536W        W10319  32.922  33.396  11.246
43537W        W10320  13.810   9.638  12.638
43538W        W10321  30.093  12.153   3.786
43539W        W10322  12.197  29.361  12.046
43540W        W10323  20.182   8.923  12.909
43541W        W10324  44.747  43.161  13.105
43542W        W10325  41.802  11.188   2.191
43543W        W10326  20.593   5.106   3.228
43544W        W10327  19.440  32.603  11.648
43545W        W10328  27.439  43.673   0.103
43546W        W10329  23.413  23.026   4.099
43547W        W10330  32.094  11.519   0.793
43548W        W10331  27.775  34.108  10.634
43549W        W10332  29.792  34.168   3.762
43550W        W10333  25.724  36.485  12.472
43551W        W10334  23.734  25.610   2.698
43552W        W10335  27.410   1.856   1.444
43553W        W10336  25.711  28.410  10.041
43554W        W10337   6.227  16.581   4.350
43555W        W10338   7.992  29.955   4.186
43556W        W10339  25.015  21.172   2.485
43557W        W10340   1.195  34.122  10.597
43558W        W10341   0.612  39.078   4.119
43559W        W10342   1.121  37.481  12.470
43560W        W10343  11.156   4.796  12.372
43561W        W10344  17.597  44.452   1.841
43562W        W10345  18.606  42.863  11.137
43563W        W10346  22.772  39.427   1.697
43564W        W10347  21.413  42.860   1.215
43565W        W10348  27.157  23.467  12.545
43566W        W10349   8.492  42.088  14.323
43567W        W10350  23.571   9.726  13.746
43568W        W10351  36.945   5.315  10.640
43569W        W10352   1.805  32.012  13.951
43570W        W10353  25.817  33.588  14.913
43571W        W10354  13.643  39.404  13.431
43572W        W10355  17.775  18.346   1.355
43573W        W10356   6.743   1.002  11.560
43574W        W10357  23.978  44.803   2.246
43575W        W10358  16.120  33.324   4.729
43576W        W10359   0.780  38.124   1.203
43577W        W10360  19.052  27.723   4.466
43578W        W10361  40.731  41.754  11.923
43579W        W10362  21.183  16.148  10.937
43580W        W10363  26.259  38.280  10.207
43581W        W10364  14.105   2.033  11.492
43582W        W10365  18.854  24.282   5.082
43583W        W10366   6.355  17.155   2.221
43584W        W10367  19.159  20.147   3.911
43585W        W10368  32.428  27.412  10.611
43586W        W10369   3.207  26.417  12.588
43587W        W10370  40.856  18.682   1.157
43588W        W10371  26.031  17.331   3.074
43589W        W10372  13.876  10.713   2.826
43590W        W10373  22.950  28.699  13.854
43591W        W10374  27.549  17.148   1.816
43592W        W10375  36.618   7.944  10.821
43593W        W10376  43.168   0.364  12.821
43594W        W10377   3.509  32.639   0.232
43595W        W10378  36.073  15.868  13.029
43596W        W10379  31.512  25.675   4.893
43597W        W10380  25.551  44.887  14.542
43598W        W10381  26.337  39.428   4.489
43599W        W10382  32.958  42.750  12.599
43600W        W10383  23.614   4.474  14.309
43601W        W10384   0.077  41.371  11.729
43602W        W10385  23.503  29.968   2.330
43603W        W10386   0.168  43.533   3.880
43604W        W10387   3.824  15.492  10.372
43605W        W10388  34.965  39.131  13.259
43606W        W10389  42.200  34.958   0.754
43607W        W10390  31.813  17.159  10.679
43608W        W10391  23.628  17.771   4.698
43609W        W10392  28.488  35.858   4.482
43610W        W10393   9.538  35.526   0.717
43611W        W10394   1.221  33.125  12.809
43612W        W10395  14.592   4.396   4.776
43613W        W10396   6.778  32.627   2.840
43614W        W10397   5.721   9.107  12.974
43615W        W10398  26.169  22.824  14.209
43616W        W10399  26.301   6.321   3.547
43617W        W10400  25.243  36.268  12.412
43618W        W10401  30.419  43.224  11.967
43619W        W10402  44.057  40.663  13.142
43620W        W10403  34.266   1.438   4.044
43621W        W10404  14.231  29.135   4.663
43622W        W10405  20.682   6.570   1.386
43623W        W10406  32.908  32.927   1.845
43624W        W10407  30.308  25.628  11.225
43625W        W10408  35.068   2.505  10.491
43626W        W10409   7.380  40.413   1.709
43627W        W10410  16.622  29.502  14.990
43628W        W10411  23.099  40.331  13.548
43629W        W10412  11.011  20.599   0.008
43630W        W10413  39.194  19.677   0.669
43631W        W10414  13.087   5.384  13.897
43632W        W10415  32.020  10.237   1.481
43633W        W10416  20.701  21.628  14.391
43634W        W10417  36.958  20.070   4.210
43635W        W10418  43.262   3.414   0.980
43636W        W10419  30.358   3.735  11.555
43637W        W10420  21.299  32.940   4.393
43638W        W10421  11.147  23.681   4.275
43639W        W10422  26.157  34.719   3.256
43640W        W10423  28.727  43.088   4.702
43641W        W10424   3.545  39.713   2.564
43642W        W10425  16.689   1.894  11.205
43643W        W10426  23.109  12.070   2.823
43644W        W10427  16.658   7.728   2.295
43645W        W10428  35.066  18.154  11.682
43646W        W10429  32.897  27.173   2.186
43647W        W10430   3.510  42.155  11.111
43648W        W10431   7.775  24.969  13.406
43649W        W10432   2.667  12.678   3.746
43650W        W10433   6.377  43.788   2.034
43651W        W10434   1.310  43.706   2.686
43652W        W10435  40.787  15.771  13.780
43653W        W10436  27.650  28.956   0.176
43654W        W10437  28.625  41.264  11.968
43655W        W10438  34.737  14.212  13.250
43656W        W10439  39.449  19.470  13.394
43657W        W10440  12.291  29.569   1.291
43658W        W10441   6.445   0.981   0.549
43659W        W10442  44.565  44.924   1.659
43660W        W10443  28.974  23.743  14.467
43661W        W10444  40.778  42.339  14.955
43662W        W10445  14.430   4.911   3.571
43663W        W10446  16.372   6.941  11.069
43664W        W10447   2.661  27.687   2.322
43665W        W10448   0.194  40.885  14.611
43666W        W10449  10.334  21.709  14.731
43667W        W10450  21.683  27.211  14.280
43668W        W10451  44.094  11.228  12.558
43669W        W10452   0.821  32.532   4.615
43670W        W10453   4.904  21.183   3.197
43671W        W10454  35.538   4.156   0.857
43672W        W10455  21.907  16.806  14.383
43673W        W10456  36.370  21.410   2.344
43674W        W10457  23.786  40.477  14.776
43675W        W10458  22.178   5.834  14.960
43676W        W10459   4.640  10.822  13.580
43677W        W10460  20.641  35.313  11.946
43678W        W10461  34.133  43.245   1.792
43679W        W10462  34.412  43.594  13.895
43680W        W10463  19.406   5.249  13.873
43681W        W10464  44.775  23.577   4.187
43682W        W10465  25.341  10.514  11.906
43683W        W10466  14.625  19.690  14.737
43684W        W10467  12.362  17.830  11.178
43685W        W10468  20.263  30.913   2.415
43686W        W10469   8.843  44.091  13.852
43687W        W10470  35.100  43.366  14.162
43688W        W10471  12.007   9.771  14.735
43689W        W10472   2.319  32.040   2.689
43690W        W10473  20.138  34.501   4.653
43691W        W10474   9.616   5.489  13.508
43692W        W10475  40.962  15.389  13.005
43693W        W10476  29.613  25.520  14.260
43694W        W10477   9.185  37.823  14.898
43695W        W10478   3.725  14.600  10.633
43696W        W10479  38.819  16.459   3.777
43697W        W10480   7.827  37.964  12.467
43698W        W10481  14.689  35.696   9.948
43699W        W10482  12.401  14.804  11.013
43700W        W10483  34.831  39.425   2.210
43701W        W10484  22.517  24.738  13.433
43702W        W10485  12.165  33.084   4.081
43703W        W10486  20.049  10.279   2.738
43704W        W10487  21.281  35.847  12.385
43705W        W10488  42.033   1.517  10.783
43706W        W10489  43.552  22.436  12.510
43707W        W10490   4.959  33.083  13.313
43708W        W10491  14.114  10.576   1.838
43709W        W10492   1.763  41.312  14.788
43710W        W10493  33.029  24.989   4.284
43711W        W10494  10.622  16.216  11.461
43712W        W10495   3.884   6.040  14.519
43713W        W10496  17.259  28.259   3.175
43714W        W10497   0.033  37.602  12.052
43715W        W10498  23.746  21.186   4.683
43716W        W10499   2.521   8.435   1.683
43717W        W10500  30.265  21.592   0.385
43718W        W10501  41.864  16.574   3.835
43719W        W10502  42.401  42.008   2.001
43720W        W10503   0.231  19.254   3.215
43721W        W10504  32.646  27.210   1.198
43722W        W10505  11.043  44.543  12.696
43723W        W10506  35.082  15.701  12.920
43724W        W10507  19.138   0.942  14.367
43725W        W10508  11.247   6.439   3.258
43726W        W10509  19.529   3.647   3.796
43727W        W10510  34.859  44.107   1.822
43728W        W10511  24.653  11.016  12.579
43729W        W10512   9.430  16.555  14.805
43730W        W10513  38.158  34.565  10.442
43731W        W10514  25.074  17.713   2.608
43732W        W10515  31.134  21.669  13.887
43733W        W10516  16.169  26.145   3.763
43734W        W10517  39.842  13.189   4.517
43735W        W10518  13.923  16.179  11.036
43736W        W10519  12.061  14.823   1.322
43737W        W10520  22.471  12.122  12.548
43738W        W10521  38.852  31.182  12.039
43739W        W10522  36.771  15.628  13.534
43740W        W10523   6.683  38.807   0.802
43741W        W10524  19.444  10.216  10.286
43742W        W10525  11.667  37.847   2.162
43743W        W10526  15.257  41.338   4.614
43744W        W10527   6.160  44.228   1.851
43745W        W10528  11.563   4.530  12.102
43746W        W10529  19.445  37.131   0.859
43747W        W10530  22.542  39.897   5.165
43748W        W10531  31.117  14.691  10.461
43749W        W10532  43.913  13.448   2.975
43750W        W10533  17.637  31.447  14.372
43751W        W10534  15.334  44.735  11.567
43752W        W10535  32.372   0.724  13.511
43753W        W10536   8.975  39.020  12.013
43754W        W10537  10.014   1.629  12.031
43755W        W10538  30.453  32.942   1.451
43756W        W10539  26.878   7.238   3.432
43757W        W10540   8.467   8.843  11.931
43758W        W10541  30.121  12.246   4.653
43759W        W10542  38.419  11.907  11.189
43760W        W10543  43.390   2.371  12.492
43761W        W10544   6.739  33.995   2.160
43762W        W10545   4.396   1.979   4.068
43763W        W10546   0.649  34.312   4.024
43764W        W10547  21.562  30.059   3.377
43765W        W10548  28.140  43.721   3.098
43766W        W10549  44.039   4.644  10.120
43767W        W10550  26.216  23.225  14.756
43768W        W10551  25.096   5.007   0.256
43769W        W10552  22.109   4.869   3.362
43770W        W10553  35.402   0.391   0.294
43771W        W10554   6.279  19.004  12.482
43772W        W10555   4.973  14.700   2.199
43773W        W10556  22.286  24.047   2.111
43774W        W10557   2.107  13.613  11.563
43775W        W10558  29.091  25.768  12.025
43776W        W10559   3.657  15.708  14.752
43777W        W10560  24.390  14.043   1.781
43778W        W10561  22.669  24.322   3.528
43779W        W10562  22.278   5.555   2.853
43780W        W10563  17.644  41.055   3.263
43781W        W10564  32.125  31.297  12.536
43782W        W10565  35.683  21.949  14.434
43783W        W10566  28.106  13.918  12.961
43784W        W10567  29.419  36.866   1.442
43785W        W10568  20.884  32.543  10.639
43786W        W10569  11.595   2.956  11.124
43787W        W10570  27.461  20.825   1.066
43788W        W10571   8.424  43.865  12.994
43789W        W10572   3.661   2.243   3.676
43790W        W10573   2.219   4.294   3.681
43791W        W10574  29.039  24.318  13.465
43792W        W10575  14.073  38.437   2.299
43793W        W10576  23.017  26.004  14.880
43794W        W10577  15.759  40.861   3.540
43795W        W10578  44.030  22.864  14.346
43796W        W10579  31.379  23.752   3.283
43797W        W10580  44.019  17.346  12.467
43798W        W10581   1.224  21.650   1.820
43799W        W10582   1.708   1.816   2.672
43800W        W10583   7.134  31.547  11.028
43801W        W10584   3.465  19.112  12.522
43802W        W10585  43.014  14.608   1.656
43803W        W10586  15.993  14.840   2.615
43804W        W10587  15.854  44.074  12.473
43805W        W10588  11.870   1.346  12.866
43806W        W10589  29.790   7.161   3.378
43807W        W10590  34.269  42.329   3.306
43808W        W10591   9.761   6.628   0.294
43809W        W10592  38.353   7.776  10.152
43810W        W10593  15.562  36.789  12.086
43811W        W10594   2.282  31.544  10.540
43812W        W10595   6.323  31.624  12.427
43813W        W10596  33.097  20.978  13.531
43814W        W10597  32.769   0.550   4.133
43815W        W10598  40.040   4.525   3.229
43816W        W10599  39.925  43.423  10.828
43817W        W10600   6.678  15.070   4.060
43818W        W10601  40.271  18.527  10.730
43819W        W10602   5.338  14.947   1.130
43820W        W10603  37.767   6.436   3.640
43821W        W10604  27.601  21.780  10.405
43822W        W10605  41.725  22.906   1.916
43823W        W10606  19.046   2.018   2.229
43824W        W10607   0.202  31.747  11.839
43825W        W10608   4.565  26.611  14.273
43826W        W10609  28.906  39.900   3.599
43827W        W10610  18.950  37.661  12.159
43828W        W10611  28.498  34.341   2.382
43829W        W10612  35.272   0.350   4.670
43830W        W10613  15.673  12.221   5.007
43831W        W10614  17.868  16.274   0.206
43832W        W10615  41.473  44.306   2.210
43833W        W10616  38.778  34.608  10.023
43834W        W10617  41.203  18.028  14.283
43835W        W10618   2.040   7.955   4.442
43836W        W10619   2.233  13.625   1.321
43837W        W10620   5.864  22.073   0.740
43838W        W10621  19.594   8.262   3.047
43839W        W10622  29.057   0.920   4.665
43840W        W10623   4.251   4.876   3.096
43841W        W10624  39.913  13.266  13.762
43842W        W10625  32.966  19.745  13.020
43843W        W10626  38.411  42.579  10.885
43844W        W10627  18.253  14.554   3.298
43845W        W10628  31.184  38.962   2.276
43846W        W10629  11.055  14.843  10.707
43847W        W10630   3.459  33.615   3.697
43848W        W10631  25.496   6.103   1.971
43849W        W10632  42.388  22.392   0.837
43850W        W10633  31.420   4.060  14.740
43851W        W10634  12.756   5.746  12.010
43852W        W10635   9.339  33.304  14.885
43853W        W10636  37.242   7.404   4.667
43854W        W10637   6.899  33.142  12.940
43855W        W10638  32.987  22.256   1.470
43856W        W10639  17.156  10.584  11.165
43857W        W10640  22.131  33.025  12.066
43858W        W10641   3.454  43.051   1.957
43859W        W10642  15.719   3.022   2.454
43860W        W10643  10.287  10.817   3.906
43861W        W10644   0.238  43.056   1.286
43862W        W10645  39.529  24.859   3.584
43863W        W10646  30.191  13.208   3.317
43864W        W10647  11.646  26.537  14.288
43865W        W10648  30.604  12.591  10.712
43866W        W10649  38.477  36.607  12.925
43867W        W10650  18.573  21.055   1.528
43868W        W10651  12.363  39.444   0.995
43869W        W10652  42.581   6.355  14.755
43870W        W10653  29.328  15.350   2.868
43871W        W10654  23.827  43.326   2.256
43872W        W10655  27.920  24.408  13.024
43873W        W10656  44.808  11.386   4.109
43874W        W10657  27.544  10.857  14.345
43875W        W10658   9.366  20.412   1.191
43876W        W10659  31.001   1.196  13.878
43877W        W10660  24.125  38.872   1.443
43878W        W10661   6.491  16.973  13.761
43879W        W10662  26.074   7.320  11.904
43880W        W10663  37.883   2.910   2.701
43881W        W10664  26.404  25.145   1.662
43882W        W10665  11.428  19.762   3.328
43883W        W10666  26.581  30.276   1.061
43884W        W10667  24.762  18.034  13.931
43885W        W10668   5.668   7.884   0.871
43886W        W10669  33.990  17.621  14.461
43887W        W10670  44.667   4.931   3.615
43888W        W10671  11.593  34.553   0.809
43889W        W10672  29.950  30.029   4.357
43890W        W10673  39.444   6.888   3.033
43891W        W10674   7.345   8.783  13.340
43892W        W10675  42.760  17.742  13.994
43893W        W10676  41.676  34.452   2.790
43894W        W10677   4.708   6.933  14.398
43895W        W10678  19.554  33.028   0.920
43896W        W10679  43.524  39.355  13.353
43897W        W10680   1.210   1.441  14.166
43898W        W10681  17.729  18.698  14.813
43899W        W10682   2.562  19.046   0.937
43900W        W10683  14.446  10.811   3.598
43901W        W10684  17.303   4.921  10.476
43902W        W10685  44.357  12.582   3.263
43903W        W10686  29.610   3.461   4.474
43904W        W10687  33.988   7.402  12.286
43905W        W10688  40.272   3.925   2.984
43906W        W10689  30.109  42.658  10.225
43907W        W10690  39.111  17.244   3.491
43908W        W10691  25.704  18.780  11.144
43909W        W10692  37.876  19.618  13.330
43910W        W10693   4.135   7.990  11.096
43911W        W10694  11.225  17.740  10.394
43912W        W10695  17.604  35.868   3.146
43913W        W10696   7.109  39.157  11.239
43914W        W10697  30.429  35.014  11.148
43915W        W10698  20.819   0.822   3.754
43916W        W10699  42.219  36.572   1.299
43917W        W10700  14.234   2.503  14.508
43918W        W10701   1.229  24.504  14.669
43919W        W10702  28.717   0.279  13.807
43920W        W10703  19.727   5.906   4.469
43921W        W10704  31.453  14.142   1.901
43922W        W10705  28.185  10.314   3.204
43923W        W10706  26.422   6.159  10.669
43924W        W10707  14.899  20.504  14.905
43925W        W10708  19.806   5.296  14.188
43926W        W10709  41.277  22.931  12.861
43927W        W10710  32.647  16.907  12.954
43928W        W10711  20.354   9.883  13.333
43929W        W10712  13.127   5.224  11.249
43930W        W10713   5.249  42.370   0.700
43931W        W10714  10.881  43.314  12.056
43932W        W10715  24.046   2.000   0.300
43933W        W10716  37.415  32.500   1.345
43934W        W10717  24.945  26.539   2.205
43935W        W10718  22.644  12.783   3.203
43936W        W10719  38.545  11.627   2.438
43937W        W10720  43.532  26.065  12.670
43938W        W10721  15.718   9.949  12.133
43939W        W10722  34.459  40.066  11.577
43940W        W10723  44.971  37.975  12.423
43941W        W10724   0.467  31.530  13.325
43942W        W10725  17.914  40.862   2.855
43943W        W10726   3.793  15.934  14.000
43944W        W10727   8.852   8.334   1.136
43945W        W10728  25.768  27.268   3.035
43946W        W10729   4.278  33.550   3.387
43947W        W10730  38.806  33.205   3.308
43948W        W10731  28.382   3.228  10.691
43949W        W10732  15.720   5.949  14.997
43950W        W10733  17.565  13.570   3.288
43951W        W10734  12.929   6.120   4.112
43952W        W10735  43.504  29.908   4.523
43953W        W10736  10.159  43.478   1.837
43954W        W10737  13.746   2.737  14.551
43955W        W10738  10.415  42.872   3.617
43956W        W10739  23.092  20.745   0.623
43957W        W10740  18.718  30.249  13.030
43958W        W10741  21.876   6.736   2.240
43959W        W10742  17.467  37.849   9.822
43960W        W10743  29.889  12.307  10.393
43961W        W10744   8.744  15.817   2.749
43962W        W10745  23.419  18.575  12.879
43963W        W10746  26.779  15.602   0.827
43964W        W10747  35.416  16.256   1.622
43965W        W10748  12.749  27.123  12.474
43966W        W10749  33.609  34.447  14.444
43967W        W10750  22.615   6.489   3.772
43968W        W10751  36.010  20.487  12.161
43969W        W10752  20.202  40.948  11.115
43970W        W10753  29.532  22.383   1.375
43971W        W10754  15.274  22.933  13.356
43972W        W10755  20.358  40.866  14.717
43973W        W10756  12.335  37.097  14.306
43974W        W10757  40.034   5.722  11.588
43975W        W10758  32.675   8.389   1.927
43976W        W10759  14.580  41.205  14.936
43977W        W10760  11.261  42.695   0.223
43978W        W10761  34.143  14.583  14.292
43979W        W10762  44.352  33.135   4.305
43980W        W10763  23.070  34.658   4.843
43981W        W10764  35.903  12.174  10.742
43982W        W10765  10.829  14.074  14.845
43983W        W10766  41.259  30.221  12.084
43984W        W10767  39.807  33.520  12.961
43985W        W10768   0.006  22.332   2.243
43986W        W10769  35.774  44.245  10.575
43987W        W10770  13.694   7.132  10.285
43988W        W10771  14.139  10.560   3.254
43989W        W10772  26.956   1.304   0.960
43990W        W10773  36.674  12.907  14.550
43991W        W10774  42.225  43.144   2.822
43992W        W10775   0.408  36.123   4.960
43993W        W10776  26.044  10.859   2.323
43994W        W10777   3.748   2.046  12.058
43995W        W10778  12.072  18.327  14.294
43996W        W10779  15.855  22.330  13.966
43997W        W10780  41.945   1.439   3.675
43998W        W10781  26.231  26.936   3.215
43999W        W10782  19.815  44.087  12.101
44000W        W10783   5.769   0.802  11.086
44001W        W10784  10.322   2.781   3.458
44002W        W10785   6.530  44.795   1.375
44003W        W10786  10.105  11.865   4.106
44004W        W10787  23.446  26.635  14.370
44005W        W10788  39.129  15.298  13.031
44006W        W10789  31.154   6.427   0.475
44007W        W10790  16.828  37.044   2.636
44008W        W10791   4.133  26.695   0.881
44009W        W10792   6.744  36.800  11.521
44010W        W10793  17.082   2.947  13.330
44011W        W10794  23.834   5.499  14.602
44012W        W10795  14.635  27.717   2.184
44013W        W10796  13.804  19.535  11.599
44014W        W10797  35.617  22.033   3.687
44015W        W10798   2.362  27.892   0.711
44016W        W10799  15.326   2.506  14.259
44017W        W10800  43.519  20.755   2.279
44018W        W10801  26.375  43.470   4.038
44019W        W10802  16.346   2.728  11.938
44020W        W10803  43.556  12.917   0.162
44021W        W10804   2.414   5.900   4.251
44022W        W10805  27.477   0.077  12.566
44023W        W10806  23.346  18.809  13.728
44024W        W10807  20.855  26.391   3.614
44025W        W10808  33.716  12.837   0.150
44026W        W10809  18.679  10.656   0.243
44027W        W10810  27.692  22.594  14.940
44028W        W10811  38.821  31.917   3.748
44029W        W10812  38.347  44.604   1.269
44030W        W10813  22.427   0.080   4.240
44031W        W10814   4.685  36.785  12.145
44032W        W10815  22.134  19.481  10.965
44033W        W10816  39.560  26.953  11.965
44034W        W10817  26.706  15.564   3.617
44035W        W10818   3.789  17.793  10.666
44036W        W10819  35.015  19.636   1.283
44037W        W10820  31.794  13.117   0.799
44038W        W10821  14.087  10.183   4.199
44039W        W10822  33.637  38.951   1.225
44040W        W10823  14.160   8.681   1.949
44041W        W10824  36.090  37.480   2.350
44042W        W10825  25.279  25.853  14.844
44043W        W10826  21.015   0.671   1.494
44044W        W10827  21.663  19.125   2.588
44045W        W10828  16.508  14.521   2.856
44046W        W10829  43.387   9.350  12.516
44047W        W10830  10.723  29.978  13.468
44048W        W10831  35.663  41.008  14.396
44049W        W10832  36.505  13.161  14.947
44050W        W10833  26.930   5.052   0.214
44051W        W10834  35.157  21.256   2.688
44052W        W10835  44.624  32.766  11.576
44053W        W10836  12.590   9.858  13.381
44054W        W10837   1.411  27.841  11.888
44055W        W10838  16.994  38.371  11.460
44056W        W10839  10.934   7.325   4.845
44057W        W10840  35.127   8.042  14.438
44058W        W10841  31.527   7.917  11.549
44059W        W10842   0.022  30.887   3.664
44060W        W10843   1.338  23.846   4.725
44061W        W10844  12.598  26.479   3.169
44062W        W10845  14.362  38.898  11.330
44063W        W10846  43.960  31.370   2.987
44064W        W10847  14.113  41.955  12.940
44065W        W10848  20.538  36.243   1.389
44066W        W10849  33.847  38.980  12.351
44067W        W10850  44.929  31.306  11.815
44068W        W10851   1.714   8.790  11.610
44069W        W10852   5.198  20.327  10.752
44070W        W10853   2.416  20.569   1.877
44071W        W10854   2.805  22.452  10.700
44072W        W10855   8.054  41.843   4.482
44073W        W10856  26.220  42.602   3.708
44074W        W10857  28.991  22.521  11.669
44075W        W10858  21.094   2.968  14.266
44076W        W10859  11.249   2.273   2.842
44077W        W10860  34.270  37.556   3.481
44078W        W10861  11.757  43.309   3.659
44079W        W10862   5.583  14.315  11.574
44080W        W10863   6.229  10.105   4.701
44081W        W10864   8.268  31.402   3.752
44082W        W10865   0.828   8.798   3.692
44083W        W10866  14.748   0.660   0.229
44084W        W10867  23.987  42.573   1.144
44085W        W10868  43.261  34.561   4.448
44086W        W10869   2.045  20.600  12.481
44087W        W10870  13.602  35.179   3.156
44088W        W10871  26.056  13.718  14.716
44089W        W10872   3.411   4.974  12.389
44090W        W10873  26.678  22.105   3.675
44091W        W10874  42.163  14.354   4.005
44092W        W10875   2.830  37.520  11.765
44093W        W10876  44.986  35.025   1.196
44094W        W10877  21.075  40.359   4.363
44095W        W10878  21.734   4.819  14.469
44096W        W10879  44.279   5.525  12.045
44097W        W10880  37.433  38.831   1.320
44098W        W10881  10.564  10.406   0.342
44099W        W10882  37.154  14.007  13.245
44100W        W10883  11.380   9.337  11.085
44101W        W10884   2.360  37.948  13.912
44102W        W10885  16.081  25.470   1.774
44103W        W10886   0.824  12.865  12.390
44104W        W10887  32.610  35.651   1.837
44105W        W10888  38.992  17.532   4.869
44106W        W10889  17.696  39.126   2.179
44107W        W10890  44.481   6.392  12.382
44108W        W10891  24.536  42.873   3.362
44109W        W10892  31.231  25.665  12.933
44110W        W10893  10.223  27.637  12.639
44111W        W10894  20.650   2.824  14.049
44112W        W10895  14.849  39.854  12.136
44113W        W10896  40.869  21.270  12.991
44114W        W10897   1.855  18.518  12.093
44115W        W10898   3.980  33.988  11.599
44116W        W10899   1.651   3.258   4.631
44117W        W10900  35.397   3.688  11.077
44118W        W10901  38.883   9.887  13.031
44119W        W10902  29.006   7.905   2.109
44120W        W10903   5.881  37.875  14.450
44121W        W10904  41.902   0.735  13.890
44122W        W10905   9.365  23.593   4.986
44123W        W10906  39.336  21.381  14.837
44124W        W10907   4.033  35.960   4.195
44125W        W10908  36.908  27.908   0.311
44126W        W10909  11.824   8.128  13.473
44127W        W10910  31.900  14.609  14.933
44128W        W10911  33.838   2.648  11.411
44129W        W10912  17.330  14.561  14.744
44130W        W10913   6.064  10.856  10.008
44131W        W10914  23.985  14.861   0.706
44132W        W10915  32.230   9.139   2.798
44133W        W10916  17.879  32.176   1.975
44134W        W10917  16.056   9.503  11.541
44135W        W10918   3.863   9.737   0.512
44136W        W10919  31.318  32.510  12.921
44137W        W10920  28.038   0.047   3.598
44138W        W10921   6.519   8.394  13.333
44139W        W10922  20.987  31.783   4.984
44140W        W10923  16.583  27.613   4.309
44141W        W10924  41.220  15.687   2.499
44142W        W10925   0.684  19.084  12.109
44143W        W10926   7.619  17.053  10.795
44144W        W10927  10.326   3.690   2.890
44145W        W10928   9.522   0.499  12.946
44146W        W10929  11.201   8.690   1.351
44147W        W10930  33.032  31.166  13.018
44148W        W10931  33.976  26.384   4.104
44149W        W10932   9.775   0.813  14.129
44150W        W10933  11.725  29.344   4.229
44151W        W10934  16.555  31.511  11.974
44152W        W10935  43.152   5.578  13.236
44153W        W10936  27.696  39.057  12.773
44154W        W10937   2.027  10.359   1.553
44155W        W10938  19.189  26.038  13.825
44156W        W10939  42.322  33.623   0.575
44157W        W10940  33.033  29.902  12.359
44158W        W10941  31.900  23.600   4.537
44159W        W10942  43.021  20.958   4.194
44160W        W10943  30.361   8.327  11.086
44161W        W10944   7.934  27.295  13.177
44162W        W10945  37.333   1.803   1.057
44163W        W10946   3.588  34.023  14.019
44164W        W10947  30.614   4.611  13.089
44165W        W10948  22.983  42.074   2.596
44166W        W10949  16.043   0.935   4.151
44167W        W10950   5.841  23.283   0.110
44168W        W10951  18.732   3.206  14.377
44169W        W10952  16.301  33.593  13.492
44170W        W10953  24.542   1.717   4.882
44171W        W10954  36.348  34.326  13.447
44172W        W10955  39.524   9.711   4.096
44173W        W10956  28.049  20.087   4.111
44174W        W10957  40.011  29.489  11.093
44175W        W10958  44.277   1.841  12.322
44176W        W10959   3.705  10.706   0.532
44177W        W10960  25.761  16.357   5.000
44178W        W10961  23.537  33.014   3.914
44179W        W10962   9.293  25.983  14.164
44180W        W10963   1.209  40.870   0.889
44181W        W10964  31.938  29.948  10.750
44182W        W10965   1.758  22.554   0.945
44183W        W10966  35.441  30.745   4.508
44184W        W10967  32.637  16.509   1.432
44185W        W10968  22.705  32.033  13.602
44186W        W10969  41.939   8.109   1.085
44187W        W10970   8.470  10.320  12.132
44188W        W10971  44.131  24.461   0.689
44189W        W10972  39.768  33.217  13.399
44190W        W10973  22.518   6.567  12.587
44191W        W10974  40.975  28.092   0.730
44192W        W10975   6.029  22.793  14.130
44193W        W10976  10.325  16.073  14.479
44194W        W10977  19.600  36.053   1.755
44195W        W10978  32.077  20.289   1.342
44196W        W10979  11.122  33.652   0.842
44197W        W10980  44.976   9.961   4.202
44198W        W10981  38.134  26.431  14.708
44199W        W10982   0.628  36.404  13.937
44200W        W10983   6.014  35.513  12.290
44201W        W10984   5.482  36.408   2.897
44202W        W10985   0.236  12.212   1.401
44203W        W10986  35.569  26.800  11.590
44204W        W10987  42.814  12.680  11.076
44205W        W10988  44.500   0.795   2.306
44206W        W10989  26.674  28.914  12.007
44207W        W10990   7.699  27.767  11.456
44208W        W10991   9.655  33.678  12.401
44209W        W10992   4.512  34.409  13.074
44210W        W10993  29.695  38.942  14.889
44211W        W10994  25.177  16.295   1.344
44212W        W10995  38.896  12.996   4.053
44213W        W10996  11.123  26.185   1.410
44214W        W10997  10.402  33.627  12.084
44215W        W10998  15.130  11.601   2.332
44216W        W10999   6.074   4.855  14.480
44217W        W11000  27.939  35.607  14.494
44218W        W11001   5.664  32.839   0.742
44219W        W11002  34.735  28.710  13.625
44220W        W11003   2.904  30.424  11.517
44221W        W11004  32.104  40.314   2.142
44222W        W11005  10.053  36.482   3.597
44223W        W11006  21.181  14.755  13.796
44224W        W11007  36.845  18.174   2.625
44225W        W11008  23.583  11.411   2.354
44226W        W11009  20.730  17.827  13.432
44227W        W11010   8.629  44.668  11.078
44228W        W11011  34.846   9.824   2.188
44229W        W11012  30.416   0.148   4.862
44230W        W11013  39.119  14.575  12.519
44231W        W11014  18.588  24.090   3.637
44232W        W11015   2.346   9.462   3.050
44233W        W11016   7.789  28.137  13.472
44234W        W11017  31.366   6.612   1.727
44235W        W11018   6.801  16.675  14.679
44236W        W11019  18.587  11.693   1.854
44237W        W11020  23.125  10.706   4.083
44238W        W11021  17.703  41.728  13.979
44239W        W11022  16.445  41.207  11.594
44240W        W11023  13.175   5.424  14.797
44241W        W11024  11.679  25.899  12.850
44242W        W11025  35.184  16.161   4.852
44243W        W11026  25.074   8.831  13.840
44244W        W11027  36.429  40.077   4.271
44245W        W11028   4.777   2.161   4.346
44246W        W11029  40.335  32.016   0.769
44247W        W11030  29.693  14.098  14.344
44248W        W11031   7.148  10.659   4.103
44249W        W11032  38.965  11.109   0.060
44250W        W11033  39.489  37.276   4.660
44251W        W11034  37.933   8.761  12.989
44252W        W11035  26.221  18.700  11.146
44253W        W11036  10.868   6.969  13.441
44254W        W11037  41.737  12.964  13.384
44255W        W11038  12.069   8.355  13.871
44256W        W11039   0.387  10.773   3.117
44257W        W11040   6.014   3.474  12.030
44258W        W11041  28.096  44.233   3.094
44259W        W11042  18.816  10.309  14.855
44260W        W11043  34.798  33.660  13.356
44261W        W11044  44.377  44.448   1.881
44262W        W11045   0.864  35.502   0.925
44263W        W11046  23.793  32.956   1.816
44264W        W11047  36.993  32.419   0.387
44265W        W11048  32.405  19.170   4.099
44266W        W11049  10.771  13.223  11.188
44267W        W11050  44.680  41.023   3.404
44268W        W11051  38.955  18.770  13.716
44269W        W11052  42.834  35.551   4.609
44270W        W11053  22.613   4.686  10.751
44271W        W11054  30.341  32.074  11.033
44272W        W11055  21.621  30.383  11.139
44273W        W11056   0.322  32.785   2.739
44274W        W11057  29.071  44.753  13.048
44275W        W11058   6.625  13.663   0.737
44276W        W11059  11.425  23.588  14.868
44277W        W11060  25.090  24.159   2.772
44278W        W11061  31.951  31.428   4.582
44279W        W11062  40.477  34.987   1.769
44280W        W11063  31.122  20.586   1.737
44281W        W11064  24.217  40.005   1.431
44282W        W11065   5.961  36.958   4.344
44283W        W11066  23.656  36.853  10.762
44284W        W11067  34.599  10.461   3.608
44285W        W11068  19.563  18.760   1.651
44286W        W11069  22.552  22.613   2.618
44287W        W11070   3.747  10.287   3.582
44288W        W11071   8.427   0.756   4.289
44289W        W11072  30.207   4.333   2.804
44290W        W11073   5.770  23.256  14.074
44291W        W11074  29.724  22.243   5.368
44292W        W11075  19.566   8.258   3.625
44293W        W11076  33.609  25.438  10.832
44294W        W11077  38.799  35.664  11.200
44295W        W11078   1.253  41.087   1.779
44296W        W11079  34.513  25.056  14.030
44297W        W11080  13.747  13.267   4.920
44298W        W11081  10.925  33.421  11.033
44299W        W11082  11.578  36.509   9.784
44300W        W11083  41.489   3.003   1.478
44301W        W11084  26.983  21.732  14.781
44302W        W11085  25.206  31.601  14.515
44303W        W11086  11.187  41.514  14.887
44304W        W11087   8.152  32.349  12.681
44305W        W11088  23.504  15.727  10.649
44306W        W11089  23.699  39.852   3.053
44307W        W11090  23.831  43.503   9.958
44308W        W11091  13.225  42.181   1.613
44309W        W11092  13.331  40.017   0.687
44310W        W11093  33.328   9.883   4.978
44311W        W11094  43.680  21.763   0.642
44312W        W11095  12.607  38.257   3.236
44313W        W11096  23.032  15.471  12.804
44314W        W11097  39.531  35.034   2.356
44315W        W11098  18.111   5.490   4.074
44316W        W11099  37.413   7.376   0.080
44317W        W11100  17.262   8.407   2.215
44318W        W11101   5.269   4.265  12.461
44319W        W11102  17.095  41.921   0.675
44320W        W11103  26.421  12.708  12.935
44321W        W11104  20.859  38.713  11.571
44322W        W11105   5.930  30.081   0.844
44323W        W11106  10.775   0.749   2.670
44324W        W11107  31.678  42.157  11.688
44325W        W11108   8.732  25.610  10.831
44326W        W11109  37.367   2.874   0.257
44327W        W11110  28.077   0.685  13.795
44328W        W11111  40.255   3.314   3.626
44329W        W11112  21.049   9.171  12.932
44330W        W11113  19.268  23.434  13.360
44331W        W11114  43.567   0.294   4.772
44332W        W11115  31.080  37.057  10.514
44333W        W11116   1.422  35.047   1.431
44334W        W11117  28.531   9.268   4.606
44335W        W11118   8.636  25.736   0.755
44336W        W11119  33.488  41.235  14.824
44337W        W11120  10.573  31.511   1.342
44338W        W11121  31.996   8.502   0.320
44339W        W11122  15.204  28.601  13.216
44340W        W11123  11.813  36.588   1.768
44341W        W11124   3.237   9.303   3.561
44342W        W11125  36.376  19.430  12.966
44343W        W11126   7.929  22.698   1.402
44344W        W11127  41.212  35.360   0.370
44345W        W11128  40.325   6.360  14.046
44346W        W11129  41.205   5.457   1.851
44347W        W11130   4.655  12.812  12.494
44348W        W11131   4.223  13.655   0.338
44349W        W11132   7.202   1.442  14.509
44350W        W11133  12.365  16.380  13.722
44351W        W11134  38.802  42.242  14.860
44352W        W11135  26.117   9.222   2.401
44353W        W11136  37.543   2.238   2.771
44354W        W11137  24.645  27.634   9.970
44355W        W11138  27.509  16.328  10.639
44356W        W11139  15.485   4.784  12.000
44357W        W11140  13.044   0.258   3.406
44358W        W11141   8.327  11.211  12.968
44359W        W11142  16.074  35.827  11.596
44360W        W11143   9.917  18.855   1.711
44361W        W11144  38.131  18.737  11.765
44362W        W11145  32.394  32.219  12.506
44363W        W11146  16.100  29.786   0.918
44364W        W11147   6.564   6.751   2.267
44365W        W11148   2.749  19.422   2.323
44366W        W11149  26.401  27.703  13.017
44367W        W11150  26.745  30.992  13.834
44368W        W11151   2.764   3.372  10.697
44369W        W11152  35.912   4.737   3.650
44370W        W11153   3.176   7.785   4.986
44371W        W11154   5.880   9.113  14.221
44372W        W11155  39.544  24.711  10.752
44373W        W11156  37.303   7.192   0.547
44374W        W11157  18.810  38.397  13.856
44375W        W11158  12.956   3.329  12.103
44376W        W11159  20.869  41.371  12.006
44377W        W11160  10.060  30.342  11.203
44378W        W11161  25.774  19.606  10.637
44379W        W11162  35.973  22.198   0.372
44380W        W11163   5.719  13.479  11.142
44381W        W11164  32.117  31.879   3.622
44382W        W11165  26.061   4.948   1.758
44383W        W11166  29.524  31.221  12.056
44384W        W11167  23.729  17.936   4.200
44385W        W11168  44.430   0.980  10.616
44386W        W11169  39.771   9.252   1.831
44387W        W11170  38.389   7.222   4.126
44388W        W11171  38.391  15.314   4.627
44389W        W11172  11.058  34.646   0.893
44390W        W11173  41.686  11.727   4.036
44391W        W11174  33.892  18.157   1.478
44392W        W11175  28.751  41.310  10.286
44393W        W11176  31.513  30.263  12.365
44394W        W11177  42.317  31.530   1.792
44395W        W11178  30.001  37.024   4.428
44396W        W11179  24.588   0.322  11.641
44397W        W11180   8.607  38.421   1.800
44398W        W11181   1.923  24.315  13.389
44399W        W11182   0.294   4.893   1.418
44400W        W11183  29.203  11.749  11.695
44401W        W11184   3.145  38.413  13.432
44402W        W11185  43.549  25.373  13.579
44403W        W11186   2.209  12.276   1.132
44404W        W11187  35.924   2.163  10.549
44405W        W11188  26.034   0.878  10.726
44406W        W11189   8.373  41.872  11.268
44407W        W11190   5.205  21.698  11.536
44408W        W11191  22.899  21.807  11.098
44409W        W11192   4.380  40.824   3.713
44410W        W11193   4.463   3.248  14.693
44411W        W11194  10.736  43.849  11.995
44412W        W11195  20.624  16.789   3.606
44413W        W11196   9.189  30.279  12.202
44414W        W11197  11.149  11.821   4.177
44415W        W11198  33.633  26.762   4.654
44416W        W11199  23.270  42.535  14.007
44417W        W11200  43.420  28.240   2.706
44418W        W11201   0.687   8.166  14.913
44419W        W11202  15.496   0.539  14.303
44420W        W11203  38.479  33.055  14.495
44421W        W11204  41.653  13.847  13.181
44422W        W11205  17.341   4.859  14.760
44423W        W11206  42.824  23.751  10.212
44424W        W11207  12.258  12.804  14.310
44425W        W11208  41.519  17.735   1.292
44426W        W11209   2.649  22.972   1.364
44427W        W11210  39.790  15.814  13.510
44428W        W11211  44.393  30.101   1.540
44429W        W11212   9.203  44.842  12.389
44430W        W11213   9.084   8.330   2.835
44431W        W11214  29.059  20.729   2.714
44432W        W11215  41.257   6.308   1.053
44433W        W11216  41.076  12.907   2.316
44434W        W11217   5.944  27.093   4.612
44435W        W11218  22.612   9.302  13.709
44436W        W11219  26.534  23.229  12.479
44437W        W11220   2.302  43.226   2.105
44438W        W11221  16.207  23.606  12.108
44439W        W11222  19.986  19.143   2.844
44440W        W11223   1.580  42.075   3.512
44441W        W11224  28.872  21.026  12.919
44442W        W11225  44.530  17.713   2.390
44443W        W11226  31.415   7.168  13.453
44444W        W11227   1.926  39.887   1.036
44445W        W11228  38.877  26.953   1.273
44446W        W11229  28.422  34.348  14.881
44447W        W11230  24.408  39.927  13.831
44448W        W11231  13.048   4.865   1.349
44449W        W11232  20.987  26.958  13.116
44450W        W11233  14.708  32.031  10.762
44451W        W11234  28.825  24.049  11.504
44452W        W11235  12.072  18.075  13.058
44453W        W11236  38.137   9.527  10.153
44454W        W11237  29.917  26.149  12.420
44455W        W11238  26.212  31.814   0.432
44456W        W11239  24.881  29.930   0.948
44457W        W11240   0.384   1.245   4.598
44458W        W11241  14.706  20.956   0.473
44459W        W11242  20.619  23.429   3.355
44460W        W11243  24.008  14.887   0.213
44461W        W11244  38.590  21.560  14.346
44462W        W11245  20.795  38.027  13.090
44463W        W11246   3.950  41.693   4.652
44464W        W11247  26.848  40.134  13.416
44465W        W11248   8.217  38.622   2.684
44466W        W11249  33.003  36.439   1.278
44467W        W11250   8.257  41.437  12.987
44468W        W11251  10.807   5.599   0.488
44469W        W11252   3.220   9.923  11.499
44470W        W11253  19.992  32.468  11.657
44471W        W11254  40.803  25.086   2.203
44472W        W11255  16.525  28.094   4.484
44473W        W11256   3.955  41.509  13.946
44474W        W11257  40.280   4.945   0.007
44475W        W11258  38.807  14.874  14.434
44476W        W11259  13.352   9.611  13.878
44477W        W11260  40.859  29.018   0.312
44478W        W11261  37.443  35.257   0.969
44479W        W11262  42.498   4.804   5.055
44480W        W11263  17.694  24.243   1.357
44481W        W11264   5.956  42.417  12.164
44482W        W11265  41.840  43.486   2.715
44483W        W11266  19.086   7.837  13.014
44484W        W11267  29.413  34.421   2.471
44485W        W11268  34.183  13.076   3.288
44486W        W11269  44.089  16.935   5.459
44487W        W11270  13.217   5.297   2.429
44488W        W11271   0.954  30.766   0.949
44489W        W11272  44.198  22.743   3.790
44490W        W11273  39.746  29.903  13.413
44491W        W11274  11.437  27.692  14.008
44492W        W11275  32.707  10.829   3.928
44493W        W11276  43.281   2.466   3.280
44494W        W11277  22.222  23.778   4.528
44495W        W11278  10.159  28.487   0.545
44496W        W11279   8.525   5.323   2.769
44497W        W11280   3.720  25.670  12.788
44498W        W11281  14.300   1.279  13.052
44499W        W11282  13.288  29.080  11.568
44500W        W11283  17.069  26.754  11.110
44501W        W11284  10.723  40.719  14.803
44502W        W11285  28.469  33.247   1.594
44503W        W11286  23.055  42.760   4.081
44504W        W11287  11.632  21.158  10.415
44505W        W11288  32.623   9.676   0.984
44506W        W11289  22.199  36.847  13.594
44507W        W11290  11.103  16.076  12.492
44508W        W11291  25.120   3.468   3.758
44509W        W11292  17.217   5.982   3.911
44510W        W11293  24.000  44.113   4.132
44511W        W11294   4.895  39.881   1.484
44512W        W11295   5.508   3.432  12.016
44513W        W11296  20.479   3.128  10.314
44514W        W11297  43.894  25.960  11.906
44515W        W11298  36.389   5.845   0.661
44516W        W11299  41.359  43.958   3.842
44517W        W11300  34.841  25.080   2.781
44518W        W11301  13.855  40.787   0.474
44519W        W11302   4.949  31.115  14.353
44520W        W11303  30.446  17.268   4.789
44521W        W11304  42.869  24.303  10.765
44522W        W11305  44.864   5.659   4.147
44523W        W11306  13.679  20.022  14.730
44524W        W11307   2.624  27.490   4.602
44525W        W11308  15.689  18.667  14.810
44526W        W11309   2.526  40.992  10.722
44527W        W11310  33.591  21.535  14.682
44528W        W11311  35.746  34.640   0.017
44529W        W11312  21.336  39.407   1.367
44530W        W11313  16.156  35.931   2.373
44531W        W11314   2.472   6.275   2.875
44532W        W11315  19.780  39.446  13.300
44533W        W11316  26.896  20.789  11.672
44534W        W11317  35.615  41.309  10.705
44535W        W11318  12.185   4.496  10.753
44536W        W11319  30.113   9.617   0.604
44537W        W11320  37.148  42.466   3.780
44538W        W11321  44.317  36.640  14.416
44539W        W11322  16.609  22.040  14.150
44540W        W11323  32.987  34.344   1.261
44541W        W11324   2.400   1.072   0.799
44542W        W11325  42.843  27.819  11.611
44543W        W11326  30.928   1.713  14.849
44544W        W11327   1.989   3.026   3.837
44545W        W11328  17.139   6.113  14.003
44546W        W11329  38.579  30.608   0.335
44547W        W11330  38.966  27.155   0.348
44548W        W11331  42.870  27.424  13.640
44549W        W11332   1.928  34.458   4.622
44550W        W11333  20.439   5.586   1.399
44551W        W11334  33.859  31.476  12.902
44552W        W11335  33.722  40.580   4.641
44553W        W11336  31.853  13.595   3.921
44554W        W11337  22.854   0.821  11.612
44555W        W11338  29.180  41.485  11.189
44556W        W11339   6.338  36.800  11.202
44557W        W11340  39.632  35.602   2.667
44558W        W11341  33.954  13.312   4.520
44559W        W11342   5.477  41.529  12.941
44560W        W11343   0.792  40.885   4.844
44561W        W11344  33.387  44.301  12.329
44562W        W11345  25.503  37.818   2.231
44563W        W11346  30.099  18.602  11.932
44564W        W11347   3.461   8.747  11.211
44565W        W11348   7.509  20.596  12.165
44566W        W11349  28.519  37.177  13.538
44567W        W11350  44.459  16.420   5.077
44568W        W11351   1.471  21.748   2.641
44569W        W11352  24.026  44.334   4.976
44570W        W11353  26.992  20.019   4.159
44571W        W11354   3.002   3.748   1.863
44572W        W11355  31.214   9.693  11.867
44573W        W11356  34.767  19.089   2.339
44574W        W11357  30.039   2.053  13.574
44575W        W11358   6.468  40.090  14.337
44576W        W11359  21.945  32.153   2.037
44577W        W11360  39.405   2.917   3.351
44578W        W11361  35.462  10.454   0.398
44579W        W11362  14.797  29.659   4.300
44580W        W11363  13.262  44.106   2.368
44581W        W11364   5.442   1.354   3.622
44582W        W11365  33.005   6.416   0.297
44583W        W11366  31.916  41.540   0.054
44584W        W11367  35.426   3.587  14.604
44585W        W11368   2.000  41.561  13.781
44586W        W11369  14.140   4.937   0.478
44587W        W11370   2.816  33.975   1.824
44588W        W11371  14.197  42.125  12.014
44589W        W11372  10.148   5.427   0.632
44590W        W11373  36.941  14.839   3.833
44591W        W11374  37.400  13.547  13.961
44592W        W11375  14.236  19.318   3.280
44593W        W11376  34.168  44.060   3.293
44594W        W11377  43.593  33.793   0.749
44595W        W11378  30.630  21.726   1.696
44596W        W11379   7.787  36.633   3.722
44597W        W11380  38.086  21.575   1.538
44598W        W11381  40.465   3.901  12.298
44599W        W11382  26.203   2.668  10.134
44600W        W11383  19.544  20.465  12.622
44601W        W11384   1.553   3.431  13.429
44602W        W11385  43.084   9.786   3.762
44603W        W11386   5.031  16.556  12.596
44604W        W11387   3.914  32.139   2.633
44605W        W11388  12.610  34.005   4.286
44606W        W11389  10.341  19.302  10.721
44607W        W11390  36.141  16.821   3.673
44608W        W11391   9.210   8.908  13.900
44609W        W11392  39.048  43.208  12.146
44610W        W11393  10.614  36.574  13.109
44611W        W11394  14.119  12.068  13.519
44612W        W11395  44.377   1.292   0.696
44613W        W11396  43.374  23.131   3.571
44614W        W11397  38.575   2.763   2.304
44615W        W11398  17.116  12.661  11.638
44616W        W11399  32.440  23.993  14.014
44617W        W11400  26.407  29.173   2.283
44618W        W11401  22.772  37.026   1.442
44619W        W11402   5.601  16.578  13.623
44620W        W11403  26.027   3.010  14.388
44621W        W11404  32.581  22.540   3.624
44622W        W11405   6.799  17.873  12.076
44623W        W11406  19.766  35.652   0.789
44624W        W11407   6.407  19.909  10.692
44625W        W11408  33.978  43.896   3.743
44626W        W11409  33.861   0.344   3.559
44627W        W11410  39.291  35.085   1.898
44628W        W11411  37.671  41.252   5.079
44629W        W11412  10.809  42.702   1.854
44630W        W11413   5.648  30.195  13.276
44631W        W11414  24.018  35.219   1.202
44632W        W11415  38.905  32.034   5.016
44633W        W11416   0.458  29.402  11.091
44634W        W11417  17.313  27.187  11.506
44635W        W11418  12.270  40.597  13.996
44636W        W11419  19.120   6.896  14.551
44637W        W11420  31.355  32.700  13.826
44638W        W11421  34.386  25.245   0.434
44639W        W11422  43.203  42.256  12.903
44640W        W11423  33.872  30.994   1.840
44641W        W11424   1.771  16.087  14.857
44642W        W11425   4.743  42.702  12.306
44643W        W11426  37.605  40.666  14.406
44644W        W11427   7.893  40.464   4.900
44645W        W11428  25.455  35.541  12.999
44646W        W11429  15.189   9.401   4.883
44647W        W11430  36.196   9.364  11.445
44648W        W11431   1.867  18.685  10.941
44649W        W11432   7.872  36.121   3.783
44650W        W11433  32.567  40.964  12.453
44651W        W11434   9.441   0.315   3.676
44652W        W11435  22.205  18.828  12.413
44653W        W11436  37.457  18.668  13.951
44654W        W11437  42.801  16.415   2.214
44655W        W11438  29.540  15.917   1.371
44656W        W11439  12.827  23.806  14.014
44657W        W11440  32.429  38.887  13.292
44658W        W11441  42.560  14.934   3.216
44659W        W11442  43.529  24.833  11.146
44660W        W11443  37.844  44.739  14.346
44661W        W11444   1.967   2.440  11.625
44662W        W11445  15.702  11.523   1.805
44663W        W11446   0.759  25.084   0.380
44664W        W11447  34.640  42.592  13.869
44665W        W11448  20.676   3.274  14.300
44666W        W11449  36.806  32.763   3.359
44667W        W11450   9.591  32.518  13.765
44668W        W11451   8.725  38.530   2.718
44669W        W11452   3.944  37.934   0.942
44670W        W11453  37.062  25.135  11.650
44671W        W11454  20.391  10.664  14.598
44672W        W11455  28.428  30.365   1.256
44673W        W11456  29.036   2.481  10.624
44674W        W11457  37.981  37.297   3.446
44675W        W11458  30.179  11.929  14.549
44676W        W11459   5.486  18.064   2.842
44677W        W11460  31.545  14.678   4.601
44678W        W11461  24.960  31.485  11.525
44679W        W11462  16.156  43.417   0.232
44680W        W11463  30.956  32.056   3.726
44681W        W11464  42.567  33.929  11.013
44682W        W11465  27.221  39.540   4.841
44683W        W11466  26.027  24.636  14.164
44684W        W11467  38.659   7.211  11.035
44685W        W11468  21.703  14.876  14.984
44686W        W11469  23.169  16.659  10.693
44687W        W11470  32.051  35.176  12.015
44688W        W11471  14.614  25.104   1.512
44689W        W11472   5.482  37.857   4.346
44690W        W11473   1.822   6.715   2.469
44691W        W11474  34.059   2.356   3.161
44692W        W11475  37.973  41.975  13.435
44693W        W11476  41.144  14.841  14.009
44694W        W11477  44.063  24.383   5.027
44695W        W11478  18.754  30.972   2.694
44696W        W11479  38.538  10.762  12.968
44697W        W11480  15.327  44.756   0.903
44698W        W11481  21.519  28.128   2.765
44699W        W11482  35.151  23.033  11.035
44700W        W11483  30.998  16.311   0.487
44701W        W11484  28.565  12.118  11.029
44702W        W11485  11.823   5.131   4.196
44703W        W11486  44.411  19.632   4.051
44704W        W11487   6.177  24.682   1.351
44705W        W11488   6.642  31.929   2.386
44706W        W11489   0.271  10.596  12.819
44707W        W11490   6.690  19.707  12.468
44708W        W11491  11.933  44.361   0.448
44709W        W11492  32.592  18.059   3.283
44710W        W11493  43.206  42.809   4.576
44711W        W11494  11.360   7.145   4.598
44712W        W11495  11.760   3.861  13.429
44713W        W11496  25.623  36.408   1.918
44714W        W11497  39.051   4.312  12.231
44715W        W11498  21.095  20.278  11.183
44716W        W11499   9.103   6.532  12.099
44717W        W11500  28.020  24.150  11.101
44718W        W11501   0.002   8.198   3.664
44719W        W11502  33.415  16.641   3.339
44720W        W11503  24.256  14.750   2.792
44721W        W11504   2.357  40.068   4.576
44722W        W11505  43.234  18.183   2.365
44723W        W11506  37.619  33.451   4.766
44724W        W11507  40.394  33.745   1.158
44725W        W11508  35.888  41.492   4.127
44726W        W11509  12.694  40.920  14.862
44727W        W11510  35.822  14.611   2.304
44728W        W11511  40.776  39.582  12.595
44729W        W11512  19.195  37.443  13.942
44730W        W11513   4.012  16.772  10.707
44731W        W11514  16.520  37.918  11.960
44732W        W11515  14.000  44.381  12.010
44733W        W11516  25.988  22.281   1.771
44734W        W11517  43.060   1.672   2.971
44735W        W11518  31.111  15.238  11.162
44736W        W11519  26.900   4.848  12.122
44737W        W11520  41.084   0.242  13.449
44738W        W11521   4.454  43.775   3.345
44739W        W11522   3.841  31.989   4.656
44740W        W11523   0.763  28.493  12.351
44741W        W11524  16.347  37.577   0.985
44742W        W11525  22.525  10.349   2.777
44743W        W11526  19.223  31.488  11.198
44744W        W11527  44.348  35.360  12.534
44745W        W11528  24.243  37.160   4.310
44746W        W11529   0.302   2.215  10.450
44747W        W11530  23.947   7.224  12.092
44748W        W11531   9.448   5.904   1.792
44749W        W11532  38.893  24.840  14.931
44750W        W11533  23.542  40.867   4.033
44751W        W11534  21.981  34.620  14.780
44752W        W11535  20.188  11.244  12.392
44753W        W11536  27.419  10.334  14.300
44754W        W11537  17.601   8.814   1.394
44755W        W11538  40.622  12.342  14.722
44756W        W11539  28.374  43.885   1.235
44757W        W11540  15.588   2.439  10.705
44758W        W11541  16.054  43.923  10.632
44759W        W11542  42.889  17.202   3.684
44760W        W11543  32.116  21.300   0.398
44761W        W11544  23.921  42.835  11.656
44762W        W11545   2.946   2.659   2.726
44763W        W11546  28.565  30.949   3.708
44764W        W11547  29.376  31.002   2.089
44765W        W11548   5.758  15.244   3.738
44766W        W11549  43.006  30.048   4.364
44767W        W11550  23.009  43.978   0.435
44768W        W11551   0.818  18.834  14.461
44769W        W11552   0.268   0.326   1.257
44770W        W11553  27.222  38.358  11.157
44771W        W11554  10.291  35.777   1.918
44772W        W11555  30.168   2.773   4.376
44773W        W11556   7.791  24.250  14.721
44774W        W11557   4.966  18.762   3.688
44775W        W11558   0.510   6.233  11.457
44776W        W11559   0.009  21.551   0.957
44777W        W11560   2.013  35.949  12.199
44778W        W11561  44.517  14.600  12.798
44779W        W11562  39.452  38.359   0.805
44780W        W11563   1.822  36.424  11.029
44781W        W11564  11.329  33.128  13.644
44782W        W11565  15.642  25.354  14.221
44783W        W11566  15.179   4.736   0.332
44784W        W11567  44.061  40.131   1.603
44785W        W11568   4.694  19.129  11.587
44786W        W11569  23.126  14.801  11.576
44787W        W11570  25.895  30.495  13.883
44788W        W11571  10.063  44.918  11.193
44789W        W11572  39.509  15.055  14.419
44790W        W11573  29.467  15.762   1.869
44791W        W11574  32.098  32.116  11.273
44792W        W11575  33.477  32.993  13.745
44793W        W11576  23.045  10.899  12.297
44794W        W11577  30.913   9.284  13.407
44795W        W11578  37.975  17.595   4.264
44796W        W11579  32.576   7.008  13.876
44797W        W11580   2.937  25.650   1.402
44798W        W11581   7.870  23.996  11.623
44799W        W11582  44.099  39.416   2.640
44800W        W11583   6.879   8.184   3.023
44801W        W11584  29.442   4.881   4.124
44802W        W11585  36.632   6.728  11.368
44803W        W11586  21.578   4.191   3.683
44804W        W11587  41.988  14.064   2.220
44805W        W11588  27.741  28.875   1.940
44806W        W11589  43.929  23.025   4.133
44807W        W11590  13.626  22.085  10.518
44808W        W11591  43.842  21.297   3.623
44809W        W11592  22.941  35.616   4.648
44810W        W11593   9.300  33.960  13.079
44811W        W11594  26.005  27.182  11.644
44812W        W11595  24.092   2.887   0.819
44813W        W11596  44.579  36.122   3.223
44814W        W11597  29.591  15.423   4.386
44815W        W11598  40.297   7.858  12.977
44816W        W11599   5.820  44.437  11.633
44817W        W11600  13.384   9.132   3.665
44818W        W11601  11.554  27.741   2.761
44819W        W11602  20.590  17.357   1.901
44820W        W11603  18.270   0.014  13.275
44821W        W11604  15.019  29.030   0.476
44822W        W11605  32.332  40.362   2.836
44823W        W11606  43.771  36.486  13.402
44824W        W11607  43.248  39.894   4.014
44825W        W11608  12.076  38.636  13.532
44826W        W11609   4.762  13.387   3.603
44827W        W11610  20.557  39.509  11.983
44828W        W11611  34.325   1.861  14.699
44829W        W11612  20.946  31.426   0.940
44830W        W11613   6.024  10.205   0.256
44831W        W11614  16.742  34.081  11.074
44832W        W11615  20.101  18.134  10.215
44833W        W11616  33.878   3.827   1.356
44834W        W11617  39.597  17.033   3.354
44835W        W11618  18.158  23.207  11.538
44836W        W11619  12.253  30.611  13.403
44837W        W11620  15.811  18.743  11.150
44838W        W11621  32.924  17.030  13.530
44839W        W11622   1.797  15.623  11.998
44840W        W11623   0.471   6.687   4.657
44841W        W11624  12.089  36.009   2.317
44842W        W11625  31.369  30.063   3.758
44843W        W11626  12.174  23.436   0.265
44844W        W11627  18.218   2.779   4.813
44845W        W11628   6.341  31.227  11.194
44846W        W11629  24.042  15.222  14.483
44847W        W11630  23.971   8.798   4.553
44848W        W11631  20.791  39.578  10.161
44849W        W11632  10.162  38.362   1.846
44850W        W11633  39.477  26.231   0.304
44851W        W11634  39.570  36.725   3.302
44852W        W11635   0.937  39.171  10.902
44853W        W11636   6.188  16.693   2.055
44854W        W11637   9.326   0.386  13.418
44855W        W11638  21.089   1.349   0.673
44856W        W11639  25.220  42.222  12.046
44857W        W11640  32.247  13.492  11.575
44858W        W11641  28.721  31.699  13.028
44859W        W11642  24.040  33.051   4.530
44860W        W11643   0.216  24.544   0.846
44861W        W11644  40.358  35.425   4.762
44862W        W11645  30.572  39.901  10.652
44863W        W11646  39.494  20.004  12.946
44864W        W11647  17.538  10.660   1.670
44865W        W11648  35.495  14.522  14.409
44866W        W11649  26.930  21.051   2.169
44867W        W11650  15.407  29.528   3.029
44868W        W11651   0.047  10.430   1.684
44869W        W11652  12.739   5.693   1.878
44870W        W11653  19.281  16.194   2.404
44871W        W11654   5.849  27.224   0.566
44872W        W11655  27.123  24.112  10.987
44873W        W11656  11.062   2.995  11.908
44874W        W11657  31.139  31.402  12.371
44875W        W11658   8.319  10.674  10.464
44876W        W11659  18.800  41.563  12.611
44877W        W11660   7.811  13.341   0.297
44878W        W11661   7.871  17.178   1.269
44879W        W11662  16.063  40.519  13.924
44880W        W11663  12.361  17.248   0.196
44881W        W11664  39.044  28.896  12.554
44882W        W11665  40.541  38.905  10.754
44883W        W11666  35.026  28.113   0.040
44884W        W11667   4.769  44.320   4.048
44885W        W11668  13.167  34.123   2.289
44886W        W11669  43.791  18.781  10.729
44887W        W11670  23.007   0.955   0.378
44888W        W11671  37.357   3.689  11.376
44889W        W11672   7.006  12.854  13.455
44890W        W11673  28.472   4.666   1.324
44891W        W11674  41.532  22.841  14.419
44892W        W11675  43.484   5.476   4.555
44893W        W11676   7.269  16.859  11.194
44894W        W11677  34.991  35.575   2.363
44895W        W11678   5.185  12.176  11.425
44896W        W11679  36.049  27.482   0.209
44897W        W11680  14.198  44.530  10.225
44898W        W11681   6.836  39.419  10.624
44899W        W11682  25.435   8.272   0.471
44900W        W11683  18.423  18.535  14.479
44901W        W11684   2.990  12.249   3.703
44902W        W11685  28.281  28.067  14.895
44903W        W11686  43.923  24.536  11.932
44904W        W11687   2.480  34.960   4.920
44905W        W11688  26.992  13.686   3.232
44906W        W11689   1.336   5.723  12.907
44907W        W11690  27.669   9.601  13.982
44908W        W11691   4.844  32.999   0.070
44909W        W11692  43.505  14.604   1.378
44910W        W11693  10.807  39.349   1.699
44911W        W11694  23.216  34.591   4.350
44912W        W11695  27.129   5.683   4.043
44913W        W11696  14.466  24.478   3.762
44914W        W11697  23.569  24.149  10.142
44915W        W11698  33.026  30.118   4.751
44916W        W11699   0.602   5.530  14.348
44917W        W11700  27.712  40.891   1.251
44918W        W11701  27.118  12.876   3.554
44919W        W11702  34.115  17.760  12.540
44920W        W11703  30.050  11.706   4.733
44921W        W11704   7.744  21.711  12.426
44922W        W11705  17.149   3.265   0.883
44923W        W11706  40.747  42.501  10.236
44924W        W11707  30.993  19.892  10.208
44925W        W11708  24.224  27.488  13.568
44926W        W11709  22.242  26.459  11.588
44927W        W11710  29.596  24.631  10.555
44928W        W11711  35.745  15.146   4.494
44929W        W11712   9.065  19.361  10.587
44930W        W11713   4.834  12.759   4.492
44931W        W11714   9.367  22.099   3.106
44932W        W11715   5.302  38.638  12.535
44933W        W11716  11.111  32.588   4.444
44934W        W11717  29.443  41.020  12.432
44935W        W11718  35.051  29.192  14.375
44936W        W11719  12.054   0.160   1.635
44937W        W11720  39.352  37.760   1.755
44938W        W11721  14.098  23.072   4.604
44939W        W11722  33.980  44.947  12.091
44940W        W11723  19.231  17.536   2.602
44941W        W11724  40.859  11.427  11.992
44942W        W11725   1.147  31.969   0.363
44943W        W11726  21.304  14.126   2.449
44944W        W11727  27.603   3.788   0.955
44945W        W11728  25.429  36.966   3.698
44946W        W11729   4.801   4.206   0.775
44947W        W11730   7.721  21.839  13.846
44948W        W11731  42.267  34.978  14.823
44949W        W11732   5.260  41.688  14.833
44950W        W11733   4.742  13.773   2.171
44951W        W11734   5.676  34.319  13.820
44952W        W11735  14.548  17.059  11.500
44953W        W11736  17.213  22.082  13.444
44954W        W11737  31.017   2.485   3.217
44955W        W11738  30.461  43.728   0.712
44956W        W11739   4.735  32.881   3.919
44957W        W11740  20.466   7.422   1.633
44958W        W11741   2.723   7.544   3.503
44959W        W11742  28.505   7.065  11.643
44960W        W11743  13.252  14.821  13.460
44961W        W11744  25.140  26.153  12.005
44962W        W11745   8.704  18.873  11.539
44963W        W11746  44.778  19.564  12.156
44964W        W11747  30.349   8.571  12.536
44965W        W11748  37.894  32.178   0.421
44966W        W11749   7.000   9.815  14.075
44967W        W11750   8.561  32.381   1.698
44968W        W11751   5.660  17.682   3.215
44969W        W11752  43.239  27.039   4.245
44970W        W11753   2.949  22.002  14.523
44971W        W11754  39.416  40.310  10.907
44972W        W11755   7.461  16.325  11.263
44973W        W11756  10.952  44.388   0.086
44974W        W11757  26.986  29.495   1.776
44975W        W11758  41.908  20.472  11.904
44976W        W11759   1.866  31.667   4.796
44977W        W11760  41.382   4.413   0.200
44978W        W11761  36.153  17.027  11.489
44979W        W11762  35.605  28.580   2.755
44980W        W11763  20.797  10.617  14.253
44981W        W11764  23.141   0.885   0.884
44982W        W11765  35.158  12.843  13.045
44983W        W11766  41.008   2.748   1.613
44984W        W11767  28.955  25.727   4.451
44985W        W11768  39.419  28.722  10.932
44986W        W11769  14.652  25.960  13.946
44987W        W11770   4.584  21.655   2.445
44988W        W11771  22.781  22.469   1.764
44989W        W11772  40.250  41.446   1.407
44990W        W11773  16.863  15.658  14.782
44991W        W11774   4.946   3.184   1.702
44992W        W11775  15.788  15.219   1.947
44993W        W11776  36.334  38.538   4.574
44994W        W11777   7.344   4.062   3.652
44995W        W11778  16.092  21.006   3.572
44996W        W11779  16.565  27.687  14.501
44997W        W11780   8.755  34.874   1.794
44998W        W11781  35.382  21.211   0.544
44999W        W11782  33.687  37.590  13.117
45000W        W11783  35.674  24.037   1.177
45001W        W11784   8.655  14.740   0.089
45002W        W11785  20.140  26.988   4.609
45003W        W11786  28.673   7.196   1.954
45004W        W11787  36.767  31.551  11.739
45005W        W11788   4.940   4.632  12.524
45006W        W11789  13.089   7.201  12.435
45007W        W11790   4.405  37.214   1.367
45008W        W11791  10.877  20.720  13.139
45009W        W11792   0.144  35.098  13.382
45010W        W11793  40.521   4.881  11.992
45011W        W11794  39.471   0.221   2.096
45012W        W11795  28.348  44.310  11.005
45013W        W11796   2.009  39.690   0.002
45014W        W11797  10.632  15.107   3.190
45015W        W11798  10.141   3.983   3.268
45016W        W11799  36.610  30.963  12.560
45017W        W11800  10.169  24.778  13.368
45018W        W11801  32.892   6.890  14.574
45019W        W11802  33.651  35.422  11.572
45020W        W11803  41.042  10.265   3.861
45021W        W11804   8.643  38.268   4.583
45022W        W11805   2.497  43.885   3.365
45023W        W11806  21.266  15.617   4.906
45024W        W11807  11.781  26.151   0.555
45025W        W11808   6.327  27.391   4.812
45026W        W11809  38.031   8.430  12.617
45027W        W11810   8.610  31.970  12.628
45028W        W11811  29.529  31.011   3.624
45029W        W11812  44.465  23.149  12.468
45030W        W11813  25.237  14.387   2.833
45031W        W11814  34.712  16.116   1.379
45032W        W11815  43.229  30.423  13.886
45033W        W11816   1.550   2.436  13.046
45034W        W11817  42.906  24.752   4.044
45035W        W11818  25.651  14.318   0.430
45036W        W11819  13.959  14.261  12.176
45037W        W11820  43.014  33.212  12.353
45038W        W11821  16.230  22.691   0.366
45039W        W11822  38.825  12.443   0.188
45040W        W11823  14.441  22.514   0.365
45041W        W11824  25.597  42.643   0.147
45042W        W11825  34.429   7.338   1.805
45043W        W11826  37.411  10.881  11.119
45044W        W11827   8.268  43.444  13.531
45045W        W11828  24.966   7.929  13.787
45046W        W11829  30.451  34.020   1.185
45047W        W11830  21.653  39.993  11.221
45048W        W11831  24.180   7.869  10.790
45049W        W11832  18.801   4.725   1.301
45050W        W11833  25.048   9.381  13.300
45051W        W11834   2.312  29.852  12.044
45052W        W11835   0.996  24.036  14.294
45053W        W11836   8.889  25.311   0.598
45054W        W11837  42.551  40.822  11.553
45055W        W11838  27.979  27.139   0.592
45056W        W11839  19.269  22.720  10.852
45057W        W11840  11.132  15.662  12.871
45058W        W11841  15.071  32.466  12.388
45059W        W11842  25.782  28.296  13.574
45060W        W11843  22.775  23.471   3.666
45061W        W11844  12.409  31.451   2.369
45062W        W11845  32.571  37.163   3.642
45063W        W11846  25.761  38.308   5.421
45064W        W11847   7.774   7.011  14.535
45065W        W11848  40.548  41.571   0.411
45066W        W11849  22.373  35.320  14.947
45067W        W11850  42.069  42.301  12.139
45068W        W11851  33.052  39.582  12.755
45069W        W11852  28.746   8.141  14.120
45070W        W11853  43.812  11.231   1.235
45071W        W11854  39.574   0.985   1.694
45072W        W11855  39.806  24.302   3.354
45073W        W11856  21.035  13.776   2.193
45074W        W11857  43.012  44.248   2.386
45075W        W11858  21.437  41.890   4.261
45076W        W11859  10.044  24.927  12.290
45077W        W11860   4.198  16.747  13.983
45078W        W11861  39.439  35.211  13.962
45079W        W11862  16.352  13.838  11.904
45080W        W11863  26.005  18.669   2.312
45081W        W11864  33.836  14.981  14.434
45082W        W11865  33.201  27.139  13.413
45083W        W11866  27.804  23.702   3.210
45084W        W11867   6.356  24.144   1.332
45085W        W11868   4.800   1.681  11.572
45086W        W11869  42.512   4.286   4.388
45087W        W11870  10.686   0.981   0.560
45088W        W11871  18.851  13.248   3.212
45089W        W11872  24.489  15.640  10.710
45090W        W11873  17.393  20.214   0.821
45091W        W11874   9.601  18.164   3.311
45092W        W11875   3.816  21.001   3.258
45093W        W11876  30.672  31.425  13.570
45094W        W11877  18.318  37.583  11.603
45095W        W11878  30.017  40.030  13.354
45096W        W11879  20.133  36.333  11.928
45097W        W11880  26.808  44.939   2.631
45098W        W11881   9.856  21.536  10.747
45099W        W11882  18.000  41.749  11.131
45100W        W11883  35.427   3.830   3.805
45101W        W11884  39.608   5.054  11.187
45102W        W11885   8.842  14.746   2.229
45103W        W11886   8.929  41.253  10.782
45104W        W11887   9.274  27.371  13.420
45105W        W11888  19.607  18.812   2.637
45106W        W11889  16.778  11.459   0.838
45107W        W11890  33.205  22.177   4.464
45108W        W11891  37.530   2.038   4.507
45109W        W11892   7.971  40.700  11.221
45110W        W11893  33.218  39.103  10.728
45111W        W11894  35.840  23.574  13.955
45112W        W11895  21.241  27.303   0.924
45113W        W11896   2.509   8.996   3.137
45114W        W11897  38.048   9.794   3.246
45115W        W11898  40.867  24.721   2.558
45116W        W11899  37.832  19.888   0.263
45117W        W11900  40.449  22.474   0.423
45118W        W11901  36.339  39.018   4.388
45119W        W11902  14.750  31.016   3.090
45120W        W11903  23.625  42.285  13.708
45121W        W11904  40.783  33.651   3.785
45122W        W11905  36.137  23.961  14.931
45123W        W11906  44.030   7.060  11.409
45124W        W11907  43.028  38.402   2.757
45125W        W11908  18.794  11.129  14.466
45126W        W11909  29.026  39.579  14.859
45127W        W11910  28.567  26.490   3.374
45128W        W11911   3.867  43.242   1.181
45129W        W11912  12.602  29.610  10.749
45130W        W11913   6.179  10.302  11.004
45131W        W11914   3.689   8.131  13.793
45132W        W11915   9.439   5.623  13.977
45133W        W11916  40.467  29.048  14.985
45134W        W11917   7.455  20.954  14.038
45135W        W11918  40.292  33.063  10.720
45136W        W11919  21.982  29.930   0.829
45137W        W11920  26.040  13.342   4.463
45138W        W11921  11.269  14.371   2.368
45139W        W11922   4.956  21.118   4.192
45140W        W11923  27.876  21.158   1.792
45141W        W11924   7.673  23.894   4.637
45142W        W11925  24.257  17.250   2.634
45143W        W11926   4.968  40.459   0.626
45144W        W11927  33.410  10.289   1.672
45145W        W11928  22.468  30.073  12.327
45146W        W11929  44.232   1.356   3.439
45147W        W11930  31.148  20.938  12.606
45148W        W11931  34.135  25.302  12.061
45149W        W11932   6.264  18.552   0.656
45150W        W11933  28.262  23.929   0.042
45151W        W11934  35.423  29.802   0.661
45152W        W11935  14.205   3.416   2.246
45153W        W11936  25.132   5.556   3.610
45154W        W11937   4.395  25.142   4.054
45155W        W11938  23.496   6.469   9.860
45156W        W11939  40.720  37.610  10.817
45157W        W11940  27.775  40.944   2.586
45158W        W11941  41.741  18.895   4.617
45159W        W11942  22.134   0.879   0.544
45160W        W11943   3.066   5.744  11.980
45161W        W11944  24.931  13.628   3.335
45162W        W11945  29.351   6.763   3.282
45163W        W11946  34.141  20.935  13.399
45164W        W11947   4.424  26.897   1.292
45165W        W11948  35.284  42.028  12.416
45166W        W11949  11.205  21.753   1.003
45167W        W11950  11.673   2.399   3.900
45168W        W11951  36.850   1.221  10.597
45169W        W11952  31.649  18.393  12.375
45170W        W11953  18.096   2.608  10.792
45171W        W11954   9.138  40.254   2.736
45172W        W11955  40.135   4.273  11.424
45173W        W11956  23.120   7.734   4.259
45174W        W11957   8.275  42.454  11.030
45175W        W11958  41.011  16.770   4.220
45176W        W11959  29.994  28.674   4.179
45177W        W11960  43.770  39.954   3.902
45178W        W11961  40.096   0.788  12.127
45179W        W11962  27.462  34.493   0.967
45180W        W11963  10.141  18.870  12.489
45181W        W11964  23.023  24.280   0.491
45182W        W11965  37.057  36.172  11.216
45183W        W11966  21.033   8.674   9.934
45184W        W11967   6.328  41.676  13.229
45185W        W11968   5.414  44.529   2.195
45186W        W11969  43.639  21.745   4.210
45187W        W11970  32.069  21.489   3.261
45188W        W11971   2.154   8.646   3.246
45189W        W11972   5.480  22.883   0.193
45190W        W11973   2.576  27.677  11.541
45191W        W11974  32.608  23.716   0.925
45192W        W11975  38.931  28.379  12.487
45193W        W11976   9.030  17.833  14.888
45194W        W11977  10.690  40.016   0.366
45195W        W11978  20.578  14.192   1.016
45196W        W11979  14.936  17.442   4.190
45197W        W11980  24.593  12.138  11.499
45198W        W11981  43.849  27.055  12.582
45199W        W11982  31.204  44.763   2.701
45200W        W11983  37.949  22.763  14.840
45201W        W11984  28.485   0.212   4.500
45202W        W11985  10.762  32.925   2.616
45203W        W11986  25.027  20.132  11.198
45204W        W11987  11.811   1.476  11.999
45205W        W11988  37.341  34.293   0.748
45206W        W11989  12.948  23.216  11.879
45207W        W11990  27.418  38.826  12.385
45208W        W11991  12.810   0.593  13.514
45209W        W11992  27.574  26.357  13.950
45210W        W11993  21.285  25.923  13.438
45211W        W11994  33.618  34.963  11.210
45212W        W11995  12.612  25.680  14.010
45213W        W11996  11.403  23.245  12.554
45214W        W11997   0.263  26.197  12.004
45215W        W11998  15.145  17.876   0.723
45216W        W11999  12.877  21.448  11.965
45217W        W12000   5.234  19.831  10.579
45218W        W12001  10.949   7.721   1.173
45219W        W12002   0.314  32.880   4.649
45220W        W12003  29.450   1.776  14.284
45221W        W12004  26.176  18.213   0.359
45222W        W12005  33.641  13.516  14.545
45223W        W12006   1.024  29.470   2.252
45224W        W12007   5.688  22.247  12.685
45225W        W12008  44.425  37.805  13.845
45226W        W12009   1.407  22.041   3.050
45227W        W12010  37.859  22.958   1.395
45228W        W12011   6.347  21.630  11.576
45229W        W12012  40.712  29.182  12.825
45230W        W12013  23.047  40.801   1.688
45231W        W12014  27.000  29.545  14.071
45232W        W12015  10.653  28.631   0.474
45233W        W12016  35.369  38.503  13.907
45234W        W12017  13.999   2.716   0.013
45235W        W12018   7.372   6.185  14.336
45236W        W12019  14.037  38.236   4.922
45237W        W12020  36.167  28.898   1.435
45238W        W12021  44.081  17.673  12.069
45239W        W12022  14.604   4.700   1.410
45240W        W12023   0.841  42.234  13.308
45241W        W12024   3.788  37.480   0.751
45242W        W12025  25.960  27.900  14.395
45243W        W12026  34.878   4.579   3.261
45244W        W12027  29.478  31.445   0.249
45245W        W12028  36.816   0.663   3.876
45246W        W12029  19.974  20.687   4.306
45247W        W12030  44.704  38.690   0.577
45248W        W12031   5.795   7.777   2.637
45249W        W12032  13.426   9.036  12.031
45250W        W12033   5.165  11.242   0.968
45251W        W12034  19.177  39.979  11.093
45252W        W12035  31.417  44.168   4.243
45253W        W12036   8.193  30.166  10.598
45254W        W12037  17.252   7.206  12.994
45255W        W12038  27.166  34.124  13.987
45256W        W12039  43.161  35.417   1.494
45257W        W12040  16.652   6.151  14.262
45258W        W12041  35.442  44.856   4.516
45259W        W12042  25.337  11.925   0.315
45260W        W12043   0.612  10.069   5.092
45261W        W12044  21.636   7.722   3.240
45262W        W12045   3.197  21.483   2.091
45263W        W12046  28.986  41.018  11.563
45264W        W12047  25.642  38.332   4.534
45265W        W12048  36.103  19.271  14.027
45266W        W12049  37.460  39.802  11.666
45267W        W12050   3.682   5.291  14.123
45268W        W12051  20.069  20.258   2.914
45269W        W12052  22.656   1.294  11.527
45270W        W12053   3.965  17.079  12.320
45271W        W12054  21.487  12.789  11.391
45272W        W12055  25.505  31.542   4.961
45273W        W12056  31.050  40.090  11.056
45274W        W12057   0.063   8.820  12.923
45275W        W12058  25.876  39.189  13.143
45276W        W12059  22.133  11.637   3.895
45277W        W12060  11.843  36.763  14.059
45278W        W12061  44.105  31.163   2.139
45279W        W12062  17.883  10.171  12.138
45280W        W12063   5.938  37.115   3.850
45281W        W12064  42.371  37.572   3.830
45282W        W12065  23.265  35.848  11.464
45283W        W12066  22.545  28.142   2.531
45284W        W12067  37.906  27.009   0.288
45285W        W12068  30.728  37.072  13.321
45286W        W12069   5.958  25.274  13.923
45287W        W12070  20.376  24.141  10.943
45288W        W12071  29.046  29.954   4.306
45289W        W12072   8.205  38.085  14.488
45290W        W12073  30.083  25.499  11.687
45291W        W12074  37.757   1.928  13.037
45292W        W12075  27.607  31.535   0.401
45293W        W12076  11.355  13.510   3.821
45294W        W12077   8.763   6.513  14.552
45295W        W12078  25.998  15.135   2.652
45296W        W12079   9.972  40.456   2.227
45297W        W12080  40.021   3.559   2.658
45298W        W12081   5.412  34.922  13.508
45299W        W12082  39.376  10.423  14.780
45300W        W12083   8.603  26.658   2.703
45301W        W12084  24.721  42.855   0.385
45302W        W12085  31.091  12.667   1.112
45303W        W12086   3.315  44.774   3.160
45304W        W12087  35.458  43.768  12.970
45305W        W12088   9.868  11.668  10.190
45306W        W12089  13.440  20.455  13.112
45307W        W12090  35.947  18.410  14.285
45308W        W12091  37.878  25.487  13.314
45309W        W12092  20.018  33.825   0.519
45310W        W12093  24.737  27.423  12.467
45311W        W12094  33.132  10.514  14.089
45312W        W12095   5.644  42.863   1.831
45313W        W12096  39.107  39.111   4.242
45314W        W12097  19.190  19.085   4.522
45315W        W12098  11.214  32.384   1.230
45316W        W12099  24.370  22.149  11.950
45317W        W12100   2.538  26.482   0.892
45318W        W12101  14.706   2.751  11.117
45319W        W12102  25.471  39.140   1.776
45320W        W12103  18.547  43.501  11.947
45321W        W12104   4.385  40.035   1.316
45322W        W12105   7.323  34.189   3.059
45323W        W12106   0.869  31.167   0.487
45324W        W12107  28.248  31.916  14.904
45325W        W12108   9.731  40.077   3.136
45326W        W12109  27.498  17.517   0.277
45327W        W12110  15.184  35.184  13.997
45328W        W12111  17.023  17.393  13.041
45329W        W12112  44.840  26.460   9.788
45330W        W12113  22.443  18.652  12.825
45331W        W12114   7.442   2.755   0.954
45332W        W12115  31.863  24.528   3.215
45333W        W12116  13.778  40.390  10.736
45334W        W12117  32.966  16.039  13.480
45335W        W12118   8.002  20.850  11.194
45336W        W12119  10.278  44.785   1.324
45337W        W12120   0.878  24.950  14.486
45338W        W12121  43.529  19.366   0.453
45339W        W12122  13.578  31.415   3.369
45340W        W12123  12.087  34.440   3.767
45341W        W12124  43.538  31.346  11.272
45342W        W12125  28.673  21.783  12.748
45343W        W12126  25.597  31.964   0.981
45344W        W12127  13.838  25.787   1.974
45345W        W12128  27.174  35.447   2.395
45346W        W12129  43.875  28.989  14.734
45347W        W12130  37.457   5.669   4.494
45348W        W12131  28.183  41.280  11.121
45349W        W12132  14.334  33.932  14.741
45350W        W12133  25.588  28.542  13.980
45351W        W12134  22.453   5.345   0.362
45352W        W12135   7.351  34.786   4.647
45353W        W12136  37.309   6.032   0.286
45354W        W12137  13.278  43.498   4.567
45355W        W12138   2.850  30.203  13.347
45356W        W12139  36.822  24.139  10.969
45357W        W12140  25.447  10.553  14.808
45358W        W12141  34.855  24.564   2.065
45359W        W12142   6.318  24.058  14.414
45360W        W12143  35.579  34.423  12.159
45361W        W12144  32.020  25.029   2.274
45362W        W12145  29.463  34.166   2.910
45363W        W12146   8.223   1.700   1.201
45364W        W12147  10.777   3.892   2.764
45365W        W12148  38.526  40.821  14.808
45366W        W12149  15.381  32.565   1.741
45367W        W12150  26.273  27.216   2.227
45368W        W12151   3.037   7.746   4.468
45369W        W12152   7.379  15.293   1.354
45370W        W12153  17.194  34.194   4.956
45371W        W12154   1.730  43.944  11.586
45372W        W12155  15.662  11.268   4.864
45373W        W12156   0.501  26.467   4.211
45374W        W12157  39.744   5.816  12.909
45375W        W12158  26.904  33.020   3.183
45376W        W12159  17.655  36.556  10.648
45377W        W12160  18.242  21.307  13.559
45378W        W12161   8.944  22.591   2.229
45379W        W12162   0.776  29.061  14.099
45380W        W12163  19.530   3.396  14.273
45381W        W12164  37.405   1.303   0.888
45382W        W12165   9.296  28.171  14.970
45383W        W12166   7.643   3.311   3.715
45384W        W12167   3.806  33.564  13.153
45385W        W12168   8.583  38.065  13.676
45386W        W12169  20.273   2.113   5.500
45387W        W12170  26.128  40.245   0.291
45388W        W12171  26.093   3.939   2.716
45389W        W12172  39.892  22.941  14.877
45390W        W12173   3.773  22.507   3.776
45391W        W12174  14.468  24.018  10.729
45392W        W12175  37.077  28.439  12.518
45393W        W12176   5.168   3.819  13.918
45394W        W12177   9.844  29.018   1.919
45395W        W12178  18.838  11.629   4.697
45396W        W12179  27.023   8.336  14.343
45397W        W12180  14.918  31.971  10.270
45398W        W12181   5.200  29.525   3.732
45399W        W12182  44.074  29.401  14.396
45400W        W12183  44.737   3.313   0.934
45401W        W12184  36.949  29.780   1.353
45402W        W12185  41.869  33.455   0.287
45403W        W12186  10.536  20.406   0.797
45404W        W12187  25.141  41.373  12.344
45405W        W12188  42.503  18.903   0.476
45406W        W12189  18.679  43.738   0.593
45407W        W12190   1.817  29.069   3.849
45408W        W12191  34.046  33.967  11.180
45409W        W12192  13.158  30.663   0.719
45410W        W12193  32.166  36.919   1.409
45411W        W12194  14.452  13.251  12.793
45412W        W12195  43.241   5.312   0.447
45413W        W12196  44.585   2.794   4.119
45414W        W12197  33.702  44.613   3.910
45415W        W12198   6.718  32.917  11.444
45416W        W12199  27.547  27.485  13.133
45417W        W12200  33.409  37.406  14.435
45418W        W12201  35.409  10.129  10.710
45419W        W12202   1.180   0.467   3.832
45420W        W12203  30.610  44.218  13.363
45421W        W12204   8.595  13.798  10.698
45422W        W12205   1.234  15.329  13.310
45423W        W12206  23.040  35.907   0.080
45424W        W12207   1.054  17.034  12.499
45425W        W12208  30.050  26.670  12.352
45426W        W12209  20.145  25.281   3.353
45427W        W12210  29.340  36.447  11.025
45428W        W12211  23.993  18.153   1.921
45429W        W12212   8.120  19.726  13.550
45430W        W12213  14.285  16.206  14.527
45431W        W12214  40.068  37.022  12.887
45432W        W12215  23.109  20.690   3.258
45433W        W12216  35.875  25.104  11.159
45434W        W12217  11.218  38.080  14.468
45435W        W12218  19.072  25.642  10.559
45436W        W12219   5.653  40.512  13.908
45437W        W12220  26.614  15.554  10.710
45438W        W12221  13.647  41.921   2.792
45439W        W12222  35.477  21.660  10.772
45440W        W12223  26.717  44.215  14.721
45441W        W12224  20.763  24.932  11.126
45442W        W12225  14.687  39.755  11.023
45443W        W12226  15.981   4.921  11.956
45444W        W12227  39.630   9.169   3.358
45445W        W12228   9.300  31.163  13.598
45446W        W12229  44.171  37.948  11.193
45447W        W12230   1.431  33.283   0.902
45448W        W12231  28.445  14.792   4.426
45449W        W12232  37.509  44.307   1.831
45450W        W12233  37.348  21.045   4.563
45451W        W12234  10.601  19.891  14.495
45452W        W12235  36.613   5.679   2.568
45453W        W12236  10.126  34.625  14.799
45454W        W12237  30.309  15.524  14.426
45455W        W12238   9.815   0.042   1.450
45456W        W12239  14.408  10.934   4.543
45457W        W12240   7.477   3.857  11.376
45458W        W12241   8.480  31.894   3.841
45459W        W12242  14.346  41.006   2.302
45460W        W12243  11.689  41.405   1.423
45461W        W12244  35.733  17.797   4.885
45462W        W12245  21.762  44.775  13.339
45463W        W12246  12.629  34.547   0.832
45464W        W12247  43.890  29.592  10.649
45465W        W12248   3.296  19.445  13.730
45466W        W12249  35.483  30.880  13.423
45467W        W12250  26.171   5.961  14.853
45468W        W12251  41.593  44.094  14.234
45469W        W12252   0.982  38.637  10.765
45470W        W12253  12.133  40.284   0.454
45471W        W12254  35.285  41.546   3.277
45472W        W12255  36.350   8.113  14.855
45473W        W12256  29.730   2.908  10.866
45474W        W12257  27.435  28.110   1.374
45475W        W12258  27.279  11.624   4.573
45476W        W12259  21.296  25.571   4.605
45477W        W12260  15.068  21.032   3.747
45478W        W12261  31.653   0.167  11.190
45479W        W12262  26.409   2.460   0.302
45480W        W12263  23.976  43.216  12.867
45481W        W12264  41.707  10.816   4.108
45482W        W12265  28.739  37.445  13.948
45483W        W12266  16.282  35.613  11.158
45484W        W12267  23.588  14.091  10.514
45485W        W12268  34.222  12.009   4.743
45486W        W12269  43.320  38.327  10.690
45487W        W12270  12.600  12.859   4.183
45488W        W12271   7.777  17.448   3.625
45489W        W12272  44.407   4.083   5.056
45490W        W12273  11.784  25.640   0.428
45491W        W12274   5.728  38.794   4.594
45492W        W12275  44.904  25.189   1.849
45493W        W12276  19.676  41.973   2.779
45494W        W12277   1.359  34.884   0.927
45495W        W12278  39.383  13.192   1.169
45496W        W12279  42.069  13.353   0.820
45497W        W12280   2.842  13.150  10.611
45498W        W12281  32.033  31.181   0.319
45499W        W12282  32.473  26.953   3.582
45500W        W12283  10.435  20.064   3.673
45501W        W12284  33.784  16.327  12.375
45502W        W12285  32.909  25.506  11.916
45503W        W12286  36.548   6.167   2.383
45504W        W12287  10.126  21.784  11.145
45505W        W12288  35.150  28.018  10.354
45506W        W12289  16.448  38.287   2.962
45507W        W12290  44.912  14.765  13.127
45508W        W12291  38.028  20.759   1.879
45509W        W12292  14.648  11.837  14.708
45510W        W12293  18.253  10.072  11.766
45511W        W12294  11.102  21.153   4.173
45512W        W12295  25.020   9.721   0.885
45513W        W12296  13.184   3.931  13.218
45514W        W12297  42.826  18.597  11.545
45515W        W12298  14.063  36.088   0.256
45516W        W12299  42.876  42.888   2.081
45517W        W12300   5.662  11.919  12.432
45518W        W12301  10.919  32.152  13.817
45519W        W12302  42.994  17.262   3.191
45520W        W12303   6.196  16.953   3.529
45521W        W12304  32.594  29.481   0.905
45522W        W12305   9.729  24.233   3.207
45523W        W12306   0.773   5.605  10.329
45524W        W12307  29.974  11.187  11.681
45525W        W12308  42.824  17.575  10.678
45526W        W12309  13.834  23.051   4.156
45527W        W12310  16.362  18.493  11.301
45528W        W12311   2.074  42.393   4.948
45529W        W12312  33.686  11.936  12.374
45530W        W12313   6.195   7.131  12.482
45531W        W12314  17.848  13.572   1.716
45532W        W12315  29.564   6.611   2.421
45533W        W12316  30.661  14.143   2.722
45534W        W12317  42.860  15.055   1.903
45535W        W12318  22.661  14.482   3.520
45536W        W12319  11.118  34.973  13.066
45537W        W12320  40.856   7.422   3.909
45538W        W12321  21.670  35.547   3.187
45539W        W12322  27.136  35.884   0.292
45540W        W12323  28.540  33.593  14.342
45541W        W12324  19.684  22.553   5.065
45542W        W12325  37.981  15.017  13.785
45543W        W12326  39.540  14.640  13.389
45544W        W12327  15.482  39.657  10.685
45545W        W12328  37.803  41.392  13.882
45546W        W12329  20.192  37.604  11.781
45547W        W12330  31.187   1.489   1.319
45548W        W12331  15.543  17.313  14.422
45549W        W12332  24.303  43.540  13.944
45550W        W12333   3.373  13.766   2.796
45551W        W12334  16.495  31.686  10.679
45552W        W12335  39.097  32.624  10.471
45553W        W12336  20.168  16.202   2.253
45554W        W12337  20.991  11.166   4.082
45555W        W12338  38.008  24.668   1.346
45556W        W12339  10.530  41.244   3.765
45557W        W12340  31.950  36.534  11.956
45558W        W12341  11.685   0.891  10.227
45559W        W12342  18.975  40.838  14.033
45560W        W12343  28.972  39.125  13.607
45561W        W12344  23.890  36.386   1.278
45562W        W12345   8.878   0.947   0.660
45563W        W12346  14.243  26.984  13.519
45564W        W12347  23.929  27.401  14.904
45565W        W12348  30.446  20.814  13.980
45566W        W12349  43.434  16.005   3.764
45567W        W12350  28.558   4.278   2.731
45568W        W12351   1.362  16.350   4.169
45569W        W12352  10.201   7.485   3.607
45570W        W12353  35.551  28.947   2.377
45571W        W12354  17.701  19.292   4.484
45572W        W12355  32.945   9.372   3.155
45573W        W12356  24.118  43.754  11.977
45574W        W12357  40.295  31.278  10.292
45575W        W12358   7.218  27.897  12.603
45576W        W12359  31.395  37.825  14.931
45577W        W12360  36.812  32.051   1.373
45578W        W12361  25.100  14.062  14.285
45579W        W12362   5.308  28.231   2.143
45580W        W12363   5.017   8.863  12.387
45581W        W12364   2.924  44.915  11.206
45582W        W12365  34.900  39.331   4.711
45583W        W12366  30.702  19.222  11.649
45584W        W12367  38.323  27.200   4.447
45585W        W12368  11.777  35.246   1.271
45586W        W12369  36.843  10.710   2.792
45587W        W12370  39.017  23.669   1.158
45588W        W12371  11.072  10.927   0.903
45589W        W12372  14.886  36.105   2.356
45590W        W12373  26.138  19.125  14.742
45591W        W12374  14.507   8.469   4.244
45592W        W12375  31.929  44.474  10.674
45593W        W12376  32.418  35.467  11.001
45594W        W12377   6.376  23.684  11.171
45595W        W12378  29.957  35.088   2.833
45596W        W12379  33.842  30.400  14.303
45597W        W12380   4.170   9.637   3.196
45598W        W12381   0.814  39.497   1.391
45599W        W12382  19.813   5.869   2.245
45600W        W12383   1.176  14.474  14.950
45601W        W12384  15.882  20.646   2.326
45602W        W12385  40.140   9.799   2.975
45603W        W12386  11.619  38.217  11.904
45604W        W12387  20.055  16.475  10.785
45605W        W12388  30.673  25.046   2.729
45606W        W12389  36.176  35.955   2.949
45607W        W12390  40.581  14.797   1.195
45608W        W12391  29.244  40.442  11.153
45609W        W12392  15.390  24.932   1.763
45610W        W12393  37.184  44.686   1.652
45611W        W12394  37.594  36.591   4.299
45612W        W12395   3.925  42.819  11.298
45613W        W12396  19.814   8.236   0.385
45614W        W12397   8.497  44.661  14.447
45615W        W12398  24.048   9.192   2.705
45616W        W12399  14.096  24.049  11.582
45617W        W12400  13.071  35.569  11.605
45618W        W12401  44.409  11.731  11.743
45619W        W12402  29.733   2.778   3.595
45620W        W12403  22.595  26.199   4.096
45621W        W12404  39.352   5.353  11.542
45622W        W12405  42.154  12.256  10.367
45623W        W12406  27.904  29.135   0.591
45624W        W12407  37.785  39.027   0.978
45625W        W12408  17.043  23.412   4.113
45626W        W12409  32.944  35.988   2.050
45627W        W12410   9.838   0.632   3.745
45628W        W12411  44.851  34.208   2.745
45629W        W12412  15.464   0.285  13.859
45630W        W12413  30.230  32.920  12.105
45631W        W12414   7.172  38.115  14.181
45632W        W12415  30.520  41.970   2.899
45633W        W12416  40.382  23.654   3.157
45634W        W12417  13.188   7.165   3.745
45635W        W12418   3.823  26.317   0.643
45636W        W12419  27.153  15.443  10.680
45637W        W12420   8.214   7.441  10.787
45638W        W12421  18.884   4.190   0.241
45639W        W12422   1.466   0.377  13.894
45640W        W12423  36.468  40.035   5.350
45641W        W12424   5.357  44.346   0.821
45642W        W12425   5.885  43.175  13.440
45643W        W12426  34.991  14.570   0.188
45644W        W12427  14.529  44.314  12.167
45645W        W12428  34.944   3.446  11.231
45646W        W12429  10.967  28.720   0.892
45647W        W12430  30.713  28.000   3.686
45648W        W12431  20.486  21.808  13.914
45649W        W12432  18.757  23.952   1.781
45650W        W12433   6.954  17.079   1.316
45651W        W12434   5.891  18.376   3.396
45652W        W12435  43.853  15.460  14.430
45653W        W12436  10.317   3.529  13.232
45654W        W12437   6.362  22.224   2.818
45655W        W12438  10.141  17.043  13.553
45656W        W12439  33.844  26.684   0.931
45657W        W12440  16.092  38.426   2.611
45658W        W12441  11.231  32.700   0.819
45659W        W12442   4.632   1.823   1.787
45660W        W12443   4.313  42.667  10.653
45661W        W12444   3.757  16.435  13.929
45662W        W12445  29.476  44.833  13.563
45663W        W12446  44.721  20.132   4.284
45664W        W12447   6.818   9.328   2.787
45665W        W12448  18.696   1.199   0.301
45666W        W12449   2.345   5.590   1.055
45667W        W12450  40.379  26.623   1.763
45668W        W12451  44.857   1.977  13.739
45669W        W12452  25.584  39.379   9.815
45670W        W12453  20.009   0.281   3.651
45671W        W12454   8.254   7.522   5.463
45672W        W12455  43.814  15.808  14.815
45673W        W12456   3.725  31.974   1.268
45674W        W12457  33.986  31.464  12.394
45675W        W12458  32.904   7.485  11.320
45676W        W12459  29.907  26.539  10.950
45677W        W12460  11.577  10.891   0.877
45678W        W12461  30.758  10.779  12.071
45679W        W12462   0.653  25.360  13.604
45680W        W12463  36.855  23.450   4.131
45681W        W12464  12.150  39.018   4.044
45682W        W12465  11.747  23.458   0.876
45683W        W12466  36.805  42.288  13.877
45684W        W12467  13.719  19.193  14.493
45685W        W12468  31.908   1.542   3.588
45686W        W12469  29.601  26.143  11.482
45687W        W12470  18.188   2.477   0.300
45688W        W12471   0.573  18.691  14.912
45689W        W12472   6.500  19.334   1.914
45690W        W12473  21.741   7.671  12.786
45691W        W12474  22.943   5.113  13.041
45692W        W12475  23.156   4.630  12.941
45693W        W12476  19.639   1.951   2.805
45694W        W12477  19.713  40.565   2.781
45695W        W12478  12.708   3.218   1.474
45696W        W12479  36.683  31.814  12.198
45697W        W12480   3.244  39.861   4.761
45698W        W12481   0.430   3.480  12.989
45699W        W12482  20.636  44.276  14.514
45700W        W12483   9.902  29.109   4.045
45701W        W12484  10.591  25.125  12.542
45702W        W12485   1.817  34.544  11.131
45703W        W12486  40.728  34.098  10.832
45704W        W12487   4.181  35.151  13.804
45705W        W12488  41.184   5.358   2.756
45706W        W12489   1.384   7.565  12.710
45707W        W12490  39.066  10.823  14.577
45708W        W12491  43.521  41.469  14.960
45709W        W12492  11.345  24.500   3.761
45710W        W12493  31.549  38.869   3.598
45711W        W12494  23.686  40.995   1.358
45712W        W12495   4.421  18.292  12.223
45713W        W12496  14.386  25.209  12.352
45714W        W12497  36.094  34.004   1.251
45715W        W12498  13.374  29.026   4.032
45716W        W12499  36.345   4.862  13.925
45717W        W12500  21.297  19.327   0.821
45718W        W12501   4.348  22.236  11.446
45719W        W12502  34.594  22.243   1.431
45720W        W12503  19.567  23.140   0.005
45721W        W12504  44.824   5.149  13.438
45722W        W12505  33.673  10.381   2.725
45723W        W12506  22.499  36.804  14.040
45724W        W12507   0.406  43.451   0.046
45725W        W12508   4.711  40.812   4.132
45726W        W12509  20.739  20.351   2.992
45727W        W12510   0.055   9.499   4.932
45728W        W12511   6.203  37.423   2.352
45729W        W12512  44.725  15.931   1.610
45730W        W12513  35.113  38.440  10.518
45731W        W12514  10.893  14.267  11.208
45732W        W12515  17.023  39.687   2.776
45733W        W12516  29.123  26.563  13.976
45734W        W12517  15.761  29.904   3.572
45735W        W12518  27.514  25.830   5.186
45736W        W12519  13.280   4.959   0.012
45737W        W12520  31.913  10.286   2.849
45738W        W12521  32.771  35.405  12.913
45739W        W12522   1.399  35.369  11.169
45740W        W12523  16.267  29.418   3.023
45741W        W12524  15.796  25.616   0.463
45742W        W12525  21.548   3.782   1.398
45743W        W12526  21.244  43.498  12.586
45744W        W12527  16.115  37.987   0.672
45745W        W12528  28.478  10.648   4.127
45746W        W12529   2.877  39.879   0.897
45747W        W12530   8.348  31.645   4.714
45748W        W12531  22.077   4.852  11.916
45749W        W12532   6.186  20.641   0.793
45750W        W12533  20.538  12.903  11.543
45751W        W12534   0.179  37.330  12.490
45752W        W12535  16.552  33.400  12.570
45753W        W12536  13.875  41.591   1.824
45754W        W12537  39.114  14.843  10.705
45755W        W12538  41.477   5.951  13.413
45756W        W12539  33.336  21.860   3.695
45757W        W12540   3.251   2.930  12.652
45758W        W12541  41.229  16.283   4.566
45759W        W12542  12.764  37.539  11.606
45760W        W12543  25.403  32.897  13.962
45761W        W12544  38.794  37.014   4.070
45762W        W12545  40.276  42.758  13.941
45763W        W12546  29.302  25.003   1.491
45764W        W12547   9.726  22.660  14.263
45765W        W12548  35.594   2.913  13.035
45766W        W12549   6.125  18.146  12.137
45767W        W12550  17.957  16.174   2.952
45768W        W12551  44.407  23.627   2.243
45769W        W12552  26.377  42.856  10.923
45770W        W12553   8.601   6.516   4.692
45771W        W12554   4.272  42.122   3.757
45772W        W12555  40.294  33.349  12.836
45773W        W12556  29.435  18.291  13.274
45774W        W12557  20.678   1.712   2.294
45775W        W12558  31.911   6.856   2.440
45776W        W12559  42.297  17.533  10.642
45777W        W12560  20.601  31.626  12.574
45778W        W12561  14.630  17.084   2.657
45779W        W12562  21.760  20.217  11.658
45780W        W12563   6.604  16.236   4.538
45781W        W12564  36.462  22.493   3.183
45782W        W12565  10.679  16.611  10.482
45783W        W12566  15.806  43.947   0.503
45784W        W12567   6.233   8.235   1.949
45785W        W12568  14.265  17.523  14.094
45786W        W12569  39.485  37.370  12.050
45787W        W12570  32.394   2.713  14.915
45788W        W12571  12.779  23.281   2.921
45789W        W12572  18.310  20.330  13.728
45790W        W12573  28.046  28.486  10.150
45791W        W12574  22.199  23.574   1.894
45792W        W12575   9.828  19.383  13.294
45793W        W12576  25.495  30.887  10.538
45794W        W12577  36.662  25.735   4.275
45795W        W12578  31.779  14.425  12.573
45796W        W12579  17.761  28.445  13.066
45797W        W12580  14.126  42.986  12.904
45798W        W12581  19.226   8.854   4.392
45799W        W12582  24.541  17.273  11.229
45800W        W12583  12.103  24.614   4.281
45801W        W12584   7.701  15.688   3.109
45802W        W12585   8.418   2.621   4.515
45803W        W12586   2.799  10.618   4.185
45804W        W12587  32.594  36.942   0.966
45805W        W12588   1.325   0.143  14.445
45806W        W12589  13.726   6.285   2.350
45807W        W12590  28.806  14.785  14.488
45808W        W12591   0.022  33.899   3.638
45809W        W12592  11.515  19.472  13.381
45810W        W12593  27.160  42.192  13.337
45811W        W12594  29.594  40.068  14.117
45812W        W12595  32.887  34.126  14.967
45813W        W12596  35.033  10.665   3.808
45814W        W12597  42.004  19.262  10.796
45815W        W12598  18.387  27.133   1.895
45816W        W12599  40.597  15.756   0.841
45817W        W12600   1.227  26.230  13.398
45818W        W12601  42.262  29.472  13.937
45819W        W12602   1.229  40.909   3.196
45820W        W12603  14.993  17.689   3.748
45821W        W12604  21.526  21.036  14.427
45822W        W12605   7.655  33.006   2.397
45823W        W12606   9.693   7.139  13.863
45824W        W12607  44.562  32.973  12.833
45825W        W12608  21.755  18.164  11.592
45826W        W12609  23.136  35.557  12.631
45827W        W12610   8.970  33.278  12.961
45828W        W12611  43.065  34.972   3.214
45829W        W12612  12.742  17.686  12.102
45830W        W12613   5.331  16.871   0.790
45831W        W12614  25.471   1.757  14.713
45832W        W12615  44.566  39.454   0.178
45833W        W12616  28.898   9.412   1.838
45834W        W12617  13.558   2.747  12.989
45835W        W12618  40.742  38.066   0.729
45836W        W12619  28.963  31.514   4.656
45837W        W12620  32.423  42.385   4.768
45838W        W12621  35.090  39.868  12.567
45839W        W12622   3.747  44.703  11.576
45840W        W12623  30.503  26.547   1.402
45841W        W12624   3.245  21.053   4.435
45842W        W12625  15.792  13.145   0.337
45843W        W12626  16.275   9.422   0.106
45844W        W12627  25.215   3.576  13.965
45845W        W12628  17.057   5.040   0.137
45846W        W12629  40.529  37.731  12.932
45847W        W12630   2.641   1.831  12.541
45848W        W12631  13.504  29.173   0.378
45849W        W12632  23.591  34.329   0.284
45850W        W12633  40.828  44.748   4.133
45851W        W12634  19.113  32.542  12.102
45852W        W12635  14.057  18.008  14.089
45853W        W12636  10.675  29.984  11.506
45854W        W12637   3.391  17.118  13.501
45855W        W12638  14.314  20.737  11.934
45856W        W12639  19.471  35.717  11.741
45857W        W12640  24.469   3.226   0.459
45858W        W12641  32.682  12.195   1.390
45859W        W12642  28.675  24.955  13.436
45860W        W12643  14.299   8.448   1.291
45861W        W12644  13.409  17.862  12.085
45862W        W12645   8.923  17.301  12.127
45863W        W12646  11.376   6.140   9.806
45864W        W12647   2.696  40.861   2.697
45865W        W12648  30.395  12.881   2.323
45866W        W12649  38.166   7.986  14.928
45867W        W12650  44.267  18.350   3.134
45868W        W12651  42.505   4.452   2.879
45869W        W12652  31.062  22.468   2.095
45870W        W12653  32.919  35.324  12.024
45871W        W12654   1.774  13.247   0.503
45872W        W12655  38.841  11.953   0.371
45873W        W12656   6.703   8.271   4.267
45874W        W12657  25.466   0.003  14.029
45875W        W12658  21.759  21.154   2.586
45876W        W12659   5.752  43.666   0.621
45877W        W12660  14.362  44.748   2.780
45878W        W12661  22.051  11.603  10.516
45879W        W12662  21.324  41.086   0.033
45880W        W12663  22.698  20.822  10.792
45881W        W12664  12.412  24.280   4.019
45882W        W12665  40.331   1.288  11.530
45883W        W12666  27.342  17.651  14.798
45884W        W12667  34.442   4.751   4.938
45885W        W12668  20.556  43.062  12.594
45886W        W12669  37.612  29.044  12.419
45887W        W12670   3.584  25.251  13.615
45888W        W12671   5.222  28.040  10.893
45889W        W12672  30.609  18.120   4.227
45890W        W12673   8.332  19.217   0.858
45891W        W12674  37.077  15.533  13.969
45892W        W12675  38.154  21.007  13.189
45893W        W12676  42.329  36.791   0.827
45894W        W12677   1.213  30.529  12.688
45895W        W12678  28.408  40.315   0.864
45896W        W12679  43.221  31.105  14.253
45897W        W12680  20.333  32.482   3.783
45898W        W12681   6.812  40.967  12.651
45899W        W12682  37.506  37.167   3.652
45900W        W12683   2.476  31.386  12.960
45901W        W12684   6.790   9.322  12.379
45902W        W12685  33.852  41.347   3.082
45903W        W12686  33.182  36.223  11.255
45904W        W12687   4.682  22.900   2.887
45905W        W12688  22.263   9.597   0.541
45906W        W12689  21.418  21.487   2.825
45907W        W12690  28.398  43.394   0.244
45908W        W12691  27.049  33.449  10.628
45909W        W12692   1.502  10.727  12.327
45910W        W12693  23.353   1.814   1.936
45911W        W12694  14.144  12.277   1.071
45912W        W12695  36.609   9.332   3.840
45913W        W12696   5.100  13.012   4.863
45914W        W12697  19.687  28.442   0.904
45915W        W12698   2.239  17.093  12.474
45916W        W12699  36.539  29.637   0.411
45917W        W12700  32.915  26.884   0.451
45918W        W12701  27.767  23.177   2.987
45919W        W12702  40.070  25.550  11.939
45920W        W12703  32.035  25.559   0.992
45921W        W12704  27.380  16.205  13.087
45922W        W12705  44.365  31.518   2.443
45923W        W12706  34.996   8.964  14.726
45924W        W12707   4.436   1.386  10.669
45925W        W12708  31.115  29.428  14.752
45926W        W12709  29.396  23.652   4.469
45927W        W12710  14.187  17.181   0.066
45928W        W12711  27.305  33.055   4.577
45929W        W12712  28.137   4.888   2.355
45930W        W12713   6.899   3.303   4.598
45931W        W12714   5.054   5.119  12.468
45932W        W12715  32.145  32.438  12.077
45933W        W12716  12.316  29.398   0.794
45934W        W12717  19.974  36.085   0.997
45935W        W12718  15.296  23.533   2.058
45936W        W12719  15.889  24.975   1.696
45937W        W12720  43.244   0.506  14.544
45938W        W12721   0.837  34.807  14.331
45939W        W12722  38.565  44.355  11.193
45940W        W12723  22.653  33.137   4.347
45941W        W12724  35.863   1.623  13.924
45942W        W12725  44.117  21.471   2.422
45943W        W12726  15.654  32.999  12.784
45944W        W12727  10.432  14.482   0.406
45945W        W12728  36.894   3.020  14.531
45946W        W12729  15.114   3.480   0.122
45947W        W12730   4.454  36.910  11.581
45948W        W12731   0.288   9.685  13.391
45949W        W12732   6.003  30.908   1.165
45950W        W12733   9.751  23.598   4.581
45951W        W12734  24.665  36.164   0.800
45952W        W12735  35.010   5.714   1.879
45953W        W12736  26.702  34.196  14.822
45954W        W12737  42.349  28.776  14.566
45955W        W12738  26.238  22.258  14.910
45956W        W12739   5.042  38.306  13.031
45957W        W12740  22.557  27.018  13.842
45958W        W12741   3.525  29.866   2.875
45959W        W12742  32.343  27.537   0.949
45960W        W12743  20.012   5.907  11.694
45961W        W12744  36.676  15.819   3.757
45962W        W12745  28.450  37.568  14.370
45963W        W12746  20.483  18.342   4.121
45964W        W12747  27.001   7.776   0.013
45965W        W12748  11.581  29.500  10.800
45966W        W12749  15.326  22.915  14.956
45967W        W12750   9.493  37.802  14.075
45968W        W12751  14.433  40.047  14.330
45969W        W12752   9.515  30.651  11.451
45970W        W12753  42.937  23.483  11.184
45971W        W12754   4.434  15.233  13.872
45972W        W12755  22.752   8.271  12.941
45973W        W12756  21.825  29.155   2.537
45974W        W12757  33.604   1.396  13.450
45975W        W12758   7.095   4.434   4.159
45976W        W12759  13.139  30.666   3.095
45977W        W12760  15.657  34.700   0.349
45978W        W12761   8.667  20.537  13.292
45979W        W12762  14.321  19.707   0.286
45980W        W12763   6.209  13.984   2.735
45981W        W12764  28.039  17.241   1.651
45982W        W12765   9.224   9.273   0.775
45983W        W12766  13.109  15.550   0.726
45984W        W12767  24.586  42.098   3.699
45985W        W12768   9.201   4.159   1.202
45986W        W12769   2.937   0.731   4.052
45987W        W12770  36.038  35.936  10.524
45988W        W12771  40.774  34.906  11.616
45989W        W12772   6.815  21.169  12.108
45990W        W12773  13.227  15.080  10.866
45991W        W12774  36.936   4.701   1.712
45992W        W12775  12.180  24.149   4.485
45993W        W12776  24.729  29.042  10.891
45994W        W12777  12.671  29.908  13.080
45995W        W12778   9.417  14.098  13.884
45996W        W12779  36.115  16.084  14.923
45997W        W12780  17.549  31.993   5.011
45998W        W12781  26.452  12.312  11.680
45999W        W12782  23.863  43.375   3.200
46000W        W12783  28.993  23.269  12.155
46001W        W12784  42.339  34.230   0.216
46002W        W12785   1.160  39.722  14.412
46003W        W12786   5.346   0.881  10.801
46004W        W12787  28.526  25.482  10.471
46005W        W12788   1.552  41.496   1.614
46006W        W12789  24.552  32.890   3.163
46007W        W12790  36.332  40.577  14.731
46008W        W12791  27.988  20.573  13.925
46009W        W12792  20.394  32.952   4.175
46010W        W12793  36.342   7.188   2.280
46011W        W12794  29.646  36.888   4.806
46012W        W12795  10.119  16.207   2.404
46013W        W12796  17.201  10.432  14.490
46014W        W12797  35.502  25.102   3.076
46015W        W12798  10.189   5.701   4.585
46016W        W12799  17.105  41.057  13.845
46017W        W12800  20.499  34.556   2.337
46018W        W12801   1.995  32.442   2.828
46019W        W12802  41.479  44.714   0.561
46020W        W12803  18.164   8.151  13.821
46021W        W12804  17.471  43.304   0.571
46022W        W12805  20.447  14.750   3.840
46023W        W12806  32.230  34.423   4.912
46024W        W12807   0.194  18.490  10.965
46025W        W12808  16.844  12.489   4.402
46026W        W12809  42.705  10.869  11.235
46027W        W12810  28.065   1.285  10.664
46028W        W12811   7.840  15.796  11.215
46029W        W12812  19.825  14.292  10.321
46030W        W12813   5.763   7.139  13.809
46031W        W12814  35.179   8.616  12.537
46032W        W12815  35.969  27.450  10.742
46033W        W12816  14.242  31.940   0.491
46034W        W12817  18.522  43.864  12.423
46035W        W12818   3.423  39.029  10.713
46036W        W12819  11.266  30.735  14.868
46037W        W12820   6.437  27.459   2.671
46038W        W12821  16.390  11.593  12.613
46039W        W12822  19.083  13.402   3.672
46040W        W12823  26.967  36.666  10.766
46041W        W12824  20.821  26.954   0.810
46042W        W12825   3.320   7.365   4.211
46043W        W12826  11.873  28.175  12.418
46044W        W12827  13.085  10.211  11.508
46045W        W12828  43.409  23.538   2.471
46046W        W12829  35.241   0.895   1.576
46047W        W12830  20.106  23.275   4.787
46048W        W12831  11.013  30.928  13.440
46049W        W12832  11.261  19.021  12.993
46050W        W12833  41.105  31.528  10.946
46051W        W12834  13.184   5.999   1.867
46052W        W12835  31.382  12.303  10.662
46053W        W12836  39.962  16.651   3.306
46054W        W12837  31.611  33.378  10.638
46055W        W12838  18.103  20.818  14.899
46056W        W12839  33.613  11.624  11.939
46057W        W12840  38.547  37.844   1.110
46058W        W12841  16.672  16.878  10.777
46059W        W12842  26.674  36.866  13.356
46060W        W12843   2.314  28.678   2.268
46061W        W12844   1.265  17.984  12.565
46062W        W12845  15.334  29.539   2.510
46063W        W12846  30.916  29.061   2.142
46064W        W12847   5.594  26.561  13.460
46065W        W12848  28.055  32.090   2.907
46066W        W12849  23.281  10.523  14.616
46067W        W12850   5.071  22.705   1.162
46068W        W12851  12.863  30.651  12.094
46069W        W12852  25.318  22.150   1.270
46070W        W12853  33.573  40.731   3.733
46071W        W12854  38.432  31.236  12.479
46072W        W12855  25.045  17.000   4.868
46073W        W12856   8.711   4.875  12.599
46074W        W12857  20.043   7.410  11.998
46075W        W12858  19.652  34.923   3.589
46076W        W12859  26.127  21.167   4.409
46077W        W12860   3.336   0.719  14.812
46078W        W12861  11.646  25.799   2.372
46079W        W12862  10.650  16.096  10.500
46080W        W12863   5.129  35.087   2.933
46081W        W12864   5.872  39.968  13.055
46082W        W12865  18.477  30.379   3.719
46083W        W12866  12.764  17.761  14.314
46084W        W12867  44.911  33.101   2.680
46085W        W12868  21.961  42.051   1.445
46086W        W12869  27.981  38.377   2.003
46087W        W12870  34.017  12.883   0.821
46088W        W12871   3.920  41.751   3.709
46089W        W12872  27.986  36.280   0.324
46090W        W12873  11.736   6.875  13.309
46091W        W12874  26.007  11.428   2.332
46092W        W12875  44.070  44.287  12.614
46093W        W12876  33.070  11.197   4.623
46094W        W12877  41.851  38.606  14.274
46095W        W12878  44.033  19.509   4.478
46096W        W12879  23.578  33.676  13.902
46097W        W12880  40.452  21.132   2.186
46098W        W12881  39.983  19.827   3.068
46099W        W12882  41.567  35.945  14.422
46100W        W12883  40.912  15.743  14.776
46101W        W12884  16.578  13.656   2.562
46102W        W12885   1.354   6.878  11.444
46103W        W12886   7.656  44.767  10.759
46104W        W12887  27.985  18.315  11.540
46105W        W12888  40.390   2.293  12.551
46106W        W12889  31.429  29.952   3.258
46107W        W12890  11.881  29.237   2.806
46108W        W12891  12.819  27.552  10.723
46109W        W12892  32.610  37.060  12.101
46110W        W12893  17.658  33.675  13.393
46111W        W12894  10.277   5.774   5.528
46112W        W12895  43.219  25.513  14.008
46113W        W12896  19.865   6.371  13.849
46114W        W12897  44.881  36.062  12.649
46115W        W12898  19.098   5.406  12.570
46116W        W12899  16.521  18.341   4.597
46117W        W12900  35.591  28.880   0.283
46118W        W12901  29.497   5.254  13.753
46119W        W12902  17.230  15.651  12.487
46120W        W12903   0.270   9.843   4.608
46121W        W12904  29.122  23.981  14.013
46122W        W12905  33.691  24.795   3.213
46123W        W12906  44.578  13.869   4.883
46124W        W12907   7.672  22.252   0.316
46125W        W12908  35.154  31.028  11.150
46126W        W12909  37.659  28.680  11.752
46127W        W12910  22.559  44.856  14.060
46128W        W12911  11.431   3.494   4.765
46129W        W12912  13.289  27.115  11.792
46130W        W12913  37.558  44.276  13.412
46131W        W12914  40.069  33.086   0.511
46132W        W12915  25.383   9.438   3.700
46133W        W12916   0.276  44.421  14.405
46134W        W12917  44.155  20.892   3.549
46135W        W12918   2.318  13.338   1.746
46136W        W12919  21.219  15.311  11.067
46137W        W12920  29.324  44.425  10.735
46138W        W12921  34.693  27.659   2.515
46139W        W12922  22.029  40.570   4.535
46140W        W12923  36.342  10.324   1.702
46141W        W12924  43.362  38.282   3.210
46142W        W12925  34.480  31.070   3.645
46143W        W12926  25.323  17.616   0.229
46144W        W12927   2.766  39.287   0.251
46145W        W12928   4.375  44.120   0.316
46146W        W12929  41.792  42.730   5.069
46147W        W12930  27.898  22.144  14.397
46148W        W12931  38.849  15.543   4.627
46149W        W12932  21.664   3.130   0.412
46150W        W12933  40.343  19.987  13.007
46151W        W12934  30.212  12.831   0.727
46152W        W12935   0.247  26.515  10.655
46153W        W12936  29.266  26.714   4.608
46154W        W12937  30.196   4.446   3.653
46155W        W12938   6.993  18.880  13.034
46156W        W12939  33.013  17.147  11.493
46157W        W12940  28.982  44.575   2.421
46158W        W12941  11.094   1.698  13.026
46159W        W12942  20.833  35.455   4.575
46160W        W12943  32.964   6.910   0.090
46161W        W12944  19.431  20.103   2.936
46162W        W12945  21.194  38.342   4.494
46163W        W12946   5.376  22.069  12.327
46164W        W12947  15.136  34.673   3.196
46165W        W12948  19.810  32.455   3.912
46166W        W12949  18.459  28.342  11.062
46167W        W12950  25.236   5.420  14.429
46168W        W12951  35.240   7.641  13.514
46169W        W12952   2.726  28.966   1.113
46170W        W12953   9.650  40.175   4.637
46171W        W12954  43.835   5.441   2.196
46172W        W12955  28.167  14.249  14.459
46173W        W12956  21.616  28.035  11.022
46174W        W12957  41.293  43.629  12.973
46175W        W12958  13.062  39.452   2.938
46176W        W12959   1.463   1.718   1.356
46177W        W12960   9.254  39.504   4.828
46178W        W12961  23.209  40.246   3.749
46179W        W12962   0.323  28.965   2.804
46180W        W12963  37.575  12.277  13.457
46181W        W12964  16.787  16.382   3.561
46182W        W12965  11.465  39.948  10.519
46183W        W12966  23.691  22.004  12.576
46184W        W12967   3.868  25.261   0.840
46185W        W12968  22.251  14.730   3.718
46186W        W12969  26.129  22.723  14.714
46187W        W12970  22.230  31.539  10.848
46188W        W12971   4.346  35.087  13.294
46189W        W12972  18.036   9.438   3.836
46190W        W12973  44.219   7.678   3.532
46191W        W12974  24.642   8.215   2.168
46192W        W12975  42.513  44.120  10.291
46193W        W12976   9.343  44.860  13.383
46194W        W12977   5.962   1.187   0.419
46195W        W12978  43.043  17.267  13.285
46196W        W12979   4.624  34.871   3.789
46197W        W12980  26.137  12.223  11.068
46198W        W12981  21.217  28.552   0.461
46199W        W12982  21.073  35.923  11.121
46200W        W12983  41.010  13.599   3.114
46201W        W12984  10.887  17.651   1.983
46202W        W12985   9.095   9.217   2.681
46203W        W12986  43.909  13.600  14.103
46204W        W12987   1.622  34.421   2.509
46205W        W12988   0.100  14.543   4.902
46206W        W12989  26.577   8.847   4.631
46207W        W12990  43.044  27.176  12.401
46208W        W12991  36.317  27.410  11.165
46209W        W12992  24.900   6.188  11.964
46210W        W12993  28.143  29.469  13.530
46211W        W12994   0.928  44.851   1.748
46212W        W12995  39.397   5.187   0.745
46213W        W12996  22.692  41.472   0.418
46214W        W12997  11.322  30.991   3.547
46215W        W12998  10.703  18.169   2.223
46216W        W12999  30.712   4.295   0.277
46217W        W13000  25.656  26.397   3.233
46218W        W13001   4.713  23.174  11.579
46219W        W13002  44.759  38.861  13.003
46220W        W13003  13.893  31.911   0.898
46221W        W13004  31.015  38.177   2.756
46222W        W13005   2.392  37.447  12.451
46223W        W13006  32.715   8.286  10.672
46224W        W13007  14.627  40.124   2.494
46225W        W13008  34.030   2.030  13.134
46226W        W13009  28.633  32.849  14.732
46227W        W13010  44.865  17.190  13.074
46228W        W13011  15.598  27.583  14.104
46229W        W13012  39.397  28.467  11.374
46230W        W13013  18.998  36.206   3.174
46231W        W13014  28.416   8.762  12.338
46232W        W13015  22.319  40.357   2.602
46233W        W13016  35.874  40.333   0.913
46234W        W13017  36.390  39.962   3.387
46235W        W13018   0.815  21.118  12.718
46236W        W13019  10.412  14.890  11.036
46237W        W13020  44.944  40.107   1.676
46238W        W13021  32.452  43.940   2.699
46239W        W13022   0.679  30.048  11.626
46240W        W13023  24.262  17.602   1.100
46241W        W13024  24.646  42.911  14.509
46242W        W13025  11.046   0.683   0.887
46243W        W13026  31.494  33.019   0.476
46244W        W13027  27.186  17.097  13.449
46245W        W13028  29.713  13.211   1.896
46246W        W13029  32.844  15.737   3.287
46247W        W13030   7.741  25.482  13.409
46248W        W13031  11.111   5.798  14.765
46249W        W13032  30.602  38.900  14.036
46250W        W13033  35.438  35.764  13.945
46251W        W13034   9.975   6.230   0.605
46252W        W13035  28.673  28.299   1.478
46253W        W13036  36.926  18.232  14.772
46254W        W13037  13.424  14.200  13.053
46255W        W13038  40.306   7.775  10.122
46256W        W13039  40.751  21.794  13.835
46257W        W13040  12.386  10.351  13.359
46258W        W13041  32.216  33.352  13.914
46259W        W13042  30.053  31.206  12.606
46260W        W13043  38.849   3.845   0.805
46261W        W13044   3.132  35.009  12.921
46262W        W13045   7.139  30.923   4.067
46263W        W13046  12.682  27.035   2.106
46264W        W13047  19.845   4.965   2.238
46265W        W13048   0.295  24.022  13.820
46266W        W13049  39.780  31.655   3.674
46267W        W13050  33.005  25.553   2.368
46268W        W13051  39.434  11.355  13.044
46269W        W13052  31.948  17.647   0.069
46270W        W13053  15.042  24.403   0.022
46271W        W13054  30.383   7.851   2.908
46272W        W13055  32.062  13.711  12.979
46273W        W13056   6.655  10.417   4.601
46274W        W13057   2.290   7.314   4.551
46275W        W13058  42.061  19.797  13.299
46276W        W13059   9.215  18.088   2.009
46277W        W13060   0.960  41.404  14.522
46278W        W13061  34.026  26.654  12.753
46279W        W13062  34.614   9.176   2.813
46280W        W13063  42.777   7.236   2.153
46281W        W13064  25.387  36.186   0.096
46282W        W13065  23.987  11.353   0.426
46283W        W13066  17.229   4.033   4.578
46284W        W13067  12.786   2.744  14.481
46285W        W13068  22.573  44.269   2.114
46286W        W13069  44.281  16.554  10.884
46287W        W13070   6.044   7.677  11.110
46288W        W13071  36.822   9.334  13.460
46289W        W13072  31.065   0.707  13.735
46290W        W13073  27.862  24.979   4.610
46291W        W13074  15.270  14.126   0.300
46292W        W13075  23.599  11.704  13.139
46293W        W13076  29.203   5.521  12.464
46294W        W13077   5.843  44.706  12.086
46295W        W13078  20.842   6.905   2.218
46296W        W13079  25.726  33.279  13.791
46297W        W13080  17.004  30.896   4.516
46298W        W13081  40.831  40.321  11.104
46299W        W13082  21.501  19.243   4.060
46300W        W13083  37.392  12.674  12.970
46301W        W13084  32.615  31.753   3.730
46302W        W13085  15.858  19.944   2.002
46303W        W13086   0.006  44.524  11.919
46304W        W13087  44.596  28.695  13.452
46305W        W13088  29.206  33.192  13.492
46306W        W13089  25.602  42.001   2.361
46307W        W13090  32.392  24.172  11.320
46308W        W13091  34.027  30.019   0.127
46309W        W13092  35.282  30.630   1.355
46310W        W13093  11.390  42.922   4.971
46311W        W13094   0.961   6.030  11.677
46312W        W13095  24.461   0.018   3.791
46313W        W13096  21.407   1.436  11.043
46314W        W13097  19.876  35.397  12.598
46315W        W13098  34.863  24.671  14.851
46316W        W13099  21.754  13.212  11.067
46317W        W13100  43.016  42.653  10.100
46318W        W13101  19.724  42.769  12.096
46319W        W13102  32.668   6.388   1.235
46320W        W13103  40.321  32.782  11.148
46321W        W13104  19.911  32.034  13.535
46322W        W13105  37.300  43.024  13.820
46323W        W13106  27.950  25.211   3.357
46324W        W13107  24.092  23.132   4.724
46325W        W13108  18.783  13.899   1.976
46326W        W13109  30.092  13.305   4.313
46327W        W13110  15.784  30.383   3.753
46328W        W13111  22.731   5.317  14.458
46329W        W13112   9.228  30.052   1.814
46330W        W13113   8.418  32.355  14.847
46331W        W13114  39.357  19.497   0.213
46332W        W13115  25.893  38.005   3.215
46333W        W13116   3.703  43.342  14.335
46334W        W13117  12.523   6.643   3.529
46335W        W13118  33.285  30.981  10.484
46336W        W13119  36.964  10.145  11.171
46337W        W13120   7.649  30.129   3.848
46338W        W13121  27.989  39.322   2.348
46339W        W13122  44.212  18.778  11.050
46340W        W13123  14.665   8.792  14.245
46341W        W13124  23.481  15.121   0.881
46342W        W13125  24.671  39.723   0.135
46343W        W13126   5.905  28.016   3.475
46344W        W13127   7.209   7.949  12.680
46345W        W13128  26.200  13.219   1.156
46346W        W13129  26.826  43.317   3.166
46347W        W13130  37.504  26.327   1.822
46348W        W13131  11.560   5.723  11.569
46349W        W13132  33.013  18.666  12.788
46350W        W13133   5.781  19.520   0.332
46351W        W13134  14.552  42.577  14.452
46352W        W13135  11.418  30.418   2.403
46353W        W13136  21.749  37.476   0.775
46354W        W13137  37.432  20.984  13.943
46355W        W13138  11.379  14.811  13.782
46356W        W13139  24.474  17.063  13.906
46357W        W13140  26.834  44.491  12.024
46358W        W13141  10.625  29.111   2.328
46359W        W13142   7.047   8.965   3.327
46360W        W13143   8.927  23.086  13.271
46361W        W13144  27.234   4.869  11.287
46362W        W13145  39.625  44.857  11.648
46363W        W13146  29.407  17.186  10.629
46364W        W13147  15.906   1.590  10.241
46365W        W13148  32.064  30.054  12.123
46366W        W13149   7.098  17.166  10.821
46367W        W13150   7.189  24.522   1.320
46368W        W13151   4.670  43.910  13.096
46369W        W13152  16.102  26.733  13.828
46370W        W13153  14.745  11.071   2.916
46371W        W13154  12.541  39.475  13.545
46372W        W13155  12.359  39.420  14.054
46373W        W13156   0.336  12.071   3.915
46374W        W13157  37.307  16.976   1.000
46375W        W13158  37.854  23.621   0.329
46376W        W13159  17.153  15.443  11.338
46377W        W13160   9.258  43.194   0.796
46378W        W13161  26.903  34.058  11.843
46379W        W13162  15.303  15.587  10.717
46380W        W13163  14.212  16.099  11.469
46381W        W13164  29.151  36.630   2.281
46382W        W13165  26.207  38.420   1.908
46383W        W13166  22.725  18.976  12.501
46384W        W13167  17.609  40.259   4.836
46385W        W13168   1.195  12.774   3.118
46386W        W13169   9.841  12.513  13.377
46387W        W13170  15.248  19.996   4.687
46388W        W13171  17.189  18.701  12.469
46389W        W13172  32.009  31.697  11.660
46390W        W13173  19.995   6.037   3.241
46391W        W13174  33.120  43.861   4.171
46392W        W13175  10.104   9.610  13.545
46393W        W13176  17.177  21.830  11.134
46394W        W13177   7.928  36.620   1.823
46395W        W13178   4.496  30.063   0.883
46396W        W13179  28.072   9.504   4.528
46397W        W13180  33.431  43.455  14.217
46398W        W13181  32.264   9.279  14.423
46399W        W13182  40.821  36.614  10.761
46400W        W13183  22.512  22.294  14.762
46401W        W13184  25.254  32.151  12.171
46402W        W13185  37.930  27.922   1.186
46403W        W13186  33.282  17.649  12.767
46404W        W13187   7.363  31.600   3.402
46405W        W13188  38.374  21.641   3.980
46406W        W13189  35.308  15.104   3.680
46407W        W13190  16.414  21.585   4.097
46408W        W13191  28.887   1.848   2.952
46409W        W13192  33.211  40.967  13.093
46410W        W13193  38.290   2.167  11.053
46411W        W13194   3.523  36.841  10.779
46412W        W13195  16.692  14.047   5.687
46413W        W13196  22.116  44.440   2.337
46414W        W13197  22.405   3.870  12.572
46415W        W13198  29.185  15.611  12.092
46416W        W13199   7.863  34.121   1.402
46417W        W13200   0.257  21.103  11.592
46418W        W13201   2.350  37.926   1.672
46419W        W13202   2.912  40.336   0.172
46420W        W13203   6.983  30.440  12.367
46421W        W13204  37.847  34.648   3.286
46422W        W13205   8.924  13.891   0.881
46423W        W13206  27.094  26.558  10.091
46424W        W13207  21.493  16.924  10.957
46425W        W13208  12.819  15.385   1.154
46426W        W13209  28.179  15.767  11.432
46427W        W13210  30.234  37.965   4.189
46428W        W13211  41.946  39.610   2.230
46429W        W13212  40.515  25.592   2.971
46430W        W13213  23.297  21.707  13.285
46431W        W13214  34.480  17.769   2.653
46432W        W13215  11.929  29.367  11.614
46433W        W13216  39.190  14.356   4.054
46434W        W13217  18.223  43.233  14.449
46435W        W13218  24.504  21.579  12.132
46436W        W13219  10.434  38.855   3.689
46437W        W13220  36.351  13.304  11.087
46438W        W13221  17.618  12.596  11.746
46439W        W13222   6.665  43.415   1.649
46440W        W13223   9.267  43.962   3.158
46441W        W13224  17.651  40.562   1.227
46442W        W13225   7.181  30.108  14.338
46443W        W13226   9.103  31.191  10.758
46444W        W13227  18.264  15.282   2.763
46445W        W13228  22.271  13.714   1.395
46446W        W13229   3.189  43.898   1.891
46447W        W13230  39.773  17.670   1.621
46448W        W13231  34.060  13.469  11.034
46449W        W13232  31.047  30.786  10.293
46450W        W13233   9.053   6.834  11.668
46451W        W13234  41.315   5.026  13.565
46452W        W13235  36.841  43.294  14.086
46453W        W13236   1.754   8.006  14.950
46454W        W13237  44.562  43.976  10.029
46455W        W13238  26.279  37.659   0.417
46456W        W13239   3.945  14.351   4.635
46457W        W13240  35.425  29.394   1.016
46458W        W13241   9.828  23.683  13.895
46459W        W13242  39.402  25.554   4.566
46460W        W13243   9.181   3.158   1.316
46461W        W13244   4.687  22.682  14.444
46462W        W13245  13.297   5.287  13.422
46463W        W13246  23.919  27.492  12.199
46464W        W13247  39.911  40.809  13.554
46465W        W13248  39.791  13.181  11.145
46466W        W13249  39.053   7.815   0.384
46467W        W13250  26.926  28.131   4.571
46468W        W13251  11.144  20.874  10.978
46469W        W13252   3.399   4.632  10.351
46470W        W13253  32.999  36.831   2.575
46471W        W13254  13.774   6.652  12.131
46472W        W13255   1.028  40.460   3.019
46473W        W13256  26.144   3.402  13.353
46474W        W13257  37.565  26.962   0.952
46475W        W13258  37.579   5.535   3.637
46476W        W13259  19.027  43.507   1.625
46477W        W13260  22.206  34.522  10.815
46478W        W13261  40.382  29.017  10.313
46479W        W13262  20.529  18.831   2.696
46480W        W13263  42.019  28.844   3.867
46481W        W13264  44.775  43.520  14.597
46482W        W13265  31.307   8.943   0.243
46483W        W13266   4.761  44.722   3.612
46484W        W13267   9.724  30.127   2.712
46485W        W13268   3.927  43.893   2.313
46486W        W13269  21.030  24.486   1.254
46487W        W13270  41.040  30.705  12.067
46488W        W13271   1.736  16.813   3.620
46489W        W13272   7.538   9.758   2.328
46490W        W13273  31.099  36.965  14.027
46491W        W13274   4.860  16.522   1.522
46492W        W13275  26.949  35.431  14.409
46493W        W13276  23.297  42.786   1.949
46494W        W13277  41.429  36.426  12.152
46495W        W13278  11.733   8.916   1.530
46496W        W13279   9.728  20.380   0.817
46497W        W13280  10.303  20.711  12.497
46498W        W13281   0.891  43.439  11.952
46499W        W13282   3.259  43.994  13.024
46500W        W13283   2.846  41.318   2.460
46501W        W13284   3.810   6.466  13.594
46502W        W13285  23.588   4.487   4.929
46503W        W13286  17.771   6.732   2.290
46504W        W13287  21.398  42.938   3.369
46505W        W13288   7.096  31.560   2.347
46506W        W13289  14.676  28.395   1.877
46507W        W13290  20.568  19.738   1.360
46508W        W13291  15.686  43.090   3.346
46509W        W13292  23.420  40.030   1.665
46510W        W13293  25.604   9.706   2.430
46511W        W13294  34.566   2.909   4.536
46512W        W13295  39.976  15.381   4.421
46513W        W13296  31.159  12.883   2.656
46514W        W13297   3.801  18.716  13.052
46515W        W13298   5.630  15.780  11.617
46516W        W13299   4.017  40.985   0.399
46517W        W13300   8.140  12.408  13.337
46518W        W13301  17.279   2.953   2.293
46519W        W13302   0.162  14.331   9.833
46520W        W13303  10.330  13.686   4.687
46521W        W13304  18.150  16.610  12.870
46522W        W13305   2.304  14.666  14.327
46523W        W13306   5.456  32.171  14.858
46524W        W13307   8.173  24.509  12.840
46525W        W13308  43.525  37.739   1.805
46526W        W13309   0.483  37.486  12.956
46527W        W13310  27.979  12.400   3.694
46528W        W13311  15.873  30.603  10.308
46529W        W13312   6.737  33.439  12.243
46530W        W13313   6.012  20.317  11.665
46531W        W13314  19.826   9.732  14.462
46532W        W13315   6.312  43.053  13.139
46533W        W13316  31.171  28.124   5.047
46534W        W13317   0.327  29.240  14.303
46535W        W13318  38.782   1.179   4.827
46536W        W13319  41.040  10.328   4.434
46537W        W13320  36.675   6.661   3.655
46538W        W13321  18.212   6.242   0.253
46539W        W13322   3.707  31.363  13.340
46540W        W13323  44.969  24.996   2.334
46541W        W13324  16.564  21.526   1.855
46542W        W13325  25.901   4.465   2.855
46543W        W13326  42.373  26.631  13.886
46544W        W13327  12.874   5.102   3.584
46545W        W13328   0.390  36.850  12.469
46546W        W13329  43.803  10.720  12.697
46547W        W13330  31.556  11.785   3.903
46548W        W13331  30.043  15.250   4.576
46549W        W13332  37.031  17.671  12.898
46550W        W13333  42.380   6.876  13.469
46551W        W13334  21.799  24.149   4.588
46552W        W13335   0.520  20.466  11.684
46553W        W13336  35.122  11.946  11.920
46554W        W13337  44.808   5.070   1.416
46555W        W13338  42.564  33.229   1.405
46556W        W13339  42.509  11.106  11.614
46557W        W13340  29.892  39.655   4.521
46558W        W13341  39.556  22.497   3.681
46559W        W13342   6.803   8.907   0.785
46560W        W13343  21.629  11.150   2.892
46561W        W13344   0.269  39.647  11.417
46562W        W13345  42.312   0.691   0.556
46563W        W13346  42.254  11.627   0.075
46564W        W13347   9.706   4.260   3.255
46565W        W13348   2.257  21.048  14.865
46566W        W13349  17.481  32.662  11.700
46567W        W13350  28.070   6.885  14.877
46568W        W13351  37.036  11.545  11.221
46569W        W13352  35.135  23.972   4.862
46570W        W13353  15.367  15.536   1.719
46571W        W13354  27.967  44.631   5.042
46572W        W13355  34.058  28.174   4.473
46573W        W13356   2.850  38.053  14.115
46574W        W13357  15.687  34.192   0.504
46575W        W13358  40.838  23.175  12.999
46576W        W13359  18.548  11.090  13.357
46577W        W13360  33.144  25.166   3.315
46578W        W13361  41.349  30.353  10.710
46579W        W13362  19.306  16.963  13.889
46580W        W13363   2.134  40.178   2.084
46581W        W13364  16.147  12.918  14.236
46582W        W13365  19.869   8.443   1.757
46583W        W13366  24.570  11.694   2.172
46584W        W13367  29.090  38.944   1.878
46585W        W13368   4.359  21.811  14.785
46586W        W13369  17.844  32.697   1.781
46587W        W13370  18.886  27.520   0.409
46588W        W13371   8.453  21.176   2.743
46589W        W13372  39.531   3.402  13.343
46590W        W13373  31.406  10.593  12.947
46591W        W13374  24.165  10.464   3.261
46592W        W13375  42.515  24.556  12.161
46593W        W13376  42.958  42.082   0.884
46594W        W13377  26.994  39.400   1.980
46595W        W13378  39.822  22.934   2.884
46596W        W13379  37.316   4.645   0.724
46597W        W13380  35.247   5.512  13.378
46598W        W13381  32.469   3.834  14.411
46599W        W13382  25.472  22.629  12.408
46600W        W13383  22.313  20.270   0.772
46601W        W13384  11.557  32.602  11.057
46602W        W13385  27.950  20.276   1.728
46603W        W13386   4.197  39.198   4.151
46604W        W13387  37.341   2.944  12.307
46605W        W13388  32.822   0.072  12.958
46606W        W13389  37.236   3.902   3.169
46607W        W13390   4.730  25.225  14.552
46608W        W13391  31.204  41.517  12.058
46609W        W13392  43.042  27.390   1.798
46610W        W13393  13.505  13.673   4.685
46611W        W13394   2.057  40.447   3.267
46612W        W13395  34.646   4.825   0.086
46613W        W13396   8.820  23.537   3.912
46614W        W13397  42.466   1.196   1.849
46615W        W13398  14.026   6.636   0.068
46616W        W13399   7.119  43.575  14.328
46617W        W13400   0.824   0.497  12.419
46618W        W13401  19.608  37.434   4.800
46619W        W13402  44.886  40.723  10.511
46620W        W13403  43.816  41.826  12.625
46621W        W13404  38.938  21.580  13.249
46622W        W13405  21.717  39.418   2.788
46623W        W13406  39.365  31.037   0.069
46624W        W13407  37.410  23.364   3.754
46625W        W13408  16.117   4.840  14.005
46626W        W13409  24.393   5.495   4.216
46627W        W13410  22.991   9.407   1.234
46628W        W13411  28.235  42.938  12.859
46629W        W13412   6.370  24.948   1.743
46630W        W13413  21.777   5.074   2.672
46631W        W13414  42.824  27.298   4.081
46632W        W13415  26.234   3.137  11.212
46633W        W13416  38.321  13.752   0.743
46634W        W13417   0.551  32.008  13.512
46635W        W13418  35.875  32.023   2.383
46636W        W13419   0.900   4.778   4.574
46637W        W13420   7.984  19.653  11.571
46638W        W13421  18.254  33.493   4.896
46639W        W13422  24.106  28.119   4.995
46640W        W13423  33.971  19.927   1.197
46641W        W13424  19.148   1.370  14.046
46642W        W13425  24.993  31.001  11.277
46643W        W13426   5.454  43.506   3.699
46644W        W13427  10.999  32.879  14.441
46645W        W13428  32.683  11.206  12.921
46646W        W13429   2.985   5.932  10.429
46647W        W13430  12.851  38.803   4.517
46648W        W13431  25.454   2.353   2.368
46649W        W13432  22.466  19.064  12.062
46650W        W13433  19.092  18.541  12.696
46651W        W13434  40.484   6.257  12.805
46652W        W13435  24.659  38.900   3.208
46653W        W13436  32.922  40.800  14.013
46654W        W13437  14.758   4.411  14.466
46655W        W13438   2.242   3.298   0.810
46656W        W13439  10.517   7.361  13.440
46657W        W13440  41.930   1.017   0.392
46658W        W13441  35.506  43.970  14.247
46659W        W13442  23.433   7.681  14.988
46660W        W13443  29.121  24.685   4.861
46661W        W13444   6.865   3.245   0.760
46662W        W13445  29.605  11.562   4.474
46663W        W13446  39.061   0.367   0.703
46664W        W13447  43.854  18.313  13.417
46665W        W13448  20.098  24.030   1.975
46666W        W13449   9.645  27.953  11.774
46667W        W13450  21.137  39.340   2.872
46668W        W13451  43.594  25.963   2.285
46669W        W13452  43.013  33.287   3.774
46670W        W13453  12.020  26.332   4.027
46671W        W13454  35.950  42.850  10.682
46672W        W13455  29.422   9.311   2.740
46673W        W13456  27.378  31.211   4.178
46674W        W13457  13.400  11.429   2.941
46675W        W13458  33.782  41.922  13.203
46676W        W13459  43.335  36.835   3.638
46677W        W13460  10.753  26.794   0.735
46678W        W13461  40.754  25.963   1.721
46679W        W13462   1.057  31.924   4.096
46680W        W13463  18.095  15.602  12.522
46681W        W13464  32.704  18.446  13.216
46682W        W13465   4.300  11.310   2.922
46683W        W13466   5.261  41.349  13.489
46684W        W13467  39.990   0.981  13.555
46685W        W13468  25.858  18.705  13.313
46686W        W13469   3.982  18.597  12.109
46687W        W13470  11.164   1.723  14.849
46688W        W13471   2.730  32.668  13.369
46689W        W13472  28.926   9.782   3.950
46690W        W13473   1.781  35.456   4.024
46691W        W13474   9.156   3.869  11.401
46692W        W13475  33.400   3.234  14.082
46693W        W13476  18.067  21.421  12.787
46694W        W13477  23.695  43.861   3.159
46695W        W13478  42.459  28.778   3.191
46696W        W13479   2.281   6.641   0.912
46697W        W13480  25.998  40.299  14.796
46698W        W13481  41.247  12.256   0.427
46699W        W13482   9.645  17.198  10.640
46700W        W13483  38.515  30.143   3.350
46701W        W13484  26.423  12.311  13.435
46702W        W13485  24.083  41.204  14.500
46703W        W13486  27.143  40.806  10.739
46704W        W13487  28.585   7.780  13.392
46705W        W13488  19.915  25.439   1.324
46706W        W13489  33.344  30.203   2.107
46707W        W13490  15.227  26.730  11.045
46708W        W13491  21.010   1.609  14.860
46709W        W13492   0.920  11.197   3.707
46710W        W13493  28.047  30.351   1.685
46711W        W13494  31.635  18.512  13.954
46712W        W13495   4.367  36.135   0.705
46713W        W13496   7.946  20.506  12.487
46714W        W13497  26.207  41.293  11.581
46715W        W13498  10.345  14.068  13.908
46716W        W13499   1.266  34.815   2.409
46717W        W13500  37.742  22.011   2.464
46718W        W13501  37.846   8.669  10.933
46719W        W13502  44.049  22.726   1.909
46720W        W13503  27.891  30.867  12.386
46721W        W13504  42.902  35.447   1.972
46722W        W13505  30.692  15.691  13.481
46723W        W13506   0.072  26.940  12.275
46724W        W13507  20.095  27.122  13.899
46725W        W13508  22.433   1.701  11.311
46726W        W13509   9.685  36.882  12.602
46727W        W13510  31.475   3.927  10.774
46728W        W13511  29.722  36.068   1.899
46729W        W13512  18.024   0.975   2.367
46730W        W13513   0.810  12.129  12.483
46731W        W13514   3.850   5.854  11.423
46732W        W13515  28.515   2.417   0.259
46733W        W13516   0.470  39.597  14.446
46734W        W13517  11.486  43.198   4.076
46735W        W13518  16.789   2.823  14.099
46736W        W13519   4.509  34.625   0.963
46737W        W13520  29.563  25.200   0.727
46738W        W13521  34.558  36.096  12.997
46739W        W13522  29.160  18.968  13.967
46740W        W13523  35.351   3.393   1.286
46741W        W13524  43.494  19.629   0.910
46742W        W13525   6.898  37.440  13.807
46743W        W13526   7.633  16.837   1.819
46744W        W13527   9.157  12.318  12.320
46745W        W13528  35.549  29.345   0.496
46746W        W13529  37.817  14.826   0.420
46747W        W13530  32.461  16.499  12.634
46748W        W13531  43.552  33.681  10.300
46749W        W13532  22.178  33.522  11.968
46750W        W13533   1.234  34.055  13.572
46751W        W13534   4.436  36.524   1.617
46752W        W13535  21.697   1.174  10.658
46753W        W13536   5.139  32.829  11.139
46754W        W13537  41.877   6.760   2.754
46755W        W13538  32.133  44.115   1.845
46756W        W13539   8.929  30.918  11.139
46757W        W13540  29.571  27.122   0.059
46758W        W13541  10.361  44.734  10.690
46759W        W13542   4.783   5.400   0.724
46760W        W13543   4.445  42.587   2.403
46761W        W13544  14.568  15.326  14.485
46762W        W13545   6.634   9.620  13.060
46763W        W13546   1.834  35.098  14.052
46764W        W13547  24.159  38.894  14.855
46765W        W13548  36.642  35.858  13.799
46766W        W13549   1.403   7.949   3.620
46767W        W13550  35.398  37.504   2.983
46768W        W13551  34.965  11.322   4.579
46769W        W13552  11.391   6.905  10.374
46770W        W13553  37.123   0.822   0.836
46771W        W13554   6.308  28.451   1.857
46772W        W13555  17.499  11.521   1.809
46773W        W13556  33.558  26.205   3.871
46774W        W13557  38.333   7.509  14.753
46775W        W13558  40.529   5.162   4.094
46776W        W13559  37.290  10.239   3.268
46777W        W13560   0.424   4.418   4.118
46778W        W13561  22.565  38.663   4.730
46779W        W13562   5.353  41.950   1.311
46780W        W13563  44.877  37.631   0.110
46781W        W13564  33.920  18.517   3.196
46782W        W13565  33.473  14.686   0.229
46783W        W13566  33.873  28.354   0.017
46784W        W13567   0.950  22.598  13.132
46785W        W13568  22.303  34.905  11.147
46786W        W13569   3.902  16.801   1.343
46787W        W13570  43.428  14.588   0.312
46788W        W13571  27.029  22.130  14.466
46789W        W13572  30.165  27.975   3.041
46790W        W13573   0.669   4.208   0.932
46791W        W13574  21.097  31.163   3.702
46792W        W13575  32.902   9.864  10.983
46793W        W13576  20.250  16.002  10.759
46794W        W13577  35.937   2.916   3.785
46795W        W13578   0.483  14.697   1.360
46796W        W13579  40.393  42.047   0.176
46797W        W13580  20.769  35.674  14.963
46798W        W13581  12.617  19.470  11.709
46799W        W13582  29.131  17.192  14.872
46800W        W13583  44.444  35.966  14.929
46801W        W13584  17.859  31.384   0.083
46802W        W13585  27.115  34.942   4.539
46803W        W13586  15.786  30.154  13.418
46804W        W13587  14.024  35.139  10.231
46805W        W13588  14.885  31.837  13.001
46806W        W13589  38.401  21.164   1.690
46807W        W13590  33.433  10.320   3.203
46808W        W13591  29.072   0.942  10.752
46809W        W13592  41.824   6.893  12.062
46810W        W13593  30.074  22.133   3.957
46811W        W13594  39.559  34.905   0.675
46812W        W13595  17.725  42.949  10.665
46813W        W13596  29.109   7.761   3.113
46814W        W13597  23.524  37.044  12.650
46815W        W13598  22.952   1.937  11.991
46816W        W13599  24.526  10.359  10.648
46817W        W13600  26.488  22.225   0.391
46818W        W13601  23.415   6.792   1.066
46819W        W13602  31.293  18.990  11.067
46820W        W13603  13.706  21.235   2.115
46821W        W13604  34.351   6.742  14.685
46822W        W13605   9.899   5.258   4.245
46823W        W13606  14.355  23.526   3.664
46824W        W13607  34.584  17.758  10.848
46825W        W13608  26.761  15.663   4.611
46826W        W13609   6.311   2.581   3.619
46827W        W13610  23.995  11.096   0.899
46828W        W13611  11.917  33.559   0.354
46829W        W13612  42.460  28.499  14.096
46830W        W13613  42.826  32.992  13.578
46831W        W13614  23.133  35.110   4.559
46832W        W13615   2.877   2.268  11.633
46833W        W13616  38.427  28.022   4.889
46834W        W13617  34.437  17.792  14.265
46835W        W13618   9.579  30.303  11.066
46836W        W13619  15.765  15.411   0.369
46837W        W13620  37.773  17.709  14.450
46838W        W13621  13.251  37.047  12.197
46839W        W13622   8.944  40.445  13.467
46840W        W13623  39.992  25.773   1.094
46841W        W13624  44.134   0.948   0.348
46842W        W13625  22.181  18.457  11.588
46843W        W13626  35.082  10.142  11.953
46844W        W13627   0.798  29.521   0.026
46845W        W13628  28.073  21.131  14.281
46846W        W13629  15.760  10.835  14.018
46847W        W13630  34.464  33.641  13.888
46848W        W13631  41.827  37.535  12.148
46849W        W13632  15.423  26.647  11.510
46850W        W13633  21.596  13.713  11.236
46851W        W13634   0.712  23.007  11.214
46852W        W13635  23.490  39.927  11.891
46853W        W13636  16.705  44.632   3.578
46854W        W13637   6.702  42.745   0.897
46855W        W13638  30.540  31.963  13.444
46856W        W13639  31.443  38.225  11.948
46857W        W13640  32.685  20.133  14.950
46858W        W13641  18.857  32.176   4.094
46859W        W13642  29.261  41.917   3.319
46860W        W13643  24.670  31.789  12.877
46861W        W13644   6.935   2.090   0.940
46862W        W13645  12.336  14.923   0.395
46863W        W13646  33.951   0.802  11.683
46864W        W13647   3.986  28.696   0.415
46865W        W13648  40.323  22.786  12.423
46866W        W13649  11.775  18.814  11.712
46867W        W13650  38.520   8.181   3.740
46868W        W13651  43.262  24.437  13.387
46869W        W13652  17.450  34.307   1.931
46870W        W13653   8.525  24.317   4.154
46871W        W13654  40.069  29.103   3.405
46872W        W13655  18.861  16.843  11.079
46873W        W13656   4.449  13.294  11.598
46874W        W13657  22.845  43.533   2.940
46875W        W13658  27.071  17.341   3.082
46876W        W13659   4.315  33.851   3.807
46877W        W13660   9.310  12.212  10.558
46878W        W13661  33.546  30.381   4.743
46879W        W13662  15.221  25.435  13.361
46880W        W13663  32.463  30.441  14.873
46881W        W13664  12.325  35.125   9.855
46882W        W13665   1.516  22.945   1.834
46883W        W13666  18.756  27.662   2.240
46884W        W13667  36.885  35.133  13.437
46885W        W13668  15.228  40.873   3.319
46886W        W13669  19.846  22.622  14.303
46887W        W13670   0.878  16.629   4.186
46888W        W13671   4.831  10.395  10.655
46889W        W13672  12.124  11.245   3.563
46890W        W13673  21.703  23.121  10.564
46891W        W13674   4.593  21.158   1.359
46892W        W13675  32.099   2.454  13.996
46893W        W13676  44.569  16.262   0.274
46894W        W13677  14.808  10.809   1.317
46895W        W13678  12.123   2.431  13.720
46896W        W13679   7.225  23.732   2.656
46897W        W13680  32.151  12.176   3.197
46898W        W13681  42.536  22.534   1.841
46899W        W13682  28.468  15.748   4.133
46900W        W13683  33.581   6.002   1.401
46901W        W13684  28.459  39.498  12.775
46902W        W13685  32.163  44.754   0.242
46903W        W13686  44.373  18.158   0.087
46904W        W13687  10.156  13.321   3.172
46905W        W13688  26.019   5.996   0.350
46906W        W13689  43.759  27.146  13.535
46907W        W13690  43.006  32.643  11.510
46908W        W13691  41.384  35.317  13.497
46909W        W13692  15.309  19.339   2.387
46910W        W13693  41.741   3.247  13.431
46911W        W13694  25.969   7.375  11.422
46912W        W13695  33.272  16.204  14.255
46913W        W13696  38.859   1.260   3.957
46914W        W13697  13.087  42.207  10.838
46915W        W13698   5.382  31.724   4.176
46916W        W13699  12.542  19.847  12.946
46917W        W13700  33.386  15.802   0.891
46918W        W13701  23.013  21.646   4.582
46919W        W13702  34.131   9.848  10.766
46920W        W13703   2.002  42.978   3.078
46921W        W13704  10.387  40.607  12.005
46922W        W13705   5.614  13.002   4.154
46923W        W13706   3.199   7.108   0.760
46924W        W13707  20.214  39.049   4.645
46925W        W13708  18.599  19.537  13.375
46926W        W13709  43.261  39.278  13.791
46927W        W13710  38.235  30.177  12.553
46928W        W13711  38.606  24.320  12.007
46929W        W13712  17.090   5.863  10.578
46930W        W13713  15.238   5.446   4.277
46931W        W13714  24.550  35.079   1.965
46932W        W13715  16.268   9.053   1.787
46933W        W13716   4.400   1.444   0.852
46934W        W13717  14.254   8.399  13.108
46935W        W13718  35.283   6.435  11.963
46936W        W13719  36.122  41.990  10.678
46937W        W13720   4.093  39.949   2.151
46938W        W13721  37.495  42.691  14.636
46939W        W13722  18.061  40.049  13.450
46940W        W13723   2.052  41.100  13.069
46941W        W13724   8.370   1.565   3.280
46942W        W13725  29.840  39.549   3.652
46943W        W13726  37.570   4.651   0.258
46944W        W13727  32.415  32.927   0.910
46945W        W13728  14.167  10.209  12.559
46946W        W13729  31.172  20.992  12.075
46947W        W13730  28.524   0.822  14.521
46948W        W13731  35.846  34.116   1.695
46949W        W13732  33.176  43.049   9.896
46950W        W13733  25.102  15.196   0.445
46951W        W13734  14.089  16.107   4.751
46952W        W13735   1.392  10.595   0.842
46953W        W13736   0.827  20.737   2.225
46954W        W13737  40.689  13.729   3.584
46955W        W13738  36.952  13.372   1.164
46956W        W13739  20.579  30.512   4.663
46957W        W13740  20.254  43.349  11.954
46958W        W13741   4.444   5.964  13.011
46959W        W13742  30.438  28.448   3.693
46960W        W13743  16.566  21.140  13.940
46961W        W13744  18.115  11.812   2.402
46962W        W13745  17.365  18.046  10.607
46963W        W13746  25.965  39.804  14.961
46964W        W13747   2.070  24.813  13.376
46965W        W13748  10.861  39.905   4.223
46966W        W13749   8.188  18.988  11.408
46967W        W13750  31.639  34.420  14.374
46968W        W13751  27.722   3.848  10.529
46969W        W13752  21.236  25.266   2.267
46970W        W13753  15.823   8.651  14.892
46971W        W13754  33.081  35.609   2.359
46972W        W13755  12.600  10.485  11.599
46973W        W13756   6.562  43.458  11.002
46974W        W13757  13.515   3.198  13.444
46975W        W13758  38.416  19.181   4.612
46976W        W13759  17.675  34.092  11.476
46977W        W13760  28.478  37.854  13.581
46978W        W13761  11.654  22.439  12.163
46979W        W13762  38.854  43.830  13.365
46980W        W13763   0.928  44.509  12.863
46981W        W13764  29.546  35.166  14.976
46982W        W13765   3.892   5.981   3.906
46983W        W13766  18.693  23.900  11.868
46984W        W13767  30.618  44.749  10.611
46985W        W13768   3.898   0.458  14.139
46986W        W13769  31.119  16.823   0.407
46987W        W13770  27.746  19.684  11.963
46988W        W13771  41.876   0.397  11.900
46989W        W13772  18.298  38.933   4.276
46990W        W13773   3.232  30.951  10.695
46991W        W13774  31.366  16.437   3.641
46992W        W13775  32.520  33.041  11.778
46993W        W13776  30.820  40.364  10.660
46994W        W13777   0.124   5.245   4.512
46995W        W13778  10.620  42.617   2.732
46996W        W13779  40.082  27.698  12.298
46997W        W13780  30.956  19.669   1.257
46998W        W13781  24.721  28.748  12.992
46999W        W13782  35.625  20.235   2.569
47000W        W13783  30.007  20.485  13.166
47001W        W13784  40.811   2.804  13.392
47002W        W13785  24.605  34.524   4.611
47003W        W13786  27.445  18.646   4.611
47004W        W13787   1.484  35.022  11.574
47005W        W13788  31.403  13.624   3.668
47006W        W13789  33.149   9.844   3.153
47007W        W13790  38.162   3.997  13.424
47008W        W13791  12.627   4.559   1.337
47009W        W13792   1.317  41.978  12.054
47010W        W13793  22.105  16.249  13.741
47011W        W13794  44.414  29.530  11.594
47012W        W13795  26.112   4.842  12.533
47013W        W13796  16.577   4.756   1.486
47014W        W13797  27.217  26.825  11.055
47015W        W13798  29.870   4.751  11.082
47016W        W13799  28.355  32.960   3.414
47017W        W13800  29.676  34.061   4.251
47018W        W13801   9.390   3.193   2.678
47019W        W13802  31.011  42.568   1.236
47020W        W13803   9.861  31.658   1.719
47021W        W13804  28.669  20.179   2.919
47022W        W13805  19.630  19.038   4.806
47023W        W13806  15.690  19.303  13.913
47024W        W13807  10.869  11.354   1.448
47025W        W13808  10.312  30.583   3.450
47026W        W13809  16.635  26.208  11.900
47027W        W13810   3.888   2.937  11.735
47028W        W13811  14.596  17.385   1.286
47029W        W13812  28.056   7.247   0.398
47030W        W13813  18.627  42.808   1.736
47031W        W13814  33.066  25.228  11.060
47032W        W13815  10.675  22.753  10.341
47033W        W13816  31.158   3.425  11.606
47034W        W13817  23.606  20.741   0.484
47035W        W13818  39.614  37.292  14.646
47036W        W13819  30.558  22.728   1.988
47037W        W13820  25.638  19.046  12.481
47038W        W13821  14.811   4.310  13.948
47039W        W13822   8.373  19.330  11.755
47040W        W13823  11.147   0.739  11.045
47041W        W13824  23.488  39.063  13.422
47042W        W13825  27.509  13.283  11.182
47043W        W13826   1.966  35.839  14.107
47044W        W13827  12.701  29.553   1.794
47045W        W13828  23.536  35.803  14.889
47046W        W13829  22.280   9.764   3.198
47047W        W13830  40.272  22.183   3.618
47048W        W13831  32.990  44.937  10.906
47049W        W13832  10.382  29.517   4.558
47050W        W13833  26.288  41.025  12.004
47051W        W13834  42.258   4.398  13.965
47052W        W13835  42.106  32.325   4.567
47053W        W13836   9.160   4.856   4.519
47054W        W13837   0.195  28.127  11.790
47055W        W13838  14.633  36.310  12.634
47056W        W13839  40.627  12.353   3.085
47057W        W13840  10.835   0.555  12.425
47058W        W13841  32.489  19.904  12.841
47059W        W13842  10.242   5.387  12.914
47060W        W13843   9.265  18.357  11.501
47061W        W13844  44.975   8.652   2.610
47062W        W13845  13.610   8.320  11.884
47063W        W13846  34.521  39.492   1.368
47064W        W13847  43.812  42.909  11.232
47065W        W13848  38.007   4.418   3.187
47066W        W13849  21.933  14.583   0.364
47067W        W13850  19.280  12.374   2.217
47068W        W13851   9.731   6.233   4.830
47069W        W13852  20.651  10.563  12.520
47070W        W13853   9.878  35.948  12.328
47071W        W13854  44.720   7.188   1.353
47072W        W13855   7.214  10.435   1.816
47073W        W13856  14.086  31.103   4.572
47074W        W13857  33.794  31.864   4.172
47075W        W13858   0.858  28.497  12.884
47076W        W13859   2.221   5.231   1.716
47077W        W13860  12.106  29.094  13.390
47078W        W13861  23.723  10.943   2.177
47079W        W13862  34.500  11.230   4.787
47080W        W13863   6.211  40.952   0.696
47081W        W13864   6.332  20.099   4.177
47082W        W13865  20.104  38.074  11.981
47083W        W13866   7.202   9.173  11.137
47084W        W13867   5.550  14.744   3.861
47085W        W13868  41.782  27.102   1.803
47086W        W13869  36.793  11.328  13.855
47087W        W13870  32.156  42.110  14.420
47088W        W13871  10.110  38.821   4.578
47089W        W13872  24.550  28.194   3.527
47090W        W13873   7.788  36.316  13.436
47091W        W13874  20.035  19.805  11.108
47092W        W13875  40.242   3.634  13.803
47093W        W13876  16.461  23.359   2.381
47094W        W13877  24.204  39.480  11.088
47095W        W13878   2.645  23.416   0.358
47096W        W13879  41.216   7.181   3.610
47097W        W13880  41.266  28.469  10.748
47098W        W13881  12.670  17.194  11.843
47099W        W13882  33.974   8.750  11.047
47100W        W13883  14.338  29.449  12.063
47101W        W13884  33.360  23.640   0.418
47102W        W13885   3.776   8.689  14.904
47103W        W13886  22.500  43.320   4.885
47104W        W13887  34.187   2.663  10.652
47105W        W13888  30.084  39.389   4.123
47106W        W13889  26.018  30.027  14.788
47107W        W13890   6.848  41.229   1.849
47108W        W13891  22.111  28.482   0.905
47109W        W13892   5.190  38.558   3.751
47110W        W13893  38.143  23.625   0.937
47111W        W13894  17.188  30.974   2.751
47112W        W13895   1.992   3.391  14.185
47113W        W13896  10.362  27.498   2.106
47114W        W13897  22.046  43.521   1.160
47115W        W13898  15.077  22.719   1.822
47116W        W13899  27.589  28.479   4.877
47117W        W13900  18.373  19.543   3.199
47118W        W13901  29.151   0.736  12.732
47119W        W13902   8.430   2.183  14.817
47120W        W13903  20.523  36.174   4.119
47121W        W13904   9.345   3.262   1.792
47122W        W13905  22.157  38.191   1.757
47123W        W13906   4.994  15.155  13.896
47124W        W13907   9.144  27.876   3.384
47125W        W13908  44.402   8.608  14.771
47126W        W13909  32.410   2.026   1.994
47127W        W13910  38.934  31.098  14.465
47128W        W13911  43.344   5.414   2.329
47129W        W13912  16.821  28.700   2.321
47130W        W13913  22.519  22.029   1.903
47131W        W13914  21.556  10.703   3.699
47132W        W13915  31.936  12.232   0.924
47133W        W13916  10.353  32.861  10.628
47134W        W13917  29.156  39.102   0.830
47135W        W13918  26.036  21.770   3.583
47136W        W13919  35.688  24.017  10.819
47137W        W13920  24.253  26.280   1.840
47138W        W13921  39.527  36.976  10.935
47139W        W13922  13.228  34.427  11.549
47140W        W13923  37.424  14.276  12.891
47141W        W13924  26.250  18.643  13.979
47142W        W13925  21.428  20.671  10.954
47143W        W13926   8.308  14.838   2.397
47144W        W13927   8.179  16.633   0.758
47145W        W13928   5.388   7.974  13.839
47146W        W13929  17.949  35.021   1.759
47147W        W13930  42.071  18.181  14.997
47148W        W13931   3.005  39.406   0.723
47149W        W13932  37.100  39.783  12.037
47150W        W13933  25.976  21.566   0.890
47151W        W13934  14.474   0.052   1.883
47152W        W13935  17.160  26.134   1.472
47153W        W13936  38.838  32.558  12.861
47154W        W13937  29.443  38.783  12.966
47155W        W13938  41.625  12.597   3.116
47156W        W13939  39.962  30.261  11.600
47157W        W13940  43.866  39.276   1.303
47158W        W13941  35.109   8.719   3.008
47159W        W13942  31.914  11.682  13.134
47160W        W13943   4.921  31.512   4.051
47161W        W13944  11.768  35.297  12.507
47162W        W13945  19.647  25.804  11.562
47163W        W13946  44.029   2.832   0.914
47164W        W13947   0.403  20.026  13.137
47165W        W13948  38.393   3.871  10.675
47166W        W13949   2.003  18.268  11.228
47167W        W13950  25.594  29.289   9.745
47168W        W13951  39.331  42.033   0.214
47169W        W13952  10.924  24.653  11.865
47170W        W13953  31.818  13.813   1.172
47171W        W13954  30.315   8.909   0.506
47172W        W13955   1.334   8.135   2.312
47173W        W13956  27.080  44.638  10.271
47174W        W13957  16.015   6.449   4.177
47175W        W13958  29.892  32.171  10.739
47176W        W13959  11.150   0.954  12.606
47177W        W13960   2.940   5.842  10.937
47178W        W13961  44.697   9.239   0.368
47179W        W13962  24.946  14.393  12.396
47180W        W13963   2.467  44.924  14.841
47181W        W13964  12.571  40.410  13.609
47182W        W13965  11.316  36.301  10.177
47183W        W13966  38.617  20.678  14.855
47184W        W13967  37.882   7.164   4.129
47185W        W13968   1.868  28.597   4.018
47186W        W13969   2.127  36.684  10.733
47187W        W13970  11.883  31.949   4.241
47188W        W13971  28.221  30.938  12.021
47189W        W13972  21.312  25.589   3.841
47190W        W13973  30.036  33.706  13.247
47191W        W13974   2.450  12.892  14.878
47192W        W13975  34.478  23.866   3.221
47193W        W13976   8.764  32.824   1.873
47194W        W13977  21.724  14.857  10.049
47195W        W13978  24.678   4.811  13.086
47196W        W13979  35.485  33.573   1.990
47197W        W13980  35.133  34.379   2.020
47198W        W13981  40.109   4.798   4.126
47199W        W13982  31.894  28.924  11.679
47200W        W13983   5.404  34.855   4.686
47201W        W13984   3.289  42.319  13.424
47202W        W13985  10.190  13.121   1.692
47203W        W13986  37.191  21.229  12.937
47204W        W13987  27.924   2.078  12.509
47205W        W13988   3.159   7.818  13.899
47206W        W13989   0.430  41.350  14.503
47207W        W13990   1.766  14.732   2.689
47208W        W13991  14.850  28.557  12.217
47209W        W13992  20.716  15.692   9.907
47210W        W13993  18.218  26.215  11.155
47211W        W13994   9.927  32.053  13.045
47212W        W13995  42.370  27.176  10.508
47213W        W13996   8.205   3.775   4.538
47214W        W13997  13.567   0.890  11.987
47215W        W13998  11.701  21.728  10.663
47216W        W13999  33.404   4.770   2.207
47217W        W14000  27.887  21.996  13.874
47218W        W14001  23.286  17.641   4.150
47219W        W14002   0.262  32.397   0.685
47220W        W14003  12.907  11.372   4.234
47221W        W14004   3.709   4.163  13.020
47222W        W14005  28.520  21.300  10.684
47223W        W14006  28.337  42.576   2.280
47224W        W14007   1.721   1.339  14.089
47225W        W14008  11.385   1.352   1.534
47226W        W14009  21.524  24.644  14.307
47227W        W14010  42.373  32.369   3.228
47228W        W14011  40.370  43.896  13.396
47229W        W14012  20.719  33.770   5.006
47230W        W14013   8.116  28.080  11.620
47231W        W14014  28.036  28.524  14.957
47232W        W14015  44.345  10.950  10.502
47233W        W14016  10.415  30.682   2.114
47234W        W14017  20.606  17.083   0.789
47235W        W14018  34.519   0.323  14.415
47236W        W14019  14.673  23.951   3.699
47237W        W14020   6.369   3.729   1.462
47238W        W14021  23.612  17.451  12.008
47239W        W14022  42.894  35.726   3.705
47240W        W14023  16.174  21.425  11.589
47241W        W14024  26.421   5.284  13.323
47242W        W14025   7.416  42.137   4.998
47243W        W14026  17.530  12.916  11.356
47244W        W14027  26.529  23.898  11.989
47245W        W14028  41.514  23.770  12.499
47246W        W14029  42.033  13.784  13.970
47247W        W14030   6.799   2.343  11.533
47248W        W14031  44.912   1.034  10.800
47249W        W14032  33.659  35.469   1.709
47250W        W14033  11.387  34.663  11.261
47251W        W14034  32.877  21.578  14.402
47252W        W14035   4.174  17.848  12.138
47253W        W14036   5.345  37.031   1.697
47254W        W14037   3.348  10.889  12.326
47255W        W14038  29.426  34.345   0.370
47256W        W14039  36.532  38.967  12.684
47257W        W14040  32.191  17.483  10.547
47258W        W14041  29.889  29.253  14.914
47259W        W14042   2.930  20.730  10.619
47260W        W14043   5.887  43.303   0.268
47261W        W14044   4.795  43.872   4.306
47262W        W14045  25.225  35.962   4.223
47263W        W14046  38.259  13.349  11.099
47264W        W14047   2.930   3.305  12.503
47265W        W14048  21.650   4.745   2.283
47266W        W14049  28.548  36.564  14.374
47267W        W14050  41.010  36.859  11.175
47268W        W14051  34.332  34.752  14.850
47269W        W14052   0.802   9.153   1.304
47270W        W14053  26.964  36.386  13.019
47271W        W14054  19.711  36.397   3.750
47272W        W14055   2.507  21.759   0.794
47273W        W14056  10.075   5.335   1.667
47274W        W14057  19.849  31.198   3.272
47275W        W14058   9.250  27.949  12.099
47276W        W14059  34.432  18.610   3.301
47277W        W14060  20.657  39.482  12.823
47278W        W14061  20.840  43.469  10.651
47279W        W14062  36.936   5.458  12.035
47280W        W14063  36.757  11.584  14.304
47281W        W14064  36.760  21.237  12.651
47282W        W14065  31.512  24.325  14.263
47283W        W14066   0.711  13.549   0.864
47284W        W14067  18.412  31.422   0.068
47285W        W14068   6.013   9.310   3.556
47286W        W14069  19.276  28.005   3.120
47287W        W14070  36.869  29.612  11.534
47288W        W14071  33.476  18.408   1.655
47289W        W14072  38.288  35.792  13.788
47290W        W14073  35.436  34.349  11.163
47291W        W14074  44.888  10.640  12.436
47292W        W14075  16.575  29.953  14.696
47293W        W14076  32.769  38.015   1.928
47294W        W14077  19.676  30.542   1.852
47295W        W14078   7.718  40.893   0.329
47296W        W14079   0.320  22.945  12.995
47297W        W14080   6.924  23.532   0.404
47298W        W14081  41.808  32.049  14.131
47299W        W14082   5.249  18.278  12.345
47300W        W14083  35.730  22.211  10.548
47301W        W14084  23.079  12.811   3.584
47302W        W14085  31.502  41.594   0.405
47303W        W14086  44.304   7.999  11.879
47304W        W14087   5.360  15.351  14.755
47305W        W14088  22.260  15.017  12.003
47306W        W14089  23.873   0.234  14.917
47307W        W14090   5.155  29.007  14.817
47308W        W14091   4.110  21.950  11.803
47309W        W14092   4.922  39.144   5.089
47310W        W14093   3.384  25.396  12.433
47311W        W14094   6.038  19.060  11.159
47312W        W14095  37.958   7.270  11.504
47313W        W14096  33.406   8.417  12.883
47314W        W14097   5.105   0.681  12.385
47315W        W14098  22.597   9.488  14.198
47316W        W14099  31.036  17.697   2.875
47317W        W14100  39.922   7.444   3.719
47318W        W14101   1.090  16.850   1.428
47319W        W14102  37.519  10.605  14.130
47320W        W14103  36.970  38.308  14.485
47321W        W14104   5.753  18.108   0.467
47322W        W14105  29.176  27.712  14.415
47323W        W14106  28.105  38.589   4.598
47324W        W14107  25.162   5.713   1.991
47325W        W14108  16.150  29.535   3.990
47326W        W14109  38.392  14.842   4.809
47327W        W14110  27.383  35.157  12.033
47328W        W14111  25.295  22.617  11.925
47329W        W14112  42.095  10.825   5.050
47330W        W14113  20.113  13.200  11.573
47331W        W14114  11.880  11.770   1.698
47332W        W14115  28.855  41.510  11.594
47333W        W14116  29.055   9.306   4.564
47334W        W14117   0.015  27.214   1.816
47335W        W14118   2.965  15.205  11.246
47336W        W14119  31.544  39.950  12.332
47337W        W14120  12.331  19.057  13.337
47338W        W14121  41.791  21.900   2.746
47339W        W14122  32.955  10.148  14.411
47340W        W14123   8.880  44.214   9.919
47341W        W14124  44.101   2.318  14.391
47342W        W14125  37.074  12.057   2.351
47343W        W14126   4.772  41.278  11.586
47344W        W14127  20.501   9.627   2.212
47345W        W14128  14.727   2.281  10.724
47346W        W14129  38.064  22.007   1.224
47347W        W14130   6.493   3.864  11.600
47348W        W14131  31.602  25.511   4.331
47349W        W14132  20.067  35.612  13.942
47350W        W14133   5.126  29.052   4.564
47351W        W14134  15.867  25.703  11.566
47352W        W14135  29.154  27.809   0.774
47353W        W14136  30.845  15.242  11.616
47354W        W14137   5.363  36.910   2.671
47355W        W14138   4.030  16.568  13.488
47356W        W14139  29.213  20.082   0.851
47357W        W14140  29.144  35.276  14.628
47358W        W14141  21.557   8.607  13.450
47359W        W14142   2.676   3.921   4.161
47360W        W14143   6.397  34.359  10.360
47361W        W14144  13.222  19.150   1.338
47362W        W14145  24.332  17.956   0.278
47363W        W14146  18.907   2.343  12.669
47364W        W14147  35.768  31.905  11.217
47365W        W14148   1.570   3.618   4.993
47366W        W14149   3.330  17.917   0.465
47367W        W14150  41.246   8.577   3.506
47368W        W14151   8.925  36.924   1.814
47369W        W14152  19.094  15.611  13.953
47370W        W14153   6.715   9.355   1.333
47371W        W14154  13.813  38.257   3.788
47372W        W14155  24.702  15.962  13.206
47373W        W14156  30.190  12.190  12.355
47374W        W14157  25.565  43.434   1.701
47375W        W14158   3.236  25.858  12.587
47376W        W14159   5.807  35.773   2.827
47377W        W14160  43.573  37.162   5.043
47378W        W14161  39.809  25.683  11.519
47379W        W14162  32.154   9.386   4.046
47380W        W14163  19.985  31.487  13.385
47381W        W14164  40.298  19.132  11.566
47382W        W14165   2.646  40.005  13.466
47383W        W14166   1.437  18.768  11.812
47384W        W14167  10.179  12.303  12.560
47385W        W14168  25.935  37.806  12.622
47386W        W14169  39.794   9.319   0.701
47387W        W14170  37.084   0.499   1.296
47388W        W14171  35.455  14.603  10.731
47389W        W14172  38.254  13.672   2.183
47390W        W14173  13.222  22.425   3.184
47391W        W14174  25.749  27.116   2.245
47392W        W14175   8.340  32.235  10.984
47393W        W14176  36.030  20.704  13.157
47394W        W14177  41.934  35.761   3.590
47395W        W14178   2.472  42.282   2.732
47396W        W14179  24.920  18.671   4.158
47397W        W14180  44.153  33.594   1.765
47398W        W14181  33.863  29.618   4.269
47399W        W14182  10.649  29.737   2.961
47400W        W14183   7.452  10.875  14.935
47401W        W14184   3.690  16.183  11.920
47402W        W14185  12.840  29.352  11.603
47403W        W14186   9.769  18.297  14.154
47404W        W14187   2.666  40.274   0.628
47405W        W14188  10.780  19.014  10.699
47406W        W14189  24.823  22.539  13.009
47407W        W14190  32.994  38.364  13.321
47408W        W14191  32.644  24.994  12.983
47409W        W14192  22.984   7.237  14.136
47410W        W14193  29.438  41.419   2.630
47411W        W14194  14.073  37.175  13.058
47412W        W14195  24.625  28.025   0.790
47413W        W14196  15.174  12.875   1.411
47414W        W14197  10.066   9.966   3.983
47415W        W14198   8.670  20.237   0.284
47416W        W14199  22.728  31.543   3.106
47417W        W14200  28.951  33.986   3.666
47418W        W14201  25.097  10.897  11.038
47419W        W14202  38.252   4.024   1.973
47420W        W14203  26.175  27.993   2.718
47421W        W14204   9.708  37.717   3.210
47422W        W14205  11.213  38.141   2.077
47423W        W14206   5.949  14.592   1.827
47424W        W14207  43.524   1.913  12.271
47425W        W14208  14.311  30.638   4.620
47426W        W14209  36.868  32.087   4.356
47427W        W14210   4.323  44.104  11.080
47428W        W14211  43.597   8.601   3.579
47429W        W14212  37.576  18.071  11.190
47430W        W14213  40.312  36.748  14.069
47431W        W14214  42.589  28.038   3.686
47432W        W14215  18.952  26.409   0.349
47433W        W14216  31.106   3.712   0.212
47434W        W14217   8.653  38.360   3.620
47435W        W14218  42.802  34.833   3.654
47436W        W14219  26.955  15.739   9.890
47437W        W14220  43.727  10.734   1.070
47438W        W14221  21.964  36.546   0.343
47439W        W14222  20.446  39.578  14.126
47440W        W14223  26.664   8.776  10.665
47441W        W14224  42.302   9.260   1.906
47442W        W14225  28.892   1.038  13.073
47443W        W14226  32.394  18.044   1.404
47444W        W14227  43.884  17.163  13.789
47445W        W14228  28.593   4.194  14.383
47446W        W14229   1.680  33.432   4.587
47447W        W14230  35.163  44.592   0.008
47448W        W14231  36.893  35.046   2.770
47449W        W14232  15.551   8.727  10.664
47450W        W14233  24.350   0.447  14.844
47451W        W14234  10.362   5.900   0.488
47452W        W14235  29.614  23.493   2.655
47453W        W14236  18.804  16.831  13.901
47454W        W14237  40.329  15.802   3.732
47455W        W14238  30.501  27.729  11.133
47456W        W14239  15.293  40.393  10.592
47457W        W14240  19.684   6.889  10.768
47458W        W14241   4.270  24.043   4.809
47459W        W14242  32.245  44.372  13.009
47460W        W14243  28.925   9.697  11.949
47461W        W14244  32.666  34.184  13.945
47462W        W14245   9.148  13.749  12.475
47463W        W14246  21.521  16.426  10.236
47464W        W14247  21.692  39.103   3.845
47465W        W14248   3.262  11.931  14.026
47466W        W14249  38.310   8.792   0.975
47467W        W14250  13.393   9.356   1.841
47468W        W14251  34.556   4.245   2.397
47469W        W14252   1.854   2.447  10.507
47470W        W14253  34.942   5.848   3.166
47471W        W14254  23.417   9.133  11.247
47472W        W14255  30.932  21.117   4.581
47473W        W14256  21.216  44.154   2.690
47474W        W14257  19.566  12.694  11.592
47475W        W14258   2.280  27.511   1.927
47476W        W14259  35.848  32.571   2.608
47477W        W14260   3.334   2.698  10.590
47478W        W14261  36.749  16.466   0.882
47479W        W14262  38.062  27.053  13.059
47480W        W14263  43.904   2.620   3.578
47481W        W14264  38.949  34.894  14.981
47482W        W14265  37.117  40.553   4.500
47483W        W14266   3.041  15.521   3.554
47484W        W14267  28.233  28.774   1.948
47485W        W14268  26.204  26.146  11.570
47486W        W14269  39.012  23.115  11.879
47487W        W14270   4.018   4.333   0.150
47488W        W14271  38.881  42.495  10.677
47489W        W14272  20.875  34.398  12.529
47490W        W14273  28.472  19.590   3.682
47491W        W14274  21.940   7.077   5.185
47492W        W14275   9.182  32.675   4.650
47493W        W14276   1.413  25.944  10.965
47494W        W14277  19.181  13.252  10.938
47495W        W14278  30.174  21.735   2.546
47496W        W14279  20.331   8.338  12.069
47497W        W14280  17.554   3.716  13.150
47498W        W14281  19.007   0.292  12.205
47499W        W14282  33.043   2.731  12.976
47500W        W14283  18.205  25.113  13.795
47501W        W14284  28.135  18.391  12.591
47502W        W14285   6.197   8.449   3.305
47503W        W14286  27.503  13.803  11.270
47504W        W14287  39.944  12.862  13.423
47505W        W14288   0.039  32.020  10.412
47506W        W14289  26.725  21.033  11.083
47507W        W14290   3.789  30.496   3.695
47508W        W14291  36.618  29.731  12.884
47509W        W14292  17.922   7.297   4.600
47510W        W14293   5.264  44.894   3.636
47511W        W14294  21.119  39.083  13.983
47512W        W14295  42.854  40.263   1.303
47513W        W14296  30.861  17.733   3.384
47514W        W14297   6.493  24.951   3.675
47515W        W14298  31.455  10.657  13.775
47516W        W14299  12.652  29.145   3.794
47517W        W14300   4.874   0.974   2.233
47518W        W14301   1.090  22.470   4.640
47519W        W14302  44.717  20.346   1.469
47520W        W14303  14.364   7.642  10.929
47521W        W14304   3.515  21.912  14.855
47522W        W14305  34.125  36.644  13.347
47523W        W14306  24.809  38.997  13.125
47524W        W14307   8.984  37.874   5.093
47525W        W14308  29.720  43.417  13.938
47526W        W14309  38.255   8.318  12.170
47527W        W14310  31.232  12.620   4.334
47528W        W14311  13.316  34.461   1.323
47529W        W14312  22.515  33.617  11.574
47530W        W14313  41.922  10.403   3.887
47531W        W14314  34.825  25.907   3.244
47532W        W14315   8.239  39.445   1.714
47533W        W14316  29.488  30.425  12.527
47534W        W14317  29.817   4.238  11.071
47535W        W14318  12.515  20.431  13.507
47536W        W14319  37.306  32.973  11.986
47537W        W14320   8.025  14.348  14.562
47538W        W14321  11.775  22.297   2.390
47539W        W14322   6.349  15.000  14.954
47540W        W14323  32.340  16.584   1.026
47541W        W14324  44.090  36.143   0.842
47542W        W14325  27.625   9.238  11.902
47543W        W14326  26.183  43.568   0.907
47544W        W14327   2.412  16.980  14.898
47545W        W14328  37.867  44.000   2.457
47546W        W14329  41.423  20.514   0.440
47547W        W14330   9.657  44.073  14.938
47548W        W14331  21.262  20.807   5.153
47549W        W14332  37.308  37.068  11.527
47550W        W14333   9.068  18.161   3.955
47551W        W14334   6.398  26.915  12.360
47552W        W14335   4.846  16.018   1.681
47553W        W14336  11.073  15.348  10.576
47554W        W14337  42.035   2.004  13.050
47555W        W14338   5.772  33.424  11.596
47556W        W14339  31.119  33.850   4.327
47557W        W14340  16.154  38.595  14.817
47558W        W14341  22.112  26.917  14.432
47559W        W14342  31.109  12.786  10.691
47560W        W14343  11.409  24.513  12.097
47561W        W14344   3.778  37.291  10.743
47562W        W14345   0.562   8.553   4.080
47563W        W14346   8.619  34.026  14.252
47564W        W14347  35.568  33.441  12.037
47565W        W14348   2.859  23.215  14.787
47566W        W14349  15.183  22.011   0.871
47567W        W14350  42.721   7.389   3.619
47568W        W14351  13.379  16.038   0.779
47569W        W14352  11.498  25.735  11.404
47570W        W14353  32.529  20.206   2.296
47571W        W14354  24.292   7.824  13.154
47572W        W14355  19.968   4.717  13.476
47573W        W14356  27.116  15.839   3.398
47574W        W14357   0.841   1.568   9.874
47575W        W14358  35.984  15.290  10.415
47576W        W14359  25.890  36.085  14.933
47577W        W14360   0.402  37.941  12.698
47578W        W14361  25.172  38.942   3.051
47579W        W14362  42.262   2.032  13.938
47580W        W14363  41.951  39.030  10.657
47581W        W14364  15.845   3.740  12.941
47582W        W14365  34.149  14.269  11.434
47583W        W14366  20.325   4.427   2.715
47584W        W14367  15.340   8.147  14.046
47585W        W14368  23.719   4.629  14.789
47586W        W14369  14.235   9.843  14.372
47587W        W14370   2.092  37.590  14.756
47588W        W14371  37.665  41.364  11.520
47589W        W14372  14.195   4.526   3.824
47590W        W14373  23.556  20.468   0.915
47591W        W14374  30.055  25.297  13.523
47592W        W14375  34.878   7.642  12.199
47593W        W14376   6.991  33.599  10.620
47594W        W14377  30.898  30.990  13.730
47595W        W14378  27.702  25.970   4.714
47596W        W14379  33.536  19.620   2.675
47597W        W14380  23.978  12.084   4.655
47598W        W14381   4.658   7.633   5.252
47599W        W14382   2.312  15.306   2.117
47600W        W14383  35.440  20.891  13.321
47601W        W14384   0.815  42.684   0.186
47602W        W14385  44.211  13.745   1.913
47603W        W14386   2.800  13.202   1.916
47604W        W14387  19.076   6.366   1.054
47605W        W14388  10.358  10.045   1.320
47606W        W14389   2.225   7.223  12.436
47607W        W14390  11.645  35.803   2.118
47608W        W14391  13.710  29.293   4.727
47609W        W14392  35.624  37.598  10.641
47610W        W14393   5.458  21.695  13.536
47611W        W14394   7.771   0.768   3.364
47612W        W14395  32.863  21.153  14.901
47613W        W14396  42.297  24.521   2.311
47614W        W14397  10.434  44.836   3.038
47615W        W14398  29.586   6.969  14.343
47616W        W14399  13.862  42.552  12.018
47617W        W14400  16.955  25.656  13.953
47618W        W14401  29.520  30.676  14.790
47619W        W14402  42.043  13.412  14.414
47620W        W14403   3.695  24.097  14.104
47621W        W14404  15.022  31.654   2.339
47622W        W14405   7.396   5.601   1.851
47623W        W14406   2.949  16.577  14.336
47624W        W14407   7.183   2.419   2.200
47625W        W14408  23.067  16.268   0.060
47626W        W14409  23.316  30.473  14.038
47627W        W14410  31.785  15.193   4.735
47628W        W14411  13.078  43.733   3.875
47629W        W14412  37.377  13.544  11.183
47630W        W14413  24.940  38.582   4.562
47631W        W14414   0.843  14.083  14.968
47632W        W14415   6.321  12.782  11.716
47633W        W14416  42.401  17.260   3.872
47634W        W14417  19.070  44.351   3.199
47635W        W14418   2.385  11.258  10.701
47636W        W14419  23.828  38.027  12.007
47637W        W14420  34.431  17.641  13.763
47638W        W14421  11.147  29.943   1.349
47639W        W14422  36.497  33.986   0.440
47640W        W14423  42.820  44.013  12.961
47641W        W14424  22.726  36.416   3.637
47642W        W14425  44.383  23.464  14.341
47643W        W14426   2.671  20.205   1.597
47644W        W14427  23.641  42.219  12.787
47645W        W14428  22.741  15.665  11.459
47646W        W14429  41.898  35.627  11.221
47647W        W14430  32.368   8.355   0.705
47648W        W14431   4.378  32.856  14.813
47649W        W14432  21.128  13.422  12.468
47650W        W14433  14.335  22.124  10.809
47651W        W14434   1.867  37.152  11.980
47652W        W14435  37.444   7.793   1.881
47653W        W14436  25.975  11.573  11.902
47654W        W14437  24.715   0.225   0.339
47655W        W14438  22.701  19.515  12.057
47656W        W14439  17.629  39.903   0.995
47657W        W14440  14.356  15.648   1.580
47658W        W14441  29.498  21.740  10.734
47659W        W14442  43.054  36.074  11.589
47660W        W14443  34.627  39.387   3.263
47661W        W14444  43.279  18.658  12.404
47662W        W14445  19.660  21.277   2.149
47663W        W14446  32.293   0.003  14.758
47664W        W14447  44.857  14.918  11.444
47665W        W14448   7.633  21.446   4.255
47666W        W14449   1.739  25.087   1.302
47667W        W14450  23.113   3.271  13.425
47668W        W14451   0.572  28.483  13.513
47669W        W14452  31.555  37.941   4.553
47670W        W14453  30.141  42.948  11.037
47671W        W14454   5.048  19.280  11.221
47672W        W14455  16.344   8.696  11.067
47673W        W14456   3.221  37.806   3.155
47674W        W14457   0.511  41.093  13.329
47675W        W14458  35.491  12.173  14.486
47676W        W14459  18.428  31.552   3.277
47677W        W14460   6.583   3.943   2.284
47678W        W14461  41.183  31.034  11.687
47679W        W14462   0.450  42.797   2.238
47680W        W14463  34.933  24.703   4.620
47681W        W14464  23.584  32.557  12.480
47682W        W14465  29.746   5.229  11.617
47683W        W14466   3.203  16.116  14.241
47684W        W14467  32.564  22.018   1.243
47685W        W14468  43.667  14.961   2.204
47686W        W14469   9.260  22.989   2.098
47687W        W14470  41.900  37.172   3.156
47688W        W14471  13.135  10.501   3.278
47689W        W14472  16.106  12.406  14.317
47690W        W14473   1.922  17.025   2.184
47691W        W14474   8.889  15.107   0.400
47692W        W14475  19.286  18.797  13.090
47693W        W14476  20.575  38.761  13.801
47694W        W14477   5.187  14.971   4.216
47695W        W14478  42.756  32.514  13.328
47696W        W14479  42.770  42.443  14.894
47697W        W14480  42.729  19.262   0.086
47698W        W14481  23.246  32.664   3.629
47699W        W14482   2.330  18.363   4.274
47700W        W14483  17.775  33.683   0.044
47701W        W14484   5.492   3.368  13.880
47702W        W14485  23.073   6.267  13.508
47703W        W14486   0.380   1.564   2.797
47704W        W14487  20.692  32.822   3.232
47705W        W14488  37.550  10.527   4.801
47706W        W14489  23.803  17.085   0.255
47707W        W14490  23.576  35.308  12.695
47708W        W14491   6.800  39.541   2.825
47709W        W14492  23.936  16.084  10.611
47710W        W14493  24.008  18.947   1.412
47711W        W14494  18.259  30.156  10.251
47712W        W14495  36.343  29.574   1.705
47713W        W14496  33.007  14.925   0.293
47714W        W14497  13.704  27.323  12.898
47715W        W14498  16.115  16.278  14.262
47716W        W14499  30.423  30.651  13.881
47717W        W14500  36.524  20.730  10.985
47718W        W14501  18.263   4.607  13.868
47719W        W14502  44.484  26.145  12.523
47720W        W14503  16.085  40.881   1.316
47721W        W14504  18.402  29.871   3.674
47722W        W14505  24.081   0.321   3.952
47723W        W14506   6.011  23.047   3.214
47724W        W14507  35.757  33.079   0.894
47725W        W14508  26.404  18.181  13.819
47726W        W14509  18.353   8.327  11.969
47727W        W14510  38.452   4.179   0.700
47728W        W14511  41.148  44.732   2.285
47729W        W14512  37.006   9.168  14.354
47730W        W14513   9.204  11.268   3.362
47731W        W14514   0.705  11.762  12.840
47732W        W14515  35.373  27.639   3.600
47733W        W14516  27.805  43.042  12.570
47734W        W14517  16.012  11.098   1.813
47735W        W14518  40.836  43.046   1.263
47736W        W14519  29.541   1.230  10.721
47737W        W14520  12.175  44.298  14.081
47738W        W14521   1.042   2.814   0.212
47739W        W14522  37.276  25.466  13.339
47740W        W14523  37.957  35.883   1.898
47741W        W14524  42.473  39.871   4.595
47742W        W14525  17.037  32.108   3.221
47743W        W14526  19.757  29.328  13.308
47744W        W14527   9.641  29.227   1.303
47745W        W14528   0.819  14.610  10.795
47746W        W14529   3.989   4.845   0.893
47747W        W14530  14.750   4.684  11.986
47748W        W14531   1.032  10.380  13.053
47749W        W14532  23.721  38.153  12.938
47750W        W14533   0.037  27.518  12.574
47751W        W14534  25.061  28.907   3.236
47752W        W14535   3.944  40.467   0.315
47753W        W14536  40.800  13.572  14.458
47754W        W14537   4.853  29.306   0.213
47755W        W14538  30.536   9.402   0.375
47756W        W14539  17.035  40.503  13.819
47757W        W14540  26.034  37.036  11.689
47758W        W14541  26.768  10.464  13.411
47759W        W14542  44.717  15.807  13.487
47760W        W14543  27.201  26.507  10.615
47761W        W14544  11.181  29.911   4.935
47762W        W14545   6.690   3.657  13.860
47763W        W14546  14.195  32.176  11.965
47764W        W14547   5.676   1.134  13.644
47765W        W14548  15.126  10.358  11.081
47766W        W14549  12.004  34.272   2.849
47767W        W14550   8.424  43.781   3.838
47768W        W14551   7.150  13.663  13.384
47769W        W14552   8.171  39.995  13.554
47770W        W14553  44.901  20.521  11.022
47771W        W14554  43.998   9.359   4.959
47772W        W14555  19.165  31.991  11.361
47773W        W14556  18.575   1.286   1.721
47774W        W14557  37.025  29.410  11.100
47775W        W14558  18.081   5.802   0.013
47776W        W14559  29.532   2.547  11.188
47777W        W14560  18.183  27.624  10.757
47778W        W14561  24.449   3.191   1.011
47779W        W14562  33.806   2.893   4.003
47780W        W14563   3.322  39.736  13.357
47781W        W14564  12.101  14.647  10.618
47782W        W14565  22.368  42.857   4.639
47783W        W14566  37.299  13.700  12.478
47784W        W14567   5.622  20.242   4.465
47785W        W14568  36.396   1.883   1.969
47786W        W14569  12.372  17.170  12.272
47787W        W14570  23.400  40.506   0.615
47788W        W14571  11.764   3.386   3.827
47789W        W14572   0.129  25.426  11.457
47790W        W14573  21.722  24.436  12.629
47791W        W14574   5.725  16.724   1.696
47792W        W14575  33.628   2.872  12.325
47793W        W14576  18.584  17.334   1.358
47794W        W14577  21.475  17.856  11.193
47795W        W14578   8.816  26.543  12.376
47796W        W14579  22.618   7.117   2.952
47797W        W14580  11.029  27.494  13.139
47798W        W14581  24.646   3.269   3.688
47799W        W14582  44.639   2.739  12.436
47800W        W14583  39.302  12.033  12.586
47801W        W14584  17.500  17.032  13.132
47802W        W14585  23.141  33.344   4.391
47803W        W14586  11.343  30.517  14.393
47804W        W14587   8.631  23.453  13.513
47805W        W14588  28.566  25.173  14.805
47806W        W14589  14.955   5.061  13.106
47807W        W14590  13.779  40.071  11.155
47808W        W14591   2.951  44.698  12.553
47809W        W14592  39.984   3.053   2.483
47810W        W14593  16.070  34.434   0.232
47811W        W14594  12.532  10.610   0.737
47812W        W14595  40.802   8.284   0.241
47813W        W14596   7.965  11.037   2.388
47814W        W14597  10.333  10.073  13.577
47815W        W14598  10.316  38.588   4.152
47816W        W14599  34.762   3.894   1.714
47817W        W14600  29.688   5.875   2.991
47818W        W14601  29.073  24.400   1.877
47819W        W14602  10.532  14.633  12.529
47820W        W14603  38.866  36.348   1.936
47821W        W14604  41.565  18.743   2.364
47822W        W14605  29.006  19.181   4.659
47823W        W14606  37.448  37.065  11.015
47824W        W14607  24.918   7.247   1.362
47825W        W14608  30.842   3.496  10.929
47826W        W14609  38.486  31.909   2.282
47827W        W14610   2.016   5.165   3.216
47828W        W14611   9.373  38.119   3.227
47829W        W14612   3.486  34.486   2.364
47830W        W14613  30.805  34.915   5.098
47831W        W14614   6.849  40.948  13.681
47832W        W14615  11.873  44.655  12.394
47833W        W14616  23.378  11.090   4.350
47834W        W14617  38.540  24.197  12.870
47835W        W14618  28.512  34.130  14.320
47836W        W14619  32.751  31.636  11.098
47837W        W14620  21.389  41.258   2.915
47838W        W14621  27.294  13.592   1.857
47839W        W14622  44.368  39.000   2.779
47840W        W14623  39.280   4.178   0.853
47841W        W14624  40.328  17.671   2.384
47842W        W14625  18.744   9.646  10.710
47843W        W14626  24.813   4.546  14.913
47844W        W14627  33.450  36.989   0.380
47845W        W14628  40.547   8.735   4.233
47846W        W14629  15.196  28.517  13.717
47847W        W14630  35.082  20.803   0.262
47848W        W14631  44.283  36.362  13.409
47849W        W14632   6.659  11.837   4.634
47850W        W14633  17.687  18.620   2.806
47851W        W14634  14.605   0.375  10.673
47852W        W14635  13.526  41.449   0.840
47853W        W14636  27.026  30.405   0.824
47854W        W14637  30.547  32.976   0.563
47855W        W14638  26.940  42.632  10.183
47856W        W14639  39.352   8.177   4.062
47857W        W14640   4.643  22.719   2.353
47858W        W14641  37.917   0.969   3.785
47859W        W14642  17.566  23.456   1.714
47860W        W14643  43.328  43.101   1.317
47861W        W14644  18.691  38.528   1.187
47862W        W14645   1.946  21.470  13.970
47863W        W14646  32.387  25.059   2.649
47864W        W14647  25.751  17.578  12.133
47865W        W14648  30.191   9.114   4.174
47866W        W14649  42.393  22.018   1.279
47867W        W14650  13.571  36.164   3.362
47868W        W14651  28.802  15.125   1.277
47869W        W14652  22.092   1.523  10.217
47870W        W14653  11.146  43.958   3.677
47871W        W14654   1.091  34.874  13.332
47872W        W14655  39.886  30.322  12.662
47873W        W14656   3.456  11.223   3.113
47874W        W14657  24.619  30.129   0.087
47875W        W14658  21.378  16.698   3.812
47876W        W14659  36.078  20.674   1.490
47877W        W14660   9.739  22.129   4.084
47878W        W14661  16.058   8.559  13.238
47879W        W14662  19.927  43.463   1.950
47880W        W14663  20.291  19.291   0.984
47881W        W14664  20.648  44.021  12.788
47882W        W14665  17.083  37.374  11.469
47883W        W14666  33.578  20.453   3.274
47884W        W14667  39.410  21.574  11.168
47885W        W14668  20.650   5.925   4.615
47886W        W14669   2.753  44.899  13.019
47887W        W14670  14.652  35.622   2.455
47888W        W14671  30.146   3.501   0.395
47889W        W14672  32.339  22.946   2.684
47890W        W14673  28.089   5.223   3.654
47891W        W14674  37.824  16.212   3.963
47892W        W14675  21.521  39.860  13.269
47893W        W14676  22.493  42.294   3.560
47894W        W14677  36.300  29.439   0.809
47895W        W14678   4.009  39.995  12.558
47896W        W14679  39.436  32.156   0.008
47897W        W14680  21.652  44.365   3.170
47898W        W14681  29.512  38.454  12.343
47899W        W14682   0.610   2.854   3.192
47900W        W14683  14.626  38.066  11.381
47901W        W14684  34.523  31.131  12.827
47902W        W14685  11.761  34.837   4.529
47903W        W14686  22.571  15.187  11.467
47904W        W14687  44.134   6.430  11.979
47905W        W14688  16.083  25.223  11.493
47906W        W14689  12.257  13.157  10.387
47907W        W14690  13.237  14.720   1.631
47908W        W14691  15.476   8.593   1.986
47909W        W14692  36.310  10.661   2.240
47910W        W14693  34.050   2.295  11.706
47911W        W14694  38.843  37.462   0.859
47912W        W14695  17.309  33.523  14.727
47913W        W14696  40.942  32.553   1.325
47914W        W14697  43.014  36.876   0.216
47915W        W14698   2.575  26.823  11.230
47916W        W14699  27.087  39.973   3.163
47917W        W14700  14.010  30.052  14.572
47918W        W14701  15.221  27.669  10.665
47919W        W14702  34.970  18.786   4.534
47920W        W14703  35.500   8.294   0.851
47921W        W14704  35.056  42.926  13.801
47922W        W14705  33.904  11.572   1.837
47923W        W14706  13.302   1.724  12.415
47924W        W14707   6.900   0.046   0.264
47925W        W14708  38.542   5.280   3.292
47926W        W14709  28.430  41.967   3.528
47927W        W14710  19.756   7.952   1.712
47928W        W14711  10.291  38.817  13.371
47929W        W14712   0.931  16.447  14.241
47930W        W14713   0.984   1.735   0.946
47931W        W14714  21.922  39.429  14.934
47932W        W14715   3.735  24.258   1.426
47933W        W14716  33.298  41.995   0.101
47934W        W14717  15.559   5.427   0.847
47935W        W14718  11.027  22.226   0.930
47936W        W14719  36.153  43.836  11.879
47937W        W14720   9.343  12.201   3.376
47938W        W14721  14.087  30.432   4.200
47939W        W14722   3.581   2.709   4.101
47940W        W14723  26.564  35.829   0.228
47941W        W14724  40.497   4.822  13.006
47942W        W14725  34.771  35.473   0.519
47943W        W14726  23.111  19.691   2.318
47944W        W14727  32.577  16.633  10.332
47945W        W14728  11.253  23.911   0.286
47946W        W14729  38.872  37.117  11.598
47947W        W14730   8.752  13.373   4.671
47948W        W14731  25.570  43.872  12.975
47949W        W14732  30.426  26.980   0.211
47950W        W14733  10.255   9.743  11.260
47951W        W14734  14.674  18.852  13.332
47952W        W14735  16.267   2.546   3.252
47953W        W14736  12.557   1.460   0.776
47954W        W14737  17.103  13.989  12.116
47955W        W14738   2.460  41.297  13.335
47956W        W14739  34.080  43.101  11.538
47957W        W14740  26.592   6.749  13.414
47958W        W14741   4.684  17.059  11.780
47959W        W14742  27.540  16.846   2.276
47960W        W14743   6.396  25.460   1.798
47961W        W14744  35.588  37.544  14.346
47962W        W14745  34.200  41.840   2.313
47963W        W14746  21.748  36.612  13.534
47964W        W14747  20.467  17.580   3.905
47965W        W14748   3.809   8.021   3.828
47966W        W14749  42.326  34.316  11.324
47967W        W14750  15.665  35.444  11.576
47968W        W14751   1.856  37.085  10.560
47969W        W14752   3.478   2.512  12.865
47970W        W14753  42.370  37.581   1.335
47971W        W14754   6.063  28.475  13.114
47972W        W14755  39.410  37.784   0.798
47973W        W14756  20.529   5.716  14.823
47974W        W14757  28.878  38.174   0.061
47975W        W14758  38.518  19.409  12.634
47976W        W14759  12.660  37.489   1.153
47977W        W14760  11.163  41.537  13.519
47978W        W14761  44.677   0.414   4.455
47979W        W14762   6.454   4.293  13.873
47980W        W14763  25.893  22.462   4.202
47981W        W14764  30.828   8.795  12.626
47982W        W14765  18.501  34.136  13.938
47983W        W14766   5.838  20.589  12.065
47984W        W14767  33.991   3.044  13.083
47985W        W14768  44.795  28.044   4.581
47986W        W14769  11.840  40.610   2.182
47987W        W14770  19.083  11.386   0.698
47988W        W14771  38.896  13.649  13.291
47989W        W14772  40.735  20.297  10.680
47990W        W14773   7.420  26.747   2.088
47991W        W14774  41.004  38.344  13.438
47992W        W14775  27.038  32.955  12.097
47993W        W14776  30.946  39.292   1.786
47994W        W14777  34.492   0.268   3.751
47995W        W14778  31.120  12.781   1.637
47996W        W14779  36.926  13.913   1.890
47997W        W14780  31.412  44.970   3.605
47998W        W14781  44.194  39.082   2.228
47999W        W14782  43.186  10.722   1.856
48000W        W14783  40.500  11.111  13.282
48001W        W14784  15.652  20.684  11.139
48002W        W14785  34.677  41.888   1.451
48003W        W14786  31.633  30.062   4.204
48004W        W14787  17.688  19.176  14.290
48005W        W14788   0.990  29.740   1.814
48006W        W14789   7.153  11.333   3.336
48007W        W14790  40.544  18.511   0.722
48008W        W14791  28.922   9.769   0.206
48009W        W14792  19.680   3.672   4.290
48010W        W14793  20.963   0.460   0.215
48011W        W14794   2.417  35.518   0.177
48012W        W14795  22.155  38.499  12.088
48013W        W14796  33.992  23.995   0.513
48014W        W14797  32.198   8.787  11.166
48015W        W14798  29.359  31.435   4.337
48016W        W14799  18.683  41.893   4.842
48017W        W14800  14.651   9.437   4.946
48018W        W14801  37.758   3.928   3.191
48019W        W14802  17.708   1.602  10.442
48020W        W14803  30.805   9.743   4.489
48021W        W14804   4.738  31.974  14.275
48022W        W14805  21.543  16.108   1.861
48023W        W14806  29.462  35.137  13.584
48024W        W14807   4.715   3.803  14.176
48025W        W14808  17.259  16.737   0.831
48026W        W14809  13.557  15.228  13.618
48027W        W14810  28.068  39.253  13.122
48028W        W14811  14.557   6.948  10.731
48029W        W14812   6.473  23.579  10.682
48030W        W14813  43.652  12.731  10.651
48031W        W14814  41.039  35.568   2.184
48032W        W14815   0.972  43.371   1.778
48033W        W14816  44.207  12.296  10.936
48034W        W14817  10.491  36.607  14.079
48035W        W14818   9.089  31.844  12.029
48036W        W14819  42.732   2.632   0.924
48037W        W14820  15.840  29.361  11.243
48038W        W14821   1.294   6.370  13.543
48039W        W14822  10.638  29.677  12.874
48040W        W14823  10.480  23.790  14.666
48041W        W14824  11.339  17.275  10.180
48042W        W14825  37.446   3.933   4.585
48043W        W14826  34.585  42.868  11.721
48044W        W14827   4.793  25.265  10.812
48045W        W14828  14.136  13.672   0.397
48046W        W14829  23.620  22.274  11.553
48047W        W14830   6.963   6.648  13.892
48048W        W14831  43.382  27.419   3.910
48049W        W14832   8.364  13.074  13.213
48050W        W14833  11.770  37.402  12.433
48051W        W14834  32.165  24.250  10.624
48052W        W14835   9.707  26.571   2.934
48053W        W14836   1.457  29.598   2.779
48054W        W14837  17.805  26.688   0.998
48055W        W14838  20.936  13.715   1.683
48056W        W14839  13.825  15.154   1.118
48057W        W14840  17.301  29.684   0.499
48058W        W14841   7.387  13.639  12.925
48059W        W14842  30.159   6.789  13.197
48060W        W14843  16.062  17.890   0.408
48061W        W14844   7.271  36.643  14.817
48062W        W14845   2.129  24.220   2.218
48063W        W14846  30.088  30.601   0.651
48064W        W14847  29.145   1.996  13.452
48065W        W14848   5.198  33.554  13.332
48066W        W14849  37.851  29.207   3.587
48067W        W14850   9.702  38.060   1.834
48068W        W14851  12.662  10.053   1.819
48069W        W14852   0.620  38.984   5.144
48070W        W14853  29.087  29.357  12.991
48071W        W14854   0.276  10.327  14.444
48072W        W14855  37.628  36.243   0.747
48073W        W14856   7.064  14.249  14.343
48074W        W14857  21.276  31.640   0.343
48075W        W14858  14.106   5.374   1.716
48076W        W14859  44.354  40.069  11.025
48077W        W14860  18.860   8.337   1.676
48078W        W14861  42.864  34.047   3.066
48079W        W14862  18.627   1.237   3.155
48080W        W14863   9.159  17.770   1.250
48081W        W14864   6.714   6.241   3.823
48082W        W14865  23.026  27.085  12.938
48083W        W14866   8.843  13.487   3.346
48084W        W14867  33.393  41.980  11.950
48085W        W14868  19.055  29.100   4.237
48086W        W14869   7.247  21.789   3.805
48087W        W14870  20.149  29.048   3.614
48088W        W14871   9.847  33.292   2.671
48089W        W14872   9.872  38.560  11.968
48090W        W14873  44.823  41.315  12.892
48091W        W14874   0.367  30.137   3.204
48092W        W14875  35.989  43.198  14.425
48093W        W14876  16.682  28.994  14.821
48094W        W14877   3.842  41.464  12.118
48095W        W14878  40.891  11.175  10.701
48096W        W14879  24.403  27.020   0.874
48097W        W14880  10.707  18.239  14.289
48098W        W14881  38.533  44.537  13.906
48099W        W14882   3.820  34.917   4.166
48100W        W14883  35.034   2.441   4.578
48101W        W14884  24.551   4.197  14.359
48102W        W14885  19.559  36.776   0.468
48103W        W14886  13.458  14.291  12.072
48104W        W14887  44.243   9.774  11.757
48105W        W14888  19.070  15.785   1.479
48106W        W14889  39.765  26.360   2.792
48107W        W14890  37.361  27.872   0.024
48108W        W14891   5.736  34.886  13.101
48109W        W14892  20.770   1.295   0.263
48110W        W14893  32.361   7.263   3.498
48111W        W14894  25.952  30.720  11.547
48112W        W14895  33.451  40.017   3.359
48113W        W14896  15.767  35.901  13.676
48114W        W14897  36.100   3.749   1.722
48115W        W14898  10.649   8.896  10.913
48116W        W14899   5.998  20.501  12.867
48117W        W14900  31.671  42.849  11.271
48118W        W14901  13.091   4.322  10.545
48119W        W14902  14.583   1.201  11.124
48120W        W14903  37.802  32.078   1.243
48121W        W14904  28.175  34.980  11.155
48122W        W14905  30.867  27.785   4.158
48123W        W14906   0.365  17.102  13.298
48124W        W14907  25.625  19.657   3.094
48125W        W14908  16.063   7.449  12.981
48126W        W14909  42.859  24.236  12.555
48127W        W14910  31.093  17.359  14.553
48128W        W14911  38.639   9.272   1.210
48129W        W14912   8.776  38.026  11.166
48130W        W14913   8.423   1.907  14.353
48131W        W14914  26.965  28.078  11.593
48132W        W14915  30.678   2.291  14.694
48133W        W14916   7.301  29.118  10.734
48134W        W14917  44.619  44.896   4.174
48135W        W14918  42.289  27.492  12.911
48136W        W14919   5.173  15.864  10.792
48137W        W14920  28.591  30.528   2.902
48138W        W14921   3.807   2.708  11.276
48139W        W14922  36.793  44.396  10.648
48140W        W14923  15.858   6.206   0.685
48141W        W14924  12.788  41.720   4.665
48142W        W14925   2.858  13.242  12.846
48143W        W14926  28.157  17.859   4.294
48144W        W14927  38.360  37.312   4.108
48145W        W14928  40.017   4.713  13.291
48146W        W14929  21.048  37.557  10.722
48147W        W14930  23.321  38.271   3.675
48148W        W14931  13.622  19.882  14.214
48149W        W14932  34.414   4.589   4.438
48150W        W14933  14.781  33.459   0.744
48151W        W14934   3.413  39.505  11.495
48152W        W14935  33.164  32.334  12.116
48153W        W14936  24.193  16.555   2.310
48154W        W14937   4.879  15.283  14.890
48155W        W14938  41.759  13.582   2.226
48156W        W14939  15.564  39.977   4.928
48157W        W14940   2.722   1.206   4.113
48158W        W14941  33.104   9.297  11.229
48159W        W14942   0.700  14.672   4.480
48160W        W14943  34.907  37.014   2.306
48161W        W14944   0.375  19.553  13.360
48162W        W14945  10.402  29.757   5.026
48163W        W14946  26.958  11.727   4.187
48164W        W14947   1.780  22.969  12.985
48165W        W14948  25.742  36.874   4.130
48166W        W14949  11.760  20.768  14.612
48167W        W14950  19.196  11.723   2.942
48168W        W14951   3.055   1.019  14.430
48169W        W14952   8.316  30.584  14.366
48170W        W14953  42.991  16.552  10.661
48171W        W14954  30.830  30.660   5.096
48172W        W14955  24.179  10.811  10.564
48173W        W14956   6.675  15.642   3.113
48174W        W14957   1.292   8.250   0.965
48175W        W14958   4.812   8.004   4.112
48176W        W14959  31.630  37.022   3.360
48177W        W14960  17.713  32.453  14.296
48178W        W14961  38.487  27.156   1.803
48179W        W14962  43.023  24.966   1.908
48180W        W14963  14.741  36.381   0.950
48181W        W14964  12.863  29.451   1.231
48182W        W14965  13.178  41.836   5.036
48183W        W14966  21.060  38.319  12.770
48184W        W14967  10.666  26.681  14.676
48185W        W14968   3.309  21.879   1.305
48186W        W14969  33.100  40.001   2.990
48187W        W14970   9.837  10.595   4.043
48188W        W14971  19.760  34.031  11.136
48189W        W14972   2.044  27.782   1.497
48190W        W14973  34.043  39.806   4.591
48191W        W14974  42.983  29.620   4.660
48192W        W14975  21.100  34.859   4.044
48193W        W14976  34.174   5.371   1.890
48194W        W14977  43.309  34.177   1.726
48195W        W14978  42.566  11.198  12.443
48196W        W14979  10.755  17.962   0.632
48197W        W14980  15.119   9.493  10.223
48198W        W14981   6.846  36.647  12.544
48199W        W14982  14.779  13.769  13.506
48200W        W14983  44.049   9.729   5.329
48201W        W14984   5.391  19.619  11.010
48202W        W14985   5.718  43.522  14.828
48203W        W14986  39.799   0.581   2.833
48204W        W14987   8.529   2.923   4.095
48205W        W14988  27.091  38.364  13.924
48206W        W14989  25.061  35.186   0.188
48207W        W14990  27.469  26.725   2.835
48208W        W14991  25.667  21.145  11.703
48209W        W14992   1.933  43.830  10.742
48210W        W14993   1.680  24.690  14.248
48211W        W14994  37.368  40.424  12.411
48212W        W14995  43.589  40.463   2.656
48213W        W14996  37.344  27.358  11.115
48214W        W14997  24.729  35.608  10.770
48215W        W14998   8.498  28.346  13.038
48216W        W14999   7.348   4.060   2.797
48217W        W15000  28.123  35.936  12.094
48218W        W15001  20.643  40.982   0.144
48219W        W15002  29.488   6.826  14.845
48220W        W15003  36.318  37.884  11.086
48221W        W15004  29.388   9.935  12.028
48222W        W15005  24.001  26.001   2.957
48223W        W15006  23.292  22.993   0.743
48224W        W15007  21.323  19.339  13.952
48225W        W15008  28.597  32.965  11.345
48226W        W15009   4.889  38.325  12.530
48227W        W15010  29.659  42.944  14.163
48228W        W15011  41.097  18.994  12.718
48229W        W15012   4.182  19.991  12.052
48230W        W15013  44.426   4.195   4.158
48231W        W15014  20.260  35.156   1.348
48232W        W15015  38.504  38.458   1.845
48233W        W15016   1.741  32.323  13.150
48234W        W15017   4.906  12.357  13.769
48235W        W15018  27.072  22.591   1.121
48236W        W15019  34.442   6.030   3.147
48237W        W15020   4.318   1.459  11.609
48238W        W15021  16.066   7.780   0.810
48239W        W15022  44.804   5.724  12.114
48240W        W15023  33.036   4.800   2.855
48241W        W15024  32.035  28.585  12.528
48242W        W15025  13.811  27.401   4.469
48243W        W15026  13.247  41.947   0.200
48244W        W15027  26.568  33.452  14.354
48245W        W15028  18.062  15.687  13.315
48246W        W15029  12.599   0.673  11.928
48247W        W15030  31.679  17.410   3.666
48248W        W15031  38.944  27.609  11.273
48249W        W15032   9.733  15.250  12.589
48250W        W15033  43.765  34.305   1.254
48251W        W15034  43.332  22.122   1.743
48252W        W15035  12.582   2.928  14.000
48253W        W15036   6.248  22.230   1.810
48254W        W15037  38.331  38.858  12.442
48255W        W15038   5.560  38.188  13.163
48256W        W15039  37.363  10.592   2.876
48257W        W15040  19.636  18.320  14.764
48258W        W15041   9.676   7.676   3.494
48259W        W15042  20.130   8.972  14.806
48260W        W15043  12.380  30.085   2.970
48261W        W15044  29.473  19.476   1.195
48262W        W15045  38.610  24.913  14.294
48263W        W15046  15.837  16.135  10.177
48264W        W15047   6.299  18.066  12.969
48265W        W15048  34.582  32.018  14.770
48266W        W15049  15.256   7.667  14.817
48267W        W15050  33.566   8.200  10.735
48268W        W15051  28.555   6.026  13.440
48269W        W15052  32.027  43.735   2.967
48270W        W15053  34.541  12.388  13.829
48271W        W15054  43.218   7.658  12.981
48272W        W15055  31.008  36.333  11.602
48273W        W15056  16.199  15.837  13.432
48274W        W15057   7.649  15.346  14.025
48275W        W15058  27.256  21.064  11.403
48276W        W15059   2.471  41.920   2.191
48277W        W15060  24.541  15.721  11.827
48278W        W15061  33.606  21.782  13.384
48279W        W15062  13.344   4.475   2.128
48280W        W15063  18.067  28.578   4.651
48281W        W15064  29.089   8.453  14.359
48282W        W15065  43.800  33.427  14.504
48283W        W15066  23.129  11.278   0.725
48284W        W15067  32.096  32.925   4.848
48285W        W15068  11.434  16.138   2.880
48286W        W15069  17.741  43.396   2.785
48287W        W15070  13.949   1.977  12.667
48288W        W15071   7.963  21.835   4.193
48289W        W15072  43.780  32.420  13.477
48290W        W15073  39.404   4.550  12.545
48291W        W15074  33.476  32.358  10.998
48292W        W15075  11.162   9.619  12.857
48293W        W15076  34.833  44.898  10.432
48294W        W15077   2.267   0.923   4.160
48295W        W15078  13.050  28.807  12.571
48296W        W15079  39.357   0.798  11.434
48297W        W15080   8.329   7.218   1.284
48298W        W15081  13.091  13.121   0.878
48299W        W15082  38.807  36.259  14.602
48300W        W15083  12.887  11.631   3.783
48301W        W15084  18.896  44.283  14.362
48302W        W15085  16.561   4.009   1.737
48303W        W15086  32.649  18.919  13.067
48304W        W15087  42.342   3.698   4.030
48305W        W15088   7.364  10.107   0.862
48306W        W15089  11.862  37.947  13.335
48307W        W15090  10.077  21.093   9.643
48308W        W15091  11.201  24.570  14.563
48309W        W15092  23.657   8.217   2.183
48310W        W15093  35.639  21.832   5.049
48311W        W15094  39.985   3.918   4.571
48312W        W15095  34.901   4.528   5.089
48313W        W15096  14.639  34.318   2.560
48314W        W15097   3.938  31.094   0.010
48315W        W15098   2.591   0.344   0.385
48316W        W15099  36.655   9.829   2.784
48317W        W15100  21.313  41.612  11.346
48318W        W15101  43.909  29.550   4.300
48319W        W15102  14.271  37.183  13.895
48320W        W15103  20.753  12.306  10.411
48321W        W15104  11.706  34.296  11.687
48322W        W15105  28.058  42.949  11.892
48323W        W15106  19.827  20.710   2.881
48324W        W15107  16.880   8.695  11.128
48325W        W15108   9.466  32.518   1.557
48326W        W15109  29.518  16.938  11.064
48327W        W15110  17.097  27.021  14.839
48328W        W15111  21.159   0.676  11.138
48329W        W15112  22.580  32.908  13.793
48330W        W15113   7.044  11.609  11.181
48331W        W15114   0.992  26.505   4.350
48332W        W15115  16.720  15.724   2.129
48333W        W15116  31.026  30.372   2.623
48334W        W15117   9.120  11.730   1.872
48335W        W15118  44.607  15.657   4.856
48336W        W15119  41.767  33.371  14.243
48337W        W15120  13.227  31.570   0.423
48338W        W15121  23.026  11.137   2.622
48339W        W15122  21.618   0.740  10.929
48340W        W15123  15.634   2.367   0.202
48341W        W15124  30.050  22.443  12.364
48342W        W15125  24.500  22.779   2.334
48343W        W15126  29.963  40.322   0.528
48344W        W15127  33.180  15.756  10.573
48345W        W15128  10.319  20.570   3.751
48346W        W15129  14.593  33.943   0.738
48347W        W15130   6.129  30.210   2.824
48348W        W15131  29.154  34.127   1.799
48349W        W15132   4.819   7.948  13.394
48350W        W15133  44.891  42.593  10.516
48351W        W15134  30.681  26.142   3.662
48352W        W15135  14.692  17.193   0.794
48353W        W15136  31.122  36.129  12.058
48354W        W15137   8.378   1.654  12.465
48355W        W15138   2.743  27.352  11.154
48356W        W15139  41.023   8.733   1.862
48357W        W15140   2.685  33.823  14.149
48358W        W15141  37.411   1.652  11.223
48359W        W15142  28.174  20.227  14.292
48360W        W15143  14.862   8.643  11.424
48361W        W15144  18.026  13.975  10.325
48362W        W15145  10.478   2.487   4.995
48363W        W15146  40.242  43.791  12.402
48364W        W15147   6.464  38.777   3.252
48365W        W15148  13.130   0.935   2.815
48366W        W15149  44.263  35.337  13.381
48367W        W15150  16.795   2.497  12.026
48368W        W15151  16.719  24.513  10.511
48369W        W15152  26.009  36.424   4.203
48370W        W15153  10.674  20.304   0.320
48371W        W15154  40.383  21.694   3.348
48372W        W15155  13.579  37.572   2.148
48373W        W15156  18.004  35.004   0.861
48374W        W15157  23.456  15.733  13.380
48375W        W15158  33.890  44.954   0.773
48376W        W15159  28.755  37.474   2.247
48377W        W15160  16.339   3.824   3.932
48378W        W15161  15.038  27.027  12.303
48379W        W15162   0.387  44.599   2.020
48380W        W15163  12.698   2.219  12.891
48381W        W15164  27.572  15.090  12.561
48382W        W15165   4.720  28.375   1.317
48383W        W15166  17.031  19.632   0.206
48384W        W15167  18.286   4.353   4.818
48385W        W15168  29.350   9.924  11.508
48386W        W15169   9.771   9.707  12.584
48387W        W15170  13.626   4.584  14.895
48388W        W15171   3.287  21.516   2.611
48389W        W15172  38.605  24.186   3.692
48390W        W15173  20.703  25.233  12.452
48391W        W15174  16.012  36.702  11.468
48392W        W15175  30.380   6.841   1.787
48393W        W15176  35.411  35.812   1.148
48394W        W15177   0.348   0.648  12.131
48395W        W15178  36.285   1.975  14.841
48396W        W15179  22.174  16.151   4.532
48397W        W15180  43.519   1.735  14.198
48398W        W15181  37.905  34.913   1.929
48399W        W15182   3.381   5.179   2.142
48400W        W15183  42.205   9.832  12.412
48401W        W15184  42.681   1.424   0.257
48402W        W15185   0.814  16.139   0.884
48403W        W15186   8.817   7.244  13.843
48404W        W15187  31.635  10.195  13.166
48405W        W15188  42.091  13.804  13.473
48406W        W15189  19.585  27.847   2.704
48407W        W15190   2.668   4.991  13.093
48408W        W15191  19.019   5.389   2.257
48409W        W15192  31.657  34.913   0.346
48410W        W15193  40.541  30.883  14.284
48411W        W15194  26.195   1.087  12.541
48412W        W15195  11.868  16.117  13.570
48413W        W15196  18.677   0.138   2.335
48414W        W15197   7.351  13.391   2.162
48415W        W15198  34.632  10.453   0.038
48416W        W15199   6.778  21.786  11.338
48417W        W15200  14.698  42.837   3.001
48418W        W15201  25.650  12.116  11.174
48419W        W15202  16.619  40.560   4.151
48420W        W15203  14.838  33.872   1.668
48421W        W15204  10.291  18.090  11.634
48422W        W15205  10.714  39.820  14.490
48423W        W15206  18.553   2.302   1.148
48424W        W15207  41.387  43.747   2.785
48425W        W15208  26.938  14.224   4.624
48426W        W15209  16.838  24.647  11.476
48427W        W15210  39.355  14.453  11.716
48428W        W15211   1.418  43.771  10.865
48429W        W15212  30.673  34.896   3.215
48430W        W15213   5.307  37.835   2.363
48431W        W15214  36.354  30.946  14.866
48432W        W15215  35.823  31.525   2.223
48433W        W15216  17.537   1.828  14.288
48434W        W15217  19.842  24.177   5.133
48435W        W15218  32.225  16.405  11.475
48436W        W15219  10.361   2.188   4.131
48437W        W15220   2.494  22.849   1.851
48438W        W15221  39.874   7.470   2.796
48439W        W15222  13.119  28.329  12.717
48440W        W15223   0.389  42.110  11.574
48441W        W15224  28.514  42.751  14.902
48442W        W15225  14.556  32.438  14.071
48443W        W15226  22.496   4.228   2.654
48444W        W15227  23.940   4.998  13.911
48445W        W15228  38.471   0.895   0.515
48446W        W15229   7.818  32.820   4.105
48447W        W15230  28.001   7.948  14.213
48448W        W15231  11.146  23.120   1.660
48449W        W15232  16.670  31.070   2.664
48450W        W15233  28.172   4.017  12.649
48451W        W15234   9.797  26.679   1.937
48452W        W15235  34.107  44.339   0.280
48453W        W15236   7.311  27.160  13.027
48454W        W15237  35.557   6.336   2.648
48455W        W15238  33.460  42.981   0.244
48456W        W15239   1.072  23.180  10.821
48457W        W15240   2.258  20.066   1.924
48458W        W15241  14.368   7.914   1.259
48459W        W15242   4.547   8.272  12.587
48460W        W15243  28.599  13.759  13.071
48461W        W15244  37.954  11.815   0.117
48462W        W15245  30.630   3.712   4.181
48463W        W15246  14.705  26.477  14.102
48464W        W15247   0.907   7.411  12.568
48465W        W15248  17.670   5.959   3.683
48466W        W15249  18.274   9.653  10.988
48467W        W15250   1.275  21.538   0.302
48468W        W15251  22.875  26.654   1.607
48469W        W15252  40.428  27.169  13.022
48470W        W15253  29.725   9.197  12.598
48471W        W15254  13.513  19.051  12.400
48472W        W15255  15.956  38.142  11.087
48473W        W15256  24.080  42.971   1.470
48474W        W15257  19.418  32.145  13.626
48475W        W15258  25.054  36.003  11.092
48476W        W15259   8.017   2.037   2.381
48477W        W15260   0.761  42.280  14.872
48478W        W15261  32.271  16.131  14.063
48479W        W15262   7.278  42.278  14.338
48480W        W15263  18.408  20.431   2.365
48481W        W15264  39.607  20.010   2.219
48482W        W15265  35.191  22.669   2.744
48483W        W15266  16.524  10.780  12.888
48484W        W15267  17.752   7.188   3.346
48485W        W15268  17.053   6.333   1.323
48486W        W15269   3.854  34.484  13.976
48487W        W15270   6.470  13.006  11.281
48488W        W15271  13.106  29.261   1.647
48489W        W15272   8.853  43.359   1.334
48490W        W15273   2.948  34.810   0.194
48491W        W15274   7.916   3.351  14.233
48492W        W15275  11.745  24.774   2.909
48493W        W15276  20.793  18.608   0.483
48494W        W15277  43.240  29.166  13.113
48495W        W15278  14.244  28.955   3.631
48496W        W15279  23.178  37.783   2.399
48497W        W15280  40.598  31.085   3.280
48498W        W15281  16.908  17.670   3.923
48499W        W15282   3.379  18.705   2.089
48500W        W15283  35.840  14.048   4.212
48501W        W15284  19.592  36.681   4.165
48502W        W15285  42.914  35.585  11.355
48503W        W15286  37.515  39.431  11.016
48504W        W15287  44.288  20.416  14.585
48505W        W15288   7.134  37.118  14.615
48506W        W15289  39.447  32.282   4.200
48507W        W15290   0.358  37.822  13.982
48508W        W15291  19.424  17.889  13.880
48509W        W15292  20.520  14.120  11.165
48510W        W15293   7.679  28.100  12.577
48511W        W15294  31.318  20.431   3.243
48512W        W15295  20.171  43.400  14.236
48513W        W15296   3.559  20.939   0.223
48514W        W15297   0.210   0.257  10.701
48515W        W15298   2.134   0.772   3.023
48516W        W15299  43.413  16.289  12.815
48517W        W15300   1.314  35.207  14.721
48518W        W15301  34.695  39.901   3.327
48519W        W15302  19.749   4.883   4.444
48520W        W15303  19.556  19.188  12.162
48521W        W15304  16.468  19.494  14.342
48522W        W15305  17.521   6.404   4.602
48523W        W15306  39.063  18.696   4.727
48524W        W15307  27.047   7.283   2.914
48525W        W15308  34.142  41.970   4.557
48526W        W15309   2.144  16.960  11.993
48527W        W15310  40.340  27.922   1.879
48528W        W15311  26.164  42.994   2.311
48529W        W15312  42.843  34.116   0.399
48530W        W15313  30.261   5.058   0.096
48531W        W15314   7.434  26.058   3.573
48532W        W15315  27.007   0.795   1.684
48533W        W15316  20.479  23.742  11.665
48534W        W15317  25.504  19.124  13.928
48535W        W15318  24.074  28.726  12.563
48536W        W15319  22.176  12.802  12.392
48537W        W15320  24.989  37.324  11.624
48538W        W15321  29.690  15.476  12.155
48539W        W15322  16.873  35.090  13.837
48540W        W15323  18.219  12.620   4.572
48541W        W15324  15.371  38.948   2.331
48542W        W15325  11.873   6.706  10.273
48543W        W15326   7.222  10.247  12.793
48544W        W15327  17.554  38.951  11.372
48545W        W15328  40.116  18.714   0.963
48546W        W15329  27.457   7.698  12.184
48547W        W15330  31.418  13.574   3.098
48548W        W15331   9.953  36.491   0.500
48549W        W15332   4.389   6.098  14.481
48550W        W15333  23.339   6.210   2.317
48551W        W15334  28.680  30.371   0.750
48552W        W15335  17.154  31.361  14.092
48553W        W15336   9.837  42.242   3.274
48554W        W15337  15.152  19.018  13.392
48555W        W15338   8.421  10.223   4.373
48556W        W15339  37.023  14.600   3.383
48557W        W15340  37.472  18.557  11.062
48558W        W15341   9.716  21.087   0.119
48559W        W15342  10.807  10.929  11.481
48560W        W15343   8.623  33.275  13.514
48561W        W15344  23.920   4.381   2.691
48562W        W15345  19.842  30.374  10.816
48563W        W15346  34.914  16.321   0.684
48564W        W15347  20.181  40.969   0.963
48565W        W15348  23.714  41.922   1.850
48566W        W15349  11.177  33.389  11.497
48567W        W15350  16.781  24.114  10.817
48568W        W15351  35.312  17.222  12.942
48569W        W15352  44.445  12.813   0.903
48570W        W15353  15.816  23.004   1.408
48571W        W15354  41.291  29.406   2.773
48572W        W15355  41.869  38.626   0.277
48573W        W15356   8.259  17.297  14.921
48574W        W15357  23.493  44.952  14.328
48575W        W15358  24.697  40.070   2.123
48576W        W15359  24.503  37.921   0.424
48577W        W15360  31.595   3.890   0.270
48578W        W15361   1.096  34.383  14.146
48579W        W15362  12.140  25.617   2.392
48580W        W15363  31.162   9.948   2.928
48581W        W15364  21.310  40.421   2.864
48582W        W15365  42.793  41.289   1.288
48583W        W15366  21.540  27.509   3.775
48584W        W15367  23.480  19.771  11.478
48585W        W15368  32.239  15.593   1.740
48586W        W15369  17.512  36.591  13.036
48587W        W15370  32.151   3.754   3.290
48588W        W15371  43.927   2.381  14.878
48589W        W15372  19.063  26.671   4.587
48590W        W15373  13.240  23.276  14.186
48591W        W15374  23.994  43.052  14.253
48592W        W15375  35.526  25.705  12.357
48593W        W15376   6.117  27.080   1.824
48594W        W15377  38.679  28.999  13.353
48595W        W15378  38.592  30.490   2.372
48596W        W15379  14.269   3.162   2.736
48597W        W15380  15.261   9.498   2.230
48598W        W15381  26.848  35.119  14.914
48599W        W15382  22.505  10.966   3.453
48600W        W15383  18.860   0.777  12.086
48601W        W15384   0.844   3.822   4.560
48602W        W15385  15.160  41.408   3.860
48603W        W15386   3.479   6.331   1.113
48604W        W15387   4.846   5.772   3.826
48605W        W15388  15.664  32.593   3.106
48606W        W15389  22.267  32.330   0.037
48607W        W15390  33.005  41.204   0.378
48608W        W15391  42.513  44.101  11.176
48609W        W15392   8.637  33.027   2.364
48610W        W15393  19.138  36.338  12.865
48611W        W15394   5.290  19.975   3.554
48612W        W15395  22.350  43.871  11.684
48613W        W15396  21.251  37.721   1.742
48614W        W15397  40.881  43.335   4.333
48615W        W15398  30.130  18.714  14.775
48616W        W15399  32.975  41.180   2.580
48617W        W15400  18.187  19.970   2.330
48618W        W15401  40.376  21.721   4.365
48619W        W15402   3.988  24.249   1.890
48620W        W15403  20.244   1.733   0.917
48621W        W15404  27.478  41.393   2.627
48622W        W15405  17.610  11.225  11.049
48623W        W15406  38.734  28.017  12.145
48624W        W15407   7.906  41.927   0.436
48625W        W15408  30.330  24.481   0.525
48626W        W15409  17.628  38.144  13.003
48627W        W15410  36.145  35.957  14.549
48628W        W15411  11.773  16.625   1.255
48629W        W15412  38.070  41.276  10.725
48630W        W15413  16.080  14.375  10.232
48631W        W15414  43.401   9.117  12.058
48632W        W15415   3.233  13.675   0.307
48633W        W15416   8.664   8.915   0.443
48634W        W15417  21.755  30.179   2.017
48635W        W15418  36.427  17.172   4.561
48636W        W15419  41.819  30.075  11.237
48637W        W15420  34.454  39.307  11.159
48638W        W15421  10.070  32.156   4.864
48639W        W15422  29.338  37.009   3.813
48640W        W15423  21.611  26.766   2.689
48641W        W15424  17.751   2.842   3.608
48642W        W15425  31.084  15.548   0.004
48643W        W15426  43.490  43.817  13.828
48644W        W15427  34.085  44.947   3.800
48645W        W15428  37.647  42.266  11.192
48646W        W15429   8.553   2.453  13.019
48647W        W15430   3.322  29.442   1.193
48648W        W15431  32.653  27.970   3.681
48649W        W15432   8.968  36.125   3.657
48650W        W15433  24.113  21.950   3.782
48651W        W15434  36.295  12.059  11.073
48652W        W15435  18.609  39.362  14.019
48653W        W15436   3.541  15.671   4.083
48654W        W15437  29.976   3.317  12.139
48655W        W15438   9.731  39.018   2.318
48656W        W15439  12.801  36.888  14.202
48657W        W15440  34.586  35.842   4.215
48658W        W15441  12.459  35.793   0.926
48659W        W15442  19.817  31.671  12.907
48660W        W15443  28.168   9.004   2.278
48661W        W15444   5.810  14.170   0.775
48662W        W15445  33.119  36.861  12.903
48663W        W15446  37.424   8.650   0.282
48664W        W15447  10.360  38.197   2.294
48665W        W15448  16.251  40.799  14.341
48666W        W15449   8.241  41.226   1.191
48667W        W15450  19.339  37.140   4.103
48668W        W15451  10.645  34.599  12.469
48669W        W15452  42.376  18.767  12.414
48670W        W15453  35.002  40.527  10.307
48671W        W15454   6.158  15.815  11.541
48672W        W15455  32.894  17.705   4.151
48673W        W15456  30.517  28.586  10.800
48674W        W15457  35.774   5.197   2.367
48675W        W15458  19.665  17.525  12.368
48676W        W15459  41.613  34.331   1.731
48677W        W15460  14.115   9.106   2.252
48678W        W15461  11.420  43.290  13.026
48679W        W15462   4.664   4.364  13.359
48680W        W15463   8.637  40.896   1.094
48681W        W15464  22.727  32.074  13.075
48682W        W15465   3.885  26.906   2.243
48683W        W15466  21.771   4.289   0.089
48684W        W15467  11.868  35.624  11.996
48685W        W15468  28.447  32.684  13.904
48686W        W15469  24.583   8.187   1.647
48687W        W15470  29.979  13.299  10.700
48688W        W15471  16.143  31.043  11.503
48689W        W15472  14.536  28.623   2.852
48690W        W15473  13.522  16.298  10.467
48691W        W15474  32.595  42.610  11.278
48692W        W15475  32.072  17.326   0.946
48693W        W15476  29.989  21.675   9.806
48694W        W15477   6.152   8.010  11.617
48695W        W15478  33.077   4.497   1.497
48696W        W15479  42.840  16.066  11.650
48697W        W15480  41.738  41.071  11.975
48698W        W15481  13.010   8.655   0.280
48699W        W15482   9.408  29.657   3.643
48700W        W15483   6.268  31.750   0.364
48701W        W15484  25.199  18.065   1.263
48702W        W15485  41.019  40.288  14.077
48703W        W15486  36.081   3.606   2.609
48704W        W15487  19.042  34.263  13.819
48705W        W15488  44.794  22.165  12.967
48706W        W15489  42.747  11.570  11.623
48707W        W15490  17.312  38.558   1.762
48708W        W15491   6.299  33.208   0.230
48709W        W15492  11.875   4.321  12.512
48710W        W15493  39.577  15.568  12.857
48711W        W15494  30.611   7.312  12.512
48712W        W15495  28.051   4.170  10.778
48713W        W15496  42.790   9.308   2.218
48714W        W15497  43.424  12.685  13.278
48715W        W15498  44.946  23.765   0.066
48716W        W15499  21.925  31.453   0.949
48717W        W15500  38.076   0.188  11.537
48718W        W15501  20.727  29.275  10.773
48719W        W15502  21.300  22.246  14.919
48720W        W15503  44.840  43.539  10.686
48721W        W15504  14.206   0.736   4.651
48722W        W15505  30.519   3.311   3.802
48723W        W15506  22.246   0.389  10.937
48724W        W15507  13.508  32.125  11.081
48725W        W15508  20.809  37.065  10.732
48726W        W15509   7.439  28.460   4.236
48727W        W15510  26.985  10.749   2.723
48728W        W15511  38.739  36.055  13.768
48729W        W15512   4.198  17.362   0.210
48730W        W15513  22.062  29.589  14.408
48731W        W15514  44.448  36.998   2.697
48732W        W15515  26.730   4.603  14.600
48733W        W15516  10.463   8.188  11.617
48734W        W15517  33.520  25.776   0.226
48735W        W15518   1.682  39.888  13.224
48736W        W15519  17.127  30.812  11.408
48737W        W15520   0.251   5.951  14.493
48738W        W15521   4.550  31.577  11.163
48739W        W15522  13.053  40.559  11.667
48740W        W15523  24.131  26.449  13.552
48741W        W15524   4.313  34.955  11.539
48742W        W15525  34.988  26.761  14.817
48743W        W15526  12.312  24.369  10.721
48744W        W15527  43.872  15.818  11.332
48745W        W15528  20.648  17.274   3.523
48746W        W15529  29.123   0.247  11.113
48747W        W15530  30.068   9.342   4.608
48748W        W15531  43.788  33.972   1.712
48749W        W15532  17.241   3.771  10.698
48750W        W15533  40.464   0.991  13.330
48751W        W15534  39.640  12.873   0.469
48752W        W15535  11.420  34.826   2.282
48753W        W15536  35.099  16.313  11.016
48754W        W15537  13.624  36.758  14.944
48755W        W15538  35.624  12.173   1.850
48756W        W15539  44.297   0.668  11.506
48757W        W15540  33.804  42.844  12.584
48758W        W15541  33.429  33.085   0.705
48759W        W15542  41.435  23.482   3.086
48760W        W15543  14.276  16.619  11.457
48761W        W15544  34.775  38.616  12.484
48762W        W15545   9.342  33.995  12.044
48763W        W15546   9.835  25.009   0.088
48764W        W15547  42.482  42.544   4.164
48765W        W15548  33.320  40.072  14.230
48766W        W15549  16.328  36.301  11.571
48767W        W15550  13.258  24.705   2.406
48768W        W15551   9.756  28.406  13.948
48769W        W15552  13.097  16.727   3.674
48770W        W15553  19.233  34.790  13.174
48771W        W15554  11.564  33.458   2.961
48772W        W15555  31.547   0.403   0.182
48773W        W15556  34.806   7.832  13.732
48774W        W15557  33.050  40.400   3.735
48775W        W15558  15.025  43.863   2.271
48776W        W15559   0.142   8.704   0.591
48777W        W15560  33.235  25.075  11.858
48778W        W15561  39.832  13.282   3.572
48779W        W15562  44.760   2.466   2.814
48780W        W15563   2.425  22.786  10.792
48781W        W15564  34.988  44.934   4.797
48782W        W15565  19.674  19.422   4.401
48783W        W15566  44.693   1.274   3.205
48784W        W15567   1.277  44.192  12.640
48785W        W15568  37.959  30.200   0.470
48786W        W15569  26.970  35.566  13.413
48787W        W15570  30.611  14.486  12.038
48788W        W15571  32.540   9.622  14.136
48789W        W15572  24.236  10.388   1.687
48790W        W15573  36.088  14.211  11.759
48791W        W15574  43.888  14.704  10.280
48792W        W15575  12.412  43.810  14.300
48793W        W15576  21.137  24.283   4.107
48794W        W15577   8.820  22.657  12.991
48795W        W15578  28.526  25.984   3.294
48796W        W15579  28.813  11.120   1.925
48797W        W15580   4.175  28.190   3.325
48798W        W15581  25.005  12.323   0.241
48799W        W15582  44.687   4.910   0.694
48800W        W15583  35.917  37.351  14.732
48801W        W15584  21.016   7.402  12.451
48802W        W15585   5.357   7.192  10.682
48803W        W15586   5.985  15.733   2.614
48804W        W15587  41.474  31.135   4.345
48805W        W15588   6.488  36.424   0.040
48806W        W15589  32.158  26.079  11.694
48807W        W15590   9.769  38.979  13.372
48808W        W15591  21.129  26.468   2.589
48809W        W15592   9.287   9.862   4.314
48810W        W15593  28.962  23.501  12.620
48811W        W15594  30.969  23.760  14.676
48812W        W15595  23.304  14.842   2.582
48813W        W15596   7.993  19.591   3.684
48814W        W15597  40.087  12.085  11.253
48815W        W15598  33.369  28.138   0.327
48816W        W15599  27.560  17.362   2.301
48817W        W15600   8.719  31.586  14.072
48818W        W15601  34.132  37.622   3.997
48819W        W15602  29.172  20.647   1.760
48820W        W15603   9.525  38.037  14.565
48821W        W15604  31.341  16.367   2.804
48822W        W15605  37.554  18.059  12.684
48823W        W15606  21.757  20.701  11.351
48824W        W15607   5.767  44.537  13.951
48825W        W15608  38.382  35.086  14.357
48826W        W15609  42.520  14.240  14.720
48827W        W15610  12.951  27.399   2.798
48828W        W15611  32.531  38.061   2.392
48829W        W15612  16.936  13.281  12.132
48830W        W15613  30.904  19.207   1.004
48831W        W15614  39.332   4.838  14.048
48832W        W15615  30.576  39.963   0.608
48833W        W15616   9.598  27.132  10.841
48834W        W15617   0.248  28.943  12.304
48835W        W15618  17.984  30.044   1.589
48836W        W15619  21.508  26.452   3.542
48837W        W15620  25.960  26.919  14.326
48838W        W15621  41.025  37.642  13.090
48839W        W15622  13.671   2.232  10.733
48840W        W15623  37.197  10.322   1.229
48841W        W15624  34.512  23.652   3.753
48842W        W15625  35.904  14.269   1.090
48843W        W15626  31.195  41.006   0.366
48844W        W15627  30.639   5.920   3.604
48845W        W15628  26.569  31.323   4.121
48846W        W15629  31.669  14.130   3.690
48847W        W15630  14.033  44.619  11.398
48848W        W15631  22.136  10.334   0.752
48849W        W15632  18.797  44.356  10.979
48850W        W15633  10.340   5.746   1.424
48851W        W15634   8.178  32.431   4.534
48852W        W15635   1.501  13.082  11.929
48853W        W15636  21.331  39.114   0.900
48854W        W15637  19.065  43.494  10.679
48855W        W15638  10.148  20.133   0.970
48856W        W15639   5.961  25.964  12.375
48857W        W15640  40.041   5.648   3.112
48858W        W15641  34.491  19.399   9.542
48859W        W15642  18.749   8.181  13.412
48860W        W15643  20.579  30.915  10.851
48861W        W15644  28.235  13.905  11.029
48862W        W15645  13.377  39.888  13.387
48863W        W15646  15.792   5.523  12.725
48864W        W15647  41.534  28.338   2.811
48865W        W15648  30.571  30.646   2.669
48866W        W15649   1.258  34.566   3.412
48867W        W15650  22.180  42.576  14.678
48868W        W15651   0.266  44.311   0.827
48869W        W15652  34.929  40.287   2.415
48870W        W15653   4.651   8.128  13.924
48871W        W15654   5.218  16.740   1.893
48872W        W15655  35.446   3.501   4.207
48873W        W15656  23.053  33.592  10.764
48874W        W15657  20.586  13.325  14.447
48875W        W15658  44.992   9.283  10.799
48876W        W15659  42.409  43.934   0.782
48877W        W15660  25.487  26.499   0.475
48878W        W15661   6.071  35.737  10.484
48879W        W15662  17.531   8.239   4.622
48880W        W15663  13.656  44.960   0.867
48881W        W15664  44.246   9.266   3.627
48882W        W15665  38.895   3.799  11.406
48883W        W15666   5.417  18.297  10.832
48884W        W15667  12.621  21.121   0.499
48885W        W15668   9.744   2.544  14.466
48886W        W15669   3.351  40.759  13.344
48887W        W15670  14.048  19.701  12.862
48888W        W15671  22.207  39.030   4.573
48889W        W15672  19.435  17.104  12.615
48890W        W15673  12.491  17.178  11.055
48891W        W15674  31.515  25.017  10.824
48892W        W15675  22.243  13.135   0.348
48893W        W15676  33.120  28.112   4.677
48894W        W15677  19.215  27.202   4.522
48895W        W15678  11.010  35.653   2.267
48896W        W15679  29.178  27.246   1.363
48897W        W15680  21.694  26.300  12.962
48898W        W15681  39.666  39.397   4.904
48899W        W15682  37.833  42.340   1.659
48900W        W15683  22.541  13.207  11.781
48901W        W15684  22.153  17.274   1.001
48902W        W15685  17.208  17.663  13.459
48903W        W15686  20.541  41.488   4.191
48904W        W15687  24.532  32.788   1.245
48905W        W15688   3.249  41.387   3.324
48906W        W15689  17.053  26.561  14.119
48907W        W15690  21.115   3.919   0.471
48908W        W15691   1.783  10.840  11.086
48909W        W15692  16.705  39.854   1.845
48910W        W15693  12.383   9.807   2.546
48911W        W15694  27.917  32.637   4.287
48912W        W15695  28.446   5.243  13.841
48913W        W15696   7.397   3.480  12.170
48914W        W15697  20.948   4.344   1.942
48915W        W15698  33.950  17.657  11.585
48916W        W15699  34.122  32.402   1.366
48917W        W15700   7.620  24.654   4.112
48918W        W15701  16.784  31.646   3.267
48919W        W15702  14.998  35.808   1.372
48920W        W15703  17.131   4.320   0.894
48921W        W15704  23.061  32.948   4.070
48922W        W15705   5.946   4.855   4.267
48923W        W15706  12.834   4.166   0.312
48924W        W15707  32.030   3.214  11.606
48925W        W15708  22.955  42.422   0.331
48926W        W15709  37.830  28.196  14.755
48927W        W15710  43.332  35.616   3.356
48928W        W15711  29.973  43.422  11.799
48929W        W15712  43.732  44.250   2.851
48930W        W15713  27.438  32.463  14.800
48931W        W15714  12.540  34.378   2.668
48932W        W15715  36.135   9.242   0.272
48933W        W15716  17.154   2.682  13.782
48934W        W15717  30.946  10.716   3.551
48935W        W15718  28.919  22.701   2.830
48936W        W15719  29.826  17.916   1.252
48937W        W15720  32.066   7.333  12.628
48938W        W15721  42.485  40.106   3.089
48939W        W15722  17.247  25.605   4.283
48940W        W15723  17.282  31.800  11.722
48941W        W15724  37.152  15.141   0.492
48942W        W15725  22.645   1.511   9.859
48943W        W15726   2.088  33.849  11.954
48944W        W15727   7.614  36.895   0.461
48945W        W15728  39.815  10.165   4.219
48946W        W15729  12.709  11.787  11.899
48947W        W15730  33.468  12.372  12.898
48948W        W15731  12.179   4.336   1.196
48949W        W15732  18.248   5.848  12.632
48950W        W15733  31.586  27.405   2.299
48951W        W15734  16.650  10.353  13.832
48952W        W15735  23.173   2.271  13.670
48953W        W15736   6.624  32.510   3.729
48954W        W15737  34.857  18.231   0.030
48955W        W15738  42.884  36.619  10.606
48956W        W15739   5.930  42.722   3.753
48957W        W15740  27.203  39.577   3.910
48958W        W15741  29.682  44.859  12.216
48959W        W15742  22.900  17.733  10.786
48960W        W15743  35.544  25.994  11.926
48961W        W15744  38.384  10.270  13.853
48962W        W15745  36.477  24.672   1.531
48963W        W15746   1.617  40.928   3.565
48964W        W15747   1.777  11.881   2.519
48965W        W15748  40.981  24.223   2.429
48966W        W15749  30.562  25.777  11.668
48967W        W15750   5.004  21.728  14.459
48968W        W15751   0.722   4.608   2.220
48969W        W15752   0.045  17.928  13.808
48970W        W15753  33.467   2.305  14.062
48971W        W15754  39.938  18.107   1.922
48972W        W15755  19.072  13.199  11.437
48973W        W15756   0.049  32.951   3.146
48974W        W15757  42.305  13.769  14.794
48975W        W15758  16.782  37.479  12.230
48976W        W15759  10.467   3.687   2.369
48977W        W15760   1.046   9.696  10.604
48978W        W15761  13.943  17.340   4.041
48979W        W15762  12.692   7.288   2.542
48980W        W15763  14.666   3.913  14.288
48981W        W15764  21.462  11.221   0.923
48982W        W15765  13.228  34.927   2.873
48983W        W15766  10.927  13.203  13.780
48984W        W15767  22.760  35.188   0.797
48985W        W15768  23.918  37.908  12.521
48986W        W15769   4.229  35.420   1.786
48987W        W15770  32.971  26.178  14.231
48988W        W15771  43.851  43.286  14.442
48989W        W15772  34.921  19.400  14.392
48990W        W15773  26.809  23.505   3.308
48991W        W15774   4.034  20.203   2.323
48992W        W15775  29.121  33.707  13.491
48993W        W15776  19.036  19.643   1.300
48994W        W15777  20.024  20.230   4.591
48995W        W15778   0.270  35.698  13.346
48996W        W15779  11.856  24.687   0.389
48997W        W15780   1.751   1.486   2.242
48998W        W15781  42.935  19.977   4.279
48999W        W15782  32.731  28.984   0.352
49000W        W15783  41.243   7.481   9.839
49001W        W15784  32.225   2.055   1.095
49002W        W15785  20.029  23.286  11.675
49003W        W15786  31.955  29.619   1.741
49004W        W15787  32.683   3.990  12.788
49005W        W15788  44.862  41.321  13.793
49006W        W15789  14.615  16.929  13.635
49007W        W15790  16.594  11.224   4.462
49008W        W15791  29.941  43.771  14.772
49009W        W15792   1.433   8.219  10.663
49010W        W15793  27.608  21.060   2.994
49011W        W15794  23.076  33.601   0.388
49012W        W15795  43.945  11.089  10.202
49013W        W15796  19.933   2.043  13.981
49014W        W15797   4.112   9.385  11.117
49015W        W15798  13.770  22.223  14.051
49016W        W15799  26.769   2.695   3.692
49017W        W15800  20.263  13.214   1.955
49018W        W15801  31.805  42.087  14.810
49019W        W15802  25.464  38.226   5.003
49020W        W15803   6.769  32.321   3.277
49021W        W15804   4.745   5.983  11.316
49022W        W15805  14.496  36.051  10.336
49023W        W15806  23.702  15.581  11.583
49024W        W15807  20.352  11.335  11.086
49025W        W15808  19.130  30.955   0.452
49026W        W15809   7.686   0.449   1.180
49027W        W15810   5.505  14.639  12.242
49028W        W15811  14.873  19.729   4.961
49029W        W15812  40.404  34.940   4.559
49030W        W15813  23.228   8.168  13.847
49031W        W15814  42.046  26.449   1.193
49032W        W15815  29.097   8.142  10.808
49033W        W15816  44.357  17.239   2.320
49034W        W15817  11.828  13.030  12.513
49035W        W15818  22.611  40.987  13.210
49036W        W15819   9.231  36.008  14.922
49037W        W15820  31.576   1.909  12.779
49038W        W15821  28.663  32.106   3.260
49039W        W15822  41.486  26.949  13.499
49040W        W15823  19.010  12.061   1.891
49041W        W15824  41.629  12.337  11.838
49042W        W15825  31.459  26.541  13.403
49043W        W15826  30.561  28.248  11.203
49044W        W15827  18.823   0.937   0.730
49045W        W15828  10.871  10.154   3.527
49046W        W15829  40.366  12.507   4.689
49047W        W15830  38.541   9.362   4.729
49048W        W15831   9.306   1.429   3.188
49049W        W15832  40.823   6.850   3.600
49050W        W15833  35.659  23.027  11.014
49051W        W15834  42.941   6.253  13.951
49052W        W15835  26.422  16.280  13.774
49053W        W15836  41.860  31.585   0.123
49054W        W15837  13.417  41.312   1.953
49055W        W15838  24.586  33.151  11.450
49056W        W15839  33.618   6.089   5.273
49057W        W15840  15.128  23.077   4.589
49058W        W15841  11.741  20.531   4.116
49059W        W15842  25.960  34.637   4.452
49060W        W15843  21.812  26.257   4.478
49061W        W15844   7.165  15.115   3.761
49062W        W15845   0.598   6.045   0.855
49063W        W15846   4.332  23.129  13.266
49064W        W15847  44.156  30.177   1.096
49065W        W15848  28.198  33.312  12.635
49066W        W15849  35.359  28.933   0.757
49067W        W15850  14.015   1.951   1.871
49068W        W15851  25.417  39.098  13.385
49069W        W15852  24.728   6.886  12.000
49070W        W15853   3.258  39.137  14.966
49071W        W15854   9.452  37.454   2.831
49072W        W15855  12.167  33.585  14.890
49073W        W15856  42.785  15.403   2.328
49074W        W15857  20.871  15.865   0.334
49075W        W15858  15.903  21.414  10.412
49076W        W15859  37.608  29.512   3.160
49077W        W15860  30.960  42.798  11.663
49078W        W15861  34.969  28.816   4.343
49079W        W15862   2.413  39.309  12.527
49080W        W15863  13.619  22.923  14.856
49081W        W15864  38.802   6.400   3.675
49082W        W15865  18.055  23.271  13.818
49083W        W15866   5.667  40.373   1.676
49084W        W15867  28.406   7.915  12.455
49085W        W15868  18.819   7.339  10.329
49086W        W15869  41.282   7.898  12.666
49087W        W15870  23.604  16.746   3.141
49088W        W15871  18.180  30.602  14.076
49089W        W15872   5.790   8.866   0.781
49090W        W15873  10.409   6.523  14.291
49091W        W15874  42.916  26.020   3.433
49092W        W15875  10.625  16.380  12.494
49093W        W15876  32.813   0.928  14.316
49094W        W15877  17.024  13.223   3.663
49095W        W15878  23.200  18.974   0.445
49096W        W15879  31.334  44.351   2.977
49097W        W15880  28.116  39.349   0.014
49098W        W15881  23.892   4.475  13.849
49099W        W15882  31.521   7.389   3.084
49100W        W15883  39.433  19.356  10.851
49101W        W15884  42.117  32.484  14.079
49102W        W15885  33.008  33.909   3.282
49103W        W15886  34.431  16.540   4.833
49104W        W15887  42.104  23.659   1.239
49105W        W15888  28.452  23.415   4.828
49106W        W15889   2.245  21.935   3.258
49107W        W15890  28.612  26.557  11.221
49108W        W15891  32.489  36.429   1.013
49109W        W15892  22.108   8.813  11.590
49110W        W15893  30.640  24.630  13.344
49111W        W15894  42.271   1.491   2.227
49112W        W15895   1.979  42.938   3.595
49113W        W15896  42.058  44.194  14.470
49114W        W15897  34.516   9.882  11.161
49115W        W15898  36.943   8.391  14.018
49116W        W15899  38.729   6.851   0.474
49117W        W15900  28.395  23.249   1.292
49118W        W15901  35.024   7.169   2.781
49119W        W15902  41.490  32.610  12.367
49120W        W15903  35.475  40.717   0.011
49121W        W15904  33.056  23.002   4.126
49122W        W15905  24.661   8.710  13.500
49123W        W15906  40.851  34.972  10.799
49124W        W15907  33.316  28.614  13.480
49125W        W15908  40.867  14.165   1.770
49126W        W15909  26.364   8.608   1.367
49127W        W15910  40.816  25.641  14.515
49128W        W15911   9.293  17.938   2.968
49129W        W15912  19.708   6.079  11.083
49130W        W15913   0.022   6.865   2.302
49131W        W15914  17.030  21.969  12.000
49132W        W15915   6.722  24.962  11.628
49133W        W15916  18.925   6.886  11.895
49134W        W15917  21.935  39.310   3.273
49135W        W15918  12.776  39.899   3.535
49136W        W15919  19.712  41.611  11.590
49137W        W15920   2.259  23.452  13.440
49138W        W15921  42.039   2.806  13.416
49139W        W15922  41.479  15.329   4.944
49140W        W15923  33.820  17.585  12.923
49141W        W15924   9.001  23.825  10.662
49142W        W15925  32.950  27.586   4.791
49143W        W15926  26.957   8.367  11.179
49144W        W15927  20.027   8.062  11.752
49145W        W15928   5.253  24.949   2.854
49146W        W15929  10.123  32.106  10.152
49147W        W15930  34.366  22.897   3.314
49148W        W15931  12.248  10.576  14.374
49149W        W15932  32.952  42.424   4.673
49150W        W15933   2.085  17.368   4.389
49151W        W15934  41.943  32.548   3.607
49152W        W15935  28.426   2.242  12.172
49153W        W15936  42.484  33.409  14.776
49154W        W15937  21.779  36.512   3.559
49155W        W15938   9.437  38.890  12.941
49156W        W15939  12.628  44.489  11.399
49157W        W15940  19.131   6.189   3.260
49158W        W15941  37.591   0.996   4.225
49159W        W15942  29.641  30.011   1.409
49160W        W15943   9.164   0.463   3.266
49161W        W15944  13.775  42.349   3.797
49162W        W15945  33.013  26.226  10.735
49163W        W15946  39.420  18.175  14.065
49164W        W15947  29.538  32.461   0.636
49165W        W15948  22.801  30.594  10.650
49166W        W15949  21.647  22.340  12.563
49167W        W15950  28.497  39.703  11.786
49168W        W15951  30.867  15.817   5.023
49169W        W15952  22.582  12.040  10.924
49170W        W15953   5.473   6.891  14.740
49171W        W15954   2.513  14.894  12.052
49172W        W15955  31.569  25.537  14.207
49173W        W15956  23.760  10.154  12.203
49174W        W15957   8.317   5.378  11.411
49175W        W15958  30.129  27.468  13.890
49176W        W15959  29.726  16.243  13.874
49177W        W15960   7.820   2.537  10.761
49178W        W15961  38.925   8.473   3.689
49179W        W15962   8.145  29.374   2.192
49180W        W15963  43.521  28.644  11.140
49181W        W15964  39.828  12.309  11.643
49182W        W15965  16.801   0.940  13.612
49183W        W15966  15.657  27.654   4.126
49184W        W15967   2.195  24.887  11.673
49185W        W15968  16.437  11.095  12.487
49186W        W15969  26.929  20.762   4.250
49187W        W15970  27.019  18.627  12.723
49188W        W15971   3.321  42.028   1.704
49189W        W15972  10.656  14.528  10.782
49190W        W15973  34.639  27.706  14.370
49191W        W15974  17.883  14.681   0.822
49192W        W15975  44.243  14.072  12.006
49193W        W15976   3.877  26.009   3.657
49194W        W15977  25.952  31.460   3.645
49195W        W15978  34.292   5.713  13.070
49196W        W15979  16.004  12.704   0.489
49197W        W15980   6.182  22.538   4.997
49198W        W15981  14.000   1.035   1.698
49199W        W15982  12.839  40.432  10.736
49200W        W15983  18.634  35.143  13.903
49201W        W15984  33.343  37.800   1.922
49202W        W15985   7.551  30.567  14.887
49203W        W15986  26.709  15.382  14.454
49204W        W15987  13.351  43.854  14.602
49205W        W15988  12.152  30.472   0.747
49206W        W15989   4.757  28.223  11.724
49207W        W15990  37.795  31.433  11.447
49208W        W15991  30.478  25.410  14.797
49209W        W15992  21.571   0.979  12.977
49210W        W15993   1.738   7.390   9.578
49211W        W15994  10.317  17.321  12.878
49212W        W15995  14.471  15.224   4.388
49213W        W15996  37.246   9.465   1.427
49214W        W15997  38.539  11.629   4.389
49215W        W15998  18.451  36.500  11.854
49216W        W15999  15.258   0.435   0.234
49217W        W16000  37.662  26.054  11.012
49218W        W16001   7.081  30.873   3.559
49219W        W16002  25.967  10.800  11.158
49220W        W16003   4.153  14.221   4.172
49221W        W16004  26.983  24.962  13.943
49222W        W16005   3.866  35.494  14.008
49223W        W16006  25.064   8.218  12.114
49224W        W16007   6.135   3.864  11.115
49225W        W16008  31.884   9.751  12.999
49226W        W16009   0.484  14.718   4.002
49227W        W16010  10.121  25.554   0.770
49228W        W16011   9.276  19.845  12.933
49229W        W16012  36.380   3.729   4.598
49230W        W16013  13.035  27.457  12.102
49231W        W16014  37.224  41.509  13.923
49232W        W16015   9.679   7.402  13.408
49233W        W16016  19.037  20.476  12.480
49234W        W16017  41.877  17.218  11.422
49235W        W16018   4.684  35.942   0.335
49236W        W16019  17.146  42.414   4.309
49237W        W16020  14.065  37.691  12.972
49238W        W16021  24.700  37.453   4.455
49239W        W16022  15.018  41.820  11.443
49240W        W16023  30.918   9.183  14.954
49241W        W16024  27.431  20.949  13.147
49242W        W16025   9.019   8.932   4.237
49243W        W16026   7.816  24.247  11.181
49244W        W16027  11.085  23.118  11.151
49245W        W16028  10.060  39.867   3.880
49246W        W16029  25.986  30.046  13.411
49247W        W16030  27.559  11.772   0.465
49248W        W16031  22.053  11.386   2.737
49249W        W16032   7.208  17.717  11.603
49250W        W16033  36.515  26.091   2.959
49251W        W16034  42.719  23.181  13.009
49252W        W16035  10.770  13.709  13.925
49253W        W16036  16.525  27.008  12.570
49254W        W16037  34.616  13.514  14.007
49255W        W16038  12.972  18.001   3.264
49256W        W16039   1.153  42.382  12.339
49257W        W16040  28.316  17.545  11.894
49258W        W16041   8.879  16.106   0.152
49259W        W16042  12.152   1.017   2.133
49260W        W16043  22.200   8.962   2.274
49261W        W16044  11.110  32.985   0.397
49262W        W16045  13.912   5.434  11.642
49263W        W16046  20.193  43.923  13.051
49264W        W16047  37.422  12.278  14.343
49265W        W16048   6.183  39.604   1.186
49266W        W16049  38.626  13.175  12.516
49267W        W16050   5.003   0.926   0.404
49268W        W16051  15.313  36.487   3.521
49269W        W16052  25.644   3.059   4.565
49270W        W16053  32.628  32.591   2.700
49271W        W16054  13.184  13.707   2.647
49272W        W16055  17.703  32.586   0.722
49273W        W16056  37.967  29.103   2.599
49274W        W16057  44.929  20.301   2.351
49275W        W16058  30.663  37.316   1.367
49276W        W16059   0.713  41.828  14.639
49277W        W16060  25.564  35.640   3.324
49278W        W16061  40.881  31.608   2.172
49279W        W16062   4.150  30.301  14.924
49280W        W16063  12.583  31.651   3.718
49281W        W16064  20.690  15.606  12.483
49282W        W16065  41.409  11.676  14.664
49283W        W16066  29.235   6.237   3.686
49284W        W16067  43.950   0.386  13.392
49285W        W16068  28.396  25.663   4.524
49286W        W16069   2.535  38.864  11.621
49287W        W16070   3.165  28.755   4.461
49288W        W16071  14.771  12.731  12.572
49289W        W16072   5.296  18.307  14.945
49290W        W16073  17.879  31.874   4.143
49291W        W16074   0.560   6.456   1.659
49292W        W16075  27.875   7.456  12.000
49293W        W16076   8.243  27.512   3.071
49294W        W16077   3.635  30.712  14.248
49295W        W16078  15.706  16.649  11.049
49296W        W16079  42.520  21.784  11.945
49297W        W16080   0.477  42.891   0.690
49298W        W16081  26.671  20.591  10.317
49299W        W16082  38.399  38.931  14.538
49300W        W16083  36.978  11.725   3.621
49301W        W16084  14.623  44.823   4.652
49302W        W16085  25.629   6.880  12.063
49303W        W16086   3.761  14.407  14.934
49304W        W16087   2.346   1.835   1.500
49305W        W16088   7.347  20.043   2.944
49306W        W16089   3.845  43.700  11.643
49307W        W16090  17.114  12.334   1.831
49308W        W16091  43.431  30.406  14.371
49309W        W16092  32.448  42.763   2.144
49310W        W16093  37.748  24.990   4.553
49311W        W16094  15.265  17.586   4.583
49312W        W16095  42.093  28.426  12.020
49313W        W16096  25.588  13.467   4.643
49314W        W16097   0.768  19.184   1.226
49315W        W16098  20.558  31.197  14.029
49316W        W16099  35.625  44.853  12.481
49317W        W16100   6.592  12.921   1.714
49318W        W16101  32.708  28.156   1.122
49319W        W16102  13.283   1.483  12.856
49320W        W16103  36.324  33.493   2.300
49321W        W16104  10.201  36.990   3.599
49322W        W16105   5.763   4.886   3.290
49323W        W16106   8.078   5.949   3.391
49324W        W16107   1.761  11.895   1.227
49325W        W16108  34.850   6.199  10.672
49326W        W16109  17.307  26.547   5.068
49327W        W16110  44.347  22.608   1.458
49328W        W16111  32.541  14.637  14.289
49329W        W16112   9.135  33.535   1.442
49330W        W16113  10.842  33.406   3.842
49331W        W16114   7.203  21.961  13.991
49332W        W16115   1.082  18.268  13.031
49333W        W16116  29.166   4.846  13.794
49334W        W16117  43.140  16.210  14.508
49335W        W16118  32.130  36.262   4.030
49336W        W16119  14.814  19.535   0.222
49337W        W16120  32.267  17.719  12.412
49338W        W16121   5.056  14.812  11.325
49339W        W16122  43.734  31.929   2.313
49340W        W16123  19.227  42.725   0.893
49341W        W16124   9.863  13.424  11.639
49342W        W16125  31.469  25.900  11.209
49343W        W16126  37.476  36.367   5.119
49344W        W16127  42.781  40.906  10.753
49345W        W16128   4.475  17.487  14.278
49346W        W16129  19.299  43.053  12.106
49347W        W16130  41.810  12.241   1.902
49348W        W16131  41.008   1.901   3.347
49349W        W16132  40.886  33.548  14.998
49350W        W16133  14.680  20.987   1.398
49351W        W16134  13.330  33.487  14.465
49352W        W16135   8.896  35.635  14.132
49353W        W16136  11.172  41.000  14.794
49354W        W16137  35.919  36.423  10.630
49355W        W16138  12.061  18.114  10.863
49356W        W16139   6.694   9.113  11.053
49357W        W16140  39.506  18.537  14.528
49358W        W16141   8.822  31.584   3.066
49359W        W16142   9.619  37.422  14.860
49360W        W16143  40.134  13.061   0.671
49361W        W16144  41.658  25.152  12.236
49362W        W16145  25.819  37.861   5.145
49363W        W16146  15.697  26.017  12.519
49364W        W16147  20.042   0.339   1.771
49365W        W16148  10.829  23.654   3.825
49366W        W16149  35.352  31.122  13.881
49367W        W16150  11.954  20.745   1.050
49368W        W16151  27.197  28.141   5.051
49369W        W16152  14.189  21.729  14.859
49370W        W16153  39.820  44.048  12.510
49371W        W16154   0.436   5.891   3.341
49372W        W16155   0.102  13.690   1.593
49373W        W16156  18.708   6.677  14.292
49374W        W16157   8.092  31.677  11.924
49375W        W16158   9.759  24.765   3.211
49376W        W16159  42.056  10.300   0.863
49377W        W16160  15.379   0.444   2.914
49378W        W16161  35.931  25.121  13.159
49379W        W16162  25.640  33.043  12.163
49380W        W16163  12.715   7.105   3.536
49381W        W16164  17.346   2.991   0.273
49382W        W16165  29.116  37.350  12.992
49383W        W16166  20.555   1.480  14.306
49384W        W16167  41.108  16.699  13.822
49385W        W16168  31.885   2.884  14.756
49386W        W16169  12.878  35.305   2.119
49387W        W16170   8.858  34.319  11.996
49388W        W16171  36.438  14.538  10.582
49389W        W16172  39.541  24.402   3.837
49390W        W16173  40.606  38.333  12.019
49391W        W16174  22.321  44.202   1.667
49392W        W16175  43.079  12.770  11.522
49393W        W16176  41.757  34.326   4.171
49394W        W16177  19.796  43.815   1.271
49395W        W16178  43.023  20.848   5.007
49396W        W16179   7.994  41.921   2.293
49397W        W16180   5.424  21.094   0.536
49398W        W16181  19.778   6.587  11.177
49399W        W16182  11.259  17.718   4.557
49400W        W16183   3.769  33.843  14.923
49401W        W16184  40.522   7.918   3.323
49402W        W16185  25.659  21.096  14.717
49403W        W16186  14.257   7.951   2.498
49404W        W16187  42.746   0.725  11.548
49405W        W16188   1.899  15.298  10.668
49406W        W16189  24.795   3.818   3.554
49407W        W16190   8.851  43.909   1.798
49408W        W16191  32.390   7.396  11.215
49409W        W16192  25.978  16.066   4.207
49410W        W16193  27.679  41.580  12.310
49411W        W16194  44.244  44.978   3.142
49412W        W16195  28.604  26.545   3.922
49413W        W16196  44.555  31.046   3.752
49414W        W16197   0.382  30.221  13.594
49415W        W16198  39.543  30.452   2.977
49416W        W16199  19.534  22.224  13.913
49417W        W16200  23.589   5.549  13.643
49418W        W16201  42.765  44.018   1.164
49419W        W16202  13.266  11.658   4.492
49420W        W16203  19.105  19.473  14.030
49421W        W16204  43.816  10.375  11.994
49422W        W16205  24.697  32.841  14.329
49423W        W16206  33.341  21.848   5.699
49424W        W16207  15.696   1.963  10.953
49425W        W16208   6.772   9.856   3.045
49426W        W16209  37.928  23.861  12.359
49427W        W16210   0.973  15.859   1.282
49428W        W16211   0.290   3.698   2.281
49429W        W16212  12.251  13.145   2.747
49430W        W16213   3.143   3.867  13.306
49431W        W16214  27.140  31.542   2.338
49432W        W16215   5.420  43.956  11.558
49433W        W16216   7.776  38.794   2.878
49434W        W16217  16.665  23.994   4.639
49435W        W16218  36.055  17.699   3.852
49436W        W16219  21.428  21.484  14.865
49437W        W16220  33.295  10.865  11.550
49438W        W16221  25.250  43.980   3.825
49439W        W16222  39.536  10.809   1.290
49440W        W16223  18.179  41.171   0.711
49441W        W16224  27.563  18.512  13.418
49442W        W16225  20.751   0.240  10.896
49443W        W16226  42.449   3.432   2.717
49444W        W16227  19.085  19.138   5.016
49445W        W16228  11.185  10.005   4.077
49446W        W16229  23.745  29.451   3.233
49447W        W16230  43.895   4.211   4.928
49448W        W16231  21.558   5.422   1.261
49449W        W16232  19.501   7.614  11.249
49450W        W16233  18.352  21.541   4.095
49451W        W16234   9.723   7.216   5.616
49452W        W16235  14.218   3.270  10.047
49453W        W16236  27.573   6.697  14.830
49454W        W16237  30.446  29.563  13.019
49455W        W16238   8.747  23.168   3.553
49456W        W16239  43.955   5.183  12.957
49457W        W16240  32.446  18.181  12.270
49458W        W16241  28.896  28.917  14.901
49459W        W16242  25.866  26.891  12.040
49460W        W16243  43.408  18.801  11.070
49461W        W16244  22.316  34.423   4.203
49462W        W16245  26.080  36.447  11.292
49463W        W16246  37.121   6.289   4.549
49464W        W16247  35.900   9.019  11.188
49465W        W16248  40.917  27.210   4.809
49466W        W16249  41.622  10.304  13.870
49467W        W16250  27.196  40.133   0.197
49468W        W16251   9.694  20.136  12.755
49469W        W16252  21.070  31.500   1.429
49470W        W16253  29.047  15.486  12.868
49471W        W16254  34.061   9.611  11.225
49472W        W16255  27.588  12.697  12.059
49473W        W16256   7.388  25.125   4.853
49474W        W16257  28.084  16.323   4.725
49475W        W16258  21.794   3.927   1.853
49476W        W16259  30.471  36.493  12.618
49477W        W16260  18.206  29.625  11.208
49478W        W16261  25.230  30.636  12.069
49479W        W16262   4.800  24.947   4.538
49480W        W16263   1.719  44.044   2.748
49481W        W16264  39.203   2.423   2.821
49482W        W16265  31.859  42.074  12.882
49483W        W16266  14.226  19.233  14.535
49484W        W16267   8.752  11.531   3.197
49485W        W16268   6.161  33.580  13.370
49486W        W16269   6.357  25.700   1.322
49487W        W16270  16.088  43.315   4.623
49488W        W16271  22.064  40.137   1.268
49489W        W16272   7.407  29.771   2.559
49490W        W16273  15.341  13.808  14.871
49491W        W16274  29.069  38.548   2.203
49492W        W16275  15.139   3.832  12.121
49493W        W16276  31.522  10.978   0.600
49494W        W16277   4.837  11.373   3.130
49495W        W16278   8.344   0.672  14.388
49496W        W16279  32.838  36.461  11.538
49497W        W16280  40.260   8.301   3.547
49498W        W16281  33.588  40.977   0.276
49499W        W16282  22.692   4.940   2.120
49500W        W16283  28.208  31.210  11.596
49501W        W16284  40.959  26.751   4.507
49502W        W16285  34.635  33.599   0.882
49503W        W16286  23.443  44.783   3.596
49504W        W16287   6.752  13.416  14.850
49505W        W16288  14.047  43.311  13.462
49506W        W16289  25.598   1.250  14.965
49507W        W16290  19.741  27.385   0.190
49508W        W16291  25.256  13.507  12.019
49509W        W16292   5.398   0.960   2.243
49510W        W16293   3.962  17.187   4.259
49511W        W16294  39.491  20.291  12.515
49512W        W16295   0.364  40.341   1.374
49513W        W16296  37.325  15.637   1.284
49514W        W16297  44.388   4.777  14.319
49515W        W16298  13.712  15.193   4.780
49516W        W16299  42.404  12.686  12.384
49517W        W16300  24.324  41.176  13.892
49518W        W16301  16.428  15.885  14.472
49519W        W16302  13.705  40.598   4.120
49520W        W16303   9.339   3.329  14.502
49521W        W16304  17.021   3.656  13.873
49522W        W16305  15.015  33.840  11.984
49523W        W16306  20.013  36.380   2.279
49524W        W16307  37.153  38.390   1.479
49525W        W16308  21.547  18.328  12.012
49526W        W16309  22.974  16.315   4.145
49527W        W16310  37.470  16.201   3.517
49528W        W16311  20.113  20.548  10.769
49529W        W16312  25.579  44.493   1.794
49530W        W16313  39.996  44.483   2.699
49531W        W16314  21.453  27.192  12.967
49532W        W16315   3.191  33.405  12.960
49533W        W16316   6.521  23.162   3.242
49534W        W16317   9.609   5.736   3.501
49535W        W16318   6.714  38.560  12.168
49536W        W16319  26.658  27.168  12.947
49537W        W16320  31.308  37.293  14.877
49538W        W16321  21.291  35.597  10.697
49539W        W16322  42.295  19.520  11.432
49540W        W16323  20.140  42.044   0.787
49541W        W16324  24.171   8.893   1.371
49542W        W16325  15.388   3.036  14.981
49543W        W16326  33.779  19.536   4.187
49544W        W16327   5.299  34.665  10.615
49545W        W16328  33.133   1.282  14.850
49546W        W16329  17.945   7.625  11.659
49547W        W16330   9.230  39.352  11.674
49548W        W16331  26.983  10.021  14.225
49549W        W16332  14.883   0.287  12.107
49550W        W16333  37.516   1.381  13.968
49551W        W16334   0.897  39.023  10.412
49552W        W16335  32.642  15.182   4.435
49553W        W16336   8.345   0.296   2.863
49554W        W16337  35.717  23.563  11.134
49555W        W16338   1.734  44.909   1.278
49556W        W16339   7.446  26.967   1.487
49557W        W16340  32.995  28.518   0.346
49558W        W16341  15.303   4.957   1.657
49559W        W16342  16.035  29.943   1.724
49560W        W16343  42.017  18.444  11.089
49561W        W16344  44.036  39.164  10.674
49562W        W16345  33.574  40.963  12.711
49563W        W16346  21.245  32.305  13.568
49564W        W16347  44.311  20.735   1.662
49565W        W16348   2.468   4.781   4.582
49566W        W16349  41.557  37.294  10.457
49567W        W16350  26.148  30.283  14.319
49568W        W16351  27.940  39.906   9.867
49569W        W16352  25.750  38.134  10.159
49570W        W16353  10.118  12.659   2.828
49571W        W16354  11.630   5.930   4.518
49572W        W16355  38.494   8.682   0.452
49573W        W16356   1.431   9.212  10.605
49574W        W16357   4.180  11.896   2.787
49575W        W16358  13.067  37.402   2.340
49576W        W16359  39.090  14.653   1.614
49577W        W16360   3.287  23.664   1.886
49578W        W16361  34.104  16.202  11.151
49579W        W16362  11.022  35.466  11.104
49580W        W16363   9.749   0.143  13.219
49581W        W16364  30.005  31.277   1.944
49582W        W16365   7.604  19.085  13.400
49583W        W16366   6.014  39.491   4.515
49584W        W16367  41.069  30.437   1.490
49585W        W16368  15.279  21.791  11.641
49586W        W16369  16.114  21.109   0.728
49587W        W16370  16.975  27.018  13.877
49588W        W16371   2.145   5.128   1.190
49589W        W16372   1.078  13.270   3.209
49590W        W16373  14.950  22.259  11.638
49591W        W16374  30.926  23.704   2.699
49592W        W16375  16.379  27.500   2.697
49593W        W16376  27.172  26.708   2.407
49594W        W16377  40.932  39.043   4.826
49595W        W16378  11.648  17.020  13.374
49596W        W16379   1.586  25.596   1.286
49597W        W16380  26.080  43.055  12.637
49598W        W16381  15.142  28.590  12.681
49599W        W16382  39.808  28.711   0.219
49600W        W16383  36.125  44.827   3.281
49601W        W16384  13.616   2.434   3.790
49602W        W16385  39.770  27.130  14.860
49603W        W16386  32.823  17.793   1.499
49604W        W16387  21.414  25.237  12.537
49605W        W16388  34.624  29.676  13.537
49606W        W16389  31.595  36.870  12.097
49607W        W16390  39.541  23.349  13.367
49608W        W16391  20.804  23.921   2.452
49609W        W16392  17.331  21.013   2.651
49610W        W16393  13.983   8.264   2.205
49611W        W16394  37.454   6.248   0.731
49612W        W16395  23.454  25.297   2.373
49613W        W16396   9.352  15.096   2.890
49614W        W16397  30.227  18.552   3.464
49615W        W16398  26.433  14.907  14.396
49616W        W16399  39.462   2.870  14.873
49617W        W16400  23.572  21.350   2.191
49618W        W16401  15.709  42.146  10.758
49619W        W16402  21.439  13.710   1.796
49620W        W16403  31.320  32.599   4.627
49621W        W16404  33.132  12.744  12.799
49622W        W16405  36.865  24.554  14.129
49623W        W16406  20.047  40.386   1.082
49624W        W16407  35.109  10.204  14.079
49625W        W16408  12.465  27.787   4.549
49626W        W16409  31.697   2.946   2.677
49627W        W16410  36.060  44.808   4.709
49628W        W16411  26.624   5.944   3.730
49629W        W16412  17.064   3.878  14.825
49630W        W16413  13.857  15.566   1.441
49631W        W16414  27.434  39.492  13.921
49632W        W16415   5.159  44.039  13.055
49633W        W16416  38.952   3.230   1.783
49634W        W16417   3.384  18.712   5.242
49635W        W16418  10.321  41.397  11.299
49636W        W16419   4.159  25.108   0.408
49637W        W16420  34.461  19.902   2.771
49638W        W16421  16.170  14.657   4.184
49639W        W16422  29.195   7.097   3.665
49640W        W16423   2.775   7.627  14.490
49641W        W16424  34.145  33.861  14.837
49642W        W16425  37.593  24.282  13.782
49643W        W16426  23.986   7.285  14.450
49644W        W16427  29.514  20.098   0.415
49645W        W16428  18.446   2.234   2.876
49646W        W16429  36.152  37.965  13.989
49647W        W16430  34.663  26.524  12.079
49648W        W16431  41.386  34.287  13.347
49649W        W16432  25.558  42.862  11.469
49650W        W16433  15.794  34.197   3.814
49651W        W16434  14.434  15.566   2.084
49652W        W16435  17.838  30.464   4.536
49653W        W16436   0.181   3.008  13.662
49654W        W16437  43.331   7.920  11.621
49655W        W16438  34.877   5.588   5.029
49656W        W16439  30.156  39.429  14.465
49657W        W16440  20.344  22.271  11.614
49658W        W16441  18.582  34.028   3.193
49659W        W16442  30.003  16.747  11.042
49660W        W16443  34.313  38.399  13.897
49661W        W16444  18.500   1.249  11.444
49662W        W16445  35.937  25.443  12.203
49663W        W16446  40.686  33.491  13.519
49664W        W16447   2.903   8.982  13.588
49665W        W16448  12.486   8.675   3.726
49666W        W16449  38.468   8.706   3.627
49667W        W16450   2.156  24.824  12.553
49668W        W16451   6.317  33.068   1.837
49669W        W16452  43.490  42.058  12.332
49670W        W16453  44.913  21.660   0.453
49671W        W16454  31.725  26.146  13.589
49672W        W16455  35.855   0.846  12.655
49673W        W16456  35.621  34.790  13.703
49674W        W16457  24.218  10.197   0.636
49675W        W16458   4.358   6.428   3.217
49676W        W16459  39.920  24.341   1.401
49677W        W16460  38.878   9.903   3.886
49678W        W16461  35.071  14.253  11.481
49679W        W16462  36.518   8.009   4.014
49680W        W16463  38.923   0.759  11.175
49681W        W16464  20.054  28.120   2.670
49682W        W16465  33.911  36.590  10.820
49683W        W16466   4.571  36.981  10.669
49684W        W16467  15.250  19.734   4.220
49685W        W16468   5.423  24.467   2.835
49686W        W16469  16.551  24.846  14.343
49687W        W16470  22.912   5.418  13.988
49688W        W16471   7.528  10.290  12.369
49689W        W16472  17.780   5.339  12.764
49690W        W16473  30.653  34.019   4.097
49691W        W16474  22.079  44.876  10.816
49692W        W16475   9.834  27.554  10.589
49693W        W16476  33.662  34.549   2.933
49694W        W16477   3.238   1.966  10.303
49695W        W16478   0.393  33.319  13.577
49696W        W16479   9.378  25.544   1.473
49697W        W16480  29.679  33.628  11.619
49698W        W16481  33.119   2.163   4.243
49699W        W16482  42.581  40.884   4.154
49700W        W16483  36.343  12.642   4.115
49701W        W16484  44.916  31.966  14.473
49702W        W16485   7.266  41.939  10.685
49703W        W16486  11.246  38.373   0.785
49704W        W16487  12.952  17.508  12.686
49705W        W16488  10.090  34.779  13.895
49706W        W16489   4.955   6.329   2.749
49707W        W16490  35.514  15.190   1.813
49708W        W16491  30.171  12.340   3.314
49709W        W16492  18.477   6.782   0.493
49710W        W16493  29.638   7.485  10.734
49711W        W16494  30.572  11.301   1.355
49712W        W16495  19.775  32.980   1.379
49713W        W16496  28.022  18.328  10.276
49714W        W16497  37.338  22.849   3.648
49715W        W16498   5.151  36.468   4.800
49716W        W16499  22.978  39.993   4.144
49717W        W16500  28.554  23.656  13.842
49718W        W16501  20.943   3.137  12.502
49719W        W16502   8.666  17.797   1.306
49720W        W16503  42.036  32.453   0.366
49721W        W16504  27.051   0.093   0.366
49722W        W16505  29.953  24.533   1.822
49723W        W16506  38.018  35.324  13.811
49724W        W16507  26.117   5.638  11.407
49725W        W16508   9.378   8.880  12.069
49726W        W16509  29.733  21.742   3.315
49727W        W16510  20.487  11.850  13.021
49728W        W16511  39.567  26.590   2.328
49729W        W16512  30.944  27.878  13.187
49730W        W16513  44.019  11.730   3.774
49731W        W16514  14.650  30.517   3.331
49732W        W16515  14.088  41.301  11.657
49733W        W16516  13.312  42.656  12.497
49734W        W16517   1.469  43.414  13.619
49735W        W16518  20.604   1.047  12.121
49736W        W16519  28.013  35.531   4.479
49737W        W16520  15.407  26.084  12.086
49738W        W16521   5.818  10.443  10.592
49739W        W16522  25.477  37.124  13.417
49740W        W16523  36.591  30.023   1.644
49741W        W16524   3.920   9.099   2.199
49742W        W16525  24.995   0.888   3.188
49743W        W16526  29.681  23.749  10.407
49744W        W16527   7.881  13.891   4.278
49745W        W16528   5.328   5.739  13.286
49746W        W16529  42.513  42.541   4.915
49747W        W16530  24.641  19.805  11.197
49748W        W16531  37.439   2.064   3.284
49749W        W16532  41.409   1.904  11.305
49750W        W16533   8.171   1.488   3.741
49751W        W16534   4.413  28.045  14.358
49752W        W16535  24.570  28.482  12.537
49753W        W16536  18.879   0.765   4.144
49754W        W16537  20.227   3.485  13.031
49755W        W16538  32.406  27.925  13.327
49756W        W16539  18.428  37.510   2.645
49757W        W16540  29.581  21.206  10.235
49758W        W16541  17.897  26.478   2.895
49759W        W16542  18.980  16.591  13.094
49760W        W16543  35.934  38.356  11.184
49761W        W16544  39.720  12.362   2.074
49762W        W16545  20.299  13.283   2.937
49763W        W16546  18.570  41.547  13.952
49764W        W16547  29.546   6.841   1.959
49765W        W16548   0.419   0.466   2.202
49766W        W16549  12.554   0.317   4.705
49767W        W16550  33.877  18.607  13.874
49768W        W16551  31.212   2.184   0.436
49769W        W16552  35.419   6.493   3.170
49770W        W16553  44.311  42.188   4.116
49771W        W16554  31.235   2.402  14.338
49772W        W16555  32.375   4.451   3.231
49773W        W16556  41.953  19.720   2.202
49774W        W16557   7.944   3.687  13.150
49775W        W16558  38.261  33.967   4.678
49776W        W16559  21.459  12.024   4.536
49777W        W16560  29.181  38.424  10.617
49778W        W16561   3.096   0.730   1.701
49779W        W16562  41.538  36.266   4.126
49780W        W16563   2.354  37.747   4.621
49781W        W16564  15.754  33.117  12.307
49782W        W16565   7.670   6.870   3.270
49783W        W16566   8.141  24.098   4.448
49784W        W16567  10.195  14.275  10.846
49785W        W16568  16.131  27.544   3.187
49786W        W16569  28.343  22.559  13.392
49787W        W16570  37.484  12.839  14.331
49788W        W16571  14.725  20.742  14.282
49789W        W16572   6.427  11.237  14.376
49790W        W16573  42.434  23.010   4.925
49791W        W16574  41.396  33.625  12.525
49792W        W16575   0.829  39.314  11.390
49793W        W16576  23.510   4.037   4.043
49794W        W16577   3.947  25.167   1.905
49795W        W16578  13.468  24.467  13.795
49796W        W16579  26.500  21.932  14.573
49797W        W16580  13.324  41.633   3.101
49798W        W16581  37.717  44.774   3.831
49799W        W16582  13.284   9.649   2.267
49800W        W16583  22.005  44.380   4.486
49801W        W16584  31.931  37.923  11.070
49802W        W16585  36.013  26.528  10.658
49803W        W16586  35.162  26.577  13.309
49804W        W16587  10.681  35.412   4.519
49805W        W16588  14.248  10.052   3.244
49806W        W16589  40.258   6.851  13.846
49807W        W16590   1.321  10.976  14.827
49808W        W16591  38.302  35.586  14.327
49809W        W16592  26.063  10.332   3.725
49810W        W16593   9.589  37.987   2.783
49811W        W16594   1.929  44.297   0.906
49812W        W16595  17.688  24.247  10.523
49813W        W16596   9.420  43.542  10.547
49814W        W16597  13.118  25.543   3.542
49815W        W16598  39.951  25.074   3.316
49816W        W16599  11.060  37.563  10.746
49817W        W16600  29.028  32.429   2.795
49818W        W16601   9.366  17.137   4.613
49819W        W16602  30.689   1.229   3.377
49820W        W16603  29.040  13.658  12.329
49821W        W16604   7.170   3.354   1.374
49822W        W16605  11.366  36.866   1.858
49823W        W16606  34.138  19.260  14.920
49824W        W16607  42.910  40.927  12.957
49825W        W16608  15.631   4.830   1.269
49826W        W16609  30.428  37.132  11.535
49827W        W16610  44.074  24.048  11.205
49828W        W16611   3.938  37.771  10.812
49829W        W16612  10.127  11.994  11.510
49830W        W16613  29.122  25.104   1.005
49831W        W16614   4.811  34.046  13.807
49832W        W16615  43.351  22.795  13.807
49833W        W16616  28.730   6.193   3.621
49834W        W16617  11.819   6.413   4.476
49835W        W16618  16.310  25.432   0.426
49836W        W16619  40.609  41.175  11.172
49837W        W16620  43.040   4.510  14.336
49838W        W16621  19.801  19.080   0.881
49839W        W16622  20.927  31.631  11.373
49840W        W16623   8.419   7.226   0.209
49841W        W16624  37.583   4.868   1.109
49842W        W16625   7.789   7.490  11.711
49843W        W16626  41.899  42.240   2.017
49844W        W16627   7.832  26.011  10.718
49845W        W16628  22.327  41.121   0.445
49846W        W16629   5.268  31.010   1.688
49847W        W16630  42.752  15.756  13.818
49848W        W16631  38.716  31.040   2.274
49849W        W16632  12.681  26.110   2.785
49850W        W16633  19.690  37.599   2.448
49851W        W16634  23.494   5.342   9.972
49852W        W16635  10.560  25.748  11.129
49853W        W16636  44.515  40.399   0.881
49854W        W16637  43.272   7.426  11.462
49855W        W16638  34.975  10.557  14.457
49856W        W16639   3.310   8.026   2.675
49857W        W16640  27.241  44.741   3.717
49858W        W16641   1.949  34.540  13.423
49859W        W16642  27.980   6.736  12.461
49860W        W16643  22.632  30.529   2.164
49861W        W16644  42.568  20.663  11.218
49862W        W16645  28.997  35.067   4.553
49863W        W16646  33.599  28.124   2.900
49864W        W16647  20.142  41.093  14.283
49865W        W16648  11.888  16.304  11.914
49866W        W16649  25.225  18.590   2.804
49867W        W16650   3.866   2.910  13.632
49868W        W16651   1.542  24.733  13.359
49869W        W16652  13.049  14.011  14.463
49870W        W16653  36.371  23.411  13.139
49871W        W16654   5.811  12.010   3.186
49872W        W16655  11.929   2.354   1.570
49873W        W16656  23.024  44.507   2.113
49874W        W16657   6.212   0.204   1.436
49875W        W16658   1.929   8.302  14.547
49876W        W16659   9.338   1.904  13.244
49877W        W16660   4.351  29.812  13.979
49878W        W16661   6.955   4.325   2.576
49879W        W16662   9.196  10.926  12.514
49880W        W16663   0.351   1.749   4.444
49881W        W16664  37.096  24.164  13.874
49882W        W16665  41.632  43.794  11.119
49883W        W16666  31.886   3.864  14.845
49884W        W16667  19.427   7.223   4.491
49885W        W16668  42.759   7.012  10.613
49886W        W16669  30.390  25.160  11.446
49887W        W16670   2.778  32.920   1.877
49888W        W16671  29.672  38.911  13.955
49889W        W16672  26.645  24.009  11.160
49890W        W16673   9.373   2.346   0.219
49891W        W16674  35.154   6.772   3.564
49892W        W16675  28.093   4.208   1.791
49893W        W16676  33.375  42.793   4.557
49894W        W16677  26.711  15.280   2.360
49895W        W16678  35.050  30.117   0.826
49896W        W16679  31.889  10.806  12.983
49897W        W16680  40.602  26.791  14.877
49898W        W16681  44.598   8.097   0.331
49899W        W16682  37.587  20.193   1.277
49900W        W16683  21.094  18.592   3.708
49901W        W16684  21.782  35.526  10.778
49902W        W16685  30.529   2.720  13.340
49903W        W16686  22.708  20.301   0.184
49904W        W16687  21.714  25.646  12.455
49905W        W16688   5.855  24.164   2.608
49906W        W16689  22.666  24.625   3.071
49907W        W16690  41.398  33.983   2.899
49908W        W16691  44.565  11.031  12.468
49909W        W16692  18.839  35.409  12.617
49910W        W16693  38.662   0.121   4.676
49911W        W16694  41.148  12.279  11.996
49912W        W16695  39.590  24.954   0.902
49913W        W16696  36.056   3.408  12.592
49914W        W16697  13.175  42.890  14.865
49915W        W16698   6.340   2.025   0.402
49916W        W16699  37.393  26.404  12.142
49917W        W16700  24.078  11.818   2.814
49918W        W16701  34.470  34.923  12.868
49919W        W16702  21.814  19.551  12.763
49920W        W16703  36.261  19.025  11.151
49921W        W16704  10.794  34.386  12.014
49922W        W16705  12.495  35.081  14.458
49923W        W16706  30.941  28.640   3.625
49924W        W16707   4.986  43.300   3.727
49925W        W16708  19.666  24.740  13.382
49926W        W16709   8.779  10.521  10.259
49927W        W16710  29.391  28.673   2.316
49928W        W16711  39.510  16.859  13.949
49929W        W16712  43.024  34.499  14.783
49930W        W16713  28.092   0.941   3.709
49931W        W16714  22.163  28.136   3.339
49932W        W16715  44.930  16.211  10.276
49933W        W16716  31.106  14.280   0.396
49934W        W16717  16.046  23.693   0.615
49935W        W16718  23.780  36.190  11.596
49936W        W16719   4.348   1.504   2.831
49937W        W16720  34.059  24.198  12.829
49938W        W16721   2.001  36.415  12.420
49939W        W16722  19.173  17.549  12.640
49940W        W16723   6.400  38.362  14.011
49941W        W16724  44.339  43.219  13.468
49942W        W16725  39.916  41.071  14.032
49943W        W16726  18.171  35.998   0.491
49944W        W16727  35.983  25.652  13.128
49945W        W16728  36.864  13.596   2.358
49946W        W16729   6.630  36.367  11.783
49947W        W16730   0.760  43.650   0.489
49948W        W16731  19.966  35.031  13.418
49949W        W16732   7.350  20.810   3.680
49950W        W16733   8.887  13.574  13.380
49951W        W16734  25.851   4.996  12.138
49952W        W16735  44.200  11.340  14.859
49953W        W16736  32.064  33.211  12.369
49954W        W16737   9.099  34.786  13.806
49955W        W16738   2.791   2.071  14.214
49956W        W16739  31.156  19.695   1.755
49957W        W16740  34.464  39.074  13.375
49958W        W16741   5.714  32.489   3.348
49959W        W16742  20.219  36.046  10.984
49960W        W16743  31.466  42.054   0.708
49961W        W16744  10.664  26.896   3.709
49962W        W16745   5.694   2.916  14.890
49963W        W16746  36.997  22.338  14.732
49964W        W16747  36.453   7.716   0.819
49965W        W16748  23.126  32.019  11.636
49966W        W16749   9.875   0.276  13.703
49967W        W16750  25.154   9.583  12.835
49968W        W16751  17.333  18.746  11.068
49969W        W16752   4.029  18.768  14.696
49970W        W16753  27.243  43.282   1.764
49971W        W16754  30.344  12.439  13.795
49972W        W16755   0.994  37.379   3.672
49973W        W16756  22.803  13.628   3.753
49974W        W16757  35.488  18.782   2.810
49975W        W16758   4.383  26.683   2.296
49976W        W16759  11.208  42.206  10.649
49977W        W16760  37.626  33.654  14.409
49978W        W16761  13.874  15.548  13.348
49979W        W16762  44.236  15.572   0.894
49980W        W16763  28.087   7.916  11.996
49981W        W16764  39.074  28.398  11.975
49982W        W16765  21.811  31.066  12.097
49983W        W16766  28.059  24.616  13.471
49984W        W16767  43.386  43.572   4.096
49985W        W16768   4.854  28.705  14.472
49986W        W16769  43.571  26.696  14.415
49987W        W16770  29.676  22.385   4.177
49988W        W16771   6.199  15.171  14.479
49989W        W16772  10.431  16.887   0.017
49990W        W16773  32.574  29.109   1.280
49991W        W16774  11.630  28.401  11.581
49992W        W16775  22.512  41.394  12.892
49993W        W16776  40.356  21.677  13.344
49994W        W16777  37.795  10.064   4.754
49995W        W16778   2.433   2.571   3.358
49996W        W16779  12.409  13.758   3.415
49997W        W16780  36.348  41.617   3.205
49998W        W16781   9.794  18.409  13.641
49999W        W16782   6.699   4.647   1.476
50000W        W16783  16.475  38.160   1.768
50001W        W16784  26.313   0.579  11.663
50002W        W16785  42.565  26.979  10.944
50003W        W16786  27.517   1.239   0.993
50004W        W16787   0.799  42.006  11.882
50005W        W16788   4.944  27.618  11.574
50006W        W16789  20.582  17.084   4.033
50007W        W16790  24.768  24.378   5.204
50008W        W16791  41.092  32.409   1.824
50009W        W16792   2.361  39.034  13.997
50010W        W16793   8.866   3.356   0.941
50011W        W16794  43.018  32.157   4.491
50012W        W16795  18.044  16.667   2.199
50013W        W16796   1.288  21.457  13.523
50014W        W16797  22.971  15.672  11.931
50015W        W16798  29.343  41.080   3.111
50016W        W16799   6.523  32.183   4.490
50017W        W16800  28.856  42.721   3.459
50018W        W16801  31.663  35.929   2.460
50019W        W16802  44.679  43.263   2.884
50020W        W16803  16.818  30.082   3.097
50021W        W16804  35.956  20.416   2.906
50022W        W16805  17.084  31.974   1.779
50023W        W16806  34.377   9.131  12.488
50024W        W16807  16.182  12.882  12.011
50025W        W16808  10.683   7.174   2.481
50026W        W16809  33.027  30.938  11.732
50027W        W16810  30.024  44.677  14.918
50028W        W16811  19.365   8.339   1.705
50029W        W16812  36.629  18.710   3.371
50030W        W16813  35.904  36.379   0.880
50031W        W16814  43.928  16.608   4.158
50032W        W16815   6.907  15.825  10.513
50033W        W16816  22.106  16.328  11.927
50034W        W16817  18.141   7.237   1.289
50035W        W16818  42.455  40.836  13.157
50036W        W16819  25.150   0.040  12.444
50037W        W16820  10.719  30.517  12.793
50038W        W16821  12.662  19.441  12.227
50039W        W16822  35.973  25.292   3.988
50040W        W16823  41.934  39.864  14.909
50041W        W16824  38.097  24.164  13.755
50042W        W16825   5.874  36.354   4.761
50043W        W16826  18.666  12.321  13.004
50044W        W16827  34.075   4.198   2.133
50045W        W16828  32.570   6.485   1.724
50046W        W16829  35.075   9.370   1.401
50047W        W16830  31.873  34.422   0.288
50048W        W16831  44.244  19.148   4.145
50049W        W16832  12.106  31.447  10.654
50050W        W16833  23.581  24.934  14.050
50051W        W16834   2.873  10.905  11.183
50052W        W16835   5.185  40.423  12.456
50053W        W16836  38.367  42.270  13.623
50054W        W16837   0.831   5.344  12.426
50055W        W16838  18.704  16.344  12.431
50056W        W16839   3.501  41.267   2.864
50057W        W16840  16.274  43.429  10.666
50058W        W16841  35.578  19.444  13.955
50059W        W16842  14.397  39.891   2.085
50060W        W16843   9.226  30.983   1.886
50061W        W16844  28.789  41.734   1.880
50062W        W16845  40.289  37.890  14.793
50063W        W16846  22.201   0.424   0.883
50064W        W16847  40.557  38.519  11.105
50065W        W16848  41.564  26.415  14.918
50066W        W16849  25.384  38.005   0.509
50067W        W16850  18.680  14.899   4.163
50068W        W16851  39.075  17.216   4.010
50069W        W16852  26.978  22.717  10.328
50070W        W16853  15.692  38.163   2.808
50071W        W16854  42.719   8.087  12.570
50072W        W16855  42.449  19.684  14.982
50073W        W16856   7.498  40.993  13.147
50074W        W16857  14.610  43.816   4.909
50075W        W16858  30.206  25.353  14.025
50076W        W16859  16.094   7.817   4.859
50077W        W16860  15.547  34.779  12.094
50078W        W16861  30.652  44.967   0.508
50079W        W16862  37.332  41.006  11.372
50080W        W16863  40.993  27.663   4.564
50081W        W16864  31.761  35.334   5.053
50082W        W16865  10.932   0.856   4.623
50083W        W16866   3.742  30.000  13.997
50084W        W16867   1.148   9.651  12.018
50085W        W16868   5.060  34.331  13.198
50086W        W16869  32.153  41.452   4.541
50087W        W16870   9.135  41.302   1.353
50088W        W16871   5.945  10.695  13.055
50089W        W16872  32.019  23.120  10.761
50090W        W16873  17.627  24.729  10.335
50091W        W16874  27.683  17.760  10.871
50092W        W16875  16.348   5.634   2.730
50093W        W16876  23.643  21.799   3.669
50094W        W16877  41.354  19.191   3.806
50095W        W16878  33.056   3.949   3.985
50096W        W16879  12.365   7.910   0.206
50097W        W16880   7.179   2.417  14.438
50098W        W16881   0.763   0.034   0.328
50099W        W16882  36.567  26.271   0.597
50100W        W16883  43.969  40.365   3.074
50101W        W16884  34.594   2.722   0.753
50102W        W16885  43.519   5.789   4.948
50103W        W16886   0.372  37.580   2.674
50104W        W16887  20.844  44.994  13.356
50105W        W16888   9.718  17.928   2.117
50106W        W16889  36.481  40.448   3.221
50107W        W16890   2.219  12.314   1.648
50108W        W16891  36.404  19.544   9.774
50109W        W16892  22.687  30.014   5.022
50110W        W16893  40.788  15.030   0.320
50111W        W16894  38.568  40.884  13.750
50112W        W16895  15.165   0.420  13.439
50113W        W16896  37.237  30.217   1.398
50114W        W16897  15.185  11.806   0.199
50115W        W16898   3.438  12.429  14.001
50116W        W16899   5.278  16.515   4.295
50117W        W16900  21.985  11.234   1.247
50118W        W16901  27.108  29.987   1.907
50119W        W16902  25.172  25.133   0.819
50120W        W16903  29.708  17.776   0.780
50121W        W16904   7.306   9.733  10.719
50122W        W16905  44.313  34.142   4.346
50123W        W16906  21.595   4.950   3.206
50124W        W16907  42.779   5.786   0.377
50125W        W16908  24.230   5.728  13.018
50126W        W16909   0.679  40.326   0.353
50127W        W16910  34.729  28.846   2.752
50128W        W16911  29.420  19.218  13.580
50129W        W16912  44.535  11.232   3.158
50130W        W16913  36.530  21.662   2.773
50131W        W16914  15.154  20.353   2.618
50132W        W16915  15.189  21.495   0.878
50133W        W16916  42.990  19.884  10.677
50134W        W16917  40.618  16.232  12.949
50135W        W16918   1.758  31.120   0.410
50136W        W16919   1.628  43.500  12.589
50137W        W16920  38.862   7.648  10.901
50138W        W16921  30.724  13.105   1.744
50139W        W16922  15.840   5.871  13.580
50140W        W16923  32.159   1.842   1.575
50141W        W16924  16.842  17.223   2.147
50142W        W16925  27.413   3.844  13.049
50143W        W16926  18.173  38.508   2.333
50144W        W16927  18.774  18.728   5.065
50145W        W16928  43.860  24.966  13.521
50146W        W16929  11.838  42.949  11.304
50147W        W16930  21.181  11.028   2.667
50148W        W16931  43.717   9.872  11.867
50149W        W16932  36.600  15.270  11.278
50150W        W16933  40.048  25.162  12.509
50151W        W16934  22.009   3.532  12.801
50152W        W16935  21.061  40.903   2.721
50153W        W16936  12.703  28.892   3.360
50154W        W16937  18.204  35.036  12.339
50155W        W16938  30.608  31.969  12.929
50156W        W16939  20.135  39.825  11.997
50157W        W16940  25.463   7.824   0.763
50158W        W16941  34.426  29.590   4.438
50159W        W16942  19.043  14.561  12.629
50160W        W16943  11.646  38.748   0.599
50161W        W16944   1.508  20.210   0.754
50162W        W16945  16.566  16.534  14.404
50163W        W16946  23.129  36.442   0.908
50164W        W16947  41.484  44.800  10.912
50165W        W16948  38.421   1.250  13.156
50166W        W16949   1.290   6.633  14.831
50167W        W16950  36.788  17.770  10.982
50168W        W16951  12.071   1.833   1.803
50169W        W16952   9.277  41.457  10.389
50170W        W16953  25.380   2.314   5.726
50171W        W16954  11.707  19.572   4.230
50172W        W16955  21.173  19.812   0.693
50173W        W16956  29.854  11.041  12.568
50174W        W16957  10.543  33.497   4.257
50175W        W16958   3.412  26.552   0.185
50176W        W16959   1.061  43.812   3.136
50177W        W16960  42.853   2.542  11.530
50178W        W16961  39.453   8.227   2.548
50179W        W16962  31.462  38.385  14.936
50180W        W16963  30.653  19.591  14.914
50181W        W16964  23.110  29.230   2.355
50182W        W16965   5.845  30.440   0.423
50183W        W16966  42.008  21.210  11.568
50184W        W16967  44.670   2.777   0.199
50185W        W16968  39.237  42.422  11.090
50186W        W16969  37.626   3.790  13.291
50187W        W16970  41.426  27.142   3.516
50188W        W16971  18.161  38.879   2.923
50189W        W16972  25.468  12.118  10.330
50190W        W16973  22.053   3.933   1.276
50191W        W16974   8.643  25.506  14.740
50192W        W16975  10.033   3.738   1.361
50193W        W16976   4.028  39.974   4.060
50194W        W16977  12.658  16.016  12.495
50195W        W16978  15.561  18.741  13.043
50196W        W16979  26.498  10.464   0.435
50197W        W16980  11.635  36.586   4.685
50198W        W16981   5.951  37.551  12.255
50199W        W16982  26.718  22.123  11.240
50200W        W16983  14.442  24.526  13.444
50201W        W16984  40.783  22.544   1.860
50202W        W16985  37.963  16.762  10.748
50203W        W16986  16.506  16.836   4.424
50204W        W16987   4.802  27.216  10.800
50205W        W16988   3.922  44.806  14.441
50206W        W16989  41.243  31.618   2.931
50207W        W16990  29.588   2.901  14.742
50208W        W16991  10.296  30.785   1.607
50209W        W16992  12.627   4.825   1.773
50210W        W16993  34.834  36.827  13.140
50211W        W16994   7.254  23.930   1.985
50212W        W16995  16.180   5.361  10.325
50213W        W16996  29.223  28.171   2.381
50214W        W16997  11.059   3.908   4.087
50215W        W16998  30.436  13.648  11.660
50216W        W16999   9.777  32.975   4.525
50217W        W17000  40.192  10.342   2.809
50218W        W17001  43.902  20.946   9.677
50219W        W17002  10.617  11.198  11.116
50220W        W17003  40.289  41.471   2.433
50221W        W17004  10.212  32.682   1.294
50222W        W17005  23.247  35.002   0.881
50223W        W17006  38.636  26.154   4.635
50224W        W17007  31.670  33.100   3.252
50225W        W17008  30.422   1.313   0.915
50226W        W17009  14.038  23.496   3.217
50227W        W17010   7.205  40.494   2.783
50228W        W17011  26.985  35.353   0.859
50229W        W17012  43.319  17.874   4.107
50230W        W17013  44.705   4.785   0.191
50231W        W17014  23.232  20.248  11.130
50232W        W17015  34.100  34.387  10.876
50233W        W17016  13.212   7.591  14.188
50234W        W17017   8.737  39.382   1.646
50235W        W17018   5.177   4.949  11.295
50236W        W17019  39.471   5.382  10.783
50237W        W17020  39.129   9.962   4.336
50238W        W17021  17.837   0.261  13.993
50239W        W17022  35.080  33.069  14.404
50240W        W17023  20.316  36.363   1.845
50241W        W17024  15.107   5.675   0.832
50242W        W17025  12.381  44.221   1.074
50243W        W17026  39.795  36.694   2.843
50244W        W17027  35.021   1.686  14.387
50245W        W17028  18.003  30.587  12.585
50246W        W17029  37.363   8.943  14.812
50247W        W17030  39.346  32.531   3.306
50248W        W17031  28.463  18.382   1.477
50249W        W17032   5.887  29.473  10.762
50250W        W17033   2.445   4.717   2.821
50251W        W17034  38.294  37.317  13.817
50252W        W17035  26.319  23.368   4.315
50253W        W17036  25.192  40.519   0.350
50254W        W17037  20.781  15.357   1.889
50255W        W17038  19.680   8.943   4.171
50256W        W17039  13.645  42.922  14.571
50257W        W17040  17.881  40.107   2.470
50258W        W17041   0.748  37.423  11.483
50259W        W17042  42.134  21.221   0.088
50260W        W17043  38.348  25.311  11.037
50261W        W17044  40.602  12.418  12.010
50262W        W17045  44.559   1.435   0.241
50263W        W17046   3.143  37.759  11.050
50264W        W17047  15.676  44.684   2.606
50265W        W17048  10.849  29.204  12.909
50266W        W17049  43.530  11.393   1.703
50267W        W17050  11.486  12.110   1.792
50268W        W17051   8.742  36.147   2.366
50269W        W17052  40.794  13.184  11.892
50270W        W17053  24.079  14.921   4.223
50271W        W17054  24.598  19.562   3.174
50272W        W17055  32.223   8.563   3.222
50273W        W17056  38.602   2.821   4.506
50274W        W17057  44.437   2.068  13.455
50275W        W17058  26.680   0.261   0.040
50276W        W17059  16.674  18.266  13.009
50277W        W17060  40.387  23.683   4.537
50278W        W17061  44.027   5.308   0.234
50279W        W17062  17.257  22.225  14.897
50280W        W17063  37.642  15.722   3.570
50281W        W17064  38.916  13.355  14.386
50282W        W17065   1.492   5.809   4.179
50283W        W17066   4.209  29.326   0.937
50284W        W17067  19.289  43.638   4.602
50285W        W17068   9.718  36.803   1.452
50286W        W17069  31.868   6.450   0.991
50287W        W17070   6.764  43.793  12.128
50288W        W17071   3.748  19.167  13.819
50289W        W17072  23.753  32.913  14.493
50290W        W17073   2.969  34.618   4.124
50291W        W17074   1.400  24.595   2.720
50292W        W17075  17.258  28.580   4.043
50293W        W17076  22.321  38.553  13.964
50294W        W17077  30.764  27.737   1.683
50295W        W17078   8.888  36.108  11.419
50296W        W17079   6.709  44.865   4.411
50297W        W17080  38.775  16.384  14.945
50298W        W17081  18.990   1.498  11.572
50299W        W17082  28.934  38.225  11.470
50300W        W17083  10.701  19.555  11.471
50301W        W17084  37.950  22.483   2.318
50302W        W17085   6.941  16.527   4.993
50303W        W17086  17.188  25.237  12.510
50304W        W17087   7.392  42.091   0.534
50305W        W17088  30.430  27.162   1.874
50306W        W17089  41.488  14.574  14.846
50307W        W17090  33.557  14.288   2.741
50308W        W17091  31.562  32.749   1.645
50309W        W17092  22.902  18.090  11.168
50310W        W17093   3.425  27.681  13.557
50311W        W17094   3.740  10.496  10.215
50312W        W17095  19.013  38.063  11.021
50313W        W17096  27.852   3.690   4.056
50314W        W17097  16.731  10.450   0.881
50315W        W17098  18.959  11.040  11.152
50316W        W17099  14.851  24.227   4.088
50317W        W17100  14.385  12.429   3.702
50318W        W17101   2.398  17.291   2.950
50319W        W17102  27.582  27.741  12.202
50320W        W17103  29.445  22.778  11.699
50321W        W17104  19.527   7.039  11.250
50322W        W17105  32.629  25.510  12.981
50323W        W17106  34.604  20.390   2.653
50324W        W17107   4.297  30.942  13.201
50325W        W17108   7.382  12.449   3.791
50326W        W17109  10.590   8.221  14.058
50327W        W17110  36.233  36.385   4.325
50328W        W17111  11.893  11.705   3.619
50329W        W17112  38.382   7.253  13.897
50330W        W17113  34.710  40.337   3.068
50331W        W17114  22.706  32.215   4.423
50332W        W17115   8.414  16.027  12.254
50333W        W17116  37.440  39.010  12.582
50334W        W17117  23.340  10.249   4.171
50335W        W17118  42.841   7.421   2.620
50336W        W17119   1.748  34.872   2.220
50337W        W17120  11.610  12.636   3.862
50338W        W17121  28.740  12.411  12.487
50339W        W17122  19.389  21.013   2.852
50340W        W17123  38.833  43.771   4.444
50341W        W17124   8.475  44.959   3.702
50342W        W17125   1.355   2.303  12.579
50343W        W17126  25.943   7.369  10.931
50344W        W17127   0.683   9.249   2.652
50345W        W17128  17.407  36.675   5.207
50346W        W17129  16.878  35.516   4.874
50347W        W17130  35.500  44.972  14.464
50348W        W17131   7.376   0.508   2.357
50349W        W17132  40.564  26.980  13.543
50350W        W17133  11.186  29.914   0.228
50351W        W17134  30.516   2.881   2.250
50352W        W17135  38.499  13.151   1.357
50353W        W17136  10.163  21.323  14.345
50354W        W17137   1.572   0.525   0.680
50355W        W17138   4.848  35.996   0.848
50356W        W17139  13.077  20.236  12.129
50357W        W17140  20.548  28.099   3.381
50358W        W17141   1.378  20.774   4.234
50359W        W17142   3.452  25.606   0.675
50360W        W17143  15.657  30.592   1.285
50361W        W17144  44.700  44.534   0.339
50362W        W17145  14.067  38.416  13.456
50363W        W17146  10.178  24.103  13.889
50364W        W17147  40.294  32.475  13.534
50365W        W17148  24.595  40.692  14.440
50366W        W17149  41.078  44.260  13.604
50367W        W17150  18.759   0.958  12.635
50368W        W17151  35.541  17.060   4.703
50369W        W17152  34.594  11.231   1.177
50370W        W17153  15.989   7.674  14.366
50371W        W17154   7.176  36.767   3.119
50372W        W17155   2.309  27.942  13.962
50373W        W17156   7.457  36.000  11.443
50374W        W17157  36.078  21.466  11.563
50375W        W17158  28.905   4.318   3.655
50376W        W17159  31.643  21.221   2.121
50377W        W17160   9.544  10.558   3.229
50378W        W17161  34.851  29.342   2.671
50379W        W17162  25.572  25.035  13.905
50380W        W17163   3.735   8.140   4.358
50381W        W17164  37.803   5.013   0.666
50382W        W17165  39.020   9.391  13.004
50383W        W17166  12.673   4.176   2.876
50384W        W17167  26.745  39.540   0.335
50385W        W17168  28.136  21.356   4.602
50386W        W17169  38.329  22.038  14.466
50387W        W17170  19.551  34.495   3.292
50388W        W17171   7.773  18.307  12.871
50389W        W17172  25.931   7.165   1.366
50390W        W17173  38.267  17.255  10.673
50391W        W17174  27.008   5.301  11.056
50392W        W17175   1.326  22.255   0.730
50393W        W17176  19.416  42.282  14.747
50394W        W17177  30.398  20.685  12.097
50395W        W17178   8.229   4.758  11.172
50396W        W17179  17.551  12.258   0.178
50397W        W17180  39.640  32.027   1.958
50398W        W17181  42.719  34.191  11.635
50399W        W17182   8.795   9.592   3.651
50400W        W17183  43.367   0.619  13.762
50401W        W17184   9.328  13.289  13.532
50402W        W17185  29.322  32.841   3.730
50403W        W17186  22.057  38.420   3.044
50404W        W17187   2.865  26.590   3.260
50405W        W17188  34.845  35.446  12.629
50406W        W17189  15.862  40.264   1.065
50407W        W17190  43.855  23.289   3.683
50408W        W17191  14.849  37.985   0.233
50409W        W17192  25.290  13.967  13.022
50410W        W17193  37.946  44.983  11.080
50411W        W17194   6.213  19.641  14.327
50412W        W17195   4.936   6.802  11.507
50413W        W17196  39.013  35.061   2.377
50414W        W17197  41.331  35.495  12.069
50415W        W17198  37.294  32.004   1.226
50416W        W17199  10.763  41.500   1.439
50417W        W17200  35.531  33.177  10.799
50418W        W17201  16.638   7.898   1.817
50419W        W17202   4.756   2.954  11.169
50420W        W17203  41.995  26.652   1.977
50421W        W17204  26.151  39.022  11.628
50422W        W17205  18.096  23.250  14.903
50423W        W17206  24.233   6.861   4.203
50424W        W17207  16.746  11.362  11.158
50425W        W17208   2.915  37.382   2.641
50426W        W17209  31.077  12.838  14.474
50427W        W17210   7.760  23.996   0.672
50428W        W17211  30.632  38.071   0.407
50429W        W17212  27.921  18.898  14.429
50430W        W17213  38.906  23.192  11.376
50431W        W17214  36.515  20.553  13.913
50432W        W17215  25.695   1.664   3.055
50433W        W17216  44.998  15.775   4.527
50434W        W17217  33.068  33.086  12.566
50435W        W17218   7.106  30.940  13.318
50436W        W17219  40.564  35.140   0.797
50437W        W17220  19.787  43.177  11.805
50438W        W17221  31.697  14.975   2.245
50439W        W17222  35.646  36.254  13.719
50440W        W17223  18.055  32.860   1.333
50441W        W17224  36.581  16.263  11.474
50442W        W17225  36.665  24.521  12.404
50443W        W17226  21.562  11.331  11.598
50444W        W17227  22.871  26.072  12.133
50445W        W17228   6.153  41.538   1.800
50446W        W17229  26.461  10.720   1.277
50447W        W17230   3.632  30.485   4.611
50448W        W17231  14.083  42.715  14.277
50449W        W17232  33.765  19.219  13.066
50450W        W17233   1.599  20.163   4.493
50451W        W17234  38.765  28.470   3.200
50452W        W17235   0.396  13.162  12.402
50453W        W17236   5.805  41.339   3.908
50454W        W17237  13.750  30.675   2.096
50455W        W17238   7.769  37.882  11.077
50456W        W17239  42.379  13.317   3.885
50457W        W17240  24.659  38.470   1.011
50458W        W17241   0.261   7.044  11.113
50459W        W17242  38.807   0.772   2.012
50460W        W17243  41.496  30.711   1.309
50461W        W17244  39.326  39.607  13.818
50462W        W17245  14.053  40.477   3.720
50463W        W17246   3.805  41.291  10.772
50464W        W17247  35.369  18.014  13.441
50465W        W17248   4.671  13.863  13.018
50466W        W17249  32.619  16.629   4.493
50467W        W17250  43.924  10.625  13.179
50468W        W17251  44.721  19.786  12.617
50469W        W17252  22.730   6.728  13.014
50470W        W17253  18.591   9.751   3.861
50471W        W17254  31.152  17.666  14.095
50472W        W17255   0.256  37.037   3.217
50473W        W17256  40.755  23.282  11.581
50474W        W17257   5.381  29.578   2.438
50475W        W17258  21.097  15.047  14.218
50476W        W17259  12.479  36.857  12.904
50477W        W17260  27.020   5.869  12.192
50478W        W17261  38.436  34.268  11.462
50479W        W17262   9.835  23.543   0.815
50480W        W17263  22.139  27.239  14.033
50481W        W17264  11.331   4.268   0.850
50482W        W17265  41.557  43.083   4.132
50483W        W17266  17.989  23.019  10.630
50484W        W17267   6.859  42.675   1.568
50485W        W17268  12.099  22.998   4.537
50486W        W17269   8.146  24.950  13.077
50487W        W17270   1.395   3.373   4.184
50488W        W17271  32.096  27.627  12.999
50489W        W17272  24.429   3.345  14.918
50490W        W17273   5.866  23.060   1.780
50491W        W17274  28.909   4.783   3.375
50492W        W17275  20.936  43.174  12.929
50493W        W17276   3.659  18.148   1.373
50494W        W17277  22.500  21.341   4.642
50495W        W17278  11.127   6.424   1.477
50496W        W17279   1.188   7.805  14.514
50497W        W17280  27.853   3.376   1.689
50498W        W17281  22.427  43.400   2.702
50499W        W17282  28.039  34.150  13.851
50500W        W17283  17.369   7.075  11.167
50501W        W17284  24.281  29.537  13.244
50502W        W17285  13.640  42.249   0.450
50503W        W17286  19.738   4.270   1.306
50504W        W17287  19.571   7.971  14.961
50505W        W17288  44.886   9.760   2.262
50506W        W17289   6.134  31.727   3.847
50507W        W17290  38.462   1.345   2.917
50508W        W17291  37.953  32.543   1.377
50509W        W17292  41.911  10.563   1.358
50510W        W17293  44.151  24.562   3.871
50511W        W17294  33.441  30.928   1.303
50512W        W17295   7.947  23.170   4.137
50513W        W17296  36.224   9.707  14.355
50514W        W17297  33.633  19.034   3.799
50515W        W17298  19.100  41.505   1.871
50516W        W17299  14.104  18.683   2.690
50517W        W17300  14.331  11.719   0.531
50518W        W17301  33.403  42.703   3.215
50519W        W17302   5.245   6.075   4.081
50520W        W17303  24.802  33.482   4.016
50521W        W17304   6.356  20.623   1.285
50522W        W17305  40.447  21.973   1.422
50523W        W17306  14.079   4.744   1.385
50524W        W17307  23.177  23.039  10.597
50525W        W17308  41.054  33.868   0.860
50526W        W17309   2.970  12.288   2.292
50527W        W17310   2.412  20.393  12.009
50528W        W17311  22.797  30.488  12.057
50529W        W17312  35.106  11.830  11.031
50530W        W17313   5.236   6.095  14.678
50531W        W17314  31.464  36.031   4.462
50532W        W17315   7.680   6.195  10.448
50533W        W17316  42.162   5.449   9.967
50534W        W17317  31.033  37.903   4.652
50535W        W17318  35.796   4.434  12.836
50536W        W17319  32.524   7.156  12.541
50537W        W17320  12.825  16.196  14.532
50538W        W17321  44.436  43.430  12.164
50539W        W17322   9.688  28.428  14.750
50540W        W17323  26.425  12.550   2.303
50541W        W17324  34.551   9.794   0.796
50542W        W17325  36.072  36.539  11.129
50543W        W17326  29.905   5.101  12.812
50544W        W17327  34.184  25.513   3.576
50545W        W17328  14.800  27.201  14.456
50546W        W17329  11.378  27.251  12.724
50547W        W17330   5.131   9.805   2.209
50548W        W17331  18.487  31.314  14.414
50549W        W17332   2.001  37.042   1.003
50550W        W17333  24.199  16.621  14.066
50551W        W17334  11.858  27.892   0.216
50552W        W17335  15.508   7.892  12.956
50553W        W17336  39.814   5.223   2.906
50554W        W17337  33.899  37.124  13.410
50555W        W17338  23.049  42.072   1.328
50556W        W17339  20.425  27.580  14.556
50557W        W17340  20.760  30.177  14.952
50558W        W17341   1.793   1.999   2.180
50559W        W17342  10.111  12.411   0.686
50560W        W17343  19.970  32.954  15.000
50561W        W17344  39.883   4.019   0.259
50562W        W17345   5.172  30.921   3.626
50563W        W17346  19.580  18.057   0.673
50564W        W17347  40.537  19.514   0.875
50565W        W17348  12.682  36.251   4.686
50566W        W17349  35.061  31.989   0.387
50567W        W17350   5.304  27.932  11.375
50568W        W17351   2.842  28.566   2.166
50569W        W17352  32.090  13.263  12.279
50570W        W17353  35.885  37.518  11.350
50571W        W17354  19.968  39.774   4.150
50572W        W17355  41.243  13.169  13.343
50573W        W17356  11.213  38.636  12.465
50574W        W17357  43.340  31.448   3.623
50575W        W17358  11.910  17.628  11.611
50576W        W17359   2.814   8.559   4.167
50577W        W17360  42.766  13.044  14.983
50578W        W17361  27.620  24.541   1.653
50579W        W17362  37.739   2.739   1.371
50580W        W17363  12.572  33.366   0.842
50581W        W17364  38.806  25.438  11.263
50582W        W17365  20.104  12.874   0.918
50583W        W17366  28.355  24.621   2.663
50584W        W17367  20.030   7.820   3.792
50585W        W17368  23.947   0.298  10.951
50586W        W17369  28.358  39.799   0.736
50587W        W17370   6.170   7.799   0.701
50588W        W17371  40.913  35.547   0.787
50589W        W17372  19.737  36.034  10.779
50590W        W17373  34.907   7.370   0.286
50591W        W17374   2.362  33.490   1.220
50592W        W17375  37.004  19.108   0.839
50593W        W17376   2.862  32.403   1.770
50594W        W17377   7.735   1.236   2.220
50595W        W17378  22.117  21.485   1.704
50596W        W17379  29.391   3.279   0.062
50597W        W17380  16.544  23.078   3.279
50598W        W17381  40.095  15.576  11.128
50599W        W17382  29.411  19.224  10.981
50600W        W17383  24.683  37.859  10.983
50601W        W17384  41.285  33.501   1.594
50602W        W17385   3.647  36.520  11.572
50603W        W17386   5.037   0.257  11.427
50604W        W17387   0.073  17.660  11.986
50605W        W17388  24.326   0.808  11.584
50606W        W17389   5.115  14.192   3.305
50607W        W17390  32.347  21.143   3.547
50608W        W17391   1.949  18.804  10.459
50609W        W17392  28.665  42.959   0.375
50610W        W17393  38.007  30.638   0.205
50611W        W17394   6.758  29.026  12.016
50612W        W17395  23.185   4.826   1.612
50613W        W17396   0.195  17.683   1.718
50614W        W17397   0.796  40.585  12.389
50615W        W17398  32.092  36.792   0.906
50616W        W17399  12.090   8.159   1.840
50617W        W17400  28.566  35.299  12.633
50618W        W17401   2.893  13.686  13.479
50619W        W17402  18.816  30.457  14.856
50620W        W17403  11.706  34.815  11.628
50621W        W17404  12.147   9.671   4.823
50622W        W17405  17.799  42.233  13.828
50623W        W17406   7.336   8.618   4.652
50624W        W17407   7.240  30.622   0.859
50625W        W17408  20.937  13.784  13.022
50626W        W17409  32.408  18.355  13.608
50627W        W17410   7.806  39.082   3.339
50628W        W17411   9.269  34.597   4.058
50629W        W17412  37.797  19.681  11.477
50630W        W17413   3.754  20.151   0.201
50631W        W17414  16.149  28.569  14.860
50632W        W17415   7.861   6.949   1.396
50633W        W17416  30.822  23.215  11.620
50634W        W17417  43.945  16.995   9.704
50635W        W17418   1.486  36.494  14.390
50636W        W17419   5.128   1.673  13.395
50637W        W17420  27.921  12.168   2.803
50638W        W17421  12.107  44.912  14.778
50639W        W17422   3.274   8.177  12.062
50640W        W17423  36.157  42.989  13.038
50641W        W17424  24.011  13.737  12.564
50642W        W17425  40.253  30.694  11.510
50643W        W17426  41.787  27.055   0.698
50644W        W17427   0.212  36.126  13.025
50645W        W17428  22.606   7.946   3.319
50646W        W17429  43.423  36.477   2.348
50647W        W17430  30.488  10.148  14.024
50648W        W17431  12.312  42.558   2.101
50649W        W17432  28.418   9.615  14.425
50650W        W17433  41.482   0.213   3.101
50651W        W17434  30.054  15.451  11.152
50652W        W17435  18.253  35.631  14.939
50653W        W17436   5.247  14.767   4.736
50654W        W17437  26.500  32.473  11.632
50655W        W17438  10.291  18.150   4.533
50656W        W17439  40.808   5.861   1.495
50657W        W17440  24.701   2.349   1.818
50658W        W17441  12.308  15.284   1.223
50659W        W17442  30.937  31.976   0.877
50660W        W17443  23.298  29.041  12.387
50661W        W17444  12.481  20.672   1.118
50662W        W17445  33.052  39.332   4.679
50663W        W17446  21.774  35.613  11.635
50664W        W17447   5.727  12.800   1.265
50665W        W17448   9.765  44.517   0.214
50666W        W17449  43.494  23.612   3.439
50667W        W17450  13.235  19.991   4.138
50668W        W17451  32.643  23.308   4.097
50669W        W17452  12.191  16.370   0.778
50670W        W17453  31.393  22.256   4.663
50671W        W17454  24.603  30.896  10.397
50672W        W17455  42.275  42.810   3.733
50673W        W17456   2.557  39.162   0.770
50674W        W17457  32.313  17.216   3.115
50675W        W17458  19.457  28.809  12.199
50676W        W17459  31.879  27.427   3.091
50677W        W17460   9.831  15.160   0.920
50678W        W17461  22.860  32.053   2.277
50679W        W17462  41.149  25.523  12.994
50680W        W17463  27.593  17.566  13.392
50681W        W17464  25.056  29.609   3.744
50682W        W17465  18.714  42.380   0.980
50683W        W17466  16.850   1.731   4.194
50684W        W17467  39.875   2.881   2.004
50685W        W17468  25.151   6.433   0.745
50686W        W17469  39.378  16.079   1.634
50687W        W17470   6.251  38.458   4.482
50688W        W17471  32.963  40.948  11.087
50689W        W17472  18.679  26.938   2.859
50690W        W17473  24.759  16.947   0.900
50691W        W17474  35.491  27.878   1.599
50692W        W17475  24.577  28.036  14.294
50693W        W17476  43.542  25.120  12.876
50694W        W17477  42.597  17.531   1.066
50695W        W17478   0.833   1.081  13.914
50696W        W17479  26.694  42.893   1.311
50697W        W17480  33.959  23.008  11.104
50698W        W17481  25.675  38.460   0.521
50699W        W17482   7.017   5.955   1.785
50700W        W17483  17.996   8.722   0.527
50701W        W17484  39.532  26.226   3.251
50702W        W17485  42.907   3.048  11.604
50703W        W17486  17.559  30.942  13.003
50704W        W17487  39.340  20.172   4.168
50705W        W17488  41.925   0.255  14.060
50706W        W17489  44.916  28.669  11.146
50707W        W17490   5.613  36.644  13.970
50708W        W17491  33.927  24.933  13.348
50709W        W17492  20.175  14.113  14.805
50710W        W17493  43.867  38.865  13.091
50711W        W17494   3.704  40.118   0.652
50712W        W17495   3.986  41.790   1.418
50713W        W17496  44.447  39.834  11.478
50714W        W17497  10.459  39.197   1.333
50715W        W17498  36.743  13.879  11.154
50716W        W17499   4.122  27.178   3.148
50717W        W17500  24.649  15.659   4.227
50718W        W17501  21.582  12.973  14.500
50719W        W17502  17.521  18.666  14.315
50720W        W17503  22.980  40.904  11.517
50721W        W17504  24.810  16.938   1.773
50722W        W17505  21.636   8.946  14.545
50723W        W17506  22.419   8.736  13.031
50724W        W17507  42.505  15.345   2.771
50725W        W17508  20.781   0.261   2.196
50726W        W17509  38.265  17.751  11.905
50727W        W17510  12.631   4.249   3.705
50728W        W17511   7.837  43.254  12.064
50729W        W17512  30.645  10.776   2.853
50730W        W17513  31.941  25.624  14.563
50731W        W17514  44.370   5.346  13.247
50732W        W17515  38.568  12.853   1.772
50733W        W17516  30.099  18.853  10.462
50734W        W17517  15.332   7.094   0.610
50735W        W17518  41.871  12.764   3.537
50736W        W17519  33.111  30.008  13.565
50737W        W17520   0.840  25.589   0.479
50738W        W17521  10.248  43.227   3.165
50739W        W17522  11.205  42.838  12.923
50740W        W17523  35.896  22.639  12.159
50741W        W17524   3.614  30.143  14.927
50742W        W17525  41.365  15.084  12.994
50743W        W17526  22.770  28.931  10.944
50744W        W17527   1.679  13.655   1.231
50745W        W17528  19.030   8.363  12.409
50746W        W17529  31.566  32.973   4.875
50747W        W17530  44.772  26.249  10.572
50748W        W17531  30.974   0.529   2.062
50749W        W17532  20.995   4.611   1.181
50750W        W17533  43.569   4.776  11.067
50751W        W17534  32.888  26.647  12.369
50752W        W17535  30.461  21.984   4.659
50753W        W17536   6.196   3.837  13.912
50754W        W17537   4.018  21.617   3.753
50755W        W17538   3.309  41.596  12.941
50756W        W17539  31.865  33.387   4.927
50757W        W17540  23.978  33.276   3.683
50758W        W17541   7.060  11.252   2.414
50759W        W17542   5.873  17.763   4.575
50760W        W17543  43.543   6.811   4.013
50761W        W17544  15.265  11.577  11.947
50762W        W17545  16.632  29.169  13.907
50763W        W17546   1.732  32.164   4.588
50764W        W17547  11.162   3.864   0.621
50765W        W17548  27.689  10.313   2.691
50766W        W17549  28.563  20.240  12.767
50767W        W17550  34.031  38.581  12.059
50768W        W17551  18.046  12.097  11.176
50769W        W17552  16.320  11.818   4.173
50770W        W17553  11.511  11.836   0.725
50771W        W17554   9.565  43.293   2.637
50772W        W17555  13.126  17.770  14.816
50773W        W17556  37.092   6.148   1.862
50774W        W17557  41.302  12.165   0.938
50775W        W17558   0.727  31.076  13.560
50776W        W17559  28.382  32.410  12.505
50777W        W17560  22.975  43.856  14.930
50778W        W17561  21.337   0.421  12.854
50779W        W17562  12.644  12.604   1.091
50780W        W17563  13.750  17.275  13.480
50781W        W17564   2.279  21.234  11.620
50782W        W17565  39.708  44.839   4.682
50783W        W17566  29.825  18.968   1.867
50784W        W17567  11.595  15.041   1.936
50785W        W17568   4.810  39.942   2.025
50786W        W17569   1.216  43.595  14.028
50787W        W17570   5.360   9.152  12.618
50788W        W17571   9.307   2.977  11.583
50789W        W17572   3.281  14.236   1.132
50790W        W17573  34.496  17.307  11.976
50791W        W17574  23.521  35.093  10.347
50792W        W17575   2.729  15.654  11.182
50793W        W17576   1.673   2.022   0.309
50794W        W17577  26.495   3.389   3.639
50795W        W17578   2.596  16.158   3.246
50796W        W17579  19.315  32.548   3.781
50797W        W17580  21.587  36.369   2.701
50798W        W17581   7.459  23.723  12.497
50799W        W17582  20.517  37.540   2.253
50800W        W17583   4.651  40.440  12.429
50801W        W17584  15.182  39.059   3.654
50802W        W17585   2.869  13.982   1.370
50803W        W17586  40.812  27.246  14.751
50804W        W17587  42.708  36.001  12.470
50805W        W17588   4.484   9.309  10.739
50806W        W17589  38.386  29.918  12.137
50807W        W17590  36.421  26.299  11.789
50808W        W17591  37.893  36.776  10.915
50809W        W17592  22.766  42.897   1.900
50810W        W17593  22.163  27.573  13.104
50811W        W17594  33.613  43.420  11.626
50812W        W17595  37.571   9.135  14.341
50813W        W17596  16.022  35.938   0.426
50814W        W17597  34.290  12.679  14.813
50815W        W17598   4.330  17.710   2.571
50816W        W17599  44.749  17.728  10.443
50817W        W17600   9.319  23.795  13.866
50818W        W17601  32.848  33.221   2.406
50819W        W17602  22.784  43.609  11.876
50820W        W17603   9.832  12.040   3.216
50821W        W17604  24.752  17.498  13.987
50822W        W17605   2.040  12.854   0.323
50823W        W17606   0.656  20.063   4.718
50824W        W17607  38.238  25.107   4.456
50825W        W17608  13.379  18.695   1.842
50826W        W17609  25.478  14.584   3.239
50827W        W17610  26.043  25.462   1.914
50828W        W17611  38.391  20.094   0.249
50829W        W17612  36.046  14.853  10.684
50830W        W17613  23.434   4.674  13.861
50831W        W17614  12.212  16.290   4.558
50832W        W17615   6.797  31.357  10.687
50833W        W17616   5.474  24.948   2.025
50834W        W17617  30.096  32.931   4.861
50835W        W17618  35.073  19.300  13.903
50836W        W17619  33.362  19.527  11.520
50837W        W17620  20.634  12.296   0.864
50838W        W17621  34.108  41.308   2.230
50839W        W17622  20.890  18.572   1.825
50840W        W17623  34.480  18.691  10.713
50841W        W17624  25.992  14.748  10.636
50842W        W17625  30.504   0.573   4.462
50843W        W17626  33.520  31.633  11.521
50844W        W17627  15.280   6.718   2.470
50845W        W17628   8.473   1.839   2.189
50846W        W17629  19.676   6.205  12.345
50847W        W17630  10.400  15.324  11.297
50848W        W17631  24.105  41.650  14.227
50849W        W17632  41.062  31.225  12.170
50850W        W17633  24.080  44.416   3.586
50851W        W17634  28.040  32.400  12.956
50852W        W17635  20.064  13.745   3.300
50853W        W17636  31.448  30.584   1.375
50854W        W17637  40.600  39.128  14.109
50855W        W17638  23.775  16.235   4.061
50856W        W17639  20.603   7.813   2.100
50857W        W17640  37.442   1.652  13.525
50858W        W17641   1.470   0.395  12.933
50859W        W17642  30.105   7.296  12.447
50860W        W17643   5.282   2.537  13.182
50861W        W17644  12.338   1.857  13.047
50862W        W17645  12.404  27.242  13.318
50863W        W17646  32.332  28.646  12.096
50864W        W17647  28.923  42.488   0.449
50865W        W17648  32.607  24.250   2.296
50866W        W17649  44.262  40.298   0.433
50867W        W17650   8.779  35.227   3.363
50868W        W17651   1.134  37.786  13.515
50869W        W17652   0.024   3.290   1.379
50870W        W17653  33.514  17.798   2.928
50871W        W17654   5.208  15.373  13.472
50872W        W17655   6.077  23.450  13.040
50873W        W17656  34.872  30.136  11.598
50874W        W17657  29.903  27.009  13.933
50875W        W17658  25.708  43.827   4.584
50876W        W17659  12.388   9.102   1.867
50877W        W17660   3.612  12.901  13.899
50878W        W17661   1.760  12.674  11.521
50879W        W17662  35.281  26.081   1.879
50880W        W17663  34.411  25.459  14.968
50881W        W17664  35.291   6.331   0.776
50882W        W17665  42.075  16.288   4.898
50883W        W17666  41.427  43.752   0.198
50884W        W17667  18.757  41.476   4.554
50885W        W17668  17.769  34.716  14.327
50886W        W17669  26.314  31.421  11.389
50887W        W17670  43.912  44.514  14.180
50888W        W17671  29.471  32.164   2.856
50889W        W17672  21.210  38.513  10.892
50890W        W17673  35.515  32.150   1.326
50891W        W17674  14.803  36.009  13.051
50892W        W17675  37.918  20.986   2.371
50893W        W17676  14.905  14.155  11.215
50894W        W17677  42.015  31.206   3.165
50895W        W17678  30.250  36.054  12.928
50896W        W17679  38.909  15.714   1.632
50897W        W17680  18.719   9.125  11.925
50898W        W17681  14.878  27.724   2.658
50899W        W17682   6.441  41.566  12.157
50900W        W17683  28.556  44.676  13.152
50901W        W17684   8.344  17.391  13.470
50902W        W17685  29.145   4.906   4.951
50903W        W17686  30.810  14.280  10.335
50904W        W17687  44.282  13.139  11.169
50905W        W17688  38.702  43.548  12.973
50906W        W17689   7.399  16.560  10.797
50907W        W17690   2.351  25.050   0.473
50908W        W17691   3.345  38.814   4.542
50909W        W17692  28.244  17.960   0.857
50910W        W17693  32.996  13.607   3.347
50911W        W17694   1.267  24.060  12.541
50912W        W17695  20.780  44.959  11.346
50913W        W17696   7.283  24.025   1.473
50914W        W17697  25.855  31.689  14.145
50915W        W17698  32.103  21.456   2.366
50916W        W17699   6.667  39.852  11.972
50917W        W17700  17.759   8.982  14.104
50918W        W17701  33.426  40.267  10.718
50919W        W17702  13.817  20.110   1.258
50920W        W17703  23.075  25.656   1.438
50921W        W17704  22.547   0.337  14.496
50922W        W17705  36.015   9.653  12.086
50923W        W17706  41.397  20.748  12.651
50924W        W17707  31.199  18.678   2.682
50925W        W17708  35.405  27.606  11.906
50926W        W17709  35.986  23.257   4.244
50927W        W17710  44.752  44.393  14.469
50928W        W17711  34.048  44.460   0.819
50929W        W17712  19.491  33.138   1.842
50930W        W17713  17.395  13.591   9.733
50931W        W17714  38.339  22.949   1.728
50932W        W17715  39.034  18.735  14.234
50933W        W17716  35.948  23.650  12.905
50934W        W17717   7.211  19.710  11.143
50935W        W17718  16.251  11.909  14.430
50936W        W17719  22.105  32.195  11.497
50937W        W17720  38.774  34.168  13.566
50938W        W17721  11.049  29.036  13.491
50939W        W17722  22.215  34.985  11.642
50940W        W17723   7.615  41.811  13.360
50941W        W17724  44.237  16.867   4.971
50942W        W17725  27.890  43.353  12.166
50943W        W17726  12.809  22.892   0.925
50944W        W17727  19.800  27.081  11.532
50945W        W17728  32.657  33.127   3.653
50946W        W17729  22.617   0.225   1.228
50947W        W17730  41.710   9.883   0.750
50948W        W17731  18.513  11.120  12.579
50949W        W17732  44.075  25.509  13.676
50950W        W17733  35.431  29.289  14.973
50951W        W17734  18.080  40.621  14.425
50952W        W17735  43.738  26.967  14.820
50953W        W17736  12.065  33.570   2.278
50954W        W17737   1.285  20.435  13.430
50955W        W17738  27.009  35.216   2.826
50956W        W17739  12.167  30.106   1.407
50957W        W17740  44.269  20.097  13.604
50958W        W17741   0.937  20.520  12.579
50959W        W17742  37.896  13.716  11.197
50960W        W17743  16.754  34.069  14.311
50961W        W17744  36.162  24.535  12.504
50962W        W17745  40.276   4.429  12.732
50963W        W17746  43.841  31.456   3.486
50964W        W17747  31.465  13.764  13.336
50965W        W17748  40.993  40.876   3.169
50966W        W17749  22.188  30.745  12.000
50967W        W17750   4.735  12.149  14.752
50968W        W17751   2.132  40.532   4.739
50969W        W17752   5.297   5.037   1.249
50970W        W17753  21.597  42.834  12.387
50971W        W17754  40.375  36.807  10.611
50972W        W17755  44.236   7.411  13.470
50973W        W17756   3.831  28.096   2.521
50974W        W17757  39.423  19.308  11.421
50975W        W17758  36.173  18.160   4.039
50976W        W17759  12.806  22.268  11.543
50977W        W17760   6.593   3.569   0.443
50978W        W17761  30.856  41.613  11.024
50979W        W17762  40.679  20.110   4.455
50980W        W17763  41.262  14.632   2.378
50981W        W17764  31.499  34.401   3.535
50982W        W17765   4.944  30.760  10.327
50983W        W17766  38.419  21.703  11.026
50984W        W17767  28.070  32.791   0.332
50985W        W17768   1.950   9.131  14.422
50986W        W17769  32.176  10.708   1.713
50987W        W17770  19.998   1.771   1.833
50988W        W17771   0.680  38.217   4.378
50989W        W17772  22.479   1.213  13.563
50990W        W17773  13.137  15.771  14.688
50991W        W17774  21.174   2.816   3.734
50992W        W17775  44.900  31.609   0.429
50993W        W17776  16.831  30.889   0.907
50994W        W17777  26.670   5.501  14.263
50995W        W17778  16.667   7.714   4.155
50996W        W17779  42.509  35.845  14.381
50997W        W17780   7.447  16.130   4.615
50998W        W17781  35.005  11.145  12.045
50999W        W17782  35.284   9.428  11.486
51000W        W17783  15.537  38.467   3.201
51001W        W17784  36.942  18.277   0.799
51002W        W17785  11.590  12.036  12.121
51003W        W17786   1.951  14.654   1.179
51004W        W17787   5.956  13.073  13.883
51005W        W17788  20.283   0.357   2.232
51006W        W17789  23.193  28.253  13.871
51007W        W17790  36.540  40.590  14.231
51008W        W17791  27.491  32.458  14.261
51009W        W17792  16.642  41.671  12.501
51010W        W17793  31.532  28.240   3.303
51011W        W17794  37.343  28.360  13.677
51012W        W17795  15.398  24.578  13.612
51013W        W17796  22.193  35.031   3.647
51014W        W17797   4.355   2.710   2.255
51015W        W17798  24.539  44.299  13.331
51016W        W17799  26.915  37.534  14.236
51017W        W17800   2.216   9.330   4.061
51018W        W17801   5.738  13.377   3.011
51019W        W17802  29.133  15.303   4.213
51020W        W17803  10.182  26.901  14.425
51021W        W17804  13.669  26.345   4.553
51022W        W17805   1.285  26.658  14.302
51023W        W17806  29.710  44.440   4.210
51024W        W17807  11.385  37.902  14.931
51025W        W17808  37.932  36.649   0.886
51026W        W17809  17.127  16.508  10.644
51027W        W17810  32.606  44.428   1.874
51028W        W17811   0.382  15.101  14.425
51029W        W17812  17.960  33.854   4.286
51030W        W17813   7.356  38.638  12.034
51031W        W17814  39.527   0.573  13.855
51032W        W17815  10.792  18.842  13.490
51033W        W17816  31.479   5.993  12.010
51034W        W17817   4.344   0.327   4.603
51035W        W17818   9.126  25.916   0.896
51036W        W17819   5.749  44.542  14.811
51037W        W17820  20.000   7.225  11.126
51038W        W17821  24.418  34.643   0.797
51039W        W17822   9.701  38.760   1.141
51040W        W17823  23.379  39.990   2.183
51041W        W17824  21.639  10.915  10.660
51042W        W17825   4.192  23.661   3.902
51043W        W17826  24.834  43.878   3.520
51044W        W17827  37.532  20.194  12.161
51045W        W17828   4.867   8.950  10.723
51046W        W17829  23.502  13.675  12.467
51047W        W17830   8.194   5.285  12.902
51048W        W17831  35.412  21.140   0.035
51049W        W17832  22.642  34.143   3.175
51050W        W17833  44.054  21.820   2.807
51051W        W17834   7.757  16.727  11.151
51052W        W17835  23.862  26.512   1.640
51053W        W17836  27.139  33.098   2.662
51054W        W17837  22.966  12.985  12.952
51055W        W17838  19.327  13.598   2.822
51056W        W17839  13.087  11.262   0.215
51057W        W17840  14.304  33.241   3.386
51058W        W17841  44.823  34.583  12.497
51059W        W17842   3.376  20.794  12.152
51060W        W17843  12.148  27.815  12.117
51061W        W17844  20.809  41.312   0.496
51062W        W17845   1.373  28.939  11.470
51063W        W17846  18.210  10.537  12.036
51064W        W17847  17.111  36.674  12.287
51065W        W17848  28.473  38.810  10.993
51066W        W17849  18.180  20.726   0.625
51067W        W17850  11.747  31.579  11.508
51068W        W17851   3.757  20.241   4.145
51069W        W17852  39.594  20.031  14.358
51070W        W17853  25.236  16.736   1.023
51071W        W17854  22.954  34.948  13.958
51072W        W17855  16.076  35.421   2.258
51073W        W17856   6.503  20.288   0.462
51074W        W17857  24.658   8.779   3.378
51075W        W17858  13.787   4.968   4.717
51076W        W17859   6.592  13.910  14.946
51077W        W17860  33.321   5.792   1.863
51078W        W17861   7.870  17.312   0.266
51079W        W17862   7.651   6.043  13.921
51080W        W17863  30.253  24.953   1.819
51081W        W17864  20.804   8.245   3.358
51082W        W17865  40.519  29.626   4.875
51083W        W17866  11.709  42.816  13.039
51084W        W17867   9.641   8.835   3.163
51085W        W17868   2.169   6.811   0.026
51086W        W17869  35.862  37.644   3.191
51087W        W17870  42.741  43.758   3.847
51088W        W17871  36.227  37.316  10.406
51089W        W17872  24.732  34.471  11.530
51090W        W17873  22.589   9.960   5.073
51091W        W17874  30.702   4.959  14.836
51092W        W17875  24.448  23.841  10.273
51093W        W17876  41.468  27.893   0.735
51094W        W17877  22.142  42.937   1.921
51095W        W17878  10.065  22.362   1.901
51096W        W17879  31.232  40.839   2.442
51097W        W17880  17.365  22.639   3.095
51098W        W17881   0.835  26.226  12.630
51099W        W17882  24.946   0.194   4.131
51100W        W17883  17.790  28.428  14.000
51101W        W17884  36.883  19.578   0.620
51102W        W17885  28.926  27.939   3.275
51103W        W17886  44.259  34.641  10.921
51104W        W17887  20.525   6.562  14.915
51105W        W17888   4.966  29.553   4.609
51106W        W17889  29.104  37.941   1.688
51107W        W17890   7.290  38.210   1.228
51108W        W17891  17.854  24.656   3.565
51109W        W17892  33.099  31.342  13.520
51110W        W17893  21.704  31.873  11.569
51111W        W17894  11.023  22.258  11.017
51112W        W17895  40.608  34.988   4.080
51113W        W17896  25.416  34.574   3.667
51114W        W17897  25.000  28.046  14.572
51115W        W17898   3.293  14.736  14.278
51116W        W17899  36.128  32.919   0.516
51117W        W17900  24.139  19.774  12.028
51118W        W17901   0.771  36.965  11.709
51119W        W17902  29.427   1.249   1.983
51120W        W17903  15.992   8.260  12.463
51121W        W17904   8.907  36.443   0.520
51122W        W17905  18.216   6.833   0.948
51123W        W17906  27.117  43.993   2.249
51124W        W17907   1.411  20.042  14.762
51125W        W17908  43.907  16.805  12.175
51126W        W17909  25.956  34.140  14.392
51127W        W17910  25.563  19.631  13.816
51128W        W17911  25.483  29.619  11.219
51129W        W17912  20.299  32.079  13.908
51130W        W17913  17.730  10.089  13.043
51131W        W17914  38.826  19.978   2.547
51132W        W17915   4.748  12.182  10.646
51133W        W17916  17.660   8.130   3.839
51134W        W17917  17.942  27.535   0.909
51135W        W17918  25.778  35.966   4.156
51136W        W17919  16.741   6.030   4.635
51137W        W17920  20.739  39.771  12.384
51138W        W17921  31.947  13.363  13.339
51139W        W17922  33.954  39.805  14.782
51140W        W17923  13.812   7.882   4.564
51141W        W17924  35.650  28.113   2.482
51142W        W17925  41.066   3.609  11.221
51143W        W17926  18.822  36.040   3.642
51144W        W17927  40.709  15.816   4.501
51145W        W17928  24.185  19.669   4.301
51146W        W17929  12.197   5.428   2.677
51147W        W17930  15.524  40.558   0.483
51148W        W17931   1.068  13.750   3.723
51149W        W17932  13.353   6.332  12.394
51150W        W17933   1.441  16.977   0.016
51151W        W17934  44.794  37.928   4.256
51152W        W17935  35.041  16.335   3.439
51153W        W17936  32.711  26.089  12.546
51154W        W17937  31.374  31.088   0.681
51155W        W17938  42.791  28.177  13.082
51156W        W17939  21.799  13.425   0.235
51157W        W17940  40.782   1.196  14.540
51158W        W17941  31.065  22.975  11.232
51159W        W17942  42.456  38.013  12.353
51160W        W17943   9.913  34.931   3.467
51161W        W17944  35.610  30.848   0.999
51162W        W17945  24.371  20.189  13.902
51163W        W17946  34.080  22.233  11.902
51164W        W17947  28.005  37.061   4.757
51165W        W17948  32.489  18.994   2.685
51166W        W17949  23.766  32.449  14.280
51167W        W17950  29.432  12.413  14.806
51168W        W17951  41.041  18.120  12.522
51169W        W17952  25.915  35.581  12.036
51170W        W17953  28.881  14.974  11.560
51171W        W17954  31.290  16.619  12.917
51172W        W17955   8.691   4.788   1.403
51173W        W17956  33.364  19.152   2.894
51174W        W17957  38.067   9.877  14.463
51175W        W17958  38.334  19.414  13.513
51176W        W17959  21.960   7.001  11.932
51177W        W17960   1.309  21.677  14.773
51178W        W17961  14.346  36.712  12.773
51179W        W17962  13.528  22.045   2.494
51180W        W17963  26.163  15.734  10.978
51181W        W17964   1.309  44.268  11.614
51182W        W17965  11.266  14.810  13.292
51183W        W17966   4.823  24.936   1.584
51184W        W17967  35.163  43.706  14.548
51185W        W17968  28.068  37.426   1.371
51186W        W17969  10.415   6.761   4.694
51187W        W17970   9.199  41.406   0.457
51188W        W17971   3.462   9.215  11.911
51189W        W17972  13.050  25.204   3.925
51190W        W17973   2.289  15.412  11.937
51191W        W17974  11.526  12.736  10.971
51192W        W17975  17.039  24.264  14.973
51193W        W17976  43.732   9.864   0.752
51194W        W17977  20.805  16.020   0.854
51195W        W17978  37.743  33.580  14.926
51196W        W17979  10.722  12.105  13.495
51197W        W17980  23.622  21.776   0.472
51198W        W17981  31.294  12.689   9.970
51199W        W17982  11.973  37.392  10.994
51200W        W17983   1.335   5.223  13.875
51201W        W17984  33.669  43.459   3.744
51202W        W17985  26.295   4.252  11.593
51203W        W17986  26.985  38.937  12.035
51204W        W17987  16.906  21.064  11.544
51205W        W17988  12.312  36.286   0.778
51206W        W17989  24.664  37.821  12.000
51207W        W17990  18.414  19.739  12.930
51208W        W17991  19.258  15.882   1.998
51209W        W17992  17.770  19.299   2.678
51210W        W17993  31.008   2.808   1.202
51211W        W17994  32.079  34.102  12.621
51212W        W17995  10.568  18.413   3.618
51213W        W17996  36.897  39.587   0.175
51214W        W17997  12.112   5.774   4.442
51215W        W17998  41.132  10.197  13.961
51216W        W17999   8.753  32.418  13.414
51217W        W18000  11.664  23.871   2.341
51218W        W18001   0.881  24.773  14.972
51219W        W18002  34.669  15.837   2.788
51220W        W18003  16.581  41.488  13.004
51221W        W18004   1.156  40.443  10.704
51222W        W18005  33.952  17.504   9.780
51223W        W18006  17.545  35.532  10.595
51224W        W18007   3.466  15.641   0.669
51225W        W18008  20.232  33.191   1.304
51226W        W18009  24.526  40.459  13.096
51227W        W18010  39.002  21.975   3.218
51228W        W18011  19.527  40.453  14.419
51229W        W18012  14.461  28.852  10.886
51230W        W18013   8.546  29.506   0.633
51231W        W18014  37.882  14.329  12.635
51232W        W18015   5.048  38.940  14.562
51233W        W18016   3.663  25.064   3.136
51234W        W18017  11.800  36.554   4.215
51235W        W18018  38.771  32.613  14.375
51236W        W18019  36.740  11.160  11.925
51237W        W18020  36.992  22.298  11.876
51238W        W18021  21.217  20.291   2.273
51239W        W18022  18.563  14.834  12.781
51240W        W18023  44.219   1.477   3.931
51241W        W18024  17.614  35.141  11.710
51242W        W18025  20.502  30.224   1.984
51243W        W18026  33.462  30.720  11.441
51244W        W18027  12.774  22.958   3.950
51245W        W18028   0.216  41.695  12.933
51246W        W18029   0.537  39.366  10.567
51247W        W18030   3.928   7.516  13.623
51248W        W18031  22.875  34.411  14.890
51249W        W18032  12.693  15.810  12.002
51250W        W18033  36.096  14.204  12.260
51251W        W18034  42.627  13.027  11.433
51252W        W18035  22.089   0.931  11.047
51253W        W18036   4.287  13.627   2.356
51254W        W18037  29.342   1.487   3.709
51255W        W18038  22.505  10.114  11.146
51256W        W18039  30.182  12.896  13.547
51257W        W18040  34.830  32.540   1.661
51258W        W18041   4.228   8.092   0.646
51259W        W18042  39.823   6.851   2.637
51260W        W18043  20.090  43.527   0.961
51261W        W18044   4.346   2.307  10.736
51262W        W18045  11.830  37.591   1.719
51263W        W18046  17.303  30.581   1.325
51264W        W18047  20.600  18.763  13.685
51265W        W18048  10.801  31.601   1.826
51266W        W18049  41.706   9.075  12.922
51267W        W18050   0.099  30.986  14.025
51268W        W18051   9.037   8.694   2.330
51269W        W18052  14.258  33.776   4.165
51270W        W18053  33.912  34.959  11.620
51271W        W18054   0.473   6.413  12.862
51272W        W18055   1.444  34.169  14.502
51273W        W18056  35.279  33.363  11.211
51274W        W18057  11.188  19.317  11.457
51275W        W18058  43.365  28.769  14.983
51276W        W18059   8.802  21.119  13.391
51277W        W18060   0.730  40.363   4.446
51278W        W18061  35.126  44.500  10.262
51279W        W18062  36.600  37.435   2.362
51280W        W18063  11.778  32.706   3.932
51281W        W18064  12.208  38.582   3.243
51282W        W18065  28.173  24.386  13.932
51283W        W18066  23.045   9.664   3.778
51284W        W18067   7.458  28.483  14.671
51285W        W18068   8.175  19.297  10.421
51286W        W18069   6.775  17.180   3.279
51287W        W18070  13.621  10.653   3.258
51288W        W18071  30.001  18.047   1.741
51289W        W18072  41.598  15.131  14.374
51290W        W18073  20.025  31.322  11.558
51291W        W18074  10.837  15.568   4.506
51292W        W18075   7.846  17.780  14.589
51293W        W18076  36.389   0.916  13.916
51294W        W18077  41.855  30.551  12.889
51295W        W18078   4.736  19.785  13.521
51296W        W18079  32.674  16.338   4.074
51297W        W18080  41.930   3.470   2.040
51298W        W18081  36.567  20.149   2.845
51299W        W18082  35.394  20.502  13.898
51300W        W18083   1.755  32.908   1.136
51301W        W18084  41.945  22.854  11.588
51302W        W18085  12.389   3.804   4.594
51303W        W18086   4.627  38.858  14.212
51304W        W18087  38.229  25.753   0.796
51305W        W18088  27.772  35.965  13.077
51306W        W18089   6.001  32.633   1.872
51307W        W18090  16.812  31.385   4.562
51308W        W18091  21.223   6.601  12.090
51309W        W18092   3.282   3.471   0.902
51310W        W18093  30.042  40.638  12.727
51311W        W18094  42.217  31.538  11.634
51312W        W18095  18.198   0.222   0.953
51313W        W18096  25.529   7.155  10.704
51314W        W18097  18.049  33.423  14.157
51315W        W18098  19.637  13.272   1.715
51316W        W18099  32.746  31.436   4.119
51317W        W18100  40.063  10.575  14.406
51318W        W18101  39.877  35.984   4.119
51319W        W18102   8.652  40.763   0.577
51320W        W18103  14.303  14.538  13.454
51321W        W18104  28.100  11.247  10.558
51322W        W18105  15.372   4.654   2.742
51323W        W18106  33.857  22.462   1.395
51324W        W18107  24.492  13.275  13.897
51325W        W18108  29.922   5.231   2.284
51326W        W18109   8.358  20.618   3.544
51327W        W18110   6.254   4.969   1.451
51328W        W18111  18.216   2.959   1.366
51329W        W18112  28.055  41.619   3.353
51330W        W18113  37.429  20.925  12.554
51331W        W18114  18.856  31.225  11.932
51332W        W18115  38.482  18.071  11.218
51333W        W18116  18.934  26.085   3.622
51334W        W18117   4.475  22.905  12.831
51335W        W18118  42.886   0.092   4.267
51336W        W18119  11.005  14.256  12.588
51337W        W18120  12.578   1.280   4.606
51338W        W18121  18.910  28.898  12.949
51339W        W18122  33.373   1.936   2.693
51340W        W18123  38.630  12.850   3.626
51341W        W18124  44.491  43.433  11.644
51342W        W18125   4.112  25.483  12.110
51343W        W18126  39.840  41.984  14.373
51344W        W18127  21.961  32.851   1.297
51345W        W18128  12.570  25.154  12.396
51346W        W18129  10.281  26.180  13.012
51347W        W18130  18.717  22.183  13.463
51348W        W18131  15.614  41.391  11.893
51349W        W18132  34.131  22.172   0.449
51350W        W18133   8.418  37.401   1.779
51351W        W18134   0.520  24.561   1.769
51352W        W18135  19.951  40.312   3.244
51353W        W18136  19.734  41.192   0.713
51354W        W18137  12.192  15.054  11.948
51355W        W18138  33.443  27.052   4.018
51356W        W18139  33.896  23.029  14.578
51357W        W18140  12.449  17.630  12.522
51358W        W18141   8.268  44.226  14.690
51359W        W18142  37.350  13.666   1.021
51360W        W18143  15.981  22.989  12.952
51361W        W18144   6.945   1.460  11.465
51362W        W18145  10.378  29.465   1.463
51363W        W18146  23.397  41.635  10.993
51364W        W18147  41.031   9.271  14.784
51365W        W18148  33.430  27.094  12.958
51366W        W18149  43.668   2.001  14.609
51367W        W18150  41.254   5.798  11.084
51368W        W18151   8.401   6.103  13.598
51369W        W18152  34.515  36.207  10.646
51370W        W18153   2.791   6.012  13.374
51371W        W18154  41.588  42.374   0.421
51372W        W18155  19.213   3.003  14.447
51373W        W18156  24.365  32.281  10.675
51374W        W18157  14.837  33.615  10.035
51375W        W18158   8.188  24.003  12.900
51376W        W18159  22.654  37.809  14.176
51377W        W18160  44.423  38.603  11.190
51378W        W18161  25.208  29.409   3.284
51379W        W18162   5.289  42.023   0.296
51380W        W18163   3.530   5.214   0.497
51381W        W18164  34.632  29.394   1.348
51382W        W18165   5.062  20.685   3.879
51383W        W18166  18.608   5.283   4.107
51384W        W18167  38.002  35.146   4.956
51385W        W18168  19.143  20.099   1.896
51386W        W18169  16.809   5.281  11.154
51387W        W18170   0.101  44.044  13.329
51388W        W18171  40.995  29.425   1.044
51389W        W18172  29.316   8.796   2.917
51390W        W18173   5.781  18.643  10.954
51391W        W18174  43.363  29.786  10.695
51392W        W18175  15.113  12.904  13.333
51393W        W18176  13.837  33.065  10.682
51394W        W18177  12.831  31.942   0.081
51395W        W18178  11.735  14.379   2.174
51396W        W18179  35.084  11.055  13.046
51397W        W18180  19.116  18.502  14.907
51398W        W18181  39.299   2.863   1.603
51399W        W18182   8.180  40.595   0.385
51400W        W18183  34.184  12.881  11.899
51401W        W18184  12.090  19.330   4.500
51402W        W18185  11.706  43.829  11.883
51403W        W18186  34.560  41.945   3.113
51404W        W18187  15.032  15.931   4.915
51405W        W18188   8.768  29.047   3.224
51406W        W18189  30.211  22.637  10.240
51407W        W18190  19.656  17.632   3.273
51408W        W18191  34.501  24.895   1.829
51409W        W18192  28.910  20.516   0.963
51410W        W18193  38.182  38.412   2.392
51411W        W18194  29.605  43.948  10.648
51412W        W18195  37.413   6.776   0.853
51413W        W18196  23.220   1.055   5.569
51414W        W18197  22.086   6.772  12.386
51415W        W18198  19.718  20.564  14.451
51416W        W18199  31.360  30.943  13.422
51417W        W18200  42.762   1.241  13.797
51418W        W18201  17.661  16.006  14.798
51419W        W18202  40.927  43.750   3.128
51420W        W18203  21.034   2.322  10.035
51421W        W18204  37.657   7.937   5.287
51422W        W18205  38.003  10.832   4.643
51423W        W18206  23.226  31.365   3.129
51424W        W18207  41.536  10.799  14.548
51425W        W18208  21.273  20.149   0.301
51426W        W18209  41.071   9.683   2.595
51427W        W18210   8.067  36.643  11.737
51428W        W18211  18.195  35.456   1.833
51429W        W18212   6.159  12.135   1.245
51430W        W18213  11.798   3.306   3.319
51431W        W18214  34.047  40.313  13.034
51432W        W18215  31.676  40.595   1.923
51433W        W18216  19.500  30.626  12.574
51434W        W18217  24.585  35.067   2.471
51435W        W18218  24.967  24.620   3.773
51436W        W18219  38.568  26.625  11.948
51437W        W18220  15.666  37.062   0.832
51438W        W18221  14.598  13.070   0.777
51439W        W18222   8.966  25.984  10.261
51440W        W18223  32.950  29.075   4.763
51441W        W18224  38.419  40.038  13.071
51442W        W18225  17.509  30.563   2.771
51443W        W18226   5.561   1.872   2.839
51444W        W18227  43.330  20.240  14.942
51445W        W18228  35.772  30.737  11.723
51446W        W18229  37.013  15.625   0.859
51447W        W18230  37.950  22.672   2.816
51448W        W18231  43.074  27.352  11.555
51449W        W18232  19.514  32.606  13.819
51450W        W18233  27.215  31.703   3.130
51451W        W18234  41.032   9.053   1.249
51452W        W18235   1.250  18.282   2.296
51453W        W18236  22.623   5.580  14.943
51454W        W18237  44.371  29.437   3.834
51455W        W18238   4.732  14.253  12.054
51456W        W18239  25.983  44.553  14.484
51457W        W18240   3.071  26.554   1.817
51458W        W18241  12.789  30.128   2.213
51459W        W18242   8.884  13.369  13.856
51460W        W18243  25.375   0.775  13.492
51461W        W18244  30.492  15.876   4.670
51462W        W18245   5.179  41.551   2.864
51463W        W18246  15.867   6.915  11.119
51464W        W18247  31.958   1.642   2.855
51465W        W18248  37.704   0.587  10.459
51466W        W18249   5.147  14.450   1.175
51467W        W18250  25.078  18.081  12.498
51468W        W18251  18.448  39.459   2.311
51469W        W18252  31.881   2.912  13.886
51470W        W18253  37.446  21.841   0.918
51471W        W18254   4.259  27.462   0.376
51472W        W18255  42.456  14.551  13.373
51473W        W18256  26.998  15.244  11.161
51474W        W18257  28.065  31.319   0.315
51475W        W18258   9.109  21.930   4.667
51476W        W18259  38.131  15.200   2.377
51477W        W18260  20.236  42.940   9.633
51478W        W18261   4.777  43.245   1.359
51479W        W18262  26.692  12.678  11.407
51480W        W18263   7.871  11.822  12.434
51481W        W18264  32.605  16.862  11.692
51482W        W18265  13.727  34.660  10.917
51483W        W18266   8.268  11.237   0.643
51484W        W18267  27.180  18.951  14.908
51485W        W18268  24.230  27.614   0.483
51486W        W18269  25.021  41.615  11.417
51487W        W18270  30.521  17.842   2.377
51488W        W18271   3.978  38.524  12.145
51489W        W18272  10.595  32.190   4.937
51490W        W18273   1.569  28.571  10.709
51491W        W18274  23.830  28.581  14.249
51492W        W18275   1.963  10.911  12.156
51493W        W18276  34.245  13.682   2.689
51494W        W18277  20.727   2.489   1.939
51495W        W18278  24.127   5.841   0.418
51496W        W18279  20.638   1.032   4.666
51497W        W18280  41.104  13.190  14.271
51498W        W18281  10.433  34.439   0.197
51499W        W18282  40.193  17.366  12.064
51500W        W18283  13.340  37.774  14.659
51501W        W18284  28.551  24.211   3.629
51502W        W18285   6.687  23.800   4.475
51503W        W18286  21.087  35.029  14.546
51504W        W18287  17.147  26.997  11.982
51505W        W18288  42.494  16.745  11.734
51506W        W18289  30.611  13.583   1.927
51507W        W18290  41.074  41.495   0.468
51508W        W18291  21.726  16.659  13.363
51509W        W18292  28.656  22.453  12.114
51510W        W18293  28.813   8.412  13.055
51511W        W18294  11.286  10.834  14.391
51512W        W18295  31.966  25.460   4.993
51513W        W18296  21.180  17.763  13.860
51514W        W18297  11.310  35.583  11.688
51515W        W18298  33.604  21.931   1.202
51516W        W18299  29.268  35.599  13.792
51517W        W18300   2.274  30.308   3.070
51518W        W18301  33.000   3.542  11.440
51519W        W18302  17.998  24.086  11.364
51520W        W18303  35.398  15.333  13.174
51521W        W18304  22.813   8.122   2.682
51522W        W18305   7.279  11.762   1.590
51523W        W18306   5.662  38.777   2.598
51524W        W18307  17.744   1.664   1.397
51525W        W18308  16.580   3.334  11.894
51526W        W18309  33.051  24.218  10.139
51527W        W18310  25.717  38.043  11.581
51528W        W18311  20.194   0.447   5.102
51529W        W18312  32.051  17.572  13.230
51530W        W18313   0.590  31.446   0.125
51531W        W18314  27.747  14.285  13.035
51532W        W18315  33.943  42.820  13.539
51533W        W18316   0.352  34.541  14.409
51534W        W18317   2.324   9.834   3.411
51535W        W18318   0.241  10.342   0.788
51536W        W18319  17.799  27.419  13.835
51537W        W18320   3.016  33.170   2.299
51538W        W18321  38.859  34.346  11.160
51539W        W18322   8.193  13.663  13.315
51540W        W18323  33.101   7.972  10.777
51541W        W18324   6.381  27.869   4.609
51542W        W18325  35.939   4.292  14.839
51543W        W18326   1.590   8.750  14.462
51544W        W18327  40.101  22.540  11.455
51545W        W18328   1.192  10.303  12.544
51546W        W18329  37.623  28.250   4.535
51547W        W18330  11.403  31.147  13.709
51548W        W18331   0.548  15.546  12.465
51549W        W18332  12.692  24.040   4.402
51550W        W18333  25.655  27.552   1.024
51551W        W18334  22.641  24.580   0.707
51552W        W18335  28.413  19.161   1.256
51553W        W18336  25.980  35.229  14.284
51554W        W18337  26.524  16.802   3.362
51555W        W18338  20.570  33.555  12.157
51556W        W18339  10.085  21.667   3.068
51557W        W18340   7.800  18.179  13.900
51558W        W18341   4.892  32.921  11.606
51559W        W18342  41.877  17.713   1.662
51560W        W18343  37.026  28.747   0.744
51561W        W18344  11.189   9.191   4.167
51562W        W18345  11.189  17.122  13.606
51563W        W18346  13.458  33.807  11.218
51564W        W18347   0.965  23.539   1.838
51565W        W18348  27.438   6.713  13.361
51566W        W18349  20.719  18.663  13.146
51567W        W18350  37.880  14.933   2.792
51568W        W18351  35.346  28.661  10.431
51569W        W18352   5.789  37.838  11.864
51570W        W18353  25.171   0.008   2.350
51571W        W18354  19.491  11.014   0.738
51572W        W18355  25.951  12.726   4.245
51573W        W18356  37.059  16.590  12.693
51574W        W18357   4.264  19.314  13.842
51575W        W18358  36.113   8.973  14.437
51576W        W18359  44.921  30.545   3.238
51577W        W18360  32.290  24.587   0.484
51578W        W18361  22.655  18.214  10.717
51579W        W18362  11.234  20.454  13.412
51580W        W18363  15.445  14.083  14.159
51581W        W18364   8.809  30.878   1.577
51582W        W18365  37.480  18.198  11.676
51583W        W18366  42.916  34.357   2.084
51584W        W18367  12.422  21.467  14.279
51585W        W18368  29.807  40.529   0.054
51586W        W18369   7.350  13.585   0.301
51587W        W18370  23.877  26.228  12.517
51588W        W18371  32.221  30.070   1.687
51589W        W18372  33.005  40.069  14.671
51590W        W18373  13.162  41.016  13.090
51591W        W18374  11.069  35.131  12.479
51592W        W18375   5.833   1.069  12.365
51593W        W18376   3.181  15.213  14.485
51594W        W18377  19.729   7.172  12.699
51595W        W18378   0.349  20.449   4.100
51596W        W18379  33.649  10.111  14.911
51597W        W18380  21.132  35.396   4.114
51598W        W18381  36.107  26.579   4.196
51599W        W18382   2.988  41.336   3.746
51600W        W18383  15.179   8.260   2.787
51601W        W18384  12.761  29.701  13.521
51602W        W18385  28.963   6.740  13.907
51603W        W18386  44.805  44.897   2.550
51604W        W18387  33.412  38.917   0.181
51605W        W18388  43.872   2.271   4.471
51606W        W18389   4.765  33.153   2.994
51607W        W18390  17.769  13.220   4.100
51608W        W18391   5.516  13.112  11.475
51609W        W18392  19.552  28.353  11.385
51610W        W18393  12.665  18.664  13.400
51611W        W18394  15.992  38.113   3.229
51612W        W18395  31.607  27.130   2.764
51613W        W18396  34.026  34.625   0.236
51614W        W18397   3.223  15.223   4.196
51615W        W18398  17.063   0.768  13.028
51616W        W18399  18.816  26.382  13.175
51617W        W18400  39.345   3.804  14.559
51618W        W18401  35.920  39.071   4.082
51619W        W18402   1.468  12.197   2.864
51620W        W18403  32.140  25.275   4.518
51621W        W18404  36.554   4.997   1.851
51622W        W18405  17.784   0.027  13.508
51623W        W18406  19.562  16.540   3.711
51624W        W18407   7.278  42.013   4.113
51625W        W18408  39.237  10.130   4.817
51626W        W18409  13.296  27.035  14.705
51627W        W18410  20.435  20.481  13.773
51628W        W18411  40.872  26.538  13.560
51629W        W18412   6.886  43.106  12.864
51630W        W18413   0.372  32.409   4.891
51631W        W18414  10.643  21.318  14.578
51632W        W18415  44.491   9.037  13.480
51633W        W18416  33.159  36.312   3.713
51634W        W18417   4.985  30.293   0.433
51635W        W18418  30.526  25.874  10.734
51636W        W18419   4.702  21.754  14.014
51637W        W18420  34.380   1.463   2.196
51638W        W18421   8.926  30.992  14.938
51639W        W18422   3.131  32.569   3.125
51640W        W18423   9.681   0.643  10.573
51641W        W18424  30.015  44.442  14.445
51642W        W18425  11.165  20.950  13.497
51643W        W18426  31.994  29.446  10.669
51644W        W18427  41.512  19.123   2.738
51645W        W18428  27.409  19.597   3.660
51646W        W18429   2.793  36.347   0.046
51647W        W18430  30.952  22.775  10.762
51648W        W18431  28.367  14.126  11.489
51649W        W18432  35.838   9.453   2.155
51650W        W18433  21.530  31.034  13.389
51651W        W18434  29.166  42.982   0.485
51652W        W18435  32.065  37.062   3.716
51653W        W18436   1.927  25.621  13.938
51654W        W18437  43.882  43.297   2.409
51655W        W18438  17.406  41.509  11.408
51656W        W18439  18.559  44.979   4.765
51657W        W18440   4.052  20.143   4.589
51658W        W18441  17.330  23.759  14.956
51659W        W18442   9.873  43.981  10.901
51660W        W18443  22.149   7.660   1.481
51661W        W18444   1.037  11.390  13.540
51662W        W18445  12.168  24.575  14.496
51663W        W18446  40.336   0.922   4.132
51664W        W18447  11.606   3.004   2.183
51665W        W18448   4.664  40.841   0.799
51666W        W18449   2.886  44.616   1.758
51667W        W18450  19.133  16.078  11.431
51668W        W18451  36.826  11.111   0.211
51669W        W18452  25.490   0.603   5.021
51670W        W18453  19.446  25.932  10.777
51671W        W18454  33.591   6.515   1.319
51672W        W18455  34.355  17.378  12.879
51673W        W18456   4.189  11.752   3.373
51674W        W18457  12.858  36.015  12.097
51675W        W18458   2.225  23.760  10.943
51676W        W18459  32.532  21.253   2.150
51677W        W18460  31.129  28.881   2.581
51678W        W18461  30.343  36.420   1.157
51679W        W18462   7.175  22.270  13.570
51680W        W18463   4.422  44.308  14.828
51681W        W18464  25.660  15.830  14.318
51682W        W18465  25.481   8.272  12.548
51683W        W18466  43.711   0.879  13.478
51684W        W18467  14.420  12.277  14.828
51685W        W18468  22.655   6.578  13.488
51686W        W18469  40.881  12.948  13.028
51687W        W18470  20.528  11.589   2.270
51688W        W18471  10.286   8.342  13.224
51689W        W18472   9.691   4.840   3.557
51690W        W18473  29.629   8.778  12.940
51691W        W18474  39.533   6.181   1.887
51692W        W18475  14.075  41.686   2.624
51693W        W18476  15.875   0.457  11.015
51694W        W18477  22.686   6.223  11.689
51695W        W18478  41.450  25.872  11.110
51696W        W18479  31.059  38.336  13.762
51697W        W18480  21.787  41.467  12.102
51698W        W18481  14.158  41.382   4.522
51699W        W18482  17.094  43.550  13.956
51700W        W18483  17.131  44.466  10.069
51701W        W18484  18.983  27.680  11.224
51702W        W18485  17.495  20.286   3.114
51703W        W18486  17.801   7.128   0.874
51704W        W18487  29.366  22.673   3.608
51705W        W18488   4.843   8.468  14.270
51706W        W18489  21.773  23.190  11.892
51707W        W18490  36.657   8.936  10.718
51708W        W18491   1.468  28.239  13.407
51709W        W18492  30.811  12.984   0.771
51710W        W18493  32.275  35.685   3.721
51711W        W18494  41.354   5.394  12.174
51712W        W18495  31.947  24.063   2.266
51713W        W18496  24.144  19.491   9.878
51714W        W18497  38.846  34.642   4.546
51715W        W18498  14.884  24.599  13.719
51716W        W18499   0.098  24.136  13.376
51717W        W18500   2.616   6.761   3.219
51718W        W18501   2.185  37.766   0.767
51719W        W18502   5.452  28.054   3.237
51720W        W18503  21.599  14.649  14.115
51721W        W18504  18.238  15.168   4.041
51722W        W18505  36.915  39.262  14.765
51723W        W18506   1.352   7.844  13.637
51724W        W18507  31.529  17.233  11.586
51725W        W18508  34.991  37.946  11.245
51726W        W18509  35.984  19.168   2.034
51727W        W18510   0.792   9.812   1.856
51728W        W18511  24.151  18.039  12.405
51729W        W18512   3.456   9.698  13.519
51730W        W18513  34.264  19.931  11.639
51731W        W18514  43.099  29.620   3.184
51732W        W18515   5.769  37.093   2.361
51733W        W18516   7.592  42.827  10.291
51734W        W18517   4.460  33.481   0.476
51735W        W18518   4.272   5.635  12.053
51736W        W18519  33.100  42.364   4.153
51737W        W18520  21.664  21.930  14.186
51738W        W18521   0.029   2.417  11.166
51739W        W18522  37.061  13.435   0.660
51740W        W18523  20.789   2.400  11.899
51741W        W18524   7.849  12.124  13.928
51742W        W18525   6.457   4.148   1.786
51743W        W18526  42.517  41.333  12.955
51744W        W18527   1.118  24.229   2.439
51745W        W18528  43.309  29.658  14.022
51746W        W18529  38.009   8.836  14.418
51747W        W18530   3.937  44.473  14.857
51748W        W18531  26.694  31.091   3.014
51749W        W18532  27.711  31.044   1.977
51750W        W18533  13.950  26.986  13.925
51751W        W18534   4.650  34.580   4.754
51752W        W18535  17.591  11.686   1.286
51753W        W18536  28.160  34.921   0.519
51754W        W18537  44.571  43.706  13.453
51755W        W18538  17.658  21.549  13.728
51756W        W18539  21.138   3.374   1.731
51757W        W18540  39.220  15.825   4.418
51758W        W18541  35.890   2.925  13.552
51759W        W18542  26.476   0.875  14.431
51760W        W18543  20.784  21.558  10.501
51761W        W18544  21.043  15.345   4.488
51762W        W18545  21.077   8.408  13.413
51763W        W18546  10.260  36.797   5.021
51764W        W18547  18.304  43.783   2.194
51765W        W18548  43.050   9.922   4.241
51766W        W18549  31.806  34.915  14.409
51767W        W18550  29.840   5.821  10.523
51768W        W18551   3.460  32.103   3.307
51769W        W18552  43.765  20.165   3.185
51770W        W18553   2.116  19.659   0.400
51771W        W18554  39.344   3.913   2.377
51772W        W18555  38.025   0.912  10.822
51773W        W18556  36.584  16.669   2.599
51774W        W18557  21.649   8.195   3.965
51775W        W18558  21.255  42.734   3.849
51776W        W18559  15.094  30.933   1.840
51777W        W18560  29.130  21.614  13.012
51778W        W18561  30.058   1.874  11.570
51779W        W18562  13.872  32.914  13.812
51780W        W18563  30.167   3.208  11.648
51781W        W18564  38.813   0.620   4.768
51782W        W18565  43.391   5.143  14.124
51783W        W18566  33.189   4.070  10.721
51784W        W18567  42.223  38.948  14.352
51785W        W18568  13.885   8.101   1.245
51786W        W18569  16.416  25.781  12.115
51787W        W18570   4.218  38.485   2.015
51788W        W18571   3.394  36.307  11.155
51789W        W18572  36.365  22.645  13.526
51790W        W18573   5.244  43.993   0.446
51791W        W18574  16.708  15.154  12.107
51792W        W18575  25.873  40.242   1.853
51793W        W18576   9.734  39.256  14.438
51794W        W18577  15.577  23.671  11.462
51795W        W18578  18.821  31.621   1.340
51796W        W18579   7.343  10.707  13.039
51797W        W18580   8.869  29.052   0.826
51798W        W18581  32.385   9.827  13.137
51799W        W18582  37.129  11.761   4.125
51800W        W18583   3.400   3.169   0.476
51801W        W18584  12.082  18.773  14.550
51802W        W18585  19.210  14.921   1.354
51803W        W18586  40.556  22.969   2.656
51804W        W18587  32.019  37.547  14.311
51805W        W18588  39.086  11.254  13.624
51806W        W18589  27.388   0.906   0.159
51807W        W18590  43.020   2.909   3.316
51808W        W18591  24.727  18.526   3.192
51809W        W18592   0.041  24.257  14.927
51810W        W18593  19.739  32.487  12.874
51811W        W18594  18.764  23.068  13.166
51812W        W18595  26.289  39.404   3.445
51813W        W18596  23.014   4.300   2.693
51814W        W18597  14.086   5.737   2.835
51815W        W18598  36.481   4.964   0.291
51816W        W18599  18.274  13.472   5.168
51817W        W18600  15.061  18.079   3.365
51818W        W18601  14.070   6.241   3.140
51819W        W18602  43.433  16.214  13.310
51820W        W18603  24.422   8.879   2.382
51821W        W18604  13.350   6.785  12.607
51822W        W18605   6.906  32.312   0.852
51823W        W18606   8.797  33.968   2.852
51824W        W18607  40.504  29.166   1.278
51825W        W18608  35.634  28.407   0.052
51826W        W18609  36.623  21.731   3.669
51827W        W18610   2.456  13.198   4.761
51828W        W18611   4.359  19.316   4.803
51829W        W18612  32.112   7.663   3.206
51830W        W18613  20.051   9.275   4.819
51831W        W18614  25.550  43.782   1.288
51832W        W18615   2.419  44.140   2.243
51833W        W18616  42.440  34.969   1.212
51834W        W18617   3.280   1.324   2.916
51835W        W18618  17.698   9.916  12.560
51836W        W18619  44.053  42.769  13.449
51837W        W18620   5.694  24.209  11.937
51838W        W18621   0.352   4.870  11.445
51839W        W18622  19.065  12.810  13.888
51840W        W18623  27.110  42.796  12.040
51841W        W18624  41.033  28.666   3.136
51842W        W18625  11.887  38.601  10.674
51843W        W18626   7.036  36.447  12.081
51844W        W18627   9.545   1.301   2.753
51845W        W18628   1.843  41.401   1.206
51846W        W18629   6.180  11.407   0.725
51847W        W18630  38.660  38.414  10.648
51848W        W18631  40.888   3.871   2.325
51849W        W18632  22.475  21.129   1.148
51850W        W18633  22.476  38.445  14.460
51851W        W18634   1.265  19.625   2.835
51852W        W18635   0.913   6.486  14.501
51853W        W18636  20.444  42.026   3.244
51854W        W18637  40.541  14.102  14.383
51855W        W18638  24.329  27.644   4.914
51856W        W18639  30.544  18.824   3.125
51857W        W18640  17.676  20.224   1.269
51858W        W18641  43.213  17.408  12.051
51859W        W18642  38.334  35.817   3.487
51860W        W18643   4.433  23.260   4.103
51861W        W18644  12.706   3.941  13.030
51862W        W18645  30.967   8.802   4.430
51863W        W18646  32.452   0.720   2.156
51864W        W18647  33.072  19.098  10.322
51865W        W18648   8.818   9.612   0.895
51866W        W18649  20.242  39.626   2.729
51867W        W18650  40.550  17.024  12.136
51868W        W18651  14.308   4.791  14.989
51869W        W18652  22.453   8.736   0.386
51870W        W18653  34.178  29.632  13.795
51871W        W18654  43.359  36.952  13.881
51872W        W18655  33.380  32.889  13.257
51873W        W18656   9.998  41.220  14.424
51874W        W18657  17.150  28.893  12.164
51875W        W18658  39.895  10.620   4.598
51876W        W18659  35.753   3.507  12.994
51877W        W18660   5.732  21.149  14.547
51878W        W18661  36.555  42.656  14.888
51879W        W18662  40.904  14.849  13.094
51880W        W18663  37.760   3.024  11.988
51881W        W18664  32.040  44.243  14.679
51882W        W18665  29.460   4.742  13.372
51883W        W18666  15.846  16.429  12.324
51884W        W18667  17.349   5.322  13.025
51885W        W18668  23.537  39.564  10.041
51886W        W18669  23.942  24.688  13.749
51887W        W18670  24.583  21.744   2.263
51888W        W18671   9.335  40.803  10.592
51889W        W18672  31.632   8.316   4.023
51890W        W18673  17.116  22.685  14.070
51891W        W18674   3.970  21.206   2.792
51892W        W18675  42.840  23.718   0.789
51893W        W18676  40.852  20.070  14.929
51894W        W18677  14.721  17.487  14.333
51895W        W18678  13.129   5.017  11.788
51896W        W18679  42.008  29.514  11.178
51897W        W18680  35.565   5.878   1.831
51898W        W18681  20.137  25.576   4.770
51899W        W18682  41.587  30.642  12.012
51900W        W18683  23.513   8.674  14.985
51901W        W18684  43.543  26.659   0.560
51902W        W18685  14.455  43.864  12.464
51903W        W18686  11.089  42.852   4.054
51904W        W18687  31.029   3.505  13.346
51905W        W18688  18.742  32.421  12.460
51906W        W18689  40.070  14.118  13.627
51907W        W18690  10.141  25.196  11.470
51908W        W18691  10.804  32.460  14.211
51909W        W18692  25.739   6.826   3.210
51910W        W18693  35.489  17.990   2.294
51911W        W18694  24.223  21.766   0.883
51912W        W18695  13.808  40.527   1.707
51913W        W18696  37.564  32.030  12.146
51914W        W18697   1.911  42.078  13.346
51915W        W18698  15.886  15.029   5.665
51916W        W18699  37.464  11.682   1.443
51917W        W18700   8.160  36.911   3.090
51918W        W18701   0.184  22.721  14.329
51919W        W18702  18.835   0.519  12.879
51920W        W18703   9.360  16.259   3.090
51921W        W18704   1.890  35.902   3.809
51922W        W18705  10.378   4.250   0.267
51923W        W18706  20.816  31.915   1.155
51924W        W18707  40.699  36.573   3.045
51925W        W18708   4.728  18.080  11.526
51926W        W18709  13.295  36.101  13.894
51927W        W18710  43.909  22.039  14.595
51928W        W18711  20.380  19.484   9.956
51929W        W18712  44.562  15.000  11.012
51930W        W18713  25.938  18.976  13.725
51931W        W18714  13.667  44.213   3.217
51932W        W18715  19.892  25.508  14.433
51933W        W18716  41.580  39.188  11.001
51934W        W18717   0.824   0.900  12.097
51935W        W18718  33.367  11.296   3.406
51936W        W18719  38.855  30.246  10.993
51937W        W18720  19.018  28.115  14.249
51938W        W18721  14.802  40.815  11.986
51939W        W18722  18.131   3.229   0.884
51940W        W18723  23.019  37.099   0.893
51941W        W18724  35.094   1.242  13.404
51942W        W18725  43.427  12.620  12.383
51943W        W18726  26.152  38.998   3.151
51944W        W18727  28.291   8.383  14.076
51945W        W18728  15.831  12.372   4.133
51946W        W18729  41.023  36.149   3.964
51947W        W18730  17.038  12.801   2.075
51948W        W18731  10.989  39.385  10.225
51949W        W18732  34.746  34.706  13.266
51950W        W18733  25.413  10.944   3.704
51951W        W18734  20.479  25.537   0.288
51952W        W18735  26.481  10.862   4.156
51953W        W18736  32.976  15.283   3.532
51954W        W18737  31.099  13.778   1.832
51955W        W18738  22.024  31.386  13.963
51956W        W18739  38.345  32.552  14.675
51957W        W18740   4.815   9.687  11.956
51958W        W18741  18.678  24.062  14.338
51959W        W18742  43.805  24.712   2.855
51960W        W18743  19.589  38.138   2.984
51961W        W18744  14.782   8.210   1.165
51962W        W18745  17.628  37.362   4.604
51963W        W18746  35.471  10.151  12.418
51964W        W18747  35.907  32.504  11.305
51965W        W18748  15.672  42.330   1.895
51966W        W18749   1.729  21.745  13.474
51967W        W18750  34.180  20.750  14.502
51968W        W18751   4.890  29.956   4.112
51969W        W18752  32.791  39.859  14.216
51970W        W18753   9.456  40.983   0.315
51971W        W18754  39.795  32.492  11.632
51972W        W18755  41.231   7.836   2.851
51973W        W18756   4.343  20.714   0.680
51974W        W18757  25.249  42.775  12.144
51975W        W18758  18.191  26.849   2.709
51976W        W18759   4.330  33.091   0.809
51977W        W18760  38.725  40.481   1.393
51978W        W18761  20.484   3.359   3.642
51979W        W18762   3.330  19.419  11.620
51980W        W18763  33.008  35.852   0.585
51981W        W18764  22.042   3.234  14.696
51982W        W18765  43.256  27.482  12.037
51983W        W18766  13.807  25.073   5.019
51984W        W18767   9.106  44.950   2.264
51985W        W18768   5.986  36.452  14.978
51986W        W18769  21.187  32.386   4.166
51987W        W18770  38.668   5.441  11.129
51988W        W18771   9.638  17.389   2.230
51989W        W18772  35.169  43.837   2.465
51990W        W18773   1.327  38.683   2.671
51991W        W18774  31.875  37.653  12.606
51992W        W18775  43.847   4.051   1.271
51993W        W18776  32.375  24.172   0.820
51994W        W18777  17.098  20.237  12.433
51995W        W18778  44.937  32.750  13.121
51996W        W18779  32.579  30.684   0.339
51997W        W18780  36.476   4.216  13.412
51998W        W18781  33.931  36.893   1.152
51999W        W18782  29.599  38.944  12.467
52000W        W18783  35.138  35.995   2.652
52001W        W18784  19.625   3.480   3.276
52002W        W18785   9.458  41.240  10.808
52003W        W18786   1.749  18.744   2.655
52004W        W18787   8.419  38.331   2.294
52005W        W18788  31.415  40.394  11.269
52006W        W18789  44.413  43.337   0.694
52007W        W18790  39.309  18.489   2.319
52008W        W18791   8.176  38.694   3.547
52009W        W18792   8.906  38.156   0.981
52010W        W18793  10.251  42.713   3.150
52011W        W18794   4.502  15.825  13.073
52012W        W18795  39.510  17.250   0.760
52013W        W18796  24.658  16.369  14.230
52014W        W18797  11.078  32.458  10.952
52015W        W18798  12.617   0.433  11.099
52016W        W18799  38.122  37.438  14.407
52017W        W18800  14.214  31.880  10.748
52018W        W18801  20.098  32.382  14.285
52019W        W18802   5.157  42.015  11.108
52020W        W18803  42.382  16.124  13.928
52021W        W18804   0.766  11.130  13.992
52022W        W18805  18.803  23.537  13.555
52023W        W18806  13.692  16.193  11.503
52024W        W18807   9.916  15.795  14.037
52025W        W18808  27.162  17.320   4.650
52026W        W18809  22.354  42.536   1.130
52027W        W18810   9.945  37.596   2.752
52028W        W18811  11.420  22.660   1.646
52029W        W18812   7.024  26.477   0.256
52030W        W18813   4.261  31.936   1.261
52031W        W18814  11.354  40.740  11.268
52032W        W18815  15.488  29.007   2.608
52033W        W18816   0.707   7.475  14.320
52034W        W18817  29.912   8.697   0.255
52035W        W18818  39.537  11.574  12.589
52036W        W18819  43.143   5.055   4.587
52037W        W18820  30.313  40.347  10.538
52038W        W18821  40.151   1.792  12.546
52039W        W18822  39.331  13.076   3.739
52040W        W18823  43.781  39.616  10.456
52041W        W18824  26.645  20.135   4.562
52042W        W18825  40.049  21.107   0.825
52043W        W18826  35.792  41.550   0.155
52044W        W18827   6.515   3.439  12.820
52045W        W18828   3.617  38.102  11.195
52046W        W18829  33.812  21.114  10.832
52047W        W18830  22.288  38.958  12.950
52048W        W18831   9.327  14.845   2.419
52049W        W18832  40.490  16.994   0.943
52050W        W18833  12.784  44.596  13.311
52051W        W18834  37.085  35.989  14.061
52052W        W18835  36.032  14.679  11.577
52053W        W18836   4.245  31.531   0.937
52054W        W18837  30.746  11.140  14.327
52055W        W18838  22.681  28.371  13.081
52056W        W18839  29.727  32.200   4.546
52057W        W18840  23.743  40.107   1.257
52058W        W18841   9.348  36.606   1.792
52059W        W18842  28.032  39.617  14.554
52060W        W18843  30.078  16.038   1.263
52061W        W18844  33.926  44.398  10.763
52062W        W18845  33.365  43.826   2.839
52063W        W18846  41.537  33.086   4.657
52064W        W18847  44.248  41.957  12.845
52065W        W18848  21.075  14.850  11.204
52066W        W18849  33.502   7.821   2.821
52067W        W18850  34.806  31.400   4.636
52068W        W18851  29.048   0.042   2.728
52069W        W18852  14.676  21.225  14.509
52070W        W18853   9.796  26.520   2.441
52071W        W18854   6.458  29.090  12.479
52072W        W18855   4.922  26.469  12.879
52073W        W18856  13.101  10.776   5.652
52074W        W18857   5.415   0.387   3.700
52075W        W18858  19.473  21.189   1.666
52076W        W18859  40.834  24.596  13.942
52077W        W18860  32.303  19.730  14.719
52078W        W18861  38.347  17.094  12.419
52079W        W18862  14.933   5.219   3.366
52080W        W18863  19.972  42.425   2.684
52081W        W18864   3.005  14.838  13.860
52082W        W18865  29.730   7.788   4.176
52083W        W18866  33.164   9.167   2.708
52084W        W18867   8.826  36.449  12.484
52085W        W18868  16.086   1.730  12.836
52086W        W18869  11.651  17.316  12.078
52087W        W18870  37.898  42.530  10.720
52088W        W18871  16.703   4.716  12.545
52089W        W18872  23.946  21.050  10.281
52090W        W18873  26.562  17.700   1.728
52091W        W18874  24.024  23.714  14.778
52092W        W18875  43.445  28.377   4.154
52093W        W18876  31.725  44.719   2.649
52094W        W18877  11.214  28.728  13.888
52095W        W18878  42.939  10.787   5.419
52096W        W18879  12.667  15.188  13.724
52097W        W18880  11.359  18.123  14.794
52098W        W18881  41.287  17.563   3.662
52099W        W18882   1.436  15.859   2.399
52100W        W18883   6.352  16.412   3.312
52101W        W18884   6.202  15.504   0.025
52102W        W18885  42.893  29.394   3.667
52103W        W18886   3.709  34.939  13.745
52104W        W18887  34.375  15.718  13.983
52105W        W18888   4.573   2.642   1.752
52106W        W18889  27.938  29.167  13.063
52107W        W18890   1.462  10.177  13.784
52108W        W18891  33.885   3.863  11.901
52109W        W18892  18.563   9.675  12.630
52110W        W18893   9.581  26.096   2.232
52111W        W18894  14.089  22.954   3.163
52112W        W18895  10.346   2.240  11.927
52113W        W18896  15.168  27.400   0.884
52114W        W18897  11.401  36.033  14.833
52115W        W18898  15.280  44.657  13.000
52116W        W18899  38.944   9.440   3.589
52117W        W18900   9.025  31.515  14.863
52118W        W18901  14.054  29.845  10.788
52119W        W18902  27.527  13.078   1.979
52120W        W18903  24.054  20.307   3.056
52121W        W18904   4.380  22.695   1.863
52122W        W18905  23.474   0.308   3.744
52123W        W18906  17.543  33.023   2.055
52124W        W18907  26.950  37.418   1.013
52125W        W18908  30.612   9.686   2.353
52126W        W18909  37.862   1.872  11.099
52127W        W18910  29.557   9.281   4.693
52128W        W18911  27.493  28.902  10.649
52129W        W18912  41.119  21.137   1.840
52130W        W18913  41.832  30.919   4.030
52131W        W18914  21.168  19.110  11.538
52132W        W18915  26.786   3.961   1.776
52133W        W18916  33.437  10.342  10.968
52134W        W18917  28.026   9.196   1.223
52135W        W18918  41.009  26.684  11.124
52136W        W18919  39.326   9.820   3.626
52137W        W18920  20.571  42.890   3.741
52138W        W18921  12.882  30.407   0.343
52139W        W18922  18.549  27.926  14.081
52140W        W18923  15.356  32.994   3.233
52141W        W18924  39.564   3.432  10.689
52142W        W18925  15.182   1.823  12.114
52143W        W18926  22.846   7.306   0.513
52144W        W18927   2.549  19.256  13.001
52145W        W18928  30.449  28.730   0.871
52146W        W18929   4.304  20.397  12.984
52147W        W18930  11.070  11.210   0.222
52148W        W18931  11.422   9.146   1.211
52149W        W18932  34.114  16.903  10.661
52150W        W18933   0.849   5.824  14.704
52151W        W18934  20.083  15.246  12.508
52152W        W18935  15.420   7.174  14.823
52153W        W18936   3.888  13.161  14.762
52154W        W18937   9.140   0.410  10.542
52155W        W18938  31.656  40.514   2.451
52156W        W18939  18.313   8.331  10.522
52157W        W18940  11.244  23.439  11.904
52158W        W18941   6.316  18.015  11.266
52159W        W18942   3.272  19.790  11.972
52160W        W18943  29.627   0.992   3.765
52161W        W18944  30.508  36.151   4.874
52162W        W18945  29.137   8.112  13.784
52163W        W18946  29.886   7.696   1.727
52164W        W18947  24.753  41.457  13.105
52165W        W18948  16.025  15.179   0.799
52166W        W18949  44.902  21.233  14.203
52167W        W18950  24.083  14.487   1.816
52168W        W18951  22.565   0.438  11.426
52169W        W18952  15.915  42.986   2.386
52170W        W18953  26.595  22.811   1.532
52171W        W18954   5.831  15.785  11.155
52172W        W18955  31.073  40.396   2.643
52173W        W18956  37.032  12.211  13.540
52174W        W18957  30.416  21.951  12.893
52175W        W18958  31.936  32.606  14.509
52176W        W18959   5.517  35.244   1.983
52177W        W18960  10.261  24.334  14.411
52178W        W18961  20.719  26.056   2.438
52179W        W18962  37.902   5.992   0.776
52180W        W18963  17.669   5.578  13.326
52181W        W18964  34.607  19.635  13.344
52182W        W18965  44.094  44.481  13.705
52183W        W18966  34.591  38.860   3.128
52184W        W18967  15.805   9.196  10.599
52185W        W18968  27.096  36.060  12.634
52186W        W18969  23.481  12.283   4.567
52187W        W18970  30.472  25.635   1.325
52188W        W18971  28.636  34.031   1.958
52189W        W18972  19.092  19.288  10.917
52190W        W18973  35.351  38.930  13.564
52191W        W18974  41.745  44.193   4.088
52192W        W18975  12.356  26.335  14.802
52193W        W18976  14.858   8.803   3.172
52194W        W18977  17.448   6.836   0.169
52195W        W18978  12.881  43.439   3.315
52196W        W18979  37.103  26.295   3.769
52197W        W18980  16.796  39.548   3.233
52198W        W18981   7.979   4.004  10.695
52199W        W18982  26.480   4.235   0.426
52200W        W18983  34.114  38.835   1.386
52201W        W18984   4.290  34.815   2.337
52202W        W18985  11.037  18.259   3.296
52203W        W18986  16.253  25.553   2.292
52204W        W18987  35.910  33.872   3.714
52205W        W18988  19.483   3.287   0.320
52206W        W18989   5.204  39.493   1.299
52207W        W18990  41.523   1.706  10.749
52208W        W18991  31.425  27.994  11.117
52209W        W18992  25.126  34.529  14.858
52210W        W18993  38.395  16.019  14.079
52211W        W18994  19.018  25.746  14.566
52212W        W18995  23.006  11.712   3.831
52213W        W18996  12.247   5.398   4.139
52214W        W18997  13.152  20.721   3.630
52215W        W18998  15.878  37.098  12.434
52216W        W18999  44.150   8.696   3.630
52217W        W19000   9.063  36.356  10.993
52218W        W19001   5.770  20.194  13.407
52219W        W19002   1.964  12.347   2.849
52220W        W19003  37.582   2.514  12.580
52221W        W19004  33.503   2.902   4.427
52222W        W19005  14.347  35.406  14.346
52223W        W19006  26.719  26.901   4.065
52224W        W19007  26.718  28.659   0.522
52225W        W19008  17.277   1.291   4.552
52226W        W19009  20.752  12.498  13.666
52227W        W19010  19.194   6.002  11.641
52228W        W19011  28.199  31.407  14.811
52229W        W19012   8.399  39.304  14.853
52230W        W19013   8.624  41.751   3.212
52231W        W19014   9.603   6.739   4.968
52232W        W19015  44.301  31.491  13.075
52233W        W19016  40.243  36.519   1.432
52234W        W19017  36.528  26.671  10.828
52235W        W19018  43.825  42.356  14.391
52236W        W19019  26.790  23.284   2.799
52237W        W19020   7.941   4.589  12.951
52238W        W19021   6.382  38.053  11.231
52239W        W19022  22.102  22.374   2.760
52240W        W19023  24.490  20.632  12.606
52241W        W19024  33.616   1.194  11.620
52242W        W19025  44.954  30.376  12.734
52243W        W19026  30.841   6.206  14.783
52244W        W19027   1.464   2.329  10.806
52245W        W19028  43.071  31.670   0.564
52246W        W19029   0.005  18.310   0.937
52247W        W19030  20.999  44.545   0.743
52248W        W19031  38.467  35.311  12.533
52249W        W19032  37.771  23.842   3.164
52250W        W19033  11.159   6.152   4.496
52251W        W19034  39.029  27.487  10.791
52252W        W19035  37.766  19.572   0.679
52253W        W19036   8.414  28.316   2.482
52254W        W19037   3.792  23.392   0.528
52255W        W19038  34.636   5.666   9.799
52256W        W19039  21.967   3.984  11.735
52257W        W19040  18.013  16.133  13.015
52258W        W19041  21.556  28.909  10.451
52259W        W19042  44.490  36.383  11.210
52260W        W19043   1.358  11.933   0.866
52261W        W19044  24.392  29.006   2.144
52262W        W19045  38.572  23.961   1.853
52263W        W19046  39.602  39.538   3.231
52264W        W19047  25.638  42.176  14.826
52265W        W19048  34.109   2.667   3.613
52266W        W19049  13.361  43.033  11.173
52267W        W19050  38.252  39.529  13.926
52268W        W19051  37.536   7.839   4.803
52269W        W19052  27.571   4.349  10.637
52270W        W19053   4.252  44.452  10.700
52271W        W19054   1.832  44.099   0.417
52272W        W19055  42.135  22.471   4.997
52273W        W19056  21.318  15.599   4.066
52274W        W19057   4.620   2.415  14.433
52275W        W19058  21.731  31.827  13.920
52276W        W19059  10.770  15.662  12.516
52277W        W19060  44.658  34.126   3.951
52278W        W19061  43.103  13.677   0.405
52279W        W19062  30.036  18.548  11.429
52280W        W19063  34.464  15.267   4.407
52281W        W19064  29.827   9.107  14.804
52282W        W19065  17.092  25.979  11.862
52283W        W19066  30.219  25.158  10.973
52284W        W19067   7.652  18.689  12.586
52285W        W19068   9.422   9.332  11.250
52286W        W19069  14.146  35.956   3.208
52287W        W19070  16.826  29.199   2.123
52288W        W19071   0.760  10.221   0.925
52289W        W19072  31.414  41.468  14.433
52290W        W19073  22.688  20.934  13.212
52291W        W19074   9.861  41.609   4.687
52292W        W19075   7.345  42.762  14.534
52293W        W19076  11.235   2.645   3.885
52294W        W19077  21.436  32.571   0.887
52295W        W19078  32.551  18.572  11.937
52296W        W19079  10.274   3.409  13.728
52297W        W19080  23.080  26.044   3.998
52298W        W19081  23.028  16.800  12.969
52299W        W19082  27.895  43.298  13.014
52300W        W19083  34.480  18.533  11.447
52301W        W19084  27.882  15.355   2.844
52302W        W19085   2.619  28.031   3.354
52303W        W19086  29.740  15.374   0.325
52304W        W19087  14.083  12.627   2.328
52305W        W19088  39.329   2.066  14.006
52306W        W19089   4.198   3.726  13.965
52307W        W19090  26.110  40.684   4.447
52308W        W19091  21.193  24.764   2.120
52309W        W19092   6.173  38.899   0.808
52310W        W19093  43.822   0.952  12.963
52311W        W19094  37.887  34.080   0.085
52312W        W19095  13.224  18.711  12.640
52313W        W19096   9.574  26.117  12.150
52314W        W19097  37.604  43.539   1.374
52315W        W19098  27.484   3.833   4.810
52316W        W19099   3.549   1.271   1.324
52317W        W19100   1.795   9.983   5.138
52318W        W19101  25.726  20.088  14.795
52319W        W19102  31.460  10.653   3.452
52320W        W19103  25.226  10.610   1.942
52321W        W19104  16.670   5.718  12.632
52322W        W19105   4.361   5.750   0.632
52323W        W19106  25.900  30.027   0.755
52324W        W19107   8.790  26.445   0.287
52325W        W19108   7.817  39.529  12.169
52326W        W19109  26.487  16.555   0.694
52327W        W19110  29.460  10.355  13.929
52328W        W19111  37.890  32.265  11.830
52329W        W19112   3.643   1.721  12.470
52330W        W19113  25.390  11.984  12.926
52331W        W19114  15.827  43.818   4.905
52332W        W19115  15.771   4.274  14.517
52333W        W19116  11.746  12.634   0.006
52334W        W19117  31.124  41.040   3.859
52335W        W19118   5.382  28.218   3.743
52336W        W19119  16.903  35.428   4.351
52337W        W19120  40.123  19.762  11.944
52338W        W19121  40.317  14.077   3.783
52339W        W19122  21.120  26.447   4.999
52340W        W19123  16.496   1.859   1.474
52341W        W19124  41.023  27.181  14.288
52342W        W19125  42.851  37.383   3.069
52343W        W19126   0.549  21.756  14.401
52344W        W19127  37.098  28.901  14.443
52345W        W19128  10.971  15.937   2.744
52346W        W19129  42.944  19.833  14.343
52347W        W19130  26.249  30.071  12.854
52348W        W19131   3.851   7.847   1.886
52349W        W19132  20.503  28.154  13.895
52350W        W19133  28.022   2.649   2.270
52351W        W19134  35.075  28.940  12.582
52352W        W19135  12.707   5.689   3.847
52353W        W19136  13.174  17.105  12.927
52354W        W19137  24.222   7.467  14.005
52355W        W19138  10.220  33.405  11.615
52356W        W19139  12.805   3.776  14.358
52357W        W19140   8.399  35.921   0.992
52358W        W19141  24.910   7.113   2.878
52359W        W19142  40.387  36.059   1.212
52360W        W19143  21.025  16.351   0.512
52361W        W19144  13.185  19.217   4.545
52362W        W19145  37.296  14.117   1.280
52363W        W19146  44.720  34.534  11.141
52364W        W19147   8.162   7.768  10.384
52365W        W19148   2.701  38.003  11.877
52366W        W19149   4.319   0.055   1.280
52367W        W19150  15.211  26.505   4.925
52368W        W19151   1.153  32.392   3.206
52369W        W19152  15.595  12.625  11.666
52370W        W19153   7.666  25.273   0.201
52371W        W19154  39.512  22.570   2.679
52372W        W19155   3.316  41.506   0.597
52373W        W19156  23.974  10.189   3.707
52374W        W19157   1.406  43.331  12.133
52375W        W19158  38.105  35.104   4.130
52376W        W19159   3.133   1.737   1.957
52377W        W19160  13.082   8.606   1.613
52378W        W19161  40.571   6.636   2.173
52379W        W19162  33.408   1.793   0.314
52380W        W19163  41.999   5.363  10.457
52381W        W19164   4.164   7.875  13.894
52382W        W19165  43.338  32.399   3.629
52383W        W19166  22.186  12.347  13.932
52384W        W19167  25.132  15.994   0.874
52385W        W19168   2.784  30.641   3.166
52386W        W19169   6.192  35.567   0.791
52387W        W19170  42.277  34.884   3.727
52388W        W19171  37.910  40.473  13.613
52389W        W19172  33.877   2.029  12.197
52390W        W19173  30.000  18.296  14.473
52391W        W19174   5.316   5.442   1.673
52392W        W19175  41.599  30.575  11.123
52393W        W19176  20.704  18.116   4.577
52394W        W19177   0.052  23.619  11.401
52395W        W19178  38.094  22.475   1.458
52396W        W19179   2.287  44.275  13.477
52397W        W19180  20.683   5.994   2.194
52398W        W19181  29.947  36.800  12.515
52399W        W19182  12.681   9.462  11.664
52400W        W19183  29.215  20.036  10.567
52401W        W19184   2.176  31.459  12.446
52402W        W19185  39.416  39.253  11.051
52403W        W19186   3.708  23.789   3.321
52404W        W19187  20.185   6.266   2.213
52405W        W19188  22.706  44.555  11.415
52406W        W19189  12.645  16.847  14.325
52407W        W19190  20.618  19.827   3.848
52408W        W19191  28.336  18.637  14.628
52409W        W19192   0.913  42.029   2.242
52410W        W19193  35.487  38.426   3.426
52411W        W19194   7.259   9.007  10.347
52412W        W19195   3.979  31.521   0.294
52413W        W19196  29.188  40.290  12.057
52414W        W19197  11.828  32.702  10.618
52415W        W19198  14.703  21.084  11.725
52416W        W19199  18.603   4.820   5.057
52417W        W19200  28.107  43.448  11.704
52418W        W19201  14.056  22.113   0.457
52419W        W19202  14.379   2.232   3.305
52420W        W19203  10.256  24.478   3.881
52421W        W19204  20.866  16.864  12.022
52422W        W19205  10.419  32.919   1.763
52423W        W19206  43.240   7.571   1.449
52424W        W19207  34.665  37.023  11.307
52425W        W19208  34.567  28.658  11.478
52426W        W19209   0.622   3.756   3.192
52427W        W19210  10.086   1.869   3.390
52428W        W19211  15.846  28.356  12.037
52429W        W19212  20.495   2.027  11.117
52430W        W19213  40.469  30.149  10.781
52431W        W19214   2.933  25.195   3.593
52432W        W19215  44.762  23.450  11.000
52433W        W19216   5.228   2.855   0.222
52434W        W19217  33.879  24.155   5.527
52435W        W19218  43.826  40.638   4.174
52436W        W19219  39.137  10.507  11.857
52437W        W19220  12.153  12.288  13.468
52438W        W19221  29.476   9.119   0.212
52439W        W19222  33.546  41.899   3.609
52440W        W19223  29.121  36.858  11.257
52441W        W19224   9.534  21.034   2.300
52442W        W19225  26.136  23.177   2.232
52443W        W19226  36.668  15.222   0.822
52444W        W19227  21.136  43.787   0.353
52445W        W19228  43.965  13.159  14.387
52446W        W19229   7.800  23.697  12.071
52447W        W19230  36.041  27.108  13.774
52448W        W19231  25.556   7.173  11.637
52449W        W19232   9.500  41.810  12.846
52450W        W19233  22.065   7.978   1.054
52451W        W19234  36.888  15.354   3.719
52452W        W19235   6.914  41.813  12.162
52453W        W19236   2.005   6.872   0.527
52454W        W19237  18.707   9.395  13.947
52455W        W19238  25.563   6.061   4.141
52456W        W19239  38.636  17.218   3.703
52457W        W19240   1.820  38.719  10.583
52458W        W19241   3.680  19.496   3.777
52459W        W19242  23.568  11.265   4.840
52460W        W19243  37.050  42.856  12.064
52461W        W19244  13.432  21.249   4.533
52462W        W19245  17.159  10.189  11.507
52463W        W19246  42.014  12.119  12.128
52464W        W19247  38.817  22.476  10.552
52465W        W19248  34.168  23.350   5.370
52466W        W19249  25.665   1.891   2.254
52467W        W19250  15.100   1.272  11.203
52468W        W19251  10.835   1.977  10.739
52469W        W19252   8.184  22.239   1.291
52470W        W19253   5.421  11.313   4.665
52471W        W19254  31.459  44.684   4.972
52472W        W19255  26.707   5.210  12.903
52473W        W19256   3.472  26.707   4.205
52474W        W19257  44.411   5.869  13.655
52475W        W19258   8.567  12.199  13.567
52476W        W19259  33.898   9.201   4.132
52477W        W19260   2.854  23.322  12.517
52478W        W19261   6.928  19.803  13.865
52479W        W19262  25.954  43.268   4.950
52480W        W19263  14.436   9.384   5.407
52481W        W19264  31.133  10.145  11.630
52482W        W19265   4.671  24.706  12.410
52483W        W19266  44.431  20.087   2.899
52484W        W19267   2.400   1.187   3.701
52485W        W19268  35.966  34.161  14.273
52486W        W19269  38.391  18.198  13.970
52487W        W19270  36.659  22.128   1.283
52488W        W19271  44.819  21.382   4.760
52489W        W19272  32.186  41.911   4.778
52490W        W19273  26.765  29.672  12.023
52491W        W19274   5.722  21.093  11.998
52492W        W19275  36.759  30.545  10.780
52493W        W19276   2.770  30.117   3.209
52494W        W19277  31.390  42.392   0.322
52495W        W19278  40.235  30.661  12.461
52496W        W19279  40.495  33.470   2.782
52497W        W19280  44.716  31.424  14.987
52498W        W19281  42.864  36.799  13.712
52499W        W19282  40.191  14.787   0.780
52500W        W19283  37.523  27.147   1.435
52501W        W19284   5.757   4.042   0.775
52502W        W19285  32.887  10.942   3.460
52503W        W19286   1.359  11.600   2.634
52504W        W19287  21.423  24.982  11.224
52505W        W19288  38.465  33.002   3.821
52506W        W19289  14.408  13.034  12.324
52507W        W19290  16.797   8.370   1.888
52508W        W19291  16.217  10.422   1.297
52509W        W19292  44.434  30.439  10.629
52510W        W19293   8.622   5.649  13.406
52511W        W19294   0.166  37.244  10.701
52512W        W19295  33.348   6.134   3.713
52513W        W19296  15.312  41.793  10.645
52514W        W19297  22.939   1.741  11.497
52515W        W19298  14.482  31.413  14.716
52516W        W19299  16.150  32.551  10.618
52517W        W19300  40.483  15.364   4.634
52518W        W19301  18.215  16.713   5.601
52519W        W19302  42.419   9.247  10.337
52520W        W19303  25.070   2.756  13.383
52521W        W19304  43.390  36.515  10.685
52522W        W19305  16.699  20.194   1.501
52523W        W19306  33.881  43.162   0.477
52524W        W19307  26.538  24.893  11.920
52525W        W19308  18.106  39.600  11.927
52526W        W19309   8.627  26.498  11.891
52527W        W19310  38.900  44.514   4.202
52528W        W19311  43.334  30.282  14.867
52529W        W19312  27.419   6.179  12.879
52530W        W19313  12.913  40.737   0.317
52531W        W19314  18.080  29.695   2.829
52532W        W19315  27.351  31.985   0.007
52533W        W19316  32.910  33.942   0.900
52534W        W19317  12.762  11.336  11.641
52535W        W19318  23.418  21.670   1.218
52536W        W19319  44.473   2.731  11.946
52537W        W19320  25.435  29.654   2.588
52538W        W19321  13.769  41.324   1.354
52539W        W19322  32.000  43.817  14.972
52540W        W19323   7.251  43.345   3.842
52541W        W19324  25.573  20.565  12.558
52542W        W19325  25.383  12.146   1.222
52543W        W19326   2.800  11.382  10.966
52544W        W19327  17.150   9.360  13.526
52545W        W19328  14.780  32.419  13.564
52546W        W19329  10.486  21.860  10.349
52547W        W19330  41.573  37.197   2.691
52548W        W19331   2.519  44.361   4.064
52549W        W19332  33.409  30.389  13.306
52550W        W19333  19.193   4.577  10.645
52551W        W19334  26.902   5.368   1.964
52552W        W19335  22.877  39.466   4.097
52553W        W19336  10.270   8.154   1.204
52554W        W19337  14.910  33.991   4.575
52555W        W19338  43.450  25.485   4.398
52556W        W19339  43.242   9.619  10.494
52557W        W19340  43.788   9.360   0.917
52558W        W19341  42.057  31.529   1.331
52559W        W19342  24.986  26.412  11.402
52560W        W19343  23.717  43.386   9.450
52561W        W19344  39.916  37.120   3.156
52562W        W19345  24.984  24.010   0.389
52563W        W19346  33.705  18.996   3.253
52564W        W19347  36.378  13.632   2.610
52565W        W19348  21.204  20.832   0.901
52566W        W19349  36.841  19.727   2.672
52567W        W19350  13.824  30.381   1.665
52568W        W19351  43.898  27.459  13.936
52569W        W19352  32.083  23.678   1.828
52570W        W19353  23.593  33.122   2.280
52571W        W19354  39.907  18.993  12.422
52572W        W19355   9.952  42.027   3.771
52573W        W19356  20.845  39.401  10.639
52574W        W19357  34.767  20.795  12.127
52575W        W19358  26.482   2.070   2.896
52576W        W19359  12.646  28.616   1.312
52577W        W19360  36.126  36.380   1.370
52578W        W19361  37.084  43.381   0.065
52579W        W19362  14.600  38.601  14.371
52580W        W19363   9.352  10.312  14.788
52581W        W19364  39.290  24.562   0.719
52582W        W19365  28.916   5.750  10.771
52583W        W19366  19.487  25.521   4.074
52584W        W19367  16.810  14.352  12.457
52585W        W19368   7.754  38.323   0.360
52586W        W19369  18.211  11.034  12.169
52587W        W19370   9.693  41.331  12.935
52588W        W19371   6.128  30.392  11.134
52589W        W19372  23.731  44.603  11.888
52590W        W19373   2.774  20.588  14.389
52591W        W19374  12.543  31.137  14.370
52592W        W19375  17.034  34.895   1.056
52593W        W19376  39.329  40.234   0.121
52594W        W19377  23.108  15.085   2.156
52595W        W19378  32.912  35.174   0.013
52596W        W19379   1.827  26.719  13.395
52597W        W19380  35.924  16.091   4.152
52598W        W19381  41.332  28.160   3.251
52599W        W19382  43.023   3.291  14.468
52600W        W19383  44.427  31.994  12.916
52601W        W19384  27.473  36.903  14.941
52602W        W19385  29.780  24.078   3.890
52603W        W19386  22.252  44.814   4.655
52604W        W19387  43.459  40.887   1.824
52605W        W19388  39.253  38.595   3.177
52606W        W19389   2.204  18.509  11.687
52607W        W19390  44.789  36.877   1.929
52608W        W19391   7.790   3.175  11.939
52609W        W19392  33.140  24.940   3.783
52610W        W19393   2.523  24.639  10.806
52611W        W19394   8.747   4.340  13.846
52612W        W19395  34.993  42.322   1.868
52613W        W19396  39.434   4.884   4.302
52614W        W19397  33.463   3.132  10.228
52615W        W19398  35.612  40.470  10.999
52616W        W19399  26.967  23.689   2.039
52617W        W19400  20.520  24.585   1.308
52618W        W19401  13.731  10.227  14.018
52619W        W19402  33.167   8.491  10.529
52620W        W19403  44.457  34.089   2.425
52621W        W19404  30.298  36.915   1.692
52622W        W19405  11.756  33.426  13.647
52623W        W19406  33.974  32.637   2.817
52624W        W19407  10.011  38.926  14.739
52625W        W19408  26.746  32.934  11.657
52626W        W19409  39.325  40.753   3.705
52627W        W19410  33.562   2.544   1.747
52628W        W19411   2.703  32.694  14.686
52629W        W19412  14.234  18.292  14.483
52630W        W19413   7.286  42.766  12.890
52631W        W19414  24.705  18.027   3.353
52632W        W19415   7.790  18.333  14.447
52633W        W19416  44.285  12.313   3.715
52634W        W19417   0.196  18.671  12.050
52635W        W19418   4.677  32.166  12.834
52636W        W19419  31.333   9.443   2.910
52637W        W19420  38.583  38.595   4.702
52638W        W19421  41.649  29.096  14.802
52639W        W19422   0.319  14.569  13.436
52640W        W19423  41.813   6.370   4.675
52641W        W19424  27.943  24.747  11.372
52642W        W19425  35.405   9.902   3.454
52643W        W19426  25.131  13.726   4.692
52644W        W19427  34.511  15.290   0.886
52645W        W19428  41.836  19.396   3.711
52646W        W19429  32.414  20.743   3.169
52647W        W19430  40.058   8.313  13.035
52648W        W19431  32.231  39.504  13.543
52649W        W19432   8.649  34.580  11.600
52650W        W19433  19.675  31.851  12.008
52651W        W19434  30.228  13.221  11.153
52652W        W19435  10.632  19.998   1.140
52653W        W19436   5.267  32.428   2.657
52654W        W19437  33.054  32.157   4.592
52655W        W19438  11.364  44.255   2.141
52656W        W19439  17.615  29.865   3.376
52657W        W19440  26.087  12.304  13.841
52658W        W19441  37.426  26.449  13.557
52659W        W19442  14.695   4.153  12.049
52660W        W19443  10.872   9.317  11.135
52661W        W19444  25.372   5.586   4.084
52662W        W19445  31.688  19.204  12.987
52663W        W19446   0.329  11.573   4.141
52664W        W19447  16.141   5.618  14.994
52665W        W19448   6.239   5.320   3.727
52666W        W19449  26.440   7.561   4.856
52667W        W19450  26.424  28.706  10.741
52668W        W19451  11.948  25.980   2.010
52669W        W19452  24.747  42.394   2.445
52670W        W19453   9.947  37.050   1.872
52671W        W19454  39.323  34.153   1.890
52672W        W19455   4.829  15.857   2.186
52673W        W19456   0.504  39.748  12.638
52674W        W19457   5.395   9.661   4.296
52675W        W19458  10.190   9.711  11.744
52676W        W19459  27.918  29.470   1.322
52677W        W19460  24.064  38.257   2.221
52678W        W19461  32.143   5.270  10.677
52679W        W19462  22.173   8.889   1.332
52680W        W19463  25.490  34.010  13.141
52681W        W19464  28.697  32.612  12.120
52682W        W19465  17.902  36.959   3.811
52683W        W19466  22.565  27.809  12.879
52684W        W19467  44.279  24.016   3.241
52685W        W19468  12.422  41.092  14.444
52686W        W19469  32.316  37.840   1.174
52687W        W19470   7.432  16.781  12.145
52688W        W19471  24.466  23.390  12.965
52689W        W19472  30.103  29.580  13.535
52690W        W19473   0.602  28.208  13.972
52691W        W19474   8.693  25.243   3.737
52692W        W19475  19.798   4.804  14.369
52693W        W19476   5.840   3.227  14.264
52694W        W19477   7.690   6.018  11.332
52695W        W19478  34.471  30.554   1.884
52696W        W19479  28.979  44.753   4.111
52697W        W19480  35.486  29.477  14.491
52698W        W19481  17.027  19.160  11.176
52699W        W19482  12.383   1.414  11.419
52700W        W19483  19.101  15.661  13.442
52701W        W19484  32.059  40.830   2.242
52702W        W19485   1.366  20.076  10.750
52703W        W19486   3.926  15.302   1.791
52704W        W19487  36.000  39.241   0.686
52705W        W19488   6.118  26.595  13.459
52706W        W19489   8.827  14.878   4.522
52707W        W19490  44.692   0.585  13.412
52708W        W19491  31.051  18.537   0.791
52709W        W19492   3.515  23.316  13.460
52710W        W19493  43.315  29.497  12.167
52711W        W19494  17.640  44.038  11.520
52712W        W19495  23.577  39.339  13.842
52713W        W19496  37.851  34.003   1.107
52714W        W19497  38.033   2.489  13.552
52715W        W19498  13.149  26.426   1.670
52716W        W19499  17.832  41.363   1.065
52717W        W19500  11.285  29.396   0.310
52718W        W19501   1.756  23.590   2.231
52719W        W19502  16.671   6.502   4.966
52720W        W19503  25.501  28.975  11.545
52721W        W19504  21.622  16.156  10.647
52722W        W19505  35.138  38.602  14.624
52723W        W19506  18.500  43.046   0.429
52724W        W19507   3.823  39.278  11.696
52725W        W19508  44.115  41.402  12.568
52726W        W19509  12.939  19.875  14.556
52727W        W19510  19.207  37.880   1.200
52728W        W19511   0.635   5.189   3.349
52729W        W19512  15.193  24.955   2.238
52730W        W19513  34.915  33.377   4.923
52731W        W19514  10.884  36.144   4.688
52732W        W19515  31.406  24.646  13.869
52733W        W19516  20.055  14.084  13.510
52734W        W19517  33.102  21.321   0.959
52735W        W19518  43.242  21.604  10.488
52736W        W19519   4.796  43.620  10.234
52737W        W19520  34.622  40.938  13.458
52738W        W19521   9.106  40.843  11.076
52739W        W19522   2.961  20.096  12.997
52740W        W19523  43.041   7.761  11.162
52741W        W19524   5.706  21.040  11.073
52742W        W19525  12.636  35.356   4.590
52743W        W19526   7.667  14.777  11.160
52744W        W19527  14.908  28.122  13.888
52745W        W19528  25.941   7.373  10.426
52746W        W19529  20.792  44.271   4.525
52747W        W19530   4.564  35.078  11.967
52748W        W19531  19.068  21.318  14.484
52749W        W19532  12.540  31.901   4.578
52750W        W19533  44.657  27.735   0.985
52751W        W19534  31.497  16.283   0.341
52752W        W19535  34.402  36.925   1.353
52753W        W19536  44.373  15.809  11.496
52754W        W19537  26.639  36.556  12.442
52755W        W19538   5.889   6.701   2.726
52756W        W19539  37.304  25.246   1.335
52757W        W19540   6.409  32.043  12.043
52758W        W19541  44.813  36.979   4.636
52759W        W19542  36.504  30.757  11.212
52760W        W19543  24.492   1.443   1.008
52761W        W19544  28.503   9.616   3.674
52762W        W19545  25.656  30.344  11.961
52763W        W19546  24.446  32.531  13.953
52764W        W19547  39.884  25.088  14.695
52765W        W19548  33.638  15.311  13.177
52766W        W19549   7.436   3.790   1.456
52767W        W19550  19.544   8.775   1.180
52768W        W19551  19.041  16.649   3.686
52769W        W19552  23.599   5.034  13.492
52770W        W19553  42.347   1.621  12.948
52771W        W19554  44.325   4.331  11.132
52772W        W19555  26.116  30.648  10.694
52773W        W19556  35.355  33.884   3.317
52774W        W19557  42.816  15.401   0.584
52775W        W19558   8.656  36.856   2.994
52776W        W19559  14.252  32.612  12.850
52777W        W19560  19.236  11.196  14.739
52778W        W19561   1.181  24.710  11.734
52779W        W19562  15.589  38.913  14.274
52780W        W19563  32.437  36.573   4.313
52781W        W19564   4.467  43.899   2.350
52782W        W19565  25.962   0.023  14.280
52783W        W19566   1.843   9.786  12.657
52784W        W19567  38.833  35.152  14.561
52785W        W19568  16.670  10.375  11.541
52786W        W19569   3.999  19.870  11.521
52787W        W19570  38.183  17.598  12.375
52788W        W19571  38.392   0.227  11.138
52789W        W19572  22.890  41.064   0.193
52790W        W19573  13.824  34.885   9.819
52791W        W19574  30.929   2.470   4.589
52792W        W19575   1.969  21.060   4.492
52793W        W19576  19.025  29.393  13.041
52794W        W19577  30.154  41.072  12.967
52795W        W19578  20.064  29.329   4.084
52796W        W19579  12.061  37.136  11.447
52797W        W19580  13.724  12.076  13.872
52798W        W19581  17.542  14.792  13.509
52799W        W19582   2.876   4.000   2.302
52800W        W19583  30.353  11.816  11.155
52801W        W19584  27.012   6.803   0.741
52802W        W19585   8.000  13.186   1.545
52803W        W19586   9.244  28.875  14.552
52804W        W19587  33.990  29.454  11.384
52805W        W19588  23.123   9.566  14.982
52806W        W19589  43.806  16.344   3.686
52807W        W19590  14.436  16.078   3.768
52808W        W19591   4.713   5.831   1.008
52809W        W19592   4.925  40.942  11.188
52810W        W19593  10.733  30.048   4.707
52811W        W19594  16.000  38.669  12.563
52812W        W19595  44.666  15.895  12.486
52813W        W19596   9.229  20.696   4.130
52814W        W19597   5.443  10.813  13.110
52815W        W19598  41.130  43.563   3.604
52816W        W19599  27.704   9.494   0.899
52817W        W19600  20.912  24.988   4.606
52818W        W19601   3.637  15.163   2.198
52819W        W19602  16.932  26.604   1.296
52820W        W19603  27.342  19.999  13.778
52821W        W19604   8.198   6.270   1.442
52822W        W19605  15.138  32.581  11.878
52823W        W19606   6.324  38.414   0.760
52824W        W19607  34.820  41.174  13.867
52825W        W19608  26.067  29.536   2.183
52826W        W19609  19.261  11.751  11.633
52827W        W19610   1.691  27.282   4.597
52828W        W19611  12.388   9.885  12.431
52829W        W19612   6.403  35.046   1.687
52830W        W19613   5.044  20.740  14.404
52831W        W19614  28.465  30.651   0.351
52832W        W19615  23.549  41.466   1.641
52833W        W19616  40.488  13.139   3.531
52834W        W19617  42.411  27.542   2.905
52835W        W19618  14.857  35.479   4.183
52836W        W19619  10.605  30.587   1.191
52837W        W19620  29.216  11.653  13.563
52838W        W19621   5.009  17.229   1.990
52839W        W19622  17.659   3.773   3.886
52840W        W19623  43.496  32.571   2.617
52841W        W19624  14.606  26.410  10.794
52842W        W19625   8.626  24.761  12.969
52843W        W19626   4.008  23.008   0.235
52844W        W19627  10.215  16.562   0.375
52845W        W19628   4.318  39.864   3.616
52846W        W19629  21.836   9.916  11.344
52847W        W19630   2.421  22.172  14.088
52848W        W19631  42.183  38.378  11.993
52849W        W19632   3.256   4.355   3.809
52850W        W19633  24.835   8.781  11.252
52851W        W19634  18.544  20.548  14.839
52852W        W19635  11.369   0.750  14.874
52853W        W19636  28.237  40.004  11.481
52854W        W19637   7.837  38.481  12.000
52855W        W19638  38.875  19.409  10.721
52856W        W19639  19.353  33.037   4.128
52857W        W19640  36.355  23.636   4.521
52858W        W19641  24.408  43.855   2.319
52859W        W19642   9.672  19.644  14.475
52860W        W19643  26.821  43.831   9.902
52861W        W19644  40.970  42.978  14.385
52862W        W19645  11.348  24.025  10.726
52863W        W19646  29.449  32.423  12.495
52864W        W19647  20.250  27.114   1.663
52865W        W19648  29.967  37.849   1.493
52866W        W19649  30.588   6.401   3.340
52867W        W19650  35.810  30.257  11.522
52868W        W19651  30.013  36.077   2.425
52869W        W19652   3.439  12.148  12.944
52870W        W19653   1.610  23.168  11.792
52871W        W19654  42.482  10.794  12.059
52872W        W19655  12.118  24.056  14.541
52873W        W19656  38.073  44.186  13.334
52874W        W19657   9.247  28.393   0.466
52875W        W19658  30.947  35.265   0.698
52876W        W19659  23.070  29.705   2.140
52877W        W19660  17.625  34.233  14.209
52878W        W19661  17.161  22.618  10.702
52879W        W19662   4.851   9.146  12.797
52880W        W19663  40.112  42.495   0.182
52881W        W19664  18.826   7.592   4.072
52882W        W19665   5.838   6.395   1.731
52883W        W19666  30.725  14.449  11.181
52884W        W19667   7.170  43.528   1.224
52885W        W19668  12.185  41.924   3.726
52886W        W19669   4.357  29.489   0.204
52887W        W19670  36.620  16.560  10.753
52888W        W19671  24.294  29.061  10.612
52889W        W19672  20.710   6.688   4.162
52890W        W19673  43.999   3.168   1.358
52891W        W19674  40.775  42.235  12.016
52892W        W19675  23.830   3.443  12.460
52893W        W19676  32.428  31.711  12.523
52894W        W19677  11.639   5.462  12.960
52895W        W19678  26.124  34.034  11.229
52896W        W19679  44.941  23.027  10.756
52897W        W19680  32.062  22.421   1.882
52898W        W19681  22.415  14.079   3.740
52899W        W19682  19.748  34.180   2.678
52900W        W19683  41.449  40.823  11.199
52901W        W19684  24.564  17.033   4.573
52902W        W19685  37.069  33.512   1.789
52903W        W19686  29.477  12.514   4.455
52904W        W19687  43.313  10.599   2.329
52905W        W19688  41.459   3.357   0.682
52906W        W19689  18.525   9.399   4.507
52907W        W19690  42.978  18.173  13.228
52908W        W19691  32.328   0.761   5.269
52909W        W19692  26.921  38.071   3.186
52910W        W19693  14.878  10.691   0.206
52911W        W19694   9.908  24.127  12.529
52912W        W19695  37.340  24.390  14.268
52913W        W19696  18.253  25.361   4.293
52914W        W19697  39.740  22.100   2.721
52915W        W19698  23.729  11.845  13.620
52916W        W19699  28.991  14.091   2.596
52917W        W19700  32.427   5.460  11.117
52918W        W19701  10.896   6.711   1.851
52919W        W19702   1.855  27.077  10.716
52920W        W19703  36.148  33.020  13.327
52921W        W19704  38.966   4.896   4.499
52922W        W19705  40.341  33.595   5.032
52923W        W19706  40.696  35.356   0.313
52924W        W19707  44.560  22.994  11.995
52925W        W19708  38.475  25.116  13.818
52926W        W19709  13.194  12.297  10.483
52927W        W19710  11.342  20.273   3.659
52928W        W19711  17.745  40.783  14.839
52929W        W19712  10.467  18.563   2.443
52930W        W19713  37.433  41.970  12.262
52931W        W19714  30.152  38.367   0.360
52932W        W19715  27.929   2.505  13.840
52933W        W19716   3.229  14.720  11.590
52934W        W19717  32.925  26.264  12.989
52935W        W19718  25.799  43.433  13.939
52936W        W19719  32.517   3.327  12.655
52937W        W19720  35.122  10.657  12.047
52938W        W19721   0.648  14.225  12.030
52939W        W19722  38.782  17.560   1.357
52940W        W19723   5.864  36.855   0.965
52941W        W19724   3.937  24.966  11.219
52942W        W19725  32.587  28.360  13.097
52943W        W19726  25.447  38.296   3.217
52944W        W19727  16.254  17.672  12.642
52945W        W19728  24.421   9.888  11.572
52946W        W19729   8.770  34.969  10.588
52947W        W19730   0.027  41.419   3.199
52948W        W19731  44.144  28.360  11.049
52949W        W19732  34.495  31.539   3.288
52950W        W19733   6.367  40.053  10.234
52951W        W19734  14.981   4.169   3.106
52952W        W19735   4.341  18.370   0.337
52953W        W19736  25.982  28.444   1.410
52954W        W19737  14.055   3.303   4.222
52955W        W19738  24.285  28.124   4.516
52956W        W19739  26.421  24.628   3.365
52957W        W19740  28.864  36.849   3.661
52958W        W19741  15.787  12.631   1.791
52959W        W19742  12.774   9.811  12.060
52960W        W19743  16.342  26.798  13.366
52961W        W19744  31.118  10.775  14.320
52962W        W19745   4.445   3.759  11.463
52963W        W19746  35.091  21.181   3.190
52964W        W19747  24.118  37.351  14.507
52965W        W19748  39.043   3.215  13.359
52966W        W19749   3.769  28.236  11.810
52967W        W19750   7.692  13.744  11.176
52968W        W19751  23.512  24.767   3.233
52969W        W19752   6.287  35.886   3.381
52970W        W19753   3.760  41.999  12.106
52971W        W19754  44.537  42.434  11.229
52972W        W19755  29.644  21.342  13.587
52973W        W19756   2.408  11.122  11.218
52974W        W19757  33.557  21.242   3.982
52975W        W19758   6.647  19.558  13.510
52976W        W19759   8.602  22.555   0.470
52977W        W19760  32.551  21.993   2.628
52978W        W19761   8.361  11.944  11.235
52979W        W19762  38.042   2.320   1.279
52980W        W19763   5.396  34.217   0.885
52981W        W19764  27.606  14.740   3.202
52982W        W19765  42.609  29.063   9.967
52983W        W19766  15.804  42.901   4.701
52984W        W19767  38.807  31.230   1.632
52985W        W19768  27.540  31.729   4.169
52986W        W19769  33.521  41.517   4.268
52987W        W19770  31.024   4.732   0.358
52988W        W19771  21.685  39.721   4.541
52989W        W19772  27.239   6.703  12.896
52990W        W19773   9.066  12.580  13.009
52991W        W19774  14.581  22.375  12.094
52992W        W19775  12.620   8.867  12.490
52993W        W19776  18.599  35.994  11.583
52994W        W19777  23.589  11.409   0.909
52995W        W19778  21.044  24.603  14.485
52996W        W19779  14.262   0.851  13.384
52997W        W19780  42.505  38.855  11.348
52998W        W19781  37.842  12.884   1.340
52999W        W19782   4.930  14.387  10.984
53000W        W19783   7.612  25.294  12.940
53001W        W19784  27.641  27.814   0.940
53002W        W19785   7.410  36.043   1.767
53003W        W19786  17.784   2.277   2.266
53004W        W19787  36.893  23.406   2.912
53005W        W19788  32.692  24.826  14.523
53006W        W19789  10.884  42.966   0.543
53007W        W19790   5.358  41.587  13.941
53008W        W19791  40.529  21.306   4.642
53009W        W19792  32.163  18.234   2.850
53010W        W19793  19.128  22.422   3.891
53011W        W19794  17.014   0.379   1.724
53012W        W19795  30.942  32.629   3.811
53013W        W19796   6.517   9.721   2.607
53014W        W19797  17.689   4.439  10.525
53015W        W19798  22.015   8.638   0.909
53016W        W19799   1.238  16.631   4.575
53017W        W19800  29.994  28.041   0.313
53018W        W19801   6.801  13.279  14.346
53019W        W19802  30.099   6.023  12.417
53020W        W19803  40.023   1.018  14.465
53021W        W19804  22.915   1.753   4.948
53022W        W19805   4.253  34.649  14.887
53023W        W19806  41.032  25.543   2.367
53024W        W19807   0.194  36.612  13.590
53025W        W19808  12.743  39.370  13.080
53026W        W19809  39.464  38.104   1.380
53027W        W19810   1.654  27.934  14.765
53028W        W19811  15.982  26.994   3.923
53029W        W19812  29.142  43.029  14.043
53030W        W19813   8.852  33.970   1.374
53031W        W19814  44.386   5.730   3.329
53032W        W19815   3.224  14.831  10.750
53033W        W19816   2.262  33.712   3.180
53034W        W19817  13.246   9.240  14.865
53035W        W19818  30.518  20.300  13.901
53036W        W19819  18.798  36.459  11.489
53037W        W19820  21.997  26.741   0.465
53038W        W19821  36.879  26.155  11.490
53039W        W19822   0.745  34.940  11.619
53040W        W19823   5.346  13.846   0.046
53041W        W19824  17.516  19.746   1.440
53042W        W19825  20.547  31.253   2.715
53043W        W19826  39.652  40.255  12.834
53044W        W19827  16.060   9.378   2.229
53045W        W19828  17.281   4.006   0.286
53046W        W19829  17.522  35.301   2.422
53047W        W19830  25.799   1.735   0.123
53048W        W19831  26.363  16.505  13.313
53049W        W19832  11.555  24.878   3.429
53050W        W19833   3.288  23.498   3.162
53051W        W19834   4.410  36.536  12.798
53052W        W19835  26.473   7.349  11.558
53053W        W19836  38.453  20.157   4.054
53054W        W19837  14.982  34.093  11.527
53055W        W19838   9.778  35.483   1.199
53056W        W19839  17.632   2.999  11.613
53057W        W19840  28.993  11.557   2.202
53058W        W19841  11.239  31.125  11.025
53059W        W19842  18.560  12.692  13.745
53060W        W19843  26.098   8.665   4.616
53061W        W19844  31.183  33.054  13.020
53062W        W19845  39.236   2.714   0.306
53063W        W19846  22.258  33.979  13.017
53064W        W19847  18.916  40.386   2.372
53065W        W19848  22.186  20.548   1.628
53066W        W19849   0.966  11.104   3.173
53067W        W19850   8.085  42.074  14.015
53068W        W19851  21.158  31.454   4.142
53069W        W19852   3.012  16.545  10.784
53070W        W19853  18.187  29.558  12.684
53071W        W19854  36.608  27.604  12.505
53072W        W19855  42.338  15.703   2.411
53073W        W19856  30.149  39.863  11.412
53074W        W19857  23.153  32.059  13.875
53075W        W19858   1.345  35.430   4.419
53076W        W19859   6.316  12.511  14.478
53077W        W19860  14.317  17.869   4.416
53078W        W19861  36.050  15.750   1.232
53079W        W19862  16.629  33.833   4.210
53080W        W19863   1.434  21.614   1.291
53081W        W19864  30.098  44.994   2.508
53082W        W19865  10.837  12.383  11.446
53083W        W19866  33.375  15.166  11.210
53084W        W19867   4.353  27.084  14.431
53085W        W19868   6.128  22.345   0.364
53086W        W19869  22.628  36.536  13.564
53087W        W19870  39.447   1.545  13.136
53088W        W19871  32.549  35.642   4.154
53089W        W19872  44.446  23.147   4.996
53090W        W19873  21.464  27.313   2.886
53091W        W19874  18.941  40.328   0.639
53092W        W19875  25.508  10.897  14.413
53093W        W19876  31.027  17.619  12.576
53094W        W19877  12.673  12.248   0.316
53095W        W19878  33.427  12.432   4.557
53096W        W19879  21.894   1.012   4.907
53097W        W19880   7.371  38.592  13.320
53098W        W19881  25.366  25.331  10.683
53099W        W19882   6.163  18.913  11.620
53100W        W19883  14.590   8.843   2.202
53101W        W19884  22.137  44.772   0.263
53102W        W19885  15.966  26.138  11.223
53103W        W19886  18.672   1.734   2.991
53104W        W19887  23.042  24.618   1.065
53105W        W19888  40.692   4.448   1.908
53106W        W19889  38.005  43.172   1.316
53107W        W19890   0.284  13.777  11.223
53108W        W19891  27.215  25.430   4.253
53109W        W19892   1.719  12.351   1.508
53110W        W19893  40.998  15.848  12.773
53111W        W19894  11.547  25.521  14.962
53112W        W19895  10.300   9.701  14.947
53113W        W19896  15.775  17.820   1.217
53114W        W19897  17.519   5.847  11.918
53115W        W19898  21.649  33.945  14.897
53116W        W19899  29.265  14.719  13.729
53117W        W19900  15.220  18.147   3.861
53118W        W19901  35.890  32.660   1.758
53119W        W19902  29.071  24.467   4.348
53120W        W19903   3.176   3.421   4.581
53121W        W19904  29.557  39.424   4.169
53122W        W19905  27.632  12.073   0.028
53123W        W19906   5.899  28.858  13.685
53124W        W19907  22.383  22.421   0.699
53125W        W19908   3.757  13.289  12.362
53126W        W19909  39.772   5.412   3.475
53127W        W19910  31.729   1.542  11.293
53128W        W19911   7.030  18.696   2.132
53129W        W19912   6.804  38.465  10.722
53130W        W19913  12.820  37.813  14.632
53131W        W19914  23.520   5.155   2.436
53132W        W19915  34.548   8.124  13.364
53133W        W19916   8.847  19.289   3.422
53134W        W19917   4.395  12.073  14.347
53135W        W19918  42.377   0.483  12.634
53136W        W19919  21.032   6.923   4.622
53137W        W19920  37.788  33.058   0.059
53138W        W19921   7.680  35.367   2.730
53139W        W19922  35.595  29.847  13.546
53140W        W19923   2.687   8.932   0.022
53141W        W19924  14.853  13.192  13.737
53142W        W19925  27.603   4.341   1.685
53143W        W19926  21.947  35.006  10.772
53144W        W19927  27.941  35.643   2.750
53145W        W19928  31.103   6.648   3.209
53146W        W19929  14.619   5.474  12.993
53147W        W19930  20.564  22.467   3.603
53148W        W19931  31.011  36.052  14.462
53149W        W19932  40.804  10.899   2.113
53150W        W19933  43.003  43.817   3.046
53151W        W19934  16.613  14.360   0.378
53152W        W19935   8.565  21.589   0.699
53153W        W19936  32.474   7.665  14.891
53154W        W19937  39.822  24.946  13.879
53155W        W19938  36.872  23.508  14.398
53156W        W19939   8.255  25.272   0.988
53157W        W19940  27.190  44.080   0.297
53158W        W19941  39.849  32.224  12.066
53159W        W19942   6.770  16.136   3.192
53160W        W19943   3.880   6.227  11.762
53161W        W19944  18.657  26.796  13.463
53162W        W19945  29.477  12.356  14.026
53163W        W19946  23.831  16.293  11.122
53164W        W19947  33.452  34.712   4.155
53165W        W19948   1.449  32.252   3.957
53166W        W19949  42.543  18.144   3.742
53167W        W19950  39.039  37.084  11.094
53168W        W19951   9.976  39.225  12.606
53169W        W19952  14.902  21.975   1.325
53170W        W19953   7.216  21.868  11.582
53171W        W19954  14.424  31.808   4.111
53172W        W19955  26.921  27.872   3.004
53173W        W19956  26.045  25.144   3.604
53174W        W19957  27.497   8.531   0.744
53175W        W19958  38.106   1.822  14.288
53176W        W19959  28.318  39.706   2.378
53177W        W19960  40.389  18.540  14.788
53178W        W19961  13.838  11.124  13.503
53179W        W19962  11.345  34.032   4.548
53180W        W19963  42.114   8.161   3.895
53181W        W19964  30.997  19.037   3.368
53182W        W19965  10.053  18.422   3.742
53183W        W19966   2.795  14.848  14.381
53184W        W19967  23.342   5.267  12.132
53185W        W19968   9.146  40.760   1.268
53186W        W19969  22.717  18.793   3.526
53187W        W19970  12.290  29.026   3.057
53188W        W19971  34.079   1.660   2.708
53189W        W19972   0.742  14.783  11.277
53190W        W19973  36.707  23.034  13.525
53191W        W19974  42.008  35.114   3.350
53192W        W19975   3.735  34.987  10.734
53193W        W19976  41.483  22.056  12.762
53194W        W19977  16.236  20.646  10.961
53195W        W19978   8.759  15.379   3.030
53196W        W19979  44.682  33.470   4.608
53197W        W19980  16.475  25.530  10.746
53198W        W19981  44.619  28.192  14.199
53199W        W19982  40.894  29.631   1.953
53200W        W19983  18.505  34.201  14.671
53201W        W19984   0.697  38.023  13.662
53202W        W19985  32.829  36.812  14.283
53203W        W19986   0.361  11.549  11.546
53204W        W19987  26.416   6.296   1.145
53205W        W19988   4.189  25.526   1.179
53206W        W19989  20.514  26.441   2.007
53207W        W19990  18.973   1.543   0.008
53208W        W19991  32.113   1.947  11.444
53209W        W19992  12.133  38.954  12.865
53210W        W19993  14.260  41.400  14.281
53211W        W19994   5.592   2.708   2.023
53212W        W19995  29.378  37.532  14.858
53213W        W19996  15.652  24.207   3.702
53214W        W19997  29.274   3.438  14.228
53215W        W19998  32.139  40.498   3.889
53216W        W19999   7.925  19.750  14.040
53217W        W20000  18.096  33.175  10.483
53218W        W20001  16.238  44.818   3.756
53219W        W20002  44.885  28.443   3.258
53220W        W20003  31.459  15.595  14.388
53221W        W20004  13.623  26.642  12.144
53222W        W20005  23.130   8.735  14.605
53223W        W20006  28.812  18.833  11.947
53224W        W20007  13.596  28.635   0.420
53225W        W20008  35.960  23.921  12.063
53226W        W20009  32.872  21.225   1.492
53227W        W20010  22.807  33.888   1.308
53228W        W20011  39.118  20.711  12.685
53229W        W20012   6.476  33.905  12.365
53230W        W20013  24.143   6.125   2.820
53231W        W20014   7.384   5.214  11.238
53232W        W20015  39.559   9.375  10.752
53233W        W20016  25.994   1.927   2.690
53234W        W20017  17.363  44.257  11.895
53235W        W20018  21.581   6.958   1.355
53236W        W20019  12.196   0.086  13.080
53237W        W20020   5.133  34.404  12.454
53238W        W20021  27.535  38.483  14.193
53239W        W20022  29.093  41.444  13.760
53240W        W20023  38.483  33.939   4.193
53241W        W20024  34.616  22.449   3.232
53242W        W20025  28.192  43.842   0.378
53243W        W20026   3.758  40.335   2.052
53244W        W20027  39.495  14.765   3.869
53245W        W20028  26.208   3.290  14.777
53246W        W20029  34.095  19.454   4.616
53247W        W20030  18.638  25.471  14.388
53248W        W20031  20.799  42.256  14.383
53249W        W20032  33.563  19.376   9.552
53250W        W20033  41.293  11.177  14.805
53251W        W20034   4.036  20.543  14.381
53252W        W20035   1.292  12.129  12.284
53253W        W20036  37.327  18.989   0.006
53254W        W20037  17.648   2.994   1.770
53255W        W20038  34.039   2.779   4.469
53256W        W20039  16.823  29.100   0.753
53257W        W20040  37.395  37.142   2.156
53258W        W20041  29.241  32.356   1.847
53259W        W20042  17.331  25.774  10.995
53260W        W20043  37.127  15.022  13.796
53261W        W20044  34.162  38.618  10.897
53262W        W20045  39.153  14.157  14.014
53263W        W20046  14.805  26.710   5.283
53264W        W20047  17.503  41.581   1.435
53265W        W20048  42.283  20.527  13.029
53266W        W20049  24.842   6.405  13.636
53267W        W20050  36.613  22.111  12.948
53268W        W20051  11.308  12.858   0.784
53269W        W20052  21.469  23.408   3.094
53270W        W20053  33.323  20.294   0.746
53271W        W20054   9.867  22.123   3.219
53272W        W20055  19.969  20.974  13.683
53273W        W20056  26.098   5.920   1.337
53274W        W20057  18.940  31.886   4.994
53275W        W20058  26.476   8.494  12.883
53276W        W20059  23.536  25.074   0.042
53277W        W20060  42.027  17.704  11.498
53278W        W20061  37.474   0.268  13.570
53279W        W20062  44.953  19.183   0.653
53280W        W20063   4.818  26.084  11.249
53281W        W20064  21.608  13.263   4.025
53282W        W20065  34.197  44.037   2.299
53283W        W20066  28.579  24.703  13.877
53284W        W20067   2.458  28.524   1.254
53285W        W20068   8.949   9.100  11.296
53286W        W20069  15.625  33.836   2.497
53287W        W20070  25.510  22.226   0.387
53288W        W20071  35.907  27.694   2.330
53289W        W20072   8.946  16.778  11.984
53290W        W20073  19.849  14.467   2.702
53291W        W20074  42.555  32.405  13.834
53292W        W20075  21.259  33.675   0.242
53293W        W20076  30.495  13.119  11.578
53294W        W20077  23.697  23.066  13.384
53295W        W20078  11.067  31.376   1.327
53296W        W20079  21.015  24.403   2.541
53297W        W20080   1.179  36.910   3.582
53298W        W20081   7.161  37.277   3.080
53299W        W20082  14.620  15.179  12.603
53300W        W20083  32.937  33.542  14.374
53301W        W20084   2.008  41.420   2.912
53302W        W20085   3.375  28.508   3.190
53303W        W20086  24.469  44.388  12.436
53304W        W20087  10.142  28.295   3.822
53305W        W20088  17.614  16.768  10.678
53306W        W20089   3.277  27.051  13.866
53307W        W20090  37.134  26.082  11.038
53308W        W20091   9.584   8.109  12.153
53309W        W20092  35.919  13.334  12.191
53310W        W20093  42.399  21.873  13.888
53311W        W20094  15.177   0.516   1.487
53312W        W20095  30.098   7.890  11.400
53313W        W20096  42.518  25.652  13.568
53314W        W20097  32.175  17.974  10.687
53315W        W20098  25.231  32.287  13.625
53316W        W20099   9.450  41.069  14.430
53317W        W20100  40.802  21.274  13.891
53318W        W20101  34.608   2.767   3.616
53319W        W20102  31.632  12.662   3.999
53320W        W20103   5.098  17.810  12.252
53321W        W20104  19.951  22.045  14.507
53322W        W20105   3.420  31.640  13.758
53323W        W20106  38.822   3.241  11.158
53324W        W20107  29.119  23.065   1.811
53325W        W20108  26.056   3.242  13.859
53326W        W20109  17.993  40.880  13.949
53327W        W20110  23.075  26.909  14.885
53328W        W20111  41.275  32.898  11.996
53329W        W20112  44.577  22.063   2.174
53330W        W20113  11.773  15.654  13.810
53331W        W20114  33.150  28.940   1.908
53332W        W20115   6.263  27.072   1.327
53333W        W20116  21.263  39.006   3.267
53334W        W20117  30.446  11.941   3.456
53335W        W20118  38.394  22.498  14.808
53336W        W20119  21.251  20.192   3.163
53337W        W20120  40.273   8.765   2.822
53338W        W20121  11.127  26.650  14.109
53339W        W20122   0.426  12.908  10.586
53340W        W20123   7.656  28.040   1.812
53341W        W20124  35.979  28.689   3.712
53342W        W20125  39.622  15.143  13.132
53343W        W20126  23.053  20.255   1.501
53344W        W20127   8.790  18.326  11.690
53345W        W20128  11.643  33.056   3.596
53346W        W20129  36.906  30.426   1.775
53347W        W20130  33.850  23.112  11.590
53348W        W20131   3.581   7.180  12.094
53349W        W20132  35.010   1.401   1.396
53350W        W20133  11.813  44.459   2.673
53351W        W20134   7.770  23.788   3.684
53352W        W20135  24.506   3.642   0.775
53353W        W20136  35.533  35.112   3.667
53354W        W20137  39.414   2.572  13.070
53355W        W20138   6.716  15.371  14.987
53356W        W20139   8.454  16.573  14.370
53357W        W20140  35.491  44.084  13.730
53358W        W20141  19.123  36.033   4.061
53359W        W20142  42.605  21.163   0.275
53360W        W20143   7.326   9.863   4.433
53361W        W20144  14.781  20.999  14.957
53362W        W20145   1.210   9.096   2.615
53363W        W20146  34.652  30.106  13.240
53364W        W20147  23.035  39.585   0.447
53365W        W20148  14.502  26.113  13.082
53366W        W20149   2.875  21.541  14.257
53367W        W20150  19.141  32.853   2.810
53368W        W20151  23.691   0.205   4.707
53369W        W20152   8.218   4.909   2.690
53370W        W20153  13.313   2.305   0.345
53371W        W20154   5.587  16.531   2.815
53372W        W20155  35.349  39.408  12.452
53373W        W20156  23.547  33.435   1.746
53374W        W20157  34.826  21.252  12.370
53375W        W20158  25.141   5.743  11.912
53376W        W20159  15.292  35.590   2.752
53377W        W20160  34.529  40.747   1.717
53378W        W20161  12.257   6.400  13.408
53379W        W20162  19.207  39.373  11.560
53380W        W20163  16.594  41.365  12.079
53381W        W20164  16.124   6.808   3.796
53382W        W20165  32.180  14.632  10.683
53383W        W20166  41.115  35.075   4.126
53384W        W20167  41.648  21.141   1.843
53385W        W20168  25.915  15.694  14.752
53386W        W20169  19.491  11.228   4.057
53387W        W20170  31.410  11.987   1.770
53388W        W20171  42.872  28.397   2.879
53389W        W20172  19.386  19.552  12.519
53390W        W20173  34.659  41.965   4.544
53391W        W20174   2.477  18.045  12.512
53392W        W20175  35.333   7.538   1.349
53393W        W20176  26.068  32.500  14.387
53394W        W20177  27.445  43.386   1.072
53395W        W20178  26.075   2.019   1.196
53396W        W20179   3.909  13.195   4.399
53397W        W20180  28.933   4.413  11.245
53398W        W20181   1.313  42.379  13.562
53399W        W20182  27.935  33.466  11.148
53400W        W20183   0.801   1.234  14.440
53401W        W20184  18.527   5.848   0.508
53402W        W20185  10.938   7.279   2.909
53403W        W20186  36.561   3.427   1.393
53404W        W20187  42.443  23.753   3.420
53405W        W20188  13.793  43.864   4.664
53406W        W20189  31.774  15.241   3.931
53407W        W20190  43.935  27.139   3.099
53408W        W20191   3.825   6.402  12.241
53409W        W20192  14.062  18.773   1.181
53410W        W20193  10.250  17.501   0.265
53411W        W20194  28.523   5.195   2.774
53412W        W20195   7.783   7.449  10.203
53413W        W20196  38.919  38.027   3.735
53414W        W20197  39.981  24.085   3.766
53415W        W20198  28.946  36.411  13.130
53416W        W20199  15.958  16.305   4.425
53417W        W20200  16.633  21.184  12.493
53418W        W20201  21.825  40.388   2.733
53419W        W20202  13.821  20.708   3.277
53420W        W20203  12.265  22.281   2.192
53421W        W20204  37.577  41.827   3.391
53422W        W20205   2.219  17.607  12.414
53423W        W20206  21.708  18.985  13.839
53424W        W20207   4.795  35.012  14.308
53425W        W20208  19.003  36.665   2.299
53426W        W20209  12.018   6.646   2.647
53427W        W20210  16.411  35.404   2.651
53428W        W20211  13.209  28.431  12.227
53429W        W20212  17.064  35.501  12.478
53430W        W20213  41.055  24.122  10.413
53431W        W20214  18.849  15.669  12.875
53432W        W20215   1.998   3.310   2.679
53433W        W20216   5.641  26.094   0.336
53434W        W20217   1.421   7.623   3.228
53435W        W20218  26.123  32.955  12.109
53436W        W20219  43.938   3.772   2.601
53437W        W20220  13.899  18.660   1.770
53438W        W20221   8.144   9.013   0.418
53439W        W20222   9.861  37.948   3.632
53440W        W20223  35.543   1.180  11.293
53441W        W20224   2.113  20.035   2.706
53442W        W20225  43.851  17.764   0.754
53443W        W20226  25.806  15.631  12.479
53444W        W20227  24.631   1.481   1.935
53445W        W20228   4.988  11.634  12.593
53446W        W20229  42.524  18.204  11.743
53447W        W20230  41.253  41.351   1.413
53448W        W20231   3.518  15.538  13.305
53449W        W20232   6.303  43.877  12.395
53450W        W20233   4.159  16.227  13.099
53451W        W20234  17.595  24.258  11.027
53452W        W20235  44.904   1.683   0.922
53453W        W20236  40.537  40.410  14.157
53454W        W20237  34.628  17.237   3.227
53455W        W20238  38.626   2.812  12.058
53456W        W20239  27.708  27.681   1.442
53457W        W20240  27.751  33.971   4.868
53458W        W20241  12.749   3.731   0.705
53459W        W20242  19.524   9.279   1.348
53460W        W20243   7.073  19.622   0.309
53461W        W20244   2.341  27.214  11.462
53462W        W20245  14.750   5.684  11.159
53463W        W20246  33.295   3.715   1.304
53464W        W20247  40.963   1.404   1.697
53465W        W20248  34.525  19.855  12.905
53466W        W20249  35.990  19.572   4.017
53467W        W20250  26.839  29.448   1.287
53468W        W20251  10.799  35.968   1.848
53469W        W20252  41.556  23.044   3.353
53470W        W20253  20.550  35.500  13.984
53471W        W20254  16.506  18.800   2.715
53472W        W20255   6.215   7.748  14.159
53473W        W20256  14.847   9.407   4.484
53474W        W20257  40.920  15.332  11.597
53475W        W20258  25.383   8.550   2.688
53476W        W20259  43.418   2.987   4.738
53477W        W20260  36.944  12.101   0.442
53478W        W20261  14.669  10.707  13.358
53479W        W20262   1.697  28.740  14.343
53480W        W20263  35.443   9.252   3.661
53481W        W20264   9.587  21.239   4.128
53482W        W20265   6.994  11.824   0.693
53483W        W20266  23.593  41.325  12.099
53484W        W20267  17.023  41.374   4.231
53485W        W20268   6.433  37.065  13.450
53486W        W20269  29.062  16.294  14.495
53487W        W20270  38.534   0.878  12.798
53488W        W20271  15.077   6.911  10.713
53489W        W20272   2.166  24.679  14.395
53490W        W20273  40.602  25.113  12.384
53491W        W20274  15.757  38.468   4.166
53492W        W20275  33.342  40.960  10.235
53493W        W20276  18.897  35.815   2.837
53494W        W20277  10.052  26.774   4.202
53495W        W20278  12.503  21.463  13.778
53496W        W20279  29.561  17.601   4.608
53497W        W20280  15.357  21.997  10.371
53498W        W20281  10.804  39.387   3.074
53499W        W20282  14.320  38.617   4.129
53500W        W20283  32.041  31.526  10.757
53501W        W20284  37.851  33.795  10.315
53502W        W20285  14.502   5.731  10.013
53503W        W20286  12.067  25.332  10.726
53504W        W20287  13.610   7.049   2.829
53505W        W20288  32.040   5.095  11.157
53506W        W20289   5.798  32.023  13.705
53507W        W20290  21.675   3.388  12.440
53508W        W20291  44.245  43.516  14.733
53509W        W20292  14.755  31.017   1.478
53510W        W20293  18.636  14.645  12.328
53511W        W20294  31.694   2.453   2.529
53512W        W20295  43.172  29.140  13.981
53513W        W20296  11.285  27.662   3.782
53514W        W20297  21.050  42.450   1.244
53515W        W20298  27.094  12.772  11.710
53516W        W20299  36.384  14.461   1.339
53517W        W20300  35.971  11.493  13.047
53518W        W20301   0.277   4.756  10.613
53519W        W20302   0.292   2.231   0.684
53520W        W20303   3.258  40.236   4.371
53521W        W20304  24.433  40.380  13.587
53522W        W20305  43.894  34.536  12.374
53523W        W20306   7.795  26.153   1.019
53524W        W20307  23.622   1.395   2.698
53525W        W20308  15.850  44.126  11.085
53526W        W20309  41.135   1.979   4.636
53527W        W20310  15.642  29.540  12.544
53528W        W20311  30.304   6.877  12.231
53529W        W20312  37.053  40.701  11.993
53530W        W20313  33.232  38.327   1.908
53531W        W20314  33.557  19.314  14.553
53532W        W20315  21.145   5.391  10.943
53533W        W20316   4.267   0.428  14.517
53534W        W20317  21.509  27.922   1.843
53535W        W20318  22.425  13.803  13.138
53536W        W20319  38.366  43.767   0.675
53537W        W20320  14.343  38.102   4.037
53538W        W20321   3.455  40.453   2.868
53539W        W20322   9.313  29.928  11.340
53540W        W20323  13.126   1.644  11.579
53541W        W20324  29.077  14.401  14.229
53542W        W20325  21.212  27.972  14.538
53543W        W20326   1.837  11.154  12.595
53544W        W20327  13.353  31.508  13.437
53545W        W20328  13.534  18.173   4.061
53546W        W20329  25.746  17.996  11.354
53547W        W20330  23.672  11.131   3.332
53548W        W20331   6.955  43.607  12.815
53549W        W20332  37.218  19.842   2.374
53550W        W20333  31.450  24.621   4.913
53551W        W20334  27.977  31.030  10.755
53552W        W20335  33.031  15.094  14.798
53553W        W20336  30.420  43.046   1.709
53554W        W20337  20.504   3.702   2.255
53555W        W20338  29.042  43.749   3.192
53556W        W20339  21.617   9.463   4.315
53557W        W20340  42.039  28.363   4.089
53558W        W20341   6.916  20.689   2.271
53559W        W20342  15.105  17.331  13.111
53560W        W20343  25.083  43.562   2.893
53561W        W20344  11.183  37.367   4.149
53562W        W20345  21.058   8.869  12.462
53563W        W20346  30.543  16.193  13.393
53564W        W20347  32.671  18.586  14.006
53565W        W20348   4.792  38.370   4.399
53566W        W20349  38.283  20.257  10.973
53567W        W20350   4.319  26.442   0.388
53568W        W20351  32.219  11.546  13.543
53569W        W20352  27.380  16.409   0.833
53570W        W20353  22.229  38.545   4.368
53571W        W20354  42.847  28.395   1.858
53572W        W20355  34.158  24.139  11.949
53573W        W20356  31.685  21.274  13.399
53574W        W20357  28.008  43.663   1.857
53575W        W20358   2.082  22.538   1.842
53576W        W20359  40.345  24.329   0.129
53577W        W20360  41.554  17.902  13.470
53578W        W20361  39.369  42.560  13.416
53579W        W20362  15.068  32.793   3.641
53580W        W20363  30.378  12.349   4.235
53581W        W20364  35.450  18.028   4.529
53582W        W20365   5.449   5.521   1.191
53583W        W20366  31.959  23.526  14.322
53584W        W20367  12.925  12.450   4.229
53585W        W20368   3.390  40.562   1.191
53586W        W20369  30.357  33.170   2.810
53587W        W20370  24.180  32.942  10.707
53588W        W20371  22.571  14.523   1.646
53589W        W20372  40.385   4.176   0.281
53590W        W20373   8.338  30.699  12.285
53591W        W20374   9.417  34.803   2.249
53592W        W20375  12.964   7.190  11.112
53593W        W20376  19.348   0.985   4.180
53594W        W20377  41.193   3.453  14.051
53595W        W20378  22.608  16.883   4.620
53596W        W20379  29.903  44.366  13.047
53597W        W20380  24.657  16.957  13.426
53598W        W20381  41.483  21.532  14.268
53599W        W20382  11.588  37.574   2.627
53600W        W20383  34.499  31.486  14.823
53601W        W20384   8.085  40.042   1.246
53602W        W20385  21.738  41.989   3.719
53603W        W20386  22.250  21.238   3.399
53604W        W20387  21.263  10.379   4.496
53605W        W20388  37.208  38.804   5.002
53606W        W20389   4.763  35.372  13.469
53607W        W20390  15.159  11.132   2.610
53608W        W20391  34.004  33.779   2.230
53609W        W20392   1.286  11.163   0.326
53610W        W20393  23.165  31.300  13.403
53611W        W20394  25.071  15.097  14.522
53612W        W20395   1.015  42.845   3.239
53613W        W20396  25.030  30.140  10.681
53614W        W20397  12.611  34.459   4.042
53615W        W20398  30.087  19.058  12.163
53616W        W20399  15.960  13.133  13.369
53617W        W20400  14.098  14.596   2.287
53618W        W20401  40.828  31.469  11.769
53619W        W20402  11.729  14.232   3.171
53620W        W20403  23.377  37.307  13.997
53621W        W20404  44.063  32.041   0.665
53622W        W20405  34.026  15.053   0.840
53623W        W20406  21.461  22.304  14.454
53624W        W20407  32.591  15.093   0.554
53625W        W20408  23.230  38.119   2.817
53626W        W20409  35.458  40.514  14.552
53627W        W20410  23.435  28.391   2.813
53628W        W20411  22.747  29.714   4.270
53629W        W20412   1.949  41.947   2.193
53630W        W20413  36.878  24.794   4.607
53631W        W20414   2.522  27.381   0.618
53632W        W20415  16.515  37.560   0.483
53633W        W20416  14.173  23.541  11.567
53634W        W20417   2.568  44.530   2.590
53635W        W20418  34.613  31.834  12.066
53636W        W20419  10.381   6.532   3.229
53637W        W20420  34.694  39.800  13.994
53638W        W20421  30.638   7.682   1.332
53639W        W20422   2.554  37.563  12.952
53640W        W20423   2.127  36.315  11.580
53641W        W20424  34.627   9.878  11.999
53642W        W20425  44.485  31.562  12.606
53643W        W20426   7.368  25.017  14.349
53644W        W20427  17.716  42.543   4.336
53645W        W20428   9.929   8.674  14.406
53646W        W20429  27.015  39.136  12.548
53647W        W20430   5.414  10.687  10.389
53648W        W20431   1.392  15.384   0.041
53649W        W20432  25.432  12.170  13.423
53650W        W20433  43.048   9.693   1.947
53651W        W20434  18.531  21.038  11.040
53652W        W20435  30.358  26.699   2.220
53653W        W20436  13.295   2.740  13.556
53654W        W20437  32.704  39.358  14.433
53655W        W20438   2.858  22.731  11.152
53656W        W20439  19.762  13.752   1.530
53657W        W20440   4.072   7.351  14.908
53658W        W20441  14.507  33.311   4.110
53659W        W20442  13.667   2.251   2.488
53660W        W20443  24.083  22.778  12.436
53661W        W20444  15.881   4.387   1.408
53662W        W20445  24.841  17.623  11.001
53663W        W20446   4.186  15.017  12.425
53664W        W20447  34.634  33.939   0.440
53665W        W20448  18.786  43.249  11.538
53666W        W20449  33.274   5.368   3.254
53667W        W20450  36.662  11.357  12.972
53668W        W20451  14.289  38.817   1.029
53669W        W20452  40.049  24.641  12.114
53670W        W20453  21.798  10.095  13.930
53671W        W20454  43.317   1.485  13.027
53672W        W20455   7.120  10.135  11.004
53673W        W20456  12.361   9.244  11.286
53674W        W20457   6.192  43.329   1.873
53675W        W20458   7.960   0.395   1.622
53676W        W20459  40.889  29.478  12.439
53677W        W20460  38.958  23.005  12.399
53678W        W20461  20.861  15.583   2.349
53679W        W20462  43.151  33.781   3.706
53680W        W20463  14.882  14.005   0.829
53681W        W20464  24.597  13.798   4.670
53682W        W20465   9.410  10.234  13.357
53683W        W20466  15.697  32.618  14.811
53684W        W20467  39.338  35.929  10.696
53685W        W20468  39.890  34.473   0.807
53686W        W20469  33.956  44.423   1.342
53687W        W20470  24.493  23.458   4.526
53688W        W20471   0.260  25.118   4.169
53689W        W20472  43.264   6.237   1.240
53690W        W20473  20.454   0.858  10.382
53691W        W20474  32.102   9.405  13.943
53692W        W20475  23.332  37.794   1.564
53693W        W20476  40.926  30.516   1.973
53694W        W20477  43.815  17.081  12.851
53695W        W20478  44.434  20.656   1.152
53696W        W20479  31.626  38.789   1.338
53697W        W20480  32.694  36.827   1.472
53698W        W20481  35.826  11.413  12.034
53699W        W20482  40.950  40.807  11.115
53700W        W20483  12.250  29.285   4.602
53701W        W20484  18.559  28.429   1.930
53702W        W20485   9.897  36.366  10.601
53703W        W20486   8.393  21.612   4.393
53704W        W20487   0.241  12.153   4.410
53705W        W20488  18.142  33.585   2.936
53706W        W20489  28.539  34.244  13.810
53707W        W20490   9.280  23.768   4.493
53708W        W20491   6.966   4.813   2.345
53709W        W20492  42.975  16.077   3.970
53710W        W20493  44.068  43.055  13.908
53711W        W20494  18.152  36.830   3.364
53712W        W20495  13.287  44.009   4.619
53713W        W20496  10.150  26.284  10.557
53714W        W20497  37.809   2.819   3.229
53715W        W20498  33.411  42.826  13.483
53716W        W20499   5.495  18.406  13.270
53717W        W20500  24.085  22.583   0.452
53718W        W20501  29.125  26.664   2.110
53719W        W20502  39.141  44.923   1.039
53720W        W20503  29.897  42.333   2.428
53721W        W20504   6.144  18.524  11.299
53722W        W20505  22.998  14.124   4.622
53723W        W20506   9.658  40.230  11.583
53724W        W20507  31.378   7.398   3.645
53725W        W20508  19.475   9.657   1.871
53726W        W20509  20.407  33.188  11.263
53727W        W20510  28.570   1.346  10.542
53728W        W20511   4.519  35.549  13.923
53729W        W20512  19.168   8.874   2.498
53730W        W20513  37.003  12.918   1.379
53731W        W20514  41.456  25.474  11.915
53732W        W20515  23.634  33.495   1.226
53733W        W20516  23.543   7.978  12.607
53734W        W20517  21.141  27.013   1.849
53735W        W20518   0.288  39.955   2.149
53736W        W20519  22.130  22.394  11.634
53737W        W20520  20.196  31.526  13.864
53738W        W20521   0.233   3.436   4.109
53739W        W20522  20.703  33.383   1.390
53740W        W20523  38.589  10.120   0.222
53741W        W20524  12.632  42.676  12.921
53742W        W20525  43.590   4.155   3.690
53743W        W20526  36.937  30.440  11.227
53744W        W20527  32.339   6.109  10.350
53745W        W20528  24.504  27.122   2.815
53746W        W20529  25.502  36.899   1.732
53747W        W20530  20.178  23.291   0.789
53748W        W20531  38.728  34.508  12.115
53749W        W20532   7.681  28.889  14.444
53750W        W20533   7.470  31.927  10.963
53751W        W20534  19.509  38.532  13.629
53752W        W20535  11.255  37.142  12.384
53753W        W20536   2.964  41.802   2.262
53754W        W20537  16.108  33.606   1.702
53755W        W20538   0.067  35.499   0.419
53756W        W20539  33.217  23.251   1.406
53757W        W20540  30.180   1.884   3.617
53758W        W20541  10.117   3.842  14.040
53759W        W20542  14.527  21.105  13.089
53760W        W20543  13.430   8.723  11.619
53761W        W20544   0.734  18.428  10.801
53762W        W20545   9.039  43.281   0.333
53763W        W20546  30.595  21.033   4.105
53764W        W20547   8.734  10.710   2.926
53765W        W20548  24.205  31.479  10.970
53766W        W20549  35.380  30.252  10.705
53767W        W20550  20.749   5.984   3.734
53768W        W20551  42.818  23.705   4.315
53769W        W20552   7.753   2.131   1.788
53770W        W20553  38.826  19.412  11.538
53771W        W20554  33.083  29.351  11.533
53772W        W20555   9.365  17.069  11.966
53773W        W20556  26.854  40.962  13.414
53774W        W20557   2.785  34.869  11.131
53775W        W20558   3.784  12.318   2.781
53776W        W20559  33.724  25.955   1.472
53777W        W20560   5.450  40.984   2.689
53778W        W20561  18.697   1.778  12.031
53779W        W20562  33.506  12.782  11.201
53780W        W20563  14.851  26.414  10.323
53781W        W20564  40.849  37.005   4.129
53782W        W20565  20.640  22.029   0.887
53783W        W20566  44.365  26.896  11.404
53784W        W20567  11.179   9.657   3.221
53785W        W20568  29.481  14.624  14.614
53786W        W20569  39.149  37.606  11.727
53787W        W20570  40.242  28.752   3.792
53788W        W20571  19.514   7.671  13.941
53789W        W20572   6.898   7.401   2.070
53790W        W20573  34.127  19.694  10.981
53791W        W20574  37.901  18.602   2.313
53792W        W20575  17.912  13.819   9.823
53793W        W20576   8.184  19.764   2.869
53794W        W20577  11.360   6.636   4.549
53795W        W20578  22.479  43.251  10.694
53796W        W20579   9.519  11.367  11.786
53797W        W20580  35.120  11.153   3.689
53798W        W20581  34.943  21.669   2.972
53799W        W20582  19.562  28.759  13.863
53800W        W20583  35.358  34.367  11.660
53801W        W20584  34.426  32.091  13.808
53802W        W20585  25.131  35.882   0.810
53803W        W20586  12.849   7.281  12.998
53804W        W20587  12.306   9.164   3.708
53805W        W20588  32.494  12.057   2.805
53806W        W20589  35.880  37.104  12.533
53807W        W20590   6.410  33.454  11.856
53808W        W20591  18.194  31.645  12.167
53809W        W20592   8.184  26.997  12.808
53810W        W20593  29.675  29.933   3.045
53811W        W20594   9.815   6.234  12.466
53812W        W20595  20.819  26.156  11.388
53813W        W20596   1.169  12.987   4.982
53814W        W20597   1.293  13.491   2.326
53815W        W20598  32.643  18.013   2.775
53816W        W20599  37.678  35.788   1.446
53817W        W20600  29.535  40.723  12.918
53818W        W20601  27.738  37.503  12.112
53819W        W20602  36.156  42.456  13.011
53820W        W20603  30.207  15.783  13.354
53821W        W20604  16.193  40.012  13.971
53822W        W20605  31.070   5.412  11.590
53823W        W20606   2.924  28.663  10.684
53824W        W20607  26.152  40.731   2.756
53825W        W20608  40.420  39.961  14.446
53826W        W20609  36.421   5.164  12.491
53827W        W20610  24.711  36.325  12.541
53828W        W20611   7.277  37.406  12.408
53829W        W20612  19.814  24.767   4.158
53830W        W20613  37.908  23.602  11.558
53831W        W20614  31.320  26.891  11.098
53832W        W20615  29.152  23.995  14.869
53833W        W20616   5.476  14.669  10.648
53834W        W20617  42.315  30.210  14.811
53835W        W20618  43.220   7.602   0.929
53836W        W20619  28.174  36.581   3.614
53837W        W20620  14.928  23.246   0.827
53838W        W20621  25.471  37.596  14.385
53839W        W20622  28.396  19.085  11.049
53840W        W20623   5.536  27.539  12.208
53841W        W20624  44.872  37.922  11.484
53842W        W20625   6.684  28.861  14.219
53843W        W20626  19.759  24.567   3.631
53844W        W20627  19.536  43.796  12.458
53845W        W20628   4.846   3.747  10.759
53846W        W20629   8.812  33.593  14.529
53847W        W20630  34.378  26.786   0.476
53848W        W20631   7.553  33.820   4.828
53849W        W20632   7.557  32.931  14.611
53850W        W20633  43.062  44.751   3.300
53851W        W20634  41.069   9.823  13.387
53852W        W20635  33.195  30.375   3.182
53853W        W20636  31.512  19.080   3.383
53854W        W20637  41.577  24.791  13.638
53855W        W20638  34.287  13.654   1.143
53856W        W20639   3.781   9.632   1.375
53857W        W20640  27.375  39.127   1.732
53858W        W20641  41.439   1.902   1.152
53859W        W20642  30.114  31.679  13.490
53860W        W20643  44.973  25.256  11.915
53861W        W20644  14.634  44.474   4.255
53862W        W20645  36.296   3.540  13.019
53863W        W20646  14.085   5.351  13.051
53864W        W20647  38.484  13.548  12.955
53865W        W20648   5.003  17.008   0.020
53866W        W20649  20.029   3.253   1.969
53867W        W20650  27.188  31.515   3.652
53868W        W20651   4.804  27.703  11.074
53869W        W20652  28.274   5.900   1.728
53870W        W20653  10.898  17.583   0.969
53871W        W20654  18.235  36.699   4.262
53872W        W20655   8.281  34.853  14.888
53873W        W20656  37.935  30.205  12.016
53874W        W20657  36.400  36.526   0.951
53875W        W20658  25.685  33.617  11.713
53876W        W20659  19.783  42.502   3.846
53877W        W20660   7.134  33.096   2.425
53878W        W20661   6.761   1.383  13.737
53879W        W20662   6.108  34.181   4.237
53880W        W20663   2.804  37.417  10.583
53881W        W20664  42.902  12.427  14.304
53882W        W20665  27.160  22.932   4.089
53883W        W20666  41.868  24.426   1.964
53884W        W20667  13.893  30.188  13.452
53885W        W20668   3.406   3.205   4.174
53886W        W20669   4.737  25.444  12.090
53887W        W20670  15.224  40.866   0.839
53888W        W20671  21.148   2.895   1.473
53889W        W20672  43.840  26.325  14.950
53890W        W20673  24.381  17.370  11.704
53891W        W20674  44.533   2.396  11.153
53892W        W20675  44.163  10.747  12.336
53893W        W20676  44.017   3.835   0.765
53894W        W20677   9.746  18.027  11.261
53895W        W20678  10.272   1.159   5.157
53896W        W20679  40.934   3.249  14.451
53897W        W20680  31.744  21.724   2.066
53898W        W20681   6.087   4.303   0.418
53899W        W20682  22.596  13.196  13.758
53900W        W20683  16.776  12.727  10.845
53901W        W20684  18.294  18.360  11.903
53902W        W20685  19.570  33.949  10.675
53903W        W20686   5.777  13.723  14.812
53904W        W20687  38.845  26.296  11.473
53905W        W20688  44.310  31.712  10.163
53906W        W20689  11.234  28.578   1.356
53907W        W20690   9.876  31.317  11.142
53908W        W20691  34.638  40.471  10.710
53909W        W20692  26.816  10.164  12.322
53910W        W20693   6.800  21.942  10.728
53911W        W20694  36.282   4.835   2.269
53912W        W20695   6.739   7.184  11.171
53913W        W20696  26.485  16.624  12.436
53914W        W20697  36.460  43.977  12.818
53915W        W20698  37.939  37.558   1.803
53916W        W20699  42.355   6.264   1.843
53917W        W20700  25.268  32.126   0.583
53918W        W20701  18.063   4.950  14.455
53919W        W20702   5.894  38.322  14.760
53920W        W20703  32.492  14.347  12.825
53921W        W20704  35.899  27.721   3.660
53922W        W20705  16.538  15.145   0.811
53923W        W20706   9.805  20.636  11.785
53924W        W20707  25.572  25.117  11.907
53925W        W20708  33.831  22.715  12.038
53926W        W20709  37.597   4.334   4.274
53927W        W20710   5.331  35.340  11.536
53928W        W20711  38.882   6.872  14.957
53929W        W20712  14.262  31.010   0.107
53930W        W20713  41.080  22.037   0.986
53931W        W20714  13.771  13.416  12.936
53932W        W20715  37.126  39.248  11.949
53933W        W20716  11.181  30.020  14.270
53934W        W20717  41.365   6.175   3.589
53935W        W20718  28.353  22.042  14.090
53936W        W20719  32.016   7.191   1.473
53937W        W20720  21.235   1.837  10.769
53938W        W20721   7.174   9.944   2.028
53939W        W20722   8.759   2.386  11.205
53940W        W20723  19.527  13.089   2.785
53941W        W20724  19.925  37.823   4.615
53942W        W20725   2.727   8.933  10.861
53943W        W20726   3.375   5.914  11.598
53944W        W20727  17.220  10.125   1.863
53945W        W20728  20.336  10.376   0.032
53946W        W20729  14.772  16.799   3.304
53947W        W20730  33.746   0.827  14.422
53948W        W20731  27.018  19.081  14.442
53949W        W20732  13.854  33.003  12.090
53950W        W20733  44.738   6.881   0.916
53951W        W20734  44.829  35.961  13.615
53952W        W20735  24.795   9.239   3.113
53953W        W20736  25.154   1.933   2.256
53954W        W20737  22.774  17.270   0.290
53955W        W20738  11.730  20.275  14.414
53956W        W20739   8.902  18.421  14.344
53957W        W20740  36.190  37.356  12.217
53958W        W20741   2.465  35.917  10.351
53959W        W20742  21.295  35.533   2.800
53960W        W20743  38.907  36.021  11.570
53961W        W20744  20.554  34.934  14.629
53962W        W20745  11.051  17.194   2.214
53963W        W20746  44.807  34.159  13.886
53964W        W20747   1.629  41.178  12.376
53965W        W20748  31.902  25.515  13.629
53966W        W20749  43.882  38.408   1.483
53967W        W20750   0.701   8.417   2.289
53968W        W20751   5.920   1.843   2.467
53969W        W20752  10.356  25.252  14.545
53970W        W20753  10.764  20.519  12.680
53971W        W20754   4.231   3.831   1.355
53972W        W20755  36.377   8.935   4.092
53973W        W20756  18.764  28.185   2.330
53974W        W20757  32.262   0.196   1.343
53975W        W20758  30.494   4.946   3.585
53976W        W20759  11.100  26.888  13.626
53977W        W20760  16.606  41.409   0.465
53978W        W20761  29.131  25.620   2.160
53979W        W20762  44.801   6.224  14.417
53980W        W20763  38.441  43.843   3.692
53981W        W20764   6.699   2.424  13.533
53982W        W20765   0.771   2.353  10.688
53983W        W20766  43.920  43.062  10.752
53984W        W20767  34.494  20.990  13.771
53985W        W20768  18.257  27.553   2.291
53986W        W20769   7.630  35.365   0.501
53987W        W20770  35.485  19.716  12.204
53988W        W20771  41.622  19.554  11.044
53989W        W20772  40.350  24.069   1.473
53990W        W20773  31.104   6.489   5.002
53991W        W20774  41.323  21.654   4.838
53992W        W20775  21.032  23.620  10.898
53993W        W20776  37.294  33.300   1.334
53994W        W20777  36.517  19.663  11.158
53995W        W20778  15.887   5.790   0.984
53996W        W20779   1.023  31.161  11.046
53997W        W20780  15.991   7.196   2.198
53998W        W20781  30.616  34.029  14.299
53999W        W20782   1.991   9.939  10.772
54000W        W20783  33.482   0.367  14.979
54001W        W20784  11.833   0.168  12.363
54002W        W20785  33.870  37.812   2.135
54003W        W20786  18.737   0.039  14.075
54004W        W20787   4.910  25.177   3.174
54005W        W20788  21.144  23.563   4.649
54006W        W20789  12.706  21.445  10.555
54007W        W20790   8.933  39.753   2.824
54008W        W20791  33.466  26.539   1.719
54009W        W20792  25.473  20.328  10.645
54010W        W20793  20.445  22.641   2.711
54011W        W20794  29.413   9.763   4.920
54012W        W20795  28.127  40.109  10.994
54013W        W20796   7.128   9.771  12.210
54014W        W20797  34.836   2.841   2.450
54015W        W20798  35.406  14.345  14.886
54016W        W20799  15.647  34.930   1.636
54017W        W20800   9.114   6.709  12.624
54018W        W20801  29.869  20.867   4.111
54019W        W20802  27.028  29.133   3.759
54020W        W20803  23.553  36.479  13.541
54021W        W20804  21.235  15.333  12.913
54022W        W20805  28.535  35.806  12.621
54023W        W20806  35.342  28.024   2.870
54024W        W20807  42.607  19.288   0.857
54025W        W20808  15.309  34.166  13.851
54026W        W20809   3.437   8.662   5.020
54027W        W20810  26.616  37.161   2.439
54028W        W20811  14.545  40.783  10.718
54029W        W20812   3.660   6.426  14.227
54030W        W20813   7.053  30.709   1.335
54031W        W20814   0.469  25.597   4.307
54032W        W20815  24.264   1.053   0.728
54033W        W20816  19.761  21.282  10.978
54034W        W20817  42.854  42.039   1.714
54035W        W20818  13.529  14.753   1.205
54036W        W20819  21.035  15.838   3.675
54037W        W20820  44.751  12.085   1.468
54038W        W20821  13.819   9.265  14.984
54039W        W20822   9.374   9.819  14.045
54040W        W20823  31.132  22.620  13.883
54041W        W20824  14.148  39.163   1.579
54042W        W20825  43.398  11.181  10.715
54043W        W20826  12.647  42.339   3.635
54044W        W20827  35.702  41.038   2.935
54045W        W20828  12.703  35.461  13.752
54046W        W20829  30.542   5.862   4.115
54047W        W20830   0.772   8.697  10.657
54048W        W20831  19.863   3.689  13.413
54049W        W20832   8.196   4.872   4.202
54050W        W20833  36.825   3.227  12.139
54051W        W20834  42.819  31.242  12.564
54052W        W20835   9.385  24.138  12.560
54053W        W20836  30.365   3.430  11.143
54054W        W20837   3.480  36.916   4.620
54055W        W20838   0.540  42.760  13.919
54056W        W20839  43.384  13.635  12.845
54057W        W20840  29.931  17.376   4.937
54058W        W20841  37.503  43.889  13.061
54059W        W20842  25.311  22.134  14.920
54060W        W20843   2.318  19.130   2.239
54061W        W20844  27.639  30.187   4.243
54062W        W20845  15.246   5.329   3.756
54063W        W20846  13.248  21.742   4.694
54064W        W20847  39.741  28.664  10.494
54065W        W20848   5.349  27.022   2.638
54066W        W20849  24.875  27.858  10.367
54067W        W20850  39.946  20.944   2.205
54068W        W20851  16.856  35.044  11.750
54069W        W20852  20.135  38.283   4.478
54070W        W20853   2.410  36.917  11.789
54071W        W20854  16.189   9.285  12.015
54072W        W20855   9.837  27.825  14.844
54073W        W20856  11.895   6.226   2.163
54074W        W20857  25.952  37.522   0.825
54075W        W20858  31.149  16.590  13.435
54076W        W20859  24.108  30.481   1.696
54077W        W20860  37.810  24.420   0.945
54078W        W20861  32.349  36.339  12.651
54079W        W20862  41.064  44.302  10.734
54080W        W20863  10.596  18.525  11.135
54081W        W20864  23.845  40.227   1.844
54082W        W20865  12.560  12.355   3.308
54083W        W20866  44.554  35.050  11.095
54084W        W20867  35.055  43.629   1.857
54085W        W20868  24.740  26.207   0.550
54086W        W20869   8.351  40.341  11.228
54087W        W20870   3.400  12.192  14.465
54088W        W20871  23.150   6.480  10.434
54089W        W20872  20.623  19.776   2.309
54090W        W20873   5.294  22.819  10.775
54091W        W20874   2.999   4.791   4.614
54092W        W20875  11.093  39.908  12.823
54093W        W20876  37.771  18.972   1.383
54094W        W20877  44.954   4.347   3.497
54095W        W20878   4.153  15.870   4.701
54096W        W20879  35.497  34.993  12.849
54097W        W20880   2.843  30.900  12.875
54098W        W20881  25.162  21.101  13.001
54099W        W20882  34.449  43.803   1.864
54100W        W20883  19.560  30.746  13.093
54101W        W20884  18.228  43.571  13.344
54102W        W20885  34.973  27.223  13.074
54103W        W20886  31.189  34.514   4.928
54104W        W20887   9.963  30.535   3.827
54105W        W20888  15.715   8.937   4.109
54106W        W20889  15.042  29.869  14.433
54107W        W20890   0.786  24.013   1.621
54108W        W20891  40.251  43.217  14.932
54109W        W20892  40.280  23.189  11.278
54110W        W20893  37.097   0.954  14.604
54111W        W20894  19.155  15.105  13.849
54112W        W20895  41.610  16.554   4.322
54113W        W20896  19.254  11.838   0.525
54114W        W20897   4.677  15.212   1.006
54115W        W20898  37.371  13.900  11.550
54116W        W20899  28.218  24.132   0.499
54117W        W20900  26.675  37.270   0.405
54118W        W20901  22.504  34.808  14.811
54119W        W20902   9.226  38.575   0.455
54120W        W20903   6.725   1.942  12.452
54121W        W20904  44.028   9.823  14.312
54122W        W20905   6.428  21.528  12.123
54123W        W20906  41.492  12.186   4.206
54124W        W20907  30.140  16.587  13.495
54125W        W20908   5.753  38.783   3.131
54126W        W20909  38.350  15.813  13.392
54127W        W20910  31.067  29.983   1.646
54128W        W20911  32.685   9.552  12.460
54129W        W20912  30.691  32.659   3.365
54130W        W20913   8.330   8.178  10.803
54131W        W20914  31.024  14.646   2.401
54132W        W20915  16.279   2.935  14.002
54133W        W20916  44.314  28.337   4.581
54134W        W20917   9.722  23.598  11.115
54135W        W20918   1.392   7.907  12.341
54136W        W20919  12.719  11.813  13.674
54137W        W20920   2.606  15.808   1.003
54138W        W20921   2.255   8.187  14.926
54139W        W20922   0.812  39.398  11.903
54140W        W20923  23.607  32.074  11.408
54141W        W20924  22.527   4.676   1.248
54142W        W20925  13.602  35.993  11.707
54143W        W20926  44.497  15.138   4.013
54144W        W20927   8.713  42.758  13.256
54145W        W20928  23.016   4.463   1.192
54146W        W20929  42.342  30.467  12.466
54147W        W20930  12.282   8.037  14.205
54148W        W20931  12.464  40.181  14.315
54149W        W20932  37.446  31.907   3.142
54150W        W20933  29.426  16.270   2.751
54151W        W20934  30.555   9.450   3.300
54152W        W20935  14.563  42.019   3.600
54153W        W20936  33.844  31.317   2.516
54154W        W20937   2.151   0.341   1.901
54155W        W20938   7.935  28.440   2.296
54156W        W20939  10.985  23.061  13.437
54157W        W20940  40.540  40.995   0.106
54158W        W20941  37.255  42.554   1.407
54159W        W20942  29.205   5.471   0.742
54160W        W20943  40.687  10.570   2.911
54161W        W20944  25.067  30.154   1.832
54162W        W20945  15.411  38.350   5.074
54163W        W20946  13.091  26.715   2.106
54164W        W20947   7.422  21.106   9.804
54165W        W20948  12.925  32.189   0.535
54166W        W20949   9.788  21.386   2.626
54167W        W20950  19.605  36.031  14.615
54168W        W20951   8.394  33.336   4.537
54169W        W20952   7.698  29.997  12.994
54170W        W20953  37.300  43.404   0.953
54171W        W20954  14.793  17.184  11.077
54172W        W20955  39.308  29.658   3.082
54173W        W20956   3.107   4.393  10.754
54174W        W20957  36.445   7.429   0.383
54175W        W20958   1.169  22.134  12.884
54176W        W20959  22.468   1.539   0.023
54177W        W20960  32.131   3.687  11.399
54178W        W20961  16.039  20.644  11.461
54179W        W20962  22.313  22.340   3.592
54180W        W20963  14.777   1.845  12.504
54181W        W20964  37.670  24.687  14.508
54182W        W20965  37.327  28.269   4.093
54183W        W20966  33.198  23.308  13.906
54184W        W20967  18.509  32.037   0.230
54185W        W20968   9.315   2.928  12.427
54186W        W20969   8.774   5.798  11.657
54187W        W20970   0.384  12.635   3.120
54188W        W20971  25.191  14.116   3.277
54189W        W20972   0.605  17.038   0.917
54190W        W20973  14.587  38.087   5.045
54191W        W20974   2.759  33.583   3.111
54192W        W20975  20.097  25.693   1.988
54193W        W20976  12.255  41.413   0.356
54194W        W20977  44.791  34.659   3.902
54195W        W20978  14.212   2.235  13.556
54196W        W20979  36.235  27.211   1.851
54197W        W20980  31.000  44.040   0.971
54198W        W20981  23.483  15.684  10.126
54199W        W20982  36.954  34.514   2.891
54200W        W20983   0.217   3.675  12.026
54201W        W20984  17.269  12.421  10.633
54202W        W20985  24.646   3.866  10.279
54203W        W20986  31.199  35.126  12.842
54204W        W20987   7.457  19.999  10.725
54205W        W20988  29.484  30.159   4.519
54206W        W20989  31.664  36.527  14.923
54207W        W20990  22.500  19.181   4.287
54208W        W20991  35.223  18.187  13.981
54209W        W20992  28.402   6.406   1.573
54210W        W20993  16.484  16.313   4.291
54211W        W20994  33.087  35.738  11.147
54212W        W20995  32.076  39.481   1.286
54213W        W20996  15.650  13.746   0.303
54214W        W20997  21.502  19.810  13.702
54215W        W20998  35.917  40.884  14.816
54216W        W20999  21.607   1.906  11.883
54217W        W21000  43.862  38.459   2.426
54218W        W21001  27.094   5.418  14.795
54219W        W21002  35.613  20.777  12.838
54220W        W21003  40.628  17.576  13.739
54221W        W21004  34.299  27.155   1.741
54222W        W21005  10.888  11.758   3.735
54223W        W21006  23.701  36.036   3.527
54224W        W21007  16.565  38.748  14.529
54225W        W21008   6.724  14.644  14.271
54226W        W21009  24.989  32.427   2.280
54227W        W21010  33.564  31.725   1.806
54228W        W21011  19.599  30.583  11.253
54229W        W21012   6.219  42.299   2.693
54230W        W21013  14.685  27.272   2.419
54231W        W21014  44.994  40.695   0.832
54232W        W21015  27.120  19.409  10.697
54233W        W21016  43.511  44.795   1.748
54234W        W21017  44.408   9.568   2.372
54235W        W21018   4.824  41.562   2.462
54236W        W21019  27.455  14.168  10.489
54237W        W21020   7.359   5.727   0.195
54238W        W21021  15.142   6.812  14.415
54239W        W21022  22.177  21.807  10.430
54240W        W21023   7.543  24.116  13.314
54241W        W21024  36.918  12.951  12.112
54242W        W21025   7.323   7.176   5.137
54243W        W21026   1.195   8.898   4.814
54244W        W21027  11.921  32.492   2.391
54245W        W21028  24.721  44.334   2.276
54246W        W21029  22.922  21.258  11.684
54247W        W21030  29.478   3.969   4.278
54248W        W21031  18.870   7.120  12.568
54249W        W21032  24.741   2.024  11.145
54250W        W21033   3.471   1.472  14.249
54251W        W21034  12.598  18.769   3.875
54252W        W21035  42.810  17.210  14.296
54253W        W21036  22.732   1.966  13.808
54254W        W21037  36.434  33.575  10.841
54255W        W21038  25.839  43.518   4.031
54256W        W21039  10.720  37.520   4.257
54257W        W21040  12.370  43.314   3.210
54258W        W21041  34.552  28.428  14.354
54259W        W21042  39.887  20.702   4.112
54260W        W21043  16.163  36.088  14.914
54261W        W21044  37.934  14.252  13.152
54262W        W21045  14.223  24.953   1.859
54263W        W21046   6.244  18.849  13.355
54264W        W21047  10.083   1.464   3.730
54265W        W21048  44.409  28.198   0.954
54266W        W21049  35.639  22.038   1.384
54267W        W21050  14.782   9.307  10.681
54268W        W21051  43.735  18.599  13.840
54269W        W21052  23.240   7.248  13.669
54270W        W21053  17.538  41.574   3.211
54271W        W21054  27.484  14.361  11.556
54272W        W21055   4.838  41.399  10.626
54273W        W21056   6.444   9.325  10.662
54274W        W21057  21.684  21.929  14.737
54275W        W21058  37.464  35.854  13.329
54276W        W21059   9.929  41.534   2.495
54277W        W21060   1.124   3.030  10.138
54278W        W21061  10.961  18.734   2.235
54279W        W21062  41.994  23.152   1.139
54280W        W21063   0.024  43.472   4.852
54281W        W21064  29.476  12.319   0.691
54282W        W21065  37.049  19.649  11.083
54283W        W21066  11.357   9.141   0.490
54284W        W21067   3.503  31.991  11.938
54285W        W21068  38.850  18.267  12.832
54286W        W21069  12.905  38.316  12.037
54287W        W21070  41.099  13.415  12.868
54288W        W21071   6.649   0.790   2.796
54289W        W21072   2.875   9.790   3.490
54290W        W21073  24.563  10.142   3.129
54291W        W21074  28.280  12.575  14.492
54292W        W21075   9.300  42.371   4.833
54293W        W21076  31.435  40.706   3.123
54294W        W21077  33.030  20.787   0.236
54295W        W21078  19.034   0.790   0.261
54296W        W21079   8.126  25.068  12.076
54297W        W21080   6.714  28.423   2.708
54298W        W21081   4.367  36.495  13.306
54299W        W21082  35.012  40.932   4.600
54300W        W21083   2.510  41.964   3.559
54301W        W21084   4.769  10.948   0.816
54302W        W21085  38.979  39.444  12.865
54303W        W21086  31.157   0.328  12.053
54304W        W21087  15.359  40.538  12.020
54305W        W21088  38.926   1.572  10.915
54306W        W21089  31.588  15.538   1.685
54307W        W21090  24.247  17.544  13.862
54308W        W21091   4.656  18.023   2.325
54309W        W21092  41.680   9.875   1.876
54310W        W21093  13.692  18.604  12.805
54311W        W21094   7.232  40.319  13.034
54312W        W21095  28.942  31.839   3.683
54313W        W21096  34.534   0.526   4.210
54314W        W21097  36.537   6.917  14.100
54315W        W21098  19.046  27.942   2.676
54316W        W21099  16.685  12.644   3.438
54317W        W21100  17.683   0.752   1.438
54318W        W21101   8.738  38.515  12.045
54319W        W21102   6.957  41.512   2.260
54320W        W21103  27.805   7.873   1.262
54321W        W21104   3.769  34.436  14.969
54322W        W21105  10.334  42.249   3.415
54323W        W21106  29.501  14.737   1.593
54324W        W21107  18.678  13.527  11.499
54325W        W21108  12.345   8.174   0.906
54326W        W21109   6.735  42.542   2.581
54327W        W21110  42.926  35.428  11.848
54328W        W21111  43.947   7.005  14.211
54329W        W21112   8.880  27.168  13.117
54330W        W21113  33.900   9.878  13.079
54331W        W21114  31.197  43.910   3.714
54332W        W21115  43.809  40.772  14.538
54333W        W21116  40.019  32.762   3.764
54334W        W21117  40.276  17.688   1.807
54335W        W21118  40.004  11.911   2.107
54336W        W21119  14.300  15.660   4.618
54337W        W21120  40.002   6.947  13.385
54338W        W21121  43.509  20.832   4.144
54339W        W21122  27.603  14.947   1.840
54340W        W21123  19.290  40.021  14.242
54341W        W21124   6.385  33.725   0.263
54342W        W21125  15.860  13.504  12.873
54343W        W21126   2.684  43.777   0.953
54344W        W21127  14.571  14.723  12.866
54345W        W21128  15.273  27.006   3.166
54346W        W21129  23.882  42.342   4.056
54347W        W21130  14.117  31.518  12.963
54348W        W21131  34.899   7.791  12.700
54349W        W21132  12.090   2.519   2.454
54350W        W21133  42.230  20.838   0.440
54351W        W21134  43.794   4.498   4.497
54352W        W21135  40.884  27.070   1.853
54353W        W21136   7.947  34.223  12.976
54354W        W21137  31.557   2.459   3.815
54355W        W21138  35.710   7.578  13.775
54356W        W21139  32.017   8.304  11.225
54357W        W21140  22.292  26.060   2.180
54358W        W21141   1.234   6.442   4.932
54359W        W21142  11.690  30.429  14.968
54360W        W21143  43.977  13.075   3.942
54361W        W21144   2.263  32.871  12.967
54362W        W21145  40.661   3.894  13.724
54363W        W21146  21.438  32.055   4.992
54364W        W21147  38.483   1.553   0.332
54365W        W21148  14.110   1.776  13.257
54366W        W21149  17.476  13.620   0.028
54367W        W21150  37.515  31.447   3.351
54368W        W21151  10.229  37.150  11.089
54369W        W21152   8.607  25.591   0.251
54370W        W21153  31.453   4.455  13.392
54371W        W21154  43.397  41.579   3.327
54372W        W21155  42.726  34.576   0.189
54373W        W21156  14.343  43.363  10.910
54374W        W21157  27.123   1.209  14.826
54375W        W21158  20.396  33.633   3.472
54376W        W21159  38.107  44.838   3.095
54377W        W21160  42.377  15.960  11.997
54378W        W21161  35.356   9.680   2.135
54379W        W21162  42.055  18.503   4.510
54380W        W21163  27.931  42.090   3.537
54381W        W21164  17.788  21.678   1.367
54382W        W21165  20.722  25.481  11.990
54383W        W21166   7.278  23.495  12.964
54384W        W21167  38.484   3.642  11.166
54385W        W21168  38.462  38.009   0.626
54386W        W21169  14.085  38.879   0.541
54387W        W21170  38.785  26.426   1.347
54388W        W21171  35.523  34.433  12.688
54389W        W21172  11.247   1.749   4.216
54390W        W21173  39.362  23.962  10.748
54391W        W21174  19.747  42.012  12.527
54392W        W21175  24.426  44.335  10.693
54393W        W21176   9.021  33.943   0.244
54394W        W21177  29.404  15.624  13.189
54395W        W21178   1.752  11.337  13.889
54396W        W21179  11.531  41.455  14.494
54397W        W21180  19.422  10.850   1.240
54398W        W21181  26.360  44.059   0.973
54399W        W21182  20.755  21.134  11.300
54400W        W21183  33.287   5.789   0.413
54401W        W21184  15.144  19.184  10.791
54402W        W21185  36.332  32.803  11.141
54403W        W21186  38.987  21.729   2.671
54404W        W21187  40.361  15.043   4.100
54405W        W21188   4.429  31.674  13.921
54406W        W21189  16.846  19.624  12.550
54407W        W21190  32.520   4.835   0.868
54408W        W21191   1.209  15.316  12.786
54409W        W21192  13.351  17.879  13.486
54410W        W21193   2.582  32.133  13.476
54411W        W21194  22.029  31.179   1.812
54412W        W21195  18.184  41.154   2.508
54413W        W21196  29.826  30.059  11.240
54414W        W21197  22.134  15.220   3.364
54415W        W21198  29.976  25.910  14.272
54416W        W21199  21.754  26.828  13.238
54417W        W21200  26.305   9.614   4.548
54418W        W21201   6.887  32.463  13.458
54419W        W21202  44.897  17.038  14.104
54420W        W21203  30.539  44.802   0.997
54421W        W21204  44.394   9.110  14.943
54422W        W21205  43.246  20.543   0.395
54423W        W21206   6.281  33.585   4.484
54424W        W21207   4.370   7.425   1.669
54425W        W21208  28.618  36.083   0.285
54426W        W21209  38.872  13.745  13.786
54427W        W21210   4.300   9.996  12.822
54428W        W21211  20.672   2.055   2.826
54429W        W21212  34.378  14.397   4.524
54430W        W21213  40.404  24.986   3.599
54431W        W21214   0.909  23.570   4.617
54432W        W21215  13.121   5.929   3.667
54433W        W21216  24.521  31.010  13.076
54434W        W21217  28.016  23.029   2.208
54435W        W21218  41.287  43.323  12.519
54436W        W21219  43.459  31.597  10.828
54437W        W21220  13.117  16.157   4.399
54438W        W21221  14.113  13.893   4.646
54439W        W21222  21.315  38.874   2.169
54440W        W21223  10.343  27.120  11.977
54441W        W21224   6.420   1.447  10.783
54442W        W21225  10.874  23.256   4.162
54443W        W21226  31.588   9.807  10.623
54444W        W21227  40.843   0.735   0.939
54445W        W21228  44.590  42.781  13.433
54446W        W21229  24.493   1.943   2.728
54447W        W21230  19.188   4.775  12.969
54448W        W21231  37.461  38.536  14.514
54449W        W21232  41.848  44.788  11.264
54450W        W21233  26.920  19.251  11.142
54451W        W21234  28.163  44.951   2.147
54452W        W21235  31.697  18.282  11.552
54453W        W21236  18.537  44.770   3.241
54454W        W21237   8.761  34.582   1.362
54455W        W21238   7.808  30.496   1.686
54456W        W21239  42.799  41.794   1.285
54457W        W21240  20.169  31.350  12.506
54458W        W21241  24.663   9.584  14.497
54459W        W21242  28.982  32.794  11.653
54460W        W21243  38.086  20.145   3.459
54461W        W21244  29.910  13.670   2.272
54462W        W21245  44.445  41.835  14.863
54463W        W21246   9.867   7.254   2.530
54464W        W21247  23.569   5.921  14.013
54465W        W21248  27.420  37.398   0.758
54466W        W21249  30.379   8.368  12.005
54467W        W21250  19.142  25.538  13.576
54468W        W21251  34.388  37.798  11.121
54469W        W21252  28.786  23.931   3.227
54470W        W21253   9.098   0.051  13.805
54471W        W21254  12.509  19.621   4.584
54472W        W21255  12.317  18.728  10.882
54473W        W21256  24.866  37.382   1.956
54474W        W21257  42.883  41.284  14.378
54475W        W21258   8.498  42.526  11.471
54476W        W21259  12.201  10.228  13.833
54477W        W21260  15.768   8.114   4.536
54478W        W21261   7.903  24.482  13.297
54479W        W21262  30.969  24.004   3.116
54480W        W21263  37.417  38.372  11.248
54481W        W21264   4.612   0.754  12.478
54482W        W21265  35.264  30.925   1.833
54483W        W21266  26.321  34.560  11.542
54484W        W21267  23.199  12.706  12.451
54485W        W21268  18.260  15.633   1.134
54486W        W21269   7.344  25.514   3.616
54487W        W21270  35.910  13.736   4.657
54488W        W21271   0.822  40.924  12.014
54489W        W21272  12.573  11.555  12.884
54490W        W21273  27.140   1.973   0.350
54491W        W21274  21.484  34.467  14.793
54492W        W21275   3.617  11.425  11.165
54493W        W21276  22.970  43.803  13.918
54494W        W21277  11.873  34.375   0.375
54495W        W21278  41.532  17.841  11.707
54496W        W21279   8.296  12.599   0.449
54497W        W21280  41.293  31.615  11.947
54498W        W21281  37.091  29.206   3.817
54499W        W21282  13.747  27.131  11.133
54500W        W21283  38.915  32.483   4.734
54501W        W21284  29.637   4.636   0.147
54502W        W21285  43.890  28.476  11.489
54503W        W21286  18.041  34.100   0.923
54504W        W21287  10.816  27.658  10.929
54505W        W21288  35.482  36.116   4.937
54506W        W21289   5.000  32.915   4.648
54507W        W21290  20.981  17.216  12.409
54508W        W21291  37.858  40.089   1.642
54509W        W21292  30.478   1.460   2.898
54510W        W21293   0.387  34.047   1.697
54511W        W21294   8.601  13.491   0.730
54512W        W21295  37.380  41.210   2.370
54513W        W21296   4.340  16.307   2.905
54514W        W21297  18.758   2.522   0.735
54515W        W21298  35.049  28.286   1.406
54516W        W21299  19.221   1.721   0.860
54517W        W21300  21.728  15.548  12.874
54518W        W21301  20.827  41.386   3.729
54519W        W21302  40.085  24.664   4.656
54520W        W21303  19.061  33.287  13.537
54521W        W21304   2.727  25.210   2.095
54522W        W21305  18.564  31.444   0.893
54523W        W21306  13.714  27.654  13.292
54524W        W21307  10.827  25.632  12.497
54525W        W21308   8.690  20.004   2.593
54526W        W21309  36.307   0.457   3.756
54527W        W21310  42.531   8.251  11.719
54528W        W21311  31.668  19.857  13.000
54529W        W21312  21.179  32.565  13.118
54530W        W21313  44.910   2.809   1.007
54531W        W21314  13.145  25.602   4.562
54532W        W21315  40.520  18.138   1.634
54533W        W21316  25.297  31.184  12.021
54534W        W21317  38.968  41.279   4.105
54535W        W21318  43.203  24.409   3.539
54536W        W21319  28.471  36.567   0.347
54537W        W21320  33.232  30.902  13.911
54538W        W21321  34.488  37.076  13.892
54539W        W21322  28.998  22.119   3.613
54540W        W21323  32.179  25.457  11.113
54541W        W21324   2.766  37.999   4.795
54542W        W21325  35.363  37.199   2.550
54543W        W21326  21.961  19.230   4.286
54544W        W21327   2.932  34.580  10.706
54545W        W21328  42.569  14.249   3.709
54546W        W21329  40.920  23.058   4.619
54547W        W21330  17.807   9.888   0.173
54548W        W21331  21.005  29.550  14.458
54549W        W21332  37.253  42.451  11.500
54550W        W21333  23.285  26.439  14.818
54551W        W21334  35.398  12.622   3.109
54552W        W21335   7.790  31.646  11.493
54553W        W21336  23.218   4.040   2.243
54554W        W21337  20.236  34.585  13.399
54555W        W21338  15.263  31.899  12.588
54556W        W21339  43.586  43.287  13.976
54557W        W21340  18.579  23.260  12.684
54558W        W21341  16.223  24.636  10.666
54559W        W21342  16.208  41.823  11.928
54560W        W21343  38.394  32.021  11.977
54561W        W21344  39.488   7.758   3.758
54562W        W21345  40.568   6.665  13.152
54563W        W21346  34.463  16.580   4.276
54564W        W21347  23.104  10.977   4.781
54565W        W21348   4.037  36.813   1.403
54566W        W21349  36.645  41.278  10.425
54567W        W21350   1.238  38.833  13.551
54568W        W21351  38.612  17.216  11.081
54569W        W21352   7.878  15.287   0.400
54570W        W21353  42.845   9.688  14.113
54571W        W21354  19.186   9.800   4.552
54572W        W21355  20.905  28.501  13.894
54573W        W21356  27.586   5.664  14.191
54574W        W21357  36.966  28.367  14.369
54575W        W21358  34.934   6.718  10.859
54576W        W21359  12.741  25.571   4.219
54577W        W21360  38.467   7.269  11.512
54578W        W21361  11.764   5.587   5.421
54579W        W21362  23.479  40.095   2.673
54580W        W21363   7.315  27.674  11.107
54581W        W21364   3.970  22.778  13.024
54582W        W21365   8.836   5.556  10.298
54583W        W21366   3.095  16.626   0.688
54584W        W21367  33.456  22.866  11.097
54585W        W21368  36.080   6.136  13.961
54586W        W21369   0.334   2.658  10.716
54587W        W21370  17.839  42.592   1.393
54588W        W21371   8.092   8.943  10.089
54589W        W21372  40.769  16.214   1.755
54590W        W21373   9.350  23.745   0.924
54591W        W21374   3.433   7.643  11.213
54592W        W21375  35.459  19.116   1.169
54593W        W21376   0.534  24.250   4.216
54594W        W21377  26.525  18.717  10.710
54595W        W21378  41.942  20.102  12.898
54596W        W21379  10.858  23.251  14.285
54597W        W21380  10.643   9.123   0.875
54598W        W21381  44.044  41.523   0.002
54599W        W21382  43.711  39.740   0.424
54600W        W21383   1.870  37.469  10.890
54601W        W21384  32.603   3.866  11.560
54602W        W21385  40.198  35.260   1.391
54603W        W21386  22.710  23.173  11.607
54604W        W21387  27.517   6.933   2.946
54605W        W21388  13.191  37.335   1.856
54606W        W21389  22.017  19.480   3.833
54607W        W21390  37.489   6.856   2.871
54608W        W21391  23.279  25.490  14.881
54609W        W21392  26.746  19.214   1.173
54610W        W21393  37.056  36.477  12.570
54611W        W21394  30.344  34.173   0.694
54612W        W21395  44.439  40.577  11.193
54613W        W21396  34.457  39.069   4.610
54614W        W21397  42.689  36.085  11.216
54615W        W21398  16.411  20.985  11.573
54616W        W21399  17.778   9.735   1.294
54617W        W21400  27.664  42.219  12.908
54618W        W21401   9.061  42.914   1.225
54619W        W21402  30.143  19.701   1.650
54620W        W21403  18.053  40.789   0.323
54621W        W21404  28.961  38.352   4.117
54622W        W21405   1.567  13.118   3.065
54623W        W21406   5.519  44.011   3.613
54624W        W21407  38.419  15.814   4.770
54625W        W21408  38.325   2.741  14.550
54626W        W21409   4.286  12.420   2.703
54627W        W21410   7.346  33.926   3.623
54628W        W21411  36.365  17.192  13.574
54629W        W21412  32.250  36.256  13.690
54630W        W21413  25.582  12.197   1.731
54631W        W21414  44.380  43.875  11.896
54632W        W21415   0.328  28.159   3.257
54633W        W21416  23.223  41.420   0.443
54634W        W21417  30.663  41.689   4.869
54635W        W21418  27.460  22.402  14.523
54636W        W21419  33.145  43.925   1.410
54637W        W21420   9.100  41.732  13.809
54638W        W21421  33.357  29.538   4.115
54639W        W21422  40.347  32.557   1.923
54640W        W21423   0.291  11.682   3.196
54641W        W21424  44.491  27.407   3.578
54642W        W21425  19.520  39.570  11.188
54643W        W21426  15.063  14.851  12.902
54644W        W21427   8.006  18.394   2.888
54645W        W21428  19.233  11.392  14.267
54646W        W21429   9.200  43.713   0.618
54647W        W21430  10.533  37.585  11.118
54648W        W21431  17.843  31.930  13.801
54649W        W21432   6.497  44.790   0.465
54650W        W21433  21.755  10.824   4.510
54651W        W21434   3.918  22.149  14.606
54652W        W21435   8.327  15.342   3.360
54653W        W21436   9.957  26.095  12.540
54654W        W21437  41.755  37.921   0.804
54655W        W21438  11.664   3.303  13.333
54656W        W21439  34.725   7.446   4.191
54657W        W21440  44.849  27.654   3.833
54658W        W21441  39.208  30.135   1.796
54659W        W21442  17.574  25.154  14.380
54660W        W21443  24.916   9.120  14.308
54661W        W21444  27.511   5.720  14.713
54662W        W21445  43.315  10.496   0.296
54663W        W21446   8.927  11.153  14.432
54664W        W21447  25.616  15.177  13.636
54665W        W21448  29.478  26.632  10.658
54666W        W21449  23.284  42.013   3.576
54667W        W21450  27.644   9.829   1.304
54668W        W21451  13.736  36.520   2.688
54669W        W21452  33.669  40.761   1.132
54670W        W21453  34.229   5.747   0.605
54671W        W21454  31.420  43.784  11.184
54672W        W21455  17.688  23.034  11.490
54673W        W21456  14.072  34.561   3.707
54674W        W21457   5.736  16.735  14.089
54675W        W21458  28.087   4.028  13.494
54676W        W21459  24.147  17.742   2.704
54677W        W21460  25.182  42.832  14.510
54678W        W21461  41.453  36.878  13.185
54679W        W21462  35.801  26.045   3.367
54680W        W21463  22.572   0.996   4.535
54681W        W21464  21.346  11.549   2.693
54682W        W21465  26.861  41.510  12.788
54683W        W21466  19.258  16.724  14.794
54684W        W21467   2.194  39.908  14.567
54685W        W21468  10.460   2.772  12.386
54686W        W21469  27.015   8.610  12.998
54687W        W21470   8.794  43.584  12.128
54688W        W21471   3.231   1.736   1.417
54689W        W21472  42.794  11.754   2.818
54690W        W21473  11.137  40.420  11.607
54691W        W21474  44.887  18.285  13.444
54692W        W21475  10.780   6.143  13.096
54693W        W21476  30.913  31.870  13.795
54694W        W21477  16.679  18.505   2.331
54695W        W21478  15.904  24.227   4.146
54696W        W21479  23.185  27.234   4.796
54697W        W21480  22.651  37.850   4.196
54698W        W21481  35.407  22.404  14.461
54699W        W21482   7.612  19.396  14.225
54700W        W21483  25.900  44.778  13.851
54701W        W21484  16.263  25.061   0.817
54702W        W21485   5.911   9.365  10.695
54703W        W21486  43.405  32.033  12.044
54704W        W21487  16.666  39.975  13.447
54705W        W21488  35.999  15.220  13.879
54706W        W21489  18.789   7.798   1.628
54707W        W21490  34.417  38.901  14.014
54708W        W21491  39.446  37.384   0.118
54709W        W21492  10.283  39.464  12.945
54710W        W21493  26.471  12.204   3.791
54711W        W21494  33.520  14.753  10.908
54712W        W21495   4.143   0.379   3.089
54713W        W21496  34.949  17.924  14.342
54714W        W21497  11.672  42.450  14.484
54715W        W21498  27.630  39.448  13.392
54716W        W21499  14.644  12.099   0.724
54717W        W21500  18.878   3.236   4.182
54718W        W21501  34.560  14.853   1.689
54719W        W21502  14.423  30.030   4.275
54720W        W21503  11.411  38.640  13.800
54721W        W21504  39.783  28.177  11.168
54722W        W21505  25.071  36.786  14.284
54723W        W21506  17.781  33.952   0.483
54724W        W21507  18.629   6.293  13.761
54725W        W21508   9.887  23.514  10.631
54726W        W21509  31.906  12.799   3.584
54727W        W21510   2.020  25.747  13.408
54728W        W21511  38.387   4.718  11.599
54729W        W21512   2.649  10.658  11.608
54730W        W21513  13.545  26.857  13.122
54731W        W21514  15.096  43.772  14.039
54732W        W21515   1.385  37.903  11.478
54733W        W21516  32.099  25.576   4.071
54734W        W21517  22.208   4.104  11.223
54735W        W21518  11.222  12.665   3.516
54736W        W21519  24.256  35.412  10.724
54737W        W21520   2.031   6.343   2.089
54738W        W21521  43.030  13.202   1.831
54739W        W21522   1.729  31.373  12.726
54740W        W21523   5.478   9.700   3.330
54741W        W21524  22.525  31.413  14.019
54742W        W21525  43.957  24.828  13.029
54743W        W21526  32.651  27.421   3.413
54744W        W21527  28.481  13.611  11.651
54745W        W21528  44.127  14.541  11.167
54746W        W21529  36.840  31.447   0.705
54747W        W21530  10.528   5.154   0.386
54748W        W21531  16.313   7.798  11.214
54749W        W21532  30.867   3.714   2.791
54750W        W21533   8.514   4.927   2.266
54751W        W21534   0.517  33.606  14.765
54752W        W21535  22.105  14.366   0.854
54753W        W21536  30.866  13.741   4.889
54754W        W21537  43.450  26.958  10.815
54755W        W21538  36.983   3.025  13.489
54756W        W21539   4.518  29.956  11.694
54757W        W21540  26.723  42.113   4.158
54758W        W21541   3.394  35.468  11.580
54759W        W21542  23.772  44.523  14.773
54760W        W21543   2.787  26.137   3.026
54761W        W21544  11.223  43.418  14.706
54762W        W21545  20.439  21.211  14.566
54763W        W21546  21.823  31.294  11.150
54764W        W21547   3.971   6.730  13.153
54765W        W21548  21.907  32.867  14.437
54766W        W21549  15.402  35.145   2.997
54767W        W21550  41.872  22.969   4.562
54768W        W21551  22.469  39.316   3.346
54769W        W21552  11.744  36.804  14.974
54770W        W21553  41.020   6.019   3.245
54771W        W21554  30.532  21.464  14.293
54772W        W21555   0.825   2.437   4.823
54773W        W21556  21.620  16.433  11.055
54774W        W21557  19.121  12.728   2.580
54775W        W21558  19.156  35.942  14.902
54776W        W21559   5.879  36.865  11.421
54777W        W21560  41.922  31.419   4.107
54778W        W21561  38.012   1.329  14.107
54779W        W21562  16.354  27.987   0.634
54780W        W21563  27.512  33.954  12.612
54781W        W21564   9.889  22.839  13.808
54782W        W21565  44.499   2.560   2.383
54783W        W21566  18.579  18.784   3.590
54784W        W21567  26.241  41.337  10.726
54785W        W21568  38.059   3.718  13.861
54786W        W21569  17.633   2.417   1.767
54787W        W21570  32.914  40.872  12.069
54788W        W21571  23.850  30.024  12.601
54789W        W21572   8.565  36.416   4.881
54790W        W21573  34.154   6.710  11.590
54791W        W21574  26.060  43.292   1.807
54792W        W21575  19.494  31.351  10.787
54793W        W21576   6.769  36.828   2.383
54794W        W21577  21.621  36.003  11.997
54795W        W21578  42.562   1.173  11.283
54796W        W21579  23.231   9.972   4.610
54797W        W21580  34.455  38.100  14.845
54798W        W21581  39.976  41.231  11.605
54799W        W21582  40.852  14.480   2.679
54800W        W21583  38.805  44.438  13.117
54801W        W21584  41.862  15.378  11.616
54802W        W21585   1.513  14.400   0.364
54803W        W21586  11.842  12.976   1.448
54804W        W21587  27.168  19.756  10.040
54805W        W21588  43.373   8.602  13.833
54806W        W21589  29.789  29.886   4.888
54807W        W21590  43.955   4.408   3.985
54808W        W21591  24.402  18.744  14.525
54809W        W21592  21.788  24.948   4.221
54810W        W21593  25.214  14.042  12.133
54811W        W21594  15.409  31.427   3.514
54812W        W21595  33.982  14.908  10.652
54813W        W21596  17.292   4.209  12.051
54814W        W21597  31.642  11.226  14.401
54815W        W21598  44.936   8.845   3.194
54816W        W21599  15.208  19.473   4.657
54817W        W21600  19.965  11.218  13.551
54818W        W21601  44.306  18.739   3.766
54819W        W21602  42.890  25.459   2.897
54820W        W21603   6.211  30.539   0.861
54821W        W21604   2.257  38.872  10.347
54822W        W21605  15.627  12.233  14.333
54823W        W21606  19.820   4.314  12.341
54824W        W21607  10.386  40.859  14.433
54825W        W21608  35.576  17.648  13.122
54826W        W21609  44.449  15.590  12.836
54827W        W21610  25.175   3.778   1.813
54828W        W21611  10.868  22.858  13.895
54829W        W21612  26.886  26.251   2.352
54830W        W21613  21.309  40.257  10.852
54831W        W21614  29.117   5.472  11.162
54832W        W21615   4.780  42.635  12.946
54833W        W21616  42.589   9.391   4.616
54834W        W21617  31.778   6.327  13.698
54835W        W21618  22.229   1.317   2.723
54836W        W21619  28.587  25.617   4.051
54837W        W21620  27.524  25.529  14.503
54838W        W21621  12.200  13.080   4.472
54839W        W21622  23.171   4.436   5.382
54840W        W21623   7.177  40.648   4.910
54841W        W21624  43.907   7.730  12.088
54842W        W21625   5.698  31.265  14.938
54843W        W21626  38.562  13.738   0.295
54844W        W21627  22.875  12.429  10.779
54845W        W21628   9.464  34.658   0.288
54846W        W21629  38.236  39.731  13.428
54847W        W21630  14.238  16.561   1.395
54848W        W21631  17.598  13.347  11.058
54849W        W21632  35.019  39.350  11.029
54850W        W21633  19.712  31.697   2.482
54851W        W21634  20.344  28.444  11.999
54852W        W21635  23.883  42.889   1.936
54853W        W21636   0.363   9.208  13.641
54854W        W21637   4.684  36.377  14.101
54855W        W21638   6.145  31.185  13.535
54856W        W21639  21.092   7.598  11.975
54857W        W21640   9.496  24.624  11.080
54858W        W21641  23.129   3.795  14.684
54859W        W21642  31.705   5.489  10.535
54860W        W21643  12.573   0.324  10.600
54861W        W21644   2.212  24.338  11.734
54862W        W21645  11.674  33.367  12.203
54863W        W21646  37.557  16.661   3.714
54864W        W21647  37.953  16.283   0.758
54865W        W21648   1.739  21.459   4.248
54866W        W21649  23.933  42.062  14.491
54867W        W21650  29.775  36.943   1.832
54868W        W21651  21.943  17.179  11.647
54869W        W21652  34.045  35.101   4.854
54870W        W21653  25.498   1.121   5.080
54871W        W21654  36.578  37.185  14.221
54872W        W21655   4.123  37.457  11.875
54873W        W21656   7.827  34.693   3.779
54874W        W21657  25.567   3.362  13.613
54875W        W21658   3.467  12.330  13.462
54876W        W21659  14.864  28.696   2.257
54877W        W21660  40.402  43.230   1.869
54878W        W21661  33.398  20.669  14.870
54879W        W21662  10.013  42.096  11.177
54880W        W21663   2.465  30.363  14.126
54881W        W21664  21.725  22.615  13.496
54882W        W21665  11.380  13.845   3.218
54883W        W21666   8.818  29.126  10.560
54884W        W21667  33.832   8.849   4.519
54885W        W21668  24.474  20.600   3.163
54886W        W21669  22.185   6.043  10.488
54887W        W21670   6.291   7.521  11.552
54888W        W21671  28.586  41.472  13.730
54889W        W21672  43.398  22.682  13.018
54890W        W21673  33.469  37.339  11.139
54891W        W21674   6.805  36.848  13.809
54892W        W21675  12.116  34.198   5.157
54893W        W21676  22.315  15.449  10.599
54894W        W21677  40.331  10.934   2.820
54895W        W21678  37.756  25.555   0.961
54896W        W21679  17.305  23.240   0.009
54897W        W21680  25.606  30.368  14.428
54898W        W21681  20.287   2.391   1.699
54899W        W21682  39.000  26.532   2.366
54900W        W21683  34.076  37.425  13.780
54901W        W21684  29.074   5.040   4.464
54902W        W21685  28.697  15.749  11.352
54903W        W21686  31.690  21.689   2.582
54904W        W21687   9.093  42.811  13.957
54905W        W21688  33.517  19.323   5.495
54906W        W21689   4.813   9.450  13.335
54907W        W21690  19.741  15.720   2.236
54908W        W21691  13.899  21.955   2.852
54909W        W21692  28.292  40.362   3.536
54910W        W21693  24.029  26.134   1.247
54911W        W21694  43.738  39.617   4.316
54912W        W21695  35.552  11.979  13.994
54913W        W21696  36.117   8.285  12.038
54914W        W21697  42.537  21.192  14.746
54915W        W21698  36.568  12.749   2.055
54916W        W21699  35.017  27.301   3.312
54917W        W21700  36.221  21.999  10.293
54918W        W21701  22.770  19.642  13.064
54919W        W21702   4.752  43.562  14.024
54920W        W21703  19.894  32.953  13.114
54921W        W21704  22.528   8.678  14.362
54922W        W21705  22.264   9.720   0.020
54923W        W21706   6.996  31.010  13.835
54924W        W21707  27.118  28.552  11.933
54925W        W21708  12.586  36.308   3.638
54926W        W21709  15.701  42.521  12.339
54927W        W21710  26.746  14.350   2.699
54928W        W21711  10.293  36.803  10.697
54929W        W21712  37.860  12.190  10.764
54930W        W21713  20.765  16.135  10.153
54931W        W21714  17.616  26.202   0.313
54932W        W21715  27.237  20.515  12.952
54933W        W21716   3.799  33.871  13.569
54934W        W21717  12.002  25.328  13.202
54935W        W21718   4.742  40.889  10.710
54936W        W21719  34.176  38.959  14.980
54937W        W21720  16.264  42.421   3.460
54938W        W21721  23.963  37.504   0.949
54939W        W21722  39.979  28.027   2.737
54940W        W21723  34.445  28.765   3.996
54941W        W21724  40.924  38.133  11.672
54942W        W21725  25.728  21.093   3.227
54943W        W21726  23.301   3.523  12.495
54944W        W21727  17.034  41.043   1.029
54945W        W21728  30.601  37.304   1.870
54946W        W21729  14.772   1.677  11.158
54947W        W21730   1.887  26.080  12.126
54948W        W21731  17.294  34.032   3.701
54949W        W21732  35.390   5.359   1.105
54950W        W21733   1.923  22.267   2.975
54951W        W21734  34.635  27.738   0.266
54952W        W21735  44.964  23.294   1.909
54953W        W21736  43.377  26.069   1.826
54954W        W21737   8.295   7.134  11.201
54955W        W21738   9.156   9.390  12.182
54956W        W21739  14.746   1.264  10.645
54957W        W21740  38.467  20.811   3.797
54958W        W21741  19.365  16.468  14.053
54959W        W21742   1.085  13.389  11.611
54960W        W21743  11.852  39.750   4.219
54961W        W21744  23.013  28.029   0.558
54962W        W21745  32.092  40.531  13.335
54963W        W21746   5.853  24.696   1.755
54964W        W21747  39.870  19.169  13.394
54965W        W21748   7.672  27.244   3.843
54966W        W21749   7.666   3.371   2.757
54967W        W21750   1.195   7.654   2.193
54968W        W21751   4.312  34.292  10.721
54969W        W21752  11.263   2.929   0.408
54970W        W21753  36.109  40.455  12.953
54971W        W21754  43.962   0.529  12.006
54972W        W21755  12.558  10.665  12.072
54973W        W21756  39.029  31.624  10.724
54974W        W21757  35.066   9.923   3.051
54975W        W21758   7.126  13.613   0.757
54976W        W21759   6.692   9.622  11.981
54977W        W21760  19.381  39.114   2.171
54978W        W21761   6.417  34.066   1.764
54979W        W21762  39.582   0.988   0.352
54980W        W21763  24.577   2.191   5.098
54981W        W21764  44.831  25.298  13.120
54982W        W21765  30.271   5.871  11.931
54983W        W21766   7.341   7.031  13.848
54984W        W21767  22.201  33.645   3.547
54985W        W21768  23.582  10.860  12.432
54986W        W21769   6.773  13.837   3.605
54987W        W21770   5.876   3.970   3.838
54988W        W21771   6.277  26.390   0.825
54989W        W21772  30.028   6.383  12.866
54990W        W21773  31.871  15.884   3.063
54991W        W21774   6.285  25.712   4.152
54992W        W21775  34.133   0.189  11.281
54993W        W21776  37.027  20.155   1.350
54994W        W21777  25.531  24.582   3.092
54995W        W21778  27.020   6.011  10.345
54996W        W21779   1.536  44.953   3.545
54997W        W21780  32.539   6.173   2.730
54998W        W21781  15.335  10.860   3.775
54999W        W21782  12.998  19.843   9.932
55000W        W21783   7.948  30.474  12.552
55001W        W21784   3.460  29.412  10.606
55002W        W21785  42.356  34.935   4.615
55003W        W21786  10.697   4.683   3.311
55004W        W21787  40.793  24.036  13.399
55005W        W21788  13.535  28.388  14.959
55006W        W21789  29.723  32.709   4.581
55007W        W21790  15.790  40.389   4.435
55008W        W21791  33.841  41.522  14.419
55009W        W21792  28.377  13.157  11.908
55010W        W21793   8.607   3.229  11.844
55011W        W21794  30.305  33.140   1.912
55012W        W21795  34.075  22.687  13.912
55013W        W21796   9.517   4.877   2.328
55014W        W21797  29.704  38.437  13.787
55015W        W21798  36.909  15.828   1.526
55016W        W21799  20.533  23.209  12.482
55017W        W21800  16.012   1.141  11.083
55018W        W21801  43.829  29.532  13.928
55019W        W21802   5.667  39.611  13.409
55020W        W21803   0.855  15.695   4.051
55021W        W21804  10.949  44.483   1.204
55022W        W21805   8.078  35.394   3.227
55023W        W21806   8.110  11.097  14.967
55024W        W21807  20.927  16.038  12.315
55025W        W21808  28.013  17.751  14.410
55026W        W21809  35.194   4.244   1.659
55027W        W21810  43.608  36.464   2.859
55028W        W21811  38.624   5.610   1.262
55029W        W21812  43.342  14.131  13.592
55030W        W21813  43.954  10.900   0.043
55031W        W21814   3.470  25.184   2.683
55032W        W21815   6.644   0.975   0.004
55033W        W21816  11.932  27.136   2.750
55034W        W21817  23.977   1.410  12.291
55035W        W21818   1.392  14.629  14.494
55036W        W21819  26.666  23.255   2.121
55037W        W21820   9.705  26.736   1.025
55038W        W21821   9.592  22.654   0.396
55039W        W21822   6.201  44.976  12.319
55040W        W21823   3.226  13.752  11.700
55041W        W21824  24.621  19.258  12.586
55042W        W21825  36.231   9.049   1.815
55043W        W21826  13.272  10.667  11.658
55044W        W21827  22.113  37.382  11.903
55045W        W21828  33.660   4.439  14.464
55046W        W21829  17.809  43.015   4.542
55047W        W21830   9.274  41.115  13.114
55048W        W21831  15.840  42.075   1.343
55049W        W21832  13.980  19.822   3.635
55050W        W21833  21.799  21.137  12.645
55051W        W21834   4.388   2.888  11.863
55052W        W21835   2.176   5.597  12.112
55053W        W21836  27.452  25.058   3.310
55054W        W21837   7.184   6.163   0.362
55055W        W21838   3.766   4.349   2.284
55056W        W21839  38.127  24.231   3.086
55057W        W21840  44.236  44.591   4.012
55058W        W21841   8.229  19.972   0.318
55059W        W21842   5.154  16.059   0.581
55060W        W21843  35.860  40.352  14.840
55061W        W21844  38.833  37.654   1.793
55062W        W21845  27.028   9.721   4.764
55063W        W21846  13.657   5.805   0.521
55064W        W21847  21.663  36.850   4.769
55065W        W21848  43.014  27.445  14.537
55066W        W21849   6.281   0.828   4.633
55067W        W21850   8.429   9.417  14.567
55068W        W21851  16.482   5.800  11.748
55069W        W21852  18.580  19.088   0.222
55070W        W21853  15.997  29.855  11.159
55071W        W21854  20.915  43.749  11.059
55072W        W21855  29.850   6.293  11.098
55073W        W21856   8.471  38.962  12.038
55074W        W21857  31.369  19.557   4.050
55075W        W21858  10.003   4.926   4.973
55076W        W21859  23.298  18.379   3.603
55077W        W21860  12.727  26.554  10.961
55078W        W21861  37.298  25.061   2.784
55079W        W21862  24.557   2.014  12.005
55080W        W21863  13.669  27.402  14.680
55081W        W21864  43.912  27.509   3.716
55082W        W21865  28.452  43.924  13.947
55083W        W21866  40.449  43.371  10.769
55084W        W21867  43.856   8.134   2.855
55085W        W21868   0.711  32.045   2.591
55086W        W21869   9.930  16.099   4.757
55087W        W21870  14.625  38.118  14.258
55088W        W21871  11.316   4.215  11.048
55089W        W21872  23.160  30.516   3.734
55090W        W21873   8.960  15.403   4.515
55091W        W21874  24.763  43.742  14.408
55092W        W21875   5.868  41.006   4.306
55093W        W21876   7.979  25.794  14.367
55094W        W21877  27.054  23.003   2.414
55095W        W21878  10.556  21.294   0.381
55096W        W21879  30.865  35.061  14.334
55097W        W21880  40.399  35.456   4.234
55098W        W21881  22.574  33.409   1.393
55099W        W21882  11.266   1.877   1.231
55100W        W21883  34.638  12.775  14.424
55101W        W21884  21.806  32.553   2.833
55102W        W21885  44.520  40.939  13.867
55103W        W21886  35.126  32.327  10.767
55104W        W21887  11.688  26.510  11.960
55105W        W21888   0.982  18.163  13.903
55106W        W21889  19.846  43.968   1.763
55107W        W21890  18.381  24.104   4.930
55108W        W21891  10.572  44.819  12.875
55109W        W21892  40.404  31.794   2.357
55110W        W21893  26.001  27.151   0.902
55111W        W21894   3.472  37.523  13.436
55112W        W21895  33.331  36.609  11.553
55113W        W21896  21.602  26.767   1.753
55114W        W21897  38.332  34.089   0.862
55115W        W21898  43.914  39.124  14.890
55116W        W21899  15.576   1.061   4.313
55117W        W21900  14.294   7.361  10.512
55118W        W21901  15.063  22.792  11.486
55119W        W21902  29.475  37.314   5.038
55120W        W21903  25.649   9.799  12.939
55121W        W21904  18.089  12.129   4.484
55122W        W21905  40.571  41.269  14.548
55123W        W21906  39.170  14.110  14.774
55124W        W21907  21.325   4.121  14.828
55125W        W21908  40.293  13.082   0.181
55126W        W21909  16.283  17.991  11.499
55127W        W21910   2.359  19.539  14.951
55128W        W21911   3.856  28.062   1.077
55129W        W21912  16.206  10.211   2.958
55130W        W21913  36.027  31.464   4.556
55131W        W21914  33.351   4.720  13.077
55132W        W21915  21.849  14.844   2.322
55133W        W21916  41.540  35.756   4.376
55134W        W21917  23.758   6.618   3.227
55135W        W21918   9.303   8.537   3.665
55136W        W21919  37.964  31.756  11.935
55137W        W21920  20.452  28.742  13.819
55138W        W21921  19.734   6.840   3.296
55139W        W21922  33.489  12.391  13.454
55140W        W21923  37.012  18.189  12.142
55141W        W21924   2.199   1.264  12.030
55142W        W21925   9.139  21.292   3.274
55143W        W21926  38.356  24.670  12.920
55144W        W21927  37.820   0.302   2.954
55145W        W21928   1.242  42.511  14.867
55146W        W21929  27.248   1.277  12.525
55147W        W21930  18.527  20.907   2.468
55148W        W21931  27.657  37.641  13.905
55149W        W21932  36.274   4.356   1.457
55150W        W21933  31.910  38.331   0.863
55151W        W21934  41.806   0.779  13.385
55152W        W21935   4.843   0.534  13.790
55153W        W21936  40.613   6.527  13.657
55154W        W21937  17.190  33.850  11.979
55155W        W21938  32.956  10.324  10.203
55156W        W21939  28.990   7.465   3.958
55157W        W21940  10.198   2.892   4.821
55158W        W21941  42.332  31.657   2.311
55159W        W21942  42.056  29.664   2.859
55160W        W21943   3.249   5.252   4.677
55161W        W21944  25.269  22.310  14.015
55162W        W21945   1.400  36.577   3.897
55163W        W21946   2.061  18.308   3.385
55164W        W21947  42.346   5.239  13.819
55165W        W21948   3.325  30.967   3.357
55166W        W21949  40.971  43.504  14.522
55167W        W21950   8.811  13.288   5.213
55168W        W21951  43.827  37.379  10.523
55169W        W21952  38.388  28.832   2.686
55170W        W21953  22.419  40.813   4.769
55171W        W21954  16.768  10.386   1.788
55172W        W21955   7.821  37.022  12.827
55173W        W21956  36.084  20.693  12.642
55174W        W21957   1.297  44.212  12.128
55175W        W21958  33.009  34.170  13.550
55176W        W21959   0.930  19.238  10.640
55177W        W21960  15.321  20.113  11.099
55178W        W21961  32.182  14.295  10.047
55179W        W21962   7.310  25.107  12.475
55180W        W21963  12.232  35.182   5.101
55181W        W21964  42.482  44.336  13.234
55182W        W21965  32.576  27.011  10.317
55183W        W21966   1.174  42.264   0.334
55184W        W21967  18.278  26.669   3.826
55185W        W21968  37.325  39.309  11.482
55186W        W21969  26.736  40.938  14.784
55187W        W21970  28.402  29.734  14.472
55188W        W21971  40.083  42.253   4.073
55189W        W21972  23.277   1.787  13.802
55190W        W21973  27.450   4.889  12.327
55191W        W21974  36.172  15.737   2.915
55192W        W21975  23.017  34.647  14.411
55193W        W21976  28.904  27.257  10.706
55194W        W21977  16.672  10.142   3.172
55195W        W21978  17.249  34.787  11.980
55196W        W21979  10.212  31.642  12.872
55197W        W21980  15.399  43.944  14.443
55198W        W21981  31.367  38.897   1.777
55199W        W21982  37.562  18.546   2.724
55200W        W21983   6.049   1.844   2.971
55201W        W21984  23.613   3.782  11.199
55202W        W21985   2.045   9.978   3.826
55203W        W21986  32.384  17.775   1.847
55204W        W21987  24.178  18.217  14.463
55205W        W21988  44.778  28.120   0.271
55206W        W21989   2.376  22.497  14.955
55207W        W21990  41.351  27.553  12.332
55208W        W21991  36.251  42.859   0.268
55209W        W21992   6.908  33.924   4.501
55210W        W21993  26.164  24.802  13.683
55211W        W21994   7.666  23.298   3.709
55212W        W21995  31.398  35.885   3.440
55213W        W21996  42.952  23.026  14.681
55214W        W21997  17.558  18.046   3.244
55215W        W21998  13.873  12.410  11.789
55216W        W21999   2.025   1.291  13.582
55217W        W22000  20.352  15.722  14.503
55218W        W22001  31.459  22.524  12.076
55219W        W22002  43.509   0.304   3.812
55220W        W22003  36.877  19.288  13.146
55221W        W22004  33.018   0.051  11.921
55222W        W22005  17.286   9.408   0.418
55223W        W22006  14.974  40.785  12.462
55224W        W22007  11.769  38.857   2.617
55225W        W22008  13.890  42.727  13.296
55226W        W22009   0.532  15.828   3.690
55227W        W22010  25.451  27.989  11.544
55228W        W22011  43.258  11.973  14.282
55229W        W22012  32.113  22.236   2.820
55230W        W22013   0.002  43.431  11.548
55231W        W22014  39.168  41.757   1.968
55232W        W22015  30.056  30.606   0.150
55233W        W22016   4.261  16.241  13.961
55234W        W22017   9.392  34.450   0.777
55235W        W22018   3.738  39.266   3.376
55236W        W22019  24.689  18.294  14.399
55237W        W22020  35.335  10.759   3.370
55238W        W22021   9.204  27.931   4.396
55239W        W22022  14.173   1.066  12.437
55240W        W22023  11.339  43.974   4.509
55241W        W22024  15.208  43.230   3.516
55242W        W22025  10.543   6.325   4.973
55243W        W22026  23.028  38.897   4.627
55244W        W22027   5.432   9.885   3.836
55245W        W22028   8.130  37.061  14.326
55246W        W22029   4.671  39.849   0.941
55247W        W22030  21.205  30.416  14.844
55248W        W22031  17.752  38.419   3.240
55249W        W22032  38.942  32.465   2.279
55250W        W22033   0.760   2.876  11.029
55251W        W22034  35.882  39.950  12.961
55252W        W22035   3.000  32.507   3.822
55253W        W22036  31.167  32.928   3.357
55254W        W22037  32.358  12.350   1.894
55255W        W22038  43.295  32.083   0.875
55256W        W22039  22.319  19.973   0.342
55257W        W22040   7.854  19.536   0.852
55258W        W22041  22.531  24.065   0.723
55259W        W22042  21.670  14.229  10.681
55260W        W22043  35.065   2.213  14.502
55261W        W22044  34.335  16.192   1.756
55262W        W22045  23.916  29.184  10.938
55263W        W22046   4.699  21.092  10.924
55264W        W22047   2.751  44.334  10.592
55265W        W22048  12.242   2.161  10.722
55266W        W22049  36.566   6.215  11.286
55267W        W22050  39.891  38.046  14.485
55268W        W22051  22.177  41.898   2.784
55269W        W22052  32.857  14.070   3.196
55270W        W22053  25.517  29.991  14.804
55271W        W22054  28.408  31.055   4.218
55272W        W22055  21.232  20.776  11.449
55273W        W22056  38.929   2.694   1.920
55274W        W22057   0.109  43.130  14.740
55275W        W22058  19.527   5.434   2.141
55276W        W22059  13.897   8.873   3.710
55277W        W22060   0.519  36.459   3.910
55278W        W22061  20.168  25.905  12.549
55279W        W22062  38.286  14.714  11.045
55280W        W22063  36.381  42.458   3.174
55281W        W22064   5.756  41.359  13.333
55282W        W22065  38.464   0.917  14.546
55283W        W22066  37.010  11.597  10.676
55284W        W22067  11.347  44.491   4.528
55285W        W22068  31.361   1.470  14.126
55286W        W22069  36.847  18.602  13.877
55287W        W22070  15.151   5.742  10.642
55288W        W22071  31.591  41.021  14.005
55289W        W22072   4.840   4.537  11.269
55290W        W22073  36.245  37.494   0.095
55291W        W22074  11.175  17.603  13.928
55292W        W22075  27.451  21.467  13.073
55293W        W22076  23.622  31.128  13.544
55294W        W22077  24.223  39.910   1.942
55295W        W22078   8.405   6.561  14.964
55296W        W22079  41.964  32.977  13.963
55297W        W22080  32.153   8.412   3.940
55298W        W22081  16.953  31.939  10.776
55299W        W22082  41.040  28.970   3.618
55300W        W22083  42.429  25.994   3.628
55301W        W22084  33.745  35.088   2.574
55302W        W22085  27.128  18.359   0.314
55303W        W22086  21.489  28.122   4.516
55304W        W22087  21.297  20.994   3.708
55305W        W22088  13.809  25.681  14.274
55306W        W22089  37.520  30.818  12.665
55307W        W22090  38.526   7.807  13.024
55308W        W22091  19.082  10.419  13.066
55309W        W22092  18.268  30.469  10.702
55310W        W22093  18.850  22.978  11.057
55311W        W22094   1.533  22.282   2.590
55312W        W22095  30.124  20.014  11.986
55313W        W22096  38.325  24.539   0.916
55314W        W22097  10.544   7.981   3.472
55315W        W22098  42.021  17.652   3.135
55316W        W22099  43.058  18.486  14.871
55317W        W22100   6.209  24.893  13.119
55318W        W22101  12.336  28.214   2.025
55319W        W22102  36.773  19.952  14.400
55320W        W22103  37.611   2.472   3.599
55321W        W22104  16.892  30.949  13.182
55322W        W22105   3.892  35.462   0.028
55323W        W22106  15.738  25.734  14.556
55324W        W22107   1.579  25.591  12.133
55325W        W22108  22.973  23.118  14.564
55326W        W22109  16.187  15.268   2.394
55327W        W22110   7.239  23.510   4.533
55328W        W22111   5.415   4.418  14.652
55329W        W22112  23.112  17.948  11.610
55330W        W22113  41.676  18.073  14.452
55331W        W22114  23.890   3.212  14.240
55332W        W22115   7.154  12.137   3.323
55333W        W22116   7.230  44.340  12.696
55334W        W22117  18.414  25.565   0.414
55335W        W22118  13.553  15.673   0.429
55336W        W22119  21.086  22.753   2.135
55337W        W22120  12.382   6.141   4.220
55338W        W22121  11.146   8.388   0.890
55339W        W22122   9.272  25.142   4.604
55340W        W22123  34.834  13.689   2.816
55341W        W22124  30.183  12.444  14.456
55342W        W22125  17.133  26.142   3.925
55343W        W22126  29.020  27.706  10.440
55344W        W22127  13.122  20.319   2.774
55345W        W22128  16.993  41.513  11.729
55346W        W22129  31.452   6.819  10.571
55347W        W22130   2.193  26.711  14.439
55348W        W22131  27.741  44.714   3.910
55349W        W22132  36.350  43.939  12.335
55350W        W22133  24.469  22.992  13.717
55351W        W22134  32.378  41.372   1.121
55352W        W22135  25.703  14.211   2.658
55353W        W22136  38.904  19.310  14.373
55354W        W22137  18.089  41.806   0.952
55355W        W22138   7.581  24.231  10.720
55356W        W22139  33.105  33.073   4.621
55357W        W22140  34.503  24.473  11.000
55358W        W22141  33.826  30.016  14.648
55359W        W22142   6.929  39.238   0.558
55360W        W22143  40.290   9.306  11.212
55361W        W22144   2.776  19.048   4.153
55362W        W22145  28.607  10.623   0.817
55363W        W22146  22.528   3.137   3.512
55364W        W22147  44.814  17.102   9.708
55365W        W22148   5.954   1.515  10.971
55366W        W22149  39.782  28.951  11.936
55367W        W22150  25.996  23.642   1.843
55368W        W22151   3.313   3.468   3.737
55369W        W22152  39.154  29.541   2.134
55370W        W22153  40.785  39.513  11.527
55371W        W22154  12.600  22.460   0.739
55372W        W22155   8.515   8.779   4.212
55373W        W22156  31.938  19.327   4.247
55374W        W22157  40.153  30.880   3.383
55375W        W22158   6.378  13.118   0.120
55376W        W22159  34.148  14.866   1.339
55377W        W22160  29.898  14.829   1.898
55378W        W22161  21.203   1.104   1.709
55379W        W22162  32.374  25.486  10.615
55380W        W22163  30.410  25.742   3.202
55381W        W22164  16.566  35.786  14.794
55382W        W22165   5.789  15.484   1.668
55383W        W22166  37.580  27.417   1.868
55384W        W22167  14.770  13.863   3.425
55385W        W22168  11.716  41.219   4.836
55386W        W22169   7.832  29.974  12.492
55387W        W22170  36.649  20.133   3.740
55388W        W22171  37.066  36.106  13.557
55389W        W22172  36.810  41.743   4.984
55390W        W22173   3.705  36.824  13.023
55391W        W22174  29.220  14.148  11.102
55392W        W22175  17.671   4.806   2.784
55393W        W22176  32.535  39.493   2.895
55394W        W22177  28.890  28.137   0.414
55395W        W22178  30.669  36.433  12.114
55396W        W22179  38.184  10.727  10.448
55397W        W22180  24.515  34.517  13.814
55398W        W22181  44.861   3.229   3.257
55399W        W22182  23.929  41.887   4.803
55400W        W22183   8.879  16.797   2.641
55401W        W22184  24.182  20.722   0.882
55402W        W22185  37.383  36.937  13.823
55403W        W22186  27.315  19.768  14.563
55404W        W22187  17.009  32.195   9.947
55405W        W22188  26.182  31.275  14.005
55406W        W22189  34.392  44.827   0.661
55407W        W22190  19.746  30.891  11.681
55408W        W22191  35.046   5.983  13.502
55409W        W22192   5.929   0.963   2.272
55410W        W22193  23.957  23.790   2.112
55411W        W22194  27.581  28.447   0.219
55412W        W22195  42.672   0.503   2.766
55413W        W22196  14.272  40.946  11.175
55414W        W22197   4.919  28.821   0.359
55415W        W22198  39.846  37.529   5.074
55416W        W22199  27.247  27.214  13.772
55417W        W22200  13.103  34.561  10.707
55418W        W22201  43.836  26.529  13.967
55419W        W22202  40.056  21.235  11.242
55420W        W22203  29.049   4.486   2.693
55421W        W22204  29.489  42.979  13.644
55422W        W22205  23.618   3.331   3.545
55423W        W22206   6.823  40.773   0.458
55424W        W22207  20.534  13.576  10.287
55425W        W22208  39.586  29.427   1.286
55426W        W22209  38.545  22.971   0.828
55427W        W22210  15.313  16.579  13.940
55428W        W22211  14.378  32.623   2.876
55429W        W22212  35.553   5.729   4.937
55430W        W22213   0.628  26.758   4.654
55431W        W22214  16.651  11.759   1.783
55432W        W22215   5.971  13.878  14.351
55433W        W22216  42.876  32.850   1.596
55434W        W22217  30.753  35.064  13.812
55435W        W22218  10.679  22.746  14.351
55436W        W22219  36.140  19.779   4.449
55437W        W22220   8.849   4.780  11.544
55438W        W22221  16.263  39.822  10.571
55439W        W22222  25.017  23.631   1.491
55440W        W22223  33.633   0.495   4.436
55441W        W22224   7.736  35.057  12.440
55442W        W22225  38.790  12.942  11.924
55443W        W22226  22.722  37.589   2.261
55444W        W22227  43.790  22.048  12.773
55445W        W22228   1.364  12.379   4.414
55446W        W22229  37.215   8.173  14.392
55447W        W22230  27.120  30.444  12.207
55448W        W22231  44.401  34.353  12.274
55449W        W22232   5.411  30.823  11.991
55450W        W22233  29.295  28.461   5.081
55451W        W22234  34.113  21.513  14.611
55452W        W22235  22.178   1.291   9.765
55453W        W22236  41.344  13.804   2.464
55454W        W22237  14.900  31.638  11.480
55455W        W22238   6.306  16.327  12.132
55456W        W22239   4.148  27.429  14.860
55457W        W22240  39.356  33.529   1.576
55458W        W22241   3.959  29.428  13.316
55459W        W22242  44.487  38.561  11.973
55460W        W22243  30.977  29.480   1.485
55461W        W22244  42.360  10.234  11.185
55462W        W22245   7.885  41.171   4.227
55463W        W22246  25.539  39.074  14.388
55464W        W22247  37.297  41.421  11.078
55465W        W22248  31.465  27.538   0.933
55466W        W22249  44.039  14.314   3.540
55467W        W22250  40.308  15.366   1.805
55468W        W22251   5.548  19.652   1.871
55469W        W22252   0.254  23.248  11.124
55470W        W22253  42.321  15.659  14.164
55471W        W22254  22.006  24.539   2.295
55472W        W22255  13.097   6.378   3.409
55473W        W22256  40.750   9.992  12.090
55474W        W22257  44.934  44.439   1.740
55475W        W22258  37.608   9.901  13.277
55476W        W22259  34.415  24.458  13.120
55477W        W22260  31.311   9.894   3.728
55478W        W22261  17.910  18.975   4.854
55479W        W22262  42.441  37.455   0.307
55480W        W22263  24.645  36.938   0.205
55481W        W22264  12.833  30.852   1.158
55482W        W22265   1.813  38.861   2.666
55483W        W22266  14.811  24.161   3.224
55484W        W22267  44.362  33.104   4.827
55485W        W22268   8.097   6.811   2.301
55486W        W22269  43.817  35.456  11.868
55487W        W22270  10.568   9.855   4.122
55488W        W22271  24.845  40.068  12.083
55489W        W22272  30.618  36.818   0.677
55490W        W22273  18.026  29.604   1.893
55491W        W22274  15.910  43.341   2.944
55492W        W22275  35.636   8.784   3.723
55493W        W22276   5.689   4.206   1.266
55494W        W22277  42.703  33.389  14.068
55495W        W22278  14.237   5.765   3.315
55496W        W22279   2.393  28.959  11.668
55497W        W22280  39.980   4.105  12.404
55498W        W22281  29.357  11.716  11.117
55499W        W22282  17.532   9.385   2.136
55500W        W22283  19.527   6.306   2.369
55501W        W22284  13.677  42.976   4.227
55502W        W22285  29.464  44.293   0.337
55503W        W22286  40.888  18.499   4.807
55504W        W22287  18.636   4.249   4.050
55505W        W22288  18.458  22.681  13.396
55506W        W22289   2.795  22.753   0.759
55507W        W22290  35.927   8.202   1.363
55508W        W22291   6.857  22.502   2.680
55509W        W22292  14.125  23.237  12.910
55510W        W22293  16.874   6.749   0.049
55511W        W22294  36.510  15.240  12.569
55512W        W22295  15.077   4.865  14.460
55513W        W22296  31.930  37.542  13.390
55514W        W22297  21.626  22.553  10.587
55515W        W22298   4.924  28.275   0.397
55516W        W22299   9.008   4.260   0.726
55517W        W22300  44.257  27.224  13.404
55518W        W22301  37.392  33.978  13.468
55519W        W22302  23.894  39.466   4.127
55520W        W22303   6.975  33.598   2.410
55521W        W22304  44.826   2.329   4.085
55522W        W22305  26.321   7.960   2.947
55523W        W22306   0.812  15.519  11.975
55524W        W22307  44.974  29.001  14.004
55525W        W22308  39.581  26.434  11.909
55526W        W22309  18.911  28.208  11.245
55527W        W22310  29.338  42.453  13.709
55528W        W22311  18.212   9.739   4.227
55529W        W22312   8.288  39.852  12.035
55530W        W22313  42.404  31.600  14.004
55531W        W22314  18.015   9.788  13.361
55532W        W22315  43.879  13.308   0.383
55533W        W22316   4.723   3.477   2.135
55534W        W22317  11.843  20.187  11.558
55535W        W22318  26.351   0.796   5.087
55536W        W22319   1.109  21.436   4.885
55537W        W22320  29.747  18.773  14.363
55538W        W22321  11.903  29.006  10.789
55539W        W22322  10.335  20.006  14.960
55540W        W22323  22.753  28.522   3.710
55541W        W22324   3.251  11.163   4.684
55542W        W22325   1.788   8.252  13.065
55543W        W22326   5.307  11.630  12.189
55544W        W22327  38.458  21.196   0.277
55545W        W22328  24.585  34.153   1.828
55546W        W22329  13.166  15.135  11.492
55547W        W22330  13.883   2.268   3.387
55548W        W22331  22.605   6.627  14.769
55549W        W22332  24.832  18.906   0.015
55550W        W22333  44.242  43.797  12.583
55551W        W22334  19.789   7.362  14.444
55552W        W22335  30.913  35.565   0.287
55553W        W22336  34.934  17.548  12.029
55554W        W22337  39.271   7.145   0.884
55555W        W22338  23.321  12.632   1.371
55556W        W22339   8.823   2.726  12.411
55557W        W22340  25.269  14.763   3.682
55558W        W22341   9.393  19.707  14.925
55559W        W22342  33.424   6.687  12.501
55560W        W22343  16.080  43.446   1.308
55561W        W22344  33.632   1.821  10.355
55562W        W22345  32.538  35.427  14.271
55563W        W22346   2.429  33.197   3.009
55564W        W22347  31.630  18.650  11.921
55565W        W22348  36.701  17.528  12.498
55566W        W22349   0.169  17.450  14.621
55567W        W22350  12.396  12.804   3.122
55568W        W22351  36.518  43.033  13.605
55569W        W22352  32.563  30.570   4.316
55570W        W22353  33.453  22.915  12.343
55571W        W22354  25.483  24.725  12.568
55572W        W22355  18.091  18.616   3.704
55573W        W22356  15.340  39.136  12.045
55574W        W22357   9.650  11.365  14.959
55575W        W22358   3.163  18.892   1.610
55576W        W22359  35.362  41.727  13.991
55577W        W22360  25.201   8.384   3.683
55578W        W22361  41.745  27.398   1.391
55579W        W22362  44.050  43.970  14.891
55580W        W22363  24.793   8.635   3.866
55581W        W22364   0.741  11.612   1.870
55582W        W22365  25.179  17.580   1.169
55583W        W22366  12.417  22.008   4.561
55584W        W22367  13.561  31.081   1.847
55585W        W22368  42.110  18.446   3.772
55586W        W22369  35.829  10.345   1.729
55587W        W22370   5.610  10.649   1.203
55588W        W22371  25.018   6.885   4.551
55589W        W22372  33.839  18.859  14.730
55590W        W22373  33.901  15.526   2.369
55591W        W22374  41.892  32.163   3.292
55592W        W22375  31.157  28.099  12.376
55593W        W22376  19.550  15.525   3.551
55594W        W22377  12.575  13.752  11.877
55595W        W22378  19.060  36.545  13.608
55596W        W22379  10.557  26.648   3.273
55597W        W22380  29.621  11.381  13.735
55598W        W22381  16.822  27.144   0.267
55599W        W22382  34.529   4.082  14.368
55600W        W22383  41.263   5.291   0.959
55601W        W22384  37.513  27.479  14.104
55602W        W22385  41.184   6.344  11.807
55603W        W22386  30.170  44.660   2.117
55604W        W22387  27.260  11.298  11.117
55605W        W22388  32.803  18.737  10.075
55606W        W22389   1.051   2.328  12.996
55607W        W22390  30.981  26.510   0.209
55608W        W22391   1.782  38.542  13.470
55609W        W22392  21.246  21.492  14.383
55610W        W22393  38.829  17.704   0.307
55611W        W22394   5.407  17.070   2.271
55612W        W22395   2.900  39.039   4.455
55613W        W22396   1.260  18.658   2.664
55614W        W22397  35.590  42.451  12.324
55615W        W22398  24.417  36.664   4.463
55616W        W22399  26.707  29.600  14.478
55617W        W22400   7.981  27.933   2.204
55618W        W22401   7.635   8.871   0.445
55619W        W22402  22.592   8.071  12.494
55620W        W22403  13.582   3.866   3.252
55621W        W22404  29.073   6.937  14.408
55622W        W22405   1.143  36.852   3.088
55623W        W22406   0.888  38.325   1.966
55624W        W22407  38.783  42.203  11.121
55625W        W22408  14.223   1.967   3.816
55626W        W22409  20.971  22.611   2.632
55627W        W22410  44.567  17.285   4.950
55628W        W22411   8.422  17.146   4.656
55629W        W22412  27.689   3.338  13.869
55630W        W22413  42.367  11.081   3.277
55631W        W22414   3.068  35.805  13.842
55632W        W22415   8.367  29.914   0.176
55633W        W22416  13.162  10.247   1.904
55634W        W22417  31.476  24.287   0.821
55635W        W22418   6.690  30.042   4.177
55636W        W22419  22.219  32.545   0.916
55637W        W22420  17.793  13.943  14.731
55638W        W22421  29.955  35.196  13.439
55639W        W22422  14.268   7.374  14.861
55640W        W22423  19.691  21.757  12.701
55641W        W22424   7.764  41.670   1.706
55642W        W22425  12.602   3.059  13.068
55643W        W22426  38.391  43.098   3.337
55644W        W22427  31.482  30.670  10.675
55645W        W22428   5.783   2.444  12.520
55646W        W22429  25.081   8.078   1.821
55647W        W22430  44.337  40.716   3.751
55648W        W22431   4.636   7.683   3.759
55649W        W22432  19.495   9.128   3.387
55650W        W22433  33.537  18.573   4.013
55651W        W22434   3.815  30.036   1.947
55652W        W22435  22.950  20.524  12.868
55653W        W22436  10.235   9.719  10.753
55654W        W22437  13.563   9.912   1.904
55655W        W22438  14.686  10.181  14.488
55656W        W22439  32.504  13.794   2.249
55657W        W22440  36.158  16.348   1.494
55658W        W22441   9.261  35.689   4.853
55659W        W22442  39.074  14.431  11.295
55660W        W22443   4.447  18.781  12.051
55661W        W22444  40.911  18.249   4.339
55662W        W22445  21.794  24.688   2.781
55663W        W22446  44.415   4.643  12.422
55664W        W22447  10.472  37.427   3.541
55665W        W22448  39.452  42.885   1.342
55666W        W22449  26.250  25.284   0.854
55667W        W22450  14.911  36.246  14.796
55668W        W22451  34.479  36.466  14.543
55669W        W22452  11.667   3.507  11.238
55670W        W22453  21.174   9.677  13.914
55671W        W22454   7.320  40.494  14.428
55672W        W22455  43.286  26.629   1.019
55673W        W22456  33.894   2.144   2.722
55674W        W22457  18.119  37.914   0.442
55675W        W22458  19.574  23.078   2.854
55676W        W22459  30.512  23.511  12.961
55677W        W22460  36.297  16.690   0.784
55678W        W22461  27.072  26.214  13.385
55679W        W22462  44.986  32.878   0.035
55680W        W22463  18.054  10.686   4.046
55681W        W22464  27.039  28.571  13.794
55682W        W22465  30.640  42.446   2.664
55683W        W22466  25.239  27.459   4.083
55684W        W22467   9.224  35.457   2.505
55685W        W22468  36.029  26.967  11.892
55686W        W22469  23.434  18.092  11.183
55687W        W22470  33.052  42.909  10.712
55688W        W22471  36.430  22.583   1.280
55689W        W22472   6.821  38.420   4.758
55690W        W22473  26.997  37.969  12.164
55691W        W22474  22.533  33.877   0.768
55692W        W22475  13.470  12.788   3.311
55693W        W22476  37.637  22.652   4.038
55694W        W22477  24.178  33.599   2.286
55695W        W22478   2.349  27.276   0.137
55696W        W22479   7.887  34.627   1.623
55697W        W22480   2.912  12.329   0.245
55698W        W22481  12.379  28.570  11.638
55699W        W22482  16.638   9.123   1.308
55700W        W22483  19.554  10.725  14.754
55701W        W22484  10.367  35.881  11.435
55702W        W22485  28.486   5.476   3.280
55703W        W22486  17.859  20.463   4.037
55704W        W22487  26.670   8.799  11.691
55705W        W22488  42.809  31.342  13.695
55706W        W22489  44.521  40.080   1.333
55707W        W22490   5.415   6.460   0.688
55708W        W22491  43.761  40.283  14.380
55709W        W22492   3.214   9.561  14.442
55710W        W22493  30.625  18.298   1.381
55711W        W22494  12.355   0.355  13.487
55712W        W22495   9.720  25.299   3.168
55713W        W22496  16.322  20.225  11.250
55714W        W22497  29.663  33.553   4.240
55715W        W22498   9.185  44.748  11.367
55716W        W22499  31.625  10.811  11.059
55717W        W22500  23.764   6.829  14.498
55718W        W22501   3.721  10.845   3.376
55719W        W22502   1.137   2.802  12.772
55720W        W22503   3.439  24.082  13.106
55721W        W22504  22.156  35.653  14.609
55722W        W22505  30.635  39.290   3.154
55723W        W22506  38.482  16.801  10.782
55724W        W22507  11.343  34.341   3.183
55725W        W22508  16.343  18.226  10.774
55726W        W22509  10.302  22.081   2.272
55727W        W22510  28.612  31.459  12.579
55728W        W22511  21.261  25.980  12.061
55729W        W22512  17.617  19.758  14.084
55730W        W22513  12.750   7.454   9.626
55731W        W22514  31.119   5.221   0.003
55732W        W22515  11.121  34.027  14.097
55733W        W22516  23.171  13.419   0.471
55734W        W22517  26.886  12.220   0.300
55735W        W22518  43.044   4.794  10.207
55736W        W22519  10.223  37.479   1.043
55737W        W22520  34.913   5.053   4.191
55738W        W22521  20.232  28.137  10.771
55739W        W22522   5.466  26.463  10.964
55740W        W22523  17.961  36.155   9.829
55741W        W22524  33.797  14.232  13.562
55742W        W22525  27.622  10.225  11.709
55743W        W22526  21.203  13.237   1.831
55744W        W22527  32.668   9.896   3.347
55745W        W22528  16.994  38.321   2.797
55746W        W22529  20.337  43.323  10.595
55747W        W22530  31.921  32.600   1.053
55748W        W22531  25.193  18.271  10.644
55749W        W22532  13.241   0.476  12.024
55750W        W22533   2.900  38.492   4.555
55751W        W22534  37.817  33.437  12.804
55752W        W22535  24.318  38.035  10.649
55753W        W22536  28.907   5.647  13.310
55754W        W22537  37.505   9.888   1.242
55755W        W22538  26.231   3.731  13.911
55756W        W22539   0.373   7.273  12.890
55757W        W22540   1.835  34.094   4.141
55758W        W22541  11.636  35.372  13.552
55759W        W22542   4.370  31.358  12.905
55760W        W22543  10.698  40.948   4.385
55761W        W22544   9.147   3.774   0.839
55762W        W22545   5.980  36.114   3.734
55763W        W22546  31.181  35.334  13.697
55764W        W22547  34.741  44.459  14.751
55765W        W22548  41.068  17.045   9.900
55766W        W22549   6.922  14.105   0.791
55767W        W22550   8.855  32.175   4.077
55768W        W22551  43.214   3.984  11.823
55769W        W22552  32.390  21.850  14.417
55770W        W22553  36.433   1.840   4.642
55771W        W22554  27.741  11.787  13.531
55772W        W22555  14.788  34.451   1.730
55773W        W22556  28.920  19.094  10.961
55774W        W22557  34.297  28.388  13.704
55775W        W22558   6.649  17.120   4.156
55776W        W22559  28.092   9.311  14.147
55777W        W22560   0.397  30.614  14.892
55778W        W22561  23.283  35.959   1.122
55779W        W22562   8.061  33.359   4.963
55780W        W22563   2.482  33.472  13.771
55781W        W22564  18.310  38.622  11.205
55782W        W22565   7.725   6.455  11.588
55783W        W22566  21.548  43.898  11.785
55784W        W22567  24.386  36.328   4.090
55785W        W22568  30.912   8.845   3.633
55786W        W22569  37.954  16.558  14.709
55787W        W22570  22.633   9.801   2.803
55788W        W22571  43.441  42.656   5.016
55789W        W22572   1.113  17.752  13.021
55790W        W22573   5.279  26.374  14.079
55791W        W22574  13.088   3.917   1.043
55792W        W22575  33.390  41.332  13.469
55793W        W22576  34.879  35.020   5.008
55794W        W22577  15.782   4.505  12.944
55795W        W22578  11.269  27.924  13.546
55796W        W22579  36.517   4.819  14.449
55797W        W22580  24.000  32.655  12.075
55798W        W22581  35.541  38.645  14.986
55799W        W22582   4.629  27.273  11.782
55800W        W22583  32.494   1.153   4.867
55801W        W22584   3.244   1.905  11.170
55802W        W22585   3.890   0.792   3.782
55803W        W22586   5.598  39.103  11.689
55804W        W22587   0.450  38.977   2.943
55805W        W22588  33.913  27.334  14.803
55806W        W22589  30.384  12.375   2.260
55807W        W22590  19.760   8.443  14.876
55808W        W22591  27.324  14.714  11.213
55809W        W22592  32.038  13.202   2.587
55810W        W22593  17.892   1.208   4.898
55811W        W22594  15.243  39.447   0.766
55812W        W22595  27.943   1.718  12.094
55813W        W22596  29.514  30.926  10.710
55814W        W22597  42.881  44.572   0.317
55815W        W22598  25.384  34.714   4.186
55816W        W22599  18.230  12.084   0.806
55817W        W22600  36.262  24.432  13.497
55818W        W22601  22.622   9.335  14.889
55819W        W22602  42.891  31.518   2.277
55820W        W22603  24.563  31.568   4.891
55821W        W22604   4.289  38.524  13.725
55822W        W22605   4.453  42.014   3.278
55823W        W22606  15.110   0.957  14.321
55824W        W22607   3.426  40.607  14.641
55825W        W22608  31.442  28.589   4.857
55826W        W22609   3.337  14.719   1.360
55827W        W22610  33.190  16.440   4.122
55828W        W22611   9.267   7.215  12.585
55829W        W22612   4.502   9.793   1.831
55830W        W22613  43.070  10.260   1.681
55831W        W22614  29.826  42.096  12.038
55832W        W22615  18.627  35.487   2.120
55833W        W22616   0.852  30.889  10.648
55834W        W22617  30.187  36.920   1.007
55835W        W22618  16.511   2.894   0.503
55836W        W22619  35.101  29.035  13.445
55837W        W22620   1.813   2.973  14.521
55838W        W22621  31.336  15.927   3.776
55839W        W22622  19.854   4.189   2.598
55840W        W22623  36.535  42.137   1.944
55841W        W22624  43.816   4.974  10.643
55842W        W22625   9.266  13.539   1.713
55843W        W22626  39.463  21.685   2.876
55844W        W22627  28.173   5.280  11.584
55845W        W22628  44.065  39.744  13.551
55846W        W22629  30.714   6.834   3.709
55847W        W22630   4.792  23.579  12.328
55848W        W22631  10.120  29.099   2.350
55849W        W22632  12.154   2.034   2.270
55850W        W22633  11.791  42.950  14.371
55851W        W22634  23.574  29.438  10.659
55852W        W22635  19.348  33.383   3.711
55853W        W22636  36.058  29.254  14.329
55854W        W22637   9.885  35.825   3.154
55855W        W22638  25.167  27.533   1.241
55856W        W22639   0.592   5.586  13.406
55857W        W22640   4.752  34.975  12.445
55858W        W22641  13.207   3.460  14.265
55859W        W22642  25.605  21.712  10.537
55860W        W22643  11.437  30.128   2.886
55861W        W22644  25.891  25.375   2.795
55862W        W22645  27.128   4.165   3.588
55863W        W22646  40.545  31.981   3.368
55864W        W22647  41.317  18.519   4.504
55865W        W22648   6.894  12.031  13.823
55866W        W22649  14.247  16.711   3.323
55867W        W22650  17.632  26.693  13.404
55868W        W22651  16.150  18.138   4.174
55869W        W22652  34.455  33.658   4.136
55870W        W22653  21.590   3.891  12.602
55871W        W22654  18.857  19.584  12.542
55872W        W22655  38.052  41.846  13.939
55873W        W22656  36.267  11.733   4.304
55874W        W22657  20.568  11.301   2.712
55875W        W22658  35.622   0.439  11.243
55876W        W22659  16.711  25.767  14.432
55877W        W22660  27.431  12.130  12.084
55878W        W22661  34.416   3.777   2.227
55879W        W22662  17.808  33.390   0.449
55880W        W22663  18.522  39.471   3.060
55881W        W22664  41.241   8.194   3.838
55882W        W22665  12.641  26.468  14.405
55883W        W22666   7.425  25.066   3.850
55884W        W22667  32.646  32.876  14.480
55885W        W22668  24.988  28.637  13.442
55886W        W22669  19.199  17.626  11.781
55887W        W22670  15.197   1.388   1.526
55888W        W22671  37.326  21.054   2.618
55889W        W22672  16.106  20.090   3.202
55890W        W22673  44.465  13.556   5.285
55891W        W22674  24.942  26.064   3.880
55892W        W22675   3.902  22.983  13.505
55893W        W22676  26.019  31.820  13.105
55894W        W22677  27.650  31.918   4.667
55895W        W22678  41.070  23.159   1.320
55896W        W22679   0.496  16.814   5.056
55897W        W22680  14.071  36.543   4.479
55898W        W22681   9.196  26.942   3.349
55899W        W22682  40.790  42.813  11.585
55900W        W22683  34.115   6.614   2.198
55901W        W22684  28.672  26.785  11.685
55902W        W22685  23.969  12.313  13.478
55903W        W22686  27.760   2.892   4.335
55904W        W22687  30.907  17.072  14.964
55905W        W22688  18.866  42.726  11.555
55906W        W22689   7.726  27.216  12.705
55907W        W22690  16.204  39.954   1.801
55908W        W22691  42.307  43.230  14.466
55909W        W22692  31.194  31.462  11.869
55910W        W22693  35.084  41.004   1.017
55911W        W22694  22.748  25.599   3.191
55912W        W22695   5.203   9.571   0.487
55913W        W22696  11.746  26.868   4.859
55914W        W22697  22.058   4.478   2.509
55915W        W22698  22.340  17.988  14.995
55916W        W22699  30.343   8.659  13.451
55917W        W22700   8.076  38.261  12.803
55918W        W22701  38.731  14.108  10.370
55919W        W22702  43.797  12.294  11.263
55920W        W22703  17.873  39.146  13.069
55921W        W22704   6.366  13.070   3.762
55922W        W22705  21.337  16.067   0.861
55923W        W22706   2.785   6.399   2.173
55924W        W22707   2.814   0.308  14.905
55925W        W22708   5.731   4.730  13.994
55926W        W22709  29.428  17.355   0.261
55927W        W22710  32.363  44.457   4.097
55928W        W22711   4.681   6.949   2.033
55929W        W22712  30.236  24.042   4.577
55930W        W22713  29.110  28.151  11.218
55931W        W22714  24.491  36.082   2.350
55932W        W22715  21.318  38.428  12.351
55933W        W22716   8.667   2.143   3.635
55934W        W22717  44.376  26.882   2.366
55935W        W22718   8.332  42.359  14.736
55936W        W22719  11.795   5.575   3.247
55937W        W22720  23.661  29.560  11.570
55938W        W22721  10.729  19.358  13.471
55939W        W22722  16.665  19.559   2.309
55940W        W22723  38.281   9.418  13.574
55941W        W22724   4.674   8.581   2.529
55942W        W22725  24.814  25.143  11.651
55943W        W22726  36.055  13.844  14.263
55944W        W22727  32.560   2.548  12.930
55945W        W22728  31.333  36.825   2.611
55946W        W22729  10.244  10.727   2.553
55947W        W22730  28.920  12.206   2.848
55948W        W22731  30.977  24.960   0.860
55949W        W22732  29.184  43.851   0.211
55950W        W22733  14.471  20.075  13.616
55951W        W22734  38.017  23.049  11.554
55952W        W22735   0.489  24.116  14.280
55953W        W22736  22.451  21.449   3.918
55954W        W22737  32.923  40.278  13.943
55955W        W22738  21.295  27.714  14.988
55956W        W22739  37.914  44.051  13.827
55957W        W22740  22.532  39.911   2.770
55958W        W22741  10.648  21.086   1.747
55959W        W22742  29.902   9.411   1.525
55960W        W22743  11.381  24.769  11.058
55961W        W22744  31.101  10.614  10.362
55962W        W22745  15.786   4.000   2.771
55963W        W22746  28.902  29.670  12.619
55964W        W22747  36.245   7.054  11.478
55965W        W22748   3.386  38.137  12.436
55966W        W22749  17.327  35.023  12.470
55967W        W22750   4.753   6.083   3.171
55968W        W22751  35.307  44.856  14.004
55969W        W22752  44.089  42.397   1.925
55970W        W22753  40.455  39.245   2.781
55971W        W22754  43.022   4.217   4.409
55972W        W22755  24.472  19.355  13.099
55973W        W22756  10.691  30.679   0.669
55974W        W22757  43.340  17.603  10.703
55975W        W22758  26.564   9.860   4.044
55976W        W22759   1.450  32.565   2.501
55977W        W22760  33.848  44.665   2.947
55978W        W22761  40.595  35.391  11.578
55979W        W22762  40.375  28.498  13.366
55980W        W22763  30.473  38.818  12.209
55981W        W22764  12.129  41.840   4.227
55982W        W22765  15.105  44.397   2.225
55983W        W22766  27.282  16.245  14.817
55984W        W22767  38.033   2.168   0.778
55985W        W22768  29.724   0.534  11.925
55986W        W22769  31.630  32.129   3.369
55987W        W22770   9.678  40.770  12.964
55988W        W22771  21.265   6.352  11.509
55989W        W22772   9.147  30.385  11.692
55990W        W22773   2.438  17.249  10.579
55991W        W22774  26.713  34.731   4.054
55992W        W22775  41.568  19.101   1.736
55993W        W22776  42.271  12.451   4.553
55994W        W22777  34.079  23.195  14.109
55995W        W22778  14.076  13.385   3.642
55996W        W22779  14.308  27.634   1.391
55997W        W22780  15.037  43.389   1.736
55998W        W22781  29.789  18.321   4.567
55999W        W22782  23.055  21.249  13.406
56000W        W22783  33.497  42.325   2.846
56001W        W22784  12.833  22.251  11.025
56002W        W22785   1.450  36.720   4.404
56003W        W22786  25.156  15.158   1.447
56004W        W22787  30.169   9.350  14.461
56005W        W22788   8.492  27.921   2.169
56006W        W22789  29.890  13.802  12.579
56007W        W22790  43.660  37.345  11.931
56008W        W22791  42.022  26.979  13.508
56009W        W22792  18.215  30.061  12.840
56010W        W22793  37.457  29.511  12.246
56011W        W22794   6.180  20.534   2.770
56012W        W22795  31.402   4.959   4.121
56013W        W22796   5.123  15.240   0.715
56014W        W22797  15.264  14.869  11.164
56015W        W22798  28.063  22.187  11.045
56016W        W22799  27.909  40.353  13.862
56017W        W22800   4.442   9.112   0.858
56018W        W22801   2.899  39.423  12.912
56019W        W22802  23.393   4.186  13.039
56020W        W22803  24.681  40.375  11.615
56021W        W22804  32.781  28.999  11.971
56022W        W22805  43.557  16.551  14.275
56023W        W22806  29.863  34.630  14.272
56024W        W22807  16.300  27.483   1.353
56025W        W22808  28.144  37.512   0.386
56026W        W22809  20.639  42.780   1.873
56027W        W22810  16.219  37.124  13.290
56028W        W22811  37.811  19.362   3.718
56029W        W22812  22.511  21.770  13.971
56030W        W22813   5.231   0.339  10.875
56031W        W22814  20.138  37.490  10.422
56032W        W22815   8.882  27.684  13.148
56033W        W22816   0.346   1.156  12.098
56034W        W22817   2.959  25.984   4.144
56035W        W22818  41.521  18.510  11.150
56036W        W22819  30.400  26.326   1.853
56037W        W22820  36.734  42.837  14.439
56038W        W22821  43.198  39.783   4.986
56039W        W22822  32.749  19.102   3.646
56040W        W22823  40.920   4.218  14.506
56041W        W22824  40.919  18.159   1.295
56042W        W22825  25.848   7.778   2.217
56043W        W22826  31.226  36.208   0.762
56044W        W22827  29.065  32.898   0.038
56045W        W22828  36.319  32.738   3.535
56046W        W22829   4.889  24.408  11.187
56047W        W22830  39.287  15.661   4.909
56048W        W22831   1.406  24.456   3.725
56049W        W22832  19.301  34.169  13.375
56050W        W22833  34.951   5.868  10.207
56051W        W22834  41.959  16.400  14.008
56052W        W22835  32.517  32.245   3.658
56053W        W22836  25.091  38.385  12.556
56054W        W22837  17.508  43.660   3.217
56055W        W22838  34.025  31.670   1.532
56056W        W22839  34.708  25.502   3.786
56057W        W22840  21.240   2.210   4.505
56058W        W22841  35.588  22.137  14.923
56059W        W22842  17.761  30.603  10.942
56060W        W22843  38.363  24.783  11.888
56061W        W22844   3.798  12.337  12.650
56062W        W22845  44.731   5.248  11.978
56063W        W22846   2.253  13.100   3.778
56064W        W22847  20.375  22.658   4.071
56065W        W22848  29.064  19.157  12.396
56066W        W22849  33.391  24.209  13.428
56067W        W22850   9.603   2.566  11.746
56068W        W22851  39.838  16.259   1.791
56069W        W22852  14.881  10.614   3.757
56070W        W22853  30.714  18.094   0.893
56071W        W22854  31.347  21.036   1.731
56072W        W22855  21.452  42.592   1.654
56073W        W22856  11.724  22.504  12.670
56074W        W22857  35.259  21.851   4.453
56075W        W22858   0.750  11.790  13.406
56076W        W22859  17.206  43.438   2.237
56077W        W22860  25.566  23.525  10.703
56078W        W22861  10.909  20.591   1.774
56079W        W22862   9.648   0.450  14.698
56080W        W22863  30.945  39.759  13.034
56081W        W22864  43.934  13.274   3.470
56082W        W22865  13.121   8.233  12.902
56083W        W22866  23.252  38.995  14.068
56084W        W22867  41.876  29.716  12.505
56085W        W22868  11.267   0.890  11.662
56086W        W22869  15.316  27.941   2.200
56087W        W22870  21.110   0.911   0.360
56088W        W22871  25.418  44.678   1.318
56089W        W22872  29.019  31.050  10.499
56090W        W22873  28.945   3.215   1.880
56091W        W22874  38.955  28.525   0.328
56092W        W22875  21.128  28.606  10.500
56093W        W22876   3.257   7.318  10.850
56094W        W22877  14.672  27.133   4.956
56095W        W22878  25.018  18.203  11.996
56096W        W22879  41.723  15.744  11.259
56097W        W22880  17.021  32.083   0.358
56098W        W22881  32.575  10.912   1.974
56099W        W22882  26.025  36.649   0.626
56100W        W22883  40.794   5.184  13.399
56101W        W22884  30.218  14.089  14.298
56102W        W22885  40.914   0.837   3.272
56103W        W22886  39.425  27.980  14.725
56104W        W22887  13.398   0.965   2.324
56105W        W22888  16.643  37.463  11.726
56106W        W22889  43.812  25.183   3.153
56107W        W22890  13.097  40.481   0.763
56108W        W22891  23.091  43.826   4.278
56109W        W22892   3.376  23.081  10.531
56110W        W22893   2.306   0.286   3.167
56111W        W22894  29.927  19.758   3.953
56112W        W22895  42.766  19.931  12.543
56113W        W22896  34.464  38.529   4.548
56114W        W22897   3.125  10.515  11.429
56115W        W22898   1.432  23.932  10.508
56116W        W22899  42.682  13.568   2.027
56117W        W22900  41.532  31.674   4.321
56118W        W22901   1.766  16.592  11.118
56119W        W22902  36.978  21.014   1.967
56120W        W22903   8.648   3.676  11.567
56121W        W22904  41.203  25.377  11.075
56122W        W22905  30.373  39.846   4.147
56123W        W22906   3.275  37.335   4.412
56124W        W22907  42.402   1.738   3.833
56125W        W22908  19.016  23.073   1.845
56126W        W22909   3.181  14.098  13.269
56127W        W22910  27.173   0.464  14.998
56128W        W22911   5.271  12.774   1.712
56129W        W22912   4.238  44.143  12.933
56130W        W22913  35.578  18.790   4.078
56131W        W22914   7.226  13.196  13.135
56132W        W22915   9.179  44.780   4.491
56133W        W22916  14.583  25.570  14.653
56134W        W22917  23.394   7.264   1.346
56135W        W22918   9.498  33.655   3.551
56136W        W22919  37.786  20.989   3.354
56137W        W22920  39.847  21.698  13.437
56138W        W22921   9.620   6.935   3.125
56139W        W22922  32.022  42.488  11.473
56140W        W22923  24.228  43.388   2.802
56141W        W22924   1.292  39.872  13.586
56142W        W22925  10.765  12.249   2.902
56143W        W22926   7.874   2.495   0.849
56144W        W22927  42.371   6.682   2.940
56145W        W22928  12.703  13.545  12.456
56146W        W22929  14.169  19.928   0.900
56147W        W22930  40.792   7.769   9.903
56148W        W22931   2.484  29.293   4.199
56149W        W22932  22.153  10.773   4.098
56150W        W22933  38.082  33.542   4.970
56151W        W22934   0.610  18.690  11.756
56152W        W22935  44.535  11.148   1.672
56153W        W22936  43.406  29.584   3.577
56154W        W22937  22.651   0.324  10.458
56155W        W22938   5.779  32.966  10.557
56156W        W22939  40.337  41.197  12.876
56157W        W22940  21.176  16.687  14.674
56158W        W22941  28.981   8.456   2.171
56159W        W22942   6.399  11.693   3.207
56160W        W22943  27.612  42.443   2.763
56161W        W22944  41.466  26.131  14.082
56162W        W22945   1.482  44.242   1.827
56163W        W22946   8.249   7.439  12.092
56164W        W22947  32.531  16.979  10.737
56165W        W22948   6.217  44.905  10.417
56166W        W22949   9.842  42.909   4.448
56167W        W22950  38.061  21.610  14.316
56168W        W22951  10.688  20.044  11.670
56169W        W22952  18.735   2.084  11.084
56170W        W22953  27.244   3.174  11.551
56171W        W22954  20.117  15.131  14.968
56172W        W22955   4.852  21.577  12.403
56173W        W22956  43.557   8.466   3.077
56174W        W22957  39.590  38.500  11.913
56175W        W22958  21.222  30.507   2.571
56176W        W22959  18.657  12.950   1.787
56177W        W22960   0.958   9.208   5.158
56178W        W22961  43.368   9.443   3.494
56179W        W22962  18.231  30.176  11.836
56180W        W22963  32.769  28.701   2.227
56181W        W22964  40.774   0.936   2.783
56182W        W22965  27.449  38.828   0.333
56183W        W22966  20.570   6.179   4.185
56184W        W22967  19.395  17.209   2.229
56185W        W22968  23.010  24.277   9.882
56186W        W22969   9.767  27.621  12.931
56187W        W22970   7.428  17.864  11.169
56188W        W22971  34.061   4.902   2.804
56189W        W22972  15.974  14.368   2.801
56190W        W22973   9.682  11.156  13.318
56191W        W22974  15.863   8.629   3.276
56192W        W22975  28.115  41.839  12.462
56193W        W22976  14.708  18.139   3.728
56194W        W22977   6.715  40.164  14.823
56195W        W22978  14.700  34.429   3.054
56196W        W22979  24.643  24.330  10.290
56197W        W22980   0.476  44.543   1.505
56198W        W22981  27.577  39.414  14.431
56199W        W22982  22.683  24.039   4.474
56200W        W22983  23.259  15.849   0.373
56201W        W22984  24.021  29.621  12.321
56202W        W22985  17.704  22.705  12.395
56203W        W22986  31.114  13.729  12.939
56204W        W22987  19.733  39.583   2.167
56205W        W22988   2.516  38.641   0.870
56206W        W22989   3.430  14.286  13.704
56207W        W22990  22.552   8.277   0.136
56208W        W22991  21.751  17.959   2.113
56209W        W22992   5.287  15.238   2.797
56210W        W22993  10.147  21.278   1.762
56211W        W22994  14.274  14.889  14.404
56212W        W22995  40.371   1.150  14.829
56213W        W22996   7.390  27.579  10.588
56214W        W22997  24.527  27.181   5.046
56215W        W22998  14.125  27.461  13.789
56216W        W22999  10.585  18.570  11.651
56217W        W23000  44.070  14.270   2.683
56218W        W23001   8.189  17.809   3.636
56219W        W23002   6.250  19.188   3.961
56220W        W23003  44.759  40.315  10.822
56221W        W23004  18.039  28.561  11.737
56222W        W23005   4.275  19.044  10.833
56223W        W23006   6.159  11.890   0.479
56224W        W23007  27.599  28.597  12.451
56225W        W23008  44.857  24.872  12.205
56226W        W23009  17.060  29.166   4.039
56227W        W23010  14.975  24.457   3.644
56228W        W23011  16.225  11.448   1.495
56229W        W23012   6.965   4.191   1.690
56230W        W23013  43.408  14.852  12.066
56231W        W23014   6.826  14.259   2.207
56232W        W23015  16.721  23.127   2.773
56233W        W23016  33.001  19.503   5.491
56234W        W23017   0.482  27.097   0.340
56235W        W23018  19.754   8.753   3.671
56236W        W23019  18.622   8.376  13.972
56237W        W23020  27.644   8.654   3.536
56238W        W23021  43.294   1.795   3.808
56239W        W23022  12.358   4.431   4.131
56240W        W23023  25.617   7.404  12.108
56241W        W23024  33.996  30.441   2.626
56242W        W23025  34.690   7.939   2.308
56243W        W23026  31.111   1.035   2.238
56244W        W23027  20.896  42.528   2.344
56245W        W23028  22.971  42.961   0.258
56246W        W23029  39.592  18.031  14.534
56247W        W23030  15.682  12.557  12.564
56248W        W23031  17.141  41.371  10.413
56249W        W23032  22.633  21.729  10.665
56250W        W23033  39.377  28.875   4.949
56251W        W23034  10.707  13.086  13.332
56252W        W23035  35.857  11.366  12.555
56253W        W23036  26.102  29.195   3.286
56254W        W23037  31.108  31.927  12.091
56255W        W23038  19.333  12.329   0.349
56256W        W23039  41.471  43.115  12.972
56257W        W23040  44.391   5.296  10.883
56258W        W23041   6.385  32.015   1.797
56259W        W23042   5.912  16.533   0.038
56260W        W23043   1.302   7.654   0.841
56261W        W23044  23.825  23.070   0.728
56262W        W23045  16.763  21.593  14.955
56263W        W23046  31.004   7.977   0.442
56264W        W23047  32.723  41.463  12.405
56265W        W23048   6.426  17.968   1.251
56266W        W23049  15.760   9.181   1.278
56267W        W23050  34.810  25.520  12.444
56268W        W23051  26.087  29.456   4.345
56269W        W23052  40.756  30.424   4.589
56270W        W23053  22.698  21.029   3.713
56271W        W23054   5.229  31.931  14.457
56272W        W23055   6.154  22.516   1.361
56273W        W23056  11.663   2.898   3.638
56274W        W23057  16.118  40.638   4.810
56275W        W23058  18.726   0.494  13.852
56276W        W23059  37.910  19.004   1.897
56277W        W23060  19.763  29.720   3.881
56278W        W23061  40.174  32.053   1.962
56279W        W23062  17.092   1.907  10.828
56280W        W23063  25.677  39.972  13.330
56281W        W23064  27.496  11.616   1.797
56282W        W23065  12.164  36.113  11.609
56283W        W23066  40.300   7.188   4.672
56284W        W23067  18.126  31.642  14.656
56285W        W23068  27.171  34.111   1.741
56286W        W23069  38.489   5.991   3.781
56287W        W23070  12.674   5.220  12.063
56288W        W23071  28.089  36.267  10.280
56289W        W23072   9.390  21.502   4.619
56290W        W23073  19.956  22.499   2.802
56291W        W23074   5.001  39.029  12.366
56292W        W23075  43.430  23.495  10.954
56293W        W23076   6.791   6.742   4.062
56294W        W23077  10.692  20.609  11.135
56295W        W23078   7.297  21.554   1.251
56296W        W23079  10.228  39.950  14.504
56297W        W23080   0.417  41.930  10.639
56298W        W23081  19.736   1.714  11.986
56299W        W23082   7.200  24.281   0.142
56300W        W23083  44.550  18.777  13.754
56301W        W23084   4.255  43.230  13.846
56302W        W23085  35.595  21.284  11.653
56303W        W23086   7.651  12.212  11.625
56304W        W23087  19.778  35.180  13.930
56305W        W23088   1.261  15.343   4.114
56306W        W23089   2.934  12.230  14.727
56307W        W23090  20.351  35.996   2.423
56308W        W23091  39.886   4.018  13.826
56309W        W23092   7.734  17.632  12.428
56310W        W23093  26.393   7.242   1.672
56311W        W23094  10.157  39.402  10.663
56312W        W23095  33.413  40.307   1.331
56313W        W23096  32.580  16.314  14.453
56314W        W23097   6.093  12.097  14.260
56315W        W23098  26.154  30.472   0.839
56316W        W23099  10.117  11.224   3.609
56317W        W23100   3.259  35.607   4.953
56318W        W23101   5.789  13.798   0.355
56319W        W23102  39.429   9.855  13.023
56320W        W23103  23.929   0.998  13.556
56321W        W23104   6.728  21.421   2.725
56322W        W23105  27.427  41.049  13.368
56323W        W23106  15.870   2.453  11.138
56324W        W23107  39.548  37.353  11.528
56325W        W23108  34.003  32.835  13.877
56326W        W23109   0.977   4.334  14.336
56327W        W23110  36.603  21.207   3.694
56328W        W23111  23.127  20.696  13.351
56329W        W23112  21.612  42.220  10.660
56330W        W23113  18.176  19.141  12.474
56331W        W23114   7.172  34.169  13.870
56332W        W23115  35.180  31.405  10.783
56333W        W23116  26.952  19.905  11.553
56334W        W23117  35.471  22.232   4.157
56335W        W23118  17.991  20.302  11.037
56336W        W23119  25.939  41.225  14.436
56337W        W23120  31.776  18.619   3.566
56338W        W23121  44.625  37.865   0.870
56339W        W23122   4.191  12.600  12.436
56340W        W23123   2.252  37.134  10.988
56341W        W23124  44.454  13.575  12.944
56342W        W23125  19.017   5.626   4.060
56343W        W23126   0.137   5.277   3.620
56344W        W23127  18.424  25.520  12.239
56345W        W23128  38.263  22.609  12.468
56346W        W23129  42.843  16.329   0.897
56347W        W23130  30.508  41.303   1.152
56348W        W23131   6.814  42.383   3.581
56349W        W23132  16.365  13.826  14.596
56350W        W23133   6.104  27.594   1.424
56351W        W23134  15.653  19.102  13.436
56352W        W23135  23.108  15.306  11.600
56353W        W23136  15.741  12.433   2.706
56354W        W23137  33.854   9.134   3.223
56355W        W23138  32.145  26.640  14.988
56356W        W23139   3.728  11.557  14.884
56357W        W23140  38.593  14.848  10.644
56358W        W23141  28.321  44.004  10.581
56359W        W23142   9.623  23.981  12.990
56360W        W23143  16.045  13.736   4.377
56361W        W23144  25.686  22.539   1.378
56362W        W23145  34.453   6.652  14.172
56363W        W23146  34.045  35.330  11.290
56364W        W23147  32.616  34.774   4.137
56365W        W23148   1.296   3.769  11.229
56366W        W23149   5.485  36.137   5.019
56367W        W23150   7.483  20.012   4.759
56368W        W23151  21.707  21.477  10.575
56369W        W23152  36.006  24.643   1.718
56370W        W23153  24.207  15.305   0.467
56371W        W23154  42.574  22.686   0.426
56372W        W23155  42.433  36.943  14.003
56373W        W23156  17.281  12.057  11.018
56374W        W23157  35.026  38.113  12.419
56375W        W23158  30.497  22.652  14.535
56376W        W23159  39.386  17.761   1.951
56377W        W23160  36.592  19.115  13.997
56378W        W23161  35.796  41.566   3.188
56379W        W23162  44.278  34.486   2.137
56380W        W23163  39.426   0.494   0.306
56381W        W23164  21.504  14.314   4.524
56382W        W23165  14.572   3.450  12.649
56383W        W23166  28.616  13.739   0.315
56384W        W23167  37.012  32.539  13.526
56385W        W23168   3.839  27.679   2.831
56386W        W23169  42.689  27.176  12.790
56387W        W23170  35.159  35.978  11.979
56388W        W23171  36.621   8.290  12.002
56389W        W23172  21.201  41.553   4.619
56390W        W23173  26.027  34.316   1.303
56391W        W23174  30.993   7.248  11.122
56392W        W23175  19.493  10.501  11.052
56393W        W23176  38.526  38.074   2.589
56394W        W23177  32.109  19.767   1.350
56395W        W23178   6.748  33.449   1.504
56396W        W23179  30.444  33.632   0.775
56397W        W23180  39.041  10.264   0.434
56398W        W23181  43.080  26.914  14.501
56399W        W23182  16.900  36.452   4.153
56400W        W23183   6.659  26.495  12.471
56401W        W23184  28.338   2.241   2.788
56402W        W23185  21.810  38.880  10.694
56403W        W23186  10.452  30.116   3.233
56404W        W23187  22.000  22.748  13.931
56405W        W23188  40.820  17.134  10.940
56406W        W23189  18.168   3.690   3.808
56407W        W23190   2.018  31.164  11.963
56408W        W23191  33.096   2.815  11.135
56409W        W23192  15.053  30.546  13.321
56410W        W23193  16.060   1.245   2.121
56411W        W23194  24.648  35.378  11.658
56412W        W23195   3.361  13.050   0.752
56413W        W23196  44.659   4.397   0.705
56414W        W23197  11.631  28.699  11.160
56415W        W23198  16.293  22.779   4.227
56416W        W23199   5.301   7.470   1.547
56417W        W23200  39.169  24.436   5.094
56418W        W23201  33.589   8.693  11.591
56419W        W23202  42.030  37.086   0.493
56420W        W23203  34.479  17.838   0.842
56421W        W23204   2.841  23.048   3.835
56422W        W23205  31.732  31.530  14.719
56423W        W23206  21.984  17.735  14.240
56424W        W23207  13.210  44.542  11.206
56425W        W23208   0.867  30.416   0.016
56426W        W23209  36.301   5.809  14.322
56427W        W23210  41.693  32.190   2.299
56428W        W23211  33.884   8.955  11.880
56429W        W23212  29.119   0.058   3.620
56430W        W23213  35.305  31.635   3.607
56431W        W23214  20.735  42.716  11.736
56432W        W23215  16.921  12.426  14.717
56433W        W23216  36.499  18.170  12.002
56434W        W23217  40.408  32.421  10.306
56435W        W23218  25.744  33.924   4.290
56436W        W23219   4.720  31.249  13.285
56437W        W23220  21.527  25.520  11.069
56438W        W23221  14.608  16.666   0.794
56439W        W23222  37.191  27.749   1.732
56440W        W23223  25.673  40.402  12.023
56441W        W23224  13.010  28.964   1.222
56442W        W23225  21.056   1.601   1.605
56443W        W23226  25.912  39.412  14.525
56444W        W23227  25.748  13.337  13.075
56445W        W23228   1.597  29.599   0.466
56446W        W23229  29.586  17.686  10.665
56447W        W23230  40.381  43.435  13.154
56448W        W23231  27.175  24.521  13.750
56449W        W23232  11.609  41.845  14.826
56450W        W23233  37.490  40.687  13.855
56451W        W23234   6.352  27.462  13.366
56452W        W23235  14.800   5.514  14.006
56453W        W23236   6.219  10.776  13.491
56454W        W23237  29.029  24.993  14.973
56455W        W23238  37.039  42.075  12.597
56456W        W23239   3.948  14.856  14.791
56457W        W23240  31.408  32.452   1.251
56458W        W23241  27.950  11.633  14.234
56459W        W23242  12.253   8.938   2.334
56460W        W23243   7.820  16.030  13.445
56461W        W23244  31.664  24.008  10.642
56462W        W23245  37.342  31.634  12.959
56463W        W23246  11.905  16.761   2.431
56464W        W23247  15.672  14.242   0.003
56465W        W23248  16.813  22.601   3.140
56466W        W23249  14.968  11.305   1.389
56467W        W23250  31.033  26.955   4.598
56468W        W23251  37.885  34.028  13.626
56469W        W23252   3.877  12.214  14.221
56470W        W23253  31.484  35.121  13.297
56471W        W23254  29.928  39.289   1.906
56472W        W23255  37.302  10.162  12.700
56473W        W23256  11.385  23.215   4.114
56474W        W23257  30.441   8.812  11.662
56475W        W23258  43.909  33.048   4.567
56476W        W23259  26.885  36.932  11.210
56477W        W23260  23.580   5.976   0.914
56478W        W23261  23.396  36.394   1.416
56479W        W23262   0.221   5.413   3.116
56480W        W23263   4.552  18.578  11.581
56481W        W23264  36.846   4.830   0.637
56482W        W23265  22.592  10.118   0.593
56483W        W23266  38.814  12.547   2.103
56484W        W23267  31.718  20.059   0.481
56485W        W23268  15.794  36.935  13.898
56486W        W23269  17.193  24.414   3.863
56487W        W23270  12.235  15.418   0.313
56488W        W23271  36.804  29.912   3.210
56489W        W23272  13.333  35.952  13.020
56490W        W23273  37.909   0.251  14.380
56491W        W23274  25.621  19.123  10.746
56492W        W23275  24.562  12.148   0.434
56493W        W23276  15.358  43.966   3.683
56494W        W23277  29.501  30.157  14.785
56495W        W23278  24.664   5.503  12.315
56496W        W23279  19.826  37.219  11.658
56497W        W23280  24.300  38.457   3.799
56498W        W23281  33.684   4.456   1.884
56499W        W23282  42.911  35.577  10.838
56500W        W23283  30.076   0.275  12.212
56501W        W23284   6.389  38.347   2.249
56502W        W23285  27.017  27.066   2.770
56503W        W23286  25.887  14.230  13.458
56504W        W23287  14.669  30.620   2.298
56505W        W23288   7.326   5.787   2.385
56506W        W23289  37.589  36.191  12.933
56507W        W23290  15.170  16.117   1.294
56508W        W23291  10.465  27.886  11.990
56509W        W23292  20.267   3.848   3.555
56510W        W23293  26.251  35.960  13.987
56511W        W23294  32.638  10.730   1.480
56512W        W23295  38.531  39.589   2.256
56513W        W23296  14.239  22.993  11.506
56514W        W23297  27.905   9.713  14.456
56515W        W23298  39.575  29.449  11.458
56516W        W23299  44.839   9.244   2.197
56517W        W23300  43.605  16.588   0.313
56518W        W23301  44.264  16.212   1.707
56519W        W23302   9.668  43.405   4.505
56520W        W23303   7.934  27.280  14.556
56521W        W23304  14.039  10.865  14.991
56522W        W23305  21.197  12.610  12.099
56523W        W23306  11.925  37.068   5.424
56524W        W23307  41.883   7.599  12.465
56525W        W23308  11.885  10.966   1.896
56526W        W23309  19.126  41.411  11.492
56527W        W23310  23.113  34.447  10.333
56528W        W23311   3.764  39.017  13.046
56529W        W23312  35.738  40.436   4.917
56530W        W23313  29.371  10.633   4.094
56531W        W23314  22.597  39.087   0.812
56532W        W23315  36.760  20.526   2.062
56533W        W23316  37.851  42.346  14.760
56534W        W23317   4.622  37.359   0.904
56535W        W23318  27.845  36.759   0.280
56536W        W23319  30.696   4.954  11.080
56537W        W23320  20.133  24.221  13.041
56538W        W23321  23.238  27.159  14.466
56539W        W23322  13.837  21.563  11.979
56540W        W23323  22.947  24.897  11.845
56541W        W23324  39.003  44.247  14.098
56542W        W23325  36.524   4.721   4.018
56543W        W23326  14.694   2.733   3.760
56544W        W23327   2.048  26.218  11.635
56545W        W23328   0.720   2.890  13.680
56546W        W23329  22.556  18.276   4.191
56547W        W23330   5.870  13.329  10.675
56548W        W23331  18.820  33.085   1.551
56549W        W23332   5.326   0.907   4.372
56550W        W23333  36.072  44.134  10.976
56551W        W23334  26.768  27.893   2.468
56552W        W23335  34.565   8.270   1.261
56553W        W23336  37.035  34.051   1.114
56554W        W23337  13.073  13.728   0.290
56555W        W23338   0.112   6.467   1.960
56556W        W23339  42.430  36.249   1.981
56557W        W23340   0.905  31.414  10.617
56558W        W23341   3.833  16.706   4.151
56559W        W23342  18.796  17.715  13.006
56560W        W23343  41.169  41.275  11.155
56561W        W23344  43.320  30.503   3.631
56562W        W23345  11.727  32.707   2.827
56563W        W23346   4.191  22.542  14.381
56564W        W23347  27.772   4.242   0.773
56565W        W23348   9.024  39.199  12.877
56566W        W23349  18.027  21.607  10.618
56567W        W23350   7.420  33.339   2.791
56568W        W23351  28.116  23.889  13.975
56569W        W23352   5.519  23.138  11.322
56570W        W23353   7.078   3.568  12.845
56571W        W23354  15.098  41.353   1.485
56572W        W23355  28.487   0.184  13.332
56573W        W23356  42.964  20.175   2.723
56574W        W23357  31.483   7.161  10.927
56575W        W23358  32.078  39.390   3.106
56576W        W23359  22.458  16.160  12.827
56577W        W23360  36.514  18.101   2.235
56578W        W23361  39.058  19.755  12.849
56579W        W23362  19.958  35.544  14.883
56580W        W23363  14.213   5.906   1.743
56581W        W23364  34.921  16.846   0.688
56582W        W23365  19.614  41.699   0.839
56583W        W23366   5.123  36.444   2.470
56584W        W23367   0.264  43.489  14.412
56585W        W23368   0.612   2.816   2.657
56586W        W23369  42.094  40.765   1.915
56587W        W23370  19.967   1.475  12.809
56588W        W23371  12.154   7.731   0.698
56589W        W23372  44.124  40.536  14.089
56590W        W23373  13.423  33.813   1.827
56591W        W23374  14.213  16.720  14.769
56592W        W23375   6.796   0.273  13.485
56593W        W23376   3.141  24.920  14.433
56594W        W23377  44.428  23.786   1.356
56595W        W23378  36.758  32.165   1.871
56596W        W23379   9.337  12.183  12.783
56597W        W23380   9.406  32.338  14.869
56598W        W23381  20.733  11.600   3.706
56599W        W23382  29.411  38.542   4.844
56600W        W23383  37.054  36.901  14.354
56601W        W23384  16.743  25.051   0.634
56602W        W23385  43.503  17.416   0.546
56603W        W23386   7.722  37.100   0.910
56604W        W23387  11.583  31.155   2.169
56605W        W23388  44.320  26.481  10.742
56606W        W23389  23.662  23.396  11.592
56607W        W23390  29.680  26.161   1.491
56608W        W23391   9.505  32.385   2.986
56609W        W23392  42.983  16.685  11.581
56610W        W23393   4.880  18.340  11.977
56611W        W23394  24.686   5.676  12.791
56612W        W23395  41.680  35.403  10.800
56613W        W23396  20.186  43.024   1.832
56614W        W23397  36.544  36.281  11.167
56615W        W23398  17.356  20.503  12.069
56616W        W23399  11.148   9.332   2.824
56617W        W23400  42.009  40.130   4.625
56618W        W23401   2.405  34.452  14.195
56619W        W23402  12.166  22.750   0.751
56620W        W23403  13.288  35.249  14.254
56621W        W23404  22.099   2.888   0.229
56622W        W23405  22.204   7.456  12.093
56623W        W23406  20.816  44.875   3.079
56624W        W23407   3.226  43.383   0.311
56625W        W23408  41.673  17.125  14.394
56626W        W23409  11.926  26.968  14.045
56627W        W23410  14.287  10.272   0.845
56628W        W23411   4.101  23.229   4.503
56629W        W23412   6.853  40.021  13.232
56630W        W23413  32.031   1.483  10.744
56631W        W23414  44.912  17.704  10.976
56632W        W23415  17.135   2.144   4.095
56633W        W23416  21.707  10.587   0.947
56634W        W23417  12.596  36.353  11.772
56635W        W23418  18.702  18.618   9.910
56636W        W23419  20.758  14.897  11.635
56637W        W23420  11.137  43.244   3.203
56638W        W23421  35.556  26.698  12.487
56639W        W23422  32.161  21.541   0.904
56640W        W23423  24.488  36.168   4.610
56641W        W23424   3.003  39.798  11.609
56642W        W23425  20.698  12.392   0.349
56643W        W23426  23.805  32.934   2.719
56644W        W23427  12.974  36.387  10.912
56645W        W23428  34.152  19.465  13.510
56646W        W23429  36.942  17.545  10.552
56647W        W23430  25.071  12.012  12.093
56648W        W23431  14.536  10.809   0.872
56649W        W23432   1.994  40.930  10.766
56650W        W23433   4.876   9.952  12.410
56651W        W23434  26.453  37.445   0.854
56652W        W23435  29.563  10.120  12.509
56653W        W23436   4.943  34.962   3.390
56654W        W23437  35.378  22.700  12.096
56655W        W23438  24.144   9.377   1.209
56656W        W23439  30.064  38.574   2.820
56657W        W23440  40.092  16.639   0.795
56658W        W23441  37.433   9.134   1.038
56659W        W23442  10.796   6.201   3.329
56660W        W23443  23.580  21.461  11.366
56661W        W23444   7.921  35.865  12.108
56662W        W23445  18.766   1.706  14.547
56663W        W23446  20.113  11.172  11.537
56664W        W23447   4.442   6.474  13.093
56665W        W23448  43.087  29.074  10.632
56666W        W23449   5.803  15.690  12.492
56667W        W23450  34.636  12.279   3.878
56668W        W23451  11.523  44.597  11.140
56669W        W23452  39.917   3.147  12.603
56670W        W23453  27.698  32.488   3.052
56671W        W23454  12.601  12.829   1.931
56672W        W23455  22.627  44.372  10.456
56673W        W23456  12.319  39.920   0.810
56674W        W23457  23.467   4.535   2.444
56675W        W23458  42.762  14.419   3.261
56676W        W23459  17.104  20.641   1.783
56677W        W23460  26.082  36.069   4.583
56678W        W23461  17.429   0.435  14.268
56679W        W23462  33.494  10.346   4.229
56680W        W23463   5.319  38.261  14.985
56681W        W23464   8.449  30.424   0.296
56682W        W23465  44.243  22.437  14.587
56683W        W23466  37.983  16.131   3.470
56684W        W23467  31.532   9.732   3.296
56685W        W23468  43.252  18.269   3.235
56686W        W23469  35.404  38.139   0.066
56687W        W23470   7.043  31.355   3.765
56688W        W23471  44.134   7.811   0.336
56689W        W23472  28.467  27.271  12.985
56690W        W23473  10.296  10.373   4.201
56691W        W23474  22.553  44.548   4.364
56692W        W23475  25.778  43.538   3.136
56693W        W23476  30.954   0.484   1.503
56694W        W23477  10.783   4.721   0.295
56695W        W23478  26.617  39.758  12.021
56696W        W23479  30.882  43.734  11.236
56697W        W23480  26.028  23.001  13.238
56698W        W23481  23.017  29.663   2.661
56699W        W23482  15.667   3.376  12.159
56700W        W23483  39.579  16.718   0.890
56701W        W23484  18.145  35.527   2.339
56702W        W23485  14.350   0.309  12.040
56703W        W23486  37.008  16.682   4.944
56704W        W23487  22.903  14.040  11.990
56705W        W23488   1.954  44.707   4.705
56706W        W23489   0.277   1.303  11.607
56707W        W23490  35.338  18.228  12.378
56708W        W23491  22.641  43.422  14.919
56709W        W23492  41.281  14.239   1.179
56710W        W23493  44.454  12.173   1.910
56711W        W23494  15.600  34.627  13.553
56712W        W23495  13.526  14.287   1.714
56713W        W23496  25.228   0.323  10.543
56714W        W23497  40.870   6.188   0.054
56715W        W23498  12.271  11.398   1.697
56716W        W23499  22.093  29.049  14.625
56717W        W23500  16.741  44.837   0.813
56718W        W23501  39.192   6.488   1.654
56719W        W23502  25.892  10.568  14.497
56720W        W23503  40.991  39.885   4.090
56721W        W23504  39.351  35.298  12.436
56722W        W23505  15.582  33.582  10.647
56723W        W23506  13.475  12.389  14.860
56724W        W23507  28.486  21.871   2.426
56725W        W23508   9.308  38.955   4.176
56726W        W23509  40.787  19.746  10.599
56727W        W23510  17.822  25.650  11.019
56728W        W23511  39.332  35.397  10.651
56729W        W23512  27.192   4.987  10.201
56730W        W23513  29.192   8.433  13.404
56731W        W23514  34.325   0.081  13.958
56732W        W23515   6.725  44.825   1.880
56733W        W23516  14.627   8.288   4.771
56734W        W23517  32.907   8.280  14.507
56735W        W23518  18.206  28.018   0.776
56736W        W23519  30.489  15.691   1.850
56737W        W23520  10.859  12.034  10.765
56738W        W23521   5.624  28.924  12.905
56739W        W23522  14.080  42.378  11.558
56740W        W23523  25.732  28.786   0.332
56741W        W23524   8.249  29.044  14.771
56742W        W23525  36.009   9.153   3.693
56743W        W23526  22.507  15.992   2.795
56744W        W23527  17.068  44.919   2.337
56745W        W23528   0.759  38.460   0.381
56746W        W23529  22.595  33.125  12.810
56747W        W23530   5.817  32.547   4.907
56748W        W23531  33.466  10.416  12.386
56749W        W23532  31.423  23.678  14.956
56750W        W23533  24.208  12.246   3.380
56751W        W23534  24.638  28.986  12.524
56752W        W23535  10.708  20.790   0.448
56753W        W23536  16.430  39.592  14.900
56754W        W23537  39.113  34.616   1.738
56755W        W23538  41.983  15.402   1.784
56756W        W23539   8.810  17.590   0.282
56757W        W23540  33.943  29.885   3.395
56758W        W23541   3.898  42.333   4.069
56759W        W23542  16.216  22.243  11.346
56760W        W23543  37.435  22.111   9.967
56761W        W23544  43.326   9.777  11.480
56762W        W23545  21.808  32.913   3.759
56763W        W23546   4.636  26.927  13.486
56764W        W23547   7.386  43.559   0.737
56765W        W23548  24.010   3.665  14.485
56766W        W23549  30.467  35.442   1.537
56767W        W23550  41.378   0.142  11.275
56768W        W23551  26.029  38.975  12.121
56769W        W23552  43.002   2.302  11.979
56770W        W23553  43.818  18.124   4.255
56771W        W23554  19.640   5.393   3.037
56772W        W23555  28.705  22.629  14.557
56773W        W23556  20.041  13.068   3.678
56774W        W23557  26.418   5.153   4.183
56775W        W23558  36.636   6.736   2.297
56776W        W23559  28.887  18.005  10.751
56777W        W23560   2.891  10.195   1.264
56778W        W23561  36.761   4.747  12.442
56779W        W23562  17.945  36.339  11.985
56780W        W23563  13.458  35.149  13.771
56781W        W23564  34.156   4.459  13.391
56782W        W23565  15.879   3.630   4.028
56783W        W23566  21.684  23.182   3.586
56784W        W23567  39.083  41.790  14.835
56785W        W23568  26.478  35.402   1.777
56786W        W23569  41.036  40.389   3.781
56787W        W23570  22.001  36.809   4.349
56788W        W23571  37.645  16.565   3.206
56789W        W23572  13.704  38.039  12.963
56790W        W23573  27.489  44.265   4.363
56791W        W23574  24.167  25.279   1.695
56792W        W23575  41.480  10.295  14.396
56793W        W23576   8.174  32.489  10.576
56794W        W23577  34.348  14.033   1.474
56795W        W23578  43.748   3.627   3.767
56796W        W23579  15.770   9.055   3.570
56797W        W23580  27.377  30.394   1.270
56798W        W23581  17.189  11.943  12.375
56799W        W23582  30.013  20.110   0.613
56800W        W23583  38.119   5.745   1.251
56801W        W23584  41.043   4.510  10.876
56802W        W23585   9.292   7.768  11.414
56803W        W23586  43.241  29.215  11.722
56804W        W23587  40.587  36.981  14.436
56805W        W23588  14.349  28.475   0.905
56806W        W23589  35.431  41.549   4.665
56807W        W23590  27.132  27.163  14.882
56808W        W23591  39.968  40.682   2.689
56809W        W23592  23.568  13.150  12.417
56810W        W23593   9.908  29.665   1.219
56811W        W23594  35.439  38.509   4.955
56812W        W23595  19.374  32.950  11.127
56813W        W23596  28.501   8.216  11.609
56814W        W23597  36.347   1.024   3.775
56815W        W23598  34.421  10.162  11.563
56816W        W23599  20.748  26.977  11.421
56817W        W23600   7.460  18.999  13.907
56818W        W23601  10.232  30.005   4.604
56819W        W23602  21.444  37.415   0.384
56820W        W23603  17.652  30.378   1.889
56821W        W23604  44.196  16.028   3.665
56822W        W23605  33.028  22.133  10.920
56823W        W23606   0.261  15.750  11.149
56824W        W23607  33.797  39.894  12.888
56825W        W23608  11.292   3.670   1.761
56826W        W23609  35.349  36.280  12.511
56827W        W23610  28.989  23.627   4.123
56828W        W23611  39.708  34.504  11.947
56829W        W23612  12.149   3.667  11.167
56830W        W23613  27.162  15.872  12.567
56831W        W23614  12.805  18.044   0.688
56832W        W23615   2.040  13.358  10.399
56833W        W23616  20.719  43.535   0.456
56834W        W23617  38.093  23.801   1.613
56835W        W23618  18.756   5.768  12.438
56836W        W23619   0.700  35.538  12.225
56837W        W23620  37.484  20.112   4.144
56838W        W23621   5.410  43.527   0.274
56839W        W23622   4.669  13.242   3.103
56840W        W23623  15.311  38.625  12.143
56841W        W23624   2.448   0.249   1.266
56842W        W23625  43.680  34.958   2.842
56843W        W23626   3.207  26.466   2.894
56844W        W23627  37.532  41.377  13.461
56845W        W23628  17.365  35.414  13.814
56846W        W23629   8.539  33.226   0.319
56847W        W23630  37.244  31.442  13.957
56848W        W23631   0.388  17.449   1.295
56849W        W23632   9.853  23.793  12.114
56850W        W23633  27.623   4.785  12.912
56851W        W23634   4.719  37.045  13.019
56852W        W23635   4.010   2.911   0.958
56853W        W23636  17.688   4.399   2.128
56854W        W23637  26.408  31.087  10.675
56855W        W23638  40.023   2.619  14.827
56856W        W23639  28.059  11.755   2.152
56857W        W23640  28.711   3.823   3.757
56858W        W23641  23.480  28.508  11.403
56859W        W23642  35.482   4.686  11.063
56860W        W23643  39.281  44.265  14.940
56861W        W23644  42.854  41.746  12.902
56862W        W23645   5.229  22.516  12.559
56863W        W23646  12.563  33.868   1.488
56864W        W23647  36.344  25.773   3.853
56865W        W23648  19.968  40.303  11.839
56866W        W23649   0.988  43.389   1.262
56867W        W23650  24.941   1.708   2.853
56868W        W23651  22.638  36.109  10.763
56869W        W23652   1.924   2.816   4.695
56870W        W23653  27.438  25.496  11.118
56871W        W23654  16.711  36.548   2.557
56872W        W23655   1.768   9.233   3.665
56873W        W23656  16.782  38.195  14.601
56874W        W23657   2.487  35.014   0.272
56875W        W23658  34.010   3.198  11.275
56876W        W23659   2.419   5.240   2.839
56877W        W23660  12.824   2.936  11.331
56878W        W23661  24.725  30.049  14.567
56879W        W23662   4.895  44.071   0.887
56880W        W23663  24.728  26.941  11.441
56881W        W23664  42.928   6.791   0.312
56882W        W23665   9.778  16.210  12.345
56883W        W23666  13.805  42.829   4.711
56884W        W23667  33.662   5.893  11.393
56885W        W23668   8.405  32.867  14.943
56886W        W23669  19.589  14.707   0.169
56887W        W23670  38.787  23.196   1.255
56888W        W23671  19.074  26.498  13.592
56889W        W23672  23.161  44.930  12.034
56890W        W23673  38.754  26.624   2.848
56891W        W23674  44.941  38.027  10.657
56892W        W23675  41.856  27.051   2.824
56893W        W23676  25.645  37.043   0.140
56894W        W23677  30.870  40.253  12.923
56895W        W23678   0.953  27.418   3.338
56896W        W23679  40.426  16.797   2.290
56897W        W23680   0.393   5.117  12.306
56898W        W23681  43.090   7.132   3.354
56899W        W23682  24.757   6.393   0.430
56900W        W23683  41.472  11.514   4.818
56901W        W23684   0.758  25.449   1.630
56902W        W23685  12.257  35.008  14.909
56903W        W23686  23.750  43.099   3.666
56904W        W23687  40.792   2.976  11.600
56905W        W23688   9.646  32.945  13.465
56906W        W23689  26.478  24.488  11.063
56907W        W23690  18.204  17.289  10.133
56908W        W23691  22.139  27.740  11.999
56909W        W23692  16.818  24.533   0.821
56910W        W23693  30.950   6.739  10.627
56911W        W23694   0.781  41.078  13.766
56912W        W23695  26.195  31.055   1.353
56913W        W23696  21.534  25.262   5.232
56914W        W23697  39.267   0.437  12.478
56915W        W23698  37.897  22.259  14.721
56916W        W23699  43.482  18.241  13.024
56917W        W23700  39.243  33.523  13.601
56918W        W23701  15.267  40.901   0.195
56919W        W23702  25.078   7.563   1.731
56920W        W23703   6.274  31.665  14.412
56921W        W23704   0.992  17.256   1.755
56922W        W23705   3.996  30.370   2.877
56923W        W23706   4.808  36.964  14.959
56924W        W23707  22.536  27.215   3.217
56925W        W23708  12.002  13.304  14.559
56926W        W23709  42.390   2.904   4.683
56927W        W23710  36.050  38.312  13.267
56928W        W23711  44.556  22.960  14.404
56929W        W23712  13.003  17.270  12.242
56930W        W23713  12.225  26.240  11.661
56931W        W23714   6.964  22.193   2.279
56932W        W23715  25.074  36.876   0.897
56933W        W23716   9.226   1.107   4.140
56934W        W23717  32.109  28.767  14.342
56935W        W23718  40.374  33.106   1.889
56936W        W23719  16.708  32.415   2.792
56937W        W23720  16.609  12.923  12.291
56938W        W23721  43.042  36.457  11.081
56939W        W23722  28.968   6.671   2.793
56940W        W23723  24.315   0.849   1.273
56941W        W23724  43.217  38.810  14.402
56942W        W23725  17.504   7.306   3.777
56943W        W23726  40.818  35.401   1.726
56944W        W23727  15.891   2.273   5.069
56945W        W23728   7.672   9.276  12.080
56946W        W23729  36.091  29.839  12.939
56947W        W23730  33.178  25.991   3.605
56948W        W23731  29.412  40.033  10.872
56949W        W23732   7.194  35.902   3.211
56950W        W23733  37.066  43.456  10.839
56951W        W23734   6.005  33.139  11.943
56952W        W23735  24.262  17.059  10.664
56953W        W23736  35.046  33.413   1.117
56954W        W23737  28.114  19.512   2.388
56955W        W23738  19.148  31.876   0.809
56956W        W23739  20.017   3.548   2.381
56957W        W23740  22.527  31.450  10.434
56958W        W23741   6.156  12.667   2.890
56959W        W23742   6.278   8.154  12.434
56960W        W23743   4.202  19.740  13.520
56961W        W23744  33.733  40.529   0.662
56962W        W23745  26.984   6.613  11.629
56963W        W23746  14.726  13.166   1.255
56964W        W23747  20.217  27.203   0.253
56965W        W23748   7.659  31.806   1.451
56966W        W23749  27.426  16.829   3.914
56967W        W23750  41.443  35.968   1.356
56968W        W23751  18.739  11.705   4.161
56969W        W23752  44.553  30.538  13.537
56970W        W23753  29.497  41.559  10.751
56971W        W23754  11.844  44.124   0.902
56972W        W23755  43.824  18.644  13.005
56973W        W23756   0.973   5.715   4.209
56974W        W23757  44.313  36.875  12.560
56975W        W23758  31.814   1.984  11.023
56976W        W23759   0.450  29.584  12.589
56977W        W23760   1.975  21.912   4.298
56978W        W23761   3.294  10.659   4.912
56979W        W23762  25.111  17.943  14.868
56980W        W23763  13.851  25.679  11.978
56981W        W23764  43.207   8.957   3.637
56982W        W23765  18.156  31.517  13.640
56983W        W23766  13.849   3.455   2.837
56984W        W23767  42.422  24.554  11.642
56985W        W23768  24.583  29.969  13.977
56986W        W23769  22.576  15.664  12.908
56987W        W23770  26.582  35.777  11.257
56988W        W23771   4.611  22.138  11.872
56989W        W23772  15.036  15.942   0.468
56990W        W23773   8.537  28.990  13.419
56991W        W23774  35.960  18.048   1.552
56992W        W23775  21.256  23.527  13.529
56993W        W23776  18.569  17.906   4.006
56994W        W23777  19.596  19.095  10.694
56995W        W23778  32.668  35.788  12.087
56996W        W23779  36.307  11.892  12.976
56997W        W23780   9.315  37.166  11.979
56998W        W23781   4.372  20.714   1.192
56999W        W23782  26.517   2.304   1.180
57000W        W23783  19.636  42.990  13.077
57001W        W23784  34.088  41.939   1.429
57002W        W23785  33.155  16.810  12.846
57003W        W23786  27.641  29.420  14.928
57004W        W23787   1.314  19.576  14.961
57005W        W23788  40.904  10.574  10.746
57006W        W23789  16.614  21.420  11.297
57007W        W23790  18.591  30.243  11.095
57008W        W23791  36.544  26.726  12.069
57009W        W23792  11.283  25.720  13.683
57010W        W23793  10.215   4.925  12.114
57011W        W23794  44.579  12.307  10.569
57012W        W23795   0.050  11.196   3.238
57013W        W23796  24.745  41.084   0.029
57014W        W23797  32.050  24.581  13.455
57015W        W23798  27.218  11.836  13.599
57016W        W23799  38.263   1.343   4.803
57017W        W23800  21.352  32.425  10.398
57018W        W23801  32.878  27.630   1.855
57019W        W23802  42.180  32.990  12.511
57020W        W23803   3.198  17.572  12.665
57021W        W23804  40.955   6.321  13.045
57022W        W23805  13.822  31.499   1.687
57023W        W23806   8.099  18.849  13.592
57024W        W23807  15.559  20.229   2.316
57025W        W23808   5.802   6.938  12.089
57026W        W23809   9.674  24.143   4.602
57027W        W23810  43.505  40.494   3.316
57028W        W23811   6.757  21.476  10.934
57029W        W23812  22.495  26.098  12.530
57030W        W23813  32.893  31.330  14.032
57031W        W23814  38.064  10.543  12.961
57032W        W23815  23.137   4.399  12.481
57033W        W23816  33.358  36.307  11.959
57034W        W23817   3.750  21.978  13.617
57035W        W23818  19.717  25.605   0.884
57036W        W23819  34.531  24.159  14.361
57037W        W23820  15.367  23.872  13.106
57038W        W23821   9.860  19.880  12.344
57039W        W23822  36.943  44.312   2.442
57040W        W23823   6.430  19.921  13.954
57041W        W23824   2.002  43.942   1.377
57042W        W23825  16.898  44.335   0.805
57043W        W23826  30.458   8.699   1.440
57044W        W23827  29.472  23.283  11.085
57045W        W23828  17.241  13.271  12.861
57046W        W23829  25.035  38.624  11.143
57047W        W23830  14.169   8.928  11.249
57048W        W23831  39.198  34.516  11.952
57049W        W23832  24.003   1.990   0.853
57050W        W23833  37.473  19.490   0.002
57051W        W23834  43.190  19.807   3.520
57052W        W23835   7.141  32.437   3.702
57053W        W23836  10.522  38.484   4.609
57054W        W23837  43.659  23.588   4.062
57055W        W23838  31.884  40.869   5.048
57056W        W23839  44.306  23.731  12.514
57057W        W23840   0.498  28.859   3.725
57058W        W23841  41.069  11.425   3.087
57059W        W23842  22.162  32.993  12.591
57060W        W23843  15.679  41.858   3.759
57061W        W23844   4.527   8.899  12.454
57062W        W23845  11.527  43.082  12.575
57063W        W23846   3.344  12.123   0.448
57064W        W23847  14.065  12.324  11.034
57065W        W23848   3.183  42.854   4.908
57066W        W23849   4.255   6.281   2.283
57067W        W23850  12.657   8.755   0.796
57068W        W23851  26.963  37.331  14.798
57069W        W23852  23.017   4.286   4.069
57070W        W23853  32.426  39.306   3.891
57071W        W23854  37.430  20.842   3.695
57072W        W23855  27.741  10.033   0.818
57073W        W23856  12.635  38.631  14.364
57074W        W23857  28.038  18.799   0.520
57075W        W23858   8.317  19.221  12.262
57076W        W23859  11.679  16.790  12.022
57077W        W23860   6.731  20.037  12.894
57078W        W23861  42.437   5.782   0.764
57079W        W23862  11.376  43.087   2.757
57080W        W23863  22.238  28.411   1.843
57081W        W23864  15.661  38.766   2.766
57082W        W23865  42.657   2.449   4.031
57083W        W23866  36.045  15.192  11.480
57084W        W23867   7.176   6.459   1.695
57085W        W23868  26.452  10.538   2.206
57086W        W23869   8.728  25.417   1.139
57087W        W23870  22.608  11.611   0.281
57088W        W23871  31.754  43.801   1.748
57089W        W23872  30.597  39.625   1.991
57090W        W23873  13.925  30.157  11.748
57091W        W23874  25.281  21.541   2.722
57092W        W23875  10.892  19.671  14.125
57093W        W23876  36.804  30.451   3.269
57094W        W23877  13.338  24.782   3.794
57095W        W23878  29.569  12.037  10.091
57096W        W23879  34.541  15.383  12.776
57097W        W23880   9.804  15.032   4.680
57098W        W23881  28.227   9.306   3.252
57099W        W23882   5.040  13.800  13.945
57100W        W23883  17.290  41.954  14.794
57101W        W23884  37.231   2.998  10.785
57102W        W23885  29.666  35.049   4.223
57103W        W23886  12.942   6.853   5.081
57104W        W23887  39.483  26.282  13.217
57105W        W23888  11.782  37.796   0.234
57106W        W23889   0.029  37.059   4.170
57107W        W23890   9.891  31.461  14.903
57108W        W23891  30.711  29.301   4.687
57109W        W23892  39.134  25.751  14.703
57110W        W23893  38.360  27.642   0.440
57111W        W23894  34.610  22.477  14.668
57112W        W23895  34.881  22.944   3.231
57113W        W23896  19.643  44.209   4.191
57114W        W23897  42.026   6.197   3.250
57115W        W23898  21.447  26.559  11.224
57116W        W23899  19.793  14.019   3.638
57117W        W23900  12.289  41.883   4.741
57118W        W23901  27.637  18.213   3.674
57119W        W23902  29.448  24.237   3.553
57120W        W23903  23.937  24.722   0.867
57121W        W23904   8.722  19.146  12.596
57122W        W23905  17.589  39.864  13.423
57123W        W23906  15.334  36.544   3.006
57124W        W23907  42.993  12.215   2.672
57125W        W23908   8.822  20.499   2.699
57126W        W23909  39.665  40.540   4.065
57127W        W23910  30.114  12.043   2.897
57128W        W23911  21.715  22.437   3.092
57129W        W23912  28.508  35.325   4.531
57130W        W23913   9.190  26.124  11.209
57131W        W23914  31.565  17.897   4.144
57132W        W23915  17.562  12.850  12.744
57133W        W23916  28.097  25.755   9.966
57134W        W23917   8.229  27.021   3.290
57135W        W23918   8.127  21.356  11.069
57136W        W23919  15.595   1.584  11.726
57137W        W23920  25.664  37.579   1.261
57138W        W23921  38.588  30.527   1.248
57139W        W23922  19.262   6.462  12.586
57140W        W23923  21.113  14.250   4.873
57141W        W23924  43.736   2.789  14.102
57142W        W23925  21.179  23.340   0.734
57143W        W23926  11.876  34.010  11.128
57144W        W23927  35.607   5.815   4.434
57145W        W23928  38.839   2.899   4.951
57146W        W23929  13.499  20.690   2.825
57147W        W23930  17.447  11.689  12.860
57148W        W23931  26.576  12.103  13.922
57149W        W23932  34.090  19.124   4.227
57150W        W23933  39.179  16.451   0.328
57151W        W23934  15.214   5.209  12.113
57152W        W23935  29.239  32.129   4.064
57153W        W23936  17.820   8.183  14.547
57154W        W23937  41.771  40.907  10.609
57155W        W23938   3.378   8.725  13.081
57156W        W23939  43.878  24.202   4.593
57157W        W23940  35.275  42.310   0.809
57158W        W23941  14.773  44.561  10.395
57159W        W23942   2.128  33.645   4.748
57160W        W23943  31.881   0.203   2.531
57161W        W23944  29.027  28.646  12.562
57162W        W23945   9.875  38.655   0.674
57163W        W23946  42.838  19.590  12.174
57164W        W23947  11.031  40.418   0.452
57165W        W23948  24.741   4.783   3.619
57166W        W23949  26.775  14.589   4.037
57167W        W23950  37.230  18.511   2.312
57168W        W23951   0.933  31.337  13.178
57169W        W23952  12.434  27.298   2.814
57170W        W23953  10.827  31.048   2.831
57171W        W23954  41.515   9.648  13.096
57172W        W23955  23.291  36.347  11.565
57173W        W23956  32.518  27.492   3.909
57174W        W23957   9.066  24.968   3.550
57175W        W23958  17.638  15.472   2.034
57176W        W23959  35.015  39.906   0.370
57177W        W23960  23.458  26.375  12.749
57178W        W23961  36.431  40.593  12.096
57179W        W23962  24.069  32.632   4.883
57180W        W23963  39.335  27.167  10.512
57181W        W23964   9.757  15.659  10.784
57182W        W23965   2.267  18.299  14.390
57183W        W23966  14.260  16.052  13.343
57184W        W23967  39.930  11.260   2.737
57185W        W23968   7.188  22.057  13.079
57186W        W23969   5.383  19.237  12.631
57187W        W23970  16.555  25.390  13.562
57188W        W23971  32.598   5.243  13.293
57189W        W23972  11.348  41.432   3.956
57190W        W23973  30.407  33.422   2.361
57191W        W23974   4.779  12.696  13.363
57192W        W23975  32.563  44.375  12.015
57193W        W23976   3.339  28.997  11.831
57194W        W23977   7.547  40.867  12.058
57195W        W23978  29.141  21.445   4.647
57196W        W23979  16.170  11.233  12.947
57197W        W23980   7.724  32.476   2.693
57198W        W23981  34.145   6.731   3.518
57199W        W23982  28.421   9.176   1.830
57200W        W23983  15.778  30.487  14.402
57201W        W23984  25.443   7.443   2.126
57202W        W23985  13.762  38.469  12.139
57203W        W23986  23.678  24.242   2.201
57204W        W23987  33.938  20.602  11.565
57205W        W23988   9.614   2.529  12.262
57206W        W23989  30.499  36.850   2.647
57207W        W23990  43.383  36.860   4.663
57208W        W23991  17.597  44.540  11.514
57209W        W23992  16.894  35.823  14.409
57210W        W23993  18.730  37.625   0.942
57211W        W23994  19.212  40.790   1.259
57212W        W23995  43.702  28.272  11.969
57213W        W23996   1.400  15.049   4.546
57214W        W23997  17.078  27.507  12.097
57215W        W23998  37.237   5.524   0.249
57216W        W23999  17.684  12.700  12.245
57217W        W24000   7.215  10.858   2.109
57218W        W24001  32.112   2.796   4.576
57219W        W24002  14.370   6.685   3.296
57220W        W24003  31.858  32.929   4.395
57221W        W24004  41.169   1.511   0.209
57222W        W24005  27.548  36.276  13.440
57223W        W24006  26.398  41.396   0.948
57224W        W24007   3.296   9.703  13.013
57225W        W24008  41.570  22.204   0.901
57226W        W24009  30.447  27.129  13.064
57227W        W24010  25.373  23.707   2.821
57228W        W24011  44.658   5.974   3.763
57229W        W24012  19.588  28.094   4.480
57230W        W24013  37.079  26.578   3.320
57231W        W24014  42.377  20.618   0.889
57232W        W24015  13.917   6.526  13.528
57233W        W24016  22.759  31.024   3.131
57234W        W24017  24.465  31.244   4.180
57235W        W24018  38.695  39.434   3.573
57236W        W24019   9.976  11.121  14.312
57237W        W24020  14.891  38.852  12.024
57238W        W24021  39.028  33.853  12.730
57239W        W24022   5.786  24.282  10.801
57240W        W24023   4.879   0.925   3.137
57241W        W24024   0.809   1.458  10.902
57242W        W24025  33.357  32.623   1.804
57243W        W24026  30.952   3.377  12.468
57244W        W24027  42.763   5.446  13.562
57245W        W24028  10.652  35.881   0.318
57246W        W24029  31.766  34.415   4.568
57247W        W24030   3.431  42.355   4.314
57248W        W24031   9.041  27.009  10.700
57249W        W24032  40.041  43.008  14.334
57250W        W24033  43.311  39.443  14.775
57251W        W24034   3.182  11.970   1.485
57252W        W24035  42.541  43.328  14.028
57253W        W24036  16.229  44.170   4.924
57254W        W24037  34.916  31.442   1.284
57255W        W24038  11.181  10.367  14.625
57256W        W24039  36.376   1.016  12.473
57257W        W24040  17.542  21.207   4.457
57258W        W24041  19.739  12.558   0.712
57259W        W24042   3.311   5.231   0.004
57260W        W24043   0.466  20.738  12.504
57261W        W24044  33.594  10.255  14.034
57262W        W24045  24.994  41.023   2.616
57263W        W24046  11.712   5.989  12.965
57264W        W24047  30.377  14.174   3.188
57265W        W24048  17.022  27.509  13.379
57266W        W24049  37.544  26.625   1.375
57267W        W24050  30.634  28.061  12.465
57268W        W24051  14.455  17.132  12.363
57269W        W24052  28.466  25.049   1.815
57270W        W24053  35.503  12.138   3.208
57271W        W24054  37.140  17.670  13.898
57272W        W24055   3.957  10.179  13.661
57273W        W24056  15.683  18.206  14.555
57274W        W24057   7.985   4.913  14.270
57275W        W24058  33.613  37.506  10.663
57276W        W24059  44.049  12.794   0.066
57277W        W24060  34.122  39.545  12.061
57278W        W24061  29.136   9.775   2.654
57279W        W24062  44.508  17.321   4.096
57280W        W24063  32.578   6.124  12.011
57281W        W24064  31.690  30.459   3.884
57282W        W24065  35.028   9.393   4.576
57283W        W24066  21.276  41.570  14.837
57284W        W24067  31.850   6.627   9.858
57285W        W24068  23.107  17.965   0.232
57286W        W24069  41.862   5.455  11.380
57287W        W24070   7.393  32.528   0.905
57288W        W24071  40.374  26.518  14.421
57289W        W24072   5.868  35.473  10.889
57290W        W24073  17.233   0.472   2.220
57291W        W24074  42.249  22.707   2.358
57292W        W24075  33.428   5.380  13.530
57293W        W24076  12.092  13.580  11.904
57294W        W24077   1.261  26.176   0.970
57295W        W24078  36.802  44.190   1.447
57296W        W24079  19.172   1.483  10.531
57297W        W24080  12.157  37.541   3.344
57298W        W24081  26.542  43.431   4.541
57299W        W24082   9.860  36.567   4.084
57300W        W24083  29.173  39.088  12.222
57301W        W24084   3.970  28.458  14.941
57302W        W24085  35.443  13.192  10.935
57303W        W24086  39.065  40.391  10.150
57304W        W24087  44.805  34.061  12.494
57305W        W24088   8.249  27.464  13.546
57306W        W24089  27.668  18.036  14.131
57307W        W24090   0.866  13.370  13.163
57308W        W24091  43.566  32.112  10.597
57309W        W24092   3.065  23.801   2.718
57310W        W24093  12.166  26.730  14.430
57311W        W24094  26.259  33.856  14.960
57312W        W24095  30.660   6.720  13.087
57313W        W24096   0.564  39.556  11.025
57314W        W24097  17.023   2.262  14.934
57315W        W24098   0.509  37.658  11.875
57316W        W24099  27.401  19.483   1.313
57317W        W24100  35.113  40.977  13.332
57318W        W24101  20.495  27.595   0.435
57319W        W24102  28.133   2.499  14.831
57320W        W24103  34.679  23.981  14.843
57321W        W24104  18.674  26.000  11.287
57322W        W24105   3.194   2.927   3.164
57323W        W24106  13.920  16.758   0.296
57324W        W24107   8.253  20.145   3.338
57325W        W24108  23.287  21.558   2.729
57326W        W24109  26.133  43.008  13.972
57327W        W24110  33.052  31.968   2.258
57328W        W24111  15.828  21.004  13.466
57329W        W24112   3.220   1.942   3.715
57330W        W24113  32.473  18.690  10.483
57331W        W24114  38.539   8.379  14.954
57332W        W24115  34.857  42.828   1.721
57333W        W24116  26.901   4.971   0.771
57334W        W24117  42.508   1.776  10.463
57335W        W24118  12.700  23.619  13.519
57336W        W24119  34.054  16.586  14.462
57337W        W24120  33.142   8.797  11.897
57338W        W24121  23.051  15.255  14.078
57339W        W24122  11.758  29.500  14.139
57340W        W24123  24.482  22.324   3.705
57341W        W24124  15.360   6.345  11.336
57342W        W24125   6.733  41.449   2.733
57343W        W24126   1.181   4.864   2.308
57344W        W24127  21.706  10.119   3.758
57345W        W24128  17.910  12.176   4.986
57346W        W24129  37.497  16.057  14.399
57347W        W24130  44.762  43.446   1.932
57348W        W24131  18.230  35.092   0.006
57349W        W24132  14.155  21.780   4.475
57350W        W24133  22.798  29.106  12.426
57351W        W24134  26.585   9.815  11.678
57352W        W24135  38.856  21.985  14.395
57353W        W24136  25.752  26.050   0.428
57354W        W24137  31.313  21.016  14.026
57355W        W24138  43.908  26.561   1.511
57356W        W24139  42.367   9.870  14.093
57357W        W24140   5.926  14.263  11.102
57358W        W24141  27.370  25.978  12.472
57359W        W24142  14.716  25.000   3.657
57360W        W24143  30.976  42.817   4.139
57361W        W24144   6.253  44.982  10.938
57362W        W24145  35.937  33.846   2.445
57363W        W24146  26.957   6.936  14.069
57364W        W24147  16.682  20.243  10.551
57365W        W24148  24.994  34.885   0.812
57366W        W24149  13.899  36.003   2.362
57367W        W24150  28.998  15.979  13.030
57368W        W24151  21.426  32.508   4.679
57369W        W24152  34.878  36.250   1.732
57370W        W24153  23.501  35.588   1.810
57371W        W24154  39.978   4.872  12.819
57372W        W24155  34.073  29.978   3.949
57373W        W24156  14.125  32.080  14.996
57374W        W24157  22.490   0.126  14.961
57375W        W24158  27.448  20.176  11.991
57376W        W24159  35.528   5.436  10.797
57377W        W24160  44.264  24.040   0.363
57378W        W24161  42.382  11.457   4.605
57379W        W24162  33.370   7.532  13.035
57380W        W24163  25.525  17.167   0.450
57381W        W24164  22.357   7.803   4.612
57382W        W24165  24.739   5.824   1.689
57383W        W24166  32.150   7.266  11.672
57384W        W24167  17.765  18.756  12.422
57385W        W24168  12.178  36.672  12.506
57386W        W24169  15.709  41.033   5.030
57387W        W24170  20.877  10.835  14.740
57388W        W24171  22.254  43.558   4.082
57389W        W24172  43.863  33.413  10.620
57390W        W24173  10.773   9.676   1.301
57391W        W24174   9.694  40.512   1.223
57392W        W24175  10.699  21.982   1.954
57393W        W24176   1.136  33.135   3.833
57394W        W24177   0.855  34.144   1.919
57395W        W24178  39.413  17.203  11.620
57396W        W24179  40.280  39.936  13.482
57397W        W24180  41.923  26.598   4.124
57398W        W24181  10.061   2.575   0.913
57399W        W24182  27.087   1.253  10.749
57400W        W24183  30.817  32.556  13.003
57401W        W24184  42.390  25.713   1.655
57402W        W24185  37.417  24.800   9.933
57403W        W24186  38.755   1.971  11.186
57404W        W24187  10.218   2.167   0.351
57405W        W24188  41.236   1.608  13.823
57406W        W24189  31.862  39.131   1.682
57407W        W24190   8.520  20.060  13.475
57408W        W24191   1.461   9.549   2.499
57409W        W24192  40.241  25.264  13.902
57410W        W24193  19.945   0.187   2.747
57411W        W24194  37.012   4.799   1.141
57412W        W24195   8.647  42.943  14.237
57413W        W24196   8.018  28.994  13.481
57414W        W24197   8.177  15.240  10.671
57415W        W24198  30.974  41.813   4.071
57416W        W24199  41.111   0.618  11.192
57417W        W24200  39.218  44.443   2.294
57418W        W24201  39.675  19.570   3.484
57419W        W24202  34.986   1.923   2.796
57420W        W24203   0.313   0.388  12.581
57421W        W24204  13.195  12.695  11.542
57422W        W24205  29.260  11.587   1.206
57423W        W24206  35.425  19.319   1.886
57424W        W24207   5.441   7.333   0.036
57425W        W24208  33.496  23.109   0.362
57426W        W24209  25.162   6.652   2.183
57427W        W24210  40.429  27.154  10.835
57428W        W24211  18.217  44.198   1.229
57429W        W24212  28.003  29.379   4.446
57430W        W24213   6.875  33.971  13.471
57431W        W24214   7.211  14.184   2.571
57432W        W24215   9.300  20.000  12.442
57433W        W24216  17.976   9.207  11.686
57434W        W24217  39.795  27.615  13.580
57435W        W24218  40.224  43.875   4.646
57436W        W24219  15.079  40.300   2.284
57437W        W24220   0.617  34.849   0.363
57438W        W24221  14.609  41.269   3.277
57439W        W24222  10.113  26.029  14.979
57440W        W24223   5.729  25.171   4.766
57441W        W24224  21.013  11.742   1.648
57442W        W24225  26.161  23.134  10.409
57443W        W24226  30.623  22.219  12.496
57444W        W24227  26.524   9.974  14.549
57445W        W24228  29.427  20.585   4.078
57446W        W24229  17.200  25.143  14.837
57447W        W24230   9.094  41.881   1.715
57448W        W24231  40.828  24.738  13.062
57449W        W24232  21.351  17.511  12.237
57450W        W24233   9.635  20.263   4.617
57451W        W24234  26.516  13.953   4.541
57452W        W24235  31.849   9.360   1.492
57453W        W24236  27.116  36.547   2.137
57454W        W24237  14.082  18.255  11.432
57455W        W24238  15.191  21.189  11.924
57456W        W24239  11.131  44.135  13.927
57457W        W24240  12.106  43.410  12.556
57458W        W24241  19.794  11.036  12.690
57459W        W24242  24.495   7.761   1.955
57460W        W24243   6.874  36.890   4.447
57461W        W24244   4.381   5.415  12.934
57462W        W24245  36.960  23.218   2.041
57463W        W24246  34.183  42.697  12.922
57464W        W24247  12.788  16.798  10.798
57465W        W24248  15.849  40.844  13.571
57466W        W24249  35.351  27.880   4.199
57467W        W24250  35.075  26.616  10.725
57468W        W24251   4.938  17.186   2.819
57469W        W24252  33.060   3.496   3.325
57470W        W24253  20.303  38.770  10.919
57471W        W24254  13.122   2.252  10.682
57472W        W24255  26.733  16.875  13.324
57473W        W24256  36.472  23.177   0.497
57474W        W24257  16.390  26.544  10.193
57475W        W24258  43.282  36.777   3.137
57476W        W24259  20.084  10.247   3.875
57477W        W24260  24.640  32.552   2.706
57478W        W24261  38.906  43.995  12.367
57479W        W24262  24.713  12.794  13.913
57480W        W24263  23.038   7.232   3.609
57481W        W24264   5.297   7.949  11.446
57482W        W24265  27.029  26.700   3.658
57483W        W24266  28.027  33.998  11.074
57484W        W24267   2.820  19.546  12.071
57485W        W24268  43.313  24.047  10.786
57486W        W24269  17.721   6.680  11.160
57487W        W24270  21.226  20.425   4.135
57488W        W24271   7.721  17.212  14.774
57489W        W24272  38.575  42.882  14.319
57490W        W24273  35.635   6.675   1.329
57491W        W24274  35.960  18.214  11.297
57492W        W24275  41.597  16.691   3.383
57493W        W24276   1.179  28.638  14.373
57494W        W24277  31.988  32.746   3.420
57495W        W24278  40.574  36.792   2.599
57496W        W24279  27.485   6.116   1.831
57497W        W24280  24.751  14.715  10.951
57498W        W24281  16.034  22.600  11.698
57499W        W24282  31.122   7.346  11.625
57500W        W24283  27.873   6.265  10.748
57501W        W24284  21.650  12.360   3.620
57502W        W24285  26.241  19.174   1.237
57503W        W24286  41.049  24.460  14.937
57504W        W24287  25.614  33.447   0.425
57505W        W24288  10.821  24.645   4.693
57506W        W24289  17.172   6.293  13.491
57507W        W24290  14.540   1.765  10.717
57508W        W24291   7.025   4.432   0.462
57509W        W24292  44.785  12.334  12.969
57510W        W24293  35.940  37.400  12.937
57511W        W24294  14.587   4.242   0.846
57512W        W24295  17.042  25.634  14.935
57513W        W24296   1.093  25.360   4.817
57514W        W24297   5.515  39.140  13.239
57515W        W24298   7.681  27.227  14.079
57516W        W24299   8.706  24.084   1.619
57517W        W24300  18.653  43.178   1.337
57518W        W24301  18.355  30.985  13.328
57519W        W24302  19.146  37.078  11.262
57520W        W24303  36.090   4.984  12.137
57521W        W24304   3.223  26.511   3.795
57522W        W24305   2.456  12.315   2.101
57523W        W24306   7.877  32.157  13.089
57524W        W24307  12.127  39.002  10.917
57525W        W24308  17.002  18.312  10.261
57526W        W24309  18.343  10.996   3.673
57527W        W24310  40.551  23.984  10.587
57528W        W24311   7.425   1.281   1.429
57529W        W24312  38.879  11.623  14.988
57530W        W24313  41.056  32.922   2.715
57531W        W24314  26.817   3.791   3.026
57532W        W24315  44.664   4.470  10.764
57533W        W24316  38.487  26.509  14.311
57534W        W24317   2.166  29.880  12.977
57535W        W24318  33.947  12.055   0.363
57536W        W24319  15.553  16.658   0.783
57537W        W24320  22.321  30.044   2.645
57538W        W24321   2.694   6.092   4.661
57539W        W24322  13.342  10.562  14.079
57540W        W24323   6.579  23.775   3.197
57541W        W24324  39.443  38.976   4.702
57542W        W24325  24.154  11.343   3.377
57543W        W24326   2.754  41.399   4.189
57544W        W24327  38.795  20.579   2.168
57545W        W24328  21.784  18.488  13.810
57546W        W24329  25.121  13.308  11.557
57547W        W24330  21.742  31.091   2.231
57548W        W24331   2.455  29.872  14.355
57549W        W24332  38.665  25.905  11.178
57550W        W24333  40.246  27.030  11.719
57551W        W24334  25.098  27.908   5.221
57552W        W24335   3.255  20.605   2.782
57553W        W24336  36.421  20.184   5.170
57554W        W24337  37.278  44.315   3.686
57555W        W24338   7.751   4.451  10.797
57556W        W24339  28.943  44.151  11.920
57557W        W24340   7.724   5.039   4.438
57558W        W24341  32.236  44.340  11.336
57559W        W24342  42.308  35.537   3.289
57560W        W24343  33.001   6.542  11.009
57561W        W24344  40.553  17.528   4.274
57562W        W24345  34.658  28.026  12.509
57563W        W24346   6.609  31.422   2.276
57564W        W24347  35.197   8.317   2.537
57565W        W24348  36.985   7.089   0.943
57566W        W24349  12.471   9.602   3.478
57567W        W24350  15.391   5.585  12.422
57568W        W24351  10.683  15.681  14.444
57569W        W24352  16.348  29.937   3.065
57570W        W24353  24.325  21.089   9.944
57571W        W24354  20.829  12.722   3.140
57572W        W24355   0.798  38.812  11.228
57573W        W24356  43.251  43.473   1.700
57574W        W24357  20.450  16.350   3.472
57575W        W24358   5.596  14.152  12.893
57576W        W24359   3.226   4.353  13.070
57577W        W24360  28.692  21.628  11.659
57578W        W24361  27.843   3.039   1.079
57579W        W24362   1.422  23.084   4.105
57580W        W24363  12.467  34.033  12.514
57581W        W24364  14.714   5.381   0.015
57582W        W24365  34.379  13.829   4.057
57583W        W24366  24.923  36.084   0.335
57584W        W24367  35.478  41.110  12.603
57585W        W24368  12.300  11.768   4.935
57586W        W24369   2.605  16.193   1.928
57587W        W24370  30.130  13.287   0.452
57588W        W24371  17.261  41.913  12.002
57589W        W24372  29.090   2.313  11.114
57590W        W24373  43.725  38.678   4.384
57591W        W24374  39.907   8.788   1.937
57592W        W24375  44.267  20.160   1.325
57593W        W24376  37.015  26.456  10.672
57594W        W24377  24.052  30.606   3.203
57595W        W24378  31.783   0.708  14.342
57596W        W24379  14.569  14.466  11.011
57597W        W24380   0.794   5.658   2.455
57598W        W24381   0.168  13.672   3.137
57599W        W24382  34.792  31.094  11.500
57600W        W24383   1.239  17.089   3.664
57601W        W24384  40.503   7.139  13.465
57602W        W24385  16.582  25.832   3.255
57603W        W24386  36.472  12.077  12.440
57604W        W24387   6.668  35.897  14.376
57605W        W24388   5.425  27.578  14.985
57606W        W24389  29.675  16.077   2.246
57607W        W24390  29.874  35.198   4.791
57608W        W24391   3.144   3.990  12.000
57609W        W24392  27.146   7.260   2.402
57610W        W24393  23.394  34.688  11.146
57611W        W24394   7.013  20.595  12.762
57612W        W24395  10.716  43.207   4.497
57613W        W24396   8.349  41.262  14.333
57614W        W24397   7.654   1.646  10.842
57615W        W24398  28.865   7.816  14.628
57616W        W24399  29.098   8.632  10.543
57617W        W24400   0.785  38.903  12.128
57618W        W24401   6.863  15.683  11.019
57619W        W24402  36.021  32.640   0.951
57620W        W24403  30.648  19.091   3.797
57621W        W24404  11.869  14.806  11.045
57622W        W24405  32.541  39.765   1.391
57623W        W24406  15.639  28.849   1.276
57624W        W24407  35.478  14.083   4.593
57625W        W24408  11.638   9.260  13.913
57626W        W24409   9.725  31.476  13.569
57627W        W24410  13.732  27.594   1.200
57628W        W24411   7.415  17.221  12.469
57629W        W24412  42.402  28.639  13.071
57630W        W24413  33.529  44.570  13.819
57631W        W24414  22.173   7.494  10.684
57632W        W24415  23.210  40.349   5.142
57633W        W24416  27.456  15.893   0.829
57634W        W24417  34.064  17.439  10.647
57635W        W24418   6.344  10.235   0.766
57636W        W24419  22.469   8.157  14.289
57637W        W24420  20.252  37.344   2.786
57638W        W24421  31.619  38.578  12.767
57639W        W24422  29.434  41.034  10.645
57640W        W24423  40.801  10.269  14.924
57641W        W24424  16.152  37.863   2.769
57642W        W24425   2.839  34.658  11.577
57643W        W24426  43.414  31.590  14.288
57644W        W24427   2.253   6.096   0.921
57645W        W24428  34.565  13.618  13.489
57646W        W24429  29.391   2.988  12.096
57647W        W24430  38.376  33.781  10.543
57648W        W24431  19.500  29.035  12.950
57649W        W24432  35.581  18.026  10.984
57650W        W24433  15.807  19.609  13.494
57651W        W24434  35.509  21.620   0.828
57652W        W24435  39.232  12.855   2.748
57653W        W24436  43.577  16.811   3.275
57654W        W24437   8.411   4.391   2.818
57655W        W24438  32.023   6.286   3.370
57656W        W24439   0.946  42.034  10.578
57657W        W24440  31.412   1.075  14.517
57658W        W24441  43.803  39.439  11.532
57659W        W24442  33.393  16.973   2.385
57660W        W24443  19.127   9.213  12.239
57661W        W24444   8.866  44.098  12.846
57662W        W24445  15.401  24.490   2.469
57663W        W24446   5.400  44.804   1.216
57664W        W24447  44.262  15.053  14.978
57665W        W24448   5.255  33.466  12.301
57666W        W24449  24.753  20.251  13.489
57667W        W24450  35.175  21.773  11.173
57668W        W24451  34.559   8.548  13.097
57669W        W24452  31.485  27.697   3.308
57670W        W24453  22.966  17.348  13.971
57671W        W24454   9.859  31.887   4.456
57672W        W24455  32.589  26.605   2.856
57673W        W24456  44.316  21.038  11.622
57674W        W24457  33.192   8.902  14.817
57675W        W24458  40.002  42.464  10.642
57676W        W24459  39.314  40.962  14.475
57677W        W24460  27.984  36.293  11.533
57678W        W24461  17.301  28.662  14.357
57679W        W24462  40.937  31.356   1.710
57680W        W24463  35.591  16.551  10.784
57681W        W24464  25.213  12.613   1.085
57682W        W24465   1.656   0.951   3.251
57683W        W24466  35.236   4.025   5.063
57684W        W24467  39.407  43.270  10.258
57685W        W24468   6.891  26.647   0.732
57686W        W24469  30.389  39.512   4.555
57687W        W24470   7.679  14.590   1.730
57688W        W24471  44.078  36.613   2.599
57689W        W24472  39.857  10.663  14.893
57690W        W24473   5.696  26.654   4.739
57691W        W24474  18.261  13.885   1.502
57692W        W24475   7.166  38.338   4.403
57693W        W24476   9.741  25.119  12.658
57694W        W24477  11.145  12.768   4.548
57695W        W24478  38.330  15.794   0.948
57696W        W24479  25.877  32.473   1.309
57697W        W24480  13.686  30.046   2.656
57698W        W24481  43.260  18.292   4.403
57699W        W24482  26.494   7.886  13.453
57700W        W24483  17.170  32.634   1.313
57701W        W24484  41.447   9.744   2.928
57702W        W24485   5.891  29.460   0.256
57703W        W24486  42.766   2.175  10.697
57704W        W24487  19.362  34.555   2.620
57705W        W24488   8.236  42.939  13.393
57706W        W24489   3.553  13.287   1.187
57707W        W24490  31.051   0.067   1.836
57708W        W24491  10.258   2.812   2.942
57709W        W24492   3.422  15.536   3.206
57710W        W24493  26.408  30.583   1.446
57711W        W24494   4.288  27.079  10.660
57712W        W24495  28.405  21.485   3.376
57713W        W24496  26.065  19.318   3.133
57714W        W24497   7.817  19.145  12.487
57715W        W24498  21.820  17.668  11.519
57716W        W24499  36.102   5.428  13.084
57717W        W24500  43.919  35.425   0.402
57718W        W24501  10.766  36.586  11.787
57719W        W24502  13.739   9.476   0.456
57720W        W24503  30.352   7.959   0.864
57721W        W24504  27.082  37.330   1.857
57722W        W24505  19.606  20.797  13.052
57723W        W24506   0.423  19.610  12.824
57724W        W24507  20.277  15.683   2.232
57725W        W24508   1.878   9.978  14.857
57726W        W24509  26.172  11.974  12.469
57727W        W24510  18.726  35.370   2.621
57728W        W24511  10.174  39.865   0.511
57729W        W24512   7.308  16.576  14.884
57730W        W24513  14.810   6.197   3.869
57731W        W24514   3.890   1.247   1.770
57732W        W24515  12.792   1.691  12.542
57733W        W24516  40.603  18.595  12.895
57734W        W24517  16.985  10.761  13.094
57735W        W24518   3.020  18.237  11.242
57736W        W24519  37.304  40.253  11.082
57737W        W24520   7.871   1.802  14.475
57738W        W24521  37.935  10.764   3.580
57739W        W24522   0.360  28.317  13.077
57740W        W24523  41.397   4.217   1.206
57741W        W24524  35.937  35.577   2.673
57742W        W24525  38.952   5.836   2.387
57743W        W24526  13.696  11.240   0.053
57744W        W24527   5.870  25.101   3.590
57745W        W24528  10.088  31.666   1.231
57746W        W24529  13.650  42.638  14.986
57747W        W24530  20.989  17.621   3.656
57748W        W24531  13.836  23.973   4.090
57749W        W24532  40.829  21.926  12.123
57750W        W24533  21.113   8.635  14.754
57751W        W24534   5.656  39.433   0.320
57752W        W24535  44.820  26.980   4.186
57753W        W24536  15.845  12.878   3.701
57754W        W24537   1.373  20.988  14.479
57755W        W24538   2.755  26.059   1.128
57756W        W24539  19.746  37.838  10.597
57757W        W24540   3.405  15.891   3.642
57758W        W24541   2.642  17.934   1.234
57759W        W24542   7.637  43.669   2.255
57760W        W24543  16.310  43.915   0.364
57761W        W24544  12.796  42.768   4.588
57762W        W24545  34.257  35.089   2.429
57763W        W24546  16.246   1.780  13.713
57764W        W24547  43.488   5.408  10.688
57765W        W24548   7.454   9.856   2.877
57766W        W24549  29.474   8.044   2.810
57767W        W24550  37.217  13.312  14.408
57768W        W24551  33.943   8.821  12.362
57769W        W24552   2.460  36.250   0.785
57770W        W24553  23.001  26.890  12.070
57771W        W24554  29.586  12.877  13.400
57772W        W24555  35.535  29.478   3.305
57773W        W24556   5.327  40.283  11.148
57774W        W24557  20.410   0.932   5.642
57775W        W24558   9.978  26.739  13.325
57776W        W24559  22.661  34.895   1.396
57777W        W24560   5.358   5.749  10.642
57778W        W24561   6.767  43.396  13.284
57779W        W24562  20.171  30.850  12.460
57780W        W24563  35.626  22.612  11.658
57781W        W24564  14.469  22.633   4.464
57782W        W24565   5.432  43.019  13.686
57783W        W24566  43.482  39.028  11.612
57784W        W24567  43.916   8.557  10.590
57785W        W24568  20.607  40.466   3.598
57786W        W24569  20.615   2.390  14.344
57787W        W24570  41.234   8.736   2.363
57788W        W24571   7.772  11.316  11.702
57789W        W24572  26.891  22.711   2.807
57790W        W24573  39.341  18.983   0.162
57791W        W24574   9.884  20.617  12.801
57792W        W24575  12.278  40.417   0.942
57793W        W24576   8.909  12.574   3.319
57794W        W24577  36.599   5.982  10.814
57795W        W24578  19.203   8.097   4.083
57796W        W24579   5.656  39.974  14.062
57797W        W24580   0.338  43.340  12.848
57798W        W24581   0.002   8.315  13.942
57799W        W24582   0.044  24.625  13.993
57800W        W24583  16.663  27.653   0.027
57801W        W24584  25.888  15.692  10.543
57802W        W24585  22.056  27.022   1.787
57803W        W24586  42.650  30.928  13.412
57804W        W24587  23.083  28.482  13.400
57805W        W24588  32.064  29.258   0.803
57806W        W24589  12.274   9.982   1.449
57807W        W24590  27.890  17.102  10.664
57808W        W24591   9.868  31.439  12.542
57809W        W24592   9.499  34.133   0.359
57810W        W24593   5.145  31.594  11.763
57811W        W24594  37.985  40.523   3.397
57812W        W24595   4.465   6.291   0.900
57813W        W24596  36.319   4.422  11.347
57814W        W24597   1.752  37.772   0.490
57815W        W24598  31.912  27.292   0.935
57816W        W24599  36.963  20.627  13.352
57817W        W24600  26.106  42.698   0.375
57818W        W24601  42.532   4.834  14.875
57819W        W24602  14.138  21.349  11.128
57820W        W24603  42.531  31.125  11.649
57821W        W24604  39.333   9.218  11.194
57822W        W24605  15.632  30.208  11.141
57823W        W24606  13.310  31.476  12.532
57824W        W24607  27.327  13.169  12.036
57825W        W24608   4.364  13.934   2.875
57826W        W24609  42.906  16.579   1.376
57827W        W24610   7.836  40.646   1.747
57828W        W24611  14.073  16.600   0.807
57829W        W24612  13.674  32.268  11.544
57830W        W24613  34.167  23.214  10.685
57831W        W24614  17.790  42.415   4.871
57832W        W24615   8.740   3.840   1.168
57833W        W24616  34.687  28.563  12.459
57834W        W24617  30.500  29.682   0.852
57835W        W24618  17.147  14.301   0.962
57836W        W24619  21.986   7.111  11.033
57837W        W24620  36.356   0.398  10.691
57838W        W24621   7.480  13.963   3.005
57839W        W24622  31.544  38.246   2.801
57840W        W24623   2.282  38.466  10.707
57841W        W24624  30.743  35.320   2.810
57842W        W24625  40.043  16.200  11.193
57843W        W24626  44.450  13.666  14.821
57844W        W24627  32.388   9.711  11.734
57845W        W24628  39.811  40.411   2.258
57846W        W24629  13.179  15.196   2.348
57847W        W24630  21.221  35.442  14.881
57848W        W24631   6.715   2.902   3.682
57849W        W24632  11.791  36.036   4.765
57850W        W24633  15.996   1.048   5.173
57851W        W24634  27.926  18.679   3.656
57852W        W24635  14.747  18.903   4.342
57853W        W24636   6.251  14.334   5.002
57854W        W24637  43.977   9.979   1.491
57855W        W24638  23.956  14.110  12.958
57856W        W24639  18.469  30.965  10.714
57857W        W24640   8.425  29.504  13.372
57858W        W24641  43.567  15.558  11.684
57859W        W24642   1.530  28.216   0.685
57860W        W24643  29.591  41.487   5.444
57861W        W24644   1.831  20.294  10.799
57862W        W24645  28.886  24.736  11.135
57863W        W24646  31.998   2.562  12.278
57864W        W24647   5.116  21.714   4.526
57865W        W24648  33.668  38.835  11.677
57866W        W24649  34.837  26.746  11.172
57867W        W24650   8.741  12.852   0.289
57868W        W24651   5.733  28.601   3.764
57869W        W24652  39.317  30.114   4.700
57870W        W24653  25.241  33.497   3.076
57871W        W24654  19.496   1.422  11.622
57872W        W24655  27.599  20.007   3.888
57873W        W24656  43.008  27.876  13.444
57874W        W24657  20.252  25.897  12.027
57875W        W24658  39.917  19.551  12.374
57876W        W24659  20.123  37.575   0.783
57877W        W24660  18.762  15.117   2.774
57878W        W24661  36.106   0.343   1.028
57879W        W24662   6.706  21.481  10.427
57880W        W24663  44.309  36.930  14.902
57881W        W24664  42.908  28.177   4.680
57882W        W24665  44.513  22.769  10.936
57883W        W24666   5.808  27.003  12.999
57884W        W24667  22.147  31.672  12.616
57885W        W24668  32.259  37.083   2.769
57886W        W24669  32.187  12.357  12.532
57887W        W24670  12.437  40.524   4.580
57888W        W24671  31.043   6.135   3.255
57889W        W24672   1.198  26.467  11.700
57890W        W24673  43.833   7.250   2.838
57891W        W24674   6.700  35.089  13.017
57892W        W24675  38.522  29.302   3.227
57893W        W24676  39.106  42.908   4.584
57894W        W24677  33.447  22.957  14.851
57895W        W24678  34.502  40.949   2.283
57896W        W24679  38.381  12.644  14.269
57897W        W24680  36.118  26.860   1.428
57898W        W24681  34.955  34.097   4.610
57899W        W24682  23.125  13.493   2.892
57900W        W24683   8.770  18.383   1.889
57901W        W24684  29.183  35.485  11.863
57902W        W24685  34.505  19.329   4.962
57903W        W24686  43.948  19.556  12.938
57904W        W24687  28.052  11.240   0.004
57905W        W24688  15.918   0.786   3.672
57906W        W24689  38.163   9.184  13.138
57907W        W24690  43.066  20.791   1.493
57908W        W24691  33.048  12.750  14.266
57909W        W24692  17.352  13.255  14.223
57910W        W24693   9.046  40.881  12.014
57911W        W24694  27.283  10.641  12.226
57912W        W24695  35.126  15.066  12.445
57913W        W24696  39.251  36.524  14.089
57914W        W24697  37.295  24.561   2.209
57915W        W24698  12.263  44.902  11.435
57916W        W24699  25.296   1.037  12.572
57917W        W24700   6.552  14.801  13.278
57918W        W24701  20.270  14.706  12.505
57919W        W24702   8.521   1.920  10.816
57920W        W24703  10.304  38.461  12.736
57921W        W24704  35.146  20.584   3.861
57922W        W24705  29.528  10.226  11.137
57923W        W24706   7.804  33.291  14.197
57924W        W24707  20.250  25.950  11.078
57925W        W24708  25.730  18.667  14.103
57926W        W24709  22.114  16.929  13.013
57927W        W24710  31.032  36.317   4.829
57928W        W24711  12.960  19.604  13.080
57929W        W24712  19.316  18.125  11.771
57930W        W24713  36.133  31.864  10.835
57931W        W24714  20.664  11.763   0.373
57932W        W24715  13.003  20.513  13.372
57933W        W24716  25.174  41.739  10.252
57934W        W24717   3.018  30.344   0.618
57935W        W24718  26.484  36.499  10.555
57936W        W24719  13.917  37.110   0.167
57937W        W24720  23.513  15.106  14.500
57938W        W24721   6.947  11.883  10.747
57939W        W24722  35.087   2.275   0.018
57940W        W24723  31.589   3.453   2.691
57941W        W24724   2.462  43.423  12.084
57942W        W24725   3.832  31.999  11.535
57943W        W24726  25.858  24.222  11.577
57944W        W24727   7.661  27.719  13.222
57945W        W24728   0.560  20.746  14.455
57946W        W24729  33.087  33.358   1.224
57947W        W24730  14.616   4.452  12.474
57948W        W24731  42.773   6.003   4.590
57949W        W24732  23.200  30.737  11.256
57950W        W24733  42.386  43.884  10.727
57951W        W24734  38.799  34.622  11.599
57952W        W24735  22.702  14.572  10.619
57953W        W24736  43.658  10.736  13.612
57954W        W24737  28.533   3.520   1.002
57955W        W24738  12.054   6.383  12.801
57956W        W24739  19.282  20.715  13.501
57957W        W24740   4.179   9.377   4.007
57958W        W24741  22.826   5.182  12.141
57959W        W24742  15.124  36.362  11.884
57960W        W24743  32.562   1.806   0.789
57961W        W24744  10.095   3.310   0.291
57962W        W24745  10.066  22.845   0.397
57963W        W24746  21.803  16.582   2.785
57964W        W24747   7.319  27.487   3.287
57965W        W24748   5.251  23.566   3.649
57966W        W24749  29.903  11.156  10.790
57967W        W24750   1.440  18.047  14.898
57968W        W24751  14.893  43.366   2.257
57969W        W24752  44.157  37.565  12.060
57970W        W24753   7.180  22.792   1.720
57971W        W24754  34.972  43.803  12.792
57972W        W24755  23.697  12.752  10.582
57973W        W24756  39.759   3.226   3.614
57974W        W24757  38.604  20.326  13.310
57975W        W24758  20.506  20.018  13.987
57976W        W24759   1.832  24.958  12.078
57977W        W24760  20.265  34.976  11.945
57978W        W24761  10.726  24.411   1.298
57979W        W24762  32.629  12.577  12.758
57980W        W24763  44.146  35.489  14.903
57981W        W24764  38.908  15.858  14.213
57982W        W24765  25.261  29.668   9.894
57983W        W24766  44.637  15.572   3.719
57984W        W24767  16.082  13.879   3.840
57985W        W24768   6.609  42.925   1.945
57986W        W24769  35.331  16.711   1.420
57987W        W24770   0.164  28.107  14.919
57988W        W24771  27.153  25.174  13.509
57989W        W24772  14.494  11.936  13.874
57990W        W24773  25.509  16.057   2.294
57991W        W24774  34.514  30.885  11.113
57992W        W24775  29.222  16.667  12.206
57993W        W24776   2.411  36.518  12.751
57994W        W24777  17.543   1.951  14.854
57995W        W24778  23.902  34.503  14.889
57996W        W24779  33.639  27.554  13.058
57997W        W24780  40.943  27.607  12.035
57998W        W24781   9.604  14.374  12.072
57999W        W24782  38.611  39.209  12.002
58000W        W24783  22.588   6.121  14.880
58001W        W24784  12.416  33.891   2.815
58002W        W24785  39.961  18.773  14.589
58003W        W24786  31.427  35.511   2.230
58004W        W24787  17.345  19.196   4.100
58005W        W24788   0.036  24.098  11.251
58006W        W24789  20.672  42.820  14.965
58007W        W24790   1.210  41.109   4.521
58008W        W24791  18.272  32.575  12.622
58009W        W24792  30.115  36.636  14.510
58010W        W24793  11.687   2.248  10.628
58011W        W24794  43.881   1.846  12.645
58012W        W24795   1.259  20.273   4.107
58013W        W24796  25.915   3.740   4.116
58014W        W24797  18.877  43.413   0.234
58015W        W24798  28.543   5.769  13.872
58016W        W24799  12.219  24.216  12.407
58017W        W24800  33.150   2.253  12.786
58018W        W24801  33.133   6.308   5.248
58019W        W24802   6.948  23.653   4.055
58020W        W24803  33.103   4.427   3.687
58021W        W24804   5.306  31.600  13.332
58022W        W24805  30.952   0.435  11.590
58023W        W24806  41.300   7.897  12.155
58024W        W24807  22.781  15.692  10.597
58025W        W24808  23.654   1.823  14.539
58026W        W24809  34.721   7.844   0.492
58027W        W24810  24.098  44.798  13.574
58028W        W24811   2.012  35.808  11.705
58029W        W24812  28.736  18.753   1.206
58030W        W24813   9.207   1.343   3.683
58031W        W24814  18.351  19.671  12.420
58032W        W24815  40.499  34.517  12.412
58033W        W24816  32.866   8.300   4.513
58034W        W24817   1.893   9.281   4.494
58035W        W24818  44.933  28.492  12.548
58036W        W24819  35.741  13.276   4.883
58037W        W24820   8.485  22.515   4.572
58038W        W24821  18.487  22.562  10.280
58039W        W24822   2.416  16.215  13.060
58040W        W24823   2.467  13.567  10.619
58041W        W24824  44.013  26.631   3.222
58042W        W24825  30.010  38.787   1.939
58043W        W24826  20.003  35.143  10.708
58044W        W24827   8.455  37.817   0.878
58045W        W24828  41.168  19.427  13.072
58046W        W24829  43.814  42.876   3.173
58047W        W24830  20.361  38.968   0.911
58048W        W24831  15.016  10.647   0.874
58049W        W24832  20.789  36.565   1.910
58050W        W24833  43.334   6.637   2.750
58051W        W24834  16.595  27.008   4.805
58052W        W24835  21.631   1.029   0.479
58053W        W24836  22.556  35.270  13.884
58054W        W24837  36.909  14.646   4.317
58055W        W24838  15.386   0.754   3.337
58056W        W24839  37.489   9.270  12.476
58057W        W24840  11.814  28.717   1.881
58058W        W24841  30.036  42.942  13.803
58059W        W24842  24.189  14.352  14.353
58060W        W24843  38.699   6.030   0.371
58061W        W24844   4.824  17.772   2.771
58062W        W24845  15.311   2.950  11.456
58063W        W24846  21.939  18.808  13.363
58064W        W24847  14.775  11.148   3.834
58065W        W24848   6.575  11.183   2.484
58066W        W24849   7.311  24.202   0.918
58067W        W24850  16.104  35.068  13.370
58068W        W24851  13.121  14.579  13.967
58069W        W24852   6.313  21.773   1.603
58070W        W24853   1.090   6.254   2.189
58071W        W24854  25.938  31.883   2.335
58072W        W24855  32.411  12.697   3.666
58073W        W24856  14.031  41.822   1.371
58074W        W24857  18.355  26.208  14.177
58075W        W24858  12.316  25.537   2.892
58076W        W24859  33.150  27.087  12.522
58077W        W24860  34.841   0.598  12.551
58078W        W24861   6.062  23.380   4.689
58079W        W24862  19.817  22.301   3.287
58080W        W24863   6.196   0.790   1.861
58081W        W24864  24.198  43.229  10.918
58082W        W24865  31.354  22.511   1.672
58083W        W24866  25.030   9.780   3.285
58084W        W24867  10.939  38.795   3.689
58085W        W24868  33.576  12.551  14.238
58086W        W24869  13.619  17.097   3.681
58087W        W24870   1.021  10.365  13.577
58088W        W24871   9.422  23.521  12.066
58089W        W24872  36.606  30.488  14.994
58090W        W24873  28.628  25.696  12.867
58091W        W24874  10.075  38.886   1.476
58092W        W24875  34.972  38.128  14.767
58093W        W24876  10.665  17.077   3.559
58094W        W24877  44.972  34.919  12.019
58095W        W24878  28.169  33.820   4.576
58096W        W24879  23.196   7.349  11.592
58097W        W24880  35.241  14.995   0.362
58098W        W24881  10.184  19.738   1.311
58099W        W24882  31.437  28.733   3.429
58100W        W24883  33.109  22.160  10.420
58101W        W24884  10.428  27.017   2.863
58102W        W24885  29.724  13.210  14.088
58103W        W24886  32.318  41.797  14.813
58104W        W24887  28.049   3.526   1.221
58105W        W24888  30.357   8.090  12.797
58106W        W24889  44.211  18.125   2.302
58107W        W24890  22.048   9.111  12.885
58108W        W24891  25.642  20.101   1.235
58109W        W24892  29.113  12.647  14.313
58110W        W24893  14.579  18.262   3.245
58111W        W24894   9.153  32.138   1.388
58112W        W24895  22.662  36.274  14.001
58113W        W24896  11.303  27.347   4.193
58114W        W24897  12.026  12.708  13.196
58115W        W24898   0.137  10.851  11.170
58116W        W24899  28.033  14.323   4.832
58117W        W24900  39.540   5.246  13.759
58118W        W24901  38.096  20.104   2.927
58119W        W24902  13.598   6.898  14.451
58120W        W24903  35.395  23.953   0.303
58121W        W24904  10.761   1.822  14.547
58122W        W24905  33.503  15.334   3.637
58123W        W24906  26.194  38.077  11.823
58124W        W24907  11.114  15.220   2.067
58125W        W24908   7.350  44.864  12.577
58126W        W24909   9.093  28.831   2.825
58127W        W24910  23.252  37.831   1.075
58128W        W24911  25.863  12.229   0.475
58129W        W24912  25.458   6.573  13.874
58130W        W24913  27.133  11.061   3.114
58131W        W24914   7.320   1.764  13.025
58132W        W24915  31.443   9.237  14.846
58133W        W24916  41.043  37.987   2.052
58134W        W24917  41.324  37.892  11.057
58135W        W24918  39.764  39.866  12.520
58136W        W24919   6.171   2.843  13.854
58137W        W24920  38.486   4.822   1.388
58138W        W24921   7.672   0.918  12.577
58139W        W24922   7.429  18.643   0.859
58140W        W24923   9.164  39.908  13.881
58141W        W24924   8.458  24.476  14.784
58142W        W24925  10.224  40.405  14.277
58143W        W24926  42.490  31.231   1.393
58144W        W24927   5.766  39.413  11.332
58145W        W24928   9.878  16.792  10.418
58146W        W24929  39.517  13.255  11.559
58147W        W24930  18.093  30.007  10.840
58148W        W24931  10.290  16.103   0.866
58149W        W24932  28.222  28.923   2.772
58150W        W24933  41.536  11.550  12.371
58151W        W24934  37.515   6.745  12.916
58152W        W24935  38.920   9.422  12.018
58153W        W24936  44.071   7.077  12.597
58154W        W24937  21.718  29.840   1.620
58155W        W24938  30.791  33.174   3.101
58156W        W24939  19.218  24.999   1.962
58157W        W24940  22.062   6.953   4.169
58158W        W24941  10.152   8.313   2.664
58159W        W24942   3.366  12.261  11.878
58160W        W24943  19.831   9.386  12.047
58161W        W24944  25.072  24.682  12.916
58162W        W24945  14.149  34.020  11.902
58163W        W24946  37.069  14.290   2.975
58164W        W24947   0.803  18.791   0.867
58165W        W24948  40.345   0.756   0.768
58166W        W24949  12.803  29.463  14.478
58167W        W24950   9.349  15.305   1.174
58168W        W24951  22.679  26.428   1.168
58169W        W24952   9.558  11.363   2.601
58170W        W24953  21.610  29.614  13.112
58171W        W24954   3.157  43.964   3.652
58172W        W24955  11.831  21.104   1.822
58173W        W24956   1.821  20.999   3.998
58174W        W24957  12.889   2.799   2.750
58175W        W24958  28.967  33.281  11.158
58176W        W24959  13.148  30.624  11.560
58177W        W24960  31.139   6.923   0.273
58178W        W24961  44.404  41.422  14.563
58179W        W24962   1.420   5.008  14.343
58180W        W24963  29.528  43.043  12.152
58181W        W24964   8.728   8.422   0.148
58182W        W24965   2.209  14.558  11.021
58183W        W24966  17.589  25.774   3.227
58184W        W24967  36.143   5.272   2.024
58185W        W24968  19.855  42.620  11.605
58186W        W24969   6.923  44.043   4.563
58187W        W24970  21.461  36.455   0.393
58188W        W24971   2.786   3.387  14.481
58189W        W24972  32.083  32.601  11.550
58190W        W24973  34.447  34.448   0.533
58191W        W24974  23.142   4.955   3.146
58192W        W24975  39.592  35.759   3.689
58193W        W24976  12.245   7.236   5.347
58194W        W24977   1.861  43.041   0.340
58195W        W24978  39.882  40.057   3.726
58196W        W24979  11.338  35.086   2.766
58197W        W24980  26.144   0.809  12.104
58198W        W24981  31.474  28.382   3.811
58199W        W24982  44.544  30.191  12.435
58200W        W24983   0.038  38.478  12.634
58201W        W24984  37.945  37.596  12.644
58202W        W24985  36.406  25.099  12.944
58203W        W24986   0.688  32.904   4.282
58204W        W24987  33.443   3.461  10.652
58205W        W24988  32.701   7.820  13.001
58206W        W24989   2.918  33.520   3.602
58207W        W24990  30.200   2.245   2.266
58208W        W24991  20.707  37.710   4.100
58209W        W24992   1.949  24.781   0.233
58210W        W24993  24.583  11.764  14.747
58211W        W24994  13.016  38.663   2.402
58212W        W24995  38.069  14.632   0.843
58213W        W24996  20.498  40.999   3.634
58214W        W24997  34.339   8.810   4.556
58215W        W24998  31.961  26.104   4.165
58216W        W24999  34.662  12.322   1.494
58217W        W25000  20.486  43.019  13.950
58218W        W25001   1.002  15.632   2.190
58219W        W25002   5.653  39.652  11.780
58220W        W25003  32.475  18.485   1.138
58221W        W25004   9.861  21.399   0.976
58222W        W25005  34.379  44.065  11.635
58223W        W25006  29.477  32.336   3.653
58224W        W25007  16.699   5.220  12.608
58225W        W25008  43.502   6.299   4.137
58226W        W25009  32.968  11.112   2.663
58227W        W25010  40.783  32.578   2.210
58228W        W25011  29.751  29.081  14.420
58229W        W25012  37.099  17.306  13.300
58230W        W25013  11.321   4.172   1.744
58231W        W25014  33.304  18.880  14.807
58232W        W25015  21.630   7.468   1.416
58233W        W25016  35.912  12.664   0.368
58234W        W25017  13.905  13.804  14.954
58235W        W25018   4.259   8.816   1.272
58236W        W25019  27.187  33.729  10.148
58237W        W25020   3.173   8.791  14.862
58238W        W25021  35.184  22.806   3.681
58239W        W25022   1.172   2.294   0.345
58240W        W25023  22.623  44.340   3.115
58241W        W25024   3.252   5.003  14.289
58242W        W25025  41.724  15.596   2.318
58243W        W25026  41.965  10.834   3.591
58244W        W25027  26.711   3.038  14.759
58245W        W25028  19.092   8.906   1.465
58246W        W25029  30.845  26.422  12.644
58247W        W25030  12.846  32.579  12.724
58248W        W25031  37.480  16.613  13.015
58249W        W25032  30.542  24.035   0.774
58250W        W25033  15.952  42.485   4.996
58251W        W25034  40.432   3.277  14.537
58252W        W25035  15.057   4.491   4.276
58253W        W25036  13.130   7.295   1.641
58254W        W25037   2.763  11.850  14.178
58255W        W25038  40.748  22.041   0.448
58256W        W25039   1.242  25.244   1.453
58257W        W25040  44.907  40.113   3.296
58258W        W25041  33.302  43.361   4.103
58259W        W25042  10.375  39.610   4.202
58260W        W25043  15.851  10.616   1.839
58261W        W25044   2.157   2.779  11.296
58262W        W25045   0.116  12.648  11.183
58263W        W25046  43.992  28.541   3.440
58264W        W25047  12.883  31.794   1.577
58265W        W25048  21.536  17.582   0.018
58266W        W25049  31.412  28.050   1.023
58267W        W25050  42.346   0.007  14.882
58268W        W25051   0.644  35.971  11.992
58269W        W25052   2.818  36.808  12.535
58270W        W25053  43.265  25.774   3.072
58271W        W25054  35.080  17.754   3.245
58272W        W25055  35.975  37.877  14.481
58273W        W25056  28.364  20.138  13.800
58274W        W25057  17.928  39.338   4.271
58275W        W25058  26.556   7.315  12.073
58276W        W25059  25.287  43.590  13.973
58277W        W25060  31.504  36.417   1.724
58278W        W25061  14.812  44.808  11.919
58279W        W25062  43.820  13.050   2.608
58280W        W25063  24.277  15.761   0.251
58281W        W25064  31.734  29.381   2.157
58282W        W25065  43.177  24.253  14.835
58283W        W25066  35.917  44.412  11.856
58284W        W25067  34.394  41.432  13.657
58285W        W25068  44.967  20.179   1.002
58286W        W25069   5.226  38.576   4.621
58287W        W25070   8.343  34.471  14.412
58288W        W25071   0.024  36.109   0.890
58289W        W25072  19.927  12.081  14.287
58290W        W25073   6.812  27.979  14.343
58291W        W25074  14.356  42.414   2.234
58292W        W25075   2.289  30.505  10.750
58293W        W25076   5.715   8.611   4.986
58294W        W25077   8.669  21.496   3.129
58295W        W25078  30.428  34.655   4.439
58296W        W25079  14.774  23.152  14.473
58297W        W25080  43.371  18.494  11.495
58298W        W25081   2.162  13.545  13.009
58299W        W25082  33.177  39.850  13.774
58300W        W25083   8.885  42.985   3.607
58301W        W25084   7.956  39.546  14.966
58302W        W25085  15.379  31.514  13.432
58303W        W25086  26.596  42.609   4.100
58304W        W25087  30.042  39.421   0.414
58305W        W25088  37.867  41.510   1.683
58306W        W25089  42.061  35.648  12.379
58307W        W25090   8.349   4.350   4.569
58308W        W25091  36.525  20.374  12.091
58309W        W25092  17.133  29.397  12.631
58310W        W25093  35.419  19.288   2.781
58311W        W25094  39.068   8.516   1.657
58312W        W25095  12.186  36.324   4.889
58313W        W25096  39.452   6.865  11.562
58314W        W25097  39.012  32.058   9.892
58315W        W25098  21.641  15.599   4.536
58316W        W25099  14.409   2.985   1.809
58317W        W25100  14.546   8.405   3.321
58318W        W25101   0.899  23.468  14.383
58319W        W25102  41.000   5.071  12.003
58320W        W25103  13.840  34.502  14.145
58321W        W25104  15.711  39.033  11.668
58322W        W25105   2.383  35.836   4.014
58323W        W25106  15.839  28.393   1.364
58324W        W25107  18.838  42.292  12.402
58325W        W25108  28.215   1.693  13.790
58326W        W25109  44.243  18.766   2.867
58327W        W25110  38.827  33.144   0.879
58328W        W25111  40.764  16.413   2.243
58329W        W25112  30.996  40.629  11.055
58330W        W25113   5.971  43.813  11.174
58331W        W25114  17.736  23.410   0.263
58332W        W25115   8.395  34.648  10.713
58333W        W25116   4.622  21.125  13.422
58334W        W25117  34.379  40.220  13.943
58335W        W25118  33.389   4.387   4.144
58336W        W25119  27.194  41.001   1.300
58337W        W25120   6.682  17.668   0.524
58338W        W25121  44.557  34.474   1.654
58339W        W25122  21.569  19.572   3.589
58340W        W25123   8.318  26.263   1.013
58341W        W25124  21.155  33.542   1.640
58342W        W25125  37.038  37.924   2.692
58343W        W25126  39.220   3.158   2.911
58344W        W25127   6.348  21.800  13.065
58345W        W25128  13.871  23.320  11.199
58346W        W25129  42.866  40.039  12.935
58347W        W25130  39.801  28.902   1.700
58348W        W25131  15.552  25.590   0.919
58349W        W25132  30.177  24.015  12.526
58350W        W25133  25.642  41.996   0.887
58351W        W25134  14.551  35.342   3.769
58352W        W25135  26.449   8.087   4.129
58353W        W25136  22.728  30.265   2.877
58354W        W25137  13.310  39.404   3.879
58355W        W25138  14.358  44.261   3.618
58356W        W25139  43.804  35.666   4.109
58357W        W25140   3.436   7.436   3.308
58358W        W25141  30.999  30.329   1.278
58359W        W25142  31.046  19.383  10.189
58360W        W25143  24.396  36.403   1.193
58361W        W25144  10.602   5.463  14.326
58362W        W25145  35.489  19.660   3.724
58363W        W25146   8.606  10.319  10.722
58364W        W25147  27.671  13.113  12.442
58365W        W25148   9.674  31.926   2.128
58366W        W25149  35.545  29.334  13.473
58367W        W25150  28.673  20.557   1.741
58368W        W25151  15.646  20.337   4.086
58369W        W25152  35.449   6.350   1.682
58370W        W25153  41.584  32.271  14.540
58371W        W25154   7.378   5.690  11.044
58372W        W25155   9.603   4.892  10.214
58373W        W25156  32.329   3.286   4.570
58374W        W25157   2.144  28.076  14.820
58375W        W25158  13.677  37.989  13.933
58376W        W25159  16.104   6.171  13.122
58377W        W25160  17.358  34.977  14.598
58378W        W25161  24.372  29.663  10.203
58379W        W25162  15.985   0.638  10.126
58380W        W25163  20.085  33.847  13.818
58381W        W25164   6.651  31.861   4.071
58382W        W25165  20.504  24.386   2.346
58383W        W25166  43.672  30.159   4.965
58384W        W25167  36.375  18.820   1.919
58385W        W25168  30.470  34.937   1.257
58386W        W25169  44.215  13.820  12.502
58387W        W25170  25.120  20.915   5.041
58388W        W25171  42.952  13.618  14.081
58389W        W25172  36.916  26.176   4.238
58390W        W25173  29.706  44.699   0.575
58391W        W25174  28.925  28.211  11.693
58392W        W25175   2.771  24.008   1.247
58393W        W25176  15.285   6.626   3.240
58394W        W25177  44.387  22.742  11.452
58395W        W25178   8.851  34.847  12.023
58396W        W25179  31.924  31.215  11.182
58397W        W25180  18.377  11.435   0.212
58398W        W25181  25.125  26.617  12.317
58399W        W25182  10.733  38.917  10.388
58400W        W25183  35.273  29.000  13.931
58401W        W25184  12.857  39.364  13.918
58402W        W25185  16.355  38.341  10.274
58403W        W25186  35.827   3.211   0.670
58404W        W25187  44.591   2.986  12.939
58405W        W25188  13.245  32.734   1.970
58406W        W25189  35.300  36.578   4.028
58407W        W25190  31.631   3.966   1.609
58408W        W25191  20.773  39.396   2.079
58409W        W25192  22.200  16.022   0.243
58410W        W25193  27.707   4.440   4.800
58411W        W25194  24.049   7.311   4.428
58412W        W25195  38.561   0.506  11.965
58413W        W25196  27.615  23.043  11.926
58414W        W25197   6.278   0.841  12.470
58415W        W25198  14.046  40.781  11.625
58416W        W25199   1.910  11.532   2.157
58417W        W25200  11.067  26.671   1.565
58418W        W25201  44.902   7.202  10.782
58419W        W25202  17.052  34.904   0.459
58420W        W25203   1.968  42.881  12.400
58421W        W25204  20.801  30.226   3.844
58422W        W25205  17.561  19.339   2.197
58423W        W25206  16.147   2.795   3.726
58424W        W25207  37.515   7.126  11.692
58425W        W25208  14.663  20.180   2.427
58426W        W25209   9.177   1.829   1.523
58427W        W25210  29.489  44.018  11.953
58428W        W25211  25.464  15.919   5.112
58429W        W25212   9.035   5.255   2.756
58430W        W25213  12.565   8.650   1.707
58431W        W25214  37.242   6.445   3.161
58432W        W25215  26.559  38.891   5.384
58433W        W25216  29.733   9.775   0.929
58434W        W25217  16.380  10.859   3.770
58435W        W25218  34.467   0.910  11.624
58436W        W25219  10.377   5.275  11.461
58437W        W25220  16.103   8.998  11.412
58438W        W25221  38.339  22.302   0.331
58439W        W25222  14.206   1.341  13.562
58440W        W25223  25.752  34.834   0.507
58441W        W25224  43.929   2.443   1.860
58442W        W25225  32.770  39.591  11.149
58443W        W25226  31.307  16.110  13.127
58444W        W25227   1.151   5.263   2.647
58445W        W25228  44.007   8.127  12.787
58446W        W25229   7.977  21.927  14.967
58447W        W25230  28.617  38.775   2.007
58448W        W25231  21.491  37.640  13.904
58449W        W25232   3.558  24.032  11.226
58450W        W25233  18.345   4.704  11.612
58451W        W25234   8.244   6.667   1.823
58452W        W25235  27.521   8.345  10.589
58453W        W25236  14.381   2.960  14.764
58454W        W25237  16.157  21.078  14.248
58455W        W25238   3.230  33.170   0.704
58456W        W25239  23.763  22.837  11.495
58457W        W25240  44.584  43.316  10.290
58458W        W25241  40.085  13.627   2.787
58459W        W25242   9.848  28.448   0.955
58460W        W25243   7.545  35.972  10.911
58461W        W25244  22.673   5.712  11.870
58462W        W25245  27.163  43.101  10.213
58463W        W25246  37.173  28.678  11.626
58464W        W25247  20.086  21.399  12.005
58465W        W25248  20.744  18.702   3.159
58466W        W25249  42.372  31.553  13.486
58467W        W25250  39.427  22.490  11.727
58468W        W25251   5.926  25.516  12.631
58469W        W25252  28.221  26.282   5.026
58470W        W25253  18.818  13.641   4.543
58471W        W25254  30.991  22.327   1.319
58472W        W25255  15.911  19.657  10.585
58473W        W25256  20.715  14.998  14.908
58474W        W25257   0.370  43.930   0.242
58475W        W25258  14.080  22.766   2.649
58476W        W25259  32.176  14.144   2.765
58477W        W25260  39.765   7.822  10.142
58478W        W25261  17.395   5.140   3.644
58479W        W25262   4.718  20.109  14.869
58480W        W25263  43.957   5.295  14.731
58481W        W25264   5.460  20.374   2.272
58482W        W25265  44.040  16.962  13.343
58483W        W25266  26.450   1.873  10.543
58484W        W25267  22.685  23.134   0.011
58485W        W25268  11.654   2.383  11.560
58486W        W25269   2.014  30.357  11.685
58487W        W25270  15.682  14.367  11.525
58488W        W25271  17.530  37.468   2.774
58489W        W25272  37.081  44.046  13.379
58490W        W25273   5.632  15.170  12.536
58491W        W25274  31.462  14.312  14.965
58492W        W25275  34.488   9.735  14.758
58493W        W25276   3.922  32.635  12.583
58494W        W25277  37.895  28.383   0.937
58495W        W25278  11.320  17.708   3.608
58496W        W25279  44.703  41.503   0.537
58497W        W25280   6.815  14.809   1.259
58498W        W25281  11.809  22.036  11.363
58499W        W25282  28.068  41.839  13.624
58500W        W25283   8.989  22.282  14.819
58501W        W25284   9.550  34.958   3.826
58502W        W25285  30.657  13.594   0.076
58503W        W25286  29.525  36.833  13.870
58504W        W25287  17.515  44.714   3.164
58505W        W25288  31.543  44.655   1.287
58506W        W25289  10.289  41.338   4.729
58507W        W25290  42.460  35.489  12.071
58508W        W25291  41.809  23.812   2.756
58509W        W25292  41.437   7.718  13.980
58510W        W25293   3.259  29.902  10.636
58511W        W25294  44.307  30.540  12.117
58512W        W25295   3.473  27.173   0.937
58513W        W25296  41.321  39.904  14.575
58514W        W25297  17.384   1.680   4.248
58515W        W25298  39.296   1.256   0.725
58516W        W25299  40.345  21.161   0.414
58517W        W25300  44.974  13.630  10.837
58518W        W25301  26.955   3.696  12.332
58519W        W25302  18.694  25.755  13.361
58520W        W25303   3.267  16.805   2.682
58521W        W25304  44.663  25.429  11.183
58522W        W25305  15.706  18.543  13.521
58523W        W25306  22.224  22.501   4.073
58524W        W25307  30.486  23.630  10.994
58525W        W25308  30.465   2.355   1.796
58526W        W25309  10.239   0.441   4.550
58527W        W25310  37.557  13.577   2.778
58528W        W25311  11.631   0.507  11.076
58529W        W25312  33.986   2.542  12.155
58530W        W25313  34.046  17.077   1.781
58531W        W25314   9.221  42.725   2.080
58532W        W25315   4.816   8.018  14.595
58533W        W25316  20.642   9.469  13.060
58534W        W25317  44.805  32.341   0.923
58535W        W25318   5.312  30.965  14.681
58536W        W25319  33.708  31.566  14.307
58537W        W25320  35.036  14.041   0.059
58538W        W25321  27.833  36.023   0.764
58539W        W25322  27.335  38.645   4.171
58540W        W25323  34.206  27.190  12.489
58541W        W25324  23.619   1.201   3.709
58542W        W25325  38.118  38.553   0.112
58543W        W25326   7.832   9.648  13.792
58544W        W25327   5.917  32.278   1.075
58545W        W25328  44.462  28.612  12.417
58546W        W25329  15.408   2.285  11.219
58547W        W25330   3.754  24.694   1.760
58548W        W25331  29.984   5.872   0.350
58549W        W25332  28.551   6.220   2.032
58550W        W25333  42.863   4.625   3.310
58551W        W25334  33.592  10.280   4.760
58552W        W25335  15.005   6.114  10.996
58553W        W25336  39.257  19.069  13.059
58554W        W25337  44.742  29.742   0.345
58555W        W25338  31.110  34.089  10.538
58556W        W25339  28.380  21.225   1.840
58557W        W25340  25.365  22.446   4.183
58558W        W25341  23.488  44.200  13.468
58559W        W25342  30.040  17.215  12.254
58560W        W25343  10.214  16.340   2.907
58561W        W25344   7.575  44.280   2.742
58562W        W25345   5.615  21.063   1.400
58563W        W25346   8.679  20.391   2.220
58564W        W25347  23.534  23.425  13.981
58565W        W25348  33.567  44.348   1.849
58566W        W25349  21.661   6.725   0.826
58567W        W25350   5.713   1.964   3.346
58568W        W25351   0.377  14.928  10.690
58569W        W25352  22.092   5.238  13.625
58570W        W25353  30.416   6.944   0.914
58571W        W25354   5.324  20.795   4.402
58572W        W25355  15.146  29.486  14.796
58573W        W25356  40.383  19.731   2.666
58574W        W25357   2.840  41.937  10.501
58575W        W25358  40.799  43.801  10.722
58576W        W25359  41.969  44.468   3.197
58577W        W25360   0.385  40.341   0.823
58578W        W25361   8.594   1.901  11.451
58579W        W25362  16.854  34.428   0.442
58580W        W25363  16.927  28.146  10.526
58581W        W25364  38.428  39.844  12.598
58582W        W25365  17.497  10.382  14.001
58583W        W25366   1.393   8.613  14.998
58584W        W25367  20.970  26.139  12.472
58585W        W25368  32.999  41.311  11.506
58586W        W25369  16.819  17.541  14.817
58587W        W25370  31.595  18.686   1.862
58588W        W25371  16.641   1.480  11.533
58589W        W25372  34.822  25.738  12.911
58590W        W25373   7.356  11.573  14.430
58591W        W25374  24.235  17.982   3.718
58592W        W25375  15.683  13.729  10.721
58593W        W25376  25.887  42.221   0.271
58594W        W25377  31.422   0.605  14.727
58595W        W25378  26.086  13.599   1.457
58596W        W25379   9.847  43.405  12.121
58597W        W25380  32.117  14.376   0.347
58598W        W25381  25.235  14.779   4.995
58599W        W25382  25.062  11.812  11.052
58600W        W25383  33.756  32.113  14.419
58601W        W25384  25.123  40.011  14.441
58602W        W25385  30.008   0.210  13.139
58603W        W25386  23.123   3.236   1.821
58604W        W25387  29.281  13.138   4.962
58605W        W25388  42.718  32.221   1.491
58606W        W25389   0.487  32.744  14.197
58607W        W25390  28.188  18.091   1.822
58608W        W25391  39.845   1.126  10.809
58609W        W25392  16.081  21.131  14.741
58610W        W25393   0.368   1.668  11.960
58611W        W25394  30.374  23.942  12.066
58612W        W25395  25.432  19.227  11.201
58613W        W25396  38.417  18.698   2.537
58614W        W25397   4.793  27.302   1.335
58615W        W25398   5.859  14.303  12.441
58616W        W25399   5.828   7.664  13.836
58617W        W25400  37.982  16.039  13.773
58618W        W25401   2.924   6.714  14.010
58619W        W25402   4.891  15.586   0.362
58620W        W25403  29.160  34.011  13.065
58621W        W25404  23.041   9.732   2.406
58622W        W25405   2.344  41.953  10.663
58623W        W25406  19.222  16.234  12.302
58624W        W25407  36.842  11.251   2.882
58625W        W25408   8.353  43.841   2.778
58626W        W25409   6.924  10.924  14.872
58627W        W25410  17.136  37.944   3.677
58628W        W25411  26.581  21.226   4.106
58629W        W25412  20.282   9.463  14.841
58630W        W25413  31.065   9.383   0.399
58631W        W25414  43.282  13.751  14.770
58632W        W25415   3.415  14.415   0.300
58633W        W25416  42.306  42.557  13.747
58634W        W25417  10.712   0.966   1.621
58635W        W25418  34.168  12.476   3.205
58636W        W25419   2.260  19.153   3.145
58637W        W25420  44.420   9.891  12.583
58638W        W25421  27.635  41.215  13.999
58639W        W25422  36.759  33.964  10.644
58640W        W25423   3.752  15.811   0.240
58641W        W25424  27.047  23.005   9.890
58642W        W25425  10.343  41.864   4.712
58643W        W25426  24.126  25.602  12.927
58644W        W25427  43.465  34.884  11.381
58645W        W25428  41.780   3.011  12.195
58646W        W25429  22.456  43.887   2.929
58647W        W25430  31.638  10.698  14.261
58648W        W25431  27.041  25.829  11.289
58649W        W25432  37.786  34.912  10.233
58650W        W25433  21.598   9.389  13.026
58651W        W25434  33.686  25.057  12.148
58652W        W25435  26.797  34.033  12.622
58653W        W25436  18.877  23.257   4.109
58654W        W25437  36.023  23.787   3.322
58655W        W25438  13.800  22.652   4.514
58656W        W25439  24.211  19.557  13.623
58657W        W25440  16.574  41.927   0.513
58658W        W25441  17.967   2.355  12.405
58659W        W25442  18.184  37.033   0.410
58660W        W25443  26.478  24.851  14.277
58661W        W25444   1.839  39.998   3.412
58662W        W25445  32.871   4.424   4.136
58663W        W25446  32.583  15.362  13.038
58664W        W25447  41.268  25.225   4.071
58665W        W25448   3.521  16.647  12.567
58666W        W25449  37.454   0.592  14.534
58667W        W25450  14.082  31.040   3.715
58668W        W25451  26.161  27.244  12.467
58669W        W25452  34.857  21.788  11.563
58670W        W25453  42.030  10.147  11.567
58671W        W25454  34.189  16.211  14.088
58672W        W25455  39.542   7.904   4.526
58673W        W25456  27.996  10.087  13.116
58674W        W25457   1.734  13.133  11.290
58675W        W25458  37.053  17.714   2.774
58676W        W25459   1.203  10.677   1.686
58677W        W25460  41.703  33.340   1.837
58678W        W25461  43.988  44.877  13.383
58679W        W25462  11.670  11.968  10.599
58680W        W25463   6.520   0.069   2.368
58681W        W25464   0.969   9.259  11.731
58682W        W25465  11.177  24.531   3.277
58683W        W25466  32.305  40.035  11.929
58684W        W25467  31.259  35.453  11.566
58685W        W25468  28.209  26.973   2.305
58686W        W25469  44.940  32.113  10.908
58687W        W25470  26.009  24.294  13.773
58688W        W25471   6.613   0.704  11.147
58689W        W25472  18.417  12.154   4.058
58690W        W25473  42.290  30.745  13.079
58691W        W25474  14.704   5.970  13.133
58692W        W25475   7.415  17.089   3.565
58693W        W25476  11.430  15.104   2.910
58694W        W25477  35.840  21.706   3.341
58695W        W25478  31.029  24.214  14.439
58696W        W25479  42.699  14.828  12.993
58697W        W25480  12.268  15.785  13.562
58698W        W25481  42.790  40.079  14.017
58699W        W25482  32.382   5.913   2.194
58700W        W25483  35.035  44.866   9.883
58701W        W25484   8.789  25.103  10.489
58702W        W25485  44.975  11.155   4.528
58703W        W25486  28.523  32.292   2.765
58704W        W25487  15.524   3.321  10.740
58705W        W25488  29.477  25.919   4.548
58706W        W25489   8.078  33.046  14.556
58707W        W25490  10.965  32.890  11.629
58708W        W25491  40.734  27.882  13.940
58709W        W25492  37.965   4.908   1.465
58710W        W25493  35.479  13.168  13.959
58711W        W25494  38.032  14.851   3.623
58712W        W25495  44.427  17.344  13.353
58713W        W25496  15.920  15.098   4.350
58714W        W25497  19.906  39.487  10.761
58715W        W25498  16.522  39.794   2.822
58716W        W25499  28.669   1.824  10.371
58717W        W25500  36.040  32.403   0.454
58718W        W25501  41.976  43.288   4.378
58719W        W25502   1.682  39.499   3.553
58720W        W25503   1.808  33.607   0.995
58721W        W25504  12.308  27.626   3.739
58722W        W25505  25.210   5.790   1.474
58723W        W25506  20.967  27.454  11.405
58724W        W25507  10.903  20.965   4.623
58725W        W25508  28.056  26.083  13.661
58726W        W25509  35.846  26.116   4.300
58727W        W25510  14.584  13.409   3.617
58728W        W25511  34.362   9.318   0.763
58729W        W25512  41.513  28.913  12.594
58730W        W25513  32.724  24.683   1.470
58731W        W25514  36.637  17.563  13.784
58732W        W25515  42.126  14.817  12.451
58733W        W25516   5.672  29.071   2.604
58734W        W25517   6.018   8.724   4.521
58735W        W25518  41.552  42.648  11.538
58736W        W25519  10.579  14.216  14.388
58737W        W25520  27.699  13.246   3.862
58738W        W25521  26.722   7.613  14.478
58739W        W25522  14.346  33.090   4.576
58740W        W25523  29.302  21.346   5.331
58741W        W25524   3.367  34.076  13.368
58742W        W25525  30.061  12.338  11.377
58743W        W25526   3.405  43.900  11.405
58744W        W25527  43.095   4.784  13.885
58745W        W25528  18.605  36.318  13.469
58746W        W25529  16.351   2.281  11.111
58747W        W25530  34.551   1.281   3.633
58748W        W25531  43.615  31.739   0.655
58749W        W25532  32.523  10.287  13.890
58750W        W25533  26.587  32.916  13.888
58751W        W25534  18.492  23.519  13.141
58752W        W25535  30.194  25.627  12.913
58753W        W25536  28.712   8.744   2.682
58754W        W25537  39.838  31.626  11.325
58755W        W25538  31.458  23.578  12.022
58756W        W25539  20.019   9.287   3.042
58757W        W25540   4.836  36.739   3.396
58758W        W25541  28.522  44.722   4.354
58759W        W25542  26.739  43.388  10.171
58760W        W25543  22.717  33.446   2.291
58761W        W25544  17.762  13.622   3.768
58762W        W25545   9.705  37.901  12.636
58763W        W25546  11.971  24.619  13.291
58764W        W25547  18.548  34.367  12.528
58765W        W25548  18.279  18.583   3.217
58766W        W25549  37.804  13.871  12.407
58767W        W25550  35.172  10.929  11.121
58768W        W25551  36.882   2.909  11.671
58769W        W25552  19.611  42.763  14.088
58770W        W25553  26.549  31.983  14.105
58771W        W25554   2.694  40.778   1.794
58772W        W25555  24.466  10.116  11.094
58773W        W25556  13.396  39.511  11.935
58774W        W25557  25.724   9.712  10.713
58775W        W25558  23.278   3.314   2.670
58776W        W25559  12.879  39.444  11.042
58777W        W25560  35.369  24.445  11.920
58778W        W25561   6.165   0.893   2.728
58779W        W25562  19.592  19.296  14.873
58780W        W25563   0.804  41.849   0.172
58781W        W25564  33.086   8.860   3.124
58782W        W25565  12.210  34.444  11.659
58783W        W25566  20.662  23.753  14.422
58784W        W25567  10.167  42.145  12.921
58785W        W25568  19.324  38.939   0.835
58786W        W25569  14.656   2.258   3.921
58787W        W25570   5.918  25.694  11.569
58788W        W25571  24.611  33.877   2.338
58789W        W25572  40.372  39.336  10.544
58790W        W25573  27.529  43.834   3.593
58791W        W25574  17.864  15.691  13.811
58792W        W25575  29.734  18.513   3.285
58793W        W25576  22.646   8.379  13.822
58794W        W25577  37.728  44.458   3.438
58795W        W25578  31.080  36.437  10.681
58796W        W25579   6.171  27.106  13.932
58797W        W25580  41.848  41.809  11.072
58798W        W25581  38.101  35.097   3.278
58799W        W25582   4.354  16.520   1.231
58800W        W25583  23.551  30.588   2.412
58801W        W25584  42.481  44.489   4.168
58802W        W25585  43.864   4.783  14.857
58803W        W25586  34.058  44.637  14.068
58804W        W25587  20.056  21.392  12.528
58805W        W25588  37.968  27.917  11.601
58806W        W25589  26.495   1.356   3.375
58807W        W25590  26.757  20.589   2.382
58808W        W25591  27.148  39.526   1.492
58809W        W25592  20.284  29.573  11.559
58810W        W25593   7.733  42.987  13.030
58811W        W25594   0.891  44.428  12.364
58812W        W25595  40.095  43.352  12.178
58813W        W25596   0.385  36.606  13.124
58814W        W25597  42.471  30.192  13.441
58815W        W25598  10.107  35.602  11.103
58816W        W25599  31.163  24.542   1.147
58817W        W25600  32.782   0.130  13.973
58818W        W25601  43.455  20.543  12.521
58819W        W25602   7.464  37.347   1.701
58820W        W25603  22.135  18.702  10.581
58821W        W25604  42.152  38.643   3.036
58822W        W25605  20.214  17.721  12.075
58823W        W25606   3.090  15.238   2.920
58824W        W25607  36.073  27.372   1.381
58825W        W25608  19.717  29.165  12.478
58826W        W25609  37.470  27.603   3.316
58827W        W25610  32.611  29.892  12.908
58828W        W25611  33.052  36.003  13.723
58829W        W25612   2.110  41.390  12.351
58830W        W25613  38.051  19.970   1.314
58831W        W25614  12.497  19.199  10.657
58832W        W25615  24.271  40.323   0.037
58833W        W25616  35.606  24.938   1.807
58834W        W25617  28.238  36.133  14.446
58835W        W25618  26.892   7.378  10.594
58836W        W25619  35.338  32.426   1.720
58837W        W25620  16.040  28.450  13.252
58838W        W25621  44.756  42.795   3.623
58839W        W25622  30.683  16.563   1.712
58840W        W25623   5.755  37.269   2.835
58841W        W25624  43.366  32.793  13.482
58842W        W25625  44.764  37.872   4.785
58843W        W25626  33.911   5.451  13.362
58844W        W25627  24.849  19.159   4.987
58845W        W25628  27.204   2.466  12.975
58846W        W25629  13.271   2.965  14.419
58847W        W25630  36.628  43.817  13.276
58848W        W25631  17.655   8.329   0.548
58849W        W25632  15.037  16.317  11.957
58850W        W25633  17.084  14.812   1.258
58851W        W25634   7.237  39.266   3.733
58852W        W25635   7.405  41.583  13.784
58853W        W25636  18.740  41.461   3.615
58854W        W25637  11.205  34.546  11.729
58855W        W25638  19.615   2.591  11.106
58856W        W25639  43.375  37.896  14.042
58857W        W25640  25.210   3.840   0.282
58858W        W25641  32.381  13.648   4.651
58859W        W25642  28.153  39.865   2.831
58860W        W25643   4.153  23.780  11.577
58861W        W25644  27.663  39.106  14.924
58862W        W25645  28.732  24.931  12.105
58863W        W25646  16.598  16.634  13.506
58864W        W25647  42.380  40.042   1.396
58865W        W25648  25.388  31.879   1.455
58866W        W25649  16.605  19.878   4.118
58867W        W25650  37.013  24.677  13.176
58868W        W25651   7.184  15.617  14.730
58869W        W25652  34.017  11.860   2.270
58870W        W25653  39.380  38.297   3.601
58871W        W25654  18.212  18.594   0.191
58872W        W25655  18.166  42.698  10.814
58873W        W25656  18.028   0.379   2.734
58874W        W25657  28.418   2.354  14.387
58875W        W25658   9.353  44.431  10.076
58876W        W25659  28.144   1.334  12.405
58877W        W25660  36.853  19.751  11.549
58878W        W25661  34.886   9.417   5.090
58879W        W25662  27.792  16.792   1.484
58880W        W25663  33.865  16.721  13.529
58881W        W25664  28.001  38.366  13.983
58882W        W25665  21.816  43.364   1.894
58883W        W25666  12.150  38.605   0.923
58884W        W25667   6.868  20.032   2.745
58885W        W25668  11.587   5.729  12.498
58886W        W25669  35.990  19.739   1.362
58887W        W25670  33.920  29.230   1.255
58888W        W25671  25.540   1.220  12.994
58889W        W25672  27.217   0.190   2.820
58890W        W25673  19.144  28.128  13.345
58891W        W25674   5.728   5.031   0.891
58892W        W25675  13.319  20.141   1.183
58893W        W25676   8.854  29.566   0.217
58894W        W25677  13.763  23.640  12.950
58895W        W25678  19.776  14.282  13.909
58896W        W25679  33.668  42.407  11.145
58897W        W25680   6.019  13.753   4.220
58898W        W25681  40.976  10.429  14.409
58899W        W25682  37.761  13.553   4.050
58900W        W25683   5.852   8.137  14.040
58901W        W25684   6.006  15.082   3.286
58902W        W25685  23.509  36.564  14.455
58903W        W25686  38.032  43.958  10.924
58904W        W25687  31.729   9.844  10.046
58905W        W25688  17.522  27.020   2.180
58906W        W25689  32.146  19.120   0.536
58907W        W25690   7.260  27.109   4.565
58908W        W25691  27.951  41.410   1.750
58909W        W25692  27.205  34.008   4.147
58910W        W25693  18.420  35.498  11.619
58911W        W25694  20.250  29.015  14.745
58912W        W25695  38.085  14.480   5.065
58913W        W25696  32.930  43.010  13.442
58914W        W25697  29.559   0.785  13.643
58915W        W25698  22.709  21.914   3.837
58916W        W25699  10.467  34.959   4.758
58917W        W25700  10.416  27.159   0.899
58918W        W25701  11.748  16.709  12.883
58919W        W25702  20.762   5.985  13.432
58920W        W25703  19.985  43.953   2.659
58921W        W25704  31.381   5.727   4.096
58922W        W25705  24.513  29.742   0.423
58923W        W25706  38.951  20.548   1.288
58924W        W25707  29.986  25.138  10.523
58925W        W25708  41.312  11.957  10.654
58926W        W25709  36.110   0.447  11.143
58927W        W25710  36.983  43.252   0.558
58928W        W25711  12.351  16.006   2.754
58929W        W25712  39.841  22.548   1.626
58930W        W25713  42.020  38.197   3.361
58931W        W25714  39.630  12.284  13.005
58932W        W25715  36.239  31.955   4.459
58933W        W25716  42.826  43.593  12.639
58934W        W25717  41.540   3.672  12.545
58935W        W25718  32.126  37.950  10.600
58936W        W25719  39.936  19.189   2.110
58937W        W25720   3.118  29.152   4.813
58938W        W25721   5.081  39.064  11.845
58939W        W25722  38.319  38.752  11.932
58940W        W25723  34.595   2.123   0.199
58941W        W25724   1.280  41.751   0.357
58942W        W25725  39.867  36.569   0.510
58943W        W25726  41.564  33.096   2.799
58944W        W25727   1.722  15.600  14.709
58945W        W25728  33.548   5.633   2.842
58946W        W25729  31.393   7.394  12.083
58947W        W25730   9.374  20.075  13.952
58948W        W25731  33.993  11.049   4.790
58949W        W25732  19.271  34.532   0.342
58950W        W25733  28.260  37.638  11.605
58951W        W25734  38.286  24.119   4.581
58952W        W25735  32.343  42.500  12.731
58953W        W25736  29.211   0.999   0.790
58954W        W25737  25.104  24.987   3.253
58955W        W25738  25.605  20.340   0.738
58956W        W25739  19.070   4.319   4.327
58957W        W25740  21.781  41.566  11.126
58958W        W25741  28.609  17.112   4.350
58959W        W25742  21.117  28.071  11.221
58960W        W25743  14.233   4.006   0.366
58961W        W25744  24.426  26.109   2.684
58962W        W25745  32.841  16.290   1.863
58963W        W25746  44.069  33.796  11.105
58964W        W25747  28.039  37.586  13.515
58965W        W25748   9.241  44.483  13.937
58966W        W25749  19.103  22.387   1.180
58967W        W25750  37.771  28.614  13.510
58968W        W25751  14.731  21.421  12.101
58969W        W25752  43.639   5.931  10.172
58970W        W25753  19.354  25.705  12.193
58971W        W25754   1.081  43.024  14.890
58972W        W25755   7.973  28.641  10.945
58973W        W25756  26.535   4.796   1.346
58974W        W25757  19.356   0.878  13.898
58975W        W25758  13.343  42.527   3.583
58976W        W25759  39.828  25.685   3.704
58977W        W25760  24.495  29.086   4.621
58978W        W25761  32.893   4.862  11.662
58979W        W25762   6.789   0.034  11.703
58980W        W25763  23.212  43.096   3.721
58981W        W25764   3.921  11.454   0.425
58982W        W25765   8.631   9.384  13.711
58983W        W25766  23.053  25.989   5.739
58984W        W25767  32.536  43.516   0.922
58985W        W25768   5.878  19.150   3.596
58986W        W25769  19.026  16.146  12.789
58987W        W25770  24.951  37.413  10.764
58988W        W25771   3.246   0.523   0.816
58989W        W25772  34.444  37.600   4.874
58990W        W25773  37.393   6.351   4.999
58991W        W25774  32.279  43.578   4.226
58992W        W25775  25.555  39.526   1.346
58993W        W25776  17.879  35.078   4.068
58994W        W25777  42.542   6.012   2.243
58995W        W25778  10.763  26.746  11.111
58996W        W25779   7.914  17.624   3.165
58997W        W25780  17.113  22.519   0.863
58998W        W25781  25.706  38.898  14.865
58999W        W25782  23.121  11.890  12.099
59000W        W25783  27.438  10.061  13.849
59001W        W25784   9.950   2.925  12.418
59002W        W25785  18.751  30.770   4.992
59003W        W25786   8.477  32.778  10.906
59004W        W25787  18.353  26.571  13.826
59005W        W25788   3.011  31.437   3.601
59006W        W25789   1.208  41.453  12.564
59007W        W25790  42.478  19.279  11.004
59008W        W25791  38.727  24.368  13.345
59009W        W25792   9.235  38.057   0.366
59010W        W25793  22.828  14.274   2.042
59011W        W25794  19.589  17.881  13.311
59012W        W25795  29.008  37.531  14.459
59013W        W25796  33.437  14.433   4.179
59014W        W25797  17.567   0.874   4.651
59015W        W25798  43.541  19.081  13.917
59016W        W25799  29.832  43.513   4.286
59017W        W25800  22.314  31.333  13.538
59018W        W25801  44.393   1.788   2.157
59019W        W25802  36.561   5.915   4.034
59020W        W25803  40.100  23.217   3.328
59021W        W25804  31.086  17.552  11.578
59022W        W25805   7.361  18.483  14.011
59023W        W25806  27.478  38.909  14.483
59024W        W25807   2.372  22.782   5.074
59025W        W25808  26.092  42.783  10.518
59026W        W25809  35.368  11.405  11.149
59027W        W25810  37.772  10.527  11.741
59028W        W25811  32.766  44.288  13.020
59029W        W25812   3.422  32.025   0.794
59030W        W25813   6.010  20.407   0.367
59031W        W25814   9.446  28.138  11.174
59032W        W25815  38.919  38.463  13.013
59033W        W25816  37.671   7.961   4.088
59034W        W25817  12.339  34.610   0.395
59035W        W25818  29.088  41.830  10.504
59036W        W25819  21.650  39.035  13.735
59037W        W25820  43.293  18.750  12.975
59038W        W25821  29.455  25.464  12.345
59039W        W25822  36.436   2.877  11.445
59040W        W25823  42.502  11.880   0.468
59041W        W25824  13.885  14.341  13.235
59042W        W25825  28.959  35.822  14.867
59043W        W25826  14.689   5.391   0.975
59044W        W25827  15.079  12.797   2.340
59045W        W25828  40.586  13.331   0.745
59046W        W25829  22.003  43.762   0.232
59047W        W25830  27.516  44.223  14.232
59048W        W25831  38.163  23.257   4.513
59049W        W25832  27.681  25.553  11.607
59050W        W25833  14.739   3.847  13.344
59051W        W25834  43.724  39.088  11.160
59052W        W25835  23.267  34.543  13.962
59053W        W25836  23.331   9.458   4.641
59054W        W25837   2.416  35.045  13.816
59055W        W25838   2.685  27.008   1.583
59056W        W25839  21.526  40.435   4.622
59057W        W25840  38.179   1.978  11.526
59058W        W25841   7.370  32.411  11.124
59059W        W25842  13.773   7.689   5.044
59060W        W25843  22.676  28.125  11.050
59061W        W25844  36.789  34.570  14.889
59062W        W25845   7.985   0.328  12.217
59063W        W25846  27.206  22.159  10.473
59064W        W25847  20.926  36.595   3.221
59065W        W25848  38.763  44.980   1.527
59066W        W25849  41.743  34.998  14.818
59067W        W25850  21.610  21.147   1.212
59068W        W25851  44.498   7.232  11.219
59069W        W25852   5.929  41.771  13.552
59070W        W25853   4.187  22.596  12.519
59071W        W25854   0.315  11.897  14.683
59072W        W25855  21.010   7.487   2.262
59073W        W25856  19.860  24.167   4.598
59074W        W25857  13.920  20.002  13.437
59075W        W25858  34.585  32.626  12.492
59076W        W25859  12.479  35.646   2.229
59077W        W25860   5.242  11.051   3.229
59078W        W25861  11.321   6.274  14.767
59079W        W25862  14.439  21.762  12.924
59080W        W25863  30.579  16.230  14.835
59081W        W25864  22.202  15.748  10.163
59082W        W25865  33.836  43.675   0.194
59083W        W25866  29.249  28.201  13.574
59084W        W25867  11.093   8.430  13.909
59085W        W25868  12.837  38.131   1.521
59086W        W25869  42.345  30.635  10.634
59087W        W25870  27.942  37.466  13.024
59088W        W25871  26.283  35.990   4.069
59089W        W25872   5.318  15.154   0.233
59090W        W25873  32.641  38.910   4.693
59091W        W25874   8.924  23.975  11.631
59092W        W25875   2.577  41.217  12.462
59093W        W25876  44.774  10.135   2.596
59094W        W25877  43.845  44.747   4.345
59095W        W25878  19.819  36.155   5.083
59096W        W25879  11.154  18.101   2.014
59097W        W25880  22.703   5.990   3.718
59098W        W25881  11.410  16.188  10.959
59099W        W25882  28.199  22.011  12.005
59100W        W25883  13.865   8.676   4.955
59101W        W25884   2.527  23.802   5.079
59102W        W25885  27.181  15.230   1.963
59103W        W25886  40.755   1.583  12.071
59104W        W25887  31.082  12.535  11.133
59105W        W25888  37.525  28.415   2.198
59106W        W25889  37.823  39.577   0.412
59107W        W25890  27.655  19.305   2.246
59108W        W25891  36.108   6.727   2.175
59109W        W25892  16.041  24.785  11.125
59110W        W25893   6.369  20.235   1.811
59111W        W25894  22.747  43.331  13.920
59112W        W25895  39.530  29.955   0.459
59113W        W25896   3.522   8.813  13.570
59114W        W25897  43.551  14.347   2.683
59115W        W25898  42.253  10.262  12.031
59116W        W25899  22.987   3.857  12.766
59117W        W25900   3.375  28.531   2.216
59118W        W25901  19.703  29.980  14.669
59119W        W25902   7.809   0.107  11.731
59120W        W25903  27.698  24.111   0.527
59121W        W25904  37.851  27.989  10.731
59122W        W25905  31.633   6.613   0.326
59123W        W25906  39.599   6.612  13.530
59124W        W25907  20.528  25.456  13.775
59125W        W25908  31.446  39.468  12.441
59126W        W25909   1.172  31.122  14.700
59127W        W25910  23.418  19.037  14.412
59128W        W25911   9.866  21.097  13.527
59129W        W25912   1.020   4.467  10.108
59130W        W25913  32.941   8.836   4.066
59131W        W25914   6.972  40.387  11.012
59132W        W25915  43.049  11.579  13.858
59133W        W25916  15.718   2.434   3.286
59134W        W25917  37.585   1.438  13.048
59135W        W25918  42.484  27.593   2.401
59136W        W25919  43.825  44.754   2.902
59137W        W25920  39.825  20.127  14.892
59138W        W25921  17.664  21.136   2.264
59139W        W25922   9.510  26.695   4.788
59140W        W25923  13.615   9.753  11.290
59141W        W25924   1.797  28.200   3.694
59142W        W25925   4.843  39.966  13.344
59143W        W25926  10.167  11.429  14.734
59144W        W25927  41.890  26.467  10.741
59145W        W25928  18.063  34.608   2.643
59146W        W25929  43.471  24.810  12.059
59147W        W25930  35.893   0.416  11.721
59148W        W25931   4.458  25.216   1.850
59149W        W25932  14.498  19.618   1.189
59150W        W25933  19.337  40.594   1.793
59151W        W25934  10.194  39.245  11.566
59152W        W25935  32.932  19.257  11.535
59153W        W25936  37.565  32.408  12.503
59154W        W25937  40.104  40.047  12.994
59155W        W25938  40.714  25.247  11.055
59156W        W25939  33.765   5.687  12.918
59157W        W25940   5.913  39.553  13.881
59158W        W25941  23.049  31.095  11.652
59159W        W25942   0.789  39.364  12.956
59160W        W25943  19.891  14.726  14.748
59161W        W25944  13.609  35.278  14.646
59162W        W25945  26.008  10.690   4.089
59163W        W25946  43.287  26.602  11.910
59164W        W25947  21.659  11.710   4.167
59165W        W25948  25.078  17.259  13.333
59166W        W25949  21.388   6.476  14.901
59167W        W25950   1.465   3.903   2.220
59168W        W25951  20.843  10.100  12.458
59169W        W25952   4.071  30.441  12.372
59170W        W25953  41.820  18.194   1.509
59171W        W25954  19.361  35.393  12.593
59172W        W25955   5.252  22.586   4.804
59173W        W25956  10.097   5.803  12.426
59174W        W25957   2.398  18.046   9.893
59175W        W25958  39.056  25.426   3.275
59176W        W25959  33.389  37.109   4.321
59177W        W25960   7.705  28.605  12.788
59178W        W25961   0.987   4.381   0.243
59179W        W25962  36.542   9.676  14.818
59180W        W25963  17.546  18.297   2.269
59181W        W25964  16.799  12.228  11.597
59182W        W25965  27.430  37.814  12.529
59183W        W25966  10.165  30.906   2.647
59184W        W25967   9.803  24.062   0.915
59185W        W25968   9.346  40.406   0.852
59186W        W25969  10.095  29.344  14.926
59187W        W25970  20.054  17.842   0.572
59188W        W25971   2.910  35.711  14.331
59189W        W25972  34.275  14.084  13.414
59190W        W25973  36.578  27.130  11.733
59191W        W25974  38.525   3.869  14.133
59192W        W25975  33.654  31.095  12.177
59193W        W25976  21.730  32.875  12.335
59194W        W25977  16.401  25.970   0.877
59195W        W25978  40.124  39.432  13.373
59196W        W25979  40.811  18.986  13.681
59197W        W25980  26.707   2.294   4.484
59198W        W25981  11.208  40.507   3.968
59199W        W25982   4.460   8.736   3.435
59200W        W25983  44.470  40.244  12.522
59201W        W25984  26.889  39.013   1.618
59202W        W25985   8.131  31.238  11.557
59203W        W25986  25.452  26.680   1.357
59204W        W25987  43.364  40.922  14.758
59205W        W25988  10.345  29.879  11.109
59206W        W25989  20.731   0.965  14.473
59207W        W25990  21.591  40.328  14.047
59208W        W25991   5.317   5.848   4.609
59209W        W25992  42.338   7.749  11.850
59210W        W25993  26.496  36.159   2.218
59211W        W25994  40.145  40.241  12.533
59212W        W25995  44.898  23.788   1.872
59213W        W25996   6.873  35.636  12.543
59214W        W25997  25.942   4.041  11.916
59215W        W25998  36.587  36.499   3.990
59216W        W25999   4.658   8.253   1.700
59217W        W26000  42.818  17.971   4.126
59218W        W26001  12.493  29.882  14.556
59219W        W26002   3.395  11.551   4.342
59220W        W26003   2.237  19.765   3.743
59221W        W26004  14.509   6.223  11.095
59222W        W26005  14.611  37.119  12.887
59223W        W26006  40.902  39.509  13.868
59224W        W26007   1.965   0.009  11.190
59225W        W26008  37.869  34.951   1.396
59226W        W26009   2.431   4.398   1.274
59227W        W26010  41.452  24.184   2.733
59228W        W26011  15.212  39.958  13.857
59229W        W26012   9.712  34.899  13.073
59230W        W26013  23.370  42.613   4.473
59231W        W26014  40.579   7.275   0.420
59232W        W26015  16.301  38.301  13.842
59233W        W26016  32.467   8.854   1.807
59234W        W26017  31.795  37.019  11.630
59235W        W26018  44.946  42.258   1.520
59236W        W26019  17.097  33.124  10.516
59237W        W26020   1.308   1.767   2.270
59238W        W26021  13.749  29.143   2.401
59239W        W26022  11.464  41.934   3.192
59240W        W26023  39.325  22.189  14.351
59241W        W26024  29.192  41.821   3.830
59242W        W26025  44.777   3.879   0.078
59243W        W26026   4.354   1.938   4.589
59244W        W26027  19.912   4.781  12.555
59245W        W26028  19.474  39.429   3.400
59246W        W26029   2.950  33.480  12.451
59247W        W26030  40.678   8.822  13.974
59248W        W26031  17.343   7.639   2.602
59249W        W26032  12.652  38.979   3.200
59250W        W26033  10.275  42.809   1.187
59251W        W26034  21.279  30.525   2.038
59252W        W26035  38.043   0.689   4.246
59253W        W26036  16.116   0.633  14.146
59254W        W26037  23.601  19.817  12.356
59255W        W26038  35.123  27.127  10.917
59256W        W26039  22.001   4.946  13.176
59257W        W26040   2.989  14.111   0.393
59258W        W26041  11.933  10.653  13.966
59259W        W26042  30.135   9.721   2.132
59260W        W26043   4.858   5.782   4.331
59261W        W26044   2.290  40.892  14.872
59262W        W26045  10.096  16.289  14.058
59263W        W26046   2.478  33.272  12.478
59264W        W26047  10.162  33.049  13.407
59265W        W26048   2.606   2.136   0.204
59266W        W26049  18.017  17.097   1.919
59267W        W26050  22.997  27.789  13.855
59268W        W26051  34.573  13.324   0.461
59269W        W26052  35.931  18.737   1.670
59270W        W26053  38.507  40.492   4.198
59271W        W26054   3.431   2.368  14.966
59272W        W26055  28.380  42.965  14.445
59273W        W26056  42.859  28.977   0.784
59274W        W26057  42.330   9.704   2.593
59275W        W26058  15.643  21.242   0.940
59276W        W26059  35.842  42.484   3.186
59277W        W26060   2.665  31.454  12.244
59278W        W26061  13.259  35.452  12.974
59279W        W26062   0.249   1.914  12.418
59280W        W26063   2.824  40.978  11.172
59281W        W26064   2.757  22.510   0.310
59282W        W26065   4.527  21.461   3.841
59283W        W26066  22.508   2.872   1.729
59284W        W26067  14.333  41.043   0.379
59285W        W26068  33.943  17.211   5.097
59286W        W26069   8.537  16.323   3.742
59287W        W26070  18.181  23.115   0.407
59288W        W26071  43.656  13.246  13.471
59289W        W26072  11.722  27.138  13.574
59290W        W26073   3.432  38.786   1.343
59291W        W26074  21.956   1.644  13.360
59292W        W26075  15.385  17.663  10.668
59293W        W26076  39.501  31.168  11.305
59294W        W26077  24.165  41.425   3.601
59295W        W26078  13.372  43.423   0.866
59296W        W26079   7.232  19.241   3.923
59297W        W26080  38.714  26.546   5.042
59298W        W26081   8.896  38.510   1.371
59299W        W26082  21.048   6.692   2.658
59300W        W26083  15.769   7.821  13.867
59301W        W26084  24.753  10.057   1.444
59302W        W26085   4.300   6.295  12.626
59303W        W26086  16.812  18.813   4.503
59304W        W26087  26.398  10.472  14.427
59305W        W26088  33.800  37.541  14.775
59306W        W26089  26.016  32.684  11.651
59307W        W26090  19.183  27.005  14.818
59308W        W26091  17.033  23.927  12.637
59309W        W26092  13.391  13.753  11.262
59310W        W26093   6.423  12.043   3.804
59311W        W26094  41.289  18.422   2.694
59312W        W26095  39.534  17.727   1.000
59313W        W26096  11.440  41.975   1.776
59314W        W26097  24.182  38.357   1.211
59315W        W26098  15.336   8.857  12.793
59316W        W26099   5.317  44.529   0.301
59317W        W26100  12.677  29.145  12.046
59318W        W26101  15.124   6.771   3.725
59319W        W26102  24.283  24.757   0.316
59320W        W26103  20.694  44.844   2.510
59321W        W26104  22.450  28.565  13.901
59322W        W26105   8.181  11.291   3.317
59323W        W26106   1.174  14.586   4.674
59324W        W26107  26.676  31.012   0.563
59325W        W26108   0.775  43.869   1.530
59326W        W26109  39.327   0.714   2.091
59327W        W26110  37.953  43.924  12.401
59328W        W26111  31.547  37.855  14.362
59329W        W26112  37.290  37.546  11.790
59330W        W26113   2.262  20.638   4.606
59331W        W26114  39.867  15.827  14.475
59332W        W26115  30.649  36.839   1.193
59333W        W26116   2.483  31.228   3.489
59334W        W26117  18.108   1.870   2.321
59335W        W26118   8.719  36.591   1.460
59336W        W26119   3.622  16.093   1.911
59337W        W26120   7.211  17.384   4.859
59338W        W26121  29.120  14.423   1.717
59339W        W26122  14.335  13.913   1.758
59340W        W26123  19.596  21.298  13.866
59341W        W26124   0.240  42.084   3.290
59342W        W26125   0.003  39.435  13.231
59343W        W26126  40.064  29.065  14.673
59344W        W26127  36.607  11.617   1.223
59345W        W26128  17.276  39.709  10.276
59346W        W26129   7.297   9.388   2.589
59347W        W26130  16.885  12.506   3.892
59348W        W26131  18.733  41.497  10.757
59349W        W26132  19.024  17.255  10.786
59350W        W26133   7.715   2.782   3.753
59351W        W26134  22.528  11.538  14.387
59352W        W26135  17.426  20.016  12.052
59353W        W26136  13.294   1.449   2.964
59354W        W26137  41.831  36.865  12.810
59355W        W26138   7.679  32.613   4.562
59356W        W26139  11.951  10.159   2.280
59357W        W26140  37.047  14.682  14.745
59358W        W26141  41.394  12.949   1.895
59359W        W26142  29.943  35.613   2.707
59360W        W26143  27.462   3.342  14.342
59361W        W26144  44.030   3.719   4.784
59362W        W26145  39.561  38.264  14.898
59363W        W26146  15.573  13.380  11.709
59364W        W26147  44.780  18.296   3.247
59365W        W26148   6.887  30.469  13.422
59366W        W26149   9.411  29.580   2.564
59367W        W26150  32.881  38.093  14.125
59368W        W26151  16.567  40.390   4.919
59369W        W26152  18.193  15.519  11.232
59370W        W26153  23.947  34.143   2.242
59371W        W26154  24.016  32.117  13.335
59372W        W26155  20.637  12.632  12.329
59373W        W26156   9.651   6.835   0.769
59374W        W26157  37.853  37.916  14.504
59375W        W26158  26.519  34.081   0.343
59376W        W26159  22.738  42.797  10.757
59377W        W26160  26.219  21.321   1.857
59378W        W26161  20.230  21.265  11.188
59379W        W26162  29.032  23.260   0.422
59380W        W26163   0.437   6.410   1.167
59381W        W26164  13.191   2.289   1.306
59382W        W26165   1.990  35.568   0.843
59383W        W26166  20.612  34.779   4.620
59384W        W26167   5.926  43.116   4.587
59385W        W26168   4.868   3.164   3.767
59386W        W26169  27.631  23.220  14.138
59387W        W26170   9.287  20.379  11.110
59388W        W26171  43.371  13.249   0.526
59389W        W26172   8.214  11.219   4.198
59390W        W26173  12.181   1.900   0.016
59391W        W26174   9.341  44.813   1.292
59392W        W26175  20.224   8.760   4.865
59393W        W26176  33.494  44.098   0.262
59394W        W26177  16.585  27.686   2.260
59395W        W26178  41.883  40.357   4.166
59396W        W26179   1.205  15.002   5.056
59397W        W26180  36.782   2.661  10.740
59398W        W26181   4.485  24.518   4.586
59399W        W26182  44.919   4.510   2.123
59400W        W26183  41.700  42.878   4.578
59401W        W26184  35.199  43.780  13.431
59402W        W26185   0.285   7.755  13.435
59403W        W26186   2.519  23.319   2.576
59404W        W26187  20.021  25.966   1.254
59405W        W26188  16.573   7.250   1.312
59406W        W26189  16.032   3.252   5.095
59407W        W26190  36.772   8.018   1.117
59408W        W26191  41.914  27.889  12.946
59409W        W26192  22.950  17.547  13.484
59410W        W26193  19.025  41.445   5.038
59411W        W26194  34.620  18.125   3.266
59412W        W26195  10.880   2.227   1.702
59413W        W26196  14.092  25.629  14.717
59414W        W26197  16.822  29.158   1.264
59415W        W26198  13.802   8.359   3.704
59416W        W26199  10.739  37.484  14.109
59417W        W26200  39.119  20.646   0.738
59418W        W26201  15.899  24.660  13.498
59419W        W26202  44.338  34.730  11.427
59420W        W26203   4.773  27.959   4.859
59421W        W26204  16.075  43.500   4.141
59422W        W26205  18.041  40.273   0.468
59423W        W26206  42.823  34.961  13.947
59424W        W26207  18.557  10.622   3.971
59425W        W26208  30.447  35.364  14.412
59426W        W26209  10.739  37.409   2.331
59427W        W26210  42.303  29.041  11.288
59428W        W26211  16.553  35.434   0.804
59429W        W26212  40.584  43.804  12.834
59430W        W26213   1.946  38.547  14.826
59431W        W26214  42.053  26.210   0.327
59432W        W26215  41.089   5.240   3.633
59433W        W26216  30.255  16.111  12.944
59434W        W26217   6.648  29.932  12.967
59435W        W26218   3.675  13.172   3.473
59436W        W26219   5.172  22.040   0.311
59437W        W26220  11.578  10.791  11.896
59438W        W26221  41.585  43.523   3.207
59439W        W26222  37.663  31.281  13.698
59440W        W26223  40.347   7.888  11.550
59441W        W26224   3.981  28.173  13.429
59442W        W26225  38.179  28.063  11.146
59443W        W26226  30.164  14.428   0.368
59444W        W26227  24.286  34.697  14.321
59445W        W26228   2.035  23.973  12.919
59446W        W26229  12.768  20.346  11.737
59447W        W26230  30.133  44.258  13.549
59448W        W26231  21.949  30.187  12.445
59449W        W26232  20.086  40.066   4.568
59450W        W26233  19.828  22.252   4.640
59451W        W26234  38.376  42.828   3.777
59452W        W26235  23.065  26.581  13.049
59453W        W26236  20.461  20.816  14.176
59454W        W26237  25.936  38.190   4.095
59455W        W26238  26.052  27.455   2.644
59456W        W26239  33.400  24.770   9.762
59457W        W26240  30.997  39.213  13.912
59458W        W26241  14.415  18.565   3.631
59459W        W26242  30.228  20.549  12.697
59460W        W26243  28.787  31.935  14.171
59461W        W26244  44.826  17.550   0.431
59462W        W26245  38.339   1.888   4.154
59463W        W26246  14.403  31.438  11.569
59464W        W26247  23.886   7.765   3.644
59465W        W26248  20.579  32.711   0.752
59466W        W26249  18.115   1.294   4.010
59467W        W26250  26.394   5.297  12.492
59468W        W26251  24.222  40.806  14.824
59469W        W26252  29.931  15.404  14.107
59470W        W26253  30.600  33.535  11.562
59471W        W26254  35.620  41.903   4.274
59472W        W26255  24.214  31.401  12.591
59473W        W26256   8.286   2.619  12.481
59474W        W26257  37.316  26.396   0.020
59475W        W26258  20.868  20.775   3.894
59476W        W26259  19.069  18.220  14.463
59477W        W26260  15.091   0.052   0.563
59478W        W26261  20.108  38.114   3.251
59479W        W26262  24.434  28.562   4.749
59480W        W26263  41.561  31.211   2.858
59481W        W26264  14.999   4.199  14.884
59482W        W26265  11.965   2.849  14.847
59483W        W26266  25.923  28.615  10.903
59484W        W26267   8.667  31.163  11.606
59485W        W26268  13.862   2.824   0.921
59486W        W26269  19.316  20.227   0.346
59487W        W26270   3.510  21.493  13.073
59488W        W26271  33.269  22.710   2.331
59489W        W26272   3.219  36.128  13.410
59490W        W26273  19.178  37.187   3.244
59491W        W26274  22.559  13.815   2.230
59492W        W26275  29.166   8.685  12.079
59493W        W26276  17.799  20.057   1.747
59494W        W26277  36.585  30.665  10.315
59495W        W26278   0.854  10.999   4.609
59496W        W26279   5.422   4.772   2.346
59497W        W26280  39.487   9.399  12.575
59498W        W26281  36.089  42.304   2.763
59499W        W26282   4.666   1.874   0.719
59500W        W26283  41.505  29.674  11.240
59501W        W26284   8.314   1.394  10.735
59502W        W26285   8.256  18.287  14.207
59503W        W26286  27.484   7.902   3.086
59504W        W26287  25.213  39.109   0.780
59505W        W26288   2.814  23.777   1.699
59506W        W26289  15.580  11.140  11.150
59507W        W26290  14.957  44.322  11.834
59508W        W26291  11.821  31.481   4.484
59509W        W26292   5.370  36.558  12.860
59510W        W26293  14.591  34.696  10.756
59511W        W26294  37.318  17.940   0.638
59512W        W26295  29.177  30.392  13.110
59513W        W26296   7.334  42.652   0.598
59514W        W26297   2.134  33.344  10.721
59515W        W26298   6.008   0.427  11.559
59516W        W26299  40.523   2.506  10.689
59517W        W26300   9.162  26.478  13.355
59518W        W26301  31.015  16.788   1.385
59519W        W26302  17.489   0.956   2.345
59520W        W26303  29.884   5.379  14.070
59521W        W26304  38.559  16.305   3.339
59522W        W26305   5.188   8.565   0.313
59523W        W26306  32.200  25.712   3.581
59524W        W26307  38.757  37.260   3.064
59525W        W26308   6.661  11.213   1.978
59526W        W26309  14.943   5.731   1.319
59527W        W26310  41.832  19.127   4.155
59528W        W26311   0.055  27.956  14.407
59529W        W26312  28.852  24.834   3.176
59530W        W26313  27.925   2.087  13.537
59531W        W26314  39.336  11.723   1.722
59532W        W26315  41.335   9.576  14.094
59533W        W26316  34.599  18.319  11.889
59534W        W26317  13.289  40.996   4.842
59535W        W26318  30.542  13.475   3.645
59536W        W26319   7.178   0.778  12.585
59537W        W26320   9.915  27.202   1.038
59538W        W26321   8.942   6.765  11.040
59539W        W26322  34.005  32.626   3.726
59540W        W26323  20.717  43.017   0.459
59541W        W26324  27.513  32.084  12.581
59542W        W26325  18.426  17.124  12.266
59543W        W26326  13.736  42.371  14.207
59544W        W26327  29.038  23.145  14.436
59545W        W26328  38.081  20.731  10.764
59546W        W26329  16.346  38.781   0.299
59547W        W26330  10.398  28.981   1.868
59548W        W26331  18.537  38.620  14.793
59549W        W26332  19.250  32.451  13.121
59550W        W26333  28.530  41.013   3.915
59551W        W26334  40.625   3.041   3.300
59552W        W26335   5.670  14.691   3.346
59553W        W26336  23.566  11.815   2.737
59554W        W26337  27.346  17.743  13.840
59555W        W26338   4.570  27.857   0.500
59556W        W26339  31.552  38.962  12.414
59557W        W26340  16.096   0.203   1.348
59558W        W26341  39.273  25.596  11.455
59559W        W26342  20.697   8.334  11.720
59560W        W26343  29.226  14.601  11.399
59561W        W26344  21.565  42.790   4.274
59562W        W26345  25.655  38.395  14.901
59563W        W26346   3.379  38.314   4.640
59564W        W26347  22.854  38.098  14.560
59565W        W26348  18.144  39.913   1.653
59566W        W26349   9.484   4.987  11.491
59567W        W26350  44.039  26.710   0.721
59568W        W26351  43.024   9.241  13.890
59569W        W26352   2.169   6.066   4.675
59570W        W26353   3.789  34.854  11.545
59571W        W26354  40.885  34.323   0.666
59572W        W26355  36.095  26.971  10.888
59573W        W26356  11.406  44.468  12.337
59574W        W26357  34.380   7.133  12.476
59575W        W26358  43.418   0.185  14.065
59576W        W26359  12.704  35.852   3.871
59577W        W26360  43.975  34.119  13.977
59578W        W26361   8.285   4.889   3.229
59579W        W26362   6.682  34.320  14.099
59580W        W26363  40.765   6.846   4.533
59581W        W26364  18.155  36.852  13.974
59582W        W26365  22.253  14.322  13.158
59583W        W26366  21.650   4.012  13.996
59584W        W26367  25.241  16.042   1.845
59585W        W26368  12.333  42.419   4.354
59586W        W26369  27.223  42.325  12.239
59587W        W26370  39.779  25.202  10.748
59588W        W26371  25.117  28.410   4.139
59589W        W26372  40.849  15.751  10.669
59590W        W26373  16.817   0.762   3.559
59591W        W26374  26.055  37.574   4.757
59592W        W26375   8.163  25.193  11.157
59593W        W26376  29.040   0.424   0.025
59594W        W26377  35.224   7.247   4.153
59595W        W26378  37.505   4.456  10.746
59596W        W26379  16.609  16.142  11.898
59597W        W26380  12.842   8.688  12.933
59598W        W26381  35.831  32.956   3.434
59599W        W26382  37.986   5.812   4.405
59600W        W26383  16.786  12.265  10.576
59601W        W26384   0.836  13.443   5.168
59602W        W26385  30.724   5.047  13.978
59603W        W26386   8.191   5.129   3.688
59604W        W26387  26.673  20.596  12.107
59605W        W26388  34.534  30.375  11.215
59606W        W26389  11.283  33.124   2.652
59607W        W26390   0.270  24.207   3.372
59608W        W26391  30.335  44.267  14.040
59609W        W26392  32.521  39.420   4.658
59610W        W26393   9.395  15.215   1.691
59611W        W26394  23.985  14.750  11.543
59612W        W26395  35.199  26.816   3.392
59613W        W26396   1.982  14.683  14.741
59614W        W26397  35.909  26.014  11.553
59615W        W26398   0.311  10.713   2.037
59616W        W26399  30.714  40.907  13.132
59617W        W26400  38.900  44.450  10.720
59618W        W26401  40.780  11.871   3.101
59619W        W26402  36.216   5.723   1.224
59620W        W26403  28.472  24.997  14.314
59621W        W26404  32.916   1.663  12.117
59622W        W26405  14.668  34.198   1.267
59623W        W26406  21.460  29.888  12.398
59624W        W26407  33.467  22.645   5.315
59625W        W26408  41.405   1.213  13.521
59626W        W26409  19.234  25.115   0.219
59627W        W26410   0.822  35.464   4.689
59628W        W26411  10.357  20.128  13.121
59629W        W26412  40.395  39.017   2.312
59630W        W26413   3.299   1.212   4.861
59631W        W26414  34.338   2.441   2.571
59632W        W26415  42.290  14.683   3.619
59633W        W26416  23.959  35.478  14.480
59634W        W26417  37.431  35.619   3.487
59635W        W26418   6.958  35.921  12.013
59636W        W26419   2.481  24.161   0.652
59637W        W26420  15.482  38.807  12.578
59638W        W26421  23.226  35.346  11.659
59639W        W26422  16.994  18.846  10.207
59640W        W26423   0.198  32.641   1.883
59641W        W26424  28.889  10.273   1.878
59642W        W26425  39.070  23.179   0.801
59643W        W26426   5.544  18.391  12.759
59644W        W26427  42.446  14.017   3.258
59645W        W26428  23.462  26.684   0.226
59646W        W26429  42.522  19.015  10.577
59647W        W26430  24.056   3.864   0.974
59648W        W26431  31.862  34.344  13.034
59649W        W26432   8.894   6.118   4.900
59650W        W26433  21.554  17.346  11.241
59651W        W26434   1.928  16.698  12.422
59652W        W26435  41.845  17.195   0.856
59653W        W26436  34.452   4.894   4.023
59654W        W26437  19.713  40.333  10.495
59655W        W26438   9.847  20.710   3.412
59656W        W26439   9.371   0.966  13.147
59657W        W26440  24.044   6.732  11.411
59658W        W26441   5.105  30.667   3.185
59659W        W26442  29.914  43.395   0.304
59660W        W26443  10.246   3.663  12.740
59661W        W26444  13.969  35.340  12.054
59662W        W26445  34.522  40.027   4.967
59663W        W26446  35.567   8.829   0.800
59664W        W26447  28.485  26.060  11.176
59665W        W26448  40.421  23.028   1.329
59666W        W26449  32.686  34.636  14.219
59667W        W26450  29.889   2.286   0.924
59668W        W26451  20.470   3.039   0.616
59669W        W26452   7.977   5.341   4.116
59670W        W26453   6.467   9.268   0.463
59671W        W26454   1.361   3.003  14.274
59672W        W26455  13.661  20.813   3.760
59673W        W26456  25.465   7.858  13.926
59674W        W26457   6.348  14.664   3.352
59675W        W26458  43.970  32.111  10.142
59676W        W26459   8.724   8.290   1.621
59677W        W26460  23.964  11.175  14.509
59678W        W26461  15.206  13.984  13.298
59679W        W26462  35.048  17.304   0.279
59680W        W26463   6.457   7.433   1.018
59681W        W26464   0.939  22.190   3.267
59682W        W26465  31.481  13.930   4.122
59683W        W26466  14.720  28.594   0.549
59684W        W26467  10.840  28.236  12.061
59685W        W26468   4.210  25.644   4.134
59686W        W26469  12.374   2.113  11.942
59687W        W26470  26.593   7.510  12.556
59688W        W26471   9.324  12.337   2.279
59689W        W26472  16.081  44.841  10.492
59690W        W26473  22.701  38.966   2.835
59691W        W26474  43.347  11.579   2.736
59692W        W26475   8.905   4.943   4.089
59693W        W26476   8.163  13.760   3.225
59694W        W26477  20.534  29.088   2.467
59695W        W26478  12.524  15.314   1.673
59696W        W26479  11.015  24.900  12.332
59697W        W26480  42.374  12.586   0.878
59698W        W26481  38.836   8.350  12.973
59699W        W26482  17.043  21.606  11.568
59700W        W26483  10.386  15.622  10.182
59701W        W26484  26.933  25.202   4.634
59702W        W26485  32.532  18.493   2.563
59703W        W26486  35.091   1.739   1.827
59704W        W26487  21.851   6.876   3.656
59705W        W26488   1.500  36.269  14.911
59706W        W26489   9.150  43.005  13.477
59707W        W26490  17.618  44.345  12.376
59708W        W26491  42.459  24.056   4.363
59709W        W26492  40.476   8.702   3.297
59710W        W26493  32.426  24.545   2.777
59711W        W26494  41.515   9.744   2.346
59712W        W26495  27.266  39.572   0.279
59713W        W26496  31.485   5.889   3.182
59714W        W26497  39.623  36.421   2.452
59715W        W26498  35.590  18.765  13.181
59716W        W26499  16.794  22.444   4.922
59717W        W26500  26.675   8.621  14.626
59718W        W26501  12.144  38.521  11.106
59719W        W26502  16.672  15.470   1.680
59720W        W26503  40.912  39.154  13.030
59721W        W26504  26.825   8.133  13.088
59722W        W26505  35.541  22.315   1.801
59723W        W26506  44.175  17.566  12.939
59724W        W26507  24.518  21.780   0.378
59725W        W26508   3.916   0.038   0.476
59726W        W26509  24.346   7.444  12.371
59727W        W26510  26.169  29.941  11.161
59728W        W26511  37.440   2.809  13.356
59729W        W26512  39.899  26.097  12.954
59730W        W26513  37.944  16.790  12.433
59731W        W26514   2.010  30.329   5.029
59732W        W26515   9.913   3.758  13.550
59733W        W26516  38.551  24.770   3.584
59734W        W26517  27.163  17.895  12.043
59735W        W26518  11.189  40.502  14.954
59736W        W26519   5.807  36.750   1.993
59737W        W26520  31.924   7.922  10.543
59738W        W26521  41.557   8.658   0.499
59739W        W26522  39.811   2.773   0.335
59740W        W26523  23.288  12.158   1.756
59741W        W26524  36.087  33.655   1.666
59742W        W26525  38.863  11.295  14.581
59743W        W26526   3.256  13.383   2.140
59744W        W26527  31.073  29.493  11.637
59745W        W26528  27.648  26.391   1.853
59746W        W26529   7.149   5.876  12.373
59747W        W26530  22.508  23.721   4.058
59748W        W26531  43.869   8.205  13.278
59749W        W26532  13.866  25.512   3.343
59750W        W26533  39.826  21.035   3.721
59751W        W26534  38.219  23.268   0.547
59752W        W26535  20.078  13.381   0.902
59753W        W26536   6.327  19.912   4.979
59754W        W26537  44.893  26.606   0.327
59755W        W26538   4.560   3.251   3.346
59756W        W26539  24.833  16.428  11.130
59757W        W26540  41.316  30.080   3.109
59758W        W26541  30.048  14.085   1.944
59759W        W26542  31.165  26.836   1.572
59760W        W26543  29.649  44.528  12.613
59761W        W26544  24.202   8.764   9.952
59762W        W26545  35.616   9.657  13.386
59763W        W26546  12.190  43.908  12.781
59764W        W26547  43.238  15.638   2.834
59765W        W26548  33.926  18.713   2.724
59766W        W26549  34.861  21.776   1.991
59767W        W26550  14.312  44.192   2.758
59768W        W26551  29.049  35.668  12.746
59769W        W26552  13.859  22.817  12.630
59770W        W26553  30.687   6.842  11.079
59771W        W26554  42.534  29.217  14.873
59772W        W26555  11.400  28.852   0.512
59773W        W26556  20.199  23.150  12.125
59774W        W26557   1.551   9.320   1.668
59775W        W26558   8.480  35.601   0.405
59776W        W26559   7.382  31.578   0.930
59777W        W26560  21.417  17.064  13.270
59778W        W26561  10.206  38.089  11.000
59779W        W26562  32.117  33.377  10.564
59780W        W26563  28.503   2.741   0.817
59781W        W26564  12.567  37.748   0.130
59782W        W26565  11.622  43.173   1.034
59783W        W26566  11.861  23.498  10.858
59784W        W26567  11.088  13.253   0.178
59785W        W26568  11.128  39.809   3.810
59786W        W26569  16.509  36.752   4.016
59787W        W26570   5.401  13.349  14.773
59788W        W26571   8.304  37.049   0.214
59789W        W26572   2.927  40.449  13.331
59790W        W26573  11.406  32.366   2.196
59791W        W26574  43.117  33.852  14.901
59792W        W26575   2.947  11.419   2.304
59793W        W26576  20.527  31.014   4.539
59794W        W26577  39.790  14.607  11.193
59795W        W26578  24.642   0.259  14.418
59796W        W26579   0.769   4.882  12.626
59797W        W26580  43.889   5.608   3.238
59798W        W26581  25.002  29.508  11.410
59799W        W26582   8.191  20.061  12.488
59800W        W26583  33.932  20.470  13.346
59801W        W26584  21.189   4.115  11.193
59802W        W26585  33.976  25.190  14.761
59803W        W26586  33.186  25.964   1.416
59804W        W26587  22.646  42.313  12.560
59805W        W26588  43.888  10.763   2.857
59806W        W26589   1.237  32.189   1.288
59807W        W26590   7.977  22.861  10.252
59808W        W26591  17.625   6.764   4.214
59809W        W26592  37.297  38.515  12.581
59810W        W26593  30.872  33.950  14.772
59811W        W26594  10.355   6.947   3.664
59812W        W26595  31.735  35.553  14.093
59813W        W26596  37.779  17.810  11.927
59814W        W26597  41.245  41.750   2.883
59815W        W26598  23.100  28.047  14.913
59816W        W26599  25.538  12.389  10.775
59817W        W26600  27.627  22.020  11.262
59818W        W26601   0.607  17.738  13.800
59819W        W26602  13.851  40.952   3.712
59820W        W26603  29.795   1.424  11.549
59821W        W26604   1.180  33.379   2.596
59822W        W26605  32.955  38.486   4.344
59823W        W26606  10.791  42.153  12.331
59824W        W26607  41.096   7.558  11.136
59825W        W26608  36.989   9.399  12.448
59826W        W26609  11.061  38.158   2.959
59827W        W26610  42.414  36.276  14.616
59828W        W26611  42.333  23.141  11.430
59829W        W26612  37.601   9.038   4.973
59830W        W26613  36.033  26.504   3.328
59831W        W26614  16.452  25.769  13.898
59832W        W26615  17.734   0.378  14.937
59833W        W26616   4.869  24.095  11.591
59834W        W26617  26.699  27.947   4.127
59835W        W26618  19.696  15.261  12.152
59836W        W26619   3.875   2.030  10.717
59837W        W26620  21.763  25.022  10.230
59838W        W26621  32.084  11.461   2.243
59839W        W26622  14.737   7.109   3.863
59840W        W26623  27.657  36.133  11.899
59841W        W26624  40.407  26.087  10.732
59842W        W26625   5.888  24.729  10.573
59843W        W26626  28.172  25.115  13.446
59844W        W26627   6.946  40.284   4.592
59845W        W26628  19.450  41.794   1.363
59846W        W26629  13.095  17.269   2.818
59847W        W26630  15.623  24.326   1.688
59848W        W26631  12.367   5.429  13.381
59849W        W26632   4.146  14.739  13.980
59850W        W26633   6.391  37.098   4.614
59851W        W26634  19.983  15.513   2.746
59852W        W26635   6.310  35.637   4.578
59853W        W26636  19.641  21.234  13.347
59854W        W26637  25.290   8.345   3.171
59855W        W26638  32.684   2.745   0.958
59856W        W26639  42.907  18.120   0.281
59857W        W26640  22.071  43.100  12.303
59858W        W26641   5.533  28.116   2.624
59859W        W26642   3.388  39.788  11.960
59860W        W26643  41.834  42.907  11.939
59861W        W26644  22.542  31.042  10.760
59862W        W26645  26.569   6.013  12.469
59863W        W26646   8.419  18.728  12.927
59864W        W26647   0.964  26.959   0.328
59865W        W26648  31.573  22.763  12.514
59866W        W26649   6.729  19.190  12.665
59867W        W26650   8.301   6.123   4.613
59868W        W26651  20.438  17.803   1.366
59869W        W26652  39.869  27.541  14.094
59870W        W26653  17.086  36.514  10.189
59871W        W26654  38.154  31.419  13.870
59872W        W26655  20.636  26.729  14.495
59873W        W26656  16.314  24.518   3.783
59874W        W26657  14.594  28.225   4.518
59875W        W26658   5.522  15.566  12.902
59876W        W26659  18.160  42.874   0.797
59877W        W26660   7.145   8.701   0.425
59878W        W26661  10.875  40.331  12.093
59879W        W26662   1.760  13.971  11.590
59880W        W26663  17.347  15.703   3.423
59881W        W26664  12.604   2.827   0.410
59882W        W26665  17.337  20.564   4.076
59883W        W26666  35.130   7.181  12.140
59884W        W26667  36.006  18.708  10.529
59885W        W26668  15.669  22.067  14.576
59886W        W26669  37.372   0.290  13.042
59887W        W26670  15.564   0.238   0.751
59888W        W26671  31.761  37.766   4.102
59889W        W26672   5.067  12.954   2.170
59890W        W26673  24.171  26.058  11.990
59891W        W26674  33.956  33.699   4.622
59892W        W26675   0.523   7.084   3.735
59893W        W26676  12.260   1.277  14.270
59894W        W26677  23.529  37.354   3.192
59895W        W26678  23.426  33.300   2.758
59896W        W26679  18.658  19.047   0.745
59897W        W26680   3.322  16.205  13.750
59898W        W26681  22.063  17.040   3.388
59899W        W26682  28.485   3.828   4.628
59900W        W26683  16.958   1.463  11.082
59901W        W26684  13.215  26.598   4.798
59902W        W26685   1.020  31.128   3.668
59903W        W26686  36.493  32.966  14.551
59904W        W26687   1.074  32.669   0.459
59905W        W26688  14.380  27.484  12.362
59906W        W26689  42.766   9.198  14.347
59907W        W26690  38.370  19.645  12.202
59908W        W26691  32.974  30.676   2.837
59909W        W26692  24.224   9.240  14.869
59910W        W26693  20.728  43.339   3.256
59911W        W26694  43.576   6.119  13.892
59912W        W26695  23.729  37.490  12.187
59913W        W26696  22.517  19.447  13.462
59914W        W26697  19.073  42.885   4.118
59915W        W26698  27.535   5.241  10.971
59916W        W26699  23.626   4.324  12.195
59917W        W26700  16.426  23.606   0.258
59918W        W26701  44.453  35.574   4.843
59919W        W26702   6.679  28.564   0.255
59920W        W26703  23.910  42.495  12.461
59921W        W26704  44.820  31.236   4.141
59922W        W26705   4.220  37.155   0.605
59923W        W26706  21.542   6.113   1.775
59924W        W26707  24.520  30.170  13.020
59925W        W26708  19.406  30.109  13.462
59926W        W26709  14.126  25.846   2.735
59927W        W26710  11.505   5.690  14.435
59928W        W26711  14.144  39.268  13.064
59929W        W26712   9.247  20.878  12.904
59930W        W26713   7.957  26.976   1.351
59931W        W26714  12.274  36.440  10.322
59932W        W26715  10.770  25.936  11.561
59933W        W26716  30.094  16.344  11.367
59934W        W26717   1.433  35.818   4.076
59935W        W26718  21.325  33.315   2.582
59936W        W26719  17.884  36.731   4.997
59937W        W26720  15.702  12.698  10.256
59938W        W26721  28.438  34.552  12.925
59939W        W26722   2.669  12.677  10.731
59940W        W26723  21.682  13.433  13.292
59941W        W26724  24.645  21.469   0.805
59942W        W26725  11.248  26.511  13.272
59943W        W26726  13.800  28.959   4.334
59944W        W26727   6.482  32.709   4.474
59945W        W26728   0.542   1.503   3.293
59946W        W26729  12.828  21.885  14.961
59947W        W26730  40.476  27.531  14.277
59948W        W26731  42.273   5.106   3.690
59949W        W26732   2.745   0.242   4.053
59950W        W26733  37.622  26.994  12.794
59951W        W26734  15.879  35.457   1.257
59952W        W26735   9.596  36.309   1.428
59953W        W26736  33.909  37.606  11.151
59954W        W26737  17.326   3.444   2.521
59955W        W26738  40.008  28.071   4.326
59956W        W26739  41.792   3.508   3.785
59957W        W26740  36.307  12.541  12.235
59958W        W26741   7.345  34.846  11.587
59959W        W26742  25.447  23.504   3.738
59960W        W26743  13.320  38.441  11.110
59961W        W26744  12.698  38.179  10.721
59962W        W26745  24.232  11.436  11.126
59963W        W26746  13.301   7.473  13.307
59964W        W26747  21.686  22.143   0.235
59965W        W26748  22.195  22.653   3.192
59966W        W26749  39.080  28.949  14.822
59967W        W26750  11.069   6.331  11.141
59968W        W26751  44.919  36.979   1.344
59969W        W26752  27.439  28.606   1.180
59970W        W26753  36.509  35.380   1.476
59971W        W26754  35.913  31.099   1.937
59972W        W26755  10.224   4.941   1.963
59973W        W26756  37.845  36.834  10.403
59974W        W26757  13.020  13.169  14.419
59975W        W26758  44.164  26.092   4.090
59976W        W26759  41.269  18.779  10.795
59977W        W26760   8.218  17.132   3.169
59978W        W26761  28.832  25.667  11.143
59979W        W26762  14.139  18.703  12.508
59980W        W26763  18.226  22.583   2.817
59981W        W26764  31.593  44.221   4.732
59982W        W26765   1.809  13.102   4.427
59983W        W26766   1.754   6.044  12.879
59984W        W26767   7.681  39.754  13.618
59985W        W26768  40.849  24.065  11.390
59986W        W26769  19.821  21.234  11.494
59987W        W26770  26.233  10.917   0.369
59988W        W26771   9.420   3.942  13.494
59989W        W26772   4.206  15.097  14.358
59990W        W26773  25.670  41.644  14.864
59991W        W26774  20.079  42.299   2.203
59992W        W26775   9.617  36.337  11.030
59993W        W26776   4.365   0.546  12.066
59994W        W26777  29.921  36.596   2.669
59995W        W26778  15.727  23.734  10.757
59996W        W26779   9.577  34.869  14.004
59997W        W26780   1.163   5.404  11.115
59998W        W26781  43.686  11.677  11.895
59999W        W26782  27.094   2.372  13.456
60000W        W26783   4.234  39.004  13.908
60001W        W26784   3.809  27.033  10.876
60002W        W26785  40.814  40.457   2.317
60003W        W26786   2.765  22.173  11.666
60004W        W26787   4.377   8.751  14.263
60005W        W26788  17.043  32.395   2.074
60006W        W26789   9.180  21.883   1.305
60007W        W26790  39.390   0.740   0.791
60008W        W26791  19.628  44.544  13.071
60009W        W26792   8.205   2.033   3.853
60010W        W26793  11.776   3.124  10.610
60011W        W26794  21.684  31.510  10.701
60012W        W26795  20.595  13.826  14.694
60013W        W26796  12.627  18.600  12.018
60014W        W26797  19.789  42.773   0.924
60015W        W26798  28.053  36.835   4.059
60016W        W26799  41.353  36.422  14.442
60017W        W26800   3.347  20.953  12.992
60018W        W26801  15.795  14.234   4.698
60019W        W26802  26.085  16.832   3.094
60020W        W26803  17.404  44.310   0.687
60021W        W26804  37.627  31.983  13.171
60022W        W26805   6.764   0.538  11.798
60023W        W26806  23.027   8.134  11.210
60024W        W26807  26.980  14.392  11.456
60025W        W26808  18.840   0.130  11.617
60026W        W26809  19.753  17.502   2.462
60027W        W26810   2.774  18.758  12.951
60028W        W26811  40.570  26.218  14.011
60029W        W26812   6.898   4.979  11.412
60030W        W26813  20.505   5.675   4.060
60031W        W26814  18.519   9.895  14.807
60032W        W26815  34.621  27.205   2.746
60033W        W26816  12.103   1.746  11.675
60034W        W26817  29.883  37.339  12.522
60035W        W26818   9.195  24.152   3.141
60036W        W26819  32.019   8.907   3.776
60037W        W26820  32.386  15.747  14.386
60038W        W26821  41.983  31.124  10.486
60039W        W26822  33.120  42.408  12.015
60040W        W26823  27.041  27.168  10.700
60041W        W26824  32.996   2.432   2.421
60042W        W26825  32.515  28.868  12.953
60043W        W26826  37.456  15.540  14.386
60044W        W26827  26.424   1.828  11.493
60045W        W26828  42.494  15.859  12.926
60046W        W26829  17.007   5.529   3.660
60047W        W26830  25.053  32.997  10.651
60048W        W26831  38.326  28.682   0.849
60049W        W26832  24.995  17.021  14.581
60050W        W26833  44.300  37.192   2.227
60051W        W26834  44.260  37.913   0.477
60052W        W26835  10.110   3.247   1.179
60053W        W26836  27.458  26.726   4.982
60054W        W26837  33.643   4.101  11.107
60055W        W26838  35.219  17.722  12.443
60056W        W26839  12.827  14.105  11.494
60057W        W26840   9.631  20.731  10.374
60058W        W26841   3.996  17.128  14.793
60059W        W26842  33.952  27.872  14.858
60060W        W26843   4.749  42.555   0.816
60061W        W26844   2.329  39.537   0.377
60062W        W26845  33.911  40.318   0.212
60063W        W26846  13.762  22.188   1.551
60064W        W26847  34.734  33.950  12.939
60065W        W26848  25.208  12.303  12.510
60066W        W26849  12.718  10.154   0.521
60067W        W26850   1.400   0.365   4.297
60068W        W26851  33.329   0.535   4.869
60069W        W26852  12.005  35.437   2.165
60070W        W26853  23.946  38.498   0.211
60071W        W26854  25.463  15.111   0.808
60072W        W26855  37.951   6.446  12.022
60073W        W26856  41.733  22.532  10.668
60074W        W26857  30.516  17.349   3.336
60075W        W26858  41.327  18.283   2.194
60076W        W26859  36.030  29.382   0.288
60077W        W26860  24.539  36.315   3.095
60078W        W26861   0.244   9.370   3.683
60079W        W26862  36.937  27.499   1.335
60080W        W26863  33.132  12.856  10.676
60081W        W26864   8.337  29.389   0.160
60082W        W26865   7.374  41.082  13.653
60083W        W26866  13.877  40.798   2.246
60084W        W26867   5.696  27.584  12.713
60085W        W26868   8.836  11.995  10.614
60086W        W26869  14.800  10.790  12.464
60087W        W26870   4.788  15.497   1.817
60088W        W26871  29.133   0.257  12.989
60089W        W26872  12.212  33.159   0.193
60090W        W26873  31.049  41.463  13.416
60091W        W26874  23.006  23.329  12.046
60092W        W26875  33.605  25.691   4.569
60093W        W26876  18.579  34.506   4.936
60094W        W26877  31.397  23.742   4.585
60095W        W26878  16.562   5.164  10.676
60096W        W26879  25.793  28.135   2.201
60097W        W26880  41.705  10.809  11.044
60098W        W26881  43.168   0.187   2.049
60099W        W26882  26.235  42.372  10.790
60100W        W26883  39.295  36.576  11.147
60101W        W26884  18.864  36.950  14.737
60102W        W26885  41.332  11.278   1.244
60103W        W26886  16.322  40.311  11.604
60104W        W26887  38.707  29.866   0.044
60105W        W26888  33.595  26.620  13.072
60106W        W26889   6.362  18.478   1.167
60107W        W26890  30.000  16.140   4.095
60108W        W26891  24.584  36.938  11.413
60109W        W26892   5.237  43.461  12.384
60110W        W26893  44.493  33.832   0.887
60111W        W26894  26.823   6.329  12.063
60112W        W26895   7.894  30.463  12.038
60113W        W26896  25.041   0.207  11.445
60114W        W26897   4.361  27.011  12.133
60115W        W26898  40.779   6.433  12.173
60116W        W26899  15.204  43.543  12.163
60117W        W26900  20.994  22.636   1.218
60118W        W26901  39.898   8.306  10.973
60119W        W26902  35.841  42.082  11.106
60120W        W26903  15.573  20.186  12.853
60121W        W26904   1.214  42.647  13.998
60122W        W26905  14.697  33.654   0.244
60123W        W26906  44.435  11.849  14.757
60124W        W26907   5.674  38.799   3.649
60125W        W26908  27.638   3.996   2.346
60126W        W26909  23.495   3.035  12.498
60127W        W26910  22.148  35.834  13.279
60128W        W26911  38.088  33.564  11.147
60129W        W26912  15.157  11.830   1.467
60130W        W26913  38.559   4.702   4.221
60131W        W26914   5.790  18.914  11.960
60132W        W26915  30.551  26.744   3.098
60133W        W26916  37.056  33.118   3.010
60134W        W26917  27.176   3.357  13.848
60135W        W26918  21.162  10.812   2.213
60136W        W26919  29.991   4.101  11.562
60137W        W26920  43.286  41.091   1.339
60138W        W26921  44.405  10.463  13.186
60139W        W26922  31.009  30.132  14.288
60140W        W26923  40.274  23.313  11.774
60141W        W26924  11.717  29.284   0.605
60142W        W26925   3.910   7.653  11.432
60143W        W26926  21.917   5.307  12.072
60144W        W26927  21.209  29.243   4.586
60145W        W26928  32.118   4.384   3.691
60146W        W26929   8.658  12.086   2.741
60147W        W26930  20.726  37.798   0.425
60148W        W26931   8.698  37.807   3.250
60149W        W26932  35.122   9.723  10.620
60150W        W26933  12.991  36.553  11.471
60151W        W26934  13.668  26.060   1.200
60152W        W26935  38.126   8.134   5.052
60153W        W26936  14.738  34.143  14.368
60154W        W26937  25.211  35.092  12.970
60155W        W26938  41.594  32.181   4.162
60156W        W26939  22.176  29.888   2.170
60157W        W26940  24.180  10.125   4.597
60158W        W26941  32.541   8.428  11.137
60159W        W26942  18.749   3.521  10.661
60160W        W26943  20.162  30.597  12.010
60161W        W26944  18.268  29.586   0.376
60162W        W26945   7.854   5.987   1.148
60163W        W26946  11.104  35.338   3.176
60164W        W26947   4.991   5.272   4.278
60165W        W26948   8.565  38.143  11.688
60166W        W26949  27.462  31.616   0.887
60167W        W26950  41.826  24.717   2.420
60168W        W26951  32.455   9.177   4.460
60169W        W26952  32.372  36.411  11.722
60170W        W26953  18.288  42.766  13.006
60171W        W26954   0.902  29.059  10.715
60172W        W26955  41.368  17.283  11.644
60173W        W26956   2.403  28.894  13.622
60174W        W26957  38.797  22.639   1.993
60175W        W26958   6.161   9.899   2.221
60176W        W26959  36.770   7.505   1.205
60177W        W26960   9.702  10.569   0.792
60178W        W26961  37.539  40.985   1.905
60179W        W26962  24.232  10.909  11.068
60180W        W26963  40.509  10.076   4.951
60181W        W26964  42.535  44.896  12.487
60182W        W26965   5.807  16.774   2.411
60183W        W26966  26.756   3.314   3.196
60184W        W26967  31.063  15.889  14.254
60185W        W26968  16.157  13.660  12.363
60186W        W26969  44.348   2.304  12.553
60187W        W26970   0.018   0.975  13.547
60188W        W26971   6.252   6.671   3.309
60189W        W26972  14.676  15.838   4.165
60190W        W26973  13.837   5.021   0.048
60191W        W26974   4.681  34.021  10.449
60192W        W26975  26.061  17.939   0.894
60193W        W26976  32.567   8.991   3.186
60194W        W26977  16.815  44.095   1.277
60195W        W26978  13.492  13.113  12.535
60196W        W26979  17.583  10.787  11.403
60197W        W26980   5.918  12.210   2.233
60198W        W26981   3.905  38.919   2.039
60199W        W26982  27.954   5.490  14.597
60200W        W26983  11.659  43.466  10.610
60201W        W26984  30.146  44.781   3.483
60202W        W26985  30.989  25.572  13.392
60203W        W26986  25.255  22.122   3.789
60204W        W26987   5.318  17.591  11.393
60205W        W26988  35.069  10.798   0.369
60206W        W26989  30.583  11.254  12.084
60207W        W26990  13.672  26.512  14.511
60208W        W26991  41.175  17.286   2.348
60209W        W26992  36.415  36.560  10.734
60210W        W26993  39.043  13.401   5.099
60211W        W26994   6.560   2.962   2.122
60212W        W26995  36.020  30.726   1.593
60213W        W26996   5.410  25.428   2.834
60214W        W26997  24.603   4.881  11.780
60215W        W26998  44.856   0.494  12.031
60216W        W26999  24.749  44.739  10.782
60217W        W27000  25.730  16.986  11.054
60218W        W27001  42.972  27.009   3.158
60219W        W27002  44.952  15.609  12.162
60220W        W27003  21.498  23.101   4.558
60221W        W27004  39.780  39.314  11.418
60222W        W27005  22.093   7.437   4.346
60223W        W27006  11.260  15.268   1.133
60224W        W27007  33.999  29.237   4.629
60225W        W27008  16.755  20.471  13.252
60226W        W27009  19.804  26.007   0.586
60227W        W27010   4.232  36.347  10.694
60228W        W27011  14.720  28.653  11.286
60229W        W27012  22.030   8.799  14.862
60230W        W27013  35.880  14.066  13.062
60231W        W27014   9.886  44.762  13.537
60232W        W27015   4.670  10.197  11.926
60233W        W27016  11.201  25.016   1.210
60234W        W27017   4.927  21.164   3.697
60235W        W27018   9.554  37.271   4.057
60236W        W27019  11.661  20.938   2.716
60237W        W27020  33.641   2.357  13.027
60238W        W27021  35.434   1.689   0.230
60239W        W27022  10.633  29.027  12.483
60240W        W27023  14.946   5.376  14.517
60241W        W27024  21.354   7.775   3.697
60242W        W27025  24.930  38.361  14.772
60243W        W27026  35.257  23.441  14.524
60244W        W27027  34.110   6.263  13.864
60245W        W27028  24.932  31.360   0.849
60246W        W27029  11.892  34.521  11.254
60247W        W27030  33.292  17.335   0.180
60248W        W27031  42.548  35.022  14.389
60249W        W27032   2.512  18.292  11.310
60250W        W27033  13.879  14.722   4.915
60251W        W27034   7.826   9.792   4.317
60252W        W27035  18.966  32.686   4.138
60253W        W27036  27.095  13.862   2.334
60254W        W27037  32.441  18.699  11.376
60255W        W27038  40.363  13.041  13.022
60256W        W27039  15.793  33.497  11.517
60257W        W27040  34.602  23.650  13.604
60258W        W27041   5.479  20.153   3.116
60259W        W27042  40.671  36.877   3.667
60260W        W27043   8.783  11.210   2.777
60261W        W27044  15.691  20.958   1.907
60262W        W27045   2.375  41.188  11.958
60263W        W27046  28.031   5.963   4.798
60264W        W27047  29.647  34.288   4.738
60265W        W27048  41.407   2.213   3.515
60266W        W27049  26.232   1.738  11.020
60267W        W27050  39.263  33.909   3.667
60268W        W27051   9.505  14.803  13.987
60269W        W27052  13.568  39.437   2.741
60270W        W27053  43.357  27.101   0.841
60271W        W27054   6.906  40.486  13.438
60272W        W27055  27.138  42.233  10.687
60273W        W27056  15.612   2.815   0.431
60274W        W27057  29.663  25.893   2.869
60275W        W27058  43.967  10.157  13.934
60276W        W27059  17.116  35.803  12.073
60277W        W27060  31.475  37.974  13.848
60278W        W27061  39.327   5.691  13.336
60279W        W27062  15.104  41.892   1.209
60280W        W27063  35.536  11.772  13.106
60281W        W27064   1.978   7.894   1.881
60282W        W27065  13.750  12.864  12.116
60283W        W27066  24.214  34.578  12.967
60284W        W27067  35.122   3.609  13.563
60285W        W27068  34.882  40.908  10.630
60286W        W27069  25.889  18.440   1.824
60287W        W27070   4.889  38.425  14.753
60288W        W27071  16.143  29.361  13.961
60289W        W27072   3.626  41.371  14.867
60290W        W27073  13.604   5.247   1.694
60291W        W27074  44.692  18.083   1.292
60292W        W27075  10.583  42.820  13.746
60293W        W27076  14.608  15.353   0.495
60294W        W27077  19.254  20.763   0.341
60295W        W27078  11.324  42.011  11.641
60296W        W27079  15.316  44.847  12.081
60297W        W27080  14.880  41.935   1.684
60298W        W27081  16.162   9.905   0.331
60299W        W27082   3.436  12.710   3.319
60300W        W27083  43.514   2.020   3.155
60301W        W27084   7.793   7.197  13.005
60302W        W27085  31.184  17.628  10.727
60303W        W27086  43.309  24.695   2.716
60304W        W27087   7.906  40.691  13.445
60305W        W27088  28.073  39.936  12.007
60306W        W27089  41.872  42.788   2.997
60307W        W27090  32.740  20.223  11.925
60308W        W27091   6.510  18.410   5.090
60309W        W27092  34.014  42.423   2.843
60310W        W27093  21.337  12.421   1.404
60311W        W27094  25.174  14.762   2.469
60312W        W27095  17.377  26.746  10.270
60313W        W27096   7.711   0.296  10.836
60314W        W27097  15.327  14.794  12.037
60315W        W27098  25.398   5.639   0.800
60316W        W27099  14.737  24.262   0.499
60317W        W27100  42.275  37.859   2.793
60318W        W27101   6.628   4.728  12.294
60319W        W27102  39.508  33.963   3.204
60320W        W27103  28.020   5.244   3.115
60321W        W27104  29.769  24.019   4.388
60322W        W27105  11.264  38.646   2.225
60323W        W27106  44.770  39.608   0.648
60324W        W27107  22.912  15.410   4.572
60325W        W27108   5.294  17.488  11.906
60326W        W27109  25.615   2.795  11.796
60327W        W27110   7.148  15.213   2.348
60328W        W27111   1.819  38.151  11.646
60329W        W27112  37.660  10.781   1.917
60330W        W27113  28.792  16.240  14.951
60331W        W27114  39.626  37.896  10.832
60332W        W27115  31.563   7.310   2.572
60333W        W27116  41.899   1.826   9.532
60334W        W27117  41.440  12.679   4.069
60335W        W27118  15.277   8.972   3.410
60336W        W27119  20.225  17.908   4.234
60337W        W27120  20.595  12.804  13.278
60338W        W27121  33.404  37.235  13.377
60339W        W27122   0.374  36.916  11.123
60340W        W27123  16.500  43.821   2.204
60341W        W27124  32.113  11.858  12.555
60342W        W27125  24.995  36.009   2.160
60343W        W27126  27.627  21.469  14.966
60344W        W27127  39.822  12.835   3.294
60345W        W27128  17.315  25.003  10.680
60346W        W27129  25.421  32.059  11.342
60347W        W27130  17.036   9.359  12.038
60348W        W27131  38.847   3.693  10.445
60349W        W27132  38.417  12.070  10.697
60350W        W27133  41.101  25.227  12.237
60351W        W27134  18.636   5.045   4.573
60352W        W27135  31.865  22.962   3.263
60353W        W27136   2.414  35.500   1.773
60354W        W27137  34.318  14.427  12.999
60355W        W27138  30.131   7.199  10.708
60356W        W27139   1.294  42.226  11.568
60357W        W27140  44.319  18.701   0.475
60358W        W27141  23.582  28.912  12.817
60359W        W27142   2.696  44.482  11.080
60360W        W27143  12.505  26.014  12.053
60361W        W27144  11.699   8.899  12.903
60362W        W27145   8.871   2.293  10.696
60363W        W27146  34.895   4.197   1.241
60364W        W27147  11.245   6.878   2.173
60365W        W27148  32.120  17.089  11.069
60366W        W27149  38.325  38.733   3.934
60367W        W27150  14.300   1.894   1.020
60368W        W27151  42.433  33.378   2.751
60369W        W27152  23.996   9.212   0.325
60370W        W27153   3.322  20.063  12.639
60371W        W27154  24.362  43.835  13.495
60372W        W27155   7.994   4.334  12.494
60373W        W27156  32.061   9.886   3.839
60374W        W27157  39.865  36.094  11.581
60375W        W27158  35.610  17.412   3.043
60376W        W27159   2.417  37.915  14.424
60377W        W27160  33.125  40.363  12.058
60378W        W27161  18.817  44.730   0.397
60379W        W27162   2.799  36.908   0.279
60380W        W27163  17.268  37.926  11.499
60381W        W27164  19.537  11.941   2.111
60382W        W27165  32.532  34.876  11.925
60383W        W27166  35.567  43.471  14.353
60384W        W27167  10.208   2.969   4.325
60385W        W27168   2.955   9.270  11.876
60386W        W27169  21.088   7.895   1.945
60387W        W27170   6.994  15.274   3.251
60388W        W27171  35.693  27.048   4.660
60389W        W27172  35.068  36.201   1.243
60390W        W27173  23.246  29.131  13.843
60391W        W27174  23.056  25.719   2.423
60392W        W27175  22.749  30.308  14.259
60393W        W27176   8.236  41.443   1.782
60394W        W27177  38.842  29.912   4.767
60395W        W27178  31.970  18.095  13.132
60396W        W27179  43.565  10.281   9.761
60397W        W27180  24.994  20.793  12.609
60398W        W27181  28.208  37.060  14.363
60399W        W27182  36.592  41.257   0.380
60400W        W27183   9.682  35.911  14.308
60401W        W27184  33.786   5.880   3.896
60402W        W27185   2.474  35.644  12.994
60403W        W27186  33.384  17.618   0.928
60404W        W27187  37.901  17.849  13.311
60405W        W27188  31.737   2.150   1.377
60406W        W27189  22.129   4.386   1.054
60407W        W27190  23.211  22.973   2.614
60408W        W27191   7.416  41.350   2.433
60409W        W27192  29.979  34.042   2.971
60410W        W27193  41.867  19.940  11.906
60411W        W27194  31.534  31.106  11.999
60412W        W27195  40.817  43.512  12.470
60413W        W27196  29.365   7.232  11.989
60414W        W27197  19.024  33.043  14.940
60415W        W27198  27.670  34.090  11.432
60416W        W27199   4.215  26.813  11.668
60417W        W27200  44.279  41.121   2.240
60418W        W27201  28.193  24.134  12.434
60419W        W27202  10.356  36.004  12.488
60420W        W27203  22.019   8.694  12.609
60421W        W27204  13.515  16.815  13.462
60422W        W27205   4.964   9.410  10.977
60423W        W27206  16.561  11.923   0.776
60424W        W27207  25.045  34.487  13.821
60425W        W27208  26.817  40.528  12.527
60426W        W27209   9.206  23.132   4.798
60427W        W27210  31.246  40.462  13.496
60428W        W27211  24.989  30.571   0.422
60429W        W27212  26.015  43.052  14.493
60430W        W27213  30.775  27.493   3.745
60431W        W27214   1.729  31.900   3.643
60432W        W27215  42.681  11.620  13.315
60433W        W27216  16.041  21.473   3.757
60434W        W27217  23.133  23.493  14.907
60435W        W27218  23.799  27.927   2.633
60436W        W27219  39.341  16.126   3.042
60437W        W27220  21.461   9.326  13.581
60438W        W27221   0.366  41.501   0.967
60439W        W27222  20.806   7.211   2.643
60440W        W27223  12.643  13.011  10.702
60441W        W27224  22.116   3.562  13.315
60442W        W27225  16.372  37.583  13.074
60443W        W27226  11.202   5.633   4.540
60444W        W27227  13.412  41.617  12.527
60445W        W27228   3.375   7.869   4.102
60446W        W27229  24.856  27.787  12.112
60447W        W27230  41.922  22.817   2.757
60448W        W27231  20.436  31.222  13.408
60449W        W27232   8.311  26.558   2.285
60450W        W27233  34.675  24.111   4.628
60451W        W27234  35.024  32.869  11.591
60452W        W27235   4.330  12.898   4.569
60453W        W27236  39.983   5.670  13.354
60454W        W27237   7.744  38.855  10.670
60455W        W27238  40.079  31.486  10.897
60456W        W27239  29.031  18.862  13.443
60457W        W27240   1.938  24.193   3.748
60458W        W27241  44.277  17.586   2.816
60459W        W27242  11.254  31.401   3.898
60460W        W27243  24.043   2.773  13.499
60461W        W27244  22.704  15.793   3.241
60462W        W27245  42.598   1.875   2.904
60463W        W27246  33.375  35.421   2.752
60464W        W27247  20.981  19.045  13.387
60465W        W27248  39.425  40.988  13.464
60466W        W27249  33.303   0.407  11.114
60467W        W27250  37.837  15.688  13.432
60468W        W27251  13.404  34.098   2.736
60469W        W27252  20.847   0.769   1.961
60470W        W27253  16.994  25.423  10.786
60471W        W27254   8.734  30.030  12.097
60472W        W27255  20.908  23.762  10.414
60473W        W27256  12.938  33.591  14.107
60474W        W27257  32.009   6.940   0.994
60475W        W27258  17.564  21.088  11.068
60476W        W27259   9.391  37.688   1.580
60477W        W27260  16.811  32.155   0.844
60478W        W27261  40.825  18.283  14.892
60479W        W27262  44.572   4.715   4.083
60480W        W27263  18.841   2.933  14.818
60481W        W27264  39.614  30.550   1.307
60482W        W27265  24.971  27.786  10.888
60483W        W27266  31.918  23.016   2.372
60484W        W27267   6.736  18.239   3.568
60485W        W27268  10.092  42.949   4.018
60486W        W27269  29.017  18.602  10.754
60487W        W27270  26.869  22.843   4.973
60488W        W27271  21.197   8.310   4.779
60489W        W27272  33.579   4.619   4.565
60490W        W27273  31.002   6.096   4.058
60491W        W27274   8.154   5.213  10.969
60492W        W27275   5.731  10.442   1.674
60493W        W27276   5.347   7.231  12.069
60494W        W27277  42.956  21.072  13.512
60495W        W27278  37.960   7.799  11.042
60496W        W27279  14.554  36.301   4.092
60497W        W27280  16.104   8.722  14.450
60498W        W27281  32.853  26.076  11.192
60499W        W27282   4.292  21.829   4.128
60500W        W27283  38.845  32.435   1.162
60501W        W27284   7.146  13.669  10.679
60502W        W27285  31.567  40.547  12.159
60503W        W27286  18.222  27.166   4.701
60504W        W27287  19.665  44.560   4.582
60505W        W27288  41.544  12.454   5.547
60506W        W27289  25.824   6.304   3.778
60507W        W27290  16.286  18.068   2.800
60508W        W27291   1.747  12.107   3.283
60509W        W27292  11.155  40.798   2.735
60510W        W27293  18.616  44.692  14.498
60511W        W27294  20.535  34.963   2.859
60512W        W27295  43.300   6.757  10.289
60513W        W27296   4.413   6.634   3.680
60514W        W27297  32.593  21.483   2.602
60515W        W27298  36.619  21.211  11.672
60516W        W27299   0.797  28.401   3.104
60517W        W27300  15.678   6.705   0.656
60518W        W27301  24.484   4.100   4.249
60519W        W27302  18.722  22.585   3.623
60520W        W27303  25.996  16.233   2.246
60521W        W27304   0.821  44.416  10.862
60522W        W27305  21.026  29.389  12.863
60523W        W27306  11.889  41.000   0.391
60524W        W27307  30.594  13.570   4.486
60525W        W27308  14.126  25.643  12.432
60526W        W27309  21.914  18.731   1.671
60527W        W27310  38.385  35.479  12.027
60528W        W27311  29.462   3.122   4.123
60529W        W27312   7.399  19.197  12.942
60530W        W27313  20.818  16.831  10.965
60531W        W27314  26.085  21.469   3.139
60532W        W27315  13.134  39.850  13.865
60533W        W27316   1.201  38.538   1.176
60534W        W27317  37.387  11.585  10.293
60535W        W27318  18.508  27.121   2.404
60536W        W27319   9.907  38.464  11.431
60537W        W27320  25.551  27.909   3.849
60538W        W27321   1.535  26.453  13.030
60539W        W27322  22.111  27.420  14.524
60540W        W27323  26.454  26.628  10.035
60541W        W27324  24.146  19.539   3.810
60542W        W27325  30.374   3.741  12.923
60543W        W27326  23.574   1.042  11.253
60544W        W27327  24.839  11.665   4.125
60545W        W27328  18.864  25.193  10.745
60546W        W27329  14.185  15.736  14.746
60547W        W27330  40.450  15.319   2.713
60548W        W27331   6.744  17.489   4.641
60549W        W27332  29.103  28.514  13.086
60550W        W27333  19.722   1.945   1.395
60551W        W27334   4.619   3.823  14.831
60552W        W27335  44.815  18.823  11.718
60553W        W27336  42.297  10.415  14.086
60554W        W27337  32.194  26.065  12.593
60555W        W27338   1.941  13.181   4.909
60556W        W27339  28.941   6.123   4.571
60557W        W27340   3.992  19.048   3.725
60558W        W27341  39.260  20.122  11.183
60559W        W27342   1.125  26.016   0.489
60560W        W27343  42.350  13.199  12.271
60561W        W27344   8.183  21.070   3.172
60562W        W27345  41.337  19.717  13.504
60563W        W27346  35.568  44.326  11.494
60564W        W27347  15.160  29.928   4.762
60565W        W27348   3.291  43.434  11.529
60566W        W27349  19.148  36.487   3.803
60567W        W27350  38.618  41.085   2.266
60568W        W27351  32.608  27.490  12.891
60569W        W27352   6.375  16.129  14.475
60570W        W27353  41.316  12.426  10.460
60571W        W27354   2.500  12.216  13.775
60572W        W27355   9.278   8.368  13.664
60573W        W27356   0.126   2.880  12.383
60574W        W27357   6.231  24.861  14.037
60575W        W27358  44.370  29.657   1.276
60576W        W27359   5.179  29.859  12.126
60577W        W27360  17.152   1.475   3.270
60578W        W27361  23.805  19.585  10.675
60579W        W27362   9.889  43.909   1.812
60580W        W27363  26.396  36.174  10.963
60581W        W27364  24.934  12.119  13.423
60582W        W27365  39.371   0.933   4.503
60583W        W27366  13.302  21.655  14.870
60584W        W27367  17.194  21.522   4.721
60585W        W27368  27.043  20.134   2.208
60586W        W27369  38.480  29.652   3.665
60587W        W27370   4.231  42.557  13.500
60588W        W27371  17.769  12.702   1.349
60589W        W27372  22.599  12.301   3.407
60590W        W27373  15.547  13.331   3.634
60591W        W27374  41.403  29.951  12.518
60592W        W27375   5.566  18.159   0.933
60593W        W27376   7.183  21.467  11.206
60594W        W27377  28.595  30.518   3.420
60595W        W27378   8.594  36.794   1.006
60596W        W27379  31.071  10.365   1.179
60597W        W27380  14.371  44.252   1.869
60598W        W27381  37.791  21.056   2.858
60599W        W27382  20.116  14.467  12.025
60600W        W27383  34.956  24.729  11.168
60601W        W27384  17.885  42.526  12.779
60602W        W27385  15.677  19.549   1.315
60603W        W27386  36.492   6.284  14.240
60604W        W27387  40.698  43.967  13.785
60605W        W27388  43.435  16.263   1.520
60606W        W27389  25.991   5.897   1.850
60607W        W27390  41.045   3.454   3.275
60608W        W27391   3.453  12.838   1.428
60609W        W27392  33.396  22.307   2.692
60610W        W27393   0.866  21.509   1.017
60611W        W27394  37.276   8.243   1.088
60612W        W27395  31.631  21.466   1.635
60613W        W27396   9.100  40.595   0.319
60614W        W27397  16.589  28.583  14.001
60615W        W27398   9.242  41.305  12.186
60616W        W27399   4.444  35.921   2.878
60617W        W27400  15.755  44.882  11.804
60618W        W27401   2.328   7.689  10.467
60619W        W27402   0.997   1.219   0.870
60620W        W27403  30.342   9.291   2.852
60621W        W27404  20.139  31.397   4.577
60622W        W27405  35.437  33.936   2.636
60623W        W27406   8.949  42.388   1.789
60624W        W27407  10.781  33.812  13.442
60625W        W27408  25.689  18.916   1.973
60626W        W27409  34.479   5.248   3.629
60627W        W27410   6.620  31.012   4.002
60628W        W27411  40.084  28.505  11.954
60629W        W27412  26.129  22.040   4.420
60630W        W27413   1.525  40.461   3.233
60631W        W27414  29.602  24.555  12.386
60632W        W27415  34.567  11.803   1.396
60633W        W27416  31.236   9.730  12.435
60634W        W27417  23.522  28.019   1.705
60635W        W27418  31.336  29.636  12.110
60636W        W27419  27.060  42.468   4.365
60637W        W27420  23.668  26.213  13.473
60638W        W27421  21.900  23.245  12.663
60639W        W27422  25.043  31.649   1.792
60640W        W27423   6.628  16.480  13.789
60641W        W27424  12.677   3.258  14.417
60642W        W27425   1.218  36.879  13.522
60643W        W27426  30.049  26.095  14.760
60644W        W27427  24.829   1.554   4.008
60645W        W27428   2.201   9.754   2.123
60646W        W27429   5.973   7.008  14.708
60647W        W27430  17.909  31.883  10.749
60648W        W27431   4.810  44.783   4.758
60649W        W27432  32.206  25.196  14.721
60650W        W27433   4.743  35.410   3.559
60651W        W27434   2.512   6.728   0.417
60652W        W27435  15.688  14.649   4.425
60653W        W27436  14.675   9.754   1.235
60654W        W27437  44.873  12.117   3.606
60655W        W27438  20.141   0.728  13.393
60656W        W27439  19.712  21.058  11.952
60657W        W27440   7.775  24.889   4.593
60658W        W27441  11.262  23.587   0.738
60659W        W27442  40.712   3.755   0.206
60660W        W27443  13.305  37.658  14.144
60661W        W27444  40.420  31.961  10.035
60662W        W27445  36.019  20.816  10.821
60663W        W27446   0.185   7.923  14.293
60664W        W27447  14.866   3.720  14.712
60665W        W27448  36.991  38.879   3.743
60666W        W27449  18.733  38.642  13.004
60667W        W27450   4.794  29.210  13.363
60668W        W27451  14.797  44.471   2.750
60669W        W27452  27.649  33.902  14.798
60670W        W27453  32.862  15.288   3.026
60671W        W27454  15.534  14.804   2.169
60672W        W27455  23.203  21.133   3.945
60673W        W27456  28.952  17.987   0.324
60674W        W27457  21.478  37.953   0.886
60675W        W27458   9.579   5.227  11.049
60676W        W27459   7.709   8.963   1.173
60677W        W27460  17.204   3.170  13.920
60678W        W27461  17.013  38.109  11.041
60679W        W27462  41.458  44.427   3.102
60680W        W27463  20.218  31.600   1.618
60681W        W27464  26.030  25.019  14.561
60682W        W27465  24.091  30.652  14.503
60683W        W27466  30.507  43.260  13.509
60684W        W27467  37.496  16.544   4.220
60685W        W27468  42.436  21.092   2.784
60686W        W27469  34.969  42.416  10.708
60687W        W27470  12.364   7.778  13.772
60688W        W27471  31.241  30.400   4.172
60689W        W27472  17.882  39.594  14.435
60690W        W27473  29.386  30.584   2.364
60691W        W27474  41.431   9.845   1.429
60692W        W27475   1.875   5.650   3.274
60693W        W27476   3.196   8.244  12.908
60694W        W27477  25.640  24.021   1.890
60695W        W27478  11.500  24.148  13.890
60696W        W27479   5.884  20.177   0.865
60697W        W27480  30.147  39.337  10.390
60698W        W27481   9.738  38.030  13.676
60699W        W27482  29.648  20.064  14.763
60700W        W27483  26.493   2.316   2.445
60701W        W27484  39.480   1.746   4.815
60702W        W27485  44.210  41.798   4.419
60703W        W27486  34.457  35.550   2.253
60704W        W27487  38.102   2.304  13.060
60705W        W27488  36.746  39.718   2.179
60706W        W27489  33.030  17.592   3.634
60707W        W27490   7.692   0.624  11.723
60708W        W27491  19.485  30.071  10.605
60709W        W27492  17.846  38.922   4.552
60710W        W27493  30.111  19.020   3.340
60711W        W27494  38.539   0.305   3.771
60712W        W27495  22.220   7.120   3.324
60713W        W27496  33.047  37.125  14.885
60714W        W27497  10.540  21.582  14.110
60715W        W27498  11.112  33.624   2.694
60716W        W27499  42.907  39.219   1.241
60717W        W27500  44.224  18.549   4.576
60718W        W27501  10.438   4.534  12.949
60719W        W27502   5.915  34.855   4.619
60720W        W27503  33.173  11.129  12.797
60721W        W27504  33.326  35.554   4.576
60722W        W27505  26.338  38.880   1.656
60723W        W27506  14.887  17.144  12.667
60724W        W27507   4.113  14.211  10.861
60725W        W27508  29.900  41.538  14.371
60726W        W27509   1.490  22.046   1.599
60727W        W27510   3.156   3.239   1.949
60728W        W27511  24.054  29.972  13.065
60729W        W27512  21.043  38.388   0.370
60730W        W27513  14.982  42.010  10.974
60731W        W27514   8.330  17.475   0.408
60732W        W27515  26.974  35.536   1.905
60733W        W27516   4.437  34.374   3.875
60734W        W27517  17.186  36.507   2.807
60735W        W27518  33.849  25.765   3.190
60736W        W27519   1.265  42.400   1.712
60737W        W27520  31.549  27.549  13.904
60738W        W27521  24.409  42.803  13.550
60739W        W27522  19.143  10.530  12.264
60740W        W27523  40.552   4.434  11.725
60741W        W27524  40.752  28.424  10.630
60742W        W27525   2.454  28.952  10.710
60743W        W27526  29.485  26.214  10.986
60744W        W27527  20.471   0.416   5.543
60745W        W27528  34.941  25.239  10.251
60746W        W27529   9.986  24.105  11.711
60747W        W27530  43.036  41.324  12.071
60748W        W27531   5.692   2.998  11.130
60749W        W27532  39.412  18.962  13.535
60750W        W27533  19.812  33.376  12.839
60751W        W27534   3.837   5.339   2.285
60752W        W27535  12.642  13.084  12.215
60753W        W27536  42.862   1.245  10.542
60754W        W27537   4.379   7.455  11.542
60755W        W27538  38.811  21.144   3.588
60756W        W27539  42.959   5.110   2.415
60757W        W27540  27.001  17.856   4.784
60758W        W27541  36.110  33.719   4.168
60759W        W27542  12.670  35.457   1.263
60760W        W27543  36.045  28.368   5.064
60761W        W27544  29.376  27.477   3.858
60762W        W27545   7.909  33.003  11.584
60763W        W27546  40.254  43.314  14.001
60764W        W27547  14.264  36.129  14.755
60765W        W27548  16.083  27.979  10.734
60766W        W27549  22.537   7.335   0.953
60767W        W27550  10.349  28.337  14.016
60768W        W27551  38.534  39.301  13.450
60769W        W27552  19.677  39.882   1.546
60770W        W27553  44.768  14.615   0.300
60771W        W27554  11.271  42.078  12.549
60772W        W27555  16.410  35.932  10.760
60773W        W27556  21.776  19.711   5.139
60774W        W27557  39.850  10.158  14.790
60775W        W27558  42.650   4.182  13.028
60776W        W27559  31.719  35.680  11.469
60777W        W27560  22.472  27.086   2.713
60778W        W27561  36.809  37.641   3.253
60779W        W27562   7.601   4.287   3.223
60780W        W27563  25.979  23.635   3.715
60781W        W27564  38.214  35.539   2.223
60782W        W27565   7.660  23.002   0.660
60783W        W27566   1.586   7.622   4.404
60784W        W27567  31.111  28.758   4.497
60785W        W27568  23.052  11.294   3.411
60786W        W27569  12.949   0.047  14.104
60787W        W27570  34.425  25.723  14.513
60788W        W27571  20.725  24.407  11.194
60789W        W27572  26.112  36.490   1.342
60790W        W27573  44.520  38.772  13.781
60791W        W27574  25.435  15.571   2.179
60792W        W27575  26.966  42.764  14.911
60793W        W27576  11.467  28.665   2.300
60794W        W27577  16.671  34.884   2.716
60795W        W27578   2.272  13.735   4.555
60796W        W27579  37.932   2.345  11.790
60797W        W27580  43.726  30.144  10.601
60798W        W27581  35.552  30.502   1.790
60799W        W27582  29.368  37.953  12.275
60800W        W27583  24.918  20.813  13.909
60801W        W27584  36.537  42.943   4.474
60802W        W27585  33.904  31.439  13.824
60803W        W27586  39.023  18.066   3.590
60804W        W27587  31.951  14.597   1.662
60805W        W27588  32.159  24.528   2.337
60806W        W27589  38.470  33.406   2.982
60807W        W27590   8.901   8.099  11.524
60808W        W27591   5.219  33.890  12.663
60809W        W27592  20.344  19.530   1.829
60810W        W27593  25.202  18.227   3.307
60811W        W27594  29.650  28.643   3.205
60812W        W27595   6.371  22.161  14.934
60813W        W27596  43.677  24.265  10.455
60814W        W27597   3.180  20.702  13.440
60815W        W27598  12.076  27.167   3.669
60816W        W27599  24.054   9.438   3.162
60817W        W27600  33.100  21.481   3.962
60818W        W27601   4.970   0.810  12.962
60819W        W27602   9.637  30.863   2.183
60820W        W27603  34.500   5.234  13.865
60821W        W27604  36.039  36.165  11.520
60822W        W27605   7.223  29.103  12.905
60823W        W27606  30.023  16.120   3.099
60824W        W27607  29.382   5.658  13.473
60825W        W27608  19.629  11.210  10.563
60826W        W27609  11.655   0.927  10.746
60827W        W27610  35.540  39.460   1.402
60828W        W27611  16.250  10.039  13.912
60829W        W27612   0.901  11.743   2.346
60830W        W27613  38.437  25.395  14.312
60831W        W27614  44.481   2.447  13.047
60832W        W27615   1.802  15.342   4.733
60833W        W27616  21.159  17.985  12.117
60834W        W27617  43.003  11.884   0.179
60835W        W27618  25.649  16.601  12.343
60836W        W27619  41.587  29.112  13.314
60837W        W27620   5.634  10.959   4.017
60838W        W27621  42.490  14.295   4.394
60839W        W27622   9.384  15.767   2.233
60840W        W27623  11.413  28.598  12.975
60841W        W27624  29.885  27.837   1.280
60842W        W27625  44.308  26.969   4.361
60843W        W27626  44.793   1.175   1.000
60844W        W27627  24.647  23.759  11.565
60845W        W27628  30.508  11.196  13.836
60846W        W27629  12.152  24.007   0.261
60847W        W27630  23.991  38.010   0.412
60848W        W27631  27.129   0.956   3.672
60849W        W27632   4.592  13.993  10.829
60850W        W27633  15.805  21.027   2.728
60851W        W27634  38.005   9.179  11.647
60852W        W27635   2.724   8.107  13.822
60853W        W27636  14.588  27.909   1.710
60854W        W27637   1.943   5.490  11.672
60855W        W27638  27.389  26.159  12.968
60856W        W27639  22.731   3.971   0.455
60857W        W27640  38.430  41.243   4.650
60858W        W27641  39.925  15.648  13.993
60859W        W27642  42.794  40.294   2.131
60860W        W27643  21.966  33.675  12.407
60861W        W27644  37.970   5.248  13.810
60862W        W27645  20.828  15.561   3.259
60863W        W27646  17.357   4.368   2.933
60864W        W27647   7.895  39.184  13.063
60865W        W27648  15.547   7.923   2.706
60866W        W27649  34.087  24.426  14.260
60867W        W27650   7.109  18.707   1.277
60868W        W27651  44.310  44.843   2.663
60869W        W27652  25.561   5.695  11.637
60870W        W27653   6.174  43.450  13.825
60871W        W27654  22.465   2.240  12.940
60872W        W27655  41.390  33.561   2.585
60873W        W27656  20.478  11.248  13.559
60874W        W27657  13.725   7.164  14.029
60875W        W27658  21.569  31.378  11.590
60876W        W27659  35.390  26.562   2.784
60877W        W27660  33.851  14.539  12.797
60878W        W27661  44.421  37.515   4.524
60879W        W27662  29.702  20.622   1.774
60880W        W27663  24.742   5.702  10.344
60881W        W27664  15.827  30.068  10.263
60882W        W27665   1.908   3.418  14.721
60883W        W27666   9.108  33.694  10.815
60884W        W27667   7.838  35.899  14.796
60885W        W27668   6.415   5.320   4.242
60886W        W27669  19.401  14.180  12.463
60887W        W27670  14.444  20.639   0.158
60888W        W27671  34.823   5.544  11.997
60889W        W27672  34.118  22.050  14.538
60890W        W27673  40.831   5.835   2.000
60891W        W27674  14.755  12.047  10.242
60892W        W27675  10.232  28.561  13.314
60893W        W27676  32.243  41.326  12.264
60894W        W27677  17.692  38.757  14.798
60895W        W27678   0.127  13.391   0.822
60896W        W27679  28.698   1.411  12.353
60897W        W27680  24.441  30.792   1.373
60898W        W27681   5.975  29.156  11.198
60899W        W27682  42.850   5.705  10.581
60900W        W27683   4.832  15.446   3.620
60901W        W27684  17.704   4.228   3.619
60902W        W27685  20.542  28.041   4.724
60903W        W27686   2.743  17.601  12.435
60904W        W27687  18.270  11.446  14.266
60905W        W27688  13.176  14.017   4.893
60906W        W27689  38.958   8.853  12.873
60907W        W27690  36.640  27.896   4.567
60908W        W27691  17.619  13.785  12.419
60909W        W27692  40.090   6.431  14.496
60910W        W27693  22.661  39.017  14.783
60911W        W27694  37.998  17.624   0.795
60912W        W27695   8.254  23.489  12.903
60913W        W27696  34.006  15.347  14.078
60914W        W27697  18.280  14.599   3.996
60915W        W27698  35.471  15.848   4.072
60916W        W27699  23.198   9.885   0.429
60917W        W27700  37.385  23.603   4.223
60918W        W27701  10.356   4.847  13.548
60919W        W27702  14.636  43.859  12.973
60920W        W27703   0.860  33.788   3.362
60921W        W27704  14.501   8.327   2.184
60922W        W27705   2.988  16.845  13.388
60923W        W27706  40.357  34.815  12.979
60924W        W27707  40.293  39.729   2.770
60925W        W27708   6.349  22.003   3.837
60926W        W27709  43.669  34.012  13.042
60927W        W27710   9.705   3.856  11.370
60928W        W27711  23.265  22.105   4.523
60929W        W27712  36.027   3.962  13.094
60930W        W27713  23.496   6.862  10.234
60931W        W27714  31.117  26.935   1.045
60932W        W27715  32.414  16.048   1.523
60933W        W27716  32.751  40.020  12.866
60934W        W27717   0.829   0.431  11.891
60935W        W27718  28.714  17.792   2.631
60936W        W27719  25.061  10.407   9.978
60937W        W27720  13.632   3.829  14.218
60938W        W27721  34.293  17.898   4.571
60939W        W27722  24.673  41.597   3.761
60940W        W27723  13.333  21.923   1.731
60941W        W27724  12.998  34.916   0.704
60942W        W27725  20.708  42.469   4.502
60943W        W27726   9.418   8.739  14.819
60944W        W27727   5.747  36.373  12.175
60945W        W27728   0.977   2.746  13.272
60946W        W27729  15.784  17.192  11.127
60947W        W27730  25.911  20.768   0.477
60948W        W27731  44.173   5.677   3.802
60949W        W27732   6.610  28.003   1.869
60950W        W27733  38.563  43.819   1.709
60951W        W27734  14.302  30.414  10.213
60952W        W27735  28.979   3.829  13.502
60953W        W27736  35.046  30.169  12.881
60954W        W27737  38.405   8.283  11.659
60955W        W27738  21.315  37.851  13.472
60956W        W27739  40.710  34.238   4.065
60957W        W27740   2.423   7.792  13.513
60958W        W27741  39.967  11.120  14.466
60959W        W27742   3.900   2.268  13.019
60960W        W27743  44.861  24.571   2.626
60961W        W27744   7.363   9.411   9.963
60962W        W27745  22.044  14.785  13.307
60963W        W27746   1.562  29.476  14.579
60964W        W27747  22.571  24.222   0.228
60965W        W27748  28.602  23.272  10.558
60966W        W27749   2.420  34.270  12.402
60967W        W27750   1.841   6.878  11.679
60968W        W27751  17.999  14.873   3.644
60969W        W27752  36.784  39.070   2.844
60970W        W27753   2.215   1.209   2.695
60971W        W27754  19.621  24.117  12.280
60972W        W27755   8.747  40.210   1.954
60973W        W27756  44.883  25.868   4.686
60974W        W27757  42.053   4.807   0.819
60975W        W27758  21.984  33.617  11.516
60976W        W27759  34.503   5.595   4.650
60977W        W27760  25.305  44.437  14.728
60978W        W27761  41.059  26.560   0.811
60979W        W27762   3.679  39.355   0.288
60980W        W27763  22.974  20.280   1.991
60981W        W27764  32.625  44.909   4.130
60982W        W27765  21.157   9.920   2.346
60983W        W27766  31.908  43.307   0.227
60984W        W27767  32.954  30.444   1.870
60985W        W27768   1.656   3.773   3.230
60986W        W27769  28.129  22.572   4.009
60987W        W27770  31.008  27.203  14.999
60988W        W27771   8.861  31.454  13.603
60989W        W27772  32.015   0.784   3.192
60990W        W27773  42.982  15.092   0.966
60991W        W27774   0.050  25.188   3.701
60992W        W27775  26.593  42.366   4.592
60993W        W27776  28.675  37.321  11.584
60994W        W27777  26.875  22.490   4.048
60995W        W27778  11.106  17.931  14.349
60996W        W27779  38.076   9.330  12.139
60997W        W27780   3.383  21.429   1.590
60998W        W27781  35.571   0.735  11.971
60999W        W27782  41.987  43.831  12.024
61000W        W27783  28.240  35.267   4.082
61001W        W27784  10.296  33.376  10.700
61002W        W27785  20.864  18.241  12.754
61003W        W27786  26.264   3.358   4.109
61004W        W27787  25.597  18.373   1.193
61005W        W27788   3.407  10.991   1.230
61006W        W27789  16.216  25.297   3.344
61007W        W27790  24.956  32.461   3.126
61008W        W27791  36.994  34.485   1.404
61009W        W27792  20.205   5.708   4.469
61010W        W27793   7.154  41.392   1.463
61011W        W27794  31.449   5.814  10.848
61012W        W27795  14.193  44.318  12.587
61013W        W27796  34.684  44.323  11.252
61014W        W27797  21.226  41.353   1.337
61015W        W27798   5.415  34.854  11.602
61016W        W27799  12.689  38.852  13.007
61017W        W27800  10.716  43.835  13.889
61018W        W27801  42.715  18.239   1.779
61019W        W27802   9.423  16.630  11.667
61020W        W27803  29.892  10.670  11.609
61021W        W27804   9.752  35.448  13.933
61022W        W27805  44.797  22.047  14.281
61023W        W27806  19.606   8.655   2.648
61024W        W27807   2.430  12.592   2.893
61025W        W27808  42.289  16.818  13.195
61026W        W27809   4.342  42.027   4.734
61027W        W27810  13.759  31.728   0.415
61028W        W27811   8.756   6.014  14.677
61029W        W27812  14.523  26.537   0.896
61030W        W27813  18.658   4.888  13.678
61031W        W27814   3.893   6.797  11.947
61032W        W27815  26.811  42.832   4.590
61033W        W27816  20.051  37.981  14.305
61034W        W27817  10.843  24.161  10.744
61035W        W27818  18.203  42.223   1.262
61036W        W27819   1.061  32.452   3.696
61037W        W27820   6.372  34.103  13.344
61038W        W27821  33.804  21.929   2.284
61039W        W27822  30.715  20.158  10.772
61040W        W27823  33.106  16.656   2.111
61041W        W27824  35.429  16.289  12.083
61042W        W27825  34.330  23.949  11.067
61043W        W27826  30.762  18.754  11.925
61044W        W27827  27.018   9.715   3.159
61045W        W27828  11.658   8.705  14.756
61046W        W27829  40.888  27.019   2.356
61047W        W27830  30.153  37.927  14.437
61048W        W27831  29.432  19.969   1.317
61049W        W27832  30.075   7.725  10.929
61050W        W27833  21.230   2.454   1.803
61051W        W27834  43.472  24.542  11.638
61052W        W27835  18.217  42.696  14.416
61053W        W27836  32.346  21.266  12.669
61054W        W27837   8.690  41.438   3.622
61055W        W27838  19.014  21.579   3.637
61056W        W27839   5.651   2.539  12.027
61057W        W27840  24.756   1.900  13.816
61058W        W27841  29.289  16.003  11.147
61059W        W27842  43.608  40.731  10.336
61060W        W27843  14.270  22.590  13.383
61061W        W27844  23.073  19.753  12.312
61062W        W27845  23.549  40.599  10.986
61063W        W27846   1.561  32.624   3.006
61064W        W27847  41.337   1.278  14.211
61065W        W27848  42.985  37.939  13.689
61066W        W27849  38.963  17.822  11.551
61067W        W27850  27.617   2.325   2.343
61068W        W27851  19.659  43.458  12.841
61069W        W27852   2.573  31.670   3.759
61070W        W27853  10.628  39.651   2.214
61071W        W27854   4.363  35.785   2.383
61072W        W27855  19.076  28.987  11.888
61073W        W27856  12.483  29.969  14.031
61074W        W27857  16.266  34.289  14.241
61075W        W27858   7.129   3.548   3.656
61076W        W27859   8.402  41.102  11.673
61077W        W27860  43.522  21.923   2.789
61078W        W27861  35.111   9.877   5.162
61079W        W27862  33.628  42.560   4.145
61080W        W27863   8.105  16.082   2.226
61081W        W27864  20.632  16.676   0.299
61082W        W27865  24.881   3.204  11.181
61083W        W27866  16.607  32.983  12.107
61084W        W27867  30.109  21.386   3.251
61085W        W27868  11.890  11.235  11.572
61086W        W27869  41.452   6.408  13.185
61087W        W27870   8.043   9.780  14.236
61088W        W27871  25.032   1.307  10.751
61089W        W27872  43.541  36.425   4.431
61090W        W27873   6.954  26.554   4.091
61091W        W27874   7.355  44.062  10.957
61092W        W27875  37.328  22.013   1.836
61093W        W27876  13.883  44.423  10.646
61094W        W27877   9.056   6.360  13.055
61095W        W27878  39.636  23.536   2.832
61096W        W27879   0.220  33.473  10.511
61097W        W27880  35.791  20.480  11.680
61098W        W27881  23.962  10.684   2.609
61099W        W27882   4.752   8.334  11.575
61100W        W27883  39.744   5.184  13.294
61101W        W27884  17.843  10.318   3.307
61102W        W27885   6.949   0.750  13.034
61103W        W27886  34.023  11.820   1.384
61104W        W27887  10.101  21.841  14.294
61105W        W27888  19.057  35.107   3.325
61106W        W27889   8.478  44.705   1.344
61107W        W27890  24.069  36.510   3.244
61108W        W27891  39.022  20.190   3.380
61109W        W27892  29.460   2.382   4.512
61110W        W27893  25.929  39.442   3.067
61111W        W27894  11.701  36.104  11.964
61112W        W27895  23.144   7.241   3.114
61113W        W27896  34.189   8.045  14.391
61114W        W27897  25.170  40.840  14.810
61115W        W27898   3.661  14.089   4.285
61116W        W27899   3.723  25.196  13.119
61117W        W27900  34.703  43.980   4.152
61118W        W27901  18.716  35.824  13.489
61119W        W27902  14.075  20.949  13.744
61120W        W27903  36.425  36.553  11.613
61121W        W27904  11.813   4.550  12.979
61122W        W27905  25.721   8.705  11.194
61123W        W27906  32.247  18.166   4.777
61124W        W27907  43.052  38.310  13.314
61125W        W27908  24.524  31.218  11.501
61126W        W27909  28.914   5.841   0.490
61127W        W27910  26.076  39.270   2.602
61128W        W27911  34.310   4.441  12.402
61129W        W27912   2.095  11.059   2.268
61130W        W27913   3.981  36.075  14.869
61131W        W27914  36.081  29.225  12.552
61132W        W27915  19.861  22.792   4.065
61133W        W27916   6.818  41.481  11.776
61134W        W27917  31.910  21.244   2.807
61135W        W27918  39.378   6.264  13.858
61136W        W27919  28.472  20.037  14.776
61137W        W27920  34.950  13.776   3.319
61138W        W27921   2.742  38.946   3.228
61139W        W27922  41.921  19.283   9.905
61140W        W27923   7.677   4.753  12.507
61141W        W27924  17.644   5.671   3.213
61142W        W27925  13.819  28.168   4.021
61143W        W27926  15.635  21.790   3.745
61144W        W27927   9.348  38.481  14.362
61145W        W27928  36.010  34.283  12.591
61146W        W27929  18.736  39.902   2.312
61147W        W27930   9.801   7.895   1.281
61148W        W27931   9.775  40.575  14.950
61149W        W27932  31.506  29.610  10.682
61150W        W27933   9.552  38.593   4.508
61151W        W27934  34.904  16.397   1.773
61152W        W27935  22.673  23.766   1.779
61153W        W27936  38.858  30.503  10.549
61154W        W27937  19.367   8.685  11.185
61155W        W27938  43.120  17.209   4.503
61156W        W27939  16.008  44.568   4.185
61157W        W27940  25.943  31.659   4.606
61158W        W27941  18.957  21.702  10.622
61159W        W27942  44.968  21.011   2.875
61160W        W27943  40.025  16.753  13.822
61161W        W27944  44.835   3.666  11.287
61162W        W27945  24.385  24.185  10.705
61163W        W27946  36.617   9.812  13.374
61164W        W27947  35.360  31.142   1.386
61165W        W27948  37.885  34.530  11.430
61166W        W27949  17.647  25.757   2.172
61167W        W27950  25.645   7.911   4.492
61168W        W27951  21.930   7.384   1.851
61169W        W27952   6.264  18.705  12.078
61170W        W27953  20.713   4.905  14.460
61171W        W27954   6.211  26.685  14.930
61172W        W27955  19.097  19.323  11.465
61173W        W27956   1.623  28.922   0.759
61174W        W27957  17.086  15.731  13.584
61175W        W27958   1.033  40.353   3.525
61176W        W27959  21.726  23.683   3.711
61177W        W27960  17.295  39.037  14.285
61178W        W27961  17.345  35.529   2.866
61179W        W27962  25.726  29.869  14.324
61180W        W27963   2.928  42.998   2.685
61181W        W27964   7.693   1.877  11.307
61182W        W27965  15.837  37.616   3.118
61183W        W27966  40.244   9.790   3.512
61184W        W27967  21.156  11.710  12.008
61185W        W27968  37.559  14.085   2.796
61186W        W27969  17.414  27.541   1.050
61187W        W27970   9.289  26.021  13.127
61188W        W27971  10.192  23.092  10.667
61189W        W27972  16.835  44.420  10.531
61190W        W27973  26.593  35.833  11.799
61191W        W27974   8.670  41.210   4.758
61192W        W27975  18.033  33.366   4.452
61193W        W27976  41.834  20.800   4.244
61194W        W27977  39.947  40.303  13.619
61195W        W27978  43.887   8.157   0.051
61196W        W27979  34.447   6.157  14.360
61197W        W27980  27.169  29.065  12.031
61198W        W27981  26.388  42.846   3.243
61199W        W27982  36.030   1.878  11.904
61200W        W27983  19.790  44.336  11.189
61201W        W27984   8.906   0.501  14.015
61202W        W27985  44.869   5.615  13.666
61203W        W27986   0.962  24.091  10.667
61204W        W27987  23.898  31.607  13.464
61205W        W27988   8.939  38.492  10.989
61206W        W27989  35.779  14.533  12.004
61207W        W27990  36.877  41.963   3.807
61208W        W27991  29.687  28.962   1.465
61209W        W27992   3.165  35.291  12.007
61210W        W27993   4.501  36.958  13.465
61211W        W27994  24.901  30.932  11.768
61212W        W27995  26.791  33.895  10.476
61213W        W27996  44.082   7.742   2.616
61214W        W27997  23.029  12.124   2.305
61215W        W27998  27.840   1.897   4.066
61216W        W27999  22.158  27.569   0.024
61217W        W28000  14.713  21.629  14.961
61218W        W28001  28.117  31.578   3.652
61219W        W28002  34.772  19.178   0.527
61220W        W28003  33.032  19.028  12.394
61221W        W28004  11.621  12.235  13.129
61222W        W28005  10.128   9.889  12.199
61223W        W28006   9.353  21.863   0.424
61224W        W28007  32.867  44.423   3.292
61225W        W28008  42.433   6.760  11.983
61226W        W28009   1.207  19.618  11.499
61227W        W28010   9.173  24.311  11.319
61228W        W28011   6.371   8.995  13.973
61229W        W28012  34.623  14.699  13.423
61230W        W28013  10.193  28.189   5.025
61231W        W28014   2.305  20.437   1.265
61232W        W28015  11.250   7.333  14.797
61233W        W28016  17.882  28.977  12.646
61234W        W28017  27.055  29.021   0.733
61235W        W28018  20.857  14.110   3.328
61236W        W28019   2.995  19.489  11.095
61237W        W28020  20.166   7.342   3.803
61238W        W28021  19.819  44.876   1.927
61239W        W28022   3.988  12.073   3.731
61240W        W28023   5.834  37.114   3.343
61241W        W28024   5.271  24.390  10.837
61242W        W28025  33.594  29.098   1.653
61243W        W28026  24.741  14.559   2.797
61244W        W28027  34.002  41.997  10.688
61245W        W28028  23.618  34.235  10.888
61246W        W28029  13.882  31.581   4.658
61247W        W28030   4.481  21.199   2.876
61248W        W28031  31.538  24.296  11.072
61249W        W28032  29.945  19.463   3.161
61250W        W28033  29.770   6.583  13.479
61251W        W28034  42.983  28.664   0.381
61252W        W28035  11.569  25.054  13.247
61253W        W28036   4.010  19.465  11.035
61254W        W28037  41.765   8.790   5.634
61255W        W28038  27.913  16.614  10.480
61256W        W28039  20.571  14.603   3.362
61257W        W28040  33.918  37.180  11.414
61258W        W28041  19.084  38.310   1.522
61259W        W28042   4.019  19.290  13.369
61260W        W28043  11.690  32.669   0.066
61261W        W28044   2.586  24.694   0.841
61262W        W28045  27.862  29.675  14.532
61263W        W28046   2.222   4.856   0.282
61264W        W28047  22.985  18.148   2.155
61265W        W28048   6.356   4.349  14.808
61266W        W28049  31.418  36.911   1.747
61267W        W28050  44.706  11.483  12.647
61268W        W28051   1.835  30.085   3.222
61269W        W28052  12.422  22.547  14.028
61270W        W28053  37.918   8.918   2.790
61271W        W28054  16.225  44.547  13.909
61272W        W28055  38.321  12.134  14.333
61273W        W28056  22.306  35.040   1.765
61274W        W28057   0.435  21.758  11.205
61275W        W28058  23.434  17.729  10.756
61276W        W28059  31.128  42.312   4.084
61277W        W28060  44.946  27.635   2.782
61278W        W28061  38.933  36.445  13.105
61279W        W28062  39.515  24.539  14.334
61280W        W28063  29.956   5.423   3.726
61281W        W28064  43.828  21.542  14.706
61282W        W28065  35.922   0.970   3.148
61283W        W28066  16.630  39.321   1.960
61284W        W28067  23.606  37.514  13.433
61285W        W28068   1.964  23.755   3.350
61286W        W28069  39.778  31.959  12.820
61287W        W28070  36.154   0.037  14.867
61288W        W28071  16.395   2.777   1.816
61289W        W28072  16.077  34.716  12.018
61290W        W28073  26.552  43.947  10.388
61291W        W28074  20.604   0.768   2.921
61292W        W28075  40.432   2.243  14.083
61293W        W28076  21.960  44.851  13.823
61294W        W28077   8.796  43.583   2.216
61295W        W28078  23.098  36.000  14.156
61296W        W28079  33.363   4.844  14.313
61297W        W28080  12.127  17.657  14.934
61298W        W28081  17.799  44.470  12.923
61299W        W28082   3.205  14.393   2.142
61300W        W28083   5.827  36.197  13.569
61301W        W28084  22.745  23.696   0.259
61302W        W28085  19.502  31.660  13.420
61303W        W28086  33.058  18.366   3.338
61304W        W28087  13.783  30.690  13.426
61305W        W28088   7.250  31.137   1.137
61306W        W28089  22.537  40.965   0.892
61307W        W28090  37.626   2.972   0.899
61308W        W28091  21.566   1.231   3.422
61309W        W28092  37.489  36.269  14.985
61310W        W28093  41.314  37.895  14.774
61311W        W28094  28.211  24.626   2.126
61312W        W28095  12.309  33.701  11.030
61313W        W28096  33.044  25.785  12.900
61314W        W28097   2.764  39.805   0.393
61315W        W28098   0.085   1.158   2.794
61316W        W28099  22.230  18.518   0.217
61317W        W28100  21.396   7.997  14.283
61318W        W28101  39.677  40.332  12.298
61319W        W28102   7.843  34.901  13.496
61320W        W28103  38.983  34.105   3.255
61321W        W28104  22.438  42.300   0.253
61322W        W28105  37.903  37.041  12.349
61323W        W28106  43.233  19.284   2.201
61324W        W28107   2.302  18.062   1.739
61325W        W28108  16.349  19.593   3.360
61326W        W28109   8.356   7.123  14.021
61327W        W28110  34.962  43.989   0.836
61328W        W28111  20.311  35.116   2.195
61329W        W28112   5.061  11.792   2.891
61330W        W28113  14.199  16.979  13.333
61331W        W28114  43.315   4.876  12.678
61332W        W28115  26.421  32.886  11.247
61333W        W28116  41.316  41.290   3.118
61334W        W28117   0.855  33.025  13.458
61335W        W28118   6.648  34.923  14.790
61336W        W28119  14.250  24.926  14.375
61337W        W28120  18.114   8.838  12.832
61338W        W28121  24.026  14.127  10.781
61339W        W28122  11.362   1.820  10.622
61340W        W28123   1.128   6.069   0.770
61341W        W28124  12.336   8.281   3.426
61342W        W28125  25.872  16.669  13.392
61343W        W28126  33.011   5.790  12.100
61344W        W28127  22.817  33.574  12.748
61345W        W28128  26.223  36.844   2.654
61346W        W28129  19.430  40.736  10.747
61347W        W28130  23.826  31.884   2.542
61348W        W28131  17.852  13.444   4.820
61349W        W28132  13.017  15.600  12.942
61350W        W28133  18.152  16.593  13.467
61351W        W28134   3.971  36.860  13.491
61352W        W28135  29.451  39.895   3.726
61353W        W28136  33.579  38.484  14.414
61354W        W28137  40.063  22.518   2.626
61355W        W28138  35.857  29.115   0.912
61356W        W28139   5.825   7.228   2.706
61357W        W28140  20.515  15.798   1.781
61358W        W28141  25.166  44.060   4.469
61359W        W28142  18.673  13.464   1.723
61360W        W28143  25.731  20.826   3.696
61361W        W28144  29.406  14.794   2.097
61362W        W28145  24.628  23.517   3.259
61363W        W28146  43.519  39.311  10.760
61364W        W28147  13.099  12.797  14.062
61365W        W28148   9.271  42.892  11.148
61366W        W28149  26.106  21.643  13.192
61367W        W28150  33.538  33.965  14.193
61368W        W28151  23.208  28.911  11.206
61369W        W28152  27.078  23.526  13.780
61370W        W28153  20.327   7.259   0.891
61371W        W28154   5.802   2.843   3.700
61372W        W28155  11.317  29.712  14.729
61373W        W28156  10.706  32.922   4.472
61374W        W28157   1.487  42.506  12.732
61375W        W28158  32.821  23.123   2.724
61376W        W28159  34.947   1.420   0.358
61377W        W28160  44.146   5.847   2.820
61378W        W28161   9.203   5.961   2.261
61379W        W28162   9.560  20.295   4.092
61380W        W28163  39.110  14.887  11.590
61381W        W28164  15.481  34.669   2.819
61382W        W28165  31.976  37.311   2.373
61383W        W28166  16.187  41.638   1.937
61384W        W28167  19.721  40.782  11.177
61385W        W28168  24.324  41.876  11.159
61386W        W28169  21.539  35.172  10.466
61387W        W28170  22.560  23.594   2.252
61388W        W28171  21.112  41.512  13.862
61389W        W28172  16.169  35.755   0.921
61390W        W28173  12.254  31.581  14.298
61391W        W28174   2.812   0.863  14.884
61392W        W28175   1.484  11.099  13.506
61393W        W28176   3.857  19.175  12.886
61394W        W28177  34.315  27.474   3.740
61395W        W28178  25.042  21.950   4.923
61396W        W28179  36.144  24.279   4.196
61397W        W28180   7.221   3.035   3.704
61398W        W28181   7.664  14.366   4.123
61399W        W28182  32.045   3.457   2.439
61400W        W28183   3.286  24.482   4.026
61401W        W28184   7.790  32.943   1.901
61402W        W28185  28.325  44.203  13.112
61403W        W28186  30.472  30.916   0.246
61404W        W28187  38.968  43.097  12.875
61405W        W28188   6.568  20.566  13.347
61406W        W28189  39.962   1.374   3.264
61407W        W28190  36.544   0.806  14.745
61408W        W28191  24.530  44.571  11.964
61409W        W28192  12.683  20.022   2.869
61410W        W28193  41.906   9.716   1.196
61411W        W28194   3.854  39.532   4.709
61412W        W28195  27.747   1.486  13.975
61413W        W28196  32.874   5.714   2.186
61414W        W28197   1.417   9.584  12.924
61415W        W28198  12.083  41.200  12.492
61416W        W28199  22.668  23.245  10.643
61417W        W28200  33.748  36.202   4.049
61418W        W28201  35.335  32.356  13.200
61419W        W28202  29.511  32.663   2.751
61420W        W28203  20.837  22.295  11.488
61421W        W28204  22.788  36.590  11.669
61422W        W28205  15.596  36.475  11.673
61423W        W28206  13.401  19.603  12.859
61424W        W28207  36.552  22.872   0.888
61425W        W28208   9.596  25.025  11.570
61426W        W28209  42.550   6.990   2.562
61427W        W28210  44.977  43.015  12.657
61428W        W28211  16.678  22.491   4.394
61429W        W28212  42.961   1.238  11.612
61430W        W28213  18.652  31.163   0.457
61431W        W28214  18.127   4.469   3.421
61432W        W28215  10.644  26.113  13.407
61433W        W28216  35.256  14.237   5.046
61434W        W28217   5.697  19.365  14.749
61435W        W28218  39.205  18.641  10.730
61436W        W28219   3.978  39.494  13.045
61437W        W28220  36.967  14.707   0.253
61438W        W28221   6.947  23.708  12.563
61439W        W28222  16.142  31.200   3.660
61440W        W28223  27.904  40.927  14.341
61441W        W28224  16.021  26.005   4.669
61442W        W28225  11.836  39.987  13.424
61443W        W28226  38.930  10.802   0.521
61444W        W28227   5.246   5.437  12.842
61445W        W28228   5.235  15.778   4.871
61446W        W28229  15.154   7.362   3.764
61447W        W28230  23.478  12.224  12.424
61448W        W28231  12.803  39.517   3.892
61449W        W28232  22.217  40.704   2.977
61450W        W28233  12.669  44.923   3.325
61451W        W28234  33.700  43.520   4.467
61452W        W28235  42.879   5.230  14.014
61453W        W28236   1.327   3.263  12.954
61454W        W28237  35.332  23.133  14.936
61455W        W28238  23.617  25.185  13.563
61456W        W28239  24.714  40.011  12.903
61457W        W28240  27.293   8.893   3.209
61458W        W28241  32.699  26.555  10.105
61459W        W28242  23.256  43.833  11.548
61460W        W28243  40.033   8.099  12.566
61461W        W28244   8.128   6.253  11.182
61462W        W28245  39.790  36.927  14.934
61463W        W28246  34.493  14.486   1.322
61464W        W28247  29.500  23.320  13.876
61465W        W28248  16.662  42.959  13.201
61466W        W28249  41.623   3.731  11.631
61467W        W28250  34.370   9.675   3.596
61468W        W28251   4.015   9.392   1.772
61469W        W28252  37.090   3.936  11.041
61470W        W28253  38.105  39.329  14.412
61471W        W28254  41.398  40.866   0.682
61472W        W28255  40.774   4.322  13.495
61473W        W28256  40.352  33.169  11.978
61474W        W28257  23.305  26.788   4.543
61475W        W28258   5.017  22.503   2.812
61476W        W28259  43.678  19.508   1.370
61477W        W28260  14.672  37.998  12.388
61478W        W28261  23.020   4.006   4.589
61479W        W28262   9.289   2.368  10.973
61480W        W28263   7.391   4.119  13.753
61481W        W28264  37.407  12.629   0.627
61482W        W28265   7.898  10.765   0.968
61483W        W28266  17.982  37.986  12.143
61484W        W28267  40.359   3.261   1.447
61485W        W28268  32.549  38.794  12.368
61486W        W28269   5.862  19.067  10.672
61487W        W28270  42.327  26.405  12.000
61488W        W28271  43.347  43.947  10.677
61489W        W28272  38.666   4.272  11.489
61490W        W28273  35.057  41.657   2.430
61491W        W28274  30.210  20.854  11.347
61492W        W28275  42.648   6.446  13.585
61493W        W28276  25.733  35.086  12.899
61494W        W28277  42.942  35.632  12.832
61495W        W28278   0.907   1.934   0.048
61496W        W28279  18.945  39.912  13.288
61497W        W28280   2.133   5.407  11.198
61498W        W28281  30.648  17.219  13.436
61499W        W28282   0.766   6.913  12.710
61500W        W28283  13.587  40.742  12.416
61501W        W28284  11.921  22.130   3.216
61502W        W28285  32.548  44.702  13.778
61503W        W28286  11.777  21.248  14.838
61504W        W28287  33.464   6.796  13.430
61505W        W28288  42.828  44.374  12.030
61506W        W28289  31.188  22.013   0.808
61507W        W28290  33.548  41.700  10.766
61508W        W28291  33.354  34.411   4.581
61509W        W28292  41.290  14.171  13.392
61510W        W28293  18.656  38.407  10.880
61511W        W28294  25.022  32.014  11.649
61512W        W28295  43.833  43.257   1.777
61513W        W28296  22.154   8.998   2.851
61514W        W28297   3.952  36.985  11.650
61515W        W28298  24.990  15.217  12.418
61516W        W28299  22.466  36.435   0.334
61517W        W28300  19.465  18.820   1.164
61518W        W28301   2.732  38.155  13.631
61519W        W28302  24.369  12.133  10.616
61520W        W28303  22.846  14.697   2.356
61521W        W28304  15.618  24.498  11.161
61522W        W28305  24.011  33.157   0.326
61523W        W28306  30.112   3.417   3.199
61524W        W28307   5.666   3.964  12.417
61525W        W28308  41.046  26.185  11.268
61526W        W28309  25.497   6.651   1.034
61527W        W28310  19.585  44.382   1.981
61528W        W28311  35.902  41.778   4.724
61529W        W28312   4.790  23.474   4.457
61530W        W28313  33.102  33.901   0.402
61531W        W28314   8.355  20.200   4.337
61532W        W28315  34.990  31.618   1.787
61533W        W28316  15.525  26.602  10.604
61534W        W28317  31.144   8.351  13.979
61535W        W28318  24.925  27.887   3.239
61536W        W28319  19.588  13.780  11.889
61537W        W28320  22.753  31.567  14.463
61538W        W28321   8.323   9.791   2.679
61539W        W28322  19.106   3.507  14.528
61540W        W28323  43.288  17.206  11.020
61541W        W28324  19.276  10.174  12.636
61542W        W28325  21.579  44.353   0.077
61543W        W28326  36.551  38.053   4.536
61544W        W28327  35.456  22.504   1.292
61545W        W28328  27.900  10.802  10.746
61546W        W28329  37.399  21.500  13.957
61547W        W28330  32.083  40.951  14.415
61548W        W28331   0.052   9.767  10.629
61549W        W28332  28.102   2.645   4.049
61550W        W28333  28.160   3.663  11.674
61551W        W28334  11.846  35.029   4.057
61552W        W28335  12.632  33.133   3.790
61553W        W28336  19.732   1.879   0.846
61554W        W28337  35.297  34.849   2.176
61555W        W28338  33.830  28.597  13.553
61556W        W28339  23.684  32.546   4.237
61557W        W28340   4.506  17.483   1.078
61558W        W28341  36.063  15.728  10.148
61559W        W28342   9.885  23.465   0.254
61560W        W28343   1.791  11.675   3.990
61561W        W28344  11.954  41.791   3.251
61562W        W28345  40.719   5.801  11.098
61563W        W28346  11.701  27.954   2.290
61564W        W28347  37.320  25.141  10.550
61565W        W28348  33.362  10.190   0.370
61566W        W28349  31.105  19.533   3.175
61567W        W28350  26.852  36.403  11.191
61568W        W28351  31.406  23.527   2.817
61569W        W28352  22.258  32.623   3.643
61570W        W28353  29.882  35.127  12.182
61571W        W28354  25.195   3.043  13.947
61572W        W28355   2.854  19.703  14.991
61573W        W28356  30.597  14.997  11.997
61574W        W28357   3.805  41.527  13.453
61575W        W28358  12.773  41.454  11.137
61576W        W28359  14.999  34.608  11.585
61577W        W28360  13.658  38.723   0.295
61578W        W28361   3.339  23.441   4.056
61579W        W28362  16.494   7.735  13.075
61580W        W28363  26.908  18.529   1.743
61581W        W28364   9.844  20.440  12.302
61582W        W28365  35.548  15.031  14.510
61583W        W28366  14.861  17.204   1.707
61584W        W28367  32.889  12.228  13.529
61585W        W28368  21.525  23.081  12.323
61586W        W28369  17.150  14.056   9.689
61587W        W28370  20.418   4.341   1.825
61588W        W28371  39.935  11.662   3.087
61589W        W28372   0.273  40.653   0.387
61590W        W28373   1.269  41.712  11.568
61591W        W28374   4.950  15.606   4.486
61592W        W28375  10.226  24.705   3.419
61593W        W28376  19.217  34.454  11.865
61594W        W28377  16.927  28.640   1.271
61595W        W28378   8.295   8.467   1.888
61596W        W28379   9.067  31.926   0.422
61597W        W28380  23.504  42.582  11.857
61598W        W28381  29.218  35.998   0.853
61599W        W28382   0.950  16.183   3.875
61600W        W28383  25.559  23.245   0.461
61601W        W28384   7.069  21.234  14.294
61602W        W28385  27.114  13.765  13.237
61603W        W28386  42.595   1.918   4.288
61604W        W28387   0.701   8.253  11.075
61605W        W28388   7.472   3.713   4.004
61606W        W28389  28.520  29.983   4.158
61607W        W28390   9.341  29.476  11.602
61608W        W28391  34.603  14.041   3.620
61609W        W28392   3.690  21.214   1.154
61610W        W28393   2.192  38.049   0.295
61611W        W28394  27.673  23.703   0.826
61612W        W28395  35.708  30.758  14.800
61613W        W28396   7.404  24.623  13.347
61614W        W28397  18.191  39.426  13.417
61615W        W28398  34.436  18.895   2.686
61616W        W28399   1.317   1.002   1.790
61617W        W28400  41.802  31.581  13.041
61618W        W28401  19.347  12.931  14.834
61619W        W28402  24.516  16.266   4.993
61620W        W28403  29.538   4.309  11.492
61621W        W28404  13.102   4.403   4.650
61622W        W28405   9.727  37.542   0.872
61623W        W28406  32.575  30.484   0.826
61624W        W28407  42.575  40.057  12.497
61625W        W28408  33.102  15.259  13.025
61626W        W28409  16.561  33.033  14.381
61627W        W28410  16.813  39.744  12.415
61628W        W28411  38.574  30.099   3.911
61629W        W28412  19.376   8.170  11.196
61630W        W28413   9.783   1.869   0.713
61631W        W28414  32.557  21.233   0.723
61632W        W28415  24.993  19.056  11.393
61633W        W28416  11.799  33.597  10.790
61634W        W28417  19.857   2.282   4.264
61635W        W28418   1.882   6.874  12.192
61636W        W28419  23.296  12.841  11.602
61637W        W28420  27.587   9.430   0.312
61638W        W28421  32.408   6.653  11.732
61639W        W28422  32.062  40.482  12.017
61640W        W28423   6.166   0.340   4.136
61641W        W28424  31.108  10.668  10.894
61642W        W28425  33.572  39.050   4.466
61643W        W28426   4.386  32.803  12.489
61644W        W28427  40.987  15.680   3.032
61645W        W28428  22.952  31.063   4.350
61646W        W28429  37.893  32.914  12.881
61647W        W28430  41.019  28.898  12.490
61648W        W28431  11.097  15.344   3.302
61649W        W28432  28.493  14.239   4.687
61650W        W28433   6.199   1.301  14.283
61651W        W28434  36.277  33.162   0.931
61652W        W28435  15.431   3.660   4.295
61653W        W28436  32.746  17.715   5.130
61654W        W28437  27.516   2.463  11.763
61655W        W28438  33.907  42.149   0.239
61656W        W28439  31.373   2.712  10.729
61657W        W28440  15.831  40.797   1.766
61658W        W28441  25.202  27.635   3.590
61659W        W28442  43.018   7.655   1.914
61660W        W28443  38.557   8.714  12.049
61661W        W28444  14.600  22.562   3.967
61662W        W28445  28.512  12.164   0.507
61663W        W28446  22.426   8.951   1.789
61664W        W28447  26.972  44.304   0.755
61665W        W28448  43.870   7.286  14.639
61666W        W28449  13.574   8.812   3.283
61667W        W28450   3.464  39.096  12.531
61668W        W28451  17.848  29.554   1.390
61669W        W28452  29.081  12.789   1.791
61670W        W28453  27.001  36.977   3.813
61671W        W28454  28.116  27.873  12.669
61672W        W28455  14.134   9.860  11.158
61673W        W28456  40.543  38.254   4.606
61674W        W28457  15.049   4.285  10.810
61675W        W28458  22.659  37.541  13.396
61676W        W28459  15.622  19.746   2.424
61677W        W28460  16.531  32.088   3.191
61678W        W28461  31.925  36.570  11.430
61679W        W28462  16.813  15.936  12.318
61680W        W28463   3.387  26.553  13.889
61681W        W28464  20.112   2.674   4.037
61682W        W28465   6.661  44.896   4.923
61683W        W28466  35.823  19.088  10.813
61684W        W28467  13.663  25.006  11.568
61685W        W28468   2.561   4.891   1.472
61686W        W28469  37.976  36.456  11.590
61687W        W28470  10.288  21.388  13.707
61688W        W28471  28.570  24.281   4.526
61689W        W28472  15.380  33.901  13.387
61690W        W28473  11.135  31.451  13.389
61691W        W28474   7.658  14.857  12.037
61692W        W28475  17.693  39.322  12.602
61693W        W28476  27.208  23.387  10.891
61694W        W28477   6.848  14.891  12.109
61695W        W28478   7.578  12.453  10.319
61696W        W28479  41.385  20.688   3.989
61697W        W28480   3.653  24.410   2.280
61698W        W28481  38.282   4.912   1.884
61699W        W28482  11.385  41.408   4.469
61700W        W28483  37.326  39.113  13.397
61701W        W28484  34.020   1.964  13.689
61702W        W28485  11.683  24.772  14.520
61703W        W28486  27.214  30.610   2.700
61704W        W28487   8.891  43.607  13.019
61705W        W28488   6.863  22.736  13.043
61706W        W28489   6.259  39.018  11.114
61707W        W28490  18.623   9.834   1.887
61708W        W28491  12.746  44.712   3.815
61709W        W28492   4.528   4.434   0.391
61710W        W28493   0.021   9.160  14.049
61711W        W28494  27.589   3.411  12.811
61712W        W28495  16.637  17.538  11.868
61713W        W28496  34.278  31.439  11.938
61714W        W28497  25.078  16.693  13.543
61715W        W28498  42.573   5.121   4.586
61716W        W28499  43.997  25.382   2.134
61717W        W28500   2.101  34.365  11.995
61718W        W28501  15.840  18.028  13.595
61719W        W28502  43.127  17.984  14.820
61720W        W28503   3.255  21.136  10.737
61721W        W28504  40.734  43.745   0.746
61722W        W28505  13.676  27.921  14.783
61723W        W28506  12.698  35.087   1.667
61724W        W28507   4.425  14.646   4.054
61725W        W28508   1.303   4.737  11.976
61726W        W28509  29.945  33.057   1.470
61727W        W28510  21.471  15.643  11.975
61728W        W28511   7.946  42.800  11.242
61729W        W28512  31.170   4.726   3.723
61730W        W28513  12.649  16.620  14.797
61731W        W28514  14.754  12.317   1.735
61732W        W28515  34.466  43.828  11.197
61733W        W28516  23.177  17.275  12.193
61734W        W28517   8.925  33.638  13.314
61735W        W28518  36.621  15.975   0.727
61736W        W28519  10.233  22.347  13.447
61737W        W28520  29.598   6.272   3.328
61738W        W28521   4.395  40.027  12.194
61739W        W28522  18.884   3.082  10.870
61740W        W28523  32.526  22.541  12.598
61741W        W28524   6.851  23.607  11.053
61742W        W28525  39.423   6.904  10.630
61743W        W28526  31.356  20.189  10.003
61744W        W28527   0.655  39.045   1.715
61745W        W28528  10.618   5.879  12.443
61746W        W28529   2.654  11.713  14.680
61747W        W28530  25.573  24.511  13.020
61748W        W28531  38.432   9.355   0.724
61749W        W28532  30.941  28.496  13.768
61750W        W28533   0.364  20.006   2.270
61751W        W28534  33.890  32.710  13.113
61752W        W28535  33.913  13.036   4.092
61753W        W28536   7.671  27.108  10.740
61754W        W28537  14.392  44.289  13.103
61755W        W28538  14.639  12.861  11.570
61756W        W28539  31.041  22.244   2.811
61757W        W28540  27.054  34.405  14.441
61758W        W28541   1.462  41.903   2.384
61759W        W28542  18.573   4.053  14.831
61760W        W28543   8.597  16.774   3.073
61761W        W28544  10.812   6.328   5.397
61762W        W28545  23.356  10.578  12.055
61763W        W28546  29.394   3.862  14.507
61764W        W28547   0.037  35.615   4.201
61765W        W28548   3.443   3.973  11.527
61766W        W28549  44.041  10.126  13.019
61767W        W28550  35.838   2.936   0.122
61768W        W28551   5.999  29.905   3.555
61769W        W28552  42.844  21.578  13.621
61770W        W28553  20.178  11.643  13.366
61771W        W28554  15.249  24.965  11.945
61772W        W28555  26.565   5.902   0.215
61773W        W28556  12.085   4.457   4.558
61774W        W28557  25.400  19.643  14.930
61775W        W28558  39.471  13.567  12.634
61776W        W28559  30.922  33.343   2.220
61777W        W28560   5.175  18.016   4.722
61778W        W28561  22.533  25.062  11.023
61779W        W28562  40.363   8.393  11.715
61780W        W28563  10.140  34.267  13.915
61781W        W28564  44.071  17.219   1.370
61782W        W28565  35.951   1.450   2.843
61783W        W28566   1.768  21.170  11.512
61784W        W28567  18.356  16.881   1.256
61785W        W28568   9.924  41.232   0.956
61786W        W28569  43.889   0.350  13.902
61787W        W28570  28.147  31.851   4.527
61788W        W28571   5.939  31.404  12.851
61789W        W28572  42.673  21.540   2.748
61790W        W28573  32.739   6.145   4.943
61791W        W28574  21.412   7.208  11.102
61792W        W28575  26.575  40.563   1.468
61793W        W28576  36.896   8.458   4.704
61794W        W28577  44.255  32.626  14.333
61795W        W28578   1.312  33.798  10.983
61796W        W28579   7.946   8.166   0.696
61797W        W28580   0.116  16.796  12.345
61798W        W28581  40.318  19.573  13.419
61799W        W28582   8.674   1.976   2.666
61800W        W28583  40.492  41.558  10.805
61801W        W28584  34.650  39.566  10.744
61802W        W28585   4.790   1.788  12.904
61803W        W28586  13.056  34.248   4.210
61804W        W28587  42.351  19.168   3.030
61805W        W28588  11.400  14.199   4.531
61806W        W28589  26.392   2.379  12.676
61807W        W28590  41.949  19.015  12.177
61808W        W28591  37.155  30.567  13.769
61809W        W28592   4.681   8.657  12.894
61810W        W28593  33.562   4.925   4.149
61811W        W28594   7.815  12.302  10.746
61812W        W28595   5.983  22.845   4.524
61813W        W28596  20.004  11.269   2.952
61814W        W28597   7.659  34.417  13.413
61815W        W28598  40.264   8.321   4.045
61816W        W28599   0.213  36.220  11.916
61817W        W28600  16.532  42.491   0.841
61818W        W28601   8.686  39.705   2.043
61819W        W28602  22.072  28.318   2.323
61820W        W28603  32.649   1.747   1.314
61821W        W28604  33.013  14.101   4.102
61822W        W28605  23.509  23.802  10.537
61823W        W28606  39.248   7.800   3.319
61824W        W28607  24.606  28.116  10.728
61825W        W28608   1.928  42.731   4.048
61826W        W28609  20.064   5.689   2.896
61827W        W28610  13.399  23.117  12.474
61828W        W28611  31.091  19.933  11.083
61829W        W28612  16.858  33.536   0.859
61830W        W28613   4.267  25.106   4.572
61831W        W28614   9.826   6.662   3.959
61832W        W28615   7.823  39.049   0.031
61833W        W28616  42.904  19.538   1.437
61834W        W28617  33.924  19.600   0.290
61835W        W28618  38.348  28.142   0.933
61836W        W28619  26.124  30.508   3.777
61837W        W28620  40.092  24.206  10.757
61838W        W28621  42.745  33.482   4.629
61839W        W28622  33.448  13.334   4.168
61840W        W28623   1.751  26.024   0.971
61841W        W28624   7.248  21.254   1.697
61842W        W28625  20.973  33.679   2.357
61843W        W28626   7.881  34.927   2.522
61844W        W28627  23.025   5.327   2.428
61845W        W28628   0.720  17.769   2.674
61846W        W28629   7.001  22.750  12.533
61847W        W28630  21.721  20.240   4.211
61848W        W28631  12.802  15.743  14.286
61849W        W28632  24.791  13.821   3.820
61850W        W28633  18.871  34.126  12.037
61851W        W28634  11.252  36.786   2.752
61852W        W28635  22.577   0.383  12.407
61853W        W28636  18.067  31.228   3.699
61854W        W28637   9.820  14.626  13.496
61855W        W28638   7.730  36.865   1.423
61856W        W28639  14.586  14.280   3.654
61857W        W28640  35.788  14.285  13.532
61858W        W28641  15.136  44.161  10.433
61859W        W28642  42.996  19.834   2.330
61860W        W28643  43.891  15.307  10.741
61861W        W28644  36.609  26.998  11.227
61862W        W28645   2.995  33.145  13.400
61863W        W28646  35.906   3.871   3.016
61864W        W28647  24.687  37.484   1.471
61865W        W28648  28.917  35.494  12.292
61866W        W28649   9.341  30.948   2.930
61867W        W28650   5.074  42.060  10.604
61868W        W28651  42.401  19.627  12.767
61869W        W28652  44.523   5.297   0.363
61870W        W28653  31.180  26.102   0.469
61871W        W28654  13.715   0.606  14.470
61872W        W28655  35.707   7.790  13.306
61873W        W28656  35.373   5.944  12.002
61874W        W28657  42.888  43.778   2.539
61875W        W28658  11.871  31.688   0.425
61876W        W28659   5.461   5.984   1.733
61877W        W28660  12.791   3.927  13.554
61878W        W28661  22.717   0.728   1.212
61879W        W28662  43.422  39.364   3.317
61880W        W28663  39.974  31.836   9.792
61881W        W28664  22.134   6.470  14.956
61882W        W28665   4.379  32.465   4.631
61883W        W28666  22.216  35.387  10.992
61884W        W28667  36.065  16.586   4.136
61885W        W28668  35.749  18.462   0.770
61886W        W28669   9.591  34.097  11.570
61887W        W28670   6.454   6.289  12.108
61888W        W28671  15.094  20.219   4.225
61889W        W28672  40.865   2.679  11.994
61890W        W28673  10.333  43.222  13.980
61891W        W28674  44.544  26.586   1.594
61892W        W28675  40.733   4.207  12.594
61893W        W28676  29.615   3.198   4.971
61894W        W28677  37.069  43.889  14.868
61895W        W28678  40.488   1.346   1.918
61896W        W28679  18.358  32.025  10.982
61897W        W28680  35.582  10.659  10.122
61898W        W28681  15.736   7.345  10.745
61899W        W28682   9.767  10.609  12.533
61900W        W28683  22.534  37.465   1.293
61901W        W28684  14.044  14.357   1.800
61902W        W28685  25.644  26.206   2.330
61903W        W28686   3.090  35.892   1.655
61904W        W28687  15.835  23.687   2.862
61905W        W28688   0.782  23.245   0.502
61906W        W28689  29.385  20.674  12.345
61907W        W28690  29.398  24.738   0.536
61908W        W28691  28.109  41.346  13.854
61909W        W28692   1.588   6.448   1.827
61910W        W28693  34.528   5.118   2.202
61911W        W28694  18.617  33.652  13.848
61912W        W28695   4.767   1.488  14.088
61913W        W28696  35.435  44.559  13.544
61914W        W28697   6.352   9.775   3.908
61915W        W28698   6.718  17.643  11.628
61916W        W28699  30.035  13.600   1.757
61917W        W28700  43.773  15.046   3.101
61918W        W28701  38.473  13.071  14.526
61919W        W28702  25.509  40.375  13.060
61920W        W28703  16.694  20.079   2.329
61921W        W28704   8.642   3.973   4.812
61922W        W28705  22.128   1.018   2.288
61923W        W28706  14.995  23.797   0.566
61924W        W28707  28.191  22.836  14.756
61925W        W28708  19.754  30.843  14.866
61926W        W28709  43.423   7.135   1.208
61927W        W28710   9.232  31.592   2.250
61928W        W28711  33.098  13.904  10.699
61929W        W28712  20.480  37.542  13.054
61930W        W28713  43.984   4.710   2.549
61931W        W28714  43.268  27.728   1.317
61932W        W28715  10.745   3.960  14.614
61933W        W28716   7.156  43.144  14.001
61934W        W28717  39.650   9.907  12.508
61935W        W28718   9.096   6.707  13.469
61936W        W28719  14.108   9.322   0.807
61937W        W28720   4.796  38.394   4.904
61938W        W28721  35.560  26.328   0.381
61939W        W28722  34.587   2.908   1.768
61940W        W28723  22.275  30.723   1.828
61941W        W28724  35.910  24.971   3.591
61942W        W28725  35.141  23.426   1.028
61943W        W28726  21.459  16.221  11.497
61944W        W28727   2.689  11.369   2.754
61945W        W28728  30.547  22.251   4.183
61946W        W28729  27.950  39.988   1.003
61947W        W28730  28.624  38.921   0.961
61948W        W28731   8.163  23.681   1.897
61949W        W28732  31.533  10.943  13.348
61950W        W28733  24.576  19.295   3.621
61951W        W28734   3.706  29.544   1.911
61952W        W28735  35.388   7.000   3.162
61953W        W28736  41.788   5.255   0.958
61954W        W28737  31.645   6.835   1.349
61955W        W28738  15.339  40.669   4.296
61956W        W28739   9.194   0.839   1.954
61957W        W28740  22.548  44.421   1.177
61958W        W28741  12.264  44.746   3.624
61959W        W28742  23.722  19.252   3.645
61960W        W28743  34.903  44.639   1.821
61961W        W28744   3.437  32.992   3.094
61962W        W28745  19.359  33.898   1.298
61963W        W28746  41.473  26.398  11.572
61964W        W28747  34.469  19.996   1.046
61965W        W28748  44.721  11.883  11.130
61966W        W28749  38.712  38.163   1.472
61967W        W28750   1.158  38.012   4.289
61968W        W28751  44.031  10.204   1.965
61969W        W28752  13.731   1.887  11.171
61970W        W28753  12.149   7.092   1.259
61971W        W28754  15.033  44.546   1.277
61972W        W28755   2.782  31.689  11.785
61973W        W28756  17.195  16.949  10.906
61974W        W28757   2.855   2.849   3.580
61975W        W28758  17.311  32.598  13.473
61976W        W28759  36.084   7.248  13.470
61977W        W28760  43.344  11.599   2.160
61978W        W28761   2.108   6.639   2.924
61979W        W28762   6.335   4.954  14.962
61980W        W28763  21.261  15.512   0.613
61981W        W28764  19.419   6.993  11.780
61982W        W28765  32.391  14.621  14.786
61983W        W28766   6.230  14.763   0.407
61984W        W28767  11.581  23.593   3.317
61985W        W28768  33.587  19.592  11.003
61986W        W28769   4.187  14.131   2.242
61987W        W28770  32.053  14.322   1.223
61988W        W28771  18.354  34.917   0.499
61989W        W28772   2.471   0.019  11.466
61990W        W28773  32.999  12.321  14.556
61991W        W28774  17.505  30.711  10.479
61992W        W28775  15.092  17.219   0.016
61993W        W28776   9.817  28.666   2.308
61994W        W28777  20.894  26.736  14.042
61995W        W28778   8.135  10.701  14.355
61996W        W28779  25.716  22.475  14.924
61997W        W28780   9.892  18.105   1.237
61998W        W28781   9.308  29.846   0.266
61999W        W28782  44.978  44.188  14.020
62000W        W28783   2.326  35.325  13.362
62001W        W28784   3.470  30.078   3.799
62002W        W28785  37.292   4.808   2.096
62003W        W28786  29.035  28.171  14.548
62004W        W28787  35.565  44.444   4.169
62005W        W28788  12.888  12.838  13.588
62006W        W28789  39.902  20.436   2.286
62007W        W28790  14.631  41.089   1.487
62008W        W28791  37.537  14.707  12.552
62009W        W28792  41.528  10.895   2.704
62010W        W28793  16.813   1.878   0.502
62011W        W28794  13.482  38.736   1.198
62012W        W28795  24.732  21.101   4.429
62013W        W28796  44.880   9.387  13.606
62014W        W28797  26.627  41.884   0.355
62015W        W28798  42.118   0.019  12.735
62016W        W28799  35.033   7.891  11.287
62017W        W28800   3.796  28.567  14.009
62018W        W28801   7.465   2.278  14.016
62019W        W28802  16.696  11.278  12.892
62020W        W28803  40.880  44.146  13.122
62021W        W28804  36.018  35.731   0.002
62022W        W28805  44.841  32.058   3.086
62023W        W28806   7.657  25.171  11.172
62024W        W28807   9.513  42.481  11.307
62025W        W28808  42.321   1.280  12.086
62026W        W28809   3.848  41.410   4.121
62027W        W28810   1.863  14.384   4.570
62028W        W28811   6.691   8.603   3.314
62029W        W28812  26.590  23.649  11.541
62030W        W28813  17.262   8.570   1.726
62031W        W28814  34.330  43.234  11.964
62032W        W28815  41.522  11.291   1.753
62033W        W28816  19.585  32.068  13.122
62034W        W28817  12.066  15.691   0.999
62035W        W28818  17.568  35.432   0.503
62036W        W28819   4.854  44.070  14.047
62037W        W28820   2.899  31.018  12.355
62038W        W28821  35.977  11.311  13.530
62039W        W28822   8.391   6.702   2.689
62040W        W28823  35.508  39.114   0.953
62041W        W28824  44.727  32.272  11.860
62042W        W28825  12.392  32.675   3.189
62043W        W28826   5.157  14.235   2.162
62044W        W28827  18.451  28.897   2.737
62045W        W28828  29.120  26.266  10.593
62046W        W28829  27.819  23.675  14.338
62047W        W28830  10.293   7.264   2.808
62048W        W28831  27.542  23.312  11.487
62049W        W28832  24.363  11.206  13.575
62050W        W28833   0.571  34.370  11.492
62051W        W28834  38.303   2.963  10.648
62052W        W28835  33.465   0.164  10.706
62053W        W28836  12.121  34.369  10.833
62054W        W28837  21.554  18.374  11.167
62055W        W28838  39.863  14.904   4.194
62056W        W28839   1.491  39.469  10.830
62057W        W28840   3.125  34.378   2.736
62058W        W28841  10.837  20.425   3.731
62059W        W28842  17.154  37.643  11.920
62060W        W28843  10.023  24.529   0.744
62061W        W28844  44.662  17.380  14.469
62062W        W28845   3.741  25.754   1.302
62063W        W28846   1.553  32.562   1.483
62064W        W28847   0.560   8.710  12.883
62065W        W28848  24.243   3.511  13.995
62066W        W28849  25.661   4.985  14.519
62067W        W28850  23.050   3.926   3.206
62068W        W28851  44.474  19.090  13.347
62069W        W28852  28.183  24.225  10.603
62070W        W28853  22.209   1.769   4.459
62071W        W28854  23.492  10.890   0.867
62072W        W28855  44.011   2.826  14.576
62073W        W28856   7.509  26.984   3.421
62074W        W28857   6.787  43.276   3.544
62075W        W28858  11.486  19.230   3.175
62076W        W28859   3.399  30.458  11.373
62077W        W28860  16.519  31.107   2.165
62078W        W28861  40.469  12.104  14.262
62079W        W28862  35.710  16.175   1.183
62080W        W28863   2.756  23.919  14.281
62081W        W28864  16.616  28.378   0.878
62082W        W28865  20.022  18.771   1.247
62083W        W28866  18.854  26.583  14.850
62084W        W28867  13.356  32.786  12.053
62085W        W28868   8.977  37.118  13.323
62086W        W28869  21.240  34.643  13.063
62087W        W28870  34.602  25.702  14.034
62088W        W28871  14.648  44.879   0.808
62089W        W28872  34.378   2.980   2.677
62090W        W28873  30.351  18.495   4.536
62091W        W28874  42.523  39.011  13.048
62092W        W28875   0.435  38.478   3.141
62093W        W28876  15.157  36.292  11.387
62094W        W28877  12.056  15.755  13.099
62095W        W28878  39.953  23.659  13.466
62096W        W28879  35.334  21.602  14.295
62097W        W28880  10.913  40.382   0.946
62098W        W28881  15.043  20.164  11.575
62099W        W28882  37.115   3.555  13.429
62100W        W28883  39.959   6.938   3.790
62101W        W28884   5.733  35.665  13.541
62102W        W28885  32.649  34.714   2.072
62103W        W28886  15.001  17.723   1.873
62104W        W28887  33.098  24.747  13.870
62105W        W28888  24.906  34.996   4.259
62106W        W28889  16.846   5.387  13.061
62107W        W28890  26.973  41.663  14.531
62108W        W28891   5.709  19.313   4.602
62109W        W28892  10.690  20.988   1.234
62110W        W28893   6.859  23.181   1.719
62111W        W28894  18.500   4.920   0.401
62112W        W28895   7.576  14.179   4.602
62113W        W28896  42.955  35.388   4.119
62114W        W28897  13.974  40.510   4.666
62115W        W28898  17.266  15.216  12.778
62116W        W28899  10.815  36.020  13.399
62117W        W28900  14.525  35.612   1.418
62118W        W28901  33.378   8.793   0.268
62119W        W28902   3.769  28.167   3.022
62120W        W28903  23.277  37.596  11.237
62121W        W28904  31.441   8.377   1.342
62122W        W28905  20.068  34.464  11.190
62123W        W28906  21.873  44.381   1.858
62124W        W28907  34.371  41.822  12.091
62125W        W28908  16.087   6.215   1.176
62126W        W28909   0.473  39.948   4.677
62127W        W28910   8.371  25.006   1.997
62128W        W28911   0.404  27.231  14.315
62129W        W28912   0.250  18.055   2.345
62130W        W28913  41.105   8.293   0.761
62131W        W28914   2.144  30.849   1.751
62132W        W28915  43.380  38.730  12.058
62133W        W28916  28.574  29.451  11.708
62134W        W28917  23.513   5.117  11.647
62135W        W28918   2.902  18.198  12.759
62136W        W28919  13.190  37.858   1.821
62137W        W28920  37.954  31.036  12.410
62138W        W28921  41.289   1.439  12.106
62139W        W28922  43.261  14.157   1.567
62140W        W28923  28.901  20.792   4.084
62141W        W28924  41.285  11.461  11.405
62142W        W28925  11.138   3.379   1.356
62143W        W28926  25.786   9.447  13.892
62144W        W28927   7.810  41.862   3.675
62145W        W28928   0.195  15.059  13.498
62146W        W28929   8.322  10.255  14.879
62147W        W28930  35.800  35.590  10.798
62148W        W28931   0.622  42.407  12.452
62149W        W28932   8.831  19.540   3.865
62150W        W28933  31.954   2.725   0.223
62151W        W28934  19.355  44.161   4.614
62152W        W28935  29.869  27.201   2.693
62153W        W28936  38.531  28.447  11.111
62154W        W28937  18.046  13.089   4.498
62155W        W28938  25.958  30.466  12.926
62156W        W28939  18.091  39.491  13.957
62157W        W28940  34.627  38.521  10.691
62158W        W28941  30.638  32.465  14.311
62159W        W28942  28.602   3.097  11.136
62160W        W28943  34.134  36.087   1.191
62161W        W28944  24.031  35.920  14.781
62162W        W28945  41.034  27.128   0.204
62163W        W28946  13.070  17.595   2.416
62164W        W28947  42.528  34.148  14.336
62165W        W28948  30.979  23.792  12.853
62166W        W28949   0.027  35.340  14.921
62167W        W28950  23.055  11.804   0.459
62168W        W28951   3.365   0.733  13.301
62169W        W28952  38.505  31.782  12.419
62170W        W28953  19.158  23.014  13.626
62171W        W28954  31.001  20.198   4.527
62172W        W28955  42.059   4.939   2.306
62173W        W28956  39.593  20.119  11.614
62174W        W28957  38.901  41.042   3.610
62175W        W28958   4.756  23.509  11.028
62176W        W28959  24.659  15.206   1.362
62177W        W28960  14.234  31.235   3.245
62178W        W28961  38.601   7.638   2.589
62179W        W28962  21.499  12.770  10.362
62180W        W28963  15.109   4.495   4.815
62181W        W28964  19.837  12.328   0.263
62182W        W28965  22.317  37.938   1.321
62183W        W28966  18.637  10.528  13.390
62184W        W28967  44.269  39.039  12.005
62185W        W28968  27.171  41.488  12.375
62186W        W28969  42.964  32.196   0.477
62187W        W28970  26.584  39.027   1.201
62188W        W28971  18.069  33.033   2.121
62189W        W28972   7.306  35.474  11.587
62190W        W28973  38.440  19.677   2.758
62191W        W28974  44.424  16.924  10.557
62192W        W28975  18.724  26.195  14.537
62193W        W28976   4.843  22.211  14.242
62194W        W28977  34.517  17.105   1.354
62195W        W28978  37.996  21.544   2.368
62196W        W28979   9.243  11.777  13.365
62197W        W28980  30.957   4.406  11.521
62198W        W28981  17.607   7.614   0.864
62199W        W28982  26.737  29.525  12.506
62200W        W28983  33.024  32.151  10.778
62201W        W28984  38.474  39.434  11.200
62202W        W28985  36.188  35.423  14.604
62203W        W28986   8.832  30.440  14.937
62204W        W28987  37.606  20.436  12.597
62205W        W28988  33.992  37.594  12.307
62206W        W28989  36.945  13.194   4.585
62207W        W28990  38.844  27.308  11.681
62208W        W28991  13.624  34.259   0.888
62209W        W28992  43.473  32.109   0.299
62210W        W28993  36.829  16.283   4.665
62211W        W28994  39.033   3.670  10.931
62212W        W28995  35.630  22.698   3.987
62213W        W28996  44.777  39.004  12.038
62214W        W28997  35.606  38.977   3.682
62215W        W28998  41.565  22.557   3.686
62216W        W28999  36.355  42.509   0.795
62217W        W29000  39.117   3.472  12.449
62218W        W29001  37.316   4.808   2.609
62219W        W29002  33.124  39.004   1.241
62220W        W29003  28.519  18.143  13.524
62221W        W29004  39.825   3.966   4.086
62222W        W29005  27.513  16.554   1.840
62223W        W29006  30.028  15.757  10.705
62224W        W29007   3.157  34.032  14.301
62225W        W29008  11.312   6.273   5.340
62226W        W29009  28.445  12.611   4.531
62227W        W29010   2.283  17.682   2.629
62228W        W29011   5.019   4.766  14.568
62229W        W29012   2.839  16.876   2.420
62230W        W29013  39.327  36.307   4.562
62231W        W29014  40.009  35.709   1.271
62232W        W29015  44.670   3.931   3.740
62233W        W29016  18.269  22.956   0.898
62234W        W29017  17.800   2.913  14.987
62235W        W29018  36.828  22.165   2.136
62236W        W29019  12.176  44.333  11.598
62237W        W29020  11.678   5.881   1.325
62238W        W29021   0.935   7.767  11.126
62239W        W29022  14.603  10.618   1.742
62240W        W29023  38.694  10.809   1.008
62241W        W29024   0.553  17.078  12.423
62242W        W29025   8.523  39.227  13.836
62243W        W29026  22.638  17.336  11.030
62244W        W29027  41.556   0.256   2.608
62245W        W29028  18.688  43.340  12.419
62246W        W29029  27.584   4.853   1.838
62247W        W29030  20.708  17.340   1.399
62248W        W29031   6.904  31.383   4.255
62249W        W29032   0.336  36.840   4.773
62250W        W29033  14.496   6.409  12.980
62251W        W29034  10.555   6.810   2.817
62252W        W29035  25.000   0.493   1.818
62253W        W29036  11.416  41.495  11.905
62254W        W29037  43.389  27.587   2.648
62255W        W29038  20.427  36.686   3.362
62256W        W29039  39.435  20.597  11.106
62257W        W29040  22.759  29.806  11.174
62258W        W29041  12.157  25.482   4.897
62259W        W29042  33.893  12.745   3.611
62260W        W29043  16.563  30.706  13.570
62261W        W29044  29.743  29.044   4.455
62262W        W29045   3.438  30.883  14.972
62263W        W29046  30.327  15.906  11.104
62264W        W29047  16.612  35.904   2.676
62265W        W29048  16.192  27.961   1.140
62266W        W29049  25.032   0.523  12.899
62267W        W29050  18.535  42.434   2.980
62268W        W29051  17.681   5.177   1.373
62269W        W29052  34.169  34.878  13.930
62270W        W29053  37.569   4.840  11.067
62271W        W29054  27.664  20.659   1.952
62272W        W29055   8.129   9.298  13.584
62273W        W29056   9.848  14.895   2.390
62274W        W29057  40.101   9.315   3.176
62275W        W29058  31.135  36.461   4.352
62276W        W29059  17.617  24.659   4.536
62277W        W29060   1.790  20.454   2.632
62278W        W29061   2.374   9.762  14.938
62279W        W29062  22.759   5.761   1.802
62280W        W29063   5.397  11.732  10.667
62281W        W29064  33.919   1.722   0.882
62282W        W29065  17.286  17.213   2.662
62283W        W29066  38.348   0.880  12.306
62284W        W29067  12.126  16.333   0.260
62285W        W29068   9.809  13.555  13.563
62286W        W29069   1.125   3.902   4.117
62287W        W29070  39.615  44.058   1.316
62288W        W29071   3.427  30.422  13.865
62289W        W29072  16.629  25.463   3.612
62290W        W29073  44.841  44.709  11.036
62291W        W29074   0.117  42.614  14.614
62292W        W29075  10.031  37.074   4.077
62293W        W29076  21.522  17.116  12.521
62294W        W29077  23.587  27.383  10.746
62295W        W29078  38.043  11.589  12.899
62296W        W29079  37.807   5.184  10.806
62297W        W29080  33.911  31.180   1.368
62298W        W29081  21.144   4.753  12.435
62299W        W29082   1.075  38.067  13.995
62300W        W29083   0.706  15.354   3.531
62301W        W29084  17.225  21.596   0.506
62302W        W29085  30.902  23.489   2.186
62303W        W29086  22.187   3.497  14.269
62304W        W29087   1.833  29.572   3.153
62305W        W29088  31.431  37.815   1.737
62306W        W29089  29.243  12.486  13.363
62307W        W29090  37.961  22.261   4.710
62308W        W29091  15.311   5.571   3.229
62309W        W29092   6.054  38.480   3.501
62310W        W29093  21.598  32.857  10.865
62311W        W29094  32.255   5.760   3.656
62312W        W29095  22.725  31.305   1.282
62313W        W29096  14.241  39.060   3.333
62314W        W29097  30.587   5.278  14.433
62315W        W29098  13.315  16.649   4.136
62316W        W29099  39.092   9.801  13.503
62317W        W29100  33.234  26.496  12.037
62318W        W29101  24.060  40.783  13.635
62319W        W29102  10.388  26.706   4.600
62320W        W29103   6.596  14.063  11.714
62321W        W29104  21.228   7.631  12.920
62322W        W29105  12.906  20.127   0.875
62323W        W29106  27.684   0.453   0.028
62324W        W29107  28.377  14.425   2.180
62325W        W29108   8.750  29.797   2.710
62326W        W29109  25.910  38.013   0.439
62327W        W29110  22.413  11.425   5.107
62328W        W29111  16.770  30.716  12.353
62329W        W29112   7.919  31.165   2.298
62330W        W29113   4.642  40.551  14.729
62331W        W29114  29.129  35.183  10.847
62332W        W29115  37.555  34.334   4.368
62333W        W29116  33.627  26.224  11.658
62334W        W29117  19.835  21.148   2.618
62335W        W29118   4.244   6.863  14.835
62336W        W29119  20.989  42.381   1.762
62337W        W29120  28.665  15.715  14.481
62338W        W29121  35.424  32.018  12.378
62339W        W29122  15.805  26.201  14.308
62340W        W29123  29.466   4.347  10.696
62341W        W29124  44.987  15.856  11.608
62342W        W29125  30.698   3.757   1.837
62343W        W29126  34.655   8.687  12.605
62344W        W29127   8.342  16.538  12.153
62345W        W29128  33.091  29.088  13.442
62346W        W29129  18.536  35.972   3.200
62347W        W29130  33.135  24.160   4.498
62348W        W29131  26.962  27.928  14.411
62349W        W29132  35.352  33.671  11.621
62350W        W29133  28.970  40.102   5.360
62351W        W29134   0.311  13.227  14.917
62352W        W29135  24.444  16.799  11.077
62353W        W29136  36.661   0.090  11.569
62354W        W29137  11.794  27.638   3.617
62355W        W29138   0.764   9.841   0.409
62356W        W29139  21.013   0.336   3.701
62357W        W29140  16.254  44.859   0.954
62358W        W29141  39.373  16.612   1.401
62359W        W29142   5.498   5.325  12.384
62360W        W29143   2.411  21.681  13.915
62361W        W29144   8.639  29.068  11.946
62362W        W29145  36.839  21.827   1.701
62363W        W29146  42.627  18.638   3.652
62364W        W29147  17.363  27.053   4.275
62365W        W29148   9.385  31.450   1.706
62366W        W29149  11.592  32.103  11.271
62367W        W29150  27.175  16.392   4.122
62368W        W29151  12.417  43.033   2.774
62369W        W29152  15.838  19.766  11.477
62370W        W29153  30.556  23.047   3.858
62371W        W29154   9.211  43.676  14.581
62372W        W29155  29.176  13.864  11.872
62373W        W29156  42.292  16.064  12.495
62374W        W29157  19.101  12.557   1.665
62375W        W29158  44.453  23.266   1.171
62376W        W29159  18.853  39.127  12.913
62377W        W29160  18.840   8.608   3.253
62378W        W29161   8.370  24.191  12.446
62379W        W29162  31.569  32.136  12.126
62380W        W29163   6.497  24.023   0.833
62381W        W29164  43.646  21.808  13.258
62382W        W29165  41.704  20.250   1.137
62383W        W29166   4.004  32.501  13.843
62384W        W29167  35.866  42.964   4.796
62385W        W29168  32.657   3.562  13.087
62386W        W29169  20.976   2.229  10.541
62387W        W29170   3.305  28.751  12.859
62388W        W29171  25.074  11.304  12.524
62389W        W29172  28.410  15.722  13.314
62390W        W29173   2.335  20.346   2.363
62391W        W29174  10.835   0.250  12.020
62392W        W29175  23.053   3.534   2.237
62393W        W29176   8.857  35.883  10.391
62394W        W29177  25.710  13.625   0.533
62395W        W29178  35.876  17.799   4.321
62396W        W29179  20.602  39.858   2.223
62397W        W29180  31.775  34.500   2.047
62398W        W29181  43.585  30.608   1.873
62399W        W29182  21.628  20.247  11.156
62400W        W29183   4.722  23.995   4.532
62401W        W29184  19.758  23.125  14.501
62402W        W29185  40.756   7.658   1.485
62403W        W29186  20.482  44.010   3.807
62404W        W29187  41.468  17.546   4.292
62405W        W29188  35.078  31.051  12.094
62406W        W29189  29.954  24.884   3.962
62407W        W29190  22.081  28.156   2.821
62408W        W29191   5.848  30.401  10.693
62409W        W29192  22.625  25.498  12.954
62410W        W29193   0.576  30.348  12.039
62411W        W29194  42.061   4.696   3.294
62412W        W29195   8.816  11.266   5.032
62413W        W29196  10.403  44.325  12.104
62414W        W29197   7.289   4.227   4.585
62415W        W29198   8.678  43.383   4.068
62416W        W29199  18.703  17.776   4.500
62417W        W29200  31.534   1.945   2.452
62418W        W29201  30.861   6.383  12.750
62419W        W29202   5.841  27.154  10.404
62420W        W29203  16.345  19.759  12.571
62421W        W29204   6.309  10.272  12.427
62422W        W29205   5.265  21.531   3.004
62423W        W29206  24.047  17.262  11.084
62424W        W29207  21.352  31.926   1.204
62425W        W29208   2.706  20.909   4.563
62426W        W29209  41.368   9.193   4.903
62427W        W29210  40.316  15.600   2.308
62428W        W29211  18.042  24.519   4.910
62429W        W29212  12.598  12.224  12.175
62430W        W29213  18.168  12.903   2.710
62431W        W29214  28.553  10.150   3.982
62432W        W29215   2.949  29.107  14.500
62433W        W29216  18.973  21.629   2.761
62434W        W29217  38.729  39.466   4.142
62435W        W29218  24.025  20.828  14.919
62436W        W29219  24.128   0.356   1.380
62437W        W29220   9.581  38.663   3.233
62438W        W29221  40.386  35.477  12.043
62439W        W29222  14.952   0.184  13.860
62440W        W29223   5.494  41.854   2.479
62441W        W29224  33.956  25.063   0.675
62442W        W29225  26.934  35.396  11.155
62443W        W29226  22.806  20.903  13.725
62444W        W29227   5.289   2.015  14.845
62445W        W29228  20.489  19.238  10.417
62446W        W29229  38.222  30.940  10.685
62447W        W29230   6.722  21.998   1.850
62448W        W29231  12.972  39.464   0.220
62449W        W29232  43.035  32.384   2.479
62450W        W29233  41.420  35.787   3.349
62451W        W29234  13.198  26.048  10.659
62452W        W29235  24.664  14.271   2.355
62453W        W29236  31.243   1.510  11.574
62454W        W29237  24.971   7.317   4.255
62455W        W29238  11.443   2.753  10.666
62456W        W29239   5.042  12.391  13.008
62457W        W29240  38.966  17.137   4.519
62458W        W29241  33.272  31.215  11.370
62459W        W29242  39.008  25.194  12.554
62460W        W29243  30.971  37.127  14.488
62461W        W29244   7.417  29.996  11.686
62462W        W29245  31.494  43.576   2.912
62463W        W29246  38.855  27.502   1.201
62464W        W29247  43.535  33.027  13.027
62465W        W29248  23.946  22.307   3.459
62466W        W29249  12.582   8.147   2.641
62467W        W29250  18.169  33.336   0.034
62468W        W29251  43.894   8.855   3.216
62469W        W29252  35.447  11.195  12.310
62470W        W29253  17.028  12.759   0.410
62471W        W29254  44.347  27.733  13.502
62472W        W29255  15.363  11.716   3.927
62473W        W29256   8.434  35.572   1.400
62474W        W29257  44.496  26.492   4.079
62475W        W29258  27.161   3.133  12.470
62476W        W29259  27.649  33.147   0.452
62477W        W29260   6.172  19.079   2.258
62478W        W29261  33.886  22.118   2.771
62479W        W29262  34.561  20.067   1.821
62480W        W29263  30.909  12.146  10.801
62481W        W29264  27.065   9.703   0.743
62482W        W29265  25.755  39.712  12.313
62483W        W29266  42.345  41.507   3.219
62484W        W29267   3.059  22.168   0.006
62485W        W29268  10.537   6.726   5.589
62486W        W29269  24.415   2.220   1.390
62487W        W29270  41.819  31.092  13.814
62488W        W29271  15.226  24.087  13.547
62489W        W29272   6.734   4.364  11.553
62490W        W29273   0.986   3.756   0.924
62491W        W29274  29.223  23.207   0.909
62492W        W29275  41.281  36.862  10.715
62493W        W29276  29.712   1.660   4.142
62494W        W29277  14.863  44.078   1.849
62495W        W29278  25.688  11.490   4.547
62496W        W29279  22.711  40.457   2.236
62497W        W29280   2.360   8.940  13.875
62498W        W29281  36.058   7.786  14.118
62499W        W29282  21.222  39.357   4.677
62500W        W29283  34.457  10.450  14.537
62501W        W29284  30.044  25.454  14.532
62502W        W29285  13.038  22.965  13.722
62503W        W29286   3.179  34.444   1.919
62504W        W29287  43.580  21.023   0.354
62505W        W29288  28.254  42.291  13.471
62506W        W29289  11.898  42.036  13.347
62507W        W29290  30.103  26.111   4.642
62508W        W29291   6.358  11.107   0.338
62509W        W29292  17.124  20.540  14.948
62510W        W29293  11.619  14.570   0.833
62511W        W29294   4.382  29.927  13.471
62512W        W29295  42.411  23.545  10.484
62513W        W29296  21.752  33.105  13.580
62514W        W29297  34.940  24.455  11.638
62515W        W29298   7.850  22.692   4.313
62516W        W29299  23.055  25.999   3.286
62517W        W29300  34.988  17.464   4.212
62518W        W29301  23.490  37.138   0.247
62519W        W29302   7.668  30.550  11.143
62520W        W29303   1.818  15.839   4.566
62521W        W29304  32.234   0.188  11.089
62522W        W29305  11.241  33.589  13.309
62523W        W29306  30.242  39.547   1.573
62524W        W29307   9.300   1.320  13.508
62525W        W29308  30.335   2.302  11.575
62526W        W29309  15.351  18.708  10.872
62527W        W29310  33.914  18.845   0.750
62528W        W29311  43.381  31.230   4.125
62529W        W29312  23.198  34.938  11.999
62530W        W29313  25.425  25.711   1.298
62531W        W29314  41.949  33.037   3.809
62532W        W29315  33.606   0.417   2.599
62533W        W29316  25.158  37.031   2.395
62534W        W29317  34.952   0.939  13.859
62535W        W29318  26.241   4.727  14.025
62536W        W29319  30.653   4.166  12.816
62537W        W29320  36.103  22.521   1.674
62538W        W29321  32.938   1.528   0.532
62539W        W29322  17.386   1.220   5.038
62540W        W29323  23.927  25.131   2.563
62541W        W29324  21.174  17.078   1.192
62542W        W29325   5.247  26.568   3.677
62543W        W29326  41.332  20.674   3.473
62544W        W29327   1.258  17.062  13.017
62545W        W29328  24.176   4.828   0.658
62546W        W29329  21.329  29.713   3.726
62547W        W29330  17.053  12.285   3.365
62548W        W29331   2.944  20.594   1.877
62549W        W29332  42.162   9.977   3.675
62550W        W29333  30.638  14.390   5.030
62551W        W29334  16.769  42.302  11.128
62552W        W29335  30.697  25.672  12.959
62553W        W29336  20.945  10.072   2.827
62554W        W29337  28.783  31.470  10.718
62555W        W29338  30.689  36.750  10.623
62556W        W29339  34.740  32.124  14.233
62557W        W29340  29.991  37.401  11.671
62558W        W29341  34.181  21.850   0.023
62559W        W29342  27.073  12.171  11.021
62560W        W29343  35.348  17.119  10.402
62561W        W29344  20.906  30.224  10.665
62562W        W29345  37.544  32.927  13.601
62563W        W29346  24.001  28.485  14.734
62564W        W29347  43.892  34.892   3.757
62565W        W29348  28.198  12.230   3.262
62566W        W29349  42.853   9.496  10.166
62567W        W29350  37.503  31.002  12.178
62568W        W29351  16.810  25.905  10.892
62569W        W29352   5.389  32.360  12.007
62570W        W29353  13.683   5.703  14.000
62571W        W29354  19.752  29.118  14.241
62572W        W29355  30.432  42.739  10.640
62573W        W29356  32.992  31.206  10.906
62574W        W29357   7.764  22.558  11.483
62575W        W29358  33.215  19.706   3.269
62576W        W29359   3.292  35.530   0.339
62577W        W29360   4.707  16.814   1.913
62578W        W29361  35.204   9.695   3.865
62579W        W29362  18.061   9.221  11.174
62580W        W29363   1.353  38.434  11.631
62581W        W29364  38.386  14.345  13.412
62582W        W29365  13.688  40.523  14.442
62583W        W29366  29.999  24.286   1.358
62584W        W29367  33.359   7.049   3.198
62585W        W29368   3.117  33.903  12.934
62586W        W29369  19.220  35.867  10.773
62587W        W29370  40.418  18.285   1.151
62588W        W29371  25.731  33.905   3.775
62589W        W29372  26.107  31.433  14.507
62590W        W29373  35.927  35.925   4.386
62591W        W29374   8.077  27.281   2.637
62592W        W29375  32.713  11.272   0.416
62593W        W29376  21.115  37.916   1.262
62594W        W29377  36.986  33.112  12.373
62595W        W29378  43.262  11.892  12.088
62596W        W29379  27.890  14.651   2.208
62597W        W29380   7.316  30.075   0.789
62598W        W29381  21.101   8.889  14.309
62599W        W29382  39.592  23.145   3.315
62600W        W29383  34.032  36.907  12.059
62601W        W29384  12.733  15.703  10.583
62602W        W29385  37.072  25.052  14.107
62603W        W29386   0.013  18.176  12.126
62604W        W29387  35.540  10.935  11.881
62605W        W29388  35.180  28.444  12.486
62606W        W29389  33.789  32.001   1.195
62607W        W29390  24.223  23.077  14.779
62608W        W29391  25.976  38.782   5.365
62609W        W29392  29.551  42.776  12.795
62610W        W29393  24.085   1.984   4.957
62611W        W29394  31.043  27.425   3.326
62612W        W29395  22.005  41.476  12.928
62613W        W29396  22.414  31.501   2.253
62614W        W29397  42.060  41.328  11.581
62615W        W29398  21.119  43.890   2.264
62616W        W29399  41.723   2.818   4.740
62617W        W29400   6.633  12.078  13.374
62618W        W29401  13.165   4.592  11.513
62619W        W29402   8.888   2.304   0.033
62620W        W29403  16.693  37.197  13.041
62621W        W29404  33.432  35.673  13.876
62622W        W29405  24.119  22.322   1.778
62623W        W29406  31.094  25.931  11.648
62624W        W29407  37.579  29.811   4.233
62625W        W29408  25.255  26.149   1.519
62626W        W29409  29.533   9.675   2.344
62627W        W29410  19.998  43.979  14.022
62628W        W29411  18.831  25.037  12.946
62629W        W29412  27.125  18.371   4.909
62630W        W29413   5.748  32.650  11.022
62631W        W29414   5.669  12.877   2.850
62632W        W29415  21.462   4.623  14.855
62633W        W29416  21.144  22.154   3.594
62634W        W29417   4.943  25.067  14.984
62635W        W29418  33.246  40.745  10.721
62636W        W29419   2.438  32.276  12.607
62637W        W29420   8.787  24.537   1.323
62638W        W29421   0.759  44.816  11.190
62639W        W29422  31.776   4.296  13.770
62640W        W29423  37.391  20.712  13.029
62641W        W29424  34.357  10.369   3.167
62642W        W29425  41.273  38.604   1.465
62643W        W29426  38.031   6.171  10.722
62644W        W29427  23.067  44.571  10.688
62645W        W29428  35.073  22.674  14.827
62646W        W29429  37.477  38.558   0.884
62647W        W29430  15.476  36.891  14.935
62648W        W29431   0.480  33.424  10.949
62649W        W29432  17.726  33.687   4.728
62650W        W29433  33.045  17.958   2.342
62651W        W29434  23.171   8.386  11.653
62652W        W29435  11.391  17.211   4.639
62653W        W29436  32.808  25.573   3.305
62654W        W29437  34.701  16.079  14.142
62655W        W29438  24.952  38.858   0.358
62656W        W29439  21.517  10.284   3.294
62657W        W29440  36.554  22.625  14.874
62658W        W29441  12.195  40.098  11.520
62659W        W29442  27.157  21.113  14.317
62660W        W29443  41.907  38.805   4.064
62661W        W29444   2.668  28.967  14.914
62662W        W29445  30.872  15.156  10.714
62663W        W29446  20.263  18.304   1.270
62664W        W29447  21.044  19.041   3.963
62665W        W29448  24.935  29.191  13.311
62666W        W29449  18.387  42.720   5.319
62667W        W29450  12.209  12.663   0.793
62668W        W29451  25.489  38.046  12.490
62669W        W29452  37.990  18.905  14.108
62670W        W29453   4.822  18.494   0.094
62671W        W29454  14.375  20.195   2.872
62672W        W29455  17.335  25.041   3.184
62673W        W29456  16.228  16.778  12.189
62674W        W29457   1.756  33.437  11.049
62675W        W29458  17.290  33.374   4.937
62676W        W29459   7.385   4.778   3.176
62677W        W29460  36.904   2.959  12.579
62678W        W29461  13.801  12.018   1.399
62679W        W29462  22.265  43.984   1.204
62680W        W29463  38.767  11.639   1.759
62681W        W29464  35.100  33.204  13.267
62682W        W29465  26.789  14.661   3.526
62683W        W29466  32.894  24.237   3.232
62684W        W29467  15.908  17.396   2.294
62685W        W29468   4.641  27.571   0.038
62686W        W29469  26.072   4.376  10.783
62687W        W29470   2.471  28.462  10.496
62688W        W29471  30.728  22.264   0.868
62689W        W29472  30.770  13.379  12.611
62690W        W29473  27.138  21.757  13.419
62691W        W29474  27.682   3.304  14.808
62692W        W29475   9.247   4.739   2.767
62693W        W29476   6.770  37.993   1.942
62694W        W29477  37.826  32.399  12.937
62695W        W29478  31.111  17.914   5.062
62696W        W29479   8.478  38.341  10.830
62697W        W29480   8.880   7.337   2.536
62698W        W29481  30.968   4.019  13.413
62699W        W29482   5.116  20.499   3.215
62700W        W29483  29.570  29.249   2.382
62701W        W29484  41.953   9.753  13.344
62702W        W29485   6.168  24.705   3.295
62703W        W29486  36.381  29.563  14.927
62704W        W29487  12.580  42.172  12.987
62705W        W29488  24.090  41.263   2.728
62706W        W29489  16.138  10.628  12.588
62707W        W29490  31.839   5.294   1.342
62708W        W29491  27.938  20.796  12.499
62709W        W29492   5.090   8.624   2.818
62710W        W29493   7.670   7.356   3.738
62711W        W29494  43.618  41.228  10.626
62712W        W29495  41.809  33.885  14.362
62713W        W29496  39.276  42.260   1.916
62714W        W29497  21.640  20.099   3.678
62715W        W29498   6.868  22.242  11.650
62716W        W29499   6.360  13.074  14.585
62717W        W29500  20.431   8.075  14.413
62718W        W29501  25.460  38.320  12.917
62719W        W29502  31.055  26.394  12.187
62720W        W29503  26.252  13.218   3.151
62721W        W29504  22.146  44.768   3.678
62722W        W29505  24.507  18.434   0.809
62723W        W29506  22.018   7.169  14.468
62724W        W29507  32.158  20.570   1.781
62725W        W29508  40.911  39.828  14.285
62726W        W29509  37.052  24.172  11.408
62727W        W29510   7.296   1.237  12.395
62728W        W29511  38.280  44.396  14.971
62729W        W29512   5.231  43.168   1.795
62730W        W29513   0.794  31.922  14.953
62731W        W29514  29.542  11.221  11.136
62732W        W29515  32.830  27.702   0.877
62733W        W29516  21.381  20.124  10.732
62734W        W29517  20.021  13.697  11.629
62735W        W29518  11.364  22.746   3.827
62736W        W29519   8.449   5.695  13.931
62737W        W29520  17.233  14.809  13.111
62738W        W29521  32.534   0.933   1.272
62739W        W29522  18.640  17.219  10.396
62740W        W29523   9.249  13.181   4.872
62741W        W29524   9.985  41.701  12.735
62742W        W29525  24.417   5.060   3.950
62743W        W29526   6.161  39.470  13.443
62744W        W29527  37.085   5.433  14.257
62745W        W29528  25.704  29.062  11.097
62746W        W29529  11.784  38.282  13.767
62747W        W29530  29.394  31.444  10.721
62748W        W29531  35.492  15.630   1.506
62749W        W29532  37.078  17.318  11.984
62750W        W29533   6.516  39.174   2.539
62751W        W29534  39.009  40.732   4.951
62752W        W29535  19.141  15.177   1.809
62753W        W29536  10.378  29.673  13.815
62754W        W29537  23.929  35.548   4.114
62755W        W29538   8.091  38.552   1.830
62756W        W29539  27.385  27.652  14.982
62757W        W29540  42.835  14.693   2.837
62758W        W29541  31.328  30.021  11.443
62759W        W29542  32.553  34.457   2.724
62760W        W29543  28.157  42.435  12.016
62761W        W29544  11.354  39.967  13.257
62762W        W29545  13.472  19.719   3.761
62763W        W29546  12.717  13.431  14.959
62764W        W29547  10.059  41.125   2.196
62765W        W29548  42.023  35.399  14.994
62766W        W29549  30.593  31.954  14.328
62767W        W29550  33.119  23.664   0.913
62768W        W29551  35.296  28.802  14.841
62769W        W29552  30.683  10.312   3.750
62770W        W29553  12.212  23.288  13.041
62771W        W29554  25.925  23.916   1.351
62772W        W29555  23.756  19.193   4.544
62773W        W29556  37.365  18.083   2.562
62774W        W29557   0.121  39.509   2.343
62775W        W29558   1.258   1.784  12.477
62776W        W29559  33.356  15.943   4.176
62777W        W29560  13.109   4.976  12.300
62778W        W29561   4.209  22.755   4.250
62779W        W29562   4.779  23.115   2.017
62780W        W29563  25.747  11.703   0.531
62781W        W29564   9.941  11.027   9.415
62782W        W29565  42.271  17.614  12.838
62783W        W29566  41.181   3.312  11.639
62784W        W29567  17.738  29.361   3.769
62785W        W29568  29.383  32.518   1.367
62786W        W29569  23.884  34.648  11.037
62787W        W29570  42.850   9.813   0.886
62788W        W29571  19.666   9.649   4.745
62789W        W29572  11.842   4.796  13.620
62790W        W29573   8.448  28.411   3.376
62791W        W29574   6.830  13.604   2.069
62792W        W29575   0.870   4.302   4.373
62793W        W29576  33.490   7.308  13.557
62794W        W29577  24.720  15.964  14.519
62795W        W29578  31.492  34.705   1.178
62796W        W29579  18.143  22.426  12.869
62797W        W29580  15.280  25.672   0.485
62798W        W29581  15.641  16.142  12.773
62799W        W29582   4.018  43.357  11.976
62800W        W29583  13.238  39.585  13.003
62801W        W29584   1.365  25.976  12.419
62802W        W29585  25.761  38.439  14.380
62803W        W29586  35.748  13.396  13.567
62804W        W29587   5.669  20.612   3.114
62805W        W29588  30.984  11.199  11.720
62806W        W29589   2.382   1.270   4.545
62807W        W29590  30.895   4.431   0.761
62808W        W29591  15.983  42.060   2.236
62809W        W29592  17.712  42.971   1.073
62810W        W29593  18.349  42.365  12.520
62811W        W29594  43.417  10.147  14.838
62812W        W29595   8.250  20.600  13.599
62813W        W29596  31.055   8.011   1.421
62814W        W29597  12.604  38.123  14.271
62815W        W29598  35.578  28.301  13.524
62816W        W29599  34.800  11.572   1.809
62817W        W29600  34.434  36.339   4.226
62818W        W29601  27.560  15.578  12.362
62819W        W29602  19.742  20.767   2.243
62820W        W29603  44.992  33.366   0.968
62821W        W29604  20.532  23.131   2.800
62822W        W29605   7.752   7.652   2.842
62823W        W29606  36.140  21.723   4.426
62824W        W29607  36.839  37.788  12.923
62825W        W29608  38.631  31.173   3.223
62826W        W29609  23.366  34.598   2.636
62827W        W29610  40.318  28.619  12.426
62828W        W29611   2.692  35.957   0.391
62829W        W29612   6.591  28.554  13.070
62830W        W29613  40.458  24.251  12.540
62831W        W29614  40.734  32.813  12.061
62832W        W29615  25.124  22.221  10.963
62833W        W29616  35.797   9.238  10.737
62834W        W29617  38.918  33.541  10.499
62835W        W29618  41.724  17.151   5.090
62836W        W29619   5.652  25.568   4.449
62837W        W29620   7.779  13.182  13.949
62838W        W29621  37.499  40.342   1.974
62839W        W29622  11.732  17.704   0.865
62840W        W29623  38.981  19.736  14.790
62841W        W29624   1.646  16.617  14.721
62842W        W29625  20.452  42.868   4.283
62843W        W29626  10.801  31.128  11.642
62844W        W29627  38.256  43.922  10.447
62845W        W29628  32.532  26.747  11.974
62846W        W29629  25.677  18.031  11.865
62847W        W29630  10.756   1.523  10.947
62848W        W29631  44.867  19.328  11.697
62849W        W29632   2.507  11.450  12.662
62850W        W29633  22.609  18.461  14.070
62851W        W29634  20.516  11.907  11.143
62852W        W29635  24.131  29.596  10.663
62853W        W29636  28.124  30.680   3.090
62854W        W29637   2.224  14.196  14.081
62855W        W29638  39.741  28.788   3.642
62856W        W29639   1.346   9.812  12.467
62857W        W29640   7.752  41.418   1.245
62858W        W29641  22.132  25.927  11.697
62859W        W29642  22.159  42.879  11.860
62860W        W29643  19.213  22.263  14.823
62861W        W29644   3.309  22.975   3.133
62862W        W29645   9.432  23.103  12.376
62863W        W29646   6.628  32.386  10.658
62864W        W29647  34.332  10.635  12.476
62865W        W29648  37.995  35.970   2.476
62866W        W29649  29.626  37.374  12.969
62867W        W29650  36.603  37.044   1.724
62868W        W29651   5.382  26.508  14.563
62869W        W29652  43.520   4.288   3.179
62870W        W29653   3.283  21.407   4.080
62871W        W29654   2.982  15.723  12.530
62872W        W29655  19.147   0.543  11.669
62873W        W29656   5.911  28.920   2.153
62874W        W29657  12.266  26.718  13.131
62875W        W29658   5.342  30.322  11.963
62876W        W29659  12.756   4.698   2.788
62877W        W29660   3.767  10.894  11.048
62878W        W29661  25.634  43.361  11.511
62879W        W29662  41.580   9.153  13.885
62880W        W29663  22.535  21.077   9.874
62881W        W29664  39.320  27.428  12.508
62882W        W29665  27.102  19.411  11.604
62883W        W29666  28.450  15.317   3.778
62884W        W29667  41.568  29.674   1.320
62885W        W29668  27.404  23.648  10.244
62886W        W29669  27.189  23.707  13.302
62887W        W29670   4.058  19.492   3.420
62888W        W29671  26.047   6.675   2.338
62889W        W29672   8.722  10.958   1.333
62890W        W29673  28.628  10.834  14.864
62891W        W29674   9.246   6.637  10.623
62892W        W29675  44.743  39.490  13.797
62893W        W29676   5.554  21.646  14.411
62894W        W29677  26.246  19.318  11.600
62895W        W29678   3.185  15.404   0.304
62896W        W29679  27.455  28.503   1.707
62897W        W29680   3.420  17.367   4.254
62898W        W29681   1.667   8.701   2.359
62899W        W29682  13.633  35.553   2.406
62900W        W29683  27.143  36.573  12.543
62901W        W29684  14.297  12.097   1.549
62902W        W29685  26.240  27.305  11.206
62903W        W29686  33.657  35.945  12.878
62904W        W29687  17.746  15.271   0.296
62905W        W29688  44.245  15.560  11.052
62906W        W29689  37.884  35.376   3.725
62907W        W29690  37.833  31.622  14.565
62908W        W29691  38.682  19.512  13.117
62909W        W29692   3.146  24.981  13.719
62910W        W29693  38.883  31.117   2.765
62911W        W29694  19.450  21.479   1.214
62912W        W29695  21.190  25.989   1.619
62913W        W29696  30.646  24.994   4.615
62914W        W29697  12.653  39.084   4.117
62915W        W29698   7.423  17.785   2.485
62916W        W29699   1.799  21.315  14.782
62917W        W29700   6.870  25.474   1.221
62918W        W29701   5.631   3.729   4.628
62919W        W29702  28.566  22.665   0.048
62920W        W29703  33.667  13.389   0.307
62921W        W29704  31.664   9.126  14.008
62922W        W29705   3.917   1.409  13.988
62923W        W29706  19.663  16.836   2.705
62924W        W29707  19.507   2.579   9.804
62925W        W29708  36.307  43.706  11.139
62926W        W29709  38.803  38.853  13.341
62927W        W29710  44.366  28.181   3.359
62928W        W29711  24.007  34.971  14.665
62929W        W29712  29.394  25.951   2.448
62930W        W29713  14.731  28.778   3.664
62931W        W29714   3.936  17.673   4.889
62932W        W29715  41.752  38.926  12.503
62933W        W29716   0.079  11.677   4.590
62934W        W29717  19.872  14.035   9.857
62935W        W29718  37.653  32.050  13.680
62936W        W29719  14.333  25.990  13.554
62937W        W29720  31.925  22.649  14.908
62938W        W29721   4.936  20.542  12.314
62939W        W29722  26.754  13.134   3.879
62940W        W29723  16.651  39.171   0.421
62941W        W29724  34.317  28.564  14.847
62942W        W29725  10.820  12.990   0.566
62943W        W29726  22.885  19.221   2.641
62944W        W29727  30.602  22.694  13.454
62945W        W29728  40.491  39.111   0.474
62946W        W29729  30.366   7.748  12.400
62947W        W29730  40.264  20.951  14.955
62948W        W29731  21.079  42.223   0.460
62949W        W29732  21.604  17.512  13.501
62950W        W29733  24.491  36.343  12.086
62951W        W29734  25.013  37.483   3.284
62952W        W29735  25.392  20.684   4.082
62953W        W29736   1.985  22.473  10.025
62954W        W29737   4.875  17.594   4.561
62955W        W29738   2.242   7.356   3.637
62956W        W29739   4.428  21.165   3.416
62957W        W29740  43.114  38.634   1.916
62958W        W29741  36.414  13.460  14.073
62959W        W29742  43.779  22.544   2.338
62960W        W29743   7.600  31.746  13.274
62961W        W29744  31.556  25.195   2.104
62962W        W29745   7.220  23.768  11.404
62963W        W29746  19.674  30.014   0.987
62964W        W29747  21.726   4.855  13.616
62965W        W29748  17.081   2.323  11.526
62966W        W29749  23.124  26.756  12.570
62967W        W29750  42.348  40.449   4.367
62968W        W29751  36.287   3.694   3.294
62969W        W29752  40.470  15.066  14.271
62970W        W29753  42.847   3.207  10.727
62971W        W29754  30.122  20.686   3.692
62972W        W29755  22.355   4.788  12.753
62973W        W29756  24.323  24.113  14.823
62974W        W29757  23.633  31.678   3.845
62975W        W29758  36.557   3.969  12.947
62976W        W29759   0.018   5.305   0.476
62977W        W29760   7.951  12.755  11.145
62978W        W29761  32.112  19.725  13.836
62979W        W29762  12.991   8.272   2.352
62980W        W29763  13.810  22.281  12.669
62981W        W29764  11.899  40.469  11.086
62982W        W29765  27.084  32.574   4.767
62983W        W29766  18.743  17.423   4.102
62984W        W29767  14.076  15.383  14.330
62985W        W29768  29.377  42.954   0.957
62986W        W29769  10.155  18.579  10.317
62987W        W29770  28.885  30.658   2.482
62988W        W29771  23.993  27.962  12.966
62989W        W29772  35.671  17.544  11.667
62990W        W29773  13.228  11.305   1.316
62991W        W29774  38.661   1.875  11.674
62992W        W29775  13.786   7.753   2.288
62993W        W29776  43.486  40.044   2.998
62994W        W29777  42.742   5.950   3.626
62995W        W29778  13.133  22.712   3.655
62996W        W29779  18.999  31.556  14.392
62997W        W29780  10.604   5.311   0.879
62998W        W29781  36.425  40.650  11.213
62999W        W29782  13.791  43.442   4.383
63000W        W29783  32.869  39.001   3.725
63001W        W29784  22.577   4.046  13.953
63002W        W29785   8.917  26.144  11.649
63003W        W29786  41.429  42.243   2.810
63004W        W29787   8.733  18.276  13.880
63005W        W29788  29.955   0.539  14.451
63006W        W29789  16.063  29.736  13.406
63007W        W29790  20.777   8.293   1.979
63008W        W29791  30.974  41.476   0.277
63009W        W29792   6.742   3.736  14.960
63010W        W29793   1.676  28.995  14.879
63011W        W29794  23.984  33.650   0.159
63012W        W29795  32.652  19.168   9.787
63013W        W29796  18.137  40.079  10.680
63014W        W29797   3.637  13.618  12.716
63015W        W29798   6.625  19.382   0.200
63016W        W29799   9.119  20.493   0.327
63017W        W29800  44.909  23.955   1.376
63018W        W29801  33.439  37.354   3.271
63019W        W29802  10.646  29.069   1.270
63020W        W29803  14.929  19.778  13.798
63021W        W29804  30.546   7.198  13.611
63022W        W29805  37.963  42.832   4.493
63023W        W29806   1.432   8.869  12.467
63024W        W29807  17.289  23.886   3.955
63025W        W29808  31.620  31.334  12.532
63026W        W29809  16.305  12.717   1.682
63027W        W29810  24.888  27.372  12.960
63028W        W29811  35.198  29.227   4.125
63029W        W29812  26.571   7.057   3.030
63030W        W29813  42.364  22.909   0.860
63031W        W29814  18.284   1.496  12.130
63032W        W29815  20.051  42.841   0.352
63033W        W29816  30.584  12.578   0.977
63034W        W29817  35.675  37.390   0.227
63035W        W29818  18.737   9.497   3.180
63036W        W29819  42.371   7.332  13.243
63037W        W29820  27.213   6.036   0.389
63038W        W29821  15.717  22.563   3.061
63039W        W29822   9.592  10.220   2.663
63040W        W29823  14.091   7.222   0.772
63041W        W29824  26.099  40.705   0.530
63042W        W29825  11.662  41.067   2.792
63043W        W29826  15.887  12.280  14.787
63044W        W29827  26.349  25.165  12.329
63045W        W29828  24.104  13.248   3.167
63046W        W29829  19.947  39.142   9.987
63047W        W29830  43.910  44.760   3.451
63048W        W29831  41.272  33.911   4.870
63049W        W29832   7.781   2.731   2.843
63050W        W29833  24.180  26.809  10.345
63051W        W29834   0.420  24.971  12.837
63052W        W29835   9.877  40.899   3.456
63053W        W29836   5.422  34.465  11.993
63054W        W29837  41.952  35.845   0.255
63055W        W29838  12.596  33.803  11.637
63056W        W29839  16.098   1.497  11.508
63057W        W29840  30.534  18.822  12.924
63058W        W29841   7.318   6.771   2.740
63059W        W29842  11.790  13.700  13.020
63060W        W29843  25.893   9.047  12.235
63061W        W29844  42.149  39.466   3.336
63062W        W29845   2.973  22.701   1.763
63063W        W29846  32.555  42.922   1.659
63064W        W29847   7.416  34.411  10.664
63065W        W29848   2.434  22.168   2.828
63066W        W29849  24.658  21.125  12.882
63067W        W29850  24.537   1.025  13.992
63068W        W29851   0.805   4.958   1.348
63069W        W29852   4.703  36.538   4.525
63070W        W29853  37.093   4.711  13.984
63071W        W29854   6.913  37.026   3.925
63072W        W29855   3.221  29.956  13.924
63073W        W29856  39.897  31.743   0.844
63074W        W29857  14.405  10.032  12.124
63075W        W29858  17.290  39.266   1.426
63076W        W29859  43.309  38.827   4.115
63077W        W29860  32.749  41.080  12.921
63078W        W29861  17.649   3.006   0.875
63079W        W29862  44.960  35.145   3.598
63080W        W29863  25.725   8.660  11.717
63081W        W29864  44.916   6.265  11.161
63082W        W29865  10.980  15.260   4.073
63083W        W29866  37.444  40.421   1.481
63084W        W29867  29.567  23.579   1.655
63085W        W29868   7.438   8.753  11.309
63086W        W29869  18.047  17.241   3.222
63087W        W29870  20.068  23.998   2.886
63088W        W29871  10.641  12.851  11.513
63089W        W29872  34.143   4.426  14.304
63090W        W29873  13.616  12.269  10.801
63091W        W29874  16.171  37.074  11.798
63092W        W29875  16.578  42.974   4.127
63093W        W29876  34.971  38.294   2.751
63094W        W29877  15.302   4.441  13.923
63095W        W29878  18.980  19.258   1.896
63096W        W29879   4.939  10.294   2.272
63097W        W29880  44.392  26.027   4.553
63098W        W29881  29.837  10.302  10.704
63099W        W29882  15.817  31.290   0.086
63100W        W29883  15.868  18.767   0.828
63101W        W29884  10.321   6.002   3.274
63102W        W29885  44.972  20.861  12.403
63103W        W29886  41.223  37.417  10.822
63104W        W29887  41.704  41.825  12.834
63105W        W29888  33.715  42.823  13.078
63106W        W29889   2.291  31.606  11.937
63107W        W29890  43.479  42.329   4.599
63108W        W29891  19.249  25.721  11.217
63109W        W29892  25.237  44.896   2.868
63110W        W29893  21.863  39.885  12.898
63111W        W29894  31.242  25.585   2.248
63112W        W29895  28.653  37.428   0.354
63113W        W29896   9.338  12.752  12.028
63114W        W29897   9.897  10.132  11.187
63115W        W29898   2.369  37.156   1.400
63116W        W29899   1.880  43.239   1.796
63117W        W29900  10.477  37.038  11.979
63118W        W29901  21.069  19.454   3.668
63119W        W29902  29.007  11.858   3.244
63120W        W29903  28.585   9.132  14.546
63121W        W29904   3.307  11.796   3.884
63122W        W29905  10.151  11.842   0.890
63123W        W29906  15.602  28.286  13.456
63124W        W29907  31.100  39.363   4.185
63125W        W29908  16.725  41.354  14.031
63126W        W29909  18.284  42.193  10.918
63127W        W29910  37.912  34.354   2.823
63128W        W29911  35.606  42.555   4.506
63129W        W29912  36.038  21.519  14.475
63130W        W29913  43.791  23.116   0.142
63131W        W29914  13.140   3.030  13.116
63132W        W29915  42.478  42.299  11.751
63133W        W29916  22.743  20.511   2.414
63134W        W29917  18.219  21.102  10.632
63135W        W29918  13.898  38.084   9.942
63136W        W29919  14.434  27.421  10.074
63137W        W29920  11.863  43.402   1.453
63138W        W29921   2.901  40.005  12.074
63139W        W29922  11.824  39.307   2.879
63140W        W29923   1.015  36.031  14.026
63141W        W29924   5.694  18.757  11.441
63142W        W29925  39.744  14.182  13.195
63143W        W29926  23.366  27.223  11.186
63144W        W29927  31.060  33.178   0.253
63145W        W29928  40.374  23.566  13.895
63146W        W29929  43.281  40.022   0.396
63147W        W29930  38.937  28.654   4.285
63148W        W29931  31.888   9.824   1.827
63149W        W29932   0.575  30.175   4.706
63150W        W29933  11.668   9.161   4.977
63151W        W29934  15.204  38.575   5.491
63152W        W29935  39.303  41.323   2.837
63153W        W29936  34.057  42.893  14.600
63154W        W29937  27.732   7.592  12.992
63155W        W29938   0.580   6.289   2.143
63156W        W29939  10.871  30.474  14.163
63157W        W29940  31.962   5.740   3.231
63158W        W29941  13.986  31.481   1.192
63159W        W29942   2.351  21.879   2.193
63160W        W29943  43.843   0.223   1.446
63161W        W29944  19.472  41.455  12.936
63162W        W29945   6.427  34.628  11.295
63163W        W29946  40.908  19.773   3.384
63164W        W29947   2.399  40.597   4.273
63165W        W29948   4.200  43.706  13.173
63166W        W29949  42.354   2.493  11.617
63167W        W29950  36.753  14.653  13.761
63168W        W29951   2.803  38.036  13.144
63169W        W29952  27.708  29.175   4.085
63170W        W29953  16.569   0.568   2.582
63171W        W29954  20.079   4.920   4.039
63172W        W29955  34.063  43.259  14.088
63173W        W29956  39.067   2.811  11.053
63174W        W29957  41.968  13.859   0.917
63175W        W29958   4.458  14.692   2.208
63176W        W29959  21.666  42.325  13.894
63177W        W29960  27.847  31.038   4.290
63178W        W29961   2.806  44.494  13.485
63179W        W29962   3.817  38.091   4.414
63180W        W29963  40.505  31.807  13.005
63181W        W29964  22.938  39.925   2.440
63182W        W29965  18.334  37.985   2.800
63183W        W29966  24.516  28.121   3.036
63184W        W29967  40.018  44.047   3.032
63185W        W29968   2.330  19.838   4.241
63186W        W29969  37.870   9.150  14.949
63187W        W29970  25.260  28.660   3.656
63188W        W29971   8.736  15.824  14.740
63189W        W29972  12.448   7.408   0.986
63190W        W29973   0.707  32.807   3.785
63191W        W29974  43.877  41.499   3.505
63192W        W29975  42.881  23.518   1.765
63193W        W29976  38.457  20.695   4.315
63194W        W29977  37.481  40.879  12.238
63195W        W29978  21.003  43.908  14.073
63196W        W29979   6.291  38.225  10.757
63197W        W29980  18.045  12.763   2.201
63198W        W29981  25.171  23.560   3.271
63199W        W29982  17.114  12.423   1.306
63200W        W29983  31.852  43.596  13.295
63201W        W29984   6.442  39.656  11.545
63202W        W29985  43.946  32.637  13.924
63203W        W29986  28.928   0.726  11.212
63204W        W29987  15.791   5.695   1.983
63205W        W29988  36.364  18.829  11.871
63206W        W29989   9.273  31.138  12.512
63207W        W29990  28.625  31.130  13.893
63208W        W29991  10.765   3.399   3.004
63209W        W29992  17.115  43.803   3.884
63210W        W29993  24.348  22.261   2.291
63211W        W29994  39.282  23.475   4.146
63212W        W29995  27.446   4.902   3.286
63213W        W29996  35.499  23.695  12.603
63214W        W29997  22.392  32.452   1.948
63215W        W29998  20.274  25.570   3.773
63216W        W29999  20.773   7.345  11.645
63217W        W30000   3.166  43.783   2.710
63218W        W30001  16.263  40.261  12.148
63219W        W30002  36.058  23.270   3.350
63220W        W30003  15.674  10.799   2.300
63221W        W30004  43.958  16.693  11.292
63222W        W30005  36.971  28.928   0.261
63223W        W30006  17.705  15.935   1.690
63224W        W30007  12.521   3.947   4.114
63225W        W30008  30.538  34.521   3.956
63226W        W30009  22.963  12.679   4.603
63227W        W30010  18.623  27.906  12.655
63228W        W30011  35.041   2.506  11.480
63229W        W30012   0.004  41.134   4.401
63230W        W30013  32.644  19.632  13.743
63231W        W30014   7.572  18.797  14.382
63232W        W30015  35.508  18.809   1.945
63233W        W30016  25.072  31.698   3.681
63234W        W30017  44.983  17.040   4.061
63235W        W30018  22.510  24.030  12.153
63236W        W30019  25.226  15.744   3.916
63237W        W30020  32.863  10.755  10.545
63238W        W30021  37.416  21.176   4.084
63239W        W30022  13.933   4.023  13.002
63240W        W30023  24.694  41.053   2.170
63241W        W30024  33.141  16.833   4.493
63242W        W30025   4.328   7.833  12.440
63243W        W30026   6.646  17.077  11.073
63244W        W30027   2.032  22.779   1.365
63245W        W30028  40.859  43.361  12.962
63246W        W30029  34.173  36.803  11.207
63247W        W30030   4.971   5.730  14.944
63248W        W30031  14.393  25.134   3.253
63249W        W30032  32.064  16.122  12.608
63250W        W30033   5.882  32.186  11.983
63251W        W30034  14.553  31.590  13.845
63252W        W30035  30.903  31.085   0.942
63253W        W30036  39.004  17.685   3.219
63254W        W30037  30.444   6.031  12.803
63255W        W30038  33.630  40.485  12.092
63256W        W30039   5.135  24.054  14.477
63257W        W30040  23.604   2.352   2.722
63258W        W30041  13.776  15.144   3.659
63259W        W30042  32.950  16.908  11.041
63260W        W30043   8.972  18.950  14.431
63261W        W30044   3.411  37.647  10.612
63262W        W30045  26.242  30.485  13.363
63263W        W30046  19.773   0.285   2.254
63264W        W30047   1.861  26.018  14.550
63265W        W30048  29.573  13.241  10.996
63266W        W30049  17.486  27.443  14.293
63267W        W30050   9.204  37.964  12.773
63268W        W30051  35.963  39.335  14.720
63269W        W30052  24.073  40.419  12.799
63270W        W30053  36.001  36.055   2.470
63271W        W30054  40.961   1.903   2.836
63272W        W30055  40.425  21.003  12.924
63273W        W30056  32.976  29.315  12.408
63274W        W30057  26.801  41.794   0.853
63275W        W30058  19.391  36.983  11.688
63276W        W30059  13.268  39.791   4.257
63277W        W30060   7.875  26.623   9.912
63278W        W30061  27.678  28.238   3.607
63279W        W30062   5.511  22.640  11.209
63280W        W30063  20.985   1.256  12.386
63281W        W30064  43.644   2.826  14.958
63282W        W30065   2.109  13.631  12.475
63283W        W30066  11.675  20.754  13.473
63284W        W30067   3.979   2.943  12.243
63285W        W30068   3.273   0.640   3.033
63286W        W30069  32.997  41.194   3.117
63287W        W30070  42.092  25.911  11.981
63288W        W30071  42.700   3.933  11.704
63289W        W30072   6.642  34.162  11.558
63290W        W30073  31.097  15.128  14.047
63291W        W30074   4.177  44.066   3.676
63292W        W30075  19.531  36.933   1.732
63293W        W30076  42.978   6.674   4.931
63294W        W30077   5.305  35.939  13.478
63295W        W30078   3.727  43.826   1.012
63296W        W30079   5.703   6.074  14.446
63297W        W30080  28.098  26.686  14.027
63298W        W30081  10.898  43.853   1.871
63299W        W30082   3.277   6.774   1.311
63300W        W30083  11.781  32.472  14.600
63301W        W30084  17.100   3.204  14.435
63302W        W30085  18.183   3.203  13.889
63303W        W30086   6.071  30.154  11.582
63304W        W30087  25.003   3.706  11.165
63305W        W30088  22.302  43.578  13.691
63306W        W30089  23.834   7.279  10.269
63307W        W30090   1.219  34.324  12.149
63308W        W30091   3.965  44.859   2.362
63309W        W30092  15.103  11.593  14.735
63310W        W30093  25.997  34.087  11.733
63311W        W30094  42.690  21.661   4.585
63312W        W30095  11.509  39.526  13.514
63313W        W30096   2.235  13.349  13.704
63314W        W30097   4.837  35.982  10.974
63315W        W30098  23.735  17.538  13.777
63316W        W30099  24.820  21.590  13.633
63317W        W30100  29.986   2.275   4.270
63318W        W30101  20.285   3.917   2.672
63319W        W30102  26.647  18.269  11.227
63320W        W30103   2.424   1.620  12.966
63321W        W30104  34.005  24.618  13.790
63322W        W30105   8.500  28.102   0.282
63323W        W30106  18.541  20.543   1.564
63324W        W30107  29.678   2.904   4.548
63325W        W30108   5.036   4.654   1.982
63326W        W30109  42.928  42.481   2.796
63327W        W30110  30.625  38.588   0.380
63328W        W30111  37.983  26.920  11.510
63329W        W30112  28.420   4.973   3.295
63330W        W30113  33.749  36.078   3.333
63331W        W30114  13.350   6.203   4.417
63332W        W30115  39.770  37.505   0.495
63333W        W30116  24.278  16.202   0.498
63334W        W30117  29.303   4.092  11.121
63335W        W30118  29.419  23.503  14.371
63336W        W30119  37.430  43.389   4.561
63337W        W30120   9.895  25.133   4.725
63338W        W30121   3.922  16.031  10.449
63339W        W30122  26.776  10.029   0.453
63340W        W30123  10.520  29.782  11.991
63341W        W30124  38.608  22.179  11.211
63342W        W30125   9.721  14.532   1.581
63343W        W30126  19.595   2.700   0.324
63344W        W30127   1.306  31.053   4.149
63345W        W30128   8.247   2.818   2.642
63346W        W30129  21.730  21.157   3.092
63347W        W30130  37.714   4.553   3.791
63348W        W30131  34.093   1.488   1.363
63349W        W30132  19.516  43.312   2.831
63350W        W30133  12.267  33.714   4.985
63351W        W30134  30.630  42.317  14.859
63352W        W30135  28.692  10.989   1.160
63353W        W30136   5.686  13.800  12.495
63354W        W30137  20.821  20.164   1.500
63355W        W30138   1.140  30.473   2.094
63356W        W30139  34.096   3.660  10.547
63357W        W30140  23.036  20.747   4.288
63358W        W30141  14.903  23.652   3.334
63359W        W30142  37.441   7.854  11.047
63360W        W30143  19.636   4.721  13.872
63361W        W30144   7.723  30.944   4.054
63362W        W30145  12.567  15.192  10.672
63363W        W30146  29.938  31.199  11.094
63364W        W30147   1.743  24.602  14.763
63365W        W30148  20.915  23.917  13.495
63366W        W30149  32.445  27.971  12.791
63367W        W30150  40.482  28.150  14.811
63368W        W30151  10.737  32.436   3.716
63369W        W30152  44.078  22.816  12.517
63370W        W30153  21.132   7.328   3.832
63371W        W30154   6.113  19.547   4.295
63372W        W30155  25.003  43.229   4.230
63373W        W30156  28.934  10.182  13.226
63374W        W30157   4.093  38.445   3.258
63375W        W30158  16.533  22.641   2.702
63376W        W30159  10.833  25.221   4.779
63377W        W30160   8.142  18.370  11.931
63378W        W30161  10.375  27.207  13.989
63379W        W30162   3.929  22.693  13.931
63380W        W30163  39.967  12.703   4.351
63381W        W30164  30.611  39.008  11.531
63382W        W30165  12.171  26.577   0.761
63383W        W30166  43.878  31.666  10.495
63384W        W30167  18.716  21.199  12.851
63385W        W30168  30.605  13.671  14.243
63386W        W30169  15.521  28.613   4.178
63387W        W30170  15.599  43.770   2.906
63388W        W30171  36.322  41.517   4.498
63389W        W30172  17.220  27.003   2.904
63390W        W30173  13.122  10.838   2.159
63391W        W30174  41.366  35.308   4.545
63392W        W30175   3.400  33.886  12.473
63393W        W30176   6.223  20.864  10.895
63394W        W30177  26.069   6.423  12.520
63395W        W30178  21.213  36.131   1.815
63396W        W30179  44.244  37.029  10.659
63397W        W30180  19.245  23.818   2.671
63398W        W30181  16.904  33.711   4.830
63399W        W30182  28.932  32.430  14.843
63400W        W30183  14.087  30.342  10.720
63401W        W30184  29.203   2.943   1.501
63402W        W30185  40.141  37.019  11.440
63403W        W30186  25.751   0.754  14.820
63404W        W30187  39.545  28.437  13.739
63405W        W30188  35.404  31.329  13.108
63406W        W30189   3.610  30.502   2.037
63407W        W30190   9.718  39.667   1.763
63408W        W30191  38.352   3.316  12.903
63409W        W30192  18.638  16.419   4.914
63410W        W30193  30.654  14.959  11.162
63411W        W30194  14.904  29.549   3.131
63412W        W30195  41.612  40.424   2.839
63413W        W30196  41.842  11.841   3.572
63414W        W30197  18.158  20.377   1.923
63415W        W30198   7.313  18.051  12.902
63416W        W30199  18.170   7.344   2.746
63417W        W30200   4.213   1.978   3.034
63418W        W30201  10.611   6.869  12.575
63419W        W30202  15.245  39.710   9.874
63420W        W30203   2.871  42.977   3.700
63421W        W30204  28.353   3.918   4.142
63422W        W30205   9.959  19.323   4.652
63423W        W30206  17.358   1.974  10.377
63424W        W30207  24.029   7.961   3.177
63425W        W30208  26.343  16.155  12.916
63426W        W30209  26.080  17.896   1.816
63427W        W30210  18.122  14.272  12.963
63428W        W30211   7.708  36.324   1.422
63429W        W30212   1.958  25.146  14.210
63430W        W30213  37.109  28.607   4.770
63431W        W30214  36.755  15.114  13.425
63432W        W30215  15.838  23.633   4.607
63433W        W30216   7.006  34.187  12.979
63434W        W30217   2.180  35.890   0.433
63435W        W30218  29.717   7.857  12.107
63436W        W30219  36.028  37.981  11.506
63437W        W30220  36.777  31.966   4.857
63438W        W30221  30.468  33.681   2.810
63439W        W30222   3.937  15.315   0.320
63440W        W30223  19.419   8.553   0.241
63441W        W30224  19.697  37.335  13.954
63442W        W30225   5.689  12.488   4.163
63443W        W30226  11.481   8.982   5.423
63444W        W30227  35.827  17.249  10.567
63445W        W30228  36.386  26.489   4.635
63446W        W30229   3.017  44.854   3.655
63447W        W30230  25.156  26.402   3.540
63448W        W30231   7.812  11.819  13.508
63449W        W30232  36.553  32.307  13.355
63450W        W30233  19.656  31.168  11.246
63451W        W30234   0.539  29.678   2.367
63452W        W30235  15.777   9.565   0.072
63453W        W30236  34.300   3.187   5.250
63454W        W30237  21.724  12.330   2.701
63455W        W30238  32.885  18.803   1.243
63456W        W30239   5.436  14.512  11.137
63457W        W30240  21.311  36.866  11.586
63458W        W30241  25.550  38.823  11.943
63459W        W30242  36.060  11.164  10.611
63460W        W30243   3.785  11.095  12.607
63461W        W30244  36.903  37.958   4.105
63462W        W30245   9.923  36.970  11.558
63463W        W30246  40.208  18.967   0.074
63464W        W30247   7.995  33.773   1.818
63465W        W30248  15.470  41.811   4.540
63466W        W30249  44.768  11.129   1.196
63467W        W30250  38.663  22.154   2.209
63468W        W30251  38.325   0.325  14.784
63469W        W30252   1.654  25.529  11.193
63470W        W30253  25.958  29.042  12.501
63471W        W30254  14.616  41.027  13.045
63472W        W30255  39.809   8.499   2.849
63473W        W30256  34.405  27.983   2.235
63474W        W30257   4.353   0.964   2.223
63475W        W30258  31.389   4.647  11.644
63476W        W30259  10.292  25.949  14.474
63477W        W30260  12.679   7.154   3.031
63478W        W30261  39.280  28.808  14.035
63479W        W30262  11.885  26.586   4.449
63480W        W30263  41.590  42.441  12.007
63481W        W30264   8.927  44.198  10.538
63482W        W30265  40.808  13.079  11.182
63483W        W30266  28.794  32.862   3.702
63484W        W30267  42.908  37.942  12.774
63485W        W30268   9.134  43.808   1.360
63486W        W30269  18.306   5.214   3.666
63487W        W30270  11.382  19.799   3.868
63488W        W30271  44.276  32.677   3.976
63489W        W30272  19.001  10.212   1.247
63490W        W30273  15.528  21.481   0.422
63491W        W30274  40.588  38.554   0.767
63492W        W30275  24.041  29.349  14.193
63493W        W30276  41.607  10.026   0.237
63494W        W30277  17.177   1.687   2.775
63495W        W30278  10.365  19.729   4.885
63496W        W30279  32.655  32.512  10.697
63497W        W30280   9.621  25.886   0.120
63498W        W30281  12.940  10.329  11.981
63499W        W30282  18.721  15.169  11.689
63500W        W30283  43.738   7.049   0.081
63501W        W30284  41.436   7.634   2.429
63502W        W30285   2.809  37.661  12.264
63503W        W30286  33.230   3.457  14.515
63504W        W30287  44.714  10.432   0.788
63505W        W30288   8.917  24.353  13.292
63506W        W30289  28.468  36.880  10.818
63507W        W30290  15.101   1.977  13.452
63508W        W30291  21.149  19.965   3.828
63509W        W30292  36.644  32.316  12.439
63510W        W30293  16.278  26.473   4.551
63511W        W30294   9.981  30.088   5.067
63512W        W30295  34.575  39.355  12.918
63513W        W30296  11.942   1.305  10.523
63514W        W30297  18.603  31.530  13.904
63515W        W30298   6.394  19.134   2.746
63516W        W30299   0.972   0.982   3.883
63517W        W30300  39.470  26.171  12.684
63518W        W30301   5.868   6.132   4.824
63519W        W30302  27.602  24.676  11.771
63520W        W30303  17.149  31.889  11.239
63521W        W30304  14.348  27.494  10.600
63522W        W30305   4.993  17.619  12.721
63523W        W30306  21.866  36.905  10.692
63524W        W30307  39.016   5.927   3.732
63525W        W30308  19.758   1.013  11.136
63526W        W30309  37.374  24.681   3.172
63527W        W30310   3.719  37.169  12.100
63528W        W30311  11.723  39.593  13.035
63529W        W30312   6.440   3.314   1.757
63530W        W30313  24.676   4.895  11.275
63531W        W30314  40.357  19.999  14.762
63532W        W30315  34.439  42.317   1.283
63533W        W30316   9.271  33.222  10.944
63534W        W30317  35.992  35.872   1.988
63535W        W30318  23.699   9.099   1.238
63536W        W30319  40.578  43.385   3.030
63537W        W30320  42.800  43.138  11.242
63538W        W30321   9.270   0.912  10.778
63539W        W30322  20.993  37.855  12.534
63540W        W30323  24.999   1.845  10.725
63541W        W30324  44.340  44.258  10.735
63542W        W30325  21.973  13.735  12.870
63543W        W30326  19.724   0.964  14.777
63544W        W30327  31.782  36.965  14.107
63545W        W30328  20.835  44.739   4.279
63546W        W30329  28.986  36.545   1.814
63547W        W30330  43.858  38.366   0.929
63548W        W30331  41.598   2.709  12.670
63549W        W30332  24.585  26.602   2.766
63550W        W30333   0.689  22.484   2.635
63551W        W30334  26.105  44.271   2.768
63552W        W30335  20.388   7.681  11.722
63553W        W30336   8.694  36.385   4.389
63554W        W30337  44.219  17.863  13.393
63555W        W30338  18.235  17.710   3.288
63556W        W30339  26.167  26.471  12.894
63557W        W30340  31.534  35.907   3.952
63558W        W30341  22.489  43.939  14.006
63559W        W30342  39.415  41.878   1.143
63560W        W30343  29.083  22.716  13.007
63561W        W30344  44.544  27.981  10.736
63562W        W30345   7.801  39.055   0.966
63563W        W30346   7.603  36.309   0.053
63564W        W30347   7.288   0.026  13.477
63565W        W30348  11.435  24.562   0.032
63566W        W30349  16.781  33.976   2.821
63567W        W30350  43.006  17.084  12.404
63568W        W30351  38.460  27.643  11.866
63569W        W30352  24.058  30.886  12.802
63570W        W30353  44.641   5.809  11.177
63571W        W30354  32.421  42.119  10.551
63572W        W30355  26.243  27.472  11.979
63573W        W30356  30.124  28.578   1.794
63574W        W30357  25.557  36.593  14.352
63575W        W30358   9.715  20.691   4.896
63576W        W30359  15.356  36.070  13.090
63577W        W30360  42.840  11.342   2.059
63578W        W30361  31.590  29.309  12.423
63579W        W30362  14.111   6.622   1.105
63580W        W30363  42.216  16.305  14.871
63581W        W30364  18.740  31.745  14.829
63582W        W30365  12.237  20.005   3.626
63583W        W30366  40.109  15.037  13.221
63584W        W30367  26.018  39.947  11.220
63585W        W30368  21.750  41.787  12.601
63586W        W30369   4.091  28.099   3.838
63587W        W30370  28.475  16.650   4.147
63588W        W30371  22.165   3.830   2.637
63589W        W30372  29.017  38.701  10.216
63590W        W30373  30.163  44.777  12.889
63591W        W30374  26.424  21.621   1.147
63592W        W30375  26.678  11.851  13.477
63593W        W30376  24.456  30.726   4.163
63594W        W30377  31.107  29.743   4.261
63595W        W30378  13.909  12.140   2.315
63596W        W30379  10.295  35.328   1.651
63597W        W30380   3.925  37.367  10.145
63598W        W30381   6.864   8.150  11.982
63599W        W30382  24.137  33.492   1.234
63600W        W30383  28.367   2.876  12.076
63601W        W30384  11.850  41.908   1.438
63602W        W30385  17.474  30.105   1.466
63603W        W30386  19.734  29.435  10.651
63604W        W30387  27.082   9.802  11.474
63605W        W30388  17.576  38.997  10.854
63606W        W30389  40.900   4.295   1.024
63607W        W30390  23.961  28.063   0.471
63608W        W30391   5.961  28.531  12.002
63609W        W30392   3.016  42.456   4.603
63610W        W30393  21.049  30.885   4.434
63611W        W30394   9.497  18.066   4.277
63612W        W30395  11.023   7.917   3.625
63613W        W30396  31.744  35.520   3.620
63614W        W30397   2.139   4.704   2.389
63615W        W30398  38.300  11.086  11.514
63616W        W30399  34.800  32.041  11.089
63617W        W30400   9.691   1.102   3.645
63618W        W30401  21.193  42.822  12.004
63619W        W30402  39.314  43.718   0.763
63620W        W30403  33.002  22.237   3.635
63621W        W30404  34.072   6.761   0.158
63622W        W30405  44.486  40.896   0.796
63623W        W30406   1.794  35.906  13.622
63624W        W30407  17.325  10.179   3.908
63625W        W30408   2.334  43.232  11.558
63626W        W30409  17.344  25.644   1.318
63627W        W30410   8.858  21.967   0.220
63628W        W30411   9.897  23.421   1.797
63629W        W30412  33.406  34.008  11.773
63630W        W30413  10.321  10.236   2.283
63631W        W30414   4.324  12.085  12.954
63632W        W30415  35.759   7.713   0.491
63633W        W30416   3.092  21.027  14.289
63634W        W30417   6.385   9.167   0.959
63635W        W30418  32.425  41.864  13.465
63636W        W30419  36.138  13.756  11.998
63637W        W30420  38.741  36.026  12.884
63638W        W30421   2.088  19.030   0.661
63639W        W30422  18.169  21.264   2.361
63640W        W30423  17.631  11.391   4.358
63641W        W30424  29.442   3.735   2.929
63642W        W30425  29.009  42.907   1.368
63643W        W30426  27.643   1.782   0.436
63644W        W30427   1.485  21.458  11.130
63645W        W30428  44.549  11.739   3.740
63646W        W30429  15.379   6.935  12.152
63647W        W30430  42.484  20.270   0.481
63648W        W30431  40.897  44.513   1.269
63649W        W30432   6.241  39.271   4.107
63650W        W30433  41.058  24.852   3.036
63651W        W30434  33.511  30.915   4.584
63652W        W30435  29.936  40.297   3.245
63653W        W30436  44.320   1.183  13.871
63654W        W30437  30.757  13.017  12.020
63655W        W30438  35.384  41.524  12.221
63656W        W30439  16.627  30.436   3.786
63657W        W30440  34.595  24.759  10.540
63658W        W30441  14.252  33.845  12.769
63659W        W30442  43.388  27.731  14.259
63660W        W30443  19.111  27.529   1.907
63661W        W30444  19.842  16.906   1.334
63662W        W30445  42.290  15.172   2.315
63663W        W30446  26.252  16.832  11.154
63664W        W30447   5.891  35.123  11.661
63665W        W30448   3.461  24.239   3.589
63666W        W30449  25.062   2.128   0.707
63667W        W30450  33.613  35.360   5.018
63668W        W30451  36.445  38.851  11.685
63669W        W30452  31.243  41.773   2.804
63670W        W30453  36.566  42.870   3.418
63671W        W30454  22.779   6.357  13.922
63672W        W30455  44.912  37.242   3.698
63673W        W30456  22.152  11.087  14.792
63674W        W30457  23.707  16.585  12.473
63675W        W30458  14.663  24.015   2.253
63676W        W30459  39.312  41.301   3.728
63677W        W30460  26.526  11.588  12.484
63678W        W30461  16.145  39.238  11.869
63679W        W30462  38.773  10.721  10.013
63680W        W30463  34.188  37.556  13.283
63681W        W30464  20.512  32.608  13.931
63682W        W30465   4.677   4.417   5.007
63683W        W30466  40.071  10.875  11.629
63684W        W30467  13.377  23.612   2.391
63685W        W30468  12.910  28.924  10.684
63686W        W30469  30.670  35.313   2.004
63687W        W30470   2.296  13.591   2.766
63688W        W30471  16.710  21.656   4.910
63689W        W30472  29.591  41.924   2.465
63690W        W30473   8.589  23.626   3.364
63691W        W30474  11.319  17.367   0.806
63692W        W30475  20.302  17.074   0.340
63693W        W30476  20.190   5.296   0.013
63694W        W30477  34.650  25.654   2.808
63695W        W30478  41.873   2.673   2.222
63696W        W30479  33.037  12.137  11.951
63697W        W30480   3.820   4.325  10.288
63698W        W30481   4.045  19.310   1.296
63699W        W30482   7.719   4.361   2.319
63700W        W30483  13.529   0.302  14.053
63701W        W30484  30.150   7.621   3.328
63702W        W30485  23.796  11.295  12.584
63703W        W30486  37.152   1.158   0.444
63704W        W30487  41.461  40.473  13.933
63705W        W30488   3.955  29.248   0.468
63706W        W30489  19.190  20.065   4.411
63707W        W30490  22.467   6.623   2.951
63708W        W30491  20.742   4.825   1.946
63709W        W30492  11.583   6.673   0.689
63710W        W30493  29.674  21.790  11.532
63711W        W30494  41.368  42.162   5.032
63712W        W30495  39.451  16.895   0.371
63713W        W30496  19.676  16.216   2.071
63714W        W30497  23.427  41.825   4.921
63715W        W30498  29.070  44.491  13.505
63716W        W30499   8.509   2.041   3.161
63717W        W30500   6.714   2.876   0.409
63718W        W30501   0.371  23.127  11.980
63719W        W30502  19.095  34.638   3.092
63720W        W30503  43.522   1.369  14.575
63721W        W30504   0.291  12.137  12.533
63722W        W30505   4.839   2.876   2.116
63723W        W30506  15.079   3.108  10.998
63724W        W30507   3.730  31.616  12.876
63725W        W30508   2.340   3.655  14.450
63726W        W30509  44.731  27.774  13.837
63727W        W30510  25.479  10.555  11.104
63728W        W30511   1.902   7.235   2.369
63729W        W30512  29.740  19.668  11.917
63730W        W30513  29.581   2.680  12.524
63731W        W30514  30.207  26.105   1.416
63732W        W30515  22.072  34.147  14.562
63733W        W30516  13.257  14.312   3.211
63734W        W30517  13.168   2.332  14.839
63735W        W30518  26.721  31.892  10.244
63736W        W30519  15.713  22.003   3.010
63737W        W30520  17.217  13.280  14.725
63738W        W30521  12.638  18.286  14.335
63739W        W30522  23.952  39.287   0.789
63740W        W30523   1.045   9.356   1.752
63741W        W30524  40.361  22.689  14.959
63742W        W30525  27.953   0.895   1.847
63743W        W30526  43.047  10.301  12.497
63744W        W30527  31.645  29.026  10.900
63745W        W30528  13.250   4.389   1.225
63746W        W30529  23.481  22.207  14.550
63747W        W30530   0.570  32.964   3.159
63748W        W30531  38.875  14.638  13.923
63749W        W30532  41.311  34.883   3.529
63750W        W30533  36.056  21.863  14.078
63751W        W30534  14.348  26.007  12.135
63752W        W30535  14.232  13.672  10.661
63753W        W30536   7.307   4.989   4.077
63754W        W30537  42.801  34.056   1.682
63755W        W30538  28.502  29.865  10.916
63756W        W30539  39.648   4.911   3.278
63757W        W30540  44.453   4.259   1.975
63758W        W30541  32.201   1.803  12.016
63759W        W30542  27.161  20.302   2.668
63760W        W30543  34.357   3.268  13.909
63761W        W30544  32.577  43.364   1.958
63762W        W30545  12.152  32.689  13.200
63763W        W30546  38.282  35.832  12.777
63764W        W30547   4.954  13.267   0.641
63765W        W30548   7.025   1.872   3.215
63766W        W30549  27.523  30.568   5.057
63767W        W30550  30.394  12.149  12.862
63768W        W30551  23.076   2.779  13.585
63769W        W30552   2.455   3.288  13.541
63770W        W30553  20.424   2.696   3.287
63771W        W30554  44.758  17.858   4.825
63772W        W30555  43.495  10.320   1.376
63773W        W30556  28.343   0.363   1.339
63774W        W30557   8.708  43.940   0.781
63775W        W30558  37.728  22.735   4.533
63776W        W30559  34.840  44.988  14.919
63777W        W30560   9.434  25.916  14.649
63778W        W30561  11.801  19.545   0.167
63779W        W30562  28.976  24.893   1.877
63780W        W30563  25.980  36.043  12.637
63781W        W30564  22.214  43.503   3.173
63782W        W30565  33.498  43.665  10.852
63783W        W30566  25.235  43.842  10.654
63784W        W30567   9.254  36.396  14.040
63785W        W30568  42.741   6.585   5.398
63786W        W30569  40.824  17.505   4.817
63787W        W30570  34.550   2.297  10.512
63788W        W30571  16.216  17.866   4.599
63789W        W30572  15.697  37.799   0.340
63790W        W30573  28.000  38.569  14.467
63791W        W30574  27.058  34.901  11.710
63792W        W30575  10.105  26.749  12.237
63793W        W30576  39.776  38.352  11.481
63794W        W30577  32.889   8.358  12.064
63795W        W30578   9.917  32.511  14.747
63796W        W30579  20.512   8.132  12.534
63797W        W30580  33.057  43.955  10.668
63798W        W30581  20.372   5.096   1.242
63799W        W30582  33.874  17.810   0.021
63800W        W30583  31.008  20.173  14.119
63801W        W30584  16.347  29.551  12.157
63802W        W30585  42.505  10.576   2.489
63803W        W30586  31.831  39.018  14.509
63804W        W30587  42.877  20.388  12.329
63805W        W30588  10.252  26.624   2.210
63806W        W30589  40.886  40.894  13.406
63807W        W30590  19.540  15.346   2.551
63808W        W30591  11.317  19.663  10.775
63809W        W30592  37.114  34.602   4.229
63810W        W30593  13.181   6.921  10.234
63811W        W30594  23.576   9.546   0.316
63812W        W30595  40.039  32.525  14.262
63813W        W30596   0.341  37.350   1.324
63814W        W30597   6.845  40.044  13.748
63815W        W30598   6.871  44.446   1.184
63816W        W30599   9.739   6.300   4.324
63817W        W30600  11.118  29.931   4.372
63818W        W30601  27.271  39.354   5.543
63819W        W30602  37.795  30.637  10.739
63820W        W30603  16.632  29.054   3.103
63821W        W30604   7.814  26.812  14.380
63822W        W30605  24.449  42.989  14.029
63823W        W30606  43.466   5.342  12.469
63824W        W30607  38.462  43.512   2.900
63825W        W30608  24.789  38.666  14.363
63826W        W30609  41.373  11.075  12.354
63827W        W30610  25.244  12.081   3.194
63828W        W30611  41.416  39.872   2.211
63829W        W30612  18.732   9.919  11.666
63830W        W30613   4.307  26.150   3.878
63831W        W30614   2.683  26.445  11.615
63832W        W30615  38.902  18.313  13.967
63833W        W30616  30.167  16.097   0.694
63834W        W30617  44.516  16.715   0.544
63835W        W30618  21.160  36.921   4.063
63836W        W30619  24.626  26.942   2.335
63837W        W30620  16.712  13.314  12.632
63838W        W30621   2.765  16.627  12.972
63839W        W30622  42.709  37.887  13.241
63840W        W30623  24.907  14.999   0.911
63841W        W30624   8.115  43.041   3.083
63842W        W30625  38.650  37.415   1.363
63843W        W30626  14.558  39.874  11.696
63844W        W30627  42.442  13.044  13.769
63845W        W30628  33.010  15.272  11.564
63846W        W30629   8.696  24.543   4.602
63847W        W30630  21.609  10.445  10.229
63848W        W30631   7.493   5.316  14.934
63849W        W30632  38.175   4.514  14.438
63850W        W30633  26.935  22.585   0.634
63851W        W30634  37.566   0.485   4.236
63852W        W30635  12.615  30.660  14.991
63853W        W30636   6.757  11.340  12.071
63854W        W30637  15.997  10.743   0.878
63855W        W30638  36.612   1.717   9.956
63856W        W30639  13.131   1.960  12.960
63857W        W30640  30.555  38.626  13.608
63858W        W30641  16.870   7.700   1.421
63859W        W30642   6.266  43.529  13.318
63860W        W30643  38.882  37.790  13.304
63861W        W30644  43.288   4.940  10.671
63862W        W30645  34.988  16.437   4.209
63863W        W30646   0.524  40.371   3.943
63864W        W30647  25.120  31.112   0.417
63865W        W30648  10.757   0.581  10.722
63866W        W30649  16.108  17.487  11.491
63867W        W30650  35.446   0.773  14.007
63868W        W30651  31.591  12.978   4.396
63869W        W30652  14.066  16.837  14.282
63870W        W30653  44.952   2.509  12.028
63871W        W30654  35.601  11.350   3.791
63872W        W30655  17.860  34.499   3.365
63873W        W30656  43.292  12.266   0.476
63874W        W30657  15.924  43.504  11.377
63875W        W30658  13.188  26.049   0.219
63876W        W30659  42.437  28.767  12.219
63877W        W30660  28.555   6.239   1.099
63878W        W30661  13.844  15.845   4.371
63879W        W30662  32.505  16.645  12.137
63880W        W30663   2.878  34.380   1.493
63881W        W30664   8.585  24.834   4.181
63882W        W30665   0.950  24.100   1.143
63883W        W30666  23.943  34.562  12.511
63884W        W30667  38.482  15.840   1.963
63885W        W30668   0.803  25.180  13.142
63886W        W30669  40.873   3.931   1.419
63887W        W30670  11.359   6.871   1.667
63888W        W30671   2.278   7.815   3.424
63889W        W30672  30.462  44.994  14.507
63890W        W30673  40.104  36.453   4.137
63891W        W30674  42.264  28.773  10.243
63892W        W30675  35.329   2.848  12.595
63893W        W30676  20.543  38.946  14.756
63894W        W30677   7.429   2.067   5.014
63895W        W30678  12.639   8.284   0.480
63896W        W30679  18.778  32.000  10.159
63897W        W30680   7.639  40.376  11.564
63898W        W30681   2.907  12.667   3.293
63899W        W30682  37.468  16.213  11.526
63900W        W30683  40.887  16.187   3.244
63901W        W30684  12.881  42.428  14.810
63902W        W30685  40.602  25.029   1.714
63903W        W30686  41.469  26.398   3.361
63904W        W30687   9.490   8.330  13.195
63905W        W30688   9.165  17.436  11.666
63906W        W30689  17.941  21.105  14.503
63907W        W30690  25.788  20.609  10.927
63908W        W30691  14.227   6.733  12.391
63909W        W30692  33.596  27.657  14.538
63910W        W30693  39.735  14.372   0.402
63911W        W30694  42.827   0.531   3.980
63912W        W30695  21.685  42.507  13.367
63913W        W30696  22.322  37.651  12.998
63914W        W30697   7.124  17.808  13.322
63915W        W30698  41.577  18.676  11.989
63916W        W30699  26.174  22.064  12.860
63917W        W30700  30.447  22.467  12.953
63918W        W30701  40.964   7.378  11.946
63919W        W30702  31.092  18.831   1.910
63920W        W30703  22.730  10.697   2.243
63921W        W30704   7.179  37.831  12.948
63922W        W30705   1.758  24.024  13.801
63923W        W30706  11.377  36.177   4.476
63924W        W30707  13.131  10.941   0.684
63925W        W30708  42.828  23.757  10.746
63926W        W30709   1.682  37.002   1.884
63927W        W30710  21.698  36.906   1.787
63928W        W30711  26.442  17.599   3.241
63929W        W30712   9.842  35.990   2.667
63930W        W30713  33.340  41.864   2.588
63931W        W30714  38.626   6.231   2.241
63932W        W30715  38.379  41.933  12.601
63933W        W30716  30.716  24.496   2.425
63934W        W30717  10.822  11.668  12.558
63935W        W30718   7.381  37.662   1.279
63936W        W30719  17.619  26.180  13.429
63937W        W30720  20.051  42.969  12.462
63938W        W30721  44.366  34.994  12.952
63939W        W30722  29.492   6.392   0.805
63940W        W30723  11.332  21.638  13.021
63941W        W30724  11.081  44.765  12.025
63942W        W30725   4.230  30.859  12.646
63943W        W30726  17.363   8.744   3.231
63944W        W30727   9.664  29.330  11.241
63945W        W30728  21.222  13.027   4.284
63946W        W30729  35.411  23.240  14.079
63947W        W30730  12.041  42.103  14.586
63948W        W30731  15.067  30.665  13.841
63949W        W30732  35.166  15.186  11.508
63950W        W30733  18.163   8.898   2.826
63951W        W30734  13.556  16.776  14.369
63952W        W30735   7.384  41.383   1.925
63953W        W30736   4.177   1.588   3.363
63954W        W30737  34.748  34.578   4.709
63955W        W30738  15.697  33.311   1.848
63956W        W30739  23.005  20.100  13.132
63957W        W30740  37.547  21.910  12.557
63958W        W30741  11.829  21.999  12.394
63959W        W30742  17.829  24.486  12.385
63960W        W30743  16.011  14.378   3.730
63961W        W30744  34.521  39.591   4.459
63962W        W30745  43.981   8.461  11.876
63963W        W30746  30.828  17.277   0.439
63964W        W30747  33.123   5.296   4.193
63965W        W30748  18.184   8.953   1.924
63966W        W30749  23.174  40.508   4.195
63967W        W30750   4.368  25.102  13.324
63968W        W30751  24.977  29.598   2.832
63969W        W30752  34.792  21.539   3.457
63970W        W30753  33.937  32.886   0.914
63971W        W30754  41.653  20.047   0.497
63972W        W30755   2.852  36.374   4.654
63973W        W30756  38.990  20.197  12.561
63974W        W30757  34.139  44.352   2.701
63975W        W30758  20.287   8.836   3.097
63976W        W30759  15.989  28.842   4.263
63977W        W30760  23.017  10.776   3.579
63978W        W30761   0.739  40.961  11.392
63979W        W30762  44.450  23.210  10.648
63980W        W30763  31.901   8.362   2.267
63981W        W30764   1.483  44.534   0.691
63982W        W30765  33.627  22.197  14.367
63983W        W30766   0.665  39.757  10.244
63984W        W30767  12.695  14.967  12.384
63985W        W30768  36.328  38.380  11.567
63986W        W30769  39.460   3.181   1.972
63987W        W30770  18.058  36.661  14.967
63988W        W30771  23.922  29.941   3.308
63989W        W30772  35.235  41.858   1.971
63990W        W30773  24.290  18.988  14.973
63991W        W30774   5.181   8.401  14.694
63992W        W30775  30.400  17.251   2.840
63993W        W30776   1.944   2.917  11.838
63994W        W30777  41.284   6.949   0.407
63995W        W30778  28.078  27.524  10.842
63996W        W30779  25.191   8.665  14.321
63997W        W30780  39.072  13.637   4.507
63998W        W30781  31.736  29.368   0.399
63999W        W30782  10.151  25.513   2.827
64000W        W30783  19.226  40.475   4.285
64001W        W30784   5.932  23.125  11.693
64002W        W30785  33.563   7.196   2.731
64003W        W30786  29.671   7.233  13.864
64004W        W30787  34.793  12.557   4.335
64005W        W30788   7.398   1.920   4.511
64006W        W30789   0.983   8.688  11.125
64007W        W30790  13.743  35.862   3.758
64008W        W30791  25.633  32.189  14.292
64009W        W30792  35.575  24.153  14.401
64010W        W30793  26.439  44.248  12.374
64011W        W30794  30.355  22.143  13.837
64012W        W30795  27.748  39.803   2.281
64013W        W30796  15.558  29.662   4.940
64014W        W30797  34.749  23.048  11.949
64015W        W30798   8.194  25.774   1.021
64016W        W30799  22.383  24.269  10.703
64017W        W30800  40.403  30.413  13.461
64018W        W30801  25.321  23.980  14.991
64019W        W30802  42.351  15.720   1.103
64020W        W30803  26.644   5.810  14.666
64021W        W30804  37.588  20.602   4.626
64022W        W30805   6.444  27.444  11.521
64023W        W30806  41.247  41.386  13.526
64024W        W30807  41.863  26.672  11.223
64025W        W30808  43.438  43.532   3.159
64026W        W30809  40.261  19.566  12.751
64027W        W30810  13.037   4.829   2.358
64028W        W30811  43.380  37.603   1.307
64029W        W30812  39.404  16.172   1.115
64030W        W30813  27.176  19.920  10.674
64031W        W30814  24.123  35.901  14.240
64032W        W30815   7.800  20.185  14.273
64033W        W30816  20.290   3.230  11.434
64034W        W30817  12.325  33.419  11.473
64035W        W30818  44.348  24.381  12.990
64036W        W30819  37.748  17.396  13.984
64037W        W30820  10.449  27.624  14.334
64038W        W30821  16.831   5.388   2.792
64039W        W30822  39.263  22.477   0.232
64040W        W30823  16.579  11.691  11.733
64041W        W30824  33.433  41.924   0.583
64042W        W30825  42.723  35.006   1.741
64043W        W30826   7.307   0.700  10.339
64044W        W30827  41.867  38.062  11.734
64045W        W30828   7.585   5.580   1.332
64046W        W30829  22.148  30.466   2.852
64047W        W30830  25.940  26.815   0.064
64048W        W30831  38.714  15.936   4.345
64049W        W30832  39.219  32.148  12.898
64050W        W30833  24.126  29.907   0.057
64051W        W30834  20.188  41.224  12.946
64052W        W30835  25.772  29.171   1.940
64053W        W30836   7.778  33.908   2.344
64054W        W30837  28.965  35.615   4.524
64055W        W30838  15.142  34.309   2.772
64056W        W30839  25.183  35.431  12.555
64057W        W30840  38.365  34.789   3.614
64058W        W30841  40.612  24.263  14.686
64059W        W30842   1.992   9.725   0.860
64060W        W30843  37.082  28.668   2.180
64061W        W30844  24.932   4.349   0.956
64062W        W30845   0.491  42.382  14.363
64063W        W30846   9.863  31.951  10.570
64064W        W30847   3.217  32.989  13.832
64065W        W30848  36.323  31.913   2.079
64066W        W30849  34.607  28.201  11.683
64067W        W30850  18.923  12.231   4.170
64068W        W30851  38.234  20.609  13.485
64069W        W30852  27.447  43.740   2.597
64070W        W30853  32.080  44.850   4.277
64071W        W30854  31.150  42.344   1.714
64072W        W30855   2.345  27.505   2.843
64073W        W30856  43.047   4.475  12.472
64074W        W30857   3.334  33.833   4.178
64075W        W30858  17.322  19.022  14.665
64076W        W30859  36.544   8.240   2.182
64077W        W30860  16.179  12.154   2.835
64078W        W30861   0.410  40.060  11.700
64079W        W30862   9.187   8.621   1.419
64080W        W30863  14.280  44.392  14.778
64081W        W30864  10.881  35.407   0.304
64082W        W30865   0.383   3.985   1.769
64083W        W30866  13.716  42.550   1.900
64084W        W30867  20.472  13.604  12.911
64085W        W30868   6.444  30.131   2.405
64086W        W30869  20.972  38.444   1.225
64087W        W30870  40.918  15.669  14.265
64088W        W30871  44.904  23.728  14.567
64089W        W30872  32.024   7.206   0.453
64090W        W30873  13.147  38.165   2.287
64091W        W30874  23.031  31.666  14.895
64092W        W30875  36.878  12.154  14.930
64093W        W30876   8.974  27.699   1.743
64094W        W30877  12.646   1.703  14.918
64095W        W30878  12.536   9.754  14.789
64096W        W30879  44.772  41.989   4.260
64097W        W30880  44.533  29.977   2.021
64098W        W30881  21.495  21.552  13.904
64099W        W30882  37.952  29.645  12.916
64100W        W30883  35.657  30.938  12.900
64101W        W30884   5.184  27.768   2.382
64102W        W30885  44.146  34.216  10.262
64103W        W30886  38.072  10.861   1.622
64104W        W30887  33.195  12.805   0.188
64105W        W30888   6.797  13.332   3.907
64106W        W30889  44.883  35.124  13.836
64107W        W30890   8.716   6.742  12.946
64108W        W30891   1.650  22.554  12.041
64109W        W30892   1.740  29.186  11.204
64110W        W30893  36.329  11.676   1.732
64111W        W30894  24.042  44.801  12.728
64112W        W30895  30.907  25.934  14.538
64113W        W30896   8.573  11.644   4.075
64114W        W30897  39.591  35.556  12.829
64115W        W30898  28.455  40.160   5.333
64116W        W30899  28.261  30.365   4.436
64117W        W30900  15.159  41.310  12.494
64118W        W30901  22.175  28.276  11.939
64119W        W30902   6.846  38.696  13.222
64120W        W30903  30.351   6.927  12.738
64121W        W30904   9.709  39.995   0.299
64122W        W30905  23.119  17.534   0.541
64123W        W30906   5.784  18.023  13.101
64124W        W30907  15.107  43.486   1.236
64125W        W30908   9.656  30.562   4.224
64126W        W30909  44.464  17.872  11.218
64127W        W30910  31.460  28.529  11.078
64128W        W30911  11.225  21.589   3.899
64129W        W30912   0.864  35.012   0.771
64130W        W30913   4.768  42.301   3.744
64131W        W30914   9.717  26.758  14.629
64132W        W30915  22.386  40.375  12.208
64133W        W30916  44.796   5.527  11.572
64134W        W30917  40.577  35.806  13.100
64135W        W30918  25.012  44.911   3.385
64136W        W30919  35.466  34.875   2.703
64137W        W30920   0.770   8.406   0.960
64138W        W30921  20.558  32.126  12.603
64139W        W30922  39.003  35.553  14.002
64140W        W30923  14.731  21.224   0.919
64141W        W30924   5.844  22.126  14.766
64142W        W30925  28.088   0.516  14.587
64143W        W30926  27.136  10.917   1.709
64144W        W30927  12.636  19.817   1.223
64145W        W30928  34.681   4.396   1.700
64146W        W30929  13.545  32.878  14.864
64147W        W30930  29.493  31.919  12.497
64148W        W30931  32.116  12.273  14.640
64149W        W30932  38.077  21.281  12.760
64150W        W30933  28.024  23.089   4.130
64151W        W30934  36.429  34.711   3.592
64152W        W30935  38.501   7.580  12.562
64153W        W30936  28.412  29.275  12.283
64154W        W30937  13.732  44.294   2.298
64155W        W30938   0.328  14.180  14.821
64156W        W30939  23.468  27.858  13.057
64157W        W30940  14.689  44.725   2.308
64158W        W30941  26.098   0.267   3.509
64159W        W30942   7.807  11.013  14.028
64160W        W30943  15.944  33.055   0.448
64161W        W30944   5.335  44.757  13.765
64162W        W30945  13.366   3.559   3.641
64163W        W30946  25.970  17.803   3.632
64164W        W30947  20.885  31.900   4.177
64165W        W30948  16.412  26.502  14.790
64166W        W30949  38.297  14.636   0.338
64167W        W30950   6.877  39.103  12.869
64168W        W30951  13.851  13.729   3.329
64169W        W30952  12.379  28.029   4.059
64170W        W30953  40.091   0.731  14.896
64171W        W30954  33.387  20.436   3.980
64172W        W30955  18.111  19.133  11.476
64173W        W30956  25.137  19.500   4.660
64174W        W30957   1.420  26.280   2.654
64175W        W30958  18.741  13.759  12.424
64176W        W30959  24.761  32.083   0.656
64177W        W30960   7.685  44.931  14.732
64178W        W30961   5.266  25.866  14.941
64179W        W30962  33.099  20.275  13.063
64180W        W30963  10.540   4.347   3.662
64181W        W30964  31.611  43.529  13.926
64182W        W30965   2.231  38.846   1.747
64183W        W30966  20.257  29.027  14.220
64184W        W30967   3.314  32.069   3.800
64185W        W30968  37.355  17.942  14.883
64186W        W30969   8.729   3.318  14.723
64187W        W30970  36.335  32.492  14.282
64188W        W30971  25.888  26.038  12.823
64189W        W30972  26.126  42.715   2.794
64190W        W30973   2.488  43.425   3.735
64191W        W30974  26.747  32.084   4.574
64192W        W30975  19.593  19.721  13.961
64193W        W30976  27.433   6.850  13.871
64194W        W30977   9.233  30.508   2.123
64195W        W30978   2.822  16.273  13.927
64196W        W30979  36.375  40.100  14.356
64197W        W30980  32.637   6.120  14.879
64198W        W30981   5.520  28.621   2.397
64199W        W30982  16.591  10.554   4.149
64200W        W30983  42.751  26.449  14.248
64201W        W30984  42.506  42.723  12.526
64202W        W30985  22.560  31.912   0.569
64203W        W30986  34.813  10.691   1.972
64204W        W30987  28.922   5.865   1.002
64205W        W30988   2.266  36.179  13.854
64206W        W30989  29.008  36.487   3.197
64207W        W30990   6.792   1.435  14.825
64208W        W30991  29.252  27.072   4.223
64209W        W30992  34.840  27.422   0.636
64210W        W30993  10.619   4.186   2.375
64211W        W30994  15.668  27.926   3.688
64212W        W30995  41.005  11.258   3.582
64213W        W30996  21.159  18.743   2.228
64214W        W30997  22.508   9.631   2.312
64215W        W30998  12.622   6.817  13.760
64216W        W30999  29.253   1.154  12.452
64217W        W31000   1.144  20.949  12.339
64218W        W31001  33.830   3.251  12.617
64219W        W31002  13.673  37.063  12.511
64220W        W31003  35.067   9.800   0.705
64221W        W31004  12.293   5.306   0.214
64222W        W31005  31.444   3.690  14.371
64223W        W31006  33.407  24.198   1.862
64224W        W31007  16.674  13.134  11.142
64225W        W31008  40.986   9.098  11.691
64226W        W31009   7.111  10.150   0.351
64227W        W31010  29.045   3.811   3.272
64228W        W31011   6.811  42.288   4.185
64229W        W31012  31.378  38.751  14.552
64230W        W31013  20.221  34.464   1.915
64231W        W31014  10.695  38.004  10.830
64232W        W31015  25.891  11.795  12.838
64233W        W31016  33.123  22.236   5.371
64234W        W31017  26.234  40.799  10.767
64235W        W31018  30.858  20.136   1.806
64236W        W31019  38.376  14.028  11.630
64237W        W31020   0.506  25.244  11.127
64238W        W31021  35.314  40.968  10.919
64239W        W31022  33.922  26.449  13.779
64240W        W31023   3.505   9.239  12.830
64241W        W31024   6.900  11.734   3.122
64242W        W31025   4.250   7.381  12.926
64243W        W31026  26.991  10.805   4.101
64244W        W31027  37.972  17.102  10.287
64245W        W31028  23.523  23.578   1.924
64246W        W31029  28.485  38.084  11.735
64247W        W31030  11.297  24.188   1.806
64248W        W31031   7.760  39.283  11.660
64249W        W31032  12.369  15.765   1.414
64250W        W31033  23.030   8.521   0.070
64251W        W31034   2.169   1.466  10.817
64252W        W31035  39.873  25.460   2.958
64253W        W31036  42.965  36.921  14.707
64254W        W31037   7.378  33.013  12.702
64255W        W31038  33.242  21.654  10.321
64256W        W31039  14.940  37.254  12.506
64257W        W31040  39.003  36.395   3.297
64258W        W31041  32.961  13.250   0.045
64259W        W31042  36.007  18.526  13.397
64260W        W31043  29.001   3.364  12.039
64261W        W31044  23.059   1.269  12.598
64262W        W31045   1.839  36.406   3.129
64263W        W31046  14.133  29.641   4.547
64264W        W31047  10.327  15.206   0.726
64265W        W31048  10.248  14.798   2.969
64266W        W31049  25.875   7.836   2.739
64267W        W31050  27.060  20.523   0.874
64268W        W31051  25.311  22.563  10.006
64269W        W31052   2.088   8.522   1.297
64270W        W31053  29.033  29.069  10.627
64271W        W31054  39.234  41.756   0.666
64272W        W31055   5.886  39.129   2.293
64273W        W31056  10.879  44.247   4.497
64274W        W31057   8.151   7.344   4.591
64275W        W31058  19.284   6.349   4.599
64276W        W31059  42.139  30.956  14.779
64277W        W31060  37.748  26.456  11.538
64278W        W31061  37.483  16.485   0.895
64279W        W31062  35.461  33.175   1.343
64280W        W31063  21.549  35.113  13.215
64281W        W31064  34.500   1.266  11.256
64282W        W31065  34.788  19.364  12.934
64283W        W31066   4.474  30.770  13.951
64284W        W31067   0.543  29.352  12.135
64285W        W31068   5.324  31.497   1.469
64286W        W31069  24.699  33.063   0.839
64287W        W31070  39.436  23.636  12.020
64288W        W31071  26.844  29.562  10.793
64289W        W31072  29.896   8.827   0.824
64290W        W31073  13.121  43.096   2.653
64291W        W31074   9.365  36.532   4.490
64292W        W31075   3.171  24.650  12.482
64293W        W31076   1.317  38.713  11.150
64294W        W31077  41.637  13.021   4.401
64295W        W31078  12.841  41.465   3.228
64296W        W31079  18.092  12.652  13.999
64297W        W31080   7.584  36.518  11.607
64298W        W31081  43.718  25.538  14.052
64299W        W31082  21.177  44.472   4.002
64300W        W31083   6.462   0.943  11.997
64301W        W31084  18.341  18.274  13.777
64302W        W31085  10.401  41.704  13.039
64303W        W31086  15.663  18.577   2.338
64304W        W31087  35.859   4.830  14.874
64305W        W31088  32.986  17.342   4.529
64306W        W31089  11.428  26.938   3.350
64307W        W31090  15.660  41.030   2.200
64308W        W31091  38.781   5.585  12.120
64309W        W31092  18.005  24.969  11.213
64310W        W31093  34.589  32.555  11.599
64311W        W31094  33.074  14.436   0.480
64312W        W31095   6.196   0.747   0.146
64313W        W31096  33.116  35.597   4.105
64314W        W31097  38.066  26.089   2.008
64315W        W31098  37.526  16.326  14.841
64316W        W31099   1.744  14.238   0.887
64317W        W31100   6.411   1.786   2.600
64318W        W31101  37.832  28.179  13.820
64319W        W31102  31.801  33.905   2.647
64320W        W31103  16.296   8.386  14.814
64321W        W31104   9.587  29.954   4.217
64322W        W31105  29.634  19.695  13.516
64323W        W31106   1.271  27.584   4.475
64324W        W31107  10.032  30.535  11.693
64325W        W31108  32.992  26.081   2.263
64326W        W31109  16.110  38.328   0.263
64327W        W31110  32.043  42.845   3.095
64328W        W31111  28.517  31.321  11.149
64329W        W31112  15.736  23.850  14.644
64330W        W31113   2.706  14.147  14.977
64331W        W31114  36.283  44.290  10.493
64332W        W31115  29.936  18.599  13.879
64333W        W31116  13.176  21.088  13.663
64334W        W31117  23.764  26.167  14.446
64335W        W31118  28.898   2.854  12.049
64336W        W31119  29.227  37.074  14.252
64337W        W31120  22.604  16.432   2.243
64338W        W31121  19.611  44.216   0.532
64339W        W31122  32.962   8.698  12.494
64340W        W31123   0.230  35.653  11.978
64341W        W31124  39.225  27.502   2.587
64342W        W31125  22.433   5.748   4.083
64343W        W31126  21.899   1.752   1.811
64344W        W31127   7.211  20.669   0.903
64345W        W31128   7.093  13.035   3.228
64346W        W31129   9.388  27.625  11.477
64347W        W31130  25.729  22.217   2.209
64348W        W31131  15.914  39.509  14.943
64349W        W31132   2.809  22.204   4.593
64350W        W31133  30.633  20.702   3.711
64351W        W31134   9.750   1.639  13.417
64352W        W31135   5.726  24.800  13.923
64353W        W31136  21.678  21.834   3.968
64354W        W31137  38.348  19.057   2.914
64355W        W31138  36.315   2.967  10.454
64356W        W31139  25.113  19.245  10.809
64357W        W31140  39.964  17.739  14.777
64358W        W31141  11.737   6.308  13.407
64359W        W31142  30.649  29.136  14.222
64360W        W31143  13.275  30.638   4.085
64361W        W31144  20.861   5.429  14.495
64362W        W31145  43.591  18.212  14.753
64363W        W31146  17.756   3.692   2.861
64364W        W31147  15.032  14.619   1.327
64365W        W31148  10.441  21.241   3.283
64366W        W31149  22.669  30.422   4.586
64367W        W31150  25.495   0.941   3.181
64368W        W31151   1.713  16.314  11.551
64369W        W31152   4.967  43.818   2.225
64370W        W31153   6.757   8.876   3.771
64371W        W31154  24.993   2.622  12.446
64372W        W31155  19.032  42.975   0.452
64373W        W31156  15.141  16.068  14.494
64374W        W31157  16.135  35.704  14.497
64375W        W31158  27.121  19.064   1.560
64376W        W31159  11.734  18.873   1.788
64377W        W31160  26.879   1.702   2.199
64378W        W31161  10.365  14.783  11.576
64379W        W31162  17.550   6.716   3.225
64380W        W31163  23.075  31.338  12.488
64381W        W31164  37.473  25.165   0.812
64382W        W31165  15.516  25.463   1.743
64383W        W31166  12.824  26.023  12.468
64384W        W31167  44.231  26.330  12.104
64385W        W31168  19.055  38.327   2.830
64386W        W31169   5.847  10.155  10.149
64387W        W31170  18.602   0.460  13.332
64388W        W31171  16.521  25.473  12.567
64389W        W31172  37.477   5.210  12.421
64390W        W31173   4.473  27.794  11.539
64391W        W31174  10.652  30.485  13.320
64392W        W31175   8.425  32.994   2.864
64393W        W31176   2.020  31.979  10.395
64394W        W31177  18.937  17.123  12.921
64395W        W31178  33.134  28.600   4.483
64396W        W31179  42.302  32.229   9.902
64397W        W31180   9.815  30.677   0.382
64398W        W31181  37.775  20.280  10.840
64399W        W31182   8.392  30.602   2.819
64400W        W31183  39.586   5.304  12.007
64401W        W31184  29.629  31.612  11.153
64402W        W31185  16.319  36.863   1.774
64403W        W31186  43.484  19.233  10.788
64404W        W31187  23.884  34.482   1.734
64405W        W31188   6.444  12.307   1.963
64406W        W31189   7.277   8.891   3.785
64407W        W31190  32.359  42.034  12.980
64408W        W31191  30.627  28.917  11.859
64409W        W31192  23.534  42.909   1.004
64410W        W31193   4.489  42.963  12.684
64411W        W31194   2.183   8.174  12.218
64412W        W31195  43.976  17.402  14.690
64413W        W31196  37.075  25.465   4.115
64414W        W31197  41.321  21.796  10.962
64415W        W31198  14.367   8.481  12.098
64416W        W31199  10.970   9.404  10.300
64417W        W31200   8.118  39.067   4.621
64418W        W31201   1.992   6.717  13.625
64419W        W31202  36.459  37.080  13.585
64420W        W31203  18.630  23.073  13.683
64421W        W31204  40.885  37.857  12.104
64422W        W31205  26.951  30.923   4.210
64423W        W31206   5.269   6.207  13.547
64424W        W31207  10.965  40.895   0.245
64425W        W31208  14.986  22.656   2.753
64426W        W31209  32.899  29.596  13.299
64427W        W31210   5.338  17.372  10.631
64428W        W31211  43.449   4.469  14.965
64429W        W31212   6.405   9.694   0.877
64430W        W31213  10.222  14.628   4.946
64431W        W31214  25.525  21.318  10.870
64432W        W31215  12.784  42.277   1.379
64433W        W31216   5.105  13.441   2.330
64434W        W31217  26.058  23.632   0.038
64435W        W31218  29.713   6.216   3.881
64436W        W31219  25.687   8.947   4.580
64437W        W31220  27.084  34.720   2.912
64438W        W31221  38.530  38.767  11.065
64439W        W31222   2.720  15.280  12.726
64440W        W31223  13.760   7.634  10.199
64441W        W31224   9.661  12.127  11.156
64442W        W31225  21.509   0.027   1.417
64443W        W31226   5.765  30.392   4.856
64444W        W31227  22.538  25.135   3.090
64445W        W31228   4.339  33.829   2.231
64446W        W31229  20.661   6.633  10.896
64447W        W31230  34.876   7.155   3.797
64448W        W31231   4.134  24.704  11.614
64449W        W31232  19.719   0.189   0.248
64450W        W31233  34.936  36.500   2.186
64451W        W31234   5.254   4.783   3.229
64452W        W31235  39.338  19.864   2.634
64453W        W31236  22.667  35.693   0.854
64454W        W31237  24.932   1.884   1.783
64455W        W31238   6.658   1.956   3.586
64456W        W31239   8.407  17.994  11.629
64457W        W31240  26.664  20.251   3.581
64458W        W31241  25.800  39.513  13.558
64459W        W31242  21.681  35.113  11.797
64460W        W31243  23.520  34.149   1.928
64461W        W31244  21.075  30.553  12.029
64462W        W31245  17.812  26.952  11.457
64463W        W31246  10.066  25.508  12.951
64464W        W31247  14.250  43.347   0.494
64465W        W31248  30.306  29.809  12.571
64466W        W31249   0.906  36.920  10.423
64467W        W31250  35.692  14.758  12.448
64468W        W31251  40.629  29.555  13.451
64469W        W31252  13.850  39.169  14.404
64470W        W31253  34.362   8.828  12.079
64471W        W31254  31.211  41.062   4.886
64472W        W31255  34.097  35.147   0.126
64473W        W31256  12.613  38.320   2.361
64474W        W31257   0.737  41.434   0.506
64475W        W31258  23.720   4.114  11.706
64476W        W31259  24.055  33.443  10.798
64477W        W31260  23.969  31.607  14.064
64478W        W31261  40.097  16.276   3.696
64479W        W31262   5.429  14.787  14.869
64480W        W31263  19.715   5.872   0.335
64481W        W31264  32.915  23.711   4.306
64482W        W31265  19.908  27.079   3.391
64483W        W31266  35.260  32.892   0.888
64484W        W31267  26.638   1.681  13.361
64485W        W31268  20.217   6.130  14.625
64486W        W31269  13.825   9.063  11.618
64487W        W31270   0.192  22.433  13.888
64488W        W31271  21.134   4.994   2.388
64489W        W31272   6.832  22.019   4.056
64490W        W31273  31.474  17.624   4.600
64491W        W31274   1.735   0.687   1.835
64492W        W31275   7.796   7.252  11.256
64493W        W31276  39.080  26.129   1.052
64494W        W31277  26.960  22.948  10.803
64495W        W31278   6.145   6.429   2.290
64496W        W31279   1.297  41.336   3.662
64497W        W31280  23.671  30.203  11.098
64498W        W31281  15.092  31.954  13.502
64499W        W31282  39.504   1.559  14.027
64500W        W31283  43.723  39.291   1.791
64501W        W31284  26.187  34.220   4.259
64502W        W31285  39.273  38.462   0.301
64503W        W31286  28.513  29.129   3.344
64504W        W31287  13.102  10.415  14.654
64505W        W31288  15.304  24.708   3.961
64506W        W31289  35.097  42.595   2.738
64507W        W31290  10.103  12.373  11.177
64508W        W31291   0.905  31.601   3.416
64509W        W31292  36.302  15.380  13.486
64510W        W31293  30.451   7.680   2.282
64511W        W31294  44.704  16.292  10.752
64512W        W31295  31.565  20.555   1.415
64513W        W31296   3.772  16.911  13.759
64514W        W31297  15.620  26.642   0.313
64515W        W31298  15.213  28.372  14.247
64516W        W31299  39.096  35.872   4.745
64517W        W31300   8.061  12.311  12.559
64518W        W31301   5.861  13.176  13.043
64519W        W31302  16.678  40.787  14.053
64520W        W31303  20.400  13.630  11.288
64521W        W31304  13.038  13.840   1.275
64522W        W31305   8.325  10.238   2.414
64523W        W31306  43.608  42.962  14.774
64524W        W31307  28.777   3.333  14.193
64525W        W31308  36.427  14.556   4.125
64526W        W31309  13.614  35.522  12.459
64527W        W31310   5.229   0.979   3.880
64528W        W31311  16.764  15.296  11.623
64529W        W31312  31.835  23.227  12.646
64530W        W31313  44.928  36.026  11.181
64531W        W31314  29.127  41.930   2.267
64532W        W31315   0.327  12.679   1.184
64533W        W31316   7.210  40.142   1.312
64534W        W31317  16.624  12.137   3.628
64535W        W31318  22.680  32.539   2.373
64536W        W31319  39.279  41.816   3.748
64537W        W31320  37.759  10.381   4.321
64538W        W31321   2.714  22.828   2.690
64539W        W31322  24.654  24.002  12.425
64540W        W31323  33.339  27.684   2.781
64541W        W31324  28.913   8.854  13.485
64542W        W31325  27.179  31.384  14.177
64543W        W31326   4.797  40.494   3.739
64544W        W31327  29.928  25.473   2.736
64545W        W31328  20.114  20.115  13.452
64546W        W31329  28.598   0.928   3.686
64547W        W31330  24.668  37.003   1.237
64548W        W31331  30.069  23.531   0.744
64549W        W31332   0.675  36.388  10.420
64550W        W31333  27.969  13.505  14.772
64551W        W31334   6.640  35.545  11.711
64552W        W31335   2.951  14.562  12.011
64553W        W31336  13.162  16.176   2.169
64554W        W31337  17.766  19.712  14.587
64555W        W31338   3.370  23.650   4.517
64556W        W31339   7.792  10.721   1.471
64557W        W31340  12.283  34.852  10.304
64558W        W31341  32.728   6.964  11.153
64559W        W31342   4.409  18.274  14.834
64560W        W31343  24.179  17.522  12.908
64561W        W31344  39.369  25.158   1.356
64562W        W31345  17.161  34.066  13.967
64563W        W31346  10.456   8.606  14.362
64564W        W31347   8.636   7.741   2.282
64565W        W31348  19.730  39.442  12.784
64566W        W31349  41.089  19.199  11.865
64567W        W31350   1.956  16.546   3.216
64568W        W31351  27.448  21.793   1.264
64569W        W31352  27.732  13.022  13.306
64570W        W31353  21.174  33.383  11.892
64571W        W31354  33.856  43.980   2.887
64572W        W31355  17.308  17.289   3.724
64573W        W31356  21.895  18.976   3.790
64574W        W31357  43.731  34.557   0.319
64575W        W31358  14.781  29.067   5.059
64576W        W31359  42.252  19.806  12.326
64577W        W31360  44.824  27.184  13.648
64578W        W31361  14.395   1.270  12.031
64579W        W31362  40.252  18.617  11.599
64580W        W31363  15.268  42.800  14.017
64581W        W31364   8.798  25.645  13.411
64582W        W31365  14.145   2.395   2.158
64583W        W31366  20.538  15.112   1.039
64584W        W31367  42.770  19.478   4.385
64585W        W31368  34.047   6.147  12.955
64586W        W31369   2.597  33.957  13.657
64587W        W31370  41.445  16.137   4.098
64588W        W31371  31.108  10.563   1.664
64589W        W31372  19.217   5.836   4.505
64590W        W31373  18.771  11.165  14.979
64591W        W31374  40.016  13.255  14.771
64592W        W31375  29.446  13.379   2.308
64593W        W31376   6.231  42.038  10.675
64594W        W31377   4.997  34.542   1.917
64595W        W31378  15.241  28.056  11.457
64596W        W31379  34.562   0.458  14.921
64597W        W31380  30.346  41.876  14.794
64598W        W31381  11.756  41.493   0.485
64599W        W31382  16.854  12.303  13.815
64600W        W31383  36.545  38.996   3.388
64601W        W31384  28.135  16.761  13.470
64602W        W31385  40.213  17.800   2.887
64603W        W31386  23.982  36.270   0.415
64604W        W31387  40.299  31.862  11.180
64605W        W31388  33.485   0.036   4.625
64606W        W31389  36.528  19.799   1.677
64607W        W31390  10.792  32.323  13.349
64608W        W31391  44.585  14.111   1.831
64609W        W31392   0.321  38.357   1.337
64610W        W31393  23.690  34.808   0.497
64611W        W31394  43.750  23.084  11.195
64612W        W31395  35.582  33.418   3.364
64613W        W31396  22.061  21.047   1.444
64614W        W31397  21.085  29.699   1.403
64615W        W31398  38.351   6.845   0.855
64616W        W31399  37.090   0.412  11.544
64617W        W31400  24.040  36.389   2.220
64618W        W31401  43.729   9.106   3.645
64619W        W31402  40.999  37.619  11.659
64620W        W31403  12.751  11.577   1.830
64621W        W31404   3.010   4.314  12.577
64622W        W31405   8.450   0.475   3.843
64623W        W31406  25.547  19.687  12.920
64624W        W31407   3.006  40.564   3.100
64625W        W31408   7.762   1.160   3.712
64626W        W31409  19.083   3.908  10.813
64627W        W31410  32.303  33.900   2.496
64628W        W31411  30.492   4.718   0.464
64629W        W31412  13.357  36.560   0.819
64630W        W31413  25.938  29.679   1.170
64631W        W31414  21.758  25.643  10.210
64632W        W31415  42.792  22.288   4.380
64633W        W31416  17.972  22.226  13.805
64634W        W31417  23.431   7.642   0.961
64635W        W31418  39.839  22.241  14.336
64636W        W31419  42.752   5.947   2.792
64637W        W31420  33.167  12.604  12.038
64638W        W31421  38.561  13.712   2.602
64639W        W31422   7.792  42.155   4.133
64640W        W31423   5.363  33.103   4.329
64641W        W31424  10.825  39.679  14.967
64642W        W31425  37.277  11.292  12.166
64643W        W31426  27.368   8.114  11.016
64644W        W31427   3.759  35.419  13.477
64645W        W31428   0.548  31.729   9.520
64646W        W31429  42.077  22.092   3.206
64647W        W31430  40.013  27.221   2.745
64648W        W31431  40.974  12.298  14.331
64649W        W31432  12.396  11.702   3.650
64650W        W31433  10.717  42.611  11.500
64651W        W31434  42.005   4.475  10.468
64652W        W31435   2.885   2.986   1.596
64653W        W31436  20.045  36.086   1.501
64654W        W31437  19.728  27.882  11.397
64655W        W31438  22.667  35.268  11.181
64656W        W31439  37.507  35.699   3.987
64657W        W31440  18.349   2.439  11.272
64658W        W31441  34.987  36.342   4.848
64659W        W31442  26.615  42.810  13.914
64660W        W31443  14.498   8.597  11.033
64661W        W31444   3.872  21.895   0.524
64662W        W31445  15.724  19.827   4.037
64663W        W31446  14.318  38.968   2.383
64664W        W31447  37.780  33.147  11.942
64665W        W31448  39.540  10.850  11.728
64666W        W31449  32.840  28.912  11.421
64667W        W31450  17.051  43.520   1.701
64668W        W31451  22.629  44.044  12.109
64669W        W31452  11.223  41.845  11.033
64670W        W31453  26.057  33.700  10.832
64671W        W31454  12.774  40.456  11.240
64672W        W31455   2.731  19.383  13.549
64673W        W31456  31.376  20.157   1.820
64674W        W31457  16.523  28.267  10.841
64675W        W31458  39.749   0.731  11.736
64676W        W31459  14.282  32.172   1.810
64677W        W31460  28.016  10.555   4.998
64678W        W31461   9.260  22.137   2.607
64679W        W31462   3.313  23.578  12.102
64680W        W31463   3.903  35.487  14.526
64681W        W31464  20.111   9.440  13.443
64682W        W31465  41.440  25.587  10.664
64683W        W31466  15.118  29.941   0.165
64684W        W31467   4.378   9.696  14.168
64685W        W31468  31.498  13.474   4.340
64686W        W31469  11.710  33.076   4.318
64687W        W31470  35.841  25.911   2.475
64688W        W31471   2.286  10.902   0.916
64689W        W31472  11.160   6.621   3.730
64690W        W31473  36.525  29.086   1.768
64691W        W31474  33.805   9.939   4.298
64692W        W31475  23.051  28.970   3.793
64693W        W31476   6.184  35.855   1.289
64694W        W31477  14.485  33.780   2.490
64695W        W31478   5.356  41.323   0.806
64696W        W31479  12.750  32.544   2.750
64697W        W31480  29.836   7.233   0.700
64698W        W31481   6.449  39.471  13.002
64699W        W31482  32.929  27.659  13.348
64700W        W31483   3.767  44.509   3.486
64701W        W31484  28.983  40.338   0.280
64702W        W31485  36.983   3.375   2.189
64703W        W31486  24.535  39.157  14.403
64704W        W31487  33.232  19.361   5.048
64705W        W31488  39.479   8.758   0.222
64706W        W31489  23.294   8.266  14.695
64707W        W31490   3.965   5.232   1.357
64708W        W31491  16.480  19.186   3.076
64709W        W31492   5.772  14.821  11.485
64710W        W31493  32.617   3.290   2.646
64711W        W31494  11.780  17.583   4.615
64712W        W31495  10.132  32.901   3.244
64713W        W31496  32.139  28.243   2.826
64714W        W31497   2.787   1.950  14.724
64715W        W31498   0.504  31.027   0.918
64716W        W31499   8.164  38.835  13.936
64717W        W31500   0.225   6.721   3.930
64718W        W31501   1.374  23.579  11.496
64719W        W31502  29.427  39.471   4.677
64720W        W31503  40.268   3.175   2.929
64721W        W31504  17.435  42.603  13.855
64722W        W31505   5.150  34.008  14.906
64723W        W31506   3.145  12.624  11.132
64724W        W31507  26.572  33.561  13.377
64725W        W31508  19.613  26.944   0.918
64726W        W31509  28.318  14.732  14.372
64727W        W31510   4.014  43.478   0.737
64728W        W31511   9.718   6.131   3.843
64729W        W31512  39.611  34.301   3.618
64730W        W31513  14.483  40.963  14.458
64731W        W31514  13.809  16.845   4.105
64732W        W31515  41.590   3.481   2.940
64733W        W31516  38.539   2.447   0.767
64734W        W31517  30.648  41.981  11.667
64735W        W31518  25.398   0.287  11.094
64736W        W31519  22.553  42.645   3.162
64737W        W31520  14.703   9.789  13.777
64738W        W31521  31.607  11.798  10.767
64739W        W31522  33.623   6.299  13.564
64740W        W31523   1.451  16.014   1.400
64741W        W31524  22.037   0.672  13.655
64742W        W31525  22.254  18.705  13.781
64743W        W31526   6.061  34.994  12.183
64744W        W31527  15.211  16.003  13.443
64745W        W31528  42.844  40.241  11.236
64746W        W31529  21.529   1.309  13.399
64747W        W31530  40.968  41.978   2.229
64748W        W31531  20.133   0.646   2.642
64749W        W31532  37.025  14.327   3.892
64750W        W31533   4.111   6.196   0.477
64751W        W31534  19.564  32.071   0.487
64752W        W31535  31.134  12.236  12.422
64753W        W31536  41.698  24.585   1.030
64754W        W31537  42.932   9.588  12.612
64755W        W31538  38.542  29.407   4.617
64756W        W31539  28.040  15.369  13.459
64757W        W31540  18.800  32.854  13.372
64758W        W31541   1.057   2.302  11.123
64759W        W31542  23.152  25.254  12.953
64760W        W31543  22.542  31.020  14.360
64761W        W31544  17.909  32.406  12.959
64762W        W31545  40.428  32.457   4.168
64763W        W31546  11.513  35.501  11.197
64764W        W31547   5.238  13.230   3.823
64765W        W31548   0.800   4.444   1.374
64766W        W31549  22.705  10.219   0.084
64767W        W31550  11.362  19.799   0.062
64768W        W31551  21.536  11.860  13.029
64769W        W31552  31.461   0.530   4.316
64770W        W31553   1.482  32.764   3.750
64771W        W31554  22.285  33.823   1.246
64772W        W31555  23.213  28.974   0.209
64773W        W31556  42.341  32.003  12.521
64774W        W31557   4.755  40.777  12.991
64775W        W31558  11.623  14.661  14.944
64776W        W31559   4.815  12.333   3.266
64777W        W31560  16.158   8.086   1.662
64778W        W31561  33.039   1.977  14.081
64779W        W31562  14.783   2.779  10.589
64780W        W31563  36.260  13.767   0.723
64781W        W31564  26.897  32.067   2.239
64782W        W31565  11.665  31.695   2.885
64783W        W31566   7.406  30.561  13.502
64784W        W31567  29.391  18.681   0.401
64785W        W31568  12.791  39.922   2.990
64786W        W31569  43.361  15.476   3.711
64787W        W31570  32.553   8.591  13.885
64788W        W31571  37.523  17.529  12.946
64789W        W31572  13.415  41.496  13.903
64790W        W31573  19.236  18.625   4.266
64791W        W31574   9.733  26.906   0.129
64792W        W31575  39.981  42.691   1.188
64793W        W31576   4.476   3.045  10.401
64794W        W31577  40.799   0.508   2.006
64795W        W31578  30.454  35.159  13.403
64796W        W31579  42.842   8.938   3.232
64797W        W31580   9.696  10.157  12.306
64798W        W31581  25.697  29.550   4.033
64799W        W31582  38.811   4.875  10.741
64800W        W31583  17.634   6.893  13.781
64801W        W31584  10.669  25.557   0.747
64802W        W31585  31.873  40.304  10.661
64803W        W31586  18.745   1.432   2.213
64804W        W31587  10.136  34.972  13.373
64805W        W31588  30.455  31.531  13.126
64806W        W31589  29.392  35.227  14.115
64807W        W31590  39.734  38.851   0.904
64808W        W31591  24.312   2.908  11.663
64809W        W31592  25.164  25.519  14.465
64810W        W31593  36.016   1.326  13.529
64811W        W31594  31.628   6.456   2.615
64812W        W31595  14.259  10.798  11.471
64813W        W31596  11.830  11.642  14.737
64814W        W31597  31.560  21.208  12.414
64815W        W31598  14.092  41.414  14.790
64816W        W31599  21.168  40.073  14.157
64817W        W31600  10.998  11.900  11.311
64818W        W31601  15.118   9.895   5.041
64819W        W31602  17.702   5.137   4.074
64820W        W31603  12.846  10.138   0.017
64821W        W31604  31.411  26.084   1.808
64822W        W31605   0.882  39.269  14.396
64823W        W31606   9.854  25.108  14.590
64824W        W31607   2.650  38.423   4.110
64825W        W31608   9.361   3.495   4.175
64826W        W31609   2.840  17.830   0.291
64827W        W31610   4.883  33.264   4.236
64828W        W31611   5.486  38.847   2.106
64829W        W31612  14.840  12.099   2.856
64830W        W31613  26.262   0.950   3.691
64831W        W31614  25.438  30.975   4.117
64832W        W31615  22.966  31.577  13.838
64833W        W31616   8.631   2.961  12.876
64834W        W31617  28.169   0.009  11.016
64835W        W31618  21.713  35.266  14.173
64836W        W31619  42.890  15.581   1.104
64837W        W31620   0.400  30.089   4.231
64838W        W31621  30.063   8.288  13.761
64839W        W31622  32.787   9.210  14.405
64840W        W31623  22.416  21.595   0.870
64841W        W31624  40.245   2.149   0.971
64842W        W31625  13.563  19.366  14.045
64843W        W31626   5.155  22.074   3.758
64844W        W31627   9.865  14.287  14.832
64845W        W31628   3.248  22.598   0.217
64846W        W31629  41.580   9.445   4.489
64847W        W31630  36.322  28.271  10.923
64848W        W31631  34.879  37.087   1.361
64849W        W31632  21.656  19.103  12.527
64850W        W31633  41.069  43.261   3.204
64851W        W31634  38.086   6.103  14.922
64852W        W31635  19.625  15.750  13.913
64853W        W31636  41.423  41.265  14.570
64854W        W31637  15.753  39.947   3.960
64855W        W31638  41.442   2.401   4.533
64856W        W31639   5.762   7.616   1.312
64857W        W31640  27.140   2.218  14.874
64858W        W31641   2.045  43.686   4.640
64859W        W31642  10.539  37.127   3.983
64860W        W31643  27.054  38.274  14.885
64861W        W31644  22.446   6.250   4.181
64862W        W31645  15.011   0.946   1.743
64863W        W31646  39.335  24.934   5.048
64864W        W31647   9.997  32.408   3.155
64865W        W31648   5.027  34.112   3.259
64866W        W31649  28.284   3.749   0.319
64867W        W31650  22.707  17.378   4.515
64868W        W31651  36.268  23.937  13.624
64869W        W31652  31.485  26.996  14.841
64870W        W31653  16.206   7.688  13.519
64871W        W31654   3.862  44.419   2.988
64872W        W31655  26.423  38.041   3.234
64873W        W31656  38.412  12.762  13.383
64874W        W31657  10.261  11.664  14.279
64875W        W31658   8.651  23.012   0.730
64876W        W31659  27.707   4.975   4.633
64877W        W31660   7.853  32.308   4.173
64878W        W31661  31.050   1.544  12.456
64879W        W31662  35.890  10.163   3.822
64880W        W31663  10.250   1.026   0.852
64881W        W31664  12.422  10.184  12.016
64882W        W31665  39.812   1.799  12.117
64883W        W31666   3.869   8.878  13.167
64884W        W31667  17.621  32.174  11.637
64885W        W31668   1.959  41.054   2.243
64886W        W31669  10.387  43.927  13.434
64887W        W31670  29.675  42.051   2.953
64888W        W31671  29.025   6.416  14.346
64889W        W31672  43.356  14.798   2.816
64890W        W31673  41.225  23.013   1.828
64891W        W31674  10.292  30.716  10.867
64892W        W31675  16.881  16.046   4.519
64893W        W31676  23.939  40.265   2.841
64894W        W31677   0.455  23.061   0.141
64895W        W31678  14.384  35.114   1.235
64896W        W31679  37.536  29.048   2.903
64897W        W31680   9.341  18.561  12.364
64898W        W31681  12.734   7.709  12.041
64899W        W31682  37.705  30.757   2.365
64900W        W31683  19.609  31.255  13.128
64901W        W31684  36.470   9.118  14.899
64902W        W31685  17.590  14.865  14.410
64903W        W31686  32.096  23.066   1.016
64904W        W31687  42.953  30.837  11.649
64905W        W31688  33.274   2.436   0.364
64906W        W31689  14.728  37.742   4.633
64907W        W31690   3.930  11.313   3.277
64908W        W31691  44.945  37.470   4.509
64909W        W31692  17.235  28.921   4.455
64910W        W31693  27.369  24.143   1.489
64911W        W31694  18.183  21.138  14.045
64912W        W31695  38.837  19.482   4.527
64913W        W31696  44.442  35.837  11.373
64914W        W31697  29.896  32.050  12.189
64915W        W31698  34.869  36.345  12.695
64916W        W31699  33.971  29.473   3.746
64917W        W31700  24.639   1.975   2.224
64918W        W31701  11.661  34.335   1.431
64919W        W31702  18.562  21.709  13.610
64920W        W31703  44.237  37.646  14.315
64921W        W31704   2.015  41.526   4.702
64922W        W31705  36.912  37.918  11.931
64923W        W31706  28.140  29.083  13.909
64924W        W31707   9.967   2.331  12.894
64925W        W31708  41.745  21.751   4.085
64926W        W31709  18.546  44.923   3.763
64927W        W31710   7.452   4.258  12.522
64928W        W31711  33.370  24.663   4.536
64929W        W31712  19.035  37.844   1.728
64930W        W31713  24.094  37.035   3.387
64931W        W31714  24.210  26.110  12.900
64932W        W31715  13.010  41.508   0.887
64933W        W31716   6.475  26.154  14.454
64934W        W31717   6.869   9.409  14.883
64935W        W31718  31.482  41.881  11.296
64936W        W31719   8.399   8.805  11.421
64937W        W31720  11.740  25.295   2.224
64938W        W31721  23.586  15.079  11.569
64939W        W31722  42.004  24.174  10.677
64940W        W31723  13.796  42.205  13.277
64941W        W31724  22.152  31.318  13.030
64942W        W31725  34.370   7.188   3.650
64943W        W31726  33.087  24.059   2.225
64944W        W31727   2.010  32.826   1.570
64945W        W31728  16.661  37.029  12.010
64946W        W31729   9.397  35.225   1.459
64947W        W31730  18.635  19.064  10.695
64948W        W31731  15.242  23.272  12.946
64949W        W31732  42.907  12.094   3.240
64950W        W31733  36.837   1.932   1.123
64951W        W31734   5.439  26.948  11.176
64952W        W31735  41.824  11.376   4.437
64953W        W31736  23.170  37.827   4.769
64954W        W31737  10.568  32.635   2.201
64955W        W31738  42.225  11.821  13.346
64956W        W31739   0.706  16.071  12.440
64957W        W31740  32.063  14.697   4.598
64958W        W31741  23.143  17.607   4.659
64959W        W31742   7.737  39.293   2.863
64960W        W31743  30.394  21.665  10.146
64961W        W31744  16.804  28.750   4.193
64962W        W31745  41.873  32.787  14.426
64963W        W31746   9.293   5.567  12.850
64964W        W31747  32.784  14.073  11.066
64965W        W31748  36.342  34.175   4.250
64966W        W31749  23.508   2.928   1.605
64967W        W31750  18.776   3.718  11.872
64968W        W31751  38.988   7.359   2.795
64969W        W31752  36.351  31.295  13.475
64970W        W31753   0.341  14.050  11.641
64971W        W31754  44.406  34.007   2.931
64972W        W31755   9.278  32.461   4.188
64973W        W31756  38.084   7.387   0.211
64974W        W31757  21.646   6.617   4.122
64975W        W31758  19.737  12.563  14.810
64976W        W31759  22.757  25.744  13.422
64977W        W31760  16.028  40.418   3.502
64978W        W31761  14.032  13.654  12.546
64979W        W31762  29.004  19.608   2.198
64980W        W31763   7.434   6.324  12.175
64981W        W31764  22.877   3.907  11.689
64982W        W31765   3.968  12.624   2.367
64983W        W31766  22.267  38.110   2.676
64984W        W31767  12.119   0.946   4.098
64985W        W31768  19.570  44.566   1.484
64986W        W31769  21.795  11.793  10.933
64987W        W31770  31.560  16.653   1.552
64988W        W31771   2.050  10.505  10.768
64989W        W31772  26.068   6.887   1.852
64990W        W31773  28.390  29.718  12.611
64991W        W31774  26.699  28.597   4.530
64992W        W31775   7.758  30.164   2.741
64993W        W31776   3.902  16.667   0.253
64994W        W31777  23.863  28.426  11.758
64995W        W31778  38.597  33.510  10.109
64996W        W31779   7.978   5.760   1.621
64997W        W31780  41.357  20.736   4.499
64998W        W31781  24.478   5.052   1.417
64999W        W31782  12.698  11.360   1.362
65000W        W31783  25.490  36.110  14.575
65001W        W31784  32.992  25.714  14.449
65002W        W31785  11.737   2.882  14.375
65003W        W31786  37.994  35.935  11.601
65004W        W31787  22.566  10.304   1.069
65005W        W31788   8.327   9.809  13.804
65006W        W31789  38.519  38.304  12.090
65007W        W31790  14.837  17.854   1.373
65008W        W31791  14.513  38.119   3.262
65009W        W31792  40.902   8.054   1.185
65010W        W31793  10.373  11.543   1.301
65011W        W31794  27.104  42.863  14.408
65012W        W31795  42.237   0.299   1.865
65013W        W31796  32.005  31.504  13.732
65014W        W31797  36.807  33.254  14.892
65015W        W31798  29.614  14.805   1.100
65016W        W31799  14.972  37.349   3.576
65017W        W31800  21.424  30.969   2.716
65018W        W31801  28.267  26.935   1.396
65019W        W31802  11.077  15.707  13.388
65020W        W31803  26.607  11.727   2.894
65021W        W31804  26.963  33.432   4.420
65022W        W31805  41.724   1.989  12.221
65023W        W31806  11.093  11.431  11.099
65024W        W31807  21.303  24.084  11.676
65025W        W31808  28.974  32.956  13.091
65026W        W31809  11.333  38.061   3.491
65027W        W31810  44.590   5.690  14.115
65028W        W31811  43.255  16.228   0.104
65029W        W31812  14.737  41.431  14.468
65030W        W31813  38.258   5.243   1.186
65031W        W31814  26.669  36.885   2.874
65032W        W31815  30.853  17.570  11.118
65033W        W31816  12.043   0.597  13.156
65034W        W31817  30.439  15.169  13.871
65035W        W31818  30.676  11.637  11.717
65036W        W31819   2.723  14.317  13.232
65037W        W31820  18.096  13.885   4.920
65038W        W31821  23.993  35.053   3.270
65039W        W31822  21.028  32.375  12.601
65040W        W31823  28.589  38.226  12.253
65041W        W31824  37.862  26.275  12.366
65042W        W31825  35.899  18.949  14.386
65043W        W31826  31.506  34.510  11.603
65044W        W31827   3.391   2.560  11.580
65045W        W31828  22.750  17.816   3.787
65046W        W31829  20.054  28.154  14.828
65047W        W31830  20.560  25.397   1.948
65048W        W31831  32.936  17.334  10.771
65049W        W31832  20.177   7.876   2.930
65050W        W31833  18.151  42.589   2.672
65051W        W31834   0.202  43.971   2.696
65052W        W31835  20.523  20.059   4.664
65053W        W31836  44.932  12.948   0.991
65054W        W31837  40.137  44.872   3.268
65055W        W31838  38.381  42.325   3.771
65056W        W31839  33.505  10.928  12.427
65057W        W31840  25.616   4.379  12.101
65058W        W31841  38.471  36.266  12.509
65059W        W31842  40.064  21.601  12.012
65060W        W31843   6.780   4.765  13.846
65061W        W31844  28.503   4.453  11.531
65062W        W31845  44.463  13.141   4.170
65063W        W31846  40.356  44.282  13.987
65064W        W31847  44.606   6.596  13.090
65065W        W31848   0.398  12.133  10.210
65066W        W31849   4.057  10.745  10.637
65067W        W31850   1.513  25.524   3.591
65068W        W31851  18.287  40.942  11.223
65069W        W31852  42.837   5.276  11.366
65070W        W31853  14.915   0.798   3.122
65071W        W31854  11.683  11.793   1.217
65072W        W31855  40.751  28.700   3.958
65073W        W31856  24.643  25.164   0.924
65074W        W31857  26.336  23.407   4.847
65075W        W31858  21.562   3.641   0.381
65076W        W31859  33.081  30.923   0.319
65077W        W31860   0.805  28.957   3.115
65078W        W31861   7.970  25.000   1.347
65079W        W31862   3.266  21.345  12.635
65080W        W31863  33.765  15.642   4.179
65081W        W31864  11.413   7.147  11.052
65082W        W31865   2.242  44.419   0.298
65083W        W31866  26.018  11.469  12.433
65084W        W31867  20.692  20.783  14.651
65085W        W31868  36.091   4.786   1.762
65086W        W31869  34.179  38.595   3.269
65087W        W31870   5.564  21.848   1.164
65088W        W31871   0.859  35.485   2.012
65089W        W31872  23.207  41.827   1.776
65090W        W31873  41.856   7.882  12.051
65091W        W31874  28.915  41.150  12.409
65092W        W31875  32.932  23.299   3.200
65093W        W31876  33.654   7.702   0.767
65094W        W31877  29.403  28.273  12.744
65095W        W31878  37.976  35.597  14.728
65096W        W31879  44.279  22.057  14.217
65097W        W31880   5.710  14.069  12.010
65098W        W31881  38.429  26.771   0.969
65099W        W31882  35.378  43.021   4.551
65100W        W31883  21.195  32.040   4.554
65101W        W31884  41.265  34.001  10.778
65102W        W31885  22.578   0.744  12.043
65103W        W31886  39.873  35.377  12.374
65104W        W31887  14.987  42.346  13.880
65105W        W31888  26.065  25.038  11.788
65106W        W31889  29.428  23.573  11.968
65107W        W31890  21.616  33.521   1.853
65108W        W31891  21.202  24.302  14.929
65109W        W31892  38.217   3.315   2.672
65110W        W31893   8.325  27.687  14.991
65111W        W31894  34.300  25.464  12.586
65112W        W31895  17.364  24.023   3.112
65113W        W31896  38.435  15.119  14.021
65114W        W31897  26.071   9.914  12.014
65115W        W31898  20.231  36.507   3.801
65116W        W31899  30.587  19.804   3.592
65117W        W31900  16.151  14.019  10.612
65118W        W31901   4.778  25.928   4.699
65119W        W31902  23.653   3.702  12.905
65120W        W31903  36.011   0.748   4.592
65121W        W31904  41.043   9.407   3.094
65122W        W31905   7.310  34.074   1.220
65123W        W31906   1.361  40.213  14.507
65124W        W31907  19.381  26.531  14.010
65125W        W31908  16.845  31.742  12.322
65126W        W31909  16.660  17.798  13.818
65127W        W31910  10.786  18.566   1.259
65128W        W31911  28.669  14.172   1.795
65129W        W31912  36.140  22.135   1.331
65130W        W31913  26.705  13.147  14.942
65131W        W31914  24.020  29.993   1.926
65132W        W31915  20.144  31.427   2.404
65133W        W31916  26.712  26.644  14.068
65134W        W31917  30.580  39.348  14.759
65135W        W31918  29.644  37.865  13.106
65136W        W31919   5.762   8.101  11.201
65137W        W31920  44.807  42.276  13.846
65138W        W31921   1.142   7.463   1.705
65139W        W31922  17.879  27.096   1.774
65140W        W31923  44.954  17.259   3.052
65141W        W31924  43.536   3.635  11.531
65142W        W31925   9.095  42.951  10.677
65143W        W31926   7.683  13.106   1.104
65144W        W31927  40.785   6.663  12.651
65145W        W31928  29.009  29.887   0.925
65146W        W31929  44.355  19.504  14.991
65147W        W31930  10.117  34.442  11.520
65148W        W31931  15.625   9.576   0.935
65149W        W31932   0.770  20.553   2.763
65150W        W31933  32.366  40.759  14.922
65151W        W31934  37.419  41.650  11.877
65152W        W31935  37.332  43.334   4.025
65153W        W31936  25.252  35.061  14.702
65154W        W31937  42.293  19.510  14.216
65155W        W31938  38.836  24.957  10.368
65156W        W31939  40.072  39.374   3.110
65157W        W31940  39.762  43.492  14.044
65158W        W31941  30.923  25.939   3.224
65159W        W31942   8.297  42.976   1.778
65160W        W31943  23.519  12.630   3.090
65161W        W31944  31.694  24.741   4.470
65162W        W31945  24.192  42.217  12.951
65163W        W31946   7.815   1.716   0.550
65164W        W31947  13.518  17.260  12.571
65165W        W31948  39.312   1.809   3.776
65166W        W31949  33.597   1.012   0.902
65167W        W31950  37.622   1.162  13.494
65168W        W31951   3.831  20.644  13.056
65169W        W31952  27.829   5.832  12.578
65170W        W31953  10.851   2.405  14.779
65171W        W31954  40.713  25.719   3.452
65172W        W31955  36.136   9.300  14.026
65173W        W31956   4.936  42.246   1.191
65174W        W31957  41.818   0.708   4.357
65175W        W31958   2.866  40.383   4.070
65176W        W31959   7.378  18.754   4.119
65177W        W31960  33.175  25.908   2.706
65178W        W31961   7.202  21.575  10.699
65179W        W31962  34.576  22.183  11.752
65180W        W31963   5.926   1.261   1.338
65181W        W31964   4.433   4.811   2.602
65182W        W31965  26.100  33.496  12.050
65183W        W31966  23.664  22.705   4.759
65184W        W31967  28.985  17.492  10.766
65185W        W31968  22.728  38.880   1.293
65186W        W31969  17.473  32.300  13.860
65187W        W31970  26.508  13.437   4.672
65188W        W31971  35.785  42.082   0.199
65189W        W31972  26.607   3.399   4.504
65190W        W31973  23.855  22.484  12.816
65191W        W31974   7.733   1.412   4.161
65192W        W31975  11.744  31.807  14.071
65193W        W31976  18.378  44.501   0.231
65194W        W31977  37.279  25.094   4.793
65195W        W31978   2.970  26.931   4.001
65196W        W31979  12.500   2.898  10.930
65197W        W31980  26.206  30.449  11.159
65198W        W31981  37.233   3.657   4.189
65199W        W31982  20.738   4.433  11.912
65200W        W31983   7.767  17.762   0.517
65201W        W31984  26.041  40.808  11.574
65202W        W31985  11.298   9.437  12.399
65203W        W31986  35.421  38.327  12.159
65204W        W31987  13.019  31.919  13.403
65205W        W31988  32.710  38.885  14.689
65206W        W31989  44.886   1.546   4.552
65207W        W31990   0.401  35.954  11.530
65208W        W31991   8.206   3.531  11.932
65209W        W31992  21.156  15.852   4.476
65210W        W31993  35.786  44.183   1.677
65211W        W31994  35.588  37.033  12.942
65212W        W31995   2.356  23.832   1.959
65213W        W31996  14.773  25.748  13.352
65214W        W31997  29.982  29.334  13.094
65215W        W31998  10.586   3.718  11.433
65216W        W31999  22.975  36.480  14.366
65217W        W32000  43.240   2.347   0.956
65218W        W32001  20.622  30.767  13.582
65219W        W32002  16.869  10.626   3.706
65220W        W32003  40.476  11.578  13.498
65221W        W32004  30.864  22.151  13.860
65222W        W32005  38.479   7.715   2.107
65223W        W32006  15.130   5.777  12.855
65224W        W32007   0.337   6.166  12.436
65225W        W32008  43.990  43.924  13.019
65226W        W32009  14.319  30.881   1.230
65227W        W32010  39.498  22.163   3.206
65228W        W32011  32.470  35.391  11.833
65229W        W32012  36.527  10.332  10.948
65230W        W32013  20.034  15.826  12.408
65231W        W32014  18.151  36.851  10.588
65232W        W32015   3.679  11.834   2.569
65233W        W32016   1.202  30.638  13.261
65234W        W32017  12.103  42.984   1.180
65235W        W32018   5.654  34.362   0.289
65236W        W32019   6.256  23.831   4.855
65237W        W32020  42.034   4.176   4.620
65238W        W32021   0.367  32.677  14.720
65239W        W32022  23.342  38.841  12.968
65240W        W32023   7.012  32.006   4.480
65241W        W32024  44.907  15.170  10.640
65242W        W32025   2.058  18.684   2.252
65243W        W32026  14.142  40.911  14.906
65244W        W32027  42.714  44.323   1.948
65245W        W32028  16.234  22.513  12.151
65246W        W32029  24.674  26.590   1.787
65247W        W32030  25.148  42.085  11.555
65248W        W32031   8.813  12.466   2.234
65249W        W32032  27.617  40.181  12.079
65250W        W32033  22.358  36.012  12.521
65251W        W32034  17.550  32.971   1.450
65252W        W32035  42.533  25.520   4.291
65253W        W32036  10.187   3.951  11.701
65254W        W32037   2.273  23.766   3.781
65255W        W32038  26.801  23.491   4.418
65256W        W32039  14.804  30.574   4.746
65257W        W32040  14.247  17.865   3.090
65258W        W32041  13.403  10.859   0.257
65259W        W32042  37.706  19.011  10.863
65260W        W32043  24.841  22.808   0.071
65261W        W32044  37.607  36.316   2.459
65262W        W32045  26.900   6.180  14.396
65263W        W32046  17.356   0.917  14.446
65264W        W32047  10.395  25.995   0.865
65265W        W32048  39.408   7.676   2.860
65266W        W32049  28.232   0.509   2.709
65267W        W32050  26.158  15.702  12.025
65268W        W32051  18.068  17.410  11.101
65269W        W32052   7.131  25.518   4.516
65270W        W32053  30.739  35.554  13.543
65271W        W32054  18.935  32.643   2.343
65272W        W32055  18.018   7.126   4.114
65273W        W32056  10.609  10.418  14.806
65274W        W32057   1.006   4.752   1.788
65275W        W32058   7.738  31.947   0.946
65276W        W32059   2.726   9.805  12.024
65277W        W32060   6.454  22.805   1.037
65278W        W32061  32.663   7.890  12.095
65279W        W32062  25.694  25.136  11.389
65280W        W32063  14.006   0.726   2.584
65281W        W32064  40.231  24.134  13.401
65282W        W32065  32.575  28.890  10.977
65283W        W32066  35.473   1.845  14.203
65284W        W32067  41.745  12.738  14.765
65285W        W32068  29.553  21.880  12.907
65286W        W32069  22.618  24.199  10.237
65287W        W32070  36.919   6.114   2.770
65288W        W32071  25.622  33.671  12.227
65289W        W32072   9.128  11.650  13.864
65290W        W32073  25.288  30.899  14.971
65291W        W32074  22.680  26.924  10.772
65292W        W32075   2.724  32.622   4.268
65293W        W32076  36.083  13.833   1.791
65294W        W32077   9.174  42.737  13.021
65295W        W32078   6.862  24.087  11.796
65296W        W32079  10.393  34.867   4.261
65297W        W32080  13.313  40.549  10.541
65298W        W32081  36.919  18.109  11.647
65299W        W32082  17.301  19.793  11.600
65300W        W32083  19.133   4.181   3.098
65301W        W32084   3.923   2.889  14.157
65302W        W32085   4.966  40.673   4.555
65303W        W32086  43.682  39.965   4.839
65304W        W32087  27.507   2.735  14.072
65305W        W32088  19.511   0.384   0.657
65306W        W32089  29.618  38.878  13.442
65307W        W32090   9.376  35.490  14.306
65308W        W32091  17.201   2.739   1.807
65309W        W32092   1.696  22.696  11.060
65310W        W32093  19.254   3.718  12.102
65311W        W32094  18.765  12.812  12.752
65312W        W32095  25.745  39.464   3.558
65313W        W32096   0.648  12.541  12.755
65314W        W32097  28.687  27.776  11.546
65315W        W32098  18.519  44.297  13.566
65316W        W32099   6.497   2.338   0.789
65317W        W32100  18.356  38.355   0.255
65318W        W32101  21.037   7.834  13.373
65319W        W32102   5.067  11.808   5.217
65320W        W32103   3.971  33.581   2.518
65321W        W32104  33.703  23.193   3.633
65322W        W32105  32.504  44.408   0.969
65323W        W32106   3.724   5.293  10.745
65324W        W32107  12.809  21.068   3.396
65325W        W32108   2.905  11.490  11.955
65326W        W32109   4.834  35.947   3.649
65327W        W32110  42.897  24.759  13.527
65328W        W32111   6.241  44.051  13.369
65329W        W32112  34.496  22.078  12.747
65330W        W32113  38.740  14.527   4.184
65331W        W32114  22.715  23.599   2.922
65332W        W32115  26.752   1.717  11.106
65333W        W32116   8.233   6.852  13.610
65334W        W32117   9.901  43.863   4.301
65335W        W32118  18.784  31.162   3.193
65336W        W32119   0.866   9.000   2.205
65337W        W32120  20.365  39.274   3.725
65338W        W32121   9.385  40.347  12.006
65339W        W32122  11.700   4.222  14.902
65340W        W32123  19.220  27.011   1.762
65341W        W32124  36.435  44.922  14.422
65342W        W32125  16.184   5.400  11.953
65343W        W32126   5.579  16.031  12.144
65344W        W32127  38.861  35.918   0.008
65345W        W32128  39.131  27.959   1.062
65346W        W32129  26.293  15.340  14.745
65347W        W32130  42.472   2.740  14.933
65348W        W32131  44.697  39.556   1.168
65349W        W32132  44.691   7.202  13.471
65350W        W32133  42.202  16.640   1.391
65351W        W32134  20.163  17.583  14.571
65352W        W32135  22.673  36.213   0.843
65353W        W32136   1.294  43.775  11.357
65354W        W32137   1.003   8.881   0.900
65355W        W32138   9.942  29.102   3.160
65356W        W32139  44.347  43.348  10.762
65357W        W32140  27.046  36.493   4.094
65358W        W32141  26.245  33.000   4.563
65359W        W32142   9.200  26.501   3.629
65360W        W32143   1.693  41.329  10.675
65361W        W32144   8.108  32.604   2.997
65362W        W32145   8.732   3.603   3.270
65363W        W32146   4.990   2.401   3.359
65364W        W32147  14.391   6.362  14.832
65365W        W32148   8.719  28.157   1.775
65366W        W32149   1.372  15.569   4.587
65367W        W32150  12.621  32.097  12.411
65368W        W32151  13.636   0.378  11.447
65369W        W32152  37.100  23.425   1.586
65370W        W32153   2.671  36.930   2.759
65371W        W32154   5.913  42.122   2.302
65372W        W32155  18.518  40.477   0.308
65373W        W32156  42.361   8.119  12.193
65374W        W32157  14.632  35.856   0.959
65375W        W32158  32.009   8.459  12.655
65376W        W32159   5.948  29.431  12.034
65377W        W32160  22.041  25.056   1.860
65378W        W32161  41.061  33.839  12.139
65379W        W32162  12.412  18.648   0.491
65380W        W32163  14.631  14.031   2.194
65381W        W32164  44.617  32.545   3.284
65382W        W32165  15.257  23.689  13.895
65383W        W32166  23.737  25.216   3.385
65384W        W32167  42.536  30.640   5.458
65385W        W32168  41.708  44.994   1.456
65386W        W32169   8.069   4.692   0.709
65387W        W32170  15.772  44.884   1.114
65388W        W32171  25.079  38.080  12.152
65389W        W32172  13.295  41.507  13.022
65390W        W32173  33.444   3.746  14.000
65391W        W32174  19.998  35.593  11.680
65392W        W32175  29.824  14.122   2.510
65393W        W32176  43.838  22.399   1.516
65394W        W32177  27.675   8.962   9.876
65395W        W32178  34.028  30.603  10.442
65396W        W32179  35.306  24.929   1.402
65397W        W32180  41.961  42.086   0.189
65398W        W32181  17.681  36.245   4.964
65399W        W32182  38.837  25.199  10.823
65400W        W32183   9.067  37.871  14.386
65401W        W32184  28.804   3.851   0.383
65402W        W32185  14.239  35.125  11.579
65403W        W32186  31.706  18.307   4.438
65404W        W32187  30.635  30.771  11.598
65405W        W32188   7.660  36.566   4.755
65406W        W32189  26.663  11.654   3.753
65407W        W32190  24.599   6.328   1.490
65408W        W32191  31.517   6.211   4.154
65409W        W32192  36.481  23.445  11.596
65410W        W32193  22.150  32.409  14.543
65411W        W32194  33.622  18.442   5.010
65412W        W32195  15.711  40.875  11.059
65413W        W32196   1.867  41.790  10.790
65414W        W32197  36.038  24.308  14.560
65415W        W32198  37.571  43.808  10.721
65416W        W32199  41.739   0.900   0.873
65417W        W32200  42.908  31.161   0.523
65418W        W32201  18.215  40.996  11.722
65419W        W32202  24.353  14.023  13.435
65420W        W32203  27.941  13.308   2.300
65421W        W32204   6.935  39.008   3.398
65422W        W32205  17.349  18.037  12.273
65423W        W32206   8.933   0.969  12.340
65424W        W32207  16.082  40.325  10.241
65425W        W32208   6.944  38.035   0.421
65426W        W32209  20.182   6.352  11.529
65427W        W32210  26.584  43.970   4.022
65428W        W32211  16.057   9.588  13.745
65429W        W32212  11.464  35.768  14.355
65430W        W32213  41.355  30.868  14.058
65431W        W32214  37.315  12.248  10.786
65432W        W32215  13.084  38.910  14.026
65433W        W32216  39.865  41.250  12.643
65434W        W32217  31.167  43.871  12.827
65435W        W32218  30.530  25.722   0.790
65436W        W32219  37.424  30.751  13.158
65437W        W32220  32.033  32.124   5.039
65438W        W32221   0.235   9.859  14.871
65439W        W32222   4.510  23.046  11.124
65440W        W32223  13.031  15.900   1.141
65441W        W32224   1.475  18.708   3.810
65442W        W32225  42.827  28.176   0.415
65443W        W32226  37.873  32.573   2.295
65444W        W32227  34.350  11.828   1.861
65445W        W32228  25.213  44.998   1.786
65446W        W32229  38.824  10.848   1.975
65447W        W32230  31.398  16.726  11.584
65448W        W32231  13.455   7.276   5.100
65449W        W32232   7.339  24.606  11.954
65450W        W32233  12.695   6.722  14.263
65451W        W32234  34.979  27.779  13.060
65452W        W32235   0.416  17.878   4.379
65453W        W32236  30.916  20.085   5.430
65454W        W32237  28.035  33.484  14.173
65455W        W32238  13.676   0.063  13.531
65456W        W32239  41.979  12.825   4.731
65457W        W32240  44.388  13.764  11.605
65458W        W32241  31.704  34.491   2.571
65459W        W32242   0.581  42.903   1.692
65460W        W32243   7.165  16.630   2.604
65461W        W32244  12.784   7.610   1.349
65462W        W32245   7.318  22.641   0.469
65463W        W32246  16.623  39.877   5.105
65464W        W32247  35.513  31.842  13.170
65465W        W32248   6.251  13.090  10.400
65466W        W32249  18.823   5.095   0.021
65467W        W32250   9.991  24.488   2.825
65468W        W32251  18.120   6.339  11.141
65469W        W32252  23.102  22.509  13.028
65470W        W32253  13.814   9.760   4.394
65471W        W32254  18.864  21.199   0.365
65472W        W32255  28.827  41.675   3.429
65473W        W32256   3.391  17.292   2.519
65474W        W32257  36.617  44.306  13.471
65475W        W32258  12.548   4.589   0.441
65476W        W32259  12.819  33.527   3.018
65477W        W32260  20.891  32.843   4.117
65478W        W32261  31.088  14.129   5.114
65479W        W32262  13.989  43.513  10.581
65480W        W32263  12.344  31.372  11.090
65481W        W32264  40.988  15.006  12.628
65482W        W32265  15.774  29.269  10.742
65483W        W32266  25.347  19.465  12.490
65484W        W32267  36.468  44.471   2.106
65485W        W32268  30.654  17.565  10.645
65486W        W32269  26.524  27.781   1.513
65487W        W32270  29.409  27.549   4.395
65488W        W32271  30.959  11.448  13.936
65489W        W32272   4.038  21.108   3.747
65490W        W32273  33.566  13.780   1.000
65491W        W32274   6.458   0.254  11.369
65492W        W32275   8.799   6.857   1.752
65493W        W32276   9.396   4.744   1.263
65494W        W32277  15.637  41.342   3.684
65495W        W32278  41.777  39.571   3.005
65496W        W32279  39.657  12.060   2.899
65497W        W32280   2.064  44.422   2.667
65498W        W32281   9.740  44.383  13.836
65499W        W32282  14.904  28.954  14.536
65500W        W32283  36.698   7.300  11.588
65501W        W32284   9.398  26.426  14.381
65502W        W32285   6.217  24.729   0.357
65503W        W32286   4.383  44.989  14.265
65504W        W32287  16.612  22.063   4.121
65505W        W32288  44.567  30.989   1.985
65506W        W32289  28.570  21.284  12.578
65507W        W32290  44.235  43.001   2.907
65508W        W32291  44.841  38.398  14.543
65509W        W32292  27.327  18.942   2.592
65510W        W32293  42.314  44.925  14.044
65511W        W32294  13.040   5.623   1.114
65512W        W32295  16.195  15.079  14.436
65513W        W32296   0.725  31.413  14.631
65514W        W32297  19.626  36.648   4.981
65515W        W32298  22.253   6.549  10.452
65516W        W32299  11.846   5.829  11.137
65517W        W32300  13.799  20.283   0.755
65518W        W32301  28.488  40.836  14.542
65519W        W32302  43.827   2.423   0.380
65520W        W32303   4.351  20.538   4.439
65521W        W32304  31.188  16.192  11.201
65522W        W32305  16.101  13.919   1.228
65523W        W32306  34.791  28.380   2.217
65524W        W32307   4.386  41.428  12.020
65525W        W32308  41.288   4.908  12.427
65526W        W32309   7.882  20.627  14.006
65527W        W32310  29.023  24.200  11.054
65528W        W32311  10.860  14.712   4.092
65529W        W32312  35.869  17.672   0.197
65530W        W32313   1.469   2.530   1.788
65531W        W32314  28.954  30.902   2.922
65532W        W32315  17.630  32.490   2.857
65533W        W32316  20.978  10.734   3.763
65534W        W32317  16.233  42.383  14.783
65535W        W32318  39.298   1.891   2.783
65536W        W32319  32.712  25.936  11.677
65537W        W32320   8.948  30.682  10.625
65538W        W32321  39.369  29.171  14.420
65539W        W32322  18.993  23.242  10.642
65540W        W32323  25.173  12.344  13.852
65541W        W32324  44.671  23.706  11.719
65542W        W32325  14.886   3.180   4.695
65543W        W32326  38.601  22.691   4.282
65544W        W32327  41.563  38.335  11.253
65545W        W32328  36.110  37.826  10.570
65546W        W32329  10.590  29.187  14.995
65547W        W32330   9.676  19.603   2.765
65548W        W32331   7.790  16.196   3.078
65549W        W32332  37.087   1.340  12.988
65550W        W32333  25.661  19.179  14.952
65551W        W32334   3.458   2.687   2.785
65552W        W32335   7.648  18.577  13.589
65553W        W32336  13.344  25.092  10.254
65554W        W32337  12.062  24.777   0.849
65555W        W32338  16.138  11.856  12.986
65556W        W32339  28.444  10.777   0.347
65557W        W32340   5.294  35.162   2.464
65558W        W32341  13.884  38.520  13.922
65559W        W32342   8.172  40.859   2.126
65560W        W32343   5.215   7.782   2.928
65561W        W32344  15.024  24.146  14.559
65562W        W32345  33.062  29.207  11.041
65563W        W32346  41.438  37.271  14.265
65564W        W32347  23.668  38.800  13.823
65565W        W32348   7.879   9.408   9.826
65566W        W32349  38.877  42.292  13.450
65567W        W32350  26.136   5.896  13.933
65568W        W32351  34.569  18.420   2.822
65569W        W32352  33.507  26.674   2.654
65570W        W32353   6.068  33.382   2.824
65571W        W32354  23.717  31.629   4.696
65572W        W32355  35.895  28.561   2.313
65573W        W32356  35.771  23.348   5.139
65574W        W32357  12.081  10.090  14.315
65575W        W32358   8.280  26.180  13.838
65576W        W32359   4.826  16.210  10.542
65577W        W32360   8.520  39.416   4.620
65578W        W32361  18.750   3.303  11.540
65579W        W32362  40.999  40.359   4.300
65580W        W32363   0.783  31.666   0.550
65581W        W32364  35.113   1.425  14.872
65582W        W32365   9.885  41.902   2.858
65583W        W32366  38.796  28.381   0.822
65584W        W32367  17.079  38.440  14.962
65585W        W32368  30.626   0.995  14.173
65586W        W32369  28.179  35.256  11.590
65587W        W32370  24.469  10.359   3.650
65588W        W32371  27.009   7.281  12.308
65589W        W32372   8.858   2.852  13.334
65590W        W32373  37.730  44.032   1.413
65591W        W32374  36.308   6.153   3.360
65592W        W32375  34.951  23.912  12.547
65593W        W32376  44.385  34.336  11.745
65594W        W32377  19.283  28.179   4.081
65595W        W32378  35.325  21.445   4.152
65596W        W32379  40.358  25.379   1.179
65597W        W32380  26.380  32.370  14.925
65598W        W32381  44.239   8.464   0.292
65599W        W32382  18.161  31.750   3.718
65600W        W32383   8.076   8.880   3.289
65601W        W32384  27.661  16.594   4.890
65602W        W32385  12.337  25.056   4.587
65603W        W32386   4.883  43.796   5.219
65604W        W32387  14.591  32.975   3.725
65605W        W32388  16.103  41.493   2.918
65606W        W32389  23.947  21.641   1.329
65607W        W32390  37.578  44.461  13.975
65608W        W32391   6.315   1.330  12.349
65609W        W32392   5.758  38.326   4.375
65610W        W32393  38.888  31.387   3.737
65611W        W32394  28.164  16.640  14.259
65612W        W32395  43.423  34.100  10.598
65613W        W32396  13.989  18.528  14.018
65614W        W32397  30.121   5.483  13.070
65615W        W32398  39.256   8.160  13.255
65616W        W32399   7.979  44.717   3.673
65617W        W32400  41.474  27.481  13.569
65618W        W32401  11.862   5.261  13.405
65619W        W32402  19.229  30.836  14.952
65620W        W32403   7.598  20.798   2.859
65621W        W32404  10.618  34.536   2.642
65622W        W32405  27.642  17.158  13.912
65623W        W32406  16.372  16.494   0.688
65624W        W32407  19.025  36.073   0.448
65625W        W32408  32.401   4.190   1.501
65626W        W32409   0.884   6.899  11.147
65627W        W32410  13.794  32.559  11.003
65628W        W32411  29.725  30.144   2.053
65629W        W32412  26.733   5.447   3.751
65630W        W32413  11.580   0.696  13.375
65631W        W32414  16.367  40.339  13.048
65632W        W32415  32.205   9.498  12.676
65633W        W32416  25.298   0.918   1.725
65634W        W32417  18.892  18.783  14.492
65635W        W32418  30.212  39.535  13.316
65636W        W32419  14.236   2.782  10.914
65637W        W32420  31.217  30.940  14.148
65638W        W32421  22.911  34.385   2.780
65639W        W32422  44.490  32.015   2.601
65640W        W32423   2.254  18.738  13.857
65641W        W32424  12.049  11.537  12.951
65642W        W32425  25.741  21.297   2.747
65643W        W32426   9.365   7.607   0.332
65644W        W32427  11.365  19.277   0.056
65645W        W32428   6.807   7.393  11.624
65646W        W32429  36.949  42.347  14.977
65647W        W32430   2.266  13.917  12.003
65648W        W32431  29.423  12.925  14.828
65649W        W32432  33.567   6.772   0.873
65650W        W32433  24.593  44.597   1.769
65651W        W32434  36.024   1.326  12.688
65652W        W32435  24.592   0.832  12.933
65653W        W32436  19.636  33.072  11.547
65654W        W32437  36.847  24.974   4.119
65655W        W32438  30.913  38.730   0.932
65656W        W32439   3.000  20.763  11.521
65657W        W32440   8.688  26.124  10.702
65658W        W32441  13.308  24.416   5.035
65659W        W32442  21.499  11.216   3.906
65660W        W32443  25.237  35.639  10.771
65661W        W32444   0.468  37.199  12.083
65662W        W32445  25.141   1.555  13.053
65663W        W32446  20.533  17.738  10.636
65664W        W32447   9.928  10.972  14.805
65665W        W32448  39.019  10.339  14.394
65666W        W32449  12.804   4.741   0.897
65667W        W32450  32.519   5.332  14.273
65668W        W32451  29.126  25.059   2.744
65669W        W32452   3.283  24.525   3.102
65670W        W32453   7.162  21.668   4.314
65671W        W32454  32.075  40.796  10.620
65672W        W32455  22.543  12.084   0.648
65673W        W32456  34.727  12.188   4.721
65674W        W32457  11.101  40.286   2.645
65675W        W32458  12.156  23.285   3.571
65676W        W32459  41.584  24.653  12.132
65677W        W32460  43.027  31.094   3.365
65678W        W32461  21.705  19.188  11.619
65679W        W32462  32.469  42.458   0.349
65680W        W32463  41.181   0.179   0.518
65681W        W32464  35.847  27.570  11.224
65682W        W32465  40.501  19.755  12.312
65683W        W32466  31.676  24.538   1.334
65684W        W32467  39.521  24.501  13.036
65685W        W32468   2.293  23.118  14.100
65686W        W32469   0.252  31.970  13.102
65687W        W32470  21.206  16.442  12.182
65688W        W32471  29.614  42.450  14.708
65689W        W32472  25.329  27.451   5.122
65690W        W32473  22.296   2.715   0.746
65691W        W32474   2.746   2.531  12.092
65692W        W32475  29.673  11.662  13.318
65693W        W32476  16.887  34.622   9.868
65694W        W32477  38.576  28.549   4.664
65695W        W32478  34.480  28.384   2.663
65696W        W32479   7.208  18.121   3.861
65697W        W32480  29.680  16.779   1.831
65698W        W32481  12.182  34.150   3.328
65699W        W32482  15.991   7.766   2.922
65700W        W32483   0.313  16.606   2.848
65701W        W32484  37.386   8.741  12.981
65702W        W32485  29.439  43.787   1.722
65703W        W32486  37.135   9.194  12.910
65704W        W32487  15.161  40.076  11.681
65705W        W32488   8.745   5.136   1.826
65706W        W32489  43.234  37.848  13.183
65707W        W32490  23.802   4.345   3.678
65708W        W32491  16.972  27.860   3.410
65709W        W32492  28.681   5.777  12.882
65710W        W32493   9.990  21.674   2.263
65711W        W32494  19.118  36.497   4.310
65712W        W32495  25.305  16.410   2.827
65713W        W32496  24.683  29.879  11.156
65714W        W32497  19.371  19.660   3.213
65715W        W32498   4.531  19.341  13.364
65716W        W32499  40.347  16.054   3.279
65717W        W32500   0.377  40.247  12.344
65718W        W32501  24.691  42.512  14.988
65719W        W32502  43.742   6.226   2.754
65720W        W32503  19.108  14.297   1.976
65721W        W32504  33.957  33.148   2.827
65722W        W32505   1.047  30.146  11.976
65723W        W32506  39.959   6.621  11.411
65724W        W32507  14.090  23.002   0.681
65725W        W32508  27.196  41.002  12.131
65726W        W32509   6.620  27.458   1.322
65727W        W32510  17.136  30.641   4.970
65728W        W32511   2.526  42.307  14.197
65729W        W32512  11.605  41.403  12.424
65730W        W32513  28.657  29.002   0.908
65731W        W32514  22.474  14.782  12.980
65732W        W32515  29.754  10.090  13.581
65733W        W32516  43.861   2.897  10.702
65734W        W32517  29.416   4.267   1.449
65735W        W32518  35.558  44.047  11.062
65736W        W32519  17.001  37.460   2.853
65737W        W32520  24.117  43.924   4.627
65738W        W32521  43.259  38.020  14.513
65739W        W32522   8.533  24.451   0.792
65740W        W32523  44.841   2.708   2.022
65741W        W32524   1.901   5.864   2.280
65742W        W32525   8.455  43.918  11.922
65743W        W32526  42.530  17.466   5.187
65744W        W32527   0.877  27.191   2.826
65745W        W32528  27.007   2.958   1.729
65746W        W32529   3.818   5.937  12.433
65747W        W32530  25.476  20.774   1.388
65748W        W32531  20.269   4.257  12.089
65749W        W32532  32.640  37.662   3.517
65750W        W32533   6.846  20.442   1.801
65751W        W32534  28.658  37.445   2.755
65752W        W32535  20.577  44.422  13.135
65753W        W32536  22.735  40.384  10.390
65754W        W32537  15.513   3.407  12.682
65755W        W32538   5.774  19.101   0.664
65756W        W32539  25.498  43.992   1.751
65757W        W32540  16.617  27.685   3.101
65758W        W32541  13.810  13.859   1.837
65759W        W32542  13.343  17.757   1.455
65760W        W32543  42.436   1.245   3.711
65761W        W32544  26.251  16.071   2.666
65762W        W32545  26.423  41.248   3.813
65763W        W32546  31.098  13.115   4.185
65764W        W32547   1.486   4.508  14.264
65765W        W32548  31.548  27.174   4.632
65766W        W32549   0.370  28.247   1.212
65767W        W32550  38.926  13.944  11.154
65768W        W32551  27.013  14.353   2.188
65769W        W32552  41.055   9.920  14.392
65770W        W32553  41.911  17.252   1.849
65771W        W32554  30.903  23.706   1.373
65772W        W32555  16.078   4.783  11.024
65773W        W32556   9.842  13.790   0.864
65774W        W32557  18.186   1.319  12.598
65775W        W32558  10.069   7.758   2.647
65776W        W32559  15.733  15.347  14.484
65777W        W32560  27.233  27.207   2.296
65778W        W32561  26.989  11.703   2.520
65779W        W32562  24.703  33.976  12.047
65780W        W32563  43.251  12.135   3.778
65781W        W32564  27.999  37.174  12.490
65782W        W32565  11.791  25.113  11.115
65783W        W32566   3.010   8.924   3.867
65784W        W32567   6.207  38.998   4.562
65785W        W32568   6.418  39.977   0.339
65786W        W32569  20.251  13.991   0.300
65787W        W32570  23.646  35.295   0.696
65788W        W32571  19.991  42.541   5.025
65789W        W32572  31.551   4.685  12.925
65790W        W32573  33.017   0.413  10.657
65791W        W32574   4.184  33.978  12.942
65792W        W32575  44.800  31.475  14.489
65793W        W32576   2.730  33.016  12.108
65794W        W32577  27.390  17.604   3.378
65795W        W32578  35.938  41.117   3.390
65796W        W32579   8.880  36.372  13.021
65797W        W32580  28.648  22.127  11.729
65798W        W32581  21.690  15.608   1.856
65799W        W32582   4.896   8.352   4.483
65800W        W32583  38.612  23.458   2.708
65801W        W32584  39.591  20.546   1.550
65802W        W32585  19.181  28.097   0.263
65803W        W32586  29.221  18.773  14.461
65804W        W32587  15.582  26.923   2.741
65805W        W32588  27.515  10.806  10.399
65806W        W32589  22.271   6.335  11.400
65807W        W32590  38.518  32.504   3.647
65808W        W32591  23.126  11.513  12.998
65809W        W32592   0.862  14.710  12.683
65810W        W32593  13.560  41.935  14.400
65811W        W32594  25.744   6.814  14.440
65812W        W32595  14.085  20.897   1.999
65813W        W32596   6.029  17.106  13.920
65814W        W32597  29.992  17.276  12.762
65815W        W32598  40.822  35.091   2.168
65816W        W32599  43.911  31.380   0.440
65817W        W32600  40.288  16.836   3.703
65818W        W32601  17.301  23.110   0.496
65819W        W32602  28.609   6.562  11.732
65820W        W32603  27.254  28.627   3.709
65821W        W32604  18.189   4.523   0.236
65822W        W32605  35.851  22.745  13.569
65823W        W32606  19.248   3.811   0.394
65824W        W32607   5.329  39.362  10.527
65825W        W32608  37.862  34.879   3.734
65826W        W32609  23.445  10.896  13.968
65827W        W32610  44.089  21.324  12.060
65828W        W32611   9.369  30.019   2.309
65829W        W32612  28.672  38.428   1.237
65830W        W32613  18.453   7.732  11.617
65831W        W32614  18.305   7.723  12.561
65832W        W32615  20.722  13.738   0.705
65833W        W32616  19.152  35.356   2.135
65834W        W32617   9.789   5.884  14.267
65835W        W32618  23.117  31.239   1.873
65836W        W32619   7.420  26.090  13.332
65837W        W32620   8.938   1.741   3.434
65838W        W32621  44.417   7.959   3.134
65839W        W32622  13.145  27.102   4.073
65840W        W32623  39.995  24.511  14.538
65841W        W32624  29.935  13.371  12.941
65842W        W32625   5.693  28.957  12.067
65843W        W32626  27.009  31.084   2.599
65844W        W32627  23.235  13.770  10.752
65845W        W32628  31.600  13.513  12.099
65846W        W32629  17.661  44.791  10.620
65847W        W32630   5.706  32.892  13.964
65848W        W32631  36.822  23.866   3.181
65849W        W32632  22.015   6.769  10.024
65850W        W32633  28.232  26.081  10.725
65851W        W32634   1.367  22.688   0.470
65852W        W32635  20.095  22.784   0.856
65853W        W32636  34.959  37.511   3.266
65854W        W32637  37.512  23.274  12.881
65855W        W32638  30.943  42.883  10.716
65856W        W32639  11.654  33.117  11.011
65857W        W32640   1.332  26.801   2.713
65858W        W32641   0.395   8.955  11.971
65859W        W32642  20.127  25.230  14.020
65860W        W32643  11.868   5.366  10.779
65861W        W32644  24.774  13.787  10.808
65862W        W32645  15.547  31.010   1.573
65863W        W32646   7.460  36.933   4.061
65864W        W32647  12.327  40.050   4.209
65865W        W32648  20.456   1.198  11.606
65866W        W32649  23.149  36.631  12.705
65867W        W32650   5.488  33.592  14.139
65868W        W32651  39.639  14.348  13.873
65869W        W32652   3.470   1.900   4.781
65870W        W32653  29.416   0.915  11.141
65871W        W32654  21.868  14.787   3.353
65872W        W32655  42.509  14.044  10.835
65873W        W32656   3.718  38.288  14.370
65874W        W32657  11.298  33.649  11.943
65875W        W32658  12.880  16.398  14.074
65876W        W32659  36.696   6.497  13.847
65877W        W32660   8.878  44.852   1.034
65878W        W32661  12.140  42.726  13.817
65879W        W32662  12.444  40.481   0.067
65880W        W32663  14.494  26.100  11.214
65881W        W32664  12.098   9.423   2.348
65882W        W32665  33.344  33.915   3.688
65883W        W32666  22.590  35.432  14.421
65884W        W32667   6.833   9.420   0.814
65885W        W32668  13.344  28.495   0.839
65886W        W32669  10.368  22.636  14.782
65887W        W32670  16.524  25.074   4.412
65888W        W32671  44.815  15.050   1.806
65889W        W32672   0.496  10.215  11.890
65890W        W32673  16.120  42.372  12.653
65891W        W32674   3.391  15.091  12.992
65892W        W32675  25.098  44.921  14.786
65893W        W32676  44.429   4.188  11.614
65894W        W32677  16.156  36.249   3.220
65895W        W32678   1.711  30.001  13.890
65896W        W32679  31.605   7.173  12.504
65897W        W32680  38.490   1.831   2.134
65898W        W32681  12.759  40.485   4.164
65899W        W32682  21.834  37.802  12.838
65900W        W32683  18.042  27.469  11.975
65901W        W32684  33.584   2.560   0.854
65902W        W32685   4.780  32.007   2.247
65903W        W32686   3.844  39.022  10.322
65904W        W32687  44.325  23.110  13.946
65905W        W32688  23.653  44.497  11.372
65906W        W32689   1.676   5.252   3.603
65907W        W32690   2.169  22.547  11.162
65908W        W32691  36.423   8.861  11.169
65909W        W32692   4.399  16.865   0.302
65910W        W32693  31.160  16.830   2.923
65911W        W32694  38.234  17.250  14.042
65912W        W32695  34.932   6.381  14.289
65913W        W32696  16.304  24.661  14.854
65914W        W32697  24.058  40.903  12.594
65915W        W32698  16.765  14.072   4.462
65916W        W32699  16.539  31.101   1.308
65917W        W32700  40.209   9.921  12.504
65918W        W32701  18.666  22.436  11.594
65919W        W32702  33.683  39.293  10.642
65920W        W32703  32.936  28.494  14.028
65921W        W32704  32.862   5.409   1.182
65922W        W32705  30.665   0.368   0.843
65923W        W32706  27.103   8.790  12.527
65924W        W32707  35.347  11.066  13.686
65925W        W32708   7.338  31.050   3.143
65926W        W32709  42.405  43.751  14.450
65927W        W32710  44.393  17.081   2.812
65928W        W32711  24.594   5.962   0.214
65929W        W32712  24.588  24.465  12.657
65930W        W32713  10.835  15.950  13.759
65931W        W32714   5.167  33.283  14.401
65932W        W32715  15.042   3.438  12.453
65933W        W32716   5.272  34.920  12.502
65934W        W32717   6.894  12.825   0.364
65935W        W32718  29.624   7.745   3.265
65936W        W32719  43.892  36.041   1.311
65937W        W32720  23.150   1.522   9.767
65938W        W32721  44.388  34.962   2.316
65939W        W32722  22.292  22.226   2.319
65940W        W32723  20.258  17.835  13.620
65941W        W32724   4.081  23.553   2.910
65942W        W32725  38.408  26.739   1.495
65943W        W32726  11.368  15.357  14.575
65944W        W32727  14.748  41.871  12.049
65945W        W32728  13.268  17.613  10.626
65946W        W32729   7.278   0.309  11.762
65947W        W32730  37.863  21.099   3.849
65948W        W32731   2.532   7.731   1.828
65949W        W32732  22.153   6.157  14.560
65950W        W32733  28.522  11.732   4.124
65951W        W32734   8.648  15.821   3.276
65952W        W32735   4.690  18.881  11.155
65953W        W32736  10.088  43.490  13.478
65954W        W32737  22.049  29.440   0.734
65955W        W32738  10.144   9.496   4.160
65956W        W32739  20.709   6.425  14.361
65957W        W32740  28.276  38.079  10.416
65958W        W32741  15.196  34.501  11.091
65959W        W32742  33.123  22.423  14.417
65960W        W32743  31.661  38.021  12.957
65961W        W32744  37.508   1.853  14.975
65962W        W32745  44.215  21.782   3.527
65963W        W32746  21.964  14.906  14.438
65964W        W32747  23.897  22.353   0.016
65965W        W32748  30.921   8.410  14.439
65966W        W32749  23.674   5.734  12.221
65967W        W32750  12.259  41.541   2.211
65968W        W32751  21.274  19.048   0.368
65969W        W32752  18.739  28.350   0.057
65970W        W32753  16.893   3.802   3.168
65971W        W32754  31.943  24.633  12.536
65972W        W32755  34.531  28.766  11.982
65973W        W32756  10.875  36.981  14.803
65974W        W32757  38.280  36.099   3.947
65975W        W32758  39.408  27.441   1.168
65976W        W32759  44.701  24.642  14.401
65977W        W32760  32.458  11.276  13.944
65978W        W32761  14.072  37.957   0.953
65979W        W32762  23.599  37.441  10.844
65980W        W32763  24.149   9.269  12.580
65981W        W32764   7.289  14.565   2.911
65982W        W32765  15.313   9.280   2.697
65983W        W32766   8.610  16.567   0.285
65984W        W32767   3.504  17.274  13.973
65985W        W32768  39.478  22.923  10.916
65986W        W32769   1.999  10.843   1.382
65987W        W32770  33.069  16.569  13.304
65988W        W32771  13.381   5.368  12.528
65989W        W32772  17.595   0.636   0.383
65990W        W32773   6.459  13.888  12.981
65991W        W32774  41.876   2.479   1.741
65992W        W32775   7.695  22.080  14.412
65993W        W32776  19.828  19.886   3.215
65994W        W32777  21.974  11.892  12.749
65995W        W32778   2.285   0.294   4.664
65996W        W32779  14.304  16.979   1.099
65997W        W32780  34.991   1.672  12.501
65998W        W32781   6.311  16.041   0.849
65999W        W32782   7.779   7.997   3.732
66000W        W32783  21.677  32.845  10.364
66001W        W32784   9.798  13.193  12.101
66002W        W32785  41.926  31.840   1.977
66003W        W32786   5.629  16.124   0.366
66004W        W32787   0.941  10.749  12.700
66005W        W32788   9.271  18.052  11.030
66006W        W32789  13.154  29.757   1.529
66007W        W32790  42.886  11.268   3.967
66008W        W32791  36.294  34.028   1.962
66009W        W32792  35.544  27.796  13.393
66010W        W32793  15.096   2.474   0.621
66011W        W32794  32.306  23.206  11.917
66012W        W32795  26.740  11.136   3.754
66013W        W32796  37.442   5.707   0.751
66014W        W32797  20.532  40.869  13.334
66015W        W32798  18.816  24.511   3.383
66016W        W32799  34.795  13.571   3.835
66017W        W32800  35.344  15.292  14.903
66018W        W32801  34.024   2.180  10.506
66019W        W32802  27.456  41.989   1.394
66020W        W32803   7.328   1.527   2.947
66021W        W32804  17.290  13.365   4.069
66022W        W32805   7.970  11.664   1.071
66023W        W32806  18.393   0.747   4.311
66024W        W32807  11.777   5.263  11.620
66025W        W32808  33.865  28.912  13.965
66026W        W32809   9.317   0.001   0.793
66027W        W32810  27.661   7.706   3.547
66028W        W32811  14.584  36.137   1.411
66029W        W32812  38.023  40.575  14.720
66030W        W32813  32.997  23.167  14.991
66031W        W32814  10.737   3.792   1.403
66032W        W32815  20.223  38.747   4.234
66033W        W32816  30.448  37.656  11.586
66034W        W32817   4.188  23.851  14.818
66035W        W32818  21.158   3.766   4.038
66036W        W32819   6.426  40.518   2.290
66037W        W32820  15.382  23.542   2.587
66038W        W32821  41.528  28.065  14.836
66039W        W32822  41.938  36.656  10.979
66040W        W32823  36.518  37.294   4.571
66041W        W32824   6.318   3.357   0.835
66042W        W32825  38.344  20.186  13.749
66043W        W32826  37.323  19.770  11.929
66044W        W32827  10.335  27.219   1.398
66045W        W32828   9.031   5.836  12.471
66046W        W32829   3.815   6.648   1.361
66047W        W32830  42.441  25.004   0.014
66048W        W32831  43.158  22.557  14.531
66049W        W32832  35.484  41.409   1.166
66050W        W32833  39.511  19.216   1.835
66051W        W32834  28.086  18.844  13.554
66052W        W32835  22.746   8.204   0.924
66053W        W32836  44.930  30.043   3.461
66054W        W32837  13.102   1.015   0.215
66055W        W32838  32.129  22.304   3.659
66056W        W32839  41.214  10.795   0.400
66057W        W32840  29.923  16.942  13.155
66058W        W32841  16.749  26.802  14.489
66059W        W32842   1.086  36.538  14.748
66060W        W32843  21.344  38.147   2.668
66061W        W32844  11.161  18.800  14.046
66062W        W32845  15.103  33.513   3.294
66063W        W32846   2.189  31.110   1.316
66064W        W32847  16.211  12.638  14.999
66065W        W32848  17.201   5.779  13.295
66066W        W32849   2.548   7.212   1.727
66067W        W32850   6.013  44.998   2.222
66068W        W32851  40.461  39.315  14.960
66069W        W32852  16.341  21.851   2.830
66070W        W32853   5.133  38.821   2.490
66071W        W32854  25.200  30.372  14.970
66072W        W32855   0.824  27.598   0.016
66073W        W32856  41.681  36.311  14.059
66074W        W32857  24.605  24.358   3.002
66075W        W32858  14.569  19.653  12.864
66076W        W32859  43.001  27.918   2.710
66077W        W32860   3.230  34.553  14.296
66078W        W32861  41.577  23.743   0.417
66079W        W32862  27.080  21.794   1.695
66080W        W32863  29.624  27.553   0.355
66081W        W32864  31.215  29.268   4.490
66082W        W32865  39.373   6.712   2.087
66083W        W32866  14.070  26.531   0.465
66084W        W32867  11.048  37.922   4.442
66085W        W32868  18.399   3.206   4.004
66086W        W32869  22.591   3.023   0.433
66087W        W32870  39.564  41.453  14.412
66088W        W32871  25.510  11.588  12.573
66089W        W32872  27.415  12.305   2.806
66090W        W32873   7.921  12.611   3.207
66091W        W32874  10.576  13.257   3.579
66092W        W32875  30.203  31.005   2.733
66093W        W32876   5.133  35.094  11.127
66094W        W32877   0.772  15.651  11.117
66095W        W32878  27.549  25.501  13.573
66096W        W32879  20.797  27.230  14.426
66097W        W32880  11.719  30.790  14.046
66098W        W32881  44.570  41.556  11.589
66099W        W32882  29.965  31.224   1.425
66100W        W32883  13.811   6.806   3.253
66101W        W32884  40.507  30.910   1.139
66102W        W32885  37.999  19.439  10.663
66103W        W32886   5.570   5.094  11.906
66104W        W32887  14.905  29.913  13.569
66105W        W32888  16.200  38.940  10.903
66106W        W32889  25.052  30.447   0.939
66107W        W32890   6.128  43.376  12.469
66108W        W32891   6.773  36.141  12.435
66109W        W32892   8.128  21.353   1.840
66110W        W32893  36.354  24.621  14.006
66111W        W32894   1.247  28.400  12.516
66112W        W32895  43.393  42.496   3.168
66113W        W32896  39.954   2.430  10.804
66114W        W32897  10.386  27.573   3.731
66115W        W32898  39.092  45.000   3.374
66116W        W32899   6.308  10.355  14.299
66117W        W32900  20.679  32.004  11.607
66118W        W32901  24.207  42.028   3.328
66119W        W32902   8.624  32.639   3.192
66120W        W32903  40.843  19.294   3.572
66121W        W32904  44.950  20.245   3.790
66122W        W32905  37.328   5.396   4.073
66123W        W32906  35.592  25.404  14.948
66124W        W32907   5.372  39.095  12.740
66125W        W32908  41.821  34.951   2.898
66126W        W32909   8.341  13.717  11.980
66127W        W32910  39.026  17.289  12.167
66128W        W32911   0.960  16.134   2.358
66129W        W32912  33.361  40.849   4.897
66130W        W32913  14.383   3.045   4.703
66131W        W32914  35.612  37.949   3.600
66132W        W32915   3.127   9.651  11.072
66133W        W32916  29.239   4.774  12.092
66134W        W32917   2.720   2.560  14.389
66135W        W32918  38.350   0.988   1.804
66136W        W32919  14.793  18.590   0.152
66137W        W32920  28.629  34.356  10.613
66138W        W32921  27.156   1.520   1.813
66139W        W32922  27.567  17.127   3.240
66140W        W32923  10.238  25.071  13.791
66141W        W32924  34.604  38.262  11.125
66142W        W32925  20.826  19.715   1.825
66143W        W32926  24.971  23.923  10.262
66144W        W32927   1.483   9.721   0.905
66145W        W32928  23.425  29.047   4.148
66146W        W32929  25.418  29.198   1.020
66147W        W32930   7.324  25.027  11.570
66148W        W32931  16.266  32.864   0.846
66149W        W32932   5.869  17.566  10.628
66150W        W32933   2.277  37.060   0.336
66151W        W32934   2.102  29.914   2.723
66152W        W32935  35.576  22.696   0.828
66153W        W32936   1.725   7.382  10.904
66154W        W32937  11.539  26.016  11.902
66155W        W32938   9.948  33.565  12.868
66156W        W32939  28.290  34.723  14.582
66157W        W32940   6.475  38.805   4.162
66158W        W32941  20.049   9.287  14.395
66159W        W32942   1.603  13.649  14.345
66160W        W32943  13.117  25.596  12.565
66161W        W32944  30.665  34.517  14.515
66162W        W32945  16.619  40.049   4.117
66163W        W32946  25.304   3.736   3.286
66164W        W32947  11.781  26.704  12.432
66165W        W32948  31.589  28.263   1.924
66166W        W32949   5.725  12.056  11.114
66167W        W32950  14.583  34.923   3.065
66168W        W32951  34.088  17.028  12.102
66169W        W32952   1.417  15.346   2.353
66170W        W32953   8.168  16.100   0.870
66171W        W32954  26.726  23.737  12.424
66172W        W32955  18.803  44.404  14.914
66173W        W32956   0.373  20.432  10.806
66174W        W32957  27.071  18.800   3.103
66175W        W32958  26.178  36.642  13.382
66176W        W32959  22.634  44.775   2.350
66177W        W32960  31.971  42.310   5.026
66178W        W32961   9.001  24.348   2.674
66179W        W32962  39.422   0.390   3.159
66180W        W32963  16.692  36.469   3.603
66181W        W32964  23.225  30.125   2.752
66182W        W32965  41.877  36.557  12.400
66183W        W32966   0.778   0.378   1.398
66184W        W32967  22.690  11.876   2.631
66185W        W32968  12.249  27.625   3.219
66186W        W32969  22.466  13.532   4.135
66187W        W32970  25.472  29.876  10.756
66188W        W32971  23.476  34.283  12.577
66189W        W32972  43.142  21.703   2.308
66190W        W32973  21.840   8.680  11.174
66191W        W32974  33.425  26.713  11.611
66192W        W32975  13.123  13.098  14.959
66193W        W32976  39.438  25.302  13.332
66194W        W32977  36.059  23.535   2.598
66195W        W32978  42.978   5.099  13.155
66196W        W32979  23.248  36.921   3.117
66197W        W32980  20.051  30.651   4.068
66198W        W32981   5.621  27.770  14.009
66199W        W32982  14.957  22.498   4.344
66200W        W32983  15.717   1.711   0.791
66201W        W32984   4.054  15.605   4.257
66202W        W32985  43.386  16.042   4.296
66203W        W32986  24.041  28.000  11.494
66204W        W32987  27.235  31.736  14.554
66205W        W32988  29.901  27.890  14.034
66206W        W32989  29.981  22.990  12.274
66207W        W32990  42.984  16.400  13.057
66208W        W32991  24.156  42.468  10.717
66209W        W32992   0.224  17.087  10.595
66210W        W32993  17.337  28.993  11.706
66211W        W32994  22.503  22.867   3.677
66212W        W32995  22.775  32.643  12.927
66213W        W32996  42.697   2.271   2.566
66214W        W32997  16.353  26.058   4.240
66215W        W32998  32.556  29.588  13.713
66216W        W32999  28.024  17.071  13.018
66217W        W33000  16.399  19.120  12.133
66218W        W33001  23.567  33.923  13.412
66219W        W33002   3.003   5.864  14.847
66220W        W33003   2.411  40.125   1.205
66221W        W33004  13.311  34.975   1.254
66222W        W33005  10.297   0.988  13.112
66223W        W33006  18.497  37.455  13.345
66224W        W33007  28.137   7.457   4.453
66225W        W33008   5.259  42.516  10.859
66226W        W33009  27.197  34.555   2.015
66227W        W33010  24.290  20.798  13.047
66228W        W33011   1.926  22.528   4.271
66229W        W33012  29.032   6.417  11.502
66230W        W33013  37.881  24.501  13.005
66231W        W33014  42.499   4.871  11.045
66232W        W33015  27.643  35.331  12.434
66233W        W33016  13.059   4.502   1.695
66234W        W33017  33.778  36.286   4.996
66235W        W33018  12.709  20.873  13.707
66236W        W33019  26.968  39.188   5.160
66237W        W33020  36.883   1.280   0.902
66238W        W33021  14.906  34.952  12.502
66239W        W33022  27.154  17.105  10.246
66240W        W33023  23.674  14.111   4.218
66241W        W33024   4.723   2.430   0.481
66242W        W33025   7.385  36.326  13.844
66243W        W33026  19.699  33.637   4.545
66244W        W33027  24.925  21.066  13.470
66245W        W33028  28.477  33.533   4.269
66246W        W33029  29.974  21.190   4.941
66247W        W33030  14.424  41.787   4.733
66248W        W33031  13.645  28.058   1.988
66249W        W33032   3.781  42.473  12.807
66250W        W33033  21.136  28.510  11.503
66251W        W33034  24.678   3.904   1.606
66252W        W33035  37.954  35.802  13.181
66253W        W33036  24.193  13.070   2.279
66254W        W33037   4.200  31.960  11.113
66255W        W33038  28.550  13.883  14.359
66256W        W33039  41.462  15.204   3.620
66257W        W33040  27.140  27.690   2.138
66258W        W33041   1.773  11.631   3.486
66259W        W33042  33.916  30.163   1.116
66260W        W33043   3.340  27.615   1.830
66261W        W33044  28.758  40.566   4.146
66262W        W33045  41.996   7.827   2.997
66263W        W33046   8.370  29.008   0.694
66264W        W33047  23.626  36.341   0.804
66265W        W33048  11.402  30.066  11.954
66266W        W33049   0.032  33.103  11.432
66267W        W33050  18.534  40.468   5.188
66268W        W33051  22.222  19.013   4.698
66269W        W33052  20.613  35.702   3.348
66270W        W33053  27.307  15.123   1.444
66271W        W33054  12.948  10.267  14.186
66272W        W33055   2.741   1.967  11.193
66273W        W33056   2.561  40.360   3.243
66274W        W33057  32.268  18.563  14.326
66275W        W33058  21.476  14.412  14.981
66276W        W33059  41.708  20.597  10.592
66277W        W33060  44.469   0.554  14.673
66278W        W33061   9.298  15.773  12.731
66279W        W33062   1.318  15.176  14.565
66280W        W33063  36.738  18.274   3.127
66281W        W33064  24.214  16.681  13.523
66282W        W33065  34.993  21.461  10.772
66283W        W33066  23.978   6.795  14.983
66284W        W33067   7.927  13.591   1.219
66285W        W33068  30.886  27.020  12.848
66286W        W33069  39.116  11.755   2.206
66287W        W33070   1.804   4.727   1.202
66288W        W33071   0.723  29.274   2.662
66289W        W33072   9.564  44.071   0.809
66290W        W33073  27.073  27.644   3.797
66291W        W33074  21.122  38.588   2.555
66292W        W33075  32.436  15.124  14.518
66293W        W33076   6.054  28.886   4.853
66294W        W33077  40.742  30.513  12.451
66295W        W33078  30.373  27.954   4.051
66296W        W33079  14.549   7.823  10.464
66297W        W33080  33.499   9.483   4.309
66298W        W33081  18.531   9.013   3.190
66299W        W33082  36.953   8.919   2.738
66300W        W33083  25.325  22.176  12.198
66301W        W33084  25.965   1.199   0.763
66302W        W33085  33.242   1.699   3.578
66303W        W33086  15.247  28.440   4.887
66304W        W33087   0.128  43.216   2.321
66305W        W33088  16.692  30.120   0.394
66306W        W33089  41.230   2.114  13.755
66307W        W33090  38.463  28.099  11.581
66308W        W33091  38.141   4.265  11.540
66309W        W33092   9.755  32.587   0.228
66310W        W33093  44.257  42.672   1.436
66311W        W33094  43.708   6.414   3.678
66312W        W33095  25.698  26.569   5.100
66313W        W33096   4.528  14.643   1.700
66314W        W33097  18.538  13.819  12.909
66315W        W33098  42.181   7.284   2.805
66316W        W33099  17.998  26.065  14.986
66317W        W33100  31.585  12.637   0.873
66318W        W33101  21.611  18.551   3.715
66319W        W33102  38.920  44.030   4.000
66320W        W33103  17.582  16.285   1.330
66321W        W33104  44.470  27.917   2.820
66322W        W33105   9.249   9.082  12.974
66323W        W33106  25.566  41.862  13.466
66324W        W33107  36.355  16.189   4.897
66325W        W33108  40.283  35.643  13.513
66326W        W33109  19.130   7.459   1.453
66327W        W33110   0.761  39.901  13.563
66328W        W33111  30.582  32.021  12.050
66329W        W33112   5.286  29.297   2.869
66330W        W33113   5.291  18.833  12.970
66331W        W33114   4.425  18.637   3.697
66332W        W33115  34.948   2.046  10.249
66333W        W33116  29.627  19.737   0.771
66334W        W33117  41.036  36.520  13.477
66335W        W33118   7.696   3.970   1.965
66336W        W33119   0.551  18.295  12.098
66337W        W33120   6.735  28.393   1.125
66338W        W33121  35.334   9.744  14.273
66339W        W33122  22.326   5.495  14.082
66340W        W33123  17.857   7.795   1.292
66341W        W33124  28.085  12.760  10.724
66342W        W33125  32.859  28.004  11.018
66343W        W33126  20.062  38.268   2.032
66344W        W33127   9.655  12.808  14.973
66345W        W33128   4.194  17.253   1.427
66346W        W33129  27.010  43.787  14.837
66347W        W33130  28.514  19.592   0.981
66348W        W33131   5.490   3.923   4.169
66349W        W33132  32.195   0.496  11.899
66350W        W33133  26.987  29.696   2.786
66351W        W33134  16.172  43.572  12.466
66352W        W33135  38.539  16.227  10.532
66353W        W33136  35.394  11.606   4.574
66354W        W33137  32.013  16.626  12.410
66355W        W33138   5.971  25.494  10.722
66356W        W33139  33.919   4.843  12.637
66357W        W33140  40.221  43.557   2.228
66358W        W33141  20.733  13.851  10.691
66359W        W33142  28.903  43.389   0.233
66360W        W33143  38.382  30.819   4.619
66361W        W33144  39.761  21.049  14.775
66362W        W33145   3.675  24.566  12.460
66363W        W33146  36.349  30.994  13.919
66364W        W33147   2.231   5.445  14.785
66365W        W33148   9.387  32.182   4.629
66366W        W33149  21.750  42.097  14.361
66367W        W33150   4.290   7.179  13.395
66368W        W33151  37.484  12.345  12.545
66369W        W33152  41.597  33.133  10.748
66370W        W33153  14.256  10.716   4.073
66371W        W33154  23.930  16.227  13.816
66372W        W33155   0.356  18.460  12.867
66373W        W33156  35.361  38.972  14.107
66374W        W33157  42.400  28.047   1.796
66375W        W33158  35.955  17.302   2.020
66376W        W33159   8.111  28.967  11.716
66377W        W33160  38.909  18.365   1.975
66378W        W33161   8.428  42.151   1.383
66379W        W33162  19.080  29.064   0.482
66380W        W33163  11.549  31.011  14.492
66381W        W33164  26.962   8.199   4.673
66382W        W33165  40.355  35.924   2.191
66383W        W33166  39.061   4.410  10.731
66384W        W33167   2.323  29.926  10.834
66385W        W33168  15.137  11.862  12.375
66386W        W33169  24.161  21.296   4.984
66387W        W33170   9.185   8.787  13.382
66388W        W33171  31.345  41.576   0.920
66389W        W33172  37.162  20.003   3.731
66390W        W33173   1.766  12.145   4.170
66391W        W33174  35.426   4.808   2.774
66392W        W33175  34.471  44.389  13.478
66393W        W33176  42.062   6.727  11.644
66394W        W33177   9.226  36.961   0.288
66395W        W33178  43.172   5.618   2.793
66396W        W33179  14.601   0.765  14.351
66397W        W33180   0.379  14.178   1.407
66398W        W33181   4.823  37.586   1.346
66399W        W33182  39.526  32.603   2.842
66400W        W33183  16.797  20.866   3.199
66401W        W33184  10.336  29.225  12.910
66402W        W33185   2.989   7.556  11.614
66403W        W33186  37.503  34.682   2.171
66404W        W33187  36.932  12.079   3.247
66405W        W33188  14.181  31.110  10.973
66406W        W33189  33.148  19.041   9.816
66407W        W33190  33.692   7.960  13.015
66408W        W33191   4.699  27.863  12.087
66409W        W33192  35.033  28.280   4.475
66410W        W33193  29.732  12.208  14.456
66411W        W33194  26.391  34.132   3.812
66412W        W33195   8.688   0.436   1.082
66413W        W33196  40.480  38.772   4.620
66414W        W33197  41.284  10.121  14.837
66415W        W33198  38.478   9.659  12.088
66416W        W33199  16.044  34.591   4.169
66417W        W33200   8.321  35.710   2.397
66418W        W33201  33.393  21.145   0.091
66419W        W33202  26.797  33.096  13.456
66420W        W33203  38.574  19.645   4.085
66421W        W33204  22.103  19.142   1.941
66422W        W33205  34.499  16.107   4.079
66423W        W33206  14.534  19.780   9.954
66424W        W33207  44.983  35.439   1.912
66425W        W33208  11.724   7.909  14.352
66426W        W33209  19.254  43.771  12.918
66427W        W33210  13.498  23.436   4.050
66428W        W33211  14.702  39.050  10.270
66429W        W33212  35.473  16.699  13.615
66430W        W33213  16.657   1.213   3.313
66431W        W33214  43.527   1.849   4.636
66432W        W33215  18.555   6.261   2.199
66433W        W33216  26.068  39.845   3.351
66434W        W33217  19.347  34.618   4.121
66435W        W33218  16.810   6.306  10.575
66436W        W33219  14.382   8.881   9.819
66437W        W33220  10.276  44.672   0.540
66438W        W33221  27.594  42.048  11.569
66439W        W33222  25.602  14.426  10.749
66440W        W33223  41.929  18.210   1.013
66441W        W33224  28.448  18.670   3.648
66442W        W33225  38.054  14.207  11.182
66443W        W33226   8.933  26.317   5.035
66444W        W33227  13.859  22.609   1.254
66445W        W33228  44.809  19.025   1.738
66446W        W33229   6.880  14.370   0.328
66447W        W33230  27.088  15.192   0.603
66448W        W33231  10.087  32.617  13.736
66449W        W33232  27.211   6.513  14.195
66450W        W33233   6.732  18.339  12.880
66451W        W33234  11.599  38.936  12.965
66452W        W33235  20.191  17.322  11.021
66453W        W33236  40.551  29.055  12.370
66454W        W33237  28.442  11.269  11.484
66455W        W33238   7.888  17.159   4.500
66456W        W33239  32.890  42.012   2.298
66457W        W33240  16.345  36.934   0.210
66458W        W33241  42.774  10.434  10.072
66459W        W33242  39.985  43.207   1.217
66460W        W33243  13.088  30.925   2.017
66461W        W33244  27.094  24.587   1.627
66462W        W33245  16.918  20.084   2.809
66463W        W33246  34.104  24.774  11.169
66464W        W33247  11.416  31.586   2.435
66465W        W33248  38.788  17.705  11.041
66466W        W33249  44.498  31.028  12.882
66467W        W33250  44.765   0.121   5.307
66468W        W33251   5.679  33.195  14.395
66469W        W33252  25.662  27.689   3.363
66470W        W33253  15.668  30.573  12.458
66471W        W33254  14.573  42.136  11.623
66472W        W33255  14.621  44.584  14.368
66473W        W33256  36.582  38.089   3.591
66474W        W33257  36.622  36.614   1.419
66475W        W33258  10.242  30.152  14.791
66476W        W33259   4.423  42.423  11.665
66477W        W33260  36.057  42.197   1.740
66478W        W33261   5.356  20.080  12.363
66479W        W33262   8.262   9.866  10.470
66480W        W33263  42.007  20.379   0.284
66481W        W33264  28.890  25.789  13.563
66482W        W33265  27.132  40.895  12.985
66483W        W33266  14.043  40.824  10.743
66484W        W33267  20.659  44.544  12.561
66485W        W33268  35.483  20.240   0.306
66486W        W33269  33.938  27.607  11.530
66487W        W33270  14.687  20.402  11.885
66488W        W33271  33.470  12.971   3.808
66489W        W33272  37.256   1.939  10.779
66490W        W33273   9.411  32.099  13.990
66491W        W33274   4.450   9.389  12.218
66492W        W33275  17.684  26.303   1.334
66493W        W33276  23.543  33.453  10.688
66494W        W33277   8.273  44.741   4.697
66495W        W33278   0.831   4.249   1.845
66496W        W33279  23.978   5.864  10.462
66497W        W33280  22.750  10.498  12.062
66498W        W33281  39.122  32.913  13.956
66499W        W33282  33.398  40.802  13.542
66500W        W33283  11.625   8.479   1.105
66501W        W33284  13.364   4.340  14.044
66502W        W33285  17.613  11.731   2.287
66503W        W33286   8.595   2.841  11.041
66504W        W33287  30.298  32.548  11.235
66505W        W33288   4.352  15.502   1.541
66506W        W33289  12.724  10.432   4.123
66507W        W33290   2.940  24.510  13.812
66508W        W33291   7.683  37.008  14.084
66509W        W33292  11.196  33.811   2.192
66510W        W33293  15.152  35.473  10.703
66511W        W33294  29.363  44.951   0.887
66512W        W33295   9.677  31.402   3.562
66513W        W33296  36.440  39.300   1.582
66514W        W33297  30.694  24.328   1.943
66515W        W33298  37.195  23.794  11.044
66516W        W33299   6.554  33.875   4.136
66517W        W33300  25.859  31.669   3.162
66518W        W33301  15.270  11.068  14.736
66519W        W33302  20.722  20.384  14.307
66520W        W33303  39.421  25.658   1.938
66521W        W33304   5.703  39.810   0.993
66522W        W33305  29.178  43.022  12.553
66523W        W33306   0.137  20.738   4.536
66524W        W33307  42.080  12.350  14.925
66525W        W33308  14.093  22.488  11.076
66526W        W33309  33.382  18.522  11.545
66527W        W33310  39.057  37.681  10.006
66528W        W33311  28.026   8.494   4.746
66529W        W33312   0.400   5.282  10.523
66530W        W33313  11.817  39.323   1.255
66531W        W33314  41.959  20.640  12.525
66532W        W33315   3.679  16.701  14.798
66533W        W33316   4.591  36.143   4.102
66534W        W33317   7.814  38.331  10.820
66535W        W33318  23.499  22.614   1.289
66536W        W33319  16.542  42.837   3.638
66537W        W33320  29.561  25.594  12.853
66538W        W33321   8.819  17.567  13.362
66539W        W33322  21.298  10.308  13.304
66540W        W33323  34.408  21.824  13.386
66541W        W33324  42.351   8.437   2.285
66542W        W33325  36.471   1.204  14.430
66543W        W33326  28.982  36.412   4.912
66544W        W33327  29.955  24.141   2.173
66545W        W33328  33.364  34.937  14.957
66546W        W33329  35.855   3.208  10.519
66547W        W33330  19.594  23.799   4.175
66548W        W33331  27.465  24.532   3.220
66549W        W33332  35.674  29.898   4.168
66550W        W33333  38.895   0.356   1.198
66551W        W33334  19.844  33.473  10.763
66552W        W33335  21.581  10.424   1.455
66553W        W33336   1.850  15.026  12.537
66554W        W33337  41.442  31.144   2.130
66555W        W33338  18.569  28.937  14.756
66556W        W33339  19.137   5.199  12.075
66557W        W33340  37.384  32.147   4.140
66558W        W33341  29.972  22.256  12.863
66559W        W33342   9.229  17.334   0.958
66560W        W33343   0.034  39.426  10.432
66561W        W33344   6.857  41.976   3.279
66562W        W33345   9.587   1.560  14.802
66563W        W33346  34.985   0.401  13.006
66564W        W33347  22.556  30.152  10.802
66565W        W33348  24.536  15.302   2.270
66566W        W33349  10.370  38.949   9.960
66567W        W33350  38.905  25.246  13.511
66568W        W33351  41.569  43.261   0.384
66569W        W33352  17.221  40.283  12.554
66570W        W33353  30.526  19.291  10.733
66571W        W33354   7.701  44.242   3.552
66572W        W33355  26.975  16.247  10.741
66573W        W33356  33.598   6.182  14.095
66574W        W33357  22.841  32.693   2.843
66575W        W33358  29.897  29.090  11.669
66576W        W33359  24.036  23.403   4.291
66577W        W33360  37.627  35.946  10.329
66578W        W33361   8.815  37.426  14.520
66579W        W33362  25.688  20.790  12.089
66580W        W33363  34.997  29.128   1.091
66581W        W33364  20.585  21.689  12.789
66582W        W33365  31.254  18.058   0.719
66583W        W33366  21.422  21.839  13.108
66584W        W33367  43.370  38.449  14.745
66585W        W33368  12.610  36.314   9.945
66586W        W33369  13.177  19.185   1.863
66587W        W33370  22.230  34.994   4.526
66588W        W33371  15.769  13.732  13.939
66589W        W33372  38.385  30.238  11.178
66590W        W33373  17.773  37.868   0.018
66591W        W33374   4.222  21.159   0.960
66592W        W33375  32.941  32.241  13.934
66593W        W33376  19.052  36.489  11.940
66594W        W33377   4.307   2.409   4.390
66595W        W33378  12.430  41.498  12.107
66596W        W33379  21.415  26.381  10.417
66597W        W33380   7.896  11.857   2.835
66598W        W33381  42.145  28.893   0.040
66599W        W33382  33.493  33.046  14.700
66600W        W33383  12.293  11.214   9.779
66601W        W33384  36.539  37.460   0.524
66602W        W33385  20.176  28.186   1.756
66603W        W33386  29.716  22.740   2.209
66604W        W33387  40.822  32.052  13.997
66605W        W33388  34.038  40.367   2.645
66606W        W33389   4.044  20.684   4.067
66607W        W33390   2.894  21.848  11.299
66608W        W33391  24.163  14.825  13.719
66609W        W33392   7.677  10.233   4.607
66610W        W33393  30.100  32.219  13.467
66611W        W33394  19.127   5.716  12.076
66612W        W33395  42.720  44.860   1.395
66613W        W33396  22.378   0.195   0.459
66614W        W33397  43.744   2.911   1.796
66615W        W33398  38.028  19.331  11.157
66616W        W33399  22.743  20.460  11.145
66617W        W33400   9.751  41.092  14.872
66618W        W33401   6.361  40.488   0.477
66619W        W33402  29.131  22.973  13.940
66620W        W33403   5.218  10.173  11.998
66621W        W33404  36.176   3.314   0.281
66622W        W33405  16.335  15.762   2.475
66623W        W33406  15.146  16.388   2.240
66624W        W33407  25.965   0.813   4.153
66625W        W33408  41.781  25.280   4.239
66626W        W33409  38.533   4.314   3.876
66627W        W33410  40.174  26.198  11.609
66628W        W33411  18.787  26.916  11.514
66629W        W33412  37.651   6.348  13.502
66630W        W33413  23.773  37.543  11.326
66631W        W33414   2.772  33.543   1.529
66632W        W33415  29.551  33.791   0.656
66633W        W33416   7.826  33.167  12.927
66634W        W33417   5.296  32.148   3.889
66635W        W33418  19.134  36.068  11.602
66636W        W33419  27.114   5.731  14.385
66637W        W33420   0.128  32.836   0.920
66638W        W33421  36.811   4.801  14.904
66639W        W33422  33.022   0.741   3.186
66640W        W33423  31.889   7.270  13.111
66641W        W33424   9.255  15.166  11.965
66642W        W33425  24.664  30.614  12.785
66643W        W33426   4.564  37.404  11.444
66644W        W33427  38.042  16.638   4.221
66645W        W33428  27.119  29.926   1.356
66646W        W33429  35.096   8.591   0.734
66647W        W33430  24.665  37.402  11.202
66648W        W33431   5.826  21.286   3.708
66649W        W33432  32.498  17.790  11.332
66650W        W33433  21.917   0.333   5.467
66651W        W33434  34.097  25.148   3.210
66652W        W33435  14.809  35.658  14.494
66653W        W33436  34.806   2.429   2.816
66654W        W33437  19.105   8.726   1.984
66655W        W33438   5.334  35.946   3.115
66656W        W33439  41.752   8.786   3.614
66657W        W33440  27.325   5.729  12.599
66658W        W33441  31.689  25.952  14.874
66659W        W33442  35.743  24.519  12.813
66660W        W33443  14.439  12.892  14.928
66661W        W33444  11.794  42.521  13.473
66662W        W33445  18.722  14.324  13.989
66663W        W33446  25.560  41.672   1.330
66664W        W33447  12.729  33.354  11.154
66665W        W33448  39.133  26.549  10.575
66666W        W33449  22.492  41.861   3.262
66667W        W33450  42.437  29.717  12.037
66668W        W33451  23.607   0.450  11.334
66669W        W33452  32.437  44.743   2.268
66670W        W33453  15.234  14.669   4.161
66671W        W33454   8.587  24.187  10.674
66672W        W33455   3.392  43.353   2.875
66673W        W33456   2.092  27.048  13.105
66674W        W33457  35.413  32.688   4.651
66675W        W33458  42.017   4.247  14.428
66676W        W33459  33.006  28.647  13.060
66677W        W33460  32.508  37.301   1.319
66678W        W33461  20.665   2.783  13.110
66679W        W33462  10.853  18.959   0.875
66680W        W33463  14.777  38.350  12.024
66681W        W33464  33.567   8.838  14.392
66682W        W33465  13.206  11.109  13.361
66683W        W33466  41.024  31.563   4.333
66684W        W33467  29.218  13.185  12.239
66685W        W33468  43.074  26.501   1.744
66686W        W33469   5.650   0.875   3.607
66687W        W33470   7.198   9.388   4.296
66688W        W33471  14.562  28.236   0.196
66689W        W33472  11.552  15.668   0.988
66690W        W33473  13.625  39.527   2.213
66691W        W33474  34.817  32.993   3.254
66692W        W33475  21.792   9.096   0.961
66693W        W33476  35.736   9.655   3.802
66694W        W33477   2.090   4.339   2.799
66695W        W33478  17.822  16.829  11.756
66696W        W33479  37.070  22.590   4.013
66697W        W33480  42.856  11.132  11.997
66698W        W33481  37.915  33.881   1.988
66699W        W33482  42.238  34.381   1.048
66700W        W33483  10.371  10.761  13.152
66701W        W33484  40.785  33.029  14.269
66702W        W33485  32.375  31.617   1.789
66703W        W33486   3.418  44.693  10.534
66704W        W33487  23.633  14.771  14.888
66705W        W33488  22.969  41.117   2.651
66706W        W33489  29.379  31.891   2.014
66707W        W33490  23.937  19.962  11.590
66708W        W33491  29.919  38.086   2.879
66709W        W33492  41.238  19.062   1.306
66710W        W33493  16.103  38.397  12.989
66711W        W33494  37.458   6.714  11.379
66712W        W33495  20.375  38.288  14.573
66713W        W33496  39.847   5.381   4.842
66714W        W33497  29.546  12.871  12.865
66715W        W33498  40.040  18.606   4.306
66716W        W33499  16.218   3.537  13.279
66717W        W33500  40.404  23.539   1.470
66718W        W33501  42.205  35.960   4.867
66719W        W33502   7.848  18.588  11.557
66720W        W33503  32.101  27.358   4.574
66721W        W33504  15.144  28.117  12.483
66722W        W33505  19.466   1.687   3.647
66723W        W33506  27.007   7.634  11.946
66724W        W33507   9.754  35.859   4.592
66725W        W33508   1.075  12.393   0.488
66726W        W33509  10.293  18.001  12.142
66727W        W33510   0.725  39.712   2.351
66728W        W33511   0.820   1.547   4.674
66729W        W33512  41.857  37.519   9.958
66730W        W33513  28.936  20.518   2.226
66731W        W33514  40.965  18.810   0.604
66732W        W33515   2.392   2.131  13.019
66733W        W33516   5.395   7.263   3.041
66734W        W33517  22.440   9.873   4.178
66735W        W33518  37.949   9.328  10.654
66736W        W33519  26.870  23.181  14.854
66737W        W33520   4.148  17.502   0.718
66738W        W33521  41.375  35.923  12.856
66739W        W33522  18.034  39.536   3.760
66740W        W33523  38.421   5.649   2.748
66741W        W33524  32.897  32.996  13.515
66742W        W33525  13.786   1.402  10.990
66743W        W33526  24.493   0.381   2.653
66744W        W33527  36.755  11.701   4.911
66745W        W33528  16.336  27.965   4.014
66746W        W33529  24.433  41.673  14.631
66747W        W33530  11.622  18.970  13.889
66748W        W33531  24.508  22.802  10.329
66749W        W33532  36.426   2.915   3.579
66750W        W33533  14.171  27.162   0.127
66751W        W33534  26.579  37.582   4.765
66752W        W33535  41.303  39.481  11.639
66753W        W33536   2.374  18.037   0.800
66754W        W33537  33.544  40.042   0.861
66755W        W33538  44.628  38.812   4.322
66756W        W33539  22.266  30.978   3.024
66757W        W33540   1.563  12.189  14.203
66758W        W33541   7.890  33.724  12.068
66759W        W33542  22.076  18.517   4.637
66760W        W33543   9.319  29.126  10.738
66761W        W33544   2.669   7.801   2.475
66762W        W33545   4.790  37.872   1.778
66763W        W33546  34.190  19.505   3.312
66764W        W33547  29.685  30.689  11.181
66765W        W33548  18.587   6.320   1.220
66766W        W33549  17.056  23.556  11.669
66767W        W33550  29.632   8.062   1.322
66768W        W33551  26.326  27.096   4.425
66769W        W33552  37.437   7.988  11.890
66770W        W33553   0.398  15.980  13.291
66771W        W33554  23.988  15.304  12.403
66772W        W33555  38.148  24.141   4.074
66773W        W33556   9.751  11.610  14.482
66774W        W33557  26.246  17.681  11.232
66775W        W33558  39.424  15.722   3.369
66776W        W33559  39.489  13.509  12.011
66777W        W33560  22.951  42.515  14.412
66778W        W33561  30.166  15.032  14.554
66779W        W33562  22.312  44.833  11.652
66780W        W33563  12.294   3.310   3.088
66781W        W33564   7.389  23.583   1.162
66782W        W33565  12.826  40.287   4.994
66783W        W33566  12.906  34.600   1.693
66784W        W33567  14.212   5.337   2.215
66785W        W33568  24.464  11.268   0.753
66786W        W33569  17.225  30.028   2.220
66787W        W33570  13.735  37.344  12.046
66788W        W33571  37.220  43.009  14.330
66789W        W33572  33.436  20.610   1.144
66790W        W33573  25.747  29.182   2.866
66791W        W33574   3.747   2.046  14.751
66792W        W33575  10.412   6.729   1.693
66793W        W33576  44.993  39.417  14.266
66794W        W33577   8.460  19.019   3.227
66795W        W33578  42.886   6.322   1.687
66796W        W33579  29.808   5.716   2.477
66797W        W33580  19.568   2.839   2.723
66798W        W33581  13.753  27.078   0.432
66799W        W33582  40.470   2.804   1.683
66800W        W33583  37.544  20.739  10.787
66801W        W33584  22.638  17.048  14.861
66802W        W33585  16.338   9.137  10.779
66803W        W33586  43.995  19.295  12.504
66804W        W33587  35.954  19.726  14.926
66805W        W33588  25.162   2.534   1.399
66806W        W33589  34.989  16.950   4.187
66807W        W33590  34.701  36.139  11.148
66808W        W33591  43.945   4.423  11.507
66809W        W33592  13.999  21.183  10.665
66810W        W33593  10.423  42.265   3.916
66811W        W33594   9.703  24.513  11.553
66812W        W33595  31.662  44.035   2.738
66813W        W33596  14.972  21.952  11.224
66814W        W33597  35.662  37.053  14.219
66815W        W33598  14.958  29.890  11.786
66816W        W33599   0.388  34.978  13.909
66817W        W33600  41.526  37.089   3.597
66818W        W33601  18.601  31.923  12.443
66819W        W33602   4.624  33.059  12.903
66820W        W33603   6.392   0.439  12.167
66821W        W33604  33.405  22.013   1.683
66822W        W33605  15.065  41.794   2.449
66823W        W33606  25.714  26.525   2.726
66824W        W33607  30.446   6.432  11.987
66825W        W33608  41.071  32.103  11.548
66826W        W33609   6.745   5.246  12.054
66827W        W33610   7.494   7.896   2.002
66828W        W33611  26.745  39.713   4.124
66829W        W33612  38.923  33.007  13.096
66830W        W33613   7.400  18.261  11.502
66831W        W33614  35.792  24.637  13.326
66832W        W33615  11.771  35.572   1.670
66833W        W33616  14.555  36.115   0.426
66834W        W33617   6.097  14.248  12.926
66835W        W33618  17.590   5.823   0.202
66836W        W33619  19.431  10.992  10.977
66837W        W33620  24.213  32.019  12.887
66838W        W33621  16.809  34.602   4.822
66839W        W33622  42.996  24.076   2.760
66840W        W33623  20.274  14.170  10.711
66841W        W33624  30.040  17.149   4.098
66842W        W33625  37.084   8.408  12.632
66843W        W33626  12.289  11.032   3.121
66844W        W33627   7.567   8.817  12.307
66845W        W33628   9.413  36.915  14.722
66846W        W33629   8.301   6.871  14.530
66847W        W33630  34.046  22.545  14.426
66848W        W33631  16.496  41.594   4.167
66849W        W33632   0.378  40.948  11.742
66850W        W33633  24.324  30.986   2.401
66851W        W33634  24.654  41.295   3.348
66852W        W33635  33.186  39.597  14.411
66853W        W33636  36.498  23.824   3.589
66854W        W33637  35.096  41.944  13.434
66855W        W33638  43.015  17.787   3.269
66856W        W33639  33.555  41.034   1.649
66857W        W33640   4.431   4.549  13.764
66858W        W33641  21.074  17.694   2.745
66859W        W33642   8.166  16.587  13.888
66860W        W33643   3.404   3.713   2.851
66861W        W33644   0.538  40.869  14.189
66862W        W33645  43.244   3.124   1.819
66863W        W33646  12.583  21.638  12.398
66864W        W33647  32.500   9.675   4.332
66865W        W33648   3.589  30.123  10.956
66866W        W33649  40.601  33.670   0.701
66867W        W33650  12.784  20.199   2.390
66868W        W33651  10.752  41.590   2.741
66869W        W33652  37.656  42.437   4.036
66870W        W33653  21.151  27.016   4.331
66871W        W33654  22.613  15.395  11.007
66872W        W33655   8.774  26.020  13.047
66873W        W33656  17.028  39.562   4.509
66874W        W33657  28.099  10.219   0.446
66875W        W33658  43.904  32.653  13.040
66876W        W33659   4.649  30.931  10.722
66877W        W33660  34.583  32.912   2.702
66878W        W33661  44.660  37.433   4.083
66879W        W33662  23.832  41.768  11.289
66880W        W33663  13.032  18.442   4.081
66881W        W33664  36.799  16.979   0.932
66882W        W33665  39.622  12.617   3.742
66883W        W33666  36.855  20.637   2.592
66884W        W33667  40.385  15.286   0.944
66885W        W33668  25.492  25.634   0.263
66886W        W33669   3.146  19.971   1.339
66887W        W33670  43.438  22.220   3.608
66888W        W33671  15.417  33.648  13.848
66889W        W33672  17.238   9.177  14.928
66890W        W33673  35.561  31.878   0.879
66891W        W33674  37.093   5.935   4.165
66892W        W33675  10.228  40.281  10.720
66893W        W33676  24.134  30.085  10.382
66894W        W33677  14.828  25.914   1.291
66895W        W33678  11.872  34.071  14.844
66896W        W33679  43.374  22.823   0.938
66897W        W33680  26.246  35.995  13.087
66898W        W33681   5.387  34.511  14.232
66899W        W33682  23.944  14.383  11.204
66900W        W33683  41.548   6.658  11.606
66901W        W33684  36.539   1.396  13.012
66902W        W33685  25.206  19.132  14.747
66903W        W33686  14.038  21.669   3.987
66904W        W33687  36.390  44.438  14.524
66905W        W33688   4.231  14.677   3.088
66906W        W33689   1.707   2.097  13.550
66907W        W33690  23.077  34.406   3.582
66908W        W33691   0.854  29.955  10.620
66909W        W33692   6.449  26.627   4.065
66910W        W33693   2.426  38.299  14.771
66911W        W33694   7.614  38.335   2.704
66912W        W33695   3.954   5.844   2.197
66913W        W33696  23.591   9.210  10.748
66914W        W33697  32.454  25.619  12.516
66915W        W33698  30.780  19.281  13.002
66916W        W33699  34.092   5.798  12.555
66917W        W33700   8.003  23.518  10.774
66918W        W33701  27.669  35.843   0.316
66919W        W33702  16.664  27.205  12.113
66920W        W33703  12.732  26.214   1.462
66921W        W33704   5.873  33.524  11.112
66922W        W33705  20.843  20.057   4.243
66923W        W33706   7.286  20.008   2.434
66924W        W33707   5.133  25.568  14.516
66925W        W33708  35.438  13.061   2.221
66926W        W33709  18.304   8.482   0.889
66927W        W33710  22.122   9.865  12.397
66928W        W33711  20.393  27.479   2.088
66929W        W33712  27.776  21.782   0.365
66930W        W33713  33.197  34.707   4.979
66931W        W33714  29.188  30.125   0.472
66932W        W33715   7.984  21.416   0.039
66933W        W33716  13.725  18.108  11.106
66934W        W33717   4.647   5.117  14.408
66935W        W33718   7.957   0.927   4.164
66936W        W33719  15.133  13.550  11.495
66937W        W33720  37.551  32.343   3.634
66938W        W33721  17.694   7.712   3.538
66939W        W33722  18.815  26.394  11.638
66940W        W33723  13.741   4.450  12.326
66941W        W33724  30.661  11.913  12.500
66942W        W33725  10.322  40.434  12.789
66943W        W33726  34.129  26.575   4.662
66944W        W33727  24.009  13.203  10.664
66945W        W33728  26.533   9.758  12.183
66946W        W33729  26.385  34.546  12.978
66947W        W33730  34.508  25.217   1.401
66948W        W33731  14.867  36.752  12.584
66949W        W33732  30.861  15.202  13.569
66950W        W33733  14.393  15.763  14.275
66951W        W33734  12.567  38.821   2.221
66952W        W33735  12.062  22.456   4.514
66953W        W33736  39.382  34.191  14.078
66954W        W33737  43.504  36.300   1.840
66955W        W33738  14.187   0.081   4.810
66956W        W33739  33.526  11.647   1.485
66957W        W33740  39.520  19.727   1.073
66958W        W33741  10.416  23.796  11.659
66959W        W33742   5.400  17.520   4.646
66960W        W33743  36.830  43.462   3.603
66961W        W33744  32.478  20.765  13.382
66962W        W33745  15.644  11.411   4.331
66963W        W33746  21.692   1.610   3.777
66964W        W33747  20.408   3.945  12.475
66965W        W33748   5.174   0.412   9.956
66966W        W33749  40.119  38.301   4.326
66967W        W33750  23.270  44.857  10.151
66968W        W33751   0.981   1.881   4.030
66969W        W33752  41.380  17.109   2.802
66970W        W33753  37.495  36.370  13.405
66971W        W33754  13.746  39.906   3.488
66972W        W33755   8.694   9.140  12.293
66973W        W33756   2.497  17.111   4.603
66974W        W33757  14.586   5.898   2.711
66975W        W33758  36.629  27.858   2.277
66976W        W33759  19.549  12.079   3.034
66977W        W33760  16.634   7.652   0.046
66978W        W33761  35.432   3.210   0.318
66979W        W33762  12.176  21.670   0.914
66980W        W33763  24.075   1.298  13.980
66981W        W33764   8.942  28.172  13.926
66982W        W33765   2.908  15.852   1.507
66983W        W33766  38.067  42.903   2.144
66984W        W33767  28.813  22.399  13.392
66985W        W33768   4.232   1.826  14.828
66986W        W33769  20.189  39.098   0.436
66987W        W33770  22.717  28.013   1.173
66988W        W33771  22.006   9.459   4.968
66989W        W33772   8.219  18.791  10.506
66990W        W33773  28.192  37.924   1.864
66991W        W33774  13.015   6.306  11.490
66992W        W33775  25.183  29.633  13.455
66993W        W33776  27.755  41.512  14.876
66994W        W33777  40.393  11.998   2.773
66995W        W33778  37.872  20.402   2.339
66996W        W33779  39.414   3.404  12.014
66997W        W33780  33.673  21.369  12.041
66998W        W33781  40.813  20.991  12.018
66999W        W33782  32.990  10.363   2.301
67000W        W33783  35.551  20.553  12.394
67001W        W33784  38.920  38.202   4.719
67002W        W33785   4.592   5.759   1.508
67003W        W33786  28.171  21.146  11.015
67004W        W33787   2.870  26.044  11.885
67005W        W33788   1.752  12.160  11.634
67006W        W33789  35.386  24.653  13.660
67007W        W33790   8.642  15.178  14.094
67008W        W33791   9.634  38.546  13.853
67009W        W33792  43.528  40.667  11.162
67010W        W33793  28.788  19.848  13.970
67011W        W33794  17.056  22.556   4.050
67012W        W33795  36.822  43.452  13.585
67013W        W33796   7.392   0.228   2.819
67014W        W33797  44.256  17.491   0.947
67015W        W33798  44.257   9.171   0.868
67016W        W33799   6.262  42.168  11.508
67017W        W33800  17.019   3.818   1.266
67018W        W33801  40.055  14.895   3.696
67019W        W33802  17.353  42.919   4.299
67020W        W33803  17.204  29.906  12.453
67021W        W33804  16.770   6.829   2.399
67022W        W33805  32.109  37.279  13.834
67023W        W33806  14.635  27.914  13.444
67024W        W33807  42.760  36.321   2.383
67025W        W33808  37.434  33.793   1.346
67026W        W33809  32.116  10.160   4.944
67027W        W33810  29.471  18.057   5.095
67028W        W33811  39.625  44.905   3.394
67029W        W33812  24.976  42.429  12.451
67030W        W33813  15.143   3.791   3.400
67031W        W33814  39.365  28.509   0.004
67032W        W33815  41.096  40.924   2.275
67033W        W33816  22.526   6.172   2.637
67034W        W33817  10.891  41.142   2.427
67035W        W33818  41.263  40.015   0.442
67036W        W33819  32.980  26.790   3.627
67037W        W33820  11.036  20.162  14.328
67038W        W33821   0.057  14.576  10.300
67039W        W33822   3.533  39.921  10.712
67040W        W33823  44.988  33.122   1.812
67041W        W33824  42.090  32.048   3.748
67042W        W33825  38.292  41.476  14.823
67043W        W33826  18.020  29.200   2.786
67044W        W33827  23.244  21.518  12.016
67045W        W33828  19.514  36.500  10.797
67046W        W33829  28.463  24.509  12.155
67047W        W33830  37.040  17.182   1.434
67048W        W33831   9.479   1.816  11.117
67049W        W33832  18.047  28.475   1.848
67050W        W33833   4.787  27.432  12.801
67051W        W33834  10.754  22.210  13.333
67052W        W33835  32.622  42.589   4.306
67053W        W33836   1.822   3.105  12.922
67054W        W33837  37.981   6.702   3.211
67055W        W33838  13.534  25.682  13.820
67056W        W33839   3.634  14.035  11.021
67057W        W33840   7.621   3.005  10.652
67058W        W33841   8.273  25.677  11.090
67059W        W33842  26.933  31.149   0.151
67060W        W33843  42.513  10.189  10.696
67061W        W33844  22.615  25.993   3.573
67062W        W33845  22.110  11.253   4.717
67063W        W33846  40.061   5.109   1.344
67064W        W33847  36.105   0.547  14.794
67065W        W33848   0.263   6.223   4.622
67066W        W33849  11.728  12.855  14.512
67067W        W33850  11.675   2.697   0.253
67068W        W33851  42.450  36.065   0.107
67069W        W33852   0.675  21.467  11.608
67070W        W33853  15.869  39.154  13.907
67071W        W33854  38.309  43.295   1.914
67072W        W33855   9.768   2.924  14.837
67073W        W33856  10.297  12.360   4.181
67074W        W33857  33.515  29.377   2.541
67075W        W33858  39.359  41.267   4.608
67076W        W33859  34.329   5.441  11.857
67077W        W33860  13.531  40.772  11.677
67078W        W33861  40.510  15.149  12.939
67079W        W33862  27.668  26.598  14.386
67080W        W33863  35.444   4.846  13.950
67081W        W33864   6.464   0.988   2.285
67082W        W33865   8.695  27.411  12.198
67083W        W33866   8.799  40.255   4.615
67084W        W33867  43.349  39.717  14.049
67085W        W33868  32.968  16.606  11.456
67086W        W33869  32.861  38.552   0.969
67087W        W33870  18.156  15.326  12.949
67088W        W33871  27.346   1.957   4.082
67089W        W33872   7.563  12.182  14.354
67090W        W33873  35.992  43.929   4.191
67091W        W33874  35.459  42.500  11.853
67092W        W33875  21.110  12.691   1.809
67093W        W33876   6.375  24.214   4.424
67094W        W33877  15.237  19.604  14.952
67095W        W33878  19.863  36.349  11.194
67096W        W33879  42.309  33.689  14.357
67097W        W33880   5.762  19.260  11.573
67098W        W33881   2.492  42.821   1.840
67099W        W33882  38.645   5.529   0.522
67100W        W33883  16.670  24.149  13.218
67101W        W33884   5.669  26.641  12.092
67102W        W33885  42.420  21.660   0.282
67103W        W33886  34.904  27.505  11.212
67104W        W33887  43.453   7.736   3.971
67105W        W33888  21.354  28.613   4.657
67106W        W33889   0.882  29.106  11.217
67107W        W33890  36.514  19.182   2.253
67108W        W33891  42.867  22.194  14.325
67109W        W33892  19.061  29.688  12.613
67110W        W33893   5.633  36.429   0.820
67111W        W33894   3.662  31.962  14.984
67112W        W33895  18.090  41.379  13.932
67113W        W33896   1.436  28.513  13.904
67114W        W33897  28.004  14.828  12.564
67115W        W33898  30.725  44.684   2.867
67116W        W33899  37.904   3.712  10.751
67117W        W33900  40.350  22.564  14.027
67118W        W33901   3.599  44.313  12.194
67119W        W33902  39.513  19.572   3.015
67120W        W33903  41.762  17.249   1.356
67121W        W33904  40.175  26.019   2.804
67122W        W33905  44.569  32.801  14.693
67123W        W33906  32.907   0.236   3.214
67124W        W33907   3.398   7.876   0.275
67125W        W33908  20.011   4.850   2.727
67126W        W33909  41.581  34.574   2.296
67127W        W33910   4.704   6.376  12.249
67128W        W33911  15.871  30.145  14.790
67129W        W33912  43.807  27.687   0.446
67130W        W33913  19.308  41.593   2.826
67131W        W33914  40.566  39.366   4.663
67132W        W33915  23.619  20.633  11.240
67133W        W33916  16.085  30.712  12.708
67134W        W33917  43.095   3.739   4.694
67135W        W33918   5.341  44.771   3.130
67136W        W33919  42.510   2.677   3.243
67137W        W33920   6.183   3.822   0.610
67138W        W33921  21.246  17.817   3.246
67139W        W33922  27.684  27.956  10.734
67140W        W33923  33.316  17.822  14.978
67141W        W33924  14.594  13.818   4.438
67142W        W33925  15.378   8.161   2.290
67143W        W33926  12.754  16.812  12.173
67144W        W33927  39.145   9.784  12.570
67145W        W33928  42.253  35.453   0.460
67146W        W33929  20.450  38.823   2.154
67147W        W33930  18.625  44.543  14.007
67148W        W33931  13.808  43.128   0.080
67149W        W33932  35.628  28.892   4.053
67150W        W33933  42.087  34.171  14.017
67151W        W33934   7.925   2.361  14.963
67152W        W33935   3.912  10.308  13.046
67153W        W33936  38.058  29.928  14.542
67154W        W33937  38.432  21.157   4.616
67155W        W33938  24.541   6.733  13.927
67156W        W33939  11.234  10.250  13.618
67157W        W33940   1.611  15.215   1.885
67158W        W33941  10.369  14.169   5.121
67159W        W33942  23.555  21.092  11.017
67160W        W33943  39.530  18.112  12.121
67161W        W33944  24.595   1.268  11.580
67162W        W33945  11.153  20.027   1.650
67163W        W33946  39.112  12.397  11.095
67164W        W33947  35.430  44.368  14.591
67165W        W33948   5.736  18.512   2.923
67166W        W33949  16.083  11.359   2.246
67167W        W33950   7.162  24.791  13.781
67168W        W33951  42.548  27.504  12.440
67169W        W33952   3.337  17.519  10.767
67170W        W33953  14.769  24.488  14.209
67171W        W33954   4.359  16.850   3.414
67172W        W33955   8.880   6.229   3.926
67173W        W33956  20.373  42.565  12.545
67174W        W33957  20.198  37.432  13.948
67175W        W33958  29.492  41.392  14.687
67176W        W33959  35.302  41.871   3.841
67177W        W33960  12.398   3.783   3.638
67178W        W33961  34.319  41.550  14.642
67179W        W33962  40.672  36.258  14.032
67180W        W33963   5.994  14.130   1.607
67181W        W33964  29.433   0.933  12.013
67182W        W33965  42.343  39.430   4.200
67183W        W33966  43.430   2.742   3.698
67184W        W33967  44.465   5.343  10.377
67185W        W33968  41.808  23.662  14.956
67186W        W33969  10.309  36.537   0.926
67187W        W33970  23.618   2.958   1.091
67188W        W33971  36.565  28.302  10.479
67189W        W33972   8.779   6.297  12.615
67190W        W33973  17.766  29.826  12.942
67191W        W33974  33.307   2.890   3.258
67192W        W33975  14.677  41.537   3.718
67193W        W33976  15.198  32.801  12.942
67194W        W33977  10.820   6.210   1.854
67195W        W33978  42.032  25.390   2.835
67196W        W33979  12.718  40.295  13.139
67197W        W33980  42.269  27.569  11.977
67198W        W33981  35.831  37.246   1.059
67199W        W33982  19.352  32.160   4.137
67200W        W33983  14.082   3.205   3.224
67201W        W33984  20.058  29.155   2.712
67202W        W33985   6.415  37.422  11.859
67203W        W33986  15.410  28.092   0.507
67204W        W33987  38.350  40.222   4.627
67205W        W33988  13.575  23.736   3.242
67206W        W33989  41.065  21.422  12.126
67207W        W33990  38.116  11.311   2.571
67208W        W33991   7.351  41.297   2.933
67209W        W33992   0.526  21.997   2.780
67210W        W33993   2.007  37.945   2.060
67211W        W33994  23.214  21.234  13.917
67212W        W33995  27.986  40.810  12.537
67213W        W33996   1.961  18.610   4.557
67214W        W33997  27.596  27.320  11.911
67215W        W33998   6.374  14.693  12.030
67216W        W33999  28.030  28.535  11.573
67217W        W34000  22.174   5.467  11.246
67218W        W34001  10.621   0.775   2.094
67219W        W34002  37.846  28.662  14.970
67220W        W34003  21.619  31.105   0.651
67221W        W34004  15.695  34.494   1.331
67222W        W34005   0.011   9.414   1.695
67223W        W34006  34.927   7.111   0.764
67224W        W34007  43.360  42.014   2.906
67225W        W34008  20.278  11.276  14.939
67226W        W34009  38.454  21.338  12.000
67227W        W34010  41.797  11.355  14.861
67228W        W34011  27.564  38.146  13.798
67229W        W34012  43.019  23.254  10.729
67230W        W34013   9.791  39.747  14.318
67231W        W34014  32.529  11.239   2.408
67232W        W34015  32.846  13.544   2.838
67233W        W34016  23.904  41.758  12.060
67234W        W34017  11.312   0.102  11.224
67235W        W34018   7.840   2.775  13.380
67236W        W34019  13.869   5.197   1.264
67237W        W34020  24.587   9.654   1.196
67238W        W34021  15.989  31.839  14.917
67239W        W34022  12.636  27.979   1.129
67240W        W34023   2.685  10.691   4.677
67241W        W34024   2.333  23.706  11.848
67242W        W34025  22.233  40.589   1.503
67243W        W34026   2.252  39.618   2.264
67244W        W34027  38.236  43.820  14.370
67245W        W34028  36.535  18.736   2.864
67246W        W34029  26.334   4.897   5.022
67247W        W34030  15.718  12.371   3.633
67248W        W34031  37.492  43.965  11.649
67249W        W34032  34.465  37.886  12.976
67250W        W34033  15.852  33.487   3.771
67251W        W34034  29.144  31.570   3.302
67252W        W34035  44.234  39.873   3.712
67253W        W34036  25.448  41.513   1.808
67254W        W34037   7.948   1.066  11.640
67255W        W34038   0.459  38.845  13.930
67256W        W34039   3.253  23.619  11.168
67257W        W34040  21.158  21.572   1.833
67258W        W34041   4.165  28.954  13.905
67259W        W34042   8.725  22.090  11.226
67260W        W34043   0.194   8.786  11.536
67261W        W34044  12.863   2.592  13.292
67262W        W34045  24.634  25.827  12.662
67263W        W34046  42.482  19.802   4.105
67264W        W34047   5.206  38.482  11.652
67265W        W34048  23.506  27.016   0.604
67266W        W34049  15.903  11.095  12.458
67267W        W34050  21.815  33.523   0.836
67268W        W34051   2.416  14.783   4.755
67269W        W34052  21.020   4.065  11.675
67270W        W34053  15.692   1.332   0.409
67271W        W34054  11.134  10.903  13.657
67272W        W34055   8.988  27.035  12.448
67273W        W34056  11.085   9.495   1.754
67274W        W34057  34.955   7.396  11.682
67275W        W34058  40.890   9.554   0.353
67276W        W34059  16.579  16.159  14.051
67277W        W34060  34.731  33.469   3.059
67278W        W34061  28.996  23.573  11.695
67279W        W34062   3.315   2.819  13.666
67280W        W34063  39.290   5.698   1.911
67281W        W34064  31.870  10.263   0.160
67282W        W34065   8.838  36.374   2.843
67283W        W34066   5.273  23.354  10.918
67284W        W34067  19.516  15.836   2.708
67285W        W34068   9.096  34.456   3.099
67286W        W34069  44.071  22.309  12.423
67287W        W34070  29.019  27.540  13.048
67288W        W34071  16.017  44.793   0.128
67289W        W34072  31.711   4.293   0.586
67290W        W34073  43.750  43.483  14.938
67291W        W34074   7.794   9.600   0.024
67292W        W34075  17.018   7.325   2.286
67293W        W34076   0.069  13.354  11.403
67294W        W34077   5.847  42.944  10.973
67295W        W34078  12.538  24.621  11.118
67296W        W34079  18.254  21.855  14.829
67297W        W34080  28.447  42.449   3.660
67298W        W34081  29.454  42.254   3.675
67299W        W34082  25.013  19.496  12.925
67300W        W34083   7.738  36.390   4.230
67301W        W34084  20.215  26.876   2.800
67302W        W34085  44.846  11.572  11.520
67303W        W34086   4.235  10.115   3.391
67304W        W34087  30.985   3.172  13.828
67305W        W34088  14.825  35.703   0.492
67306W        W34089  25.241   9.847   4.600
67307W        W34090  44.601  22.291  11.645
67308W        W34091  39.148  42.600  12.927
67309W        W34092  31.686  36.141  11.243
67310W        W34093  10.746  28.960  14.549
67311W        W34094   0.354   5.380   4.078
67312W        W34095   4.891  30.569   2.727
67313W        W34096  44.575  38.408  13.398
67314W        W34097  39.386   0.322   2.603
67315W        W34098   8.312  19.500   3.291
67316W        W34099   8.108   1.486  12.950
67317W        W34100  11.250  26.847  10.066
67318W        W34101  25.538  42.440   0.607
67319W        W34102  11.059  26.568   3.259
67320W        W34103  42.354  16.717   2.658
67321W        W34104  11.170  28.451  13.439
67322W        W34105  30.624  10.240   4.538
67323W        W34106  19.275  10.454   0.897
67324W        W34107  16.650  41.018  10.991
67325W        W34108  23.714  43.582   4.517
67326W        W34109  32.354  23.087   4.496
67327W        W34110  44.021  17.639   2.348
67328W        W34111  17.635  36.942   1.154
67329W        W34112   6.935   8.229   0.570
67330W        W34113  13.382  33.071  13.895
67331W        W34114  41.100  42.417  10.633
67332W        W34115   1.448   1.497   0.873
67333W        W34116  29.492  37.946   4.703
67334W        W34117   6.672   2.442  12.548
67335W        W34118  16.292  31.746  14.501
67336W        W34119   1.223  20.516   1.906
67337W        W34120  16.542  30.444   0.841
67338W        W34121   3.224   6.638  14.442
67339W        W34122   3.370  28.042  12.166
67340W        W34123  18.627   6.832  13.766
67341W        W34124  25.904   1.273  11.034
67342W        W34125  38.014   1.746   0.492
67343W        W34126  29.037   4.700  10.740
67344W        W34127  17.011   8.943   0.354
67345W        W34128   7.396  43.985   3.168
67346W        W34129  30.460  31.715   0.737
67347W        W34130   5.371  42.191  14.791
67348W        W34131  12.054  31.858   4.789
67349W        W34132   1.382   8.908   3.856
67350W        W34133  16.210  29.654   3.491
67351W        W34134   8.140  24.578  13.768
67352W        W34135  44.432   8.350  12.616
67353W        W34136   2.457  24.736  13.009
67354W        W34137  31.901  28.589   3.161
67355W        W34138   6.585  11.862  11.127
67356W        W34139  12.128  30.250  12.471
67357W        W34140  33.063   2.760   4.217
67358W        W34141  40.004   9.851   2.480
67359W        W34142  39.563  44.386   3.627
67360W        W34143  14.656  13.754   0.423
67361W        W34144   8.097  28.665   3.641
67362W        W34145  28.573  43.286  11.147
67363W        W34146  30.972  22.490  14.390
67364W        W34147  10.072  43.205  11.692
67365W        W34148  26.415  20.681   0.461
67366W        W34149  24.938  22.715   4.304
67367W        W34150  16.660  40.541  11.913
67368W        W34151  15.732   9.555  13.320
67369W        W34152  42.571  26.724   0.503
67370W        W34153  29.256  39.568  14.354
67371W        W34154  37.739  15.657   1.602
67372W        W34155  15.498   7.163   2.268
67373W        W34156   2.670  22.860  12.442
67374W        W34157  19.643   6.211  12.865
67375W        W34158  20.808  21.558   3.214
67376W        W34159  23.448  30.079  13.513
67377W        W34160  40.416  26.989   3.562
67378W        W34161  22.266  38.906   3.099
67379W        W34162  26.495  31.348  14.951
67380W        W34163  27.992  41.707   2.185
67381W        W34164  27.754  31.507  14.415
67382W        W34165  13.252  40.341   4.182
67383W        W34166  17.505  21.484   2.623
67384W        W34167  41.507  13.194  14.903
67385W        W34168  33.182  14.674   1.437
67386W        W34169  11.633  25.338  12.801
67387W        W34170  37.773  38.098   2.304
67388W        W34171  39.537   2.374   0.558
67389W        W34172  33.142  41.410  12.055
67390W        W34173  38.764  28.084  12.880
67391W        W34174  44.839  12.647   3.621
67392W        W34175  39.718  29.951   3.222
67393W        W34176  33.071  13.308  14.541
67394W        W34177  24.177  35.417   2.132
67395W        W34178  39.510  12.728  11.635
67396W        W34179  39.960  31.389   1.231
67397W        W34180  25.040  24.479   3.250
67398W        W34181  38.993   8.918  11.868
67399W        W34182  16.604  36.755   0.647
67400W        W34183  19.856  38.444   4.059
67401W        W34184  31.566  31.624   2.288
67402W        W34185  13.057   7.944  13.329
67403W        W34186   8.297  12.658   3.600
67404W        W34187  23.814  14.914  11.096
67405W        W34188  13.649  26.144   0.627
67406W        W34189  42.627  25.037   5.136
67407W        W34190   0.166   9.408   2.592
67408W        W34191  38.889  34.438  14.021
67409W        W34192  36.490  35.785   1.828
67410W        W34193  36.938  28.620   4.285
67411W        W34194  27.520   3.683  13.522
67412W        W34195   6.987   6.735  14.847
67413W        W34196  19.261  11.852   3.441
67414W        W34197  24.894  35.495  14.778
67415W        W34198  42.493   4.190   3.889
67416W        W34199   8.001   1.792  13.561
67417W        W34200  15.890  35.982  10.695
67418W        W34201  31.228  27.536   4.435
67419W        W34202  20.662  34.630  12.963
67420W        W34203  32.824  43.345  13.026
67421W        W34204  34.956  13.936  14.059
67422W        W34205  39.929  31.733  14.942
67423W        W34206  33.697  18.049   0.805
67424W        W34207  11.732   9.680   0.174
67425W        W34208   6.481  19.815   2.075
67426W        W34209  17.609   8.063   2.342
67427W        W34210  34.930  22.771   2.312
67428W        W34211  36.912   8.730  11.997
67429W        W34212   7.672   6.921   0.418
67430W        W34213  31.594  43.685   4.778
67431W        W34214  36.879  13.382  11.147
67432W        W34215  25.893  23.695   2.830
67433W        W34216  36.373  36.280   4.967
67434W        W34217  42.529  32.913   2.969
67435W        W34218   6.604  12.120   1.480
67436W        W34219  14.573  12.270  12.381
67437W        W34220  17.385   9.754  11.252
67438W        W34221  44.431  34.095   4.841
67439W        W34222   4.359  27.453  11.030
67440W        W34223   7.390  37.488   2.653
67441W        W34224  32.193   3.517   0.893
67442W        W34225  41.004  39.073   0.680
67443W        W34226   7.876  31.414   0.821
67444W        W34227  24.671   3.691   0.267
67445W        W34228  24.221   8.356  14.744
67446W        W34229  14.525   6.767   2.597
67447W        W34230  28.093  27.845  12.162
67448W        W34231  27.130   8.760   1.005
67449W        W34232  37.563  43.462  12.500
67450W        W34233   4.956  30.121  12.576
67451W        W34234  11.770  18.408  13.863
67452W        W34235  16.724  11.649  12.228
67453W        W34236  37.334  43.432   1.837
67454W        W34237  32.939   3.037  11.560
67455W        W34238  39.099  39.367  12.013
67456W        W34239  25.831  23.366   4.126
67457W        W34240  15.919  16.728   0.437
67458W        W34241  37.099  35.308   3.218
67459W        W34242  20.923  34.506  10.817
67460W        W34243  32.898   4.437   3.216
67461W        W34244  40.388   7.694   4.659
67462W        W34245  11.123  33.612  14.973
67463W        W34246   6.612  12.715   4.120
67464W        W34247  24.073   6.336  10.650
67465W        W34248  15.141   9.811   4.546
67466W        W34249   4.195  20.232   0.489
67467W        W34250  26.671  27.470  14.538
67468W        W34251  12.896  14.508  14.473
67469W        W34252   5.872  22.214   2.706
67470W        W34253  38.902  33.421   5.011
67471W        W34254  43.737   5.340  13.414
67472W        W34255   3.865  16.147   2.395
67473W        W34256  21.114  35.386   2.330
67474W        W34257   0.174  25.565  14.524
67475W        W34258  23.711  25.603  12.603
67476W        W34259  44.489  38.920   4.814
67477W        W34260  39.151   4.844   3.144
67478W        W34261  25.115   1.284  14.735
67479W        W34262  38.065  22.581  11.252
67480W        W34263  18.394  19.302   2.685
67481W        W34264  20.883  31.455   2.388
67482W        W34265  44.038  11.660   0.906
67483W        W34266  39.864   7.084   4.269
67484W        W34267  20.383  15.701   0.367
67485W        W34268  19.208  37.430   3.684
67486W        W34269  15.587   7.082  11.658
67487W        W34270   9.338  25.597   0.478
67488W        W34271   5.051  19.403  11.822
67489W        W34272  12.205   5.302   4.673
67490W        W34273  26.536  40.962   0.753
67491W        W34274  23.990   0.766  11.197
67492W        W34275   1.984  18.824  14.784
67493W        W34276   3.817  27.964  10.981
67494W        W34277  40.609  27.501   1.887
67495W        W34278  36.947  33.570   3.801
67496W        W34279  20.334  20.714   3.934
67497W        W34280  36.057  15.274  10.965
67498W        W34281   8.723  18.321  13.032
67499W        W34282  28.557  10.363  10.644
67500W        W34283  18.520  19.047  14.232
67501W        W34284  24.557  28.599   2.900
67502W        W34285   1.854  20.047   2.258
67503W        W34286  44.304  24.707  10.642
67504W        W34287  35.820  43.914   1.217
67505W        W34288  42.135  24.422  11.105
67506W        W34289  34.330  41.307   3.317
67507W        W34290  40.928  12.543   0.829
67508W        W34291  11.245   7.659   4.572
67509W        W34292  44.841  20.217  11.412
67510W        W34293  41.220   0.406   1.728
67511W        W34294  16.444  30.454   2.919
67512W        W34295  17.621  18.967  11.432
67513W        W34296   8.257  20.270   2.792
67514W        W34297  24.940  20.788   3.199
67515W        W34298   0.606  44.051  13.453
67516W        W34299  40.139  19.890  10.296
67517W        W34300  40.624   1.919  13.465
67518W        W34301  37.306  42.363   1.908
67519W        W34302  43.877  18.177   4.789
67520W        W34303  14.718   0.476  12.972
67521W        W34304   8.600  22.652  10.973
67522W        W34305   8.340  21.972   0.345
67523W        W34306  10.660  24.061  13.141
67524W        W34307  27.657  14.386   2.810
67525W        W34308   4.887  43.897  11.712
67526W        W34309  18.238  37.606  13.789
67527W        W34310   2.955  41.005  14.376
67528W        W34311  26.220  11.569   4.589
67529W        W34312   5.784  25.685  14.999
67530W        W34313  44.727   2.283  14.402
67531W        W34314  28.130   5.919  10.419
67532W        W34315  17.117  11.750   2.076
67533W        W34316  25.420   5.051   4.150
67534W        W34317  27.868  32.596   1.294
67535W        W34318  28.935  24.774  14.417
67536W        W34319  27.516  26.542  12.634
67537W        W34320  15.329   7.806   4.568
67538W        W34321  38.450  13.851   4.502
67539W        W34322  25.942  31.203  11.698
67540W        W34323   8.189  28.179   3.802
67541W        W34324   7.709   3.833  14.538
67542W        W34325  25.010  19.250   3.240
67543W        W34326  34.299  40.792  14.742
67544W        W34327  28.514  34.634  14.136
67545W        W34328  40.600  30.972   0.092
67546W        W34329   2.882  35.415   2.502
67547W        W34330  21.765  41.786  13.947
67548W        W34331  33.855  28.853  14.888
67549W        W34332  11.358  28.445   1.845
67550W        W34333  28.069  44.745   3.112
67551W        W34334  41.807   9.285   2.062
67552W        W34335  20.100  12.611  10.773
67553W        W34336  29.039  38.251  12.526
67554W        W34337   4.151  38.555  13.194
67555W        W34338  25.554  33.238   0.911
67556W        W34339  32.428  13.371  14.047
67557W        W34340  11.946   9.687   3.512
67558W        W34341  18.771  29.654   0.434
67559W        W34342   3.952  12.648   1.460
67560W        W34343   4.511  41.069   0.289
67561W        W34344  42.581  31.948   3.716
67562W        W34345  27.893  19.587   5.014
67563W        W34346   7.171  40.367  12.515
67564W        W34347   3.171  27.371   3.216
67565W        W34348  38.341   3.732  12.129
67566W        W34349  11.361  14.889   4.078
67567W        W34350   2.334  39.595   2.773
67568W        W34351   7.368  33.828   2.677
67569W        W34352  20.818   9.937  14.217
67570W        W34353  18.280   5.400  11.085
67571W        W34354  20.110   2.764  10.253
67572W        W34355  19.212  37.591   0.723
67573W        W34356  20.395  23.602  14.866
67574W        W34357  11.734   6.733  12.484
67575W        W34358  18.849   3.299  12.888
67576W        W34359  14.513  21.287  10.765
67577W        W34360  23.025  17.809  12.551
67578W        W34361  35.751  30.470   2.551
67579W        W34362  19.954  17.288  11.962
67580W        W34363  23.934  14.493   3.116
67581W        W34364  27.381   8.250   0.332
67582W        W34365  13.666  33.386  14.870
67583W        W34366  10.871  30.156  11.957
67584W        W34367  20.201  18.186   3.696
67585W        W34368   9.374  17.744   3.874
67586W        W34369  12.408  23.296  14.582
67587W        W34370  16.853  13.763   1.736
67588W        W34371  22.010  16.820  12.102
67589W        W34372   9.690  34.647  12.609
67590W        W34373  13.686  42.406   0.952
67591W        W34374  10.286  38.465  10.113
67592W        W34375  38.325  26.662  13.310
67593W        W34376   6.168  15.671   3.091
67594W        W34377   4.875  17.742   1.926
67595W        W34378  41.522  15.913   1.030
67596W        W34379  25.033  27.565   1.728
67597W        W34380  42.224  22.907  10.991
67598W        W34381  14.893  44.002   0.004
67599W        W34382  28.030  28.993  12.088
67600W        W34383  13.906  23.035  13.370
67601W        W34384  37.527  28.216   1.314
67602W        W34385  27.433   9.402  11.444
67603W        W34386  22.459  21.291  11.471
67604W        W34387  34.066  25.723  10.725
67605W        W34388  14.050  31.002  11.457
67606W        W34389   3.862  20.053  14.686
67607W        W34390  42.941  11.295  10.035
67608W        W34391  27.557  22.216   4.670
67609W        W34392  24.355  35.587   1.212
67610W        W34393  11.439  18.814   0.839
67611W        W34394  31.995   6.880   0.053
67612W        W34395  35.572  14.689  13.283
67613W        W34396  24.673  20.107   3.174
67614W        W34397  17.673   5.075  12.313
67615W        W34398  21.750   1.199  14.301
67616W        W34399  21.307  13.163   2.822
67617W        W34400  43.947  44.048  13.947
67618W        W34401  14.027  41.774  13.964
67619W        W34402  28.090   6.273  12.589
67620W        W34403  32.896  32.022  12.513
67621W        W34404  18.357  23.154  11.075
67622W        W34405   1.190  26.919  11.340
67623W        W34406  38.965   7.484  13.967
67624W        W34407  11.256  13.677  12.893
67625W        W34408  28.564  23.746   3.845
67626W        W34409   4.787  41.336   4.070
67627W        W34410  17.054  39.472   0.573
67628W        W34411  39.470   3.152   4.657
67629W        W34412   4.500  37.136   3.216
67630W        W34413   4.243  27.559  11.940
67631W        W34414  28.822  42.336   2.230
67632W        W34415  16.488  21.188  13.017
67633W        W34416  43.682  22.687   3.781
67634W        W34417  20.811  29.721   3.741
67635W        W34418   9.146  20.692  13.435
67636W        W34419  33.362  36.417   3.240
67637W        W34420  10.177  20.604  11.034
67638W        W34421  10.831   9.185  14.250
67639W        W34422  42.207   2.741  12.065
67640W        W34423  14.533  38.380   0.262
67641W        W34424  20.606   3.381   1.838
67642W        W34425  26.104  37.937  10.828
67643W        W34426  25.551   6.135  14.799
67644W        W34427  38.552  26.745   3.324
67645W        W34428  11.185  19.598   0.517
67646W        W34429  25.162  33.337   4.383
67647W        W34430   7.880  15.552   3.586
67648W        W34431  44.909  15.177   1.141
67649W        W34432  44.288  41.437  12.037
67650W        W34433  10.632  43.709  14.658
67651W        W34434  22.413  18.299   5.039
67652W        W34435   5.834   4.688  12.991
67653W        W34436  16.917  20.560   2.349
67654W        W34437  27.129   4.990   1.622
67655W        W34438  40.397  16.089   2.374
67656W        W34439  32.531   4.023   4.108
67657W        W34440  25.576  23.518  14.860
67658W        W34441  30.847  13.105  14.861
67659W        W34442  16.774  22.912   4.699
67660W        W34443   5.103  23.685  14.875
67661W        W34444  25.919   6.184   2.279
67662W        W34445   0.285  20.300  14.512
67663W        W34446   2.386  37.454   2.810
67664W        W34447  29.557  22.062  14.317
67665W        W34448  40.320  43.737   2.731
67666W        W34449  26.643  26.195   4.836
67667W        W34450  24.742   8.649  10.770
67668W        W34451  18.111  39.445   1.906
67669W        W34452  23.014  10.622   2.680
67670W        W34453   4.636  32.769   1.591
67671W        W34454  17.531  14.663   2.712
67672W        W34455   1.008  43.205   0.782
67673W        W34456  41.226   7.478   3.205
67674W        W34457  27.202   0.345  11.427
67675W        W34458  40.758  38.247   1.676
67676W        W34459   6.157  40.581  11.465
67677W        W34460   8.916  19.233   1.518
67678W        W34461  20.119  26.049  13.524
67679W        W34462  14.985  12.286  12.065
67680W        W34463   7.168  28.182  11.969
67681W        W34464   4.642  28.079   0.003
67682W        W34465  44.754  19.765  14.826
67683W        W34466  33.720  30.021   2.436
67684W        W34467  15.080  44.373  13.606
67685W        W34468  23.805  44.361   1.437
67686W        W34469  38.521  17.323   4.759
67687W        W34470  24.853  10.624  11.937
67688W        W34471  35.031  16.666   4.676
67689W        W34472  36.705  24.687   0.001
67690W        W34473  31.543   3.959  12.574
67691W        W34474  38.675  18.471   1.228
67692W        W34475  23.610  29.378   0.371
67693W        W34476  15.832  16.637  13.978
67694W        W34477  10.636  37.178   5.025
67695W        W34478  27.133  15.652   3.888
67696W        W34479  14.037   2.531  11.644
67697W        W34480  40.823  38.487  12.539
67698W        W34481  29.935  19.127   2.346
67699W        W34482  28.162   9.805  14.000
67700W        W34483  38.865  22.194   1.718
67701W        W34484  41.039  22.997  14.466
67702W        W34485   7.094  12.347  13.413
67703W        W34486  32.380   8.830  13.471
67704W        W34487  42.530   0.954   2.323
67705W        W34488  19.728   7.881  13.347
67706W        W34489  34.384  12.266  12.953
67707W        W34490   0.462   9.451  11.091
67708W        W34491  22.248  27.520  11.539
67709W        W34492  21.316  22.226   2.608
67710W        W34493  11.827   8.125   0.771
67711W        W34494  12.555  13.664   0.391
67712W        W34495  10.295  28.186  12.947
67713W        W34496  21.563   2.745  11.603
67714W        W34497   6.991  42.980   2.363
67715W        W34498  15.518  16.025   2.968
67716W        W34499  44.909   5.946  10.770
67717W        W34500  14.668  34.889   4.812
67718W        W34501  28.049  35.383   2.304
67719W        W34502  41.360  17.712  12.494
67720W        W34503   2.509  34.484   3.750
67721W        W34504  27.042  32.627  14.017
67722W        W34505  40.593  31.357   0.436
67723W        W34506  14.867   3.038  14.982
67724W        W34507  30.788   3.948   2.316
67725W        W34508  41.775  16.782   1.657
67726W        W34509  20.720  12.322   1.876
67727W        W34510  24.714  20.232   2.284
67728W        W34511  16.714   5.665  14.032
67729W        W34512  12.434  18.116  12.166
67730W        W34513  19.120  42.817  13.938
67731W        W34514  18.003   6.266   2.227
67732W        W34515   7.108  17.292  13.330
67733W        W34516  20.346  21.172   2.702
67734W        W34517  17.620  21.600  10.957
67735W        W34518   7.838  28.183  11.187
67736W        W34519  13.747  13.301  11.181
67737W        W34520  35.356  13.706   2.871
67738W        W34521   7.873  36.846  10.932
67739W        W34522  37.156  33.939  10.972
67740W        W34523   9.032  12.348  11.831
67741W        W34524   5.639  24.689   3.264
67742W        W34525   2.330  16.612   4.570
67743W        W34526  24.570  28.558   1.140
67744W        W34527  20.709  13.764   0.196
67745W        W34528   0.548  25.690   1.216
67746W        W34529  25.515  11.626  11.220
67747W        W34530  28.157  38.378  12.020
67748W        W34531  23.667  22.479  12.349
67749W        W34532  16.229  26.544  11.073
67750W        W34533  21.004  41.132   1.744
67751W        W34534   1.870   8.250  14.020
67752W        W34535  12.385  39.397  12.687
67753W        W34536  37.870  20.129  14.774
67754W        W34537  14.318  19.661  13.331
67755W        W34538  28.572  12.612  10.774
67756W        W34539  37.434  35.263   1.496
67757W        W34540  25.560  18.622  10.660
67758W        W34541   7.502  43.422   1.828
67759W        W34542  44.459   6.836   4.001
67760W        W34543   9.844   2.185  14.092
67761W        W34544   7.436  16.889  13.372
67762W        W34545   5.392  28.935  11.288
67763W        W34546  12.430  20.823   3.154
67764W        W34547  41.361  33.514   1.091
67765W        W34548  23.674  39.779  14.821
67766W        W34549  21.157  19.646  10.672
67767W        W34550  10.412  36.138   3.808
67768W        W34551  29.994  14.924  11.506
67769W        W34552  23.212   9.604  11.211
67770W        W34553  22.683   9.272   2.840
67771W        W34554  31.643  14.158  11.413
67772W        W34555  37.749  43.262  13.910
67773W        W34556   5.670   0.245  11.191
67774W        W34557  27.113  10.957  14.567
67775W        W34558   8.026  16.639  12.545
67776W        W34559   6.183   6.013  13.282
67777W        W34560  13.535  23.108  13.763
67778W        W34561  32.184  39.042   4.884
67779W        W34562  30.437  23.526   1.534
67780W        W34563  37.237  16.725  13.989
67781W        W34564  15.900  19.035  12.110
67782W        W34565   1.207   0.398  10.704
67783W        W34566  36.153  28.203  12.586
67784W        W34567  35.368  23.748  14.125
67785W        W34568  34.797  37.487  11.107
67786W        W34569  34.354  32.413   1.841
67787W        W34570  34.472  40.436   2.238
67788W        W34571  14.290  35.171   0.226
67789W        W34572   1.928  43.762   0.878
67790W        W34573  31.044   7.578   1.687
67791W        W34574   9.386  29.146   0.849
67792W        W34575  42.306  11.257  14.723
67793W        W34576  39.120  12.097  14.947
67794W        W34577  43.497  44.905  11.983
67795W        W34578  24.346  19.544   5.284
67796W        W34579  18.547  25.085  11.965
67797W        W34580   5.174   2.729   2.920
67798W        W34581  35.409   3.080  14.800
67799W        W34582  16.623   7.307  13.836
67800W        W34583  31.243  38.411  12.385
67801W        W34584   3.150  38.185   4.194
67802W        W34585  16.579  14.114  10.872
67803W        W34586   9.878  38.499  10.927
67804W        W34587   1.503  24.425  12.955
67805W        W34588   4.316   4.344   1.399
67806W        W34589  35.435   7.386  10.193
67807W        W34590  35.045  17.842   0.311
67808W        W34591  33.397   5.009  11.713
67809W        W34592   8.376   5.334  12.426
67810W        W34593  16.102  23.205   0.460
67811W        W34594   6.338   7.237   0.014
67812W        W34595  40.822  37.120  10.699
67813W        W34596  38.929  34.015  12.219
67814W        W34597  40.041  22.271  11.029
67815W        W34598   2.142  34.938   4.531
67816W        W34599  34.419  30.138  10.784
67817W        W34600  34.928  36.784   3.743
67818W        W34601  38.569  16.681   2.930
67819W        W34602   1.429  31.205  10.711
67820W        W34603   5.582  11.580  13.153
67821W        W34604  35.940  18.262   4.513
67822W        W34605  35.845  37.986   1.322
67823W        W34606  42.265  10.634   2.031
67824W        W34607  35.971  20.560  14.496
67825W        W34608  17.574  27.939  14.091
67826W        W34609   0.540  42.446   0.942
67827W        W34610  11.711  14.677  11.511
67828W        W34611   7.513   1.936  13.457
67829W        W34612  28.122   4.024   2.603
67830W        W34613  22.511  33.405  14.940
67831W        W34614   4.868  39.731  13.795
67832W        W34615   3.478  23.233   1.703
67833W        W34616  10.712  16.582  10.998
67834W        W34617  31.535  21.718  12.444
67835W        W34618  17.559  20.185  10.796
67836W        W34619   0.322  32.014   3.310
67837W        W34620  10.904  38.650  11.193
67838W        W34621  20.547  24.074   1.658
67839W        W34622  38.899   5.255   2.940
67840W        W34623  16.727  33.454   3.050
67841W        W34624  29.654  44.454   2.144
67842W        W34625  13.371  37.604  12.293
67843W        W34626   2.978  18.162   2.916
67844W        W34627  29.807  32.676  11.280
67845W        W34628   4.234   2.400   4.906
67846W        W34629   2.964  43.291   0.860
67847W        W34630  30.520  26.526   0.449
67848W        W34631  13.615  28.477   1.699
67849W        W34632  13.297  38.426  12.373
67850W        W34633   9.519  17.071  10.143
67851W        W34634  32.441  30.978   3.272
67852W        W34635  25.562  27.936   0.667
67853W        W34636   2.869   3.906  14.694
67854W        W34637  34.043  26.274   3.165
67855W        W34638  26.103   1.269   1.692
67856W        W34639   7.947   1.736  12.203
67857W        W34640   1.085  13.067   2.126
67858W        W34641   7.964  14.063   0.976
67859W        W34642  33.027  41.466   3.695
67860W        W34643   0.999  44.430  13.958
67861W        W34644   1.246  12.343   3.402
67862W        W34645  22.074  26.934   4.046
67863W        W34646  39.364  40.620   0.487
67864W        W34647  20.809  22.131   4.825
67865W        W34648  31.992  14.244   4.104
67866W        W34649  21.485   8.743   4.609
67867W        W34650  24.513  36.013  10.982
67868W        W34651  17.957  41.563  12.383
67869W        W34652   7.537  26.084   3.069
67870W        W34653  39.298  37.405   3.843
67871W        W34654  43.024   0.225  13.714
67872W        W34655  16.292   0.745  13.669
67873W        W34656  11.986   8.423   3.043
67874W        W34657  10.735  44.029   3.326
67875W        W34658  24.622   3.079  13.388
67876W        W34659  35.924   2.782  11.767
67877W        W34660  41.244   5.903   4.011
67878W        W34661   1.006  42.391  14.408
67879W        W34662  34.095  20.285  11.974
67880W        W34663   3.389  39.503  13.889
67881W        W34664  10.193  26.641   3.698
67882W        W34665   7.240  28.261   2.760
67883W        W34666  11.356  42.023  13.374
67884W        W34667  12.394  22.545  11.477
67885W        W34668  36.157  22.591  13.992
67886W        W34669  36.819  14.785   2.311
67887W        W34670  31.606  36.575   0.782
67888W        W34671  17.656   4.817  12.783
67889W        W34672  22.774  11.216  12.611
67890W        W34673  24.891  35.880   3.842
67891W        W34674  37.807   9.447  13.417
67892W        W34675  43.457   6.802  13.430
67893W        W34676  29.412  12.851  11.904
67894W        W34677  44.329  32.187   3.055
67895W        W34678  32.979  21.305  13.936
67896W        W34679   9.880   8.767   2.692
67897W        W34680  32.633  33.587   4.376
67898W        W34681  12.195  28.577  12.491
67899W        W34682   0.785  37.997  12.158
67900W        W34683  15.532  37.830  12.180
67901W        W34684  22.224  33.897   3.005
67902W        W34685  42.933   9.444   3.171
67903W        W34686   6.421  17.566   1.907
67904W        W34687   4.973  39.847   2.964
67905W        W34688  40.038  31.494   1.736
67906W        W34689  37.486   6.835  12.402
67907W        W34690  21.180  34.332  13.504
67908W        W34691  29.504  40.575   3.151
67909W        W34692  10.713  22.966   2.802
67910W        W34693  40.342   2.760   2.193
67911W        W34694  36.364  42.816  11.148
67912W        W34695  24.488   7.969   2.958
67913W        W34696  22.540   1.972   2.833
67914W        W34697  11.409   9.248  13.147
67915W        W34698  43.803   4.326   0.813
67916W        W34699  37.951  29.604   3.899
67917W        W34700  38.424  19.702  13.947
67918W        W34701   5.184  23.686   1.406
67919W        W34702  44.402  39.859   2.671
67920W        W34703  29.052   9.859  12.447
67921W        W34704  10.850   4.231   0.462
67922W        W34705   6.442  34.406  12.126
67923W        W34706  14.327  42.267   4.022
67924W        W34707  18.609   1.711   1.204
67925W        W34708   3.771  44.291   1.399
67926W        W34709  22.159  26.006   3.829
67927W        W34710  15.092  41.839  13.270
67928W        W34711  44.126   1.329  11.691
67929W        W34712  39.574  28.479  11.856
67930W        W34713  12.706  17.480   4.922
67931W        W34714   5.252  43.724  13.963
67932W        W34715  40.314  10.896  14.934
67933W        W34716   9.590  43.337  13.453
67934W        W34717  26.734  14.121  13.995
67935W        W34718  33.659  13.271  11.286
67936W        W34719  19.615  37.054  13.030
67937W        W34720  15.202  27.927   0.974
67938W        W34721  20.481  19.156  13.383
67939W        W34722  22.938  28.649  10.539
67940W        W34723  24.046  18.744  11.347
67941W        W34724  24.056  37.378  12.626
67942W        W34725  29.224  19.005   1.180
67943W        W34726  24.644  19.376  14.119
67944W        W34727  29.312  40.412   3.601
67945W        W34728  19.612  14.840   2.372
67946W        W34729  37.451  39.487  12.366
67947W        W34730  34.400  23.135   0.929
67948W        W34731   0.439  13.113  13.924
67949W        W34732   0.760   0.600   3.556
67950W        W34733  32.844  11.632   2.670
67951W        W34734  44.900  22.510  12.614
67952W        W34735  17.159  20.747  13.456
67953W        W34736   2.099  40.610  12.978
67954W        W34737  10.269  17.435  12.361
67955W        W34738  36.304  23.816   1.168
67956W        W34739  17.065  23.789  11.179
67957W        W34740  16.333  16.625   2.596
67958W        W34741  33.966  37.176   3.217
67959W        W34742   1.437  16.897   3.230
67960W        W34743  28.482  30.808  11.176
67961W        W34744  11.265  10.835   5.157
67962W        W34745   1.466  24.973   3.696
67963W        W34746  40.287   6.485  11.851
67964W        W34747  13.859  10.624  11.133
67965W        W34748  39.036   3.764   1.760
67966W        W34749  28.160   2.634  11.634
67967W        W34750   3.157  27.510  14.026
67968W        W34751  12.942  11.759   0.407
67969W        W34752  24.457  34.802   4.030
67970W        W34753  31.152  11.588  11.055
67971W        W34754  44.934  31.481   1.171
67972W        W34755   9.256   5.009   1.882
67973W        W34756  26.749  29.138   0.333
67974W        W34757  37.927  34.420   1.418
67975W        W34758  41.723   7.948  14.392
67976W        W34759   1.944  14.901   4.528
67977W        W34760  34.990  24.969  11.627
67978W        W34761  43.933  39.923  11.320
67979W        W34762  30.563  21.187   9.968
67980W        W34763  15.726  23.646  12.348
67981W        W34764  35.950  29.874   1.353
67982W        W34765  26.478  23.556  12.860
67983W        W34766  18.962  24.487  14.439
67984W        W34767  16.812  10.793   0.251
67985W        W34768  41.506  31.322   0.424
67986W        W34769  33.443   6.151   2.762
67987W        W34770  21.857  39.242   1.379
67988W        W34771  21.628  11.922  10.471
67989W        W34772   8.911  25.653  11.804
67990W        W34773   0.318  24.618   3.061
67991W        W34774  12.719  44.019   0.740
67992W        W34775   0.112   7.831  12.931
67993W        W34776  37.035  11.918   1.290
67994W        W34777  11.998   3.589  14.978
67995W        W34778   5.283  15.790  12.482
67996W        W34779  40.280   6.752   2.869
67997W        W34780  22.234  15.315   3.858
67998W        W34781  11.204   2.281  13.958
67999W        W34782  17.189  29.630  14.477
68000W        W34783  44.551  34.100  14.743
68001W        W34784  40.333  17.290   2.773
68002W        W34785   7.639  20.059  11.584
68003W        W34786  23.764  11.933   0.037
68004W        W34787  34.107   8.298   0.421
68005W        W34788  21.005  23.553   1.663
68006W        W34789  31.192  20.068  13.049
68007W        W34790  24.922  35.858  12.471
68008W        W34791  36.235   9.676   3.684
68009W        W34792  19.618  31.494   2.941
68010W        W34793  24.556  14.498  13.570
68011W        W34794   0.606  21.156   1.329
68012W        W34795  16.799  29.672   1.351
68013W        W34796  32.036  28.681  13.047
68014W        W34797   9.381  19.548  11.519
68015W        W34798  25.046  10.256   2.933
68016W        W34799  37.830  38.552   3.256
68017W        W34800  28.460  37.794  10.818
68018W        W34801   2.194  12.111  12.415
68019W        W34802  29.390   9.866  14.356
68020W        W34803   5.438   5.218  13.950
68021W        W34804  36.915  20.665   1.192
68022W        W34805  17.147  40.067   0.859
68023W        W34806  21.665  12.889   3.638
68024W        W34807  23.499   2.931  14.399
68025W        W34808  24.550  42.562  13.127
68026W        W34809  31.847  39.517  14.421
68027W        W34810  38.798   4.804   1.867
68028W        W34811  21.060  44.204  11.184
68029W        W34812  40.540  29.192  11.597
68030W        W34813  26.943   2.671   1.223
68031W        W34814  35.870  19.330   4.480
68032W        W34815  37.010  31.606   4.549
68033W        W34816  29.981  36.084   0.545
68034W        W34817  26.941  36.595  14.329
68035W        W34818  24.470  16.124  14.951
68036W        W34819  20.803   6.173   5.049
68037W        W34820  39.741  41.579   3.711
68038W        W34821  36.005  12.101   3.303
68039W        W34822  19.226  33.909   4.624
68040W        W34823  26.699   7.813   4.493
68041W        W34824   8.785  25.112  11.016
68042W        W34825  18.717  34.014   3.692
68043W        W34826   4.758  32.023  11.032
68044W        W34827  25.081  22.010  11.473
68045W        W34828  21.698  43.285  12.591
68046W        W34829  37.516  39.873  10.260
68047W        W34830  32.047   1.076  12.505
68048W        W34831   2.700   6.252   0.258
68049W        W34832  20.195  25.495   2.907
68050W        W34833  33.141  10.220  13.147
68051W        W34834  27.672  35.940   4.140
68052W        W34835  32.652   0.632   1.674
68053W        W34836  16.718  33.309  14.847
68054W        W34837  33.714  34.745   0.948
68055W        W34838  41.919   5.176  10.940
68056W        W34839  35.556  13.862  13.402
68057W        W34840  18.766  15.600   1.009
68058W        W34841   1.443  38.892   1.480
68059W        W34842  41.567  25.280   1.741
68060W        W34843  31.718   2.671   1.580
68061W        W34844  23.252  42.851  10.625
68062W        W34845  26.363  21.525  12.020
68063W        W34846  28.594   7.372   1.430
68064W        W34847  35.802   3.907   2.258
68065W        W34848   0.272   3.520  11.548
68066W        W34849  21.249  18.075   3.716
68067W        W34850  35.298  42.894  12.501
68068W        W34851   3.876  25.933  10.922
68069W        W34852  40.341   4.150  14.016
68070W        W34853  23.079  19.554   4.656
68071W        W34854  43.319  31.390  13.822
68072W        W34855  18.701  19.666  14.892
68073W        W34856  38.117  18.208  10.452
68074W        W34857  19.803  18.189  11.577
68075W        W34858  36.172  34.582  10.839
68076W        W34859  37.278  31.553   0.406
68077W        W34860  34.000  36.046  10.776
68078W        W34861  13.050   0.493   4.267
68079W        W34862  43.572  11.189  12.541
68080W        W34863  11.169  20.141  13.816
68081W        W34864  42.762  17.782  14.512
68082W        W34865  14.327  23.925  12.036
68083W        W34866  41.297  38.774  11.137
68084W        W34867  39.493   7.358   1.329
68085W        W34868  30.737  37.969   4.228
68086W        W34869  15.155   4.805  10.759
68087W        W34870   9.146  38.879  12.496
68088W        W34871  40.732  35.840  10.489
68089W        W34872  38.690   6.452  13.520
68090W        W34873  20.555   4.198   2.300
68091W        W34874  30.051  30.005  11.704
68092W        W34875  38.779  43.148  10.846
68093W        W34876  43.843  16.737   2.835
68094W        W34877   5.440  35.920   3.616
68095W        W34878   5.343   0.418   4.555
68096W        W34879  33.782   9.903   2.425
68097W        W34880  15.593  42.332   2.919
68098W        W34881  33.446  29.456  14.364
68099W        W34882  44.401   8.334   1.189
68100W        W34883  10.638  21.550  11.210
68101W        W34884  17.510  32.492  11.220
68102W        W34885  13.184  35.813   1.166
68103W        W34886  13.011  31.067  11.775
68104W        W34887   9.001  39.064   3.669
68105W        W34888  37.738   3.302  13.983
68106W        W34889  41.549  27.127   0.238
68107W        W34890  33.113  23.511   1.849
68108W        W34891  21.460  32.318  14.026
68109W        W34892  18.780  24.050  10.339
68110W        W34893  28.598  15.324  14.109
68111W        W34894  12.298  29.958   0.893
68112W        W34895  33.474  44.333   2.804
68113W        W34896  35.800  13.012  14.665
68114W        W34897  15.819  29.914   0.289
68115W        W34898  38.339  20.184   2.196
68116W        W34899  43.901  41.485  14.090
68117W        W34900  35.850   1.034   0.354
68118W        W34901  43.981  43.301   3.431
68119W        W34902  22.955  42.861  13.764
68120W        W34903  34.303  40.025  12.055
68121W        W34904  10.604  17.758  14.553
68122W        W34905  28.110  44.457  14.891
68123W        W34906  12.504  20.330  11.302
68124W        W34907  28.666   9.904  12.834
68125W        W34908  12.740  30.458  10.608
68126W        W34909  21.670   3.191   0.919
68127W        W34910  11.799  30.127   0.912
68128W        W34911   1.569  27.747   0.409
68129W        W34912  12.274  33.539  12.435
68130W        W34913  24.287   4.202   3.772
68131W        W34914  37.006  28.160   0.766
68132W        W34915   7.928   4.904  10.612
68133W        W34916  37.598   7.368  10.262
68134W        W34917  25.193  41.766   2.191
68135W        W34918  39.079  29.965   3.844
68136W        W34919   3.957  24.976  12.095
68137W        W34920  24.745  23.068   1.839
68138W        W34921  32.396  38.551  12.790
68139W        W34922  39.306  22.982   3.763
68140W        W34923  27.662  32.035  14.534
68141W        W34924   3.440  32.223  13.153
68142W        W34925  35.718  44.750   3.695
68143W        W34926  26.077  38.771   2.703
68144W        W34927   0.012  16.673   9.986
68145W        W34928  16.816   4.462   3.762
68146W        W34929  27.256  31.450   1.351
68147W        W34930  42.489  40.334   0.915
68148W        W34931  22.816  38.069   0.870
68149W        W34932  20.709  33.410   1.962
68150W        W34933  26.183  37.011   0.959
68151W        W34934  21.997   1.924   3.147
68152W        W34935  15.922  23.287   0.955
68153W        W34936   3.880  16.289  10.909
68154W        W34937  31.877  10.572  13.452
68155W        W34938  27.954  35.953  14.895
68156W        W34939   2.968  31.571   4.546
68157W        W34940  33.191  39.013  11.584
68158W        W34941   6.982  43.159  11.068
68159W        W34942  24.752  15.074   2.702
68160W        W34943  25.589  44.018   3.093
68161W        W34944   0.714   6.745  14.084
68162W        W34945  21.716  40.536  11.115
68163W        W34946   8.239  26.273   1.884
68164W        W34947  22.649   8.836  10.705
68165W        W34948  39.256   5.965   0.434
68166W        W34949  23.196  17.059   0.805
68167W        W34950  38.058  34.463  10.957
68168W        W34951  38.567  24.557  10.563
68169W        W34952  35.321  37.129   1.107
68170W        W34953   0.863   5.260   0.382
68171W        W34954  34.888  27.999  14.004
68172W        W34955   9.331  17.522  14.009
68173W        W34956  24.764  39.362   2.336
68174W        W34957  21.774  38.625  12.440
68175W        W34958  34.504  33.078  11.573
68176W        W34959   4.011  23.122  11.078
68177W        W34960  14.944  21.996  12.956
68178W        W34961  16.018  18.069  12.413
68179W        W34962  11.309  16.966  12.961
68180W        W34963  10.320   2.896  14.981
68181W        W34964  16.648  11.720   1.271
68182W        W34965   8.194  19.954   2.378
68183W        W34966  36.659  15.783   2.786
68184W        W34967  33.773  17.281  10.238
68185W        W34968  34.850  14.153   1.524
68186W        W34969  14.799   0.012   2.779
68187W        W34970   9.481   0.332  12.138
68188W        W34971  27.633  42.079  12.416
68189W        W34972  29.702   9.295   4.190
68190W        W34973  12.416  23.045  11.411
68191W        W34974  24.630  42.094  11.526
68192W        W34975  22.518  13.861  11.169
68193W        W34976  19.523   5.199   1.681
68194W        W34977  18.072  26.475  11.936
68195W        W34978   1.694  30.798   1.983
68196W        W34979  30.044  31.183   3.653
68197W        W34980   9.947   1.317   1.419
68198W        W34981  43.779   6.039   0.353
68199W        W34982  26.168   7.632   1.383
68200W        W34983  40.801  15.532  11.145
68201W        W34984  10.909  19.547   0.065
68202W        W34985  19.892  26.646  13.966
68203W        W34986  21.183   1.825   2.256
68204W        W34987  26.150  12.879   0.750
68205W        W34988   0.711   0.744  11.175
68206W        W34989  42.209  23.226  13.083
68207W        W34990  39.951  23.268   1.420
68208W        W34991  28.410  11.435   0.955
68209W        W34992  33.078  25.501  13.353
68210W        W34993  25.027  28.058   1.960
68211W        W34994  21.859   7.801   3.719
68212W        W34995  26.600  27.193   1.763
68213W        W34996  19.116  37.114   0.410
68214W        W34997  35.920  21.621   2.193
68215W        W34998  14.383  40.547   1.139
68216W        W34999   1.073   6.552   1.761
68217W        W35000  36.083  13.268   0.952
68218W        W35001  19.559  43.375  13.409
68219W        W35002  31.939  19.521   3.772
68220W        W35003  39.075   6.755  14.470
68221W        W35004  27.618  11.560  14.970
68222W        W35005   0.398  23.904  14.772
68223W        W35006  16.648   0.761  14.918
68224W        W35007  25.333   6.270  12.210
68225W        W35008  21.126  28.122  10.717
68226W        W35009  19.904  39.913  11.127
68227W        W35010  37.805  23.729   3.940
68228W        W35011  10.705  22.298  14.594
68229W        W35012  20.066  44.388  13.266
68230W        W35013  33.676  28.496  14.553
68231W        W35014  42.872   5.873  11.990
68232W        W35015  19.710  31.682  13.883
68233W        W35016  20.825   5.350   1.141
68234W        W35017  40.077  13.153  10.733
68235W        W35018  29.421  26.050   3.299
68236W        W35019  39.599  37.341  13.552
68237W        W35020  40.000  17.607   1.157
68238W        W35021  29.558  26.861   1.333
68239W        W35022  33.689   4.959   5.514
68240W        W35023  26.995  35.416  12.901
68241W        W35024  42.770  20.440   1.830
68242W        W35025  12.878   2.420   4.512
68243W        W35026   5.265  15.156   2.153
68244W        W35027  16.234   5.652   1.345
68245W        W35028   4.431  36.997  12.563
68246W        W35029  13.193  18.813   2.789
68247W        W35030   3.806  24.746   1.229
68248W        W35031  26.026  34.887  13.894
68249W        W35032   9.533  31.484  10.793
68250W        W35033  25.410   3.391  11.207
68251W        W35034  28.055   8.854  11.106
68252W        W35035  23.952  37.712  13.031
68253W        W35036   7.443  13.255  10.717
68254W        W35037  44.652  39.002  14.897
68255W        W35038  43.429  44.668  14.222
68256W        W35039  14.932  42.506  10.780
68257W        W35040  31.516  29.180  14.947
68258W        W35041  13.447  20.486   0.357
68259W        W35042  15.864  29.771  12.096
68260W        W35043   2.731  17.335   0.207
68261W        W35044  13.043  41.920  12.833
68262W        W35045  36.207  21.887  13.198
68263W        W35046   7.871  33.623   3.716
68264W        W35047  23.181   3.152   0.813
68265W        W35048  43.816  10.391   3.719
68266W        W35049  15.870  17.460  10.706
68267W        W35050   0.408  31.379  13.825
68268W        W35051   3.340  22.063  11.522
68269W        W35052  10.233   8.800   0.970
68270W        W35053  37.806  14.430   1.884
68271W        W35054  27.974  26.180  11.149
68272W        W35055  36.889  17.291  11.126
68273W        W35056  41.886  11.712   3.066
68274W        W35057  22.412  29.198   0.469
68275W        W35058  40.415  14.370   1.636
68276W        W35059  17.036  43.452  14.797
68277W        W35060  38.966  11.769   4.100
68278W        W35061   1.558  18.035  13.000
68279W        W35062  39.488   7.323   3.350
68280W        W35063  29.486   3.373   1.931
68281W        W35064  14.939  13.136  12.908
68282W        W35065  10.097  11.876  11.007
68283W        W35066  33.811  21.684   3.757
68284W        W35067  23.644   3.497  10.326
68285W        W35068  28.650   7.855   2.895
68286W        W35069  20.757   0.778  10.800
68287W        W35070   2.225  33.540  14.217
68288W        W35071  31.514  36.345   3.643
68289W        W35072  28.720  18.775   4.078
68290W        W35073  27.548   4.304  11.923
68291W        W35074  10.557  20.254   4.138
68292W        W35075   1.480  16.793  11.516
68293W        W35076   9.579   6.124  11.152
68294W        W35077  26.193   6.843   0.381
68295W        W35078   3.727  17.585  14.902
68296W        W35079  19.240  16.075  13.728
68297W        W35080  16.845  33.455  12.023
68298W        W35081  17.180  43.888   0.027
68299W        W35082  13.477  17.352  12.064
68300W        W35083   5.808  32.934  11.442
68301W        W35084  24.209  22.733   3.581
68302W        W35085  30.914  38.934  11.945
68303W        W35086  15.369  19.924   2.851
68304W        W35087  12.776  16.804  13.805
68305W        W35088  43.962  36.123   2.697
68306W        W35089  38.013  41.868   1.350
68307W        W35090  28.192  31.663   1.627
68308W        W35091   7.617   5.209  10.306
68309W        W35092  41.758  18.282   2.481
68310W        W35093  35.144  23.279   3.543
68311W        W35094  33.885  23.252   1.082
68312W        W35095   7.170   5.015  12.975
68313W        W35096  31.593   6.611   5.143
68314W        W35097  27.432  38.521  11.607
68315W        W35098  44.585  15.707   0.255
68316W        W35099  21.227  15.667  12.485
68317W        W35100   9.801   6.150  11.601
68318W        W35101  10.572  43.064  11.708
68319W        W35102  43.346   4.801   3.186
68320W        W35103  10.559   2.343  11.476
68321W        W35104  16.712  26.080  14.861
68322W        W35105  34.741  30.591   4.953
68323W        W35106  23.719  15.436   2.768
68324W        W35107   3.174  17.579   0.821
68325W        W35108  34.431  13.810   0.613
68326W        W35109  22.507  28.193   0.707
68327W        W35110  24.420  37.133  13.444
68328W        W35111  21.472  29.381   1.394
68329W        W35112  33.695  18.126  11.654
68330W        W35113   0.078  34.587  11.553
68331W        W35114  11.681  25.403   4.111
68332W        W35115   1.397  31.605   2.775
68333W        W35116  10.807   9.988   3.045
68334W        W35117  16.713  43.825   4.688
68335W        W35118  35.085   2.958   4.630
68336W        W35119  30.578   7.334   2.657
68337W        W35120   2.367   5.425  13.899
68338W        W35121  18.815   7.736   2.598
68339W        W35122  43.003   1.712  10.714
68340W        W35123  20.344  34.368  10.764
68341W        W35124   7.362  12.599   0.457
68342W        W35125  38.192  13.540  11.583
68343W        W35126  39.939  10.311  12.305
68344W        W35127  24.587  24.860   3.175
68345W        W35128  33.807   5.277   5.100
68346W        W35129  44.283  16.711   1.406
68347W        W35130   1.930  34.086  12.389
68348W        W35131   5.348  11.920   4.802
68349W        W35132  24.503   2.406  12.926
68350W        W35133  22.437  40.778  14.058
68351W        W35134  10.836  25.037   1.790
68352W        W35135  31.645   8.119  13.568
68353W        W35136  43.919  17.201   2.632
68354W        W35137  40.039  23.982  13.863
68355W        W35138  17.177  27.775   4.998
68356W        W35139   0.964   9.552  14.873
68357W        W35140   3.372  38.864   3.678
68358W        W35141  44.540  11.826  10.274
68359W        W35142   7.644  24.666  13.821
68360W        W35143  20.501   2.667   4.982
68361W        W35144  41.208  11.851  14.214
68362W        W35145  41.855  22.663   0.979
68363W        W35146   3.877  43.827   4.048
68364W        W35147  42.287  30.119  10.531
68365W        W35148  37.954   0.767  14.396
68366W        W35149  22.844   4.972   4.773
68367W        W35150  37.639  34.204   2.294
68368W        W35151  17.560  22.122   3.352
68369W        W35152  27.137  13.123   0.748
68370W        W35153  43.486   9.439  13.483
68371W        W35154  23.593  19.079   1.716
68372W        W35155  12.341  42.993  12.245
68373W        W35156  16.195  30.615  10.718
68374W        W35157  16.750  36.610   2.030
68375W        W35158  42.292   2.948   2.833
68376W        W35159  36.307  41.167  11.234
68377W        W35160   9.001  35.707   3.355
68378W        W35161  40.467  34.610   0.721
68379W        W35162  30.050  41.325   3.285
68380W        W35163  16.493   6.865   0.964
68381W        W35164  30.112   0.095   1.890
68382W        W35165   1.695   1.500   0.383
68383W        W35166  10.241  25.145   1.423
68384W        W35167  29.426  29.385  11.620
68385W        W35168  16.746   0.997  11.216
68386W        W35169  17.231  32.878   4.708
68387W        W35170  24.945  19.194  13.341
68388W        W35171   2.302  26.527   2.440
68389W        W35172  11.294  24.085  13.103
68390W        W35173  42.493  14.509   1.710
68391W        W35174  15.992  24.547   0.270
68392W        W35175  28.680   4.012   0.932
68393W        W35176  33.466  35.363  13.417
68394W        W35177   3.486  24.962   4.012
68395W        W35178  17.280  26.550   3.659
68396W        W35179   1.960  43.470  12.981
68397W        W35180  33.134   6.850   3.630
68398W        W35181  13.625   0.367  12.581
68399W        W35182  24.062  43.387   1.785
68400W        W35183  34.386  42.378   0.266
68401W        W35184  43.253  40.804  12.020
68402W        W35185   9.911  33.055  13.941
68403W        W35186  43.754   7.470  11.660
68404W        W35187  24.489  12.314   3.799
68405W        W35188  30.918  27.651  12.345
68406W        W35189  37.383   0.744   3.814
68407W        W35190  19.195  42.565  10.561
68408W        W35191  11.418  23.482  11.427
68409W        W35192  22.625   8.400  12.075
68410W        W35193  25.142  37.609  11.219
68411W        W35194  13.563   9.492  14.539
68412W        W35195   8.238   5.648   3.782
68413W        W35196  12.652  25.470   4.743
68414W        W35197  17.051   5.050   4.486
68415W        W35198  10.028  18.569  11.170
68416W        W35199  32.248  23.678   3.126
68417W        W35200   9.175  29.498  11.084
68418W        W35201  42.460  16.099   5.241
68419W        W35202   9.981  28.052  12.146
68420W        W35203  36.178  28.138   2.392
68421W        W35204   7.699  15.827   0.891
68422W        W35205  26.380  36.012  14.740
68423W        W35206  14.202  29.485   3.548
68424W        W35207  44.487  43.150   3.350
68425W        W35208  21.473  26.250  14.730
68426W        W35209  44.516  18.137   2.734
68427W        W35210   6.262  44.446   0.805
68428W        W35211  26.702  16.531  12.911
68429W        W35212  38.376  13.831   3.080
68430W        W35213   4.687  30.665  14.490
68431W        W35214  35.622  19.181   0.258
68432W        W35215  26.453  18.713   3.717
68433W        W35216  29.973  38.160   4.602
68434W        W35217  29.463  32.741  14.745
68435W        W35218  18.779  33.046   3.275
68436W        W35219  38.980  33.743   1.877
68437W        W35220  23.677  31.424   0.432
68438W        W35221  39.040  35.928   1.456
68439W        W35222  40.756  39.848   4.542
68440W        W35223  20.598   5.321  11.400
68441W        W35224  26.739   2.752   2.279
68442W        W35225  32.872   6.586  11.522
68443W        W35226  11.662  40.720   4.899
68444W        W35227  23.166  42.394  12.617
68445W        W35228  22.857  36.097  11.667
68446W        W35229   2.183   2.973  13.936
68447W        W35230  32.477  16.446  10.803
68448W        W35231   5.900  18.720  14.450
68449W        W35232  15.598  44.611  11.080
68450W        W35233  43.225  22.221   4.078
68451W        W35234  37.887  29.702  12.009
68452W        W35235  30.264  26.742   3.521
68453W        W35236  30.011  37.717  11.239
68454W        W35237  24.880  32.186  10.695
68455W        W35238  24.148  38.938  12.544
68456W        W35239  14.109  22.146   1.964
68457W        W35240   6.821   7.412   4.364
68458W        W35241  11.672  32.420  12.220
68459W        W35242  42.938  39.815   2.218
68460W        W35243  21.028  36.582  10.695
68461W        W35244  33.789   2.845  10.950
68462W        W35245   6.906  36.124   3.720
68463W        W35246  27.861  32.527  10.708
68464W        W35247  17.544  15.467   1.551
68465W        W35248  28.849  15.873   0.842
68466W        W35249  32.323  36.465   3.173
68467W        W35250  12.880   1.404   2.640
68468W        W35251  35.385   9.359  12.997
68469W        W35252  44.456  42.508   2.304
68470W        W35253  20.895  28.867   1.762
68471W        W35254   9.362  32.555  14.249
68472W        W35255  16.794  20.040  13.515
68473W        W35256  33.160  38.655  11.176
68474W        W35257  30.188  15.966   2.215
68475W        W35258  22.015   9.161  11.207
68476W        W35259  16.710  38.475  12.164
68477W        W35260  10.019  37.282  11.960
68478W        W35261  11.883  40.519   1.262
68479W        W35262  43.233   4.571   3.724
68480W        W35263  20.800  23.155   1.967
68481W        W35264  32.677  35.748  10.663
68482W        W35265  27.442  31.973   2.207
68483W        W35266   4.448  30.281  13.853
68484W        W35267  34.441   4.409  10.769
68485W        W35268   1.216  14.807   0.476
68486W        W35269   3.007  31.438  14.632
68487W        W35270  32.691  40.548  11.203
68488W        W35271  44.833   3.519   4.722
68489W        W35272  44.034   3.354  10.904
68490W        W35273  17.417   9.060  12.328
68491W        W35274  39.517  38.925  11.627
68492W        W35275  24.521  24.956  12.500
68493W        W35276  23.178  37.727  14.238
68494W        W35277  13.339  15.603   1.456
68495W        W35278  19.431  30.149   3.655
68496W        W35279  23.234  37.290   4.693
68497W        W35280  25.183  36.517  14.723
68498W        W35281   9.993  33.973   0.399
68499W        W35282  39.108  31.066   0.772
68500W        W35283  10.538   6.334  11.095
68501W        W35284   3.457   0.337   1.716
68502W        W35285  41.363   3.791   1.507
68503W        W35286  44.619   7.868  12.813
68504W        W35287  24.284  40.474   0.523
68505W        W35288  43.368  34.006   0.328
68506W        W35289  31.261  42.753  10.337
68507W        W35290  30.123  43.113  12.808
68508W        W35291   3.367  11.277  11.781
68509W        W35292  39.154  31.152   3.212
68510W        W35293  11.071   5.248  13.288
68511W        W35294  32.444   7.404  12.093
68512W        W35295  26.043  43.351   4.462
68513W        W35296  41.922  19.158  14.400
68514W        W35297  31.841  32.991   2.768
68515W        W35298   7.121   1.268   0.991
68516W        W35299  38.831  18.663  11.083
68517W        W35300  29.549  35.303   1.437
68518W        W35301   0.508  22.470  11.434
68519W        W35302  42.106  26.596   0.703
68520W        W35303  35.372   9.036   5.413
68521W        W35304   7.151  40.483  11.495
68522W        W35305  12.084  17.163  11.828
68523W        W35306  36.533   7.675   2.239
68524W        W35307   0.794  42.504   1.940
68525W        W35308   9.645  27.655   4.420
68526W        W35309  35.772  11.807   0.846
68527W        W35310  23.015  32.840  13.361
68528W        W35311   6.677  34.366   4.108
68529W        W35312  34.166  34.824  12.039
68530W        W35313   3.312   5.849  13.724
68531W        W35314  12.194  25.590   0.967
68532W        W35315  40.330   8.594   2.204
68533W        W35316  18.266   8.199  12.788
68534W        W35317  41.303  22.564   2.073
68535W        W35318  20.834   9.226   1.814
68536W        W35319  32.780  33.432   1.945
68537W        W35320  34.017  33.137   4.648
68538W        W35321  35.963  24.533   2.631
68539W        W35322   6.015   9.308   0.225
68540W        W35323  16.890  34.966  11.261
68541W        W35324  30.955   5.838  10.565
68542W        W35325  40.019  19.239  14.321
68543W        W35326  35.162  21.609   0.244
68544W        W35327  36.942  20.069   0.405
68545W        W35328  29.429  21.268   3.375
68546W        W35329  29.501   8.660   2.117
68547W        W35330   0.597  21.645   3.609
68548W        W35331  29.689  43.846   0.207
68549W        W35332  19.604  20.848  14.880
68550W        W35333  19.281  41.263   1.466
68551W        W35334  36.431  38.931  11.164
68552W        W35335  41.515  22.440   2.768
68553W        W35336   5.645  11.852   0.461
68554W        W35337  11.348   5.318   4.018
68555W        W35338  12.713  17.625   2.806
68556W        W35339  32.917  29.611  10.736
68557W        W35340  27.618  39.130   0.861
68558W        W35341  36.757  27.438   2.574
68559W        W35342  17.855  10.823   3.564
68560W        W35343  31.459  38.137  11.075
68561W        W35344  43.775   8.884  11.639
68562W        W35345   1.022  19.134   3.793
68563W        W35346   3.666  38.625  12.683
68564W        W35347   5.808  29.038   4.053
68565W        W35348  15.393  34.967  11.631
68566W        W35349  28.915  40.921  10.609
68567W        W35350  14.188  40.946   0.869
68568W        W35351  40.615  40.482   0.964
68569W        W35352   5.704  44.039  14.707
68570W        W35353  17.030  34.570  13.782
68571W        W35354   0.852  35.971  10.721
68572W        W35355   6.869  37.659  12.581
68573W        W35356  16.194  32.611   0.393
68574W        W35357  14.075   8.992  13.244
68575W        W35358  36.820  38.855   4.217
68576W        W35359  17.556  23.766  12.453
68577W        W35360   3.224  34.472  11.848
68578W        W35361  20.570  30.670  14.092
68579W        W35362   2.190  40.396  12.516
68580W        W35363  18.758  22.117  10.388
68581W        W35364  28.190   3.776   3.669
68582W        W35365  36.478   6.826   1.795
68583W        W35366   5.433   1.501  10.803
68584W        W35367  20.555  10.379   0.513
68585W        W35368  26.101   8.704   3.123
68586W        W35369  41.451  28.509  13.614
68587W        W35370  17.733  34.641   4.348
68588W        W35371  44.785   4.301   4.530
68589W        W35372  28.898  41.370   3.839
68590W        W35373   6.659  21.651   4.386
68591W        W35374   2.407  25.130  14.458
68592W        W35375   1.181  26.658  14.809
68593W        W35376  26.810  40.906   3.686
68594W        W35377  17.037  11.502  12.604
68595W        W35378  30.440   3.248  10.145
68596W        W35379  11.759   0.085   3.248
68597W        W35380   0.931  16.141   4.395
68598W        W35381  28.441  33.573   0.673
68599W        W35382   5.343  33.961  12.176
68600W        W35383  25.614  37.827   4.682
68601W        W35384  36.795  18.505   2.006
68602W        W35385  31.361  25.268  10.359
68603W        W35386  27.170   1.723  14.724
68604W        W35387  31.054   3.264   1.970
68605W        W35388   4.874  17.536   1.422
68606W        W35389   2.412  34.431  13.687
68607W        W35390  13.759  16.334  12.930
68608W        W35391  33.491  24.573   2.216
68609W        W35392  18.316  21.023   4.057
68610W        W35393  38.949   8.649  13.386
68611W        W35394  14.961  35.140   3.316
68612W        W35395  42.728  13.793   2.600
68613W        W35396  35.128  21.562  13.825
68614W        W35397  14.528  34.565  12.526
68615W        W35398  14.992  13.154  11.839
68616W        W35399  14.381   8.661  11.626
68617W        W35400  39.923  32.714  14.731
68618W        W35401  13.791  13.893  11.574
68619W        W35402  38.304  13.861  14.881
68620W        W35403  18.119   7.244  12.572
68621W        W35404  29.609  20.114  12.167
68622W        W35405  42.179  21.380  12.004
68623W        W35406  27.968  34.974  13.361
68624W        W35407  22.562  40.361   4.465
68625W        W35408  32.004  22.378  13.342
68626W        W35409  21.738   4.272  14.536
68627W        W35410  37.090  26.944   1.239
68628W        W35411  39.397  26.573   1.805
68629W        W35412   5.997  16.137   4.555
68630W        W35413  13.318  28.568  10.829
68631W        W35414  15.027  23.736  10.110
68632W        W35415  41.714  39.383  14.857
68633W        W35416  24.804   5.712   3.215
68634W        W35417  12.066  40.587  11.584
68635W        W35418  44.772  23.539  12.646
68636W        W35419  35.935   1.595  14.812
68637W        W35420  38.740  42.296  12.782
68638W        W35421   8.238  26.544   1.431
68639W        W35422  43.923   3.540   4.251
68640W        W35423  13.270  32.503  10.812
68641W        W35424  38.076  16.792   0.706
68642W        W35425  18.265  14.836  10.618
68643W        W35426  20.813  10.937   3.009
68644W        W35427  31.994  34.173  12.128
68645W        W35428   1.378  21.524  12.145
68646W        W35429  24.664  30.891  10.903
68647W        W35430  25.670   1.840  12.360
68648W        W35431   9.509  27.919   0.380
68649W        W35432  18.759  12.031  12.578
68650W        W35433  25.724  27.589   4.231
68651W        W35434  13.291  20.967   3.199
68652W        W35435  31.688  19.716   5.000
68653W        W35436  10.848   9.619   0.333
68654W        W35437  36.828  34.819  14.424
68655W        W35438  36.541  12.128   4.043
68656W        W35439  34.290  36.585   0.977
68657W        W35440  29.693   8.135  11.596
68658W        W35441  43.863  40.273   2.086
68659W        W35442  18.543  25.948  12.504
68660W        W35443  34.493  43.728   3.757
68661W        W35444  38.557  11.588   3.862
68662W        W35445  38.803   2.106   2.787
68663W        W35446  14.773  42.899   0.730
68664W        W35447  34.345  39.133  12.446
68665W        W35448  21.260  39.863   3.670
68666W        W35449   2.616  23.655  10.079
68667W        W35450  13.149  44.824   0.083
68668W        W35451  22.117  18.143  14.558
68669W        W35452  27.667  29.022   1.456
68670W        W35453   5.501  38.068  10.843
68671W        W35454  42.725  19.736   2.765
68672W        W35455  18.802  20.458   5.156
68673W        W35456   4.906  44.013   3.167
68674W        W35457   2.713  26.182  10.561
68675W        W35458   8.451  34.852   2.559
68676W        W35459  35.005  16.797  13.851
68677W        W35460  23.604  26.618   2.440
68678W        W35461  20.951   1.810  11.179
68679W        W35462  43.376  38.043   3.692
68680W        W35463  22.253  33.141   3.620
68681W        W35464  16.596   4.385  11.624
68682W        W35465  37.311   2.902   4.367
68683W        W35466  28.406  15.276   2.844
68684W        W35467  32.376   8.361  11.992
68685W        W35468  40.639  30.023  14.794
68686W        W35469   7.315   8.947   2.884
68687W        W35470  11.656  30.058  12.422
68688W        W35471  19.502  41.890  11.224
68689W        W35472  33.349  12.533  10.298
68690W        W35473  20.244   4.515   0.409
68691W        W35474   1.799  27.380   2.367
68692W        W35475  22.989  13.738  12.449
68693W        W35476  30.468  32.653   2.842
68694W        W35477  24.628  17.508   3.310
68695W        W35478   5.485   0.734  14.599
68696W        W35479  40.065  26.448  11.148
68697W        W35480  27.079  15.748  13.941
68698W        W35481   8.155  37.368   2.214
68699W        W35482  35.816  24.397  12.164
68700W        W35483  40.412  40.457   9.407
68701W        W35484  14.791   1.485  12.984
68702W        W35485  44.577   8.722  13.046
68703W        W35486  12.280  14.246   1.561
68704W        W35487  31.835  36.451  13.930
68705W        W35488   6.771   5.340  13.539
68706W        W35489  14.243   3.803   5.126
68707W        W35490  10.086   6.247   2.894
68708W        W35491  31.591  30.049  11.900
68709W        W35492  34.970   9.460  11.081
68710W        W35493  23.268   8.629   3.314
68711W        W35494   8.191   1.989   0.255
68712W        W35495  17.946  25.795   0.462
68713W        W35496  22.182   8.241   2.190
68714W        W35497  23.091  23.688  13.863
68715W        W35498   6.741  12.269  14.270
68716W        W35499  15.682  43.364   0.014
68717W        W35500   7.730  17.305  12.890
68718W        W35501  31.552  36.837  13.667
68719W        W35502   3.623  28.722   3.612
68720W        W35503  13.051  37.340  12.594
68721W        W35504  26.945  43.705   2.708
68722W        W35505  20.103   4.160  13.475
68723W        W35506  22.580  31.946  10.593
68724W        W35507  28.985  18.044   3.285
68725W        W35508  13.671  25.725   4.250
68726W        W35509  21.169  26.734  10.717
68727W        W35510   4.704   1.813   3.108
68728W        W35511  30.723   9.974   1.193
68729W        W35512  25.537  40.098   1.442
68730W        W35513  37.426  11.769  11.481
68731W        W35514  29.021  42.824  14.996
68732W        W35515  27.681  13.867   2.751
68733W        W35516  38.644  24.949   1.838
68734W        W35517  37.235   9.697  10.336
68735W        W35518  30.395  34.845  14.152
68736W        W35519   1.740  39.595  13.669
68737W        W35520  17.400  11.525   3.030
68738W        W35521  29.538  10.657   4.591
68739W        W35522  13.889  19.971  12.410
68740W        W35523   5.512  13.044  10.954
68741W        W35524  22.475   9.215  11.471
68742W        W35525  11.839  13.674   9.973
68743W        W35526   3.071  23.471  10.729
68744W        W35527  23.774  36.904   1.113
68745W        W35528  16.582   0.566  11.493
68746W        W35529  24.228  28.503  12.106
68747W        W35530   1.947  16.145   1.512
68748W        W35531  40.957  30.010  10.797
68749W        W35532  39.282  38.810   3.706
68750W        W35533  24.664  43.348   0.797
68751W        W35534  39.409  16.739   1.910
68752W        W35535  16.237   7.353  14.838
68753W        W35536  21.151  30.691   3.070
68754W        W35537  29.412  11.097   3.351
68755W        W35538  22.163   6.623  10.962
68756W        W35539  27.873   2.176  10.475
68757W        W35540  13.652  19.133   1.680
68758W        W35541  33.385   5.367  14.054
68759W        W35542  26.484  20.097  11.484
68760W        W35543  29.960  30.172   3.855
68761W        W35544  29.419   6.406   2.867
68762W        W35545  23.789  17.305  10.627
68763W        W35546  24.646   9.969   0.412
68764W        W35547  41.805   0.844   3.026
68765W        W35548  22.300  30.702   0.463
68766W        W35549  12.821  24.753   3.813
68767W        W35550   4.005  17.043   0.573
68768W        W35551  23.860   1.052  12.657
68769W        W35552  16.051  38.924   4.185
68770W        W35553  37.100  14.338   2.487
68771W        W35554  44.211   0.136   4.362
68772W        W35555  36.798  40.020   2.603
68773W        W35556   2.918   1.484  13.025
68774W        W35557  11.856  15.819   2.878
68775W        W35558  11.248   8.186   1.408
68776W        W35559  12.983   0.984   1.502
68777W        W35560   5.803  27.117   1.074
68778W        W35561  33.977   1.054  11.242
68779W        W35562   1.846  44.647  12.654
68780W        W35563   6.765  38.653  12.668
68781W        W35564   5.985  15.416   1.188
68782W        W35565  22.828   2.399   3.201
68783W        W35566  18.792   7.620  13.470
68784W        W35567   9.303  42.243   1.419
68785W        W35568  34.576  21.503  13.789
68786W        W35569  24.580  32.563   0.748
68787W        W35570  32.399  13.637   0.335
68788W        W35571   8.171  27.937  13.753
68789W        W35572  35.516  15.693   4.564
68790W        W35573  19.413  38.619  14.472
68791W        W35574  14.059  17.181  10.666
68792W        W35575  38.890  39.098  11.200
68793W        W35576   8.990  13.823  14.073
68794W        W35577  26.346  16.978   4.344
68795W        W35578  32.028  29.957  14.963
68796W        W35579  28.448  23.102  11.548
68797W        W35580  17.846  27.843  12.592
68798W        W35581  19.232   4.274   0.637
68799W        W35582  27.108  24.953   4.110
68800W        W35583  41.770   2.013  14.738
68801W        W35584  21.008   8.943   0.844
68802W        W35585  18.164  15.157   0.790
68803W        W35586  11.616  37.993  12.790
68804W        W35587  38.875  37.090  12.531
68805W        W35588  41.467  33.873   3.923
68806W        W35589  43.081  38.042  11.674
68807W        W35590  43.365  31.130  11.706
68808W        W35591  12.741  17.041  12.629
68809W        W35592   8.468  34.010   1.790
68810W        W35593  24.274  44.383  14.804
68811W        W35594  13.298  22.159  12.609
68812W        W35595  44.469  12.086   3.282
68813W        W35596   7.410  23.184  13.502
68814W        W35597  14.183  13.494  13.256
68815W        W35598   6.917   5.417   4.064
68816W        W35599  23.177  24.749   2.760
68817W        W35600  28.523  20.091   4.341
68818W        W35601  27.886  17.826   0.473
68819W        W35602  43.009  17.740   4.527
68820W        W35603  13.631  39.579   1.234
68821W        W35604  31.810  32.194   2.874
68822W        W35605  29.513  33.221  14.906
68823W        W35606  41.423   5.269  12.738
68824W        W35607   5.391  39.478  14.866
68825W        W35608  16.307  18.832   4.704
68826W        W35609   3.204  21.007   3.256
68827W        W35610  31.437  28.455   2.384
68828W        W35611  20.553  14.849   5.118
68829W        W35612  16.972  36.776   4.574
68830W        W35613  23.052  15.987  14.608
68831W        W35614  16.771  23.067   1.638
68832W        W35615  24.141  38.157  11.133
68833W        W35616  21.229  40.631  14.757
68834W        W35617  24.198  39.822   2.831
68835W        W35618   5.440  38.501  11.110
68836W        W35619   5.827   2.767   2.554
68837W        W35620  15.373  36.773  13.335
68838W        W35621  32.966  22.775   5.338
68839W        W35622  40.485  40.960  12.424
68840W        W35623  41.964  12.223   9.883
68841W        W35624  35.876  39.402   3.702
68842W        W35625  11.651  38.323  11.058
68843W        W35626   4.694  11.350  12.280
68844W        W35627  13.666  19.732  11.169
68845W        W35628  30.239  30.527   4.224
68846W        W35629  19.539   7.799  14.460
68847W        W35630  12.726  41.459   4.199
68848W        W35631   6.874   7.894   4.618
68849W        W35632  14.899  36.764  14.925
68850W        W35633  40.002  16.155  12.071
68851W        W35634  30.879  10.254  10.654
68852W        W35635  29.035  42.563  12.770
68853W        W35636  42.007  24.273   4.183
68854W        W35637  21.475  30.575   3.456
68855W        W35638  16.128  14.496   0.252
68856W        W35639  32.564  32.590  14.011
68857W        W35640  13.503  19.052  10.703
68858W        W35641  42.768   8.411   1.338
68859W        W35642  34.429   0.213   2.399
68860W        W35643  20.795  21.987  12.008
68861W        W35644   4.843  20.638   4.344
68862W        W35645  43.540   1.467   0.077
68863W        W35646  40.488  14.265  13.896
68864W        W35647   9.645  35.368   4.727
68865W        W35648  31.023   7.071   2.403
68866W        W35649  24.336   3.266  12.477
68867W        W35650  13.129   9.910   2.753
68868W        W35651  12.743   4.407  12.787
68869W        W35652  28.444   6.721  13.909
68870W        W35653  23.321   9.658  12.953
68871W        W35654  11.658  39.194   4.213
68872W        W35655   0.437   3.242  12.551
68873W        W35656  12.237   4.172  12.905
68874W        W35657  34.524  40.850   3.169
68875W        W35658   2.758  43.567   1.846
68876W        W35659  18.461  40.120   0.704
68877W        W35660  34.623  14.206  14.784
68878W        W35661   3.478   4.936   0.947
68879W        W35662  24.154  37.970   3.788
68880W        W35663  23.291   0.319  10.974
68881W        W35664  32.341   6.320   0.851
68882W        W35665   5.922  24.671  12.080
68883W        W35666  44.605  37.490   2.550
68884W        W35667  13.843  14.609  14.412
68885W        W35668  43.117  35.230   3.653
68886W        W35669  30.021  43.864  13.887
68887W        W35670  12.118   4.415  13.369
68888W        W35671  41.753  35.778   5.343
68889W        W35672  32.184   6.191   1.334
68890W        W35673   1.843  35.063  11.193
68891W        W35674  16.737  44.927  13.320
68892W        W35675  24.230   4.815  13.516
68893W        W35676  31.185   3.165  11.165
68894W        W35677  40.295   9.475  10.319
68895W        W35678  25.934   1.464  11.999
68896W        W35679   8.571  18.502   2.364
68897W        W35680   7.875  32.622  13.623
68898W        W35681  44.646  25.162   5.065
68899W        W35682  17.496  43.205  12.731
68900W        W35683  32.176  14.015   3.682
68901W        W35684  27.476  19.272  12.141
68902W        W35685   0.992  22.381  14.957
68903W        W35686  13.332   0.930   4.700
68904W        W35687  33.022  43.812  13.940
68905W        W35688  18.787  29.469  10.627
68906W        W35689  37.264  39.159   0.970
68907W        W35690  33.597  23.725   1.855
68908W        W35691  10.617   9.456  11.548
68909W        W35692  14.284  29.046   4.151
68910W        W35693  22.484  28.536  10.784
68911W        W35694  15.293  25.839  10.759
68912W        W35695  27.043   5.138  12.516
68913W        W35696  15.080  17.479   1.054
68914W        W35697  36.002  38.787  14.749
68915W        W35698  31.133  15.639   2.479
68916W        W35699  32.133   5.463   4.509
68917W        W35700  28.899  33.917  13.972
68918W        W35701   5.704  35.272   2.890
68919W        W35702  39.478  35.838   1.174
68920W        W35703  13.323  25.551   2.522
68921W        W35704   4.747   3.210  11.626
68922W        W35705  11.018  39.370  13.583
68923W        W35706  27.166  20.242   4.622
68924W        W35707  11.332  15.462  11.866
68925W        W35708  10.792  40.537  12.562
68926W        W35709   5.647  42.810  11.964
68927W        W35710   1.253  40.486   2.160
68928W        W35711   6.006  13.578  13.929
68929W        W35712  20.136  44.197   0.284
68930W        W35713  19.626   3.198  10.601
68931W        W35714  17.307  42.959   0.199
68932W        W35715  16.235  25.636   3.913
68933W        W35716  20.117  23.702   4.228
68934W        W35717  44.004   1.830   4.262
68935W        W35718  29.277  39.783   2.269
68936W        W35719   2.325  37.407  11.942
68937W        W35720  43.299  11.101   2.166
68938W        W35721  30.062   4.136   1.207
68939W        W35722  41.904  24.153   1.249
68940W        W35723  10.103  22.104  12.994
68941W        W35724  22.119  22.975   1.800
68942W        W35725  15.682  18.796   5.036
68943W        W35726  40.819   7.489   2.873
68944W        W35727  32.600  20.514  11.538
68945W        W35728  36.881   8.760  14.965
68946W        W35729  15.825   5.935   1.524
68947W        W35730  38.188  15.120   1.014
68948W        W35731  19.174  42.782  12.954
68949W        W35732   8.269   2.513  11.583
68950W        W35733  26.502  38.784   0.378
68951W        W35734  23.214  39.757  13.633
68952W        W35735   0.970  17.162  14.929
68953W        W35736  11.542  16.272  12.668
68954W        W35737   3.313  22.422   4.025
68955W        W35738  34.460   0.872   0.904
68956W        W35739  15.863  40.397  11.859
68957W        W35740  23.974   7.710  13.582
68958W        W35741   7.871  12.717   1.377
68959W        W35742  17.753  37.927  13.461
68960W        W35743  19.289  30.051  14.337
68961W        W35744   8.009   7.779  13.684
68962W        W35745  40.968   0.261   4.145
68963W        W35746   7.577  20.577   1.314
68964W        W35747  38.280  28.685  13.422
68965W        W35748  28.987  23.110   4.231
68966W        W35749  26.593  42.941  11.947
68967W        W35750  32.139  20.479  12.604
68968W        W35751  15.718  36.446  13.034
68969W        W35752  26.711  41.427  14.076
68970W        W35753   2.932  10.711   1.214
68971W        W35754  39.364  42.252   0.683
68972W        W35755   6.092   4.480   3.256
68973W        W35756   8.700  29.988   1.863
68974W        W35757  28.635  30.154  12.408
68975W        W35758  30.866  40.925   3.434
68976W        W35759  29.463  13.315  13.142
68977W        W35760  10.193  12.565   3.692
68978W        W35761  18.696  31.165   4.193
68979W        W35762   7.266   6.654  10.814
68980W        W35763  41.902  39.768  12.028
68981W        W35764  10.947  32.804  13.514
68982W        W35765  32.637  19.306  12.135
68983W        W35766   0.338   6.553  11.058
68984W        W35767   1.169  44.600   3.616
68985W        W35768  10.569  36.431  13.611
68986W        W35769   5.711  40.368  12.449
68987W        W35770  19.630  14.300  14.755
68988W        W35771  28.701  12.650  13.265
68989W        W35772  22.411  11.342  11.645
68990W        W35773  30.953  38.876   3.204
68991W        W35774  32.213  42.008   3.381
68992W        W35775  29.964  12.395   2.545
68993W        W35776  35.510   3.175  14.286
68994W        W35777   6.892  13.875  12.113
68995W        W35778  23.370  27.129   4.147
68996W        W35779  32.207  34.987  12.496
68997W        W35780  35.969  23.201   0.336
68998W        W35781  20.385  39.755  11.055
68999W        W35782  14.434  32.177   4.995
69000W        W35783  16.358  37.311  12.629
69001W        W35784   2.032  31.495   4.342
69002W        W35785  23.660  19.211   0.282
69003W        W35786   0.322  17.086   2.719
69004W        W35787  26.890  22.820  13.529
69005W        W35788   7.060   0.055  10.485
69006W        W35789  13.659  38.085   2.339
69007W        W35790  18.785  11.539  13.507
69008W        W35791  31.208  13.293   1.679
69009W        W35792   7.387  32.411  14.460
69010W        W35793  25.993  29.741  13.864
69011W        W35794  39.495  12.103  13.489
69012W        W35795  22.646   3.745  14.426
69013W        W35796   4.869  37.483  13.288
69014W        W35797  25.658   9.316  12.613
69015W        W35798  20.157  42.100   3.670
69016W        W35799  40.885   6.978  12.254
69017W        W35800  38.528  17.097   1.333
69018W        W35801  36.640  10.772   4.832
69019W        W35802  37.956  26.581  12.783
69020W        W35803   5.673   5.190   2.531
69021W        W35804  37.872  37.334  11.144
69022W        W35805  33.306  21.776  12.932
69023W        W35806  42.338  43.229   0.913
69024W        W35807  17.048  28.335   3.638
69025W        W35808   4.780  30.434  10.690
69026W        W35809  34.936  10.680   5.216
69027W        W35810   8.789  43.103  12.289
69028W        W35811  20.250  34.296  12.962
69029W        W35812  29.433  17.958  12.009
69030W        W35813  28.272  34.375  13.395
69031W        W35814  43.438   9.246  11.258
69032W        W35815   8.474  39.986   2.855
69033W        W35816   8.562  20.646   4.947
69034W        W35817  40.609   3.355  14.056
69035W        W35818   7.254   9.528   4.820
69036W        W35819  39.402  15.657   2.839
69037W        W35820  15.214  34.177  12.926
69038W        W35821  28.859  27.615   1.144
69039W        W35822  12.195  42.011  12.029
69040W        W35823  19.699  33.356  11.958
69041W        W35824  13.231   4.789  13.480
69042W        W35825   9.208   7.562   1.321
69043W        W35826  28.258  43.935   3.997
69044W        W35827  28.544  35.511   2.373
69045W        W35828  18.816  35.853  14.369
69046W        W35829  29.940   9.389   2.519
69047W        W35830  22.135   8.681  13.533
69048W        W35831  23.119  37.719   3.133
69049W        W35832  35.963  31.050   2.447
69050W        W35833  15.182   6.452  12.309
69051W        W35834  20.493  41.838  14.419
69052W        W35835  21.070  28.724   3.676
69053W        W35836  12.363   3.205   2.596
69054W        W35837  10.076  34.959  11.475
69055W        W35838  40.523  11.038  11.864
69056W        W35839  14.365   0.347   2.705
69057W        W35840  41.904  38.957   4.563
69058W        W35841  16.174  10.820   2.231
69059W        W35842   6.848  39.877   0.629
69060W        W35843  43.262   6.544   5.377
69061W        W35844   8.124  15.241  14.934
69062W        W35845  15.464  24.619   3.481
69063W        W35846   6.063  24.698  14.768
69064W        W35847  37.113   3.568   2.761
69065W        W35848  24.117  15.284  11.540
69066W        W35849   7.288  14.105  12.701
69067W        W35850   6.400  40.943   0.192
69068W        W35851  24.745   2.862  12.949
69069W        W35852   7.881  33.422  11.275
69070W        W35853  43.069  36.308   0.921
69071W        W35854  22.118   8.168   4.883
69072W        W35855  36.195  12.385   1.167
69073W        W35856  35.512  16.211   4.451
69074W        W35857   3.308  37.761   2.619
69075W        W35858  13.306  23.998   1.799
69076W        W35859   9.694   3.013  14.270
69077W        W35860  30.758  27.083  11.687
69078W        W35861  35.374  42.739   1.827
69079W        W35862  39.019  36.441   0.055
69080W        W35863  28.518  10.688   3.109
69081W        W35864  17.371   2.223   0.797
69082W        W35865  17.112  12.346  14.248
69083W        W35866   8.434  43.868   4.850
69084W        W35867   0.676  25.463  14.467
69085W        W35868  31.082  44.746   3.239
69086W        W35869   5.946  44.795   1.282
69087W        W35870  41.951  25.031  14.222
69088W        W35871  37.484  31.498   2.809
69089W        W35872  17.221  11.085  14.996
69090W        W35873  23.515  21.000   1.798
69091W        W35874  11.105  12.680   4.038
69092W        W35875  39.444  41.509  13.490
69093W        W35876  37.990  20.172  12.829
69094W        W35877  43.790  23.863  10.792
69095W        W35878  28.771  39.268  11.038
69096W        W35879  22.949  36.418   4.528
69097W        W35880   9.457  26.170  12.648
69098W        W35881   5.170   6.175  12.115
69099W        W35882  43.836  44.987  14.374
69100W        W35883  15.565   2.863  11.014
69101W        W35884  23.156   8.899  10.843
69102W        W35885  35.652   0.529  13.561
69103W        W35886  43.703  18.186   5.287
69104W        W35887   2.013  44.285   4.018
69105W        W35888  41.319  22.632  11.013
69106W        W35889   1.327  35.510   1.168
69107W        W35890  42.763  10.190  14.234
69108W        W35891  11.642  41.483  11.006
69109W        W35892  25.123  42.028   1.750
69110W        W35893  40.884  22.395  10.890
69111W        W35894  18.516  37.854   1.800
69112W        W35895  17.272  23.976  10.728
69113W        W35896  33.141  35.898  12.866
69114W        W35897  40.390  13.317  14.009
69115W        W35898  18.475  30.277  14.449
69116W        W35899  29.358  36.581   2.741
69117W        W35900  16.342  35.647   4.229
69118W        W35901  23.591   6.664   4.729
69119W        W35902  23.086  21.280  14.868
69120W        W35903  29.570   3.913   1.953
69121W        W35904  43.073  44.481  12.473
69122W        W35905  10.791   2.919  14.653
69123W        W35906   7.634  13.529   0.780
69124W        W35907  32.446  11.249  14.949
69125W        W35908  21.488  19.730  14.268
69126W        W35909   5.743  22.833   4.038
69127W        W35910  28.857   4.543  14.739
69128W        W35911  38.398  18.210  13.117
69129W        W35912  29.029  40.762   1.668
69130W        W35913  19.074   7.982   0.868
69131W        W35914  37.615  41.954   4.307
69132W        W35915  38.863  29.721  12.947
69133W        W35916  22.166   0.963  14.525
69134W        W35917  32.879   4.541  14.001
69135W        W35918  28.486  33.137   0.336
69136W        W35919  30.362  40.033   5.524
69137W        W35920  26.062   4.561   0.341
69138W        W35921  44.539  29.755   3.216
69139W        W35922  40.100  37.760  10.770
69140W        W35923   1.978  11.186  13.451
69141W        W35924  42.303  40.121  14.330
69142W        W35925  38.817  29.569  10.642
69143W        W35926  21.244  27.111  14.021
69144W        W35927   9.332   4.272  13.007
69145W        W35928  13.515  33.903  13.532
69146W        W35929  11.146  21.518  11.915
69147W        W35930   0.855  43.337   3.306
69148W        W35931   6.141  30.832  10.871
69149W        W35932   3.290   1.259  13.319
69150W        W35933  28.579  29.076   3.858
69151W        W35934  29.206  41.641   5.096
69152W        W35935  20.238  40.539   2.767
69153W        W35936  22.545  30.162   4.115
69154W        W35937   3.354  18.356  13.082
69155W        W35938  12.032  26.511  11.103
69156W        W35939  27.246  20.650   2.264
69157W        W35940   5.264  30.041  13.587
69158W        W35941  12.262  31.683   3.312
69159W        W35942  14.427  22.912  13.767
69160W        W35943   3.552  38.515   1.931
69161W        W35944   0.965   9.492   2.277
69162W        W35945   5.445   9.287   0.890
69163W        W35946   4.623  22.517   1.385
69164W        W35947  34.385  41.409   3.835
69165W        W35948  36.962  29.626   2.319
69166W        W35949   6.458  39.074   0.412
69167W        W35950  17.047  35.900   4.523
69168W        W35951  23.947  37.274   5.148
69169W        W35952  33.922  41.385   0.324
69170W        W35953  10.342  32.550   4.631
69171W        W35954   4.524  11.682  10.586
69172W        W35955  13.425  25.242   4.276
69173W        W35956  31.909   4.008   4.711
69174W        W35957  34.138   8.222  14.910
69175W        W35958  27.680  16.980  12.061
69176W        W35959  15.624  27.695   3.222
69177W        W35960  43.308  37.981   0.014
69178W        W35961   5.158  41.171  14.906
69179W        W35962   1.963  44.738  12.165
69180W        W35963   6.420   2.459   1.728
69181W        W35964  12.378  16.120  10.601
69182W        W35965  25.852  25.788   2.522
69183W        W35966  24.755  21.051  11.469
69184W        W35967   4.701  10.658  11.645
69185W        W35968   5.231  21.680  13.997
69186W        W35969   4.213  10.580  13.377
69187W        W35970  33.361  21.583  11.648
69188W        W35971  42.283  36.623  12.065
69189W        W35972  36.561  29.062  12.368
69190W        W35973  15.696   8.310   1.507
69191W        W35974  31.941  13.156  14.964
69192W        W35975  11.817   7.692   1.747
69193W        W35976  41.136  15.863   0.215
69194W        W35977   8.760  27.400  13.575
69195W        W35978  30.117  28.021  12.571
69196W        W35979   6.360   9.782  13.532
69197W        W35980  18.105  36.854   0.928
69198W        W35981  21.135  24.216  10.306
69199W        W35982  29.376  24.594   2.839
69200W        W35983  26.418  38.354   4.194
69201W        W35984  29.235  34.878   0.349
69202W        W35985  12.609  15.763   0.291
69203W        W35986  16.577  24.482   1.661
69204W        W35987  16.841   4.764  14.734
69205W        W35988  33.422  27.623  11.525
69206W        W35989  42.589  44.567   2.388
69207W        W35990  33.295  40.022  12.908
69208W        W35991   0.640  22.219   4.535
69209W        W35992  24.187  12.923   4.162
69210W        W35993  12.715  43.825   2.342
69211W        W35994  43.760  38.214  10.948
69212W        W35995   0.899   7.100  10.426
69213W        W35996  13.676  29.470   4.241
69214W        W35997  25.531   8.761  14.768
69215W        W35998   3.036  11.168   0.916
69216W        W35999   9.644   2.710  12.761
69217W        W36000  23.579   6.799  13.990
69218W        W36001  23.576  32.943  12.814
69219W        W36002  17.129  26.114   2.846
69220W        W36003  15.818  20.237   0.970
69221W        W36004  42.927  33.986   4.529
69222W        W36005  40.944  22.605  11.359
69223W        W36006  42.897  33.528   3.216
69224W        W36007   9.856  23.989   2.765
69225W        W36008  43.766  23.491   0.872
69226W        W36009  17.353  40.277  11.124
69227W        W36010   8.385   6.289   3.172
69228W        W36011  27.123  26.987   1.337
69229W        W36012  31.385  43.885   2.254
69230W        W36013  22.143  41.548   0.187
69231W        W36014  16.632  26.261   2.935
69232W        W36015  40.374  16.288  11.615
69233W        W36016  21.061   0.602  14.728
69234W        W36017  31.344  34.495   0.372
69235W        W36018   4.275   6.401   1.436
69236W        W36019  33.425   7.635  14.768
69237W        W36020   0.286  34.827  12.429
69238W        W36021  29.030  10.348  11.287
69239W        W36022  12.378  22.834   3.610
69240W        W36023  32.155  36.031   1.191
69241W        W36024  39.750  44.033   0.808
69242W        W36025  18.990  25.039  14.276
69243W        W36026  16.862   6.721  11.987
69244W        W36027   6.822  15.082   1.713
69245W        W36028  37.445  41.460   4.444
69246W        W36029  27.232  37.339  13.883
69247W        W36030   9.854  12.559   3.291
69248W        W36031  14.002  27.387  14.283
69249W        W36032   7.380  32.250  13.251
69250W        W36033  13.031   2.358   0.784
69251W        W36034   1.955  40.385   1.135
69252W        W36035  44.252  25.053  13.871
69253W        W36036  39.502  24.280   2.151
69254W        W36037   5.394   6.490  14.352
69255W        W36038  12.831   2.270  14.275
69256W        W36039  19.553  29.962  11.913
69257W        W36040  29.134  14.660  13.227
69258W        W36041   9.286  30.357   0.243
69259W        W36042  13.123  32.111  13.882
69260W        W36043  20.246   4.789  14.943
69261W        W36044  41.922  31.714  12.514
69262W        W36045   1.535  36.681  10.671
69263W        W36046  23.282  43.868  12.853
69264W        W36047  22.549  35.637  11.976
69265W        W36048  28.583  10.305  14.048
69266W        W36049  11.064  12.016  12.222
69267W        W36050  11.410  40.768   0.508
69268W        W36051  27.042  14.433  10.714
69269W        W36052  17.305  28.081  11.990
69270W        W36053  25.310  43.373  13.035
69271W        W36054  18.079  24.896   4.048
69272W        W36055  24.798  16.577   4.643
69273W        W36056  19.583  31.243   2.246
69274W        W36057  15.181  28.538  14.749
69275W        W36058   7.711   2.906  14.423
69276W        W36059  10.052  33.345   4.283
69277W        W36060  17.655  44.549  10.158
69278W        W36061  13.171  24.287   4.521
69279W        W36062   1.304  19.160   1.209
69280W        W36063  42.424   7.222   0.852
69281W        W36064  25.296   8.759  12.440
69282W        W36065  39.339  34.935   1.391
69283W        W36066  37.070  27.388  11.615
69284W        W36067  40.272  32.626   0.797
69285W        W36068  42.274   1.703   0.779
69286W        W36069  28.631  30.303  14.276
69287W        W36070  25.185  42.399   3.539
69288W        W36071  21.101  26.658  11.645
69289W        W36072  25.695  18.655   3.270
69290W        W36073   1.274   1.525   2.734
69291W        W36074  33.852  22.127   4.972
69292W        W36075  43.726  39.421   2.284
69293W        W36076  25.566  12.901   0.012
69294W        W36077   4.190   7.109   3.672
69295W        W36078   6.675  26.576  10.738
69296W        W36079   9.687  10.680  14.467
69297W        W36080  12.238  23.556   1.189
69298W        W36081  18.225  19.693   0.865
69299W        W36082  44.809  14.329  14.877
69300W        W36083   1.964  28.079   0.414
69301W        W36084  33.144  35.442  11.572
69302W        W36085  33.954  21.582   0.425
69303W        W36086   6.419  24.031  12.548
69304W        W36087  29.017  43.668   2.018
69305W        W36088  35.472   3.270  10.151
69306W        W36089  24.069  34.520  13.481
69307W        W36090   6.818   0.271   1.626
69308W        W36091   9.609  33.800  10.759
69309W        W36092   4.479  12.803  11.527
69310W        W36093  11.648   1.021   0.224
69311W        W36094  41.314  28.482   1.879
69312W        W36095  18.153   2.958  11.144
69313W        W36096  17.844  37.325   5.063
69314W        W36097  31.475   5.990  13.372
69315W        W36098   0.345  10.112  12.988
69316W        W36099  27.317  36.802   0.429
69317W        W36100   6.934  31.017   2.201
69318W        W36101  16.287  18.793  11.751
69319W        W36102   2.476  16.208   1.423
69320W        W36103  28.106   2.881  11.180
69321W        W36104  28.252  18.845  11.988
69322W        W36105  15.095  22.072  12.459
69323W        W36106  30.624  25.951   4.561
69324W        W36107  22.168  38.965   4.068
69325W        W36108   4.845   3.013   4.523
69326W        W36109  20.769  31.017   1.260
69327W        W36110  43.561  33.837  14.010
69328W        W36111   3.729  14.077  10.513
69329W        W36112  41.665  33.906  14.905
69330W        W36113  24.243   4.210   2.322
69331W        W36114  32.575  13.159   3.759
69332W        W36115  28.856  33.783  11.178
69333W        W36116  42.398  38.895   4.321
69334W        W36117  17.041  37.424   5.055
69335W        W36118  13.027  26.503   2.877
69336W        W36119  26.497  31.617  12.989
69337W        W36120   6.901  20.707   1.356
69338W        W36121  30.977  42.048  11.205
69339W        W36122  21.015  11.957  11.173
69340W        W36123  19.181  11.892   2.464
69341W        W36124  11.175  39.053   3.312
69342W        W36125   2.861  34.650  13.596
69343W        W36126  21.929  41.570   0.663
69344W        W36127  26.433  25.462   0.386
69345W        W36128  43.307  41.167  11.196
69346W        W36129   1.207  44.086   3.740
69347W        W36130  37.934  12.081  12.502
69348W        W36131  44.873  28.520  13.876
69349W        W36132  17.765  17.653   0.742
69350W        W36133   4.507  40.042  11.150
69351W        W36134  15.861  44.825   0.616
69352W        W36135  22.220  19.339  12.464
69353W        W36136  27.619  19.100   4.854
69354W        W36137  14.180  17.462   0.979
69355W        W36138  31.269  15.396   3.832
69356W        W36139   8.797  21.328   3.705
69357W        W36140  13.270  14.306   1.254
69358W        W36141  26.158  37.078   2.190
69359W        W36142  30.094  41.795   3.116
69360W        W36143  19.218   3.756   3.363
69361W        W36144  41.033  15.265  14.929
69362W        W36145  39.361  35.947   4.167
69363W        W36146  35.931   1.466   3.822
69364W        W36147  29.553  34.951  14.515
69365W        W36148  26.667  36.439   1.806
69366W        W36149  28.474  30.489   3.956
69367W        W36150   6.132  16.254   0.417
69368W        W36151  40.424  16.058   4.159
69369W        W36152   9.292  29.794  13.037
69370W        W36153   9.384  25.986   4.283
69371W        W36154  28.057  11.846  12.426
69372W        W36155  22.927  20.280   3.547
69373W        W36156  34.630   6.482   2.210
69374W        W36157  11.686  20.115  13.929
69375W        W36158  34.423  23.532  11.616
69376W        W36159  29.001  10.120   0.962
69377W        W36160  41.456  40.923   1.216
69378W        W36161  25.672  30.999   3.658
69379W        W36162  38.166  37.639   4.483
69380W        W36163  21.740  36.643  14.883
69381W        W36164  41.887   6.616  12.501
69382W        W36165  40.563  10.208   0.401
69383W        W36166   5.427  13.771   3.208
69384W        W36167  34.594  22.398  10.788
69385W        W36168  15.228  18.216  10.730
69386W        W36169   1.668  39.768  14.533
69387W        W36170  28.193  20.811   0.432
69388W        W36171  24.936  29.971  11.611
69389W        W36172  22.928  44.799  14.854
69390W        W36173   2.473  14.551  11.466
69391W        W36174  15.268  21.632  12.699
69392W        W36175  32.824  17.257  14.250
69393W        W36176   1.955   4.859   0.731
69394W        W36177  10.377   3.348   0.730
69395W        W36178  21.665  33.330  12.093
69396W        W36179  41.281  23.261  11.628
69397W        W36180  19.091  23.720  11.567
69398W        W36181  18.501  32.924   3.745
69399W        W36182  18.668   1.781  10.674
69400W        W36183  43.883  38.197   4.366
69401W        W36184  32.518  33.378  13.508
69402W        W36185  37.421  11.783   0.206
69403W        W36186  22.703  39.443  14.441
69404W        W36187   6.395   4.775  11.466
69405W        W36188   5.664  19.580  13.475
69406W        W36189  33.790   5.343  12.502
69407W        W36190  38.868  15.391  12.596
69408W        W36191  42.277  18.490   0.755
69409W        W36192  25.471  14.339   5.172
69410W        W36193  33.628  33.977  14.680
69411W        W36194  29.484  21.473  14.894
69412W        W36195  14.995   9.917   0.396
69413W        W36196  11.518   3.041  13.886
69414W        W36197  28.567  13.107   4.409
69415W        W36198  16.219  23.782   2.569
69416W        W36199  12.059  35.045  13.440
69417W        W36200  41.342  37.402  12.379
69418W        W36201   2.429  38.490  13.904
69419W        W36202  21.029   2.398   0.769
69420W        W36203  11.114  30.190  13.782
69421W        W36204   6.847  21.200   2.282
69422W        W36205  14.880  11.672   1.038
69423W        W36206  23.094  35.768  11.952
69424W        W36207  27.382  29.524   3.828
69425W        W36208  35.614  39.864  12.519
69426W        W36209  23.564   8.145   1.659
69427W        W36210   2.856  29.086   0.390
69428W        W36211  12.067   8.678   1.867
69429W        W36212  11.405  23.703  12.776
69430W        W36213  24.980  24.915   1.255
69431W        W36214  14.798  12.654   1.133
69432W        W36215  15.380  19.105  12.120
69433W        W36216  27.600  20.965  14.792
69434W        W36217  31.232   1.237   3.396
69435W        W36218  18.650  18.177   4.842
69436W        W36219  27.394  14.131   1.277
69437W        W36220  21.690  12.628  14.020
69438W        W36221  14.863  29.437  12.120
69439W        W36222   1.707   3.328  10.681
69440W        W36223  30.480  30.284  11.666
69441W        W36224  17.660  23.907   2.703
69442W        W36225  17.695  43.223   1.546
69443W        W36226   2.828  37.485  13.583
69444W        W36227  36.883  28.069  10.842
69445W        W36228  11.619  11.114   2.782
69446W        W36229  28.161   4.129   4.920
69447W        W36230  26.125  15.187  13.513
69448W        W36231   4.438  11.456  11.516
69449W        W36232  36.550   1.185  13.489
69450W        W36233  43.887  36.057  13.674
69451W        W36234  17.853  42.010  10.690
69452W        W36235   3.000  36.601  13.383
69453W        W36236  23.931  25.142  11.789
69454W        W36237  28.499  13.565   3.296
69455W        W36238  19.855  40.661  13.884
69456W        W36239  32.658  14.005   2.727
69457W        W36240  34.427   3.709   4.547
69458W        W36241   3.009  17.136   0.600
69459W        W36242  24.156  10.899  12.822
69460W        W36243   5.412   6.949  11.599
69461W        W36244   8.112  11.755   0.586
69462W        W36245  21.589  18.205  12.851
69463W        W36246  22.098  44.903   0.790
69464W        W36247  33.025  43.199  11.642
69465W        W36248  28.049  31.486   4.157
69466W        W36249  38.232  18.732   3.336
69467W        W36250   5.850  20.879  12.503
69468W        W36251  14.316   3.638   2.955
69469W        W36252   4.189  44.041   1.193
69470W        W36253   7.935   7.878  10.910
69471W        W36254  40.410   0.290  10.646
69472W        W36255  21.227  16.652   1.501
69473W        W36256  22.586   0.789   2.116
69474W        W36257  28.159  30.178   3.302
69475W        W36258  10.583  44.369  12.584
69476W        W36259  43.347  20.513   1.841
69477W        W36260   9.686  25.039   4.240
69478W        W36261  24.071  19.245   1.882
69479W        W36262   3.982  30.009   3.680
69480W        W36263   1.378  29.940  14.412
69481W        W36264  14.164  38.783   1.920
69482W        W36265  20.653  36.309  12.008
69483W        W36266  41.888   4.308   2.118
69484W        W36267   6.223   8.002   2.943
69485W        W36268   4.234   0.461  11.590
69486W        W36269  27.012  18.050   2.483
69487W        W36270  26.243  13.339  12.892
69488W        W36271  37.347  13.237   0.279
69489W        W36272  34.451   6.427   4.086
69490W        W36273  10.276   7.210   0.838
69491W        W36274  35.551  20.786  11.038
69492W        W36275  10.383   3.656  10.765
69493W        W36276  42.266  20.674   4.568
69494W        W36277  22.340   9.063  10.354
69495W        W36278  28.062  26.769  14.656
69496W        W36279   4.342   4.437   0.890
69497W        W36280   8.176  35.938  13.484
69498W        W36281   2.450  41.777   0.843
69499W        W36282  38.489   6.348  10.968
69500W        W36283  41.729   8.371  11.311
69501W        W36284   8.159  13.197   0.938
69502W        W36285   7.240   9.184   1.294
69503W        W36286  35.323  31.706   4.653
69504W        W36287  33.357  38.416  11.574
69505W        W36288  28.453  17.098  11.632
69506W        W36289  40.209  42.692   1.924
69507W        W36290   6.209  15.799   1.692
69508W        W36291  17.248  17.336  11.247
69509W        W36292  33.089   8.898  10.861
69510W        W36293  29.038  21.242  11.195
69511W        W36294  43.034  10.353   3.113
69512W        W36295  34.862  43.274  11.946
69513W        W36296  31.616  27.365   0.392
69514W        W36297  30.386  35.790  10.754
69515W        W36298  29.557  12.011   1.705
69516W        W36299  44.869  40.963  12.001
69517W        W36300  22.018  32.591   4.544
69518W        W36301  16.460  14.628   3.707
69519W        W36302  27.856  19.628  12.783
69520W        W36303   1.121  39.311   0.869
69521W        W36304   2.239  39.995   3.078
69522W        W36305  15.088   3.669   2.373
69523W        W36306  40.069  37.035   0.363
69524W        W36307  41.868  38.516  10.654
69525W        W36308   7.675  42.144   3.262
69526W        W36309   4.889  42.470   2.147
69527W        W36310  16.493  23.219  11.001
69528W        W36311  18.676   8.663  11.735
69529W        W36312  26.885  24.850  14.603
69530W        W36313  17.555  33.965  10.528
69531W        W36314   0.258   3.248  14.089
69532W        W36315  15.301  16.860  13.076
69533W        W36316   1.411  13.427  14.788
69534W        W36317  23.895   3.239  12.933
69535W        W36318  32.103  33.664   3.504
69536W        W36319  10.867  10.684   3.640
69537W        W36320  22.916  39.439  14.956
69538W        W36321   4.233  22.089   2.586
69539W        W36322  44.469  37.093  11.949
69540W        W36323  43.261   8.828  11.635
69541W        W36324  23.161  18.152  14.317
69542W        W36325  28.169  33.470   2.588
69543W        W36326  36.860  32.549  12.991
69544W        W36327  11.721  38.902   2.105
69545W        W36328   4.892  26.146   4.208
69546W        W36329  16.790  12.442  12.953
69547W        W36330  26.977  14.066  11.064
69548W        W36331   5.925  12.674   2.439
69549W        W36332  36.837   1.011   2.274
69550W        W36333  38.992  24.133   0.856
69551W        W36334  22.096  18.142  13.446
69552W        W36335  36.117   4.771   3.178
69553W        W36336  11.237  28.138   2.871
69554W        W36337   8.366  11.121  11.469
69555W        W36338  26.394  43.036  13.504
69556W        W36339  27.082   7.586   1.776
69557W        W36340  42.274   3.518  10.614
69558W        W36341  19.280  19.208   1.473
69559W        W36342  21.631  18.335  13.347
69560W        W36343  10.278   2.741  12.859
69561W        W36344  16.832  38.475   3.276
69562W        W36345  22.892  32.967   1.467
69563W        W36346  13.610  19.204   0.362
69564W        W36347  38.927  10.294  13.874
69565W        W36348  36.613  31.542   2.824
69566W        W36349  22.155  24.341  11.912
69567W        W36350  30.910  17.217   2.651
69568W        W36351  19.732   2.183   0.388
69569W        W36352  42.535  20.137   1.023
69570W        W36353  44.307  21.268   1.716
69571W        W36354  24.140  26.915  14.951
69572W        W36355   8.311  42.310   4.598
69573W        W36356   1.821   2.009  11.882
69574W        W36357  30.482  24.231   3.750
69575W        W36358  37.586  42.818  12.109
69576W        W36359  27.798  30.433  11.443
69577W        W36360  21.686  31.470   3.946
69578W        W36361  38.508   9.864  14.791
69579W        W36362  27.520  42.840   1.696
69580W        W36363   9.207  25.951   3.188
69581W        W36364  42.023   6.832   1.229
69582W        W36365  35.410  30.087  12.506
69583W        W36366  31.543   5.078  14.361
69584W        W36367  41.454   0.441  14.271
69585W        W36368  13.220  22.938   3.127
69586W        W36369  28.201  16.026  14.102
69587W        W36370  16.275   3.342   2.710
69588W        W36371   9.059  29.547   0.695
69589W        W36372  44.670   0.816  10.183
69590W        W36373  16.098  26.042   0.313
69591W        W36374   0.534   0.387   2.694
69592W        W36375  40.243   8.636   4.655
69593W        W36376  31.051  33.960   1.321
69594W        W36377  14.516   7.779  12.599
69595W        W36378  17.152   9.593   1.836
69596W        W36379  30.668   6.672   0.384
69597W        W36380   9.188  17.151  14.410
69598W        W36381  32.023  17.739   0.562
69599W        W36382  29.162   3.649  11.657
69600W        W36383  35.079  19.541   4.036
69601W        W36384   9.369  29.144   1.725
69602W        W36385   6.948  41.374  13.969
69603W        W36386  41.464  22.478  13.073
69604W        W36387  29.841   9.209  11.143
69605W        W36388  24.228   3.949   3.329
69606W        W36389  22.785  11.766  14.810
69607W        W36390  34.424  37.214   2.280
69608W        W36391  18.196   3.494   0.298
69609W        W36392  26.890  35.428   0.340
69610W        W36393   9.633  16.567  13.151
69611W        W36394  19.209  22.827  11.986
69612W        W36395   4.051  16.354   4.837
69613W        W36396  14.619   3.811   4.751
69614W        W36397  16.862  28.140   1.434
69615W        W36398  37.950  17.232  12.098
69616W        W36399  29.763  24.759  12.946
69617W        W36400  16.497  26.994   3.851
69618W        W36401  44.417   0.464   0.435
69619W        W36402  15.871  44.208   4.547
69620W        W36403  20.260  44.784  14.587
69621W        W36404  14.794  20.823   3.336
69622W        W36405  21.753  33.824  11.975
69623W        W36406   0.878  27.298  13.689
69624W        W36407  38.059   6.942   2.194
69625W        W36408  13.904  28.699  14.539
69626W        W36409  35.891  30.451  11.069
69627W        W36410  35.898  12.296   4.861
69628W        W36411  21.398  23.455  12.668
69629W        W36412  17.691  16.353   4.995
69630W        W36413  17.147  18.784  11.577
69631W        W36414   9.183  30.074   0.735
69632W        W36415  21.199  11.287   1.844
69633W        W36416  27.704  17.585   4.362
69634W        W36417  21.084  12.101   0.540
69635W        W36418  19.975  18.025   3.251
69636W        W36419  14.287  38.273   2.807
69637W        W36420   6.806  34.408  14.665
69638W        W36421  19.728   4.031  13.782
69639W        W36422  20.722   3.783  14.096
69640W        W36423  18.290   9.235   2.356
69641W        W36424  36.265  41.701  12.560
69642W        W36425  32.982  35.109   2.225
69643W        W36426  14.935  37.477   4.087
69644W        W36427  41.360  26.781  14.291
69645W        W36428  27.222  30.990   1.634
69646W        W36429  14.815  40.467  10.375
69647W        W36430  24.986  41.920  13.195
69648W        W36431  29.880  37.067  10.624
69649W        W36432  19.696  40.935  12.985
69650W        W36433  15.287  35.797  11.287
69651W        W36434  44.389   7.122  13.906
69652W        W36435   5.161   2.408   2.157
69653W        W36436  13.184  21.664   2.620
69654W        W36437   0.209  14.575   4.411
69655W        W36438  43.209  15.073   4.781
69656W        W36439  14.841  15.707  11.523
69657W        W36440   2.330  40.567   1.460
69658W        W36441  31.531  14.474  13.017
69659W        W36442  36.730  17.660   2.343
69660W        W36443  42.583  35.309   3.720
69661W        W36444  25.092  20.660   3.674
69662W        W36445   8.765  30.262   1.412
69663W        W36446  44.806  33.856  10.549
69664W        W36447   3.243  15.784   4.496
69665W        W36448  19.823  26.924   0.452
69666W        W36449  35.991  33.008   1.369
69667W        W36450  23.290  27.574   3.230
69668W        W36451  24.122  16.166   3.692
69669W        W36452   7.614  42.984   3.184
69670W        W36453  21.294   7.420  13.571
69671W        W36454  13.838   1.356   3.591
69672W        W36455   6.211   3.524  10.721
69673W        W36456   8.250   9.306  12.084
69674W        W36457  18.989  31.104   3.686
69675W        W36458  32.550  17.557  13.902
69676W        W36459   8.899   3.461  14.243
69677W        W36460  16.821  25.736  12.929
69678W        W36461  25.208  14.500   0.703
69679W        W36462   3.899  25.437   2.374
69680W        W36463   1.730  23.385   0.197
69681W        W36464   9.062   9.673  14.440
69682W        W36465  23.672  27.490  13.913
69683W        W36466  43.313  44.354   0.511
69684W        W36467  43.903  31.447  14.896
69685W        W36468   4.332  23.005   1.221
69686W        W36469  33.399   3.828   2.749
69687W        W36470  13.794  40.242   0.370
69688W        W36471  40.373  41.127   4.508
69689W        W36472  37.533  13.672   0.521
69690W        W36473   3.775   9.482  14.355
69691W        W36474  24.026  33.928   1.011
69692W        W36475   2.914  30.885   2.714
69693W        W36476   7.754  18.060  10.237
69694W        W36477  19.108   8.700  10.746
69695W        W36478  26.161  11.585  10.633
69696W        W36479   3.145  26.526  14.687
69697W        W36480  35.741  32.008  13.977
69698W        W36481   4.270   3.410   0.994
69699W        W36482  37.907  14.618   3.195
69700W        W36483  10.819  24.527   3.776
69701W        W36484  38.314   1.464   0.834
69702W        W36485  17.154  44.844  10.469
69703W        W36486  16.930  19.869  12.085
69704W        W36487   1.297  21.204  14.003
69705W        W36488  13.820  21.159   1.237
69706W        W36489  26.526   0.971  12.932
69707W        W36490   0.138  13.810  14.066
69708W        W36491   5.402  32.048  12.437
69709W        W36492  40.458   0.139   4.039
69710W        W36493  43.911  23.567  11.227
69711W        W36494   0.258  30.959   4.118
69712W        W36495   4.854  11.911   0.948
69713W        W36496  37.906  11.986   3.704
69714W        W36497   2.027   0.522   1.430
69715W        W36498  33.129  24.859   1.190
69716W        W36499  44.037  41.482  10.814
69717W        W36500  34.071  17.308  14.933
69718W        W36501  30.182  28.648  11.845
69719W        W36502  11.325  26.750   2.851
69720W        W36503  35.628   5.059   1.882
69721W        W36504  28.452   7.739  14.936
69722W        W36505  41.872  35.728   1.755
69723W        W36506  22.247   0.541   3.187
69724W        W36507  15.928  34.018   4.527
69725W        W36508  34.426  19.569  14.313
69726W        W36509   0.671  22.296   1.357
69727W        W36510  26.938  32.095  11.663
69728W        W36511  30.318  27.867  14.927
69729W        W36512   0.500   5.505   2.062
69730W        W36513  24.048  40.768   2.826
69731W        W36514   5.296  39.113   3.800
69732W        W36515  14.328  42.820   1.675
69733W        W36516   2.408  31.694  11.443
69734W        W36517  14.687   3.084  10.163
69735W        W36518  42.469  16.010   4.049
69736W        W36519   7.521  10.318  10.206
69737W        W36520  18.200   2.914   3.191
69738W        W36521  12.400  19.522   3.719
69739W        W36522  23.024  41.323   3.656
69740W        W36523  37.891  32.229   4.024
69741W        W36524  30.267  27.511   3.739
69742W        W36525   7.708  17.103   4.015
69743W        W36526   6.662  25.283   4.562
69744W        W36527  40.276  41.418  14.979
69745W        W36528  12.411  38.099  11.216
69746W        W36529  11.708  23.752  14.446
69747W        W36530  11.606   3.940  14.119
69748W        W36531  38.488   4.318   3.367
69749W        W36532  28.982  39.170   4.053
69750W        W36533  25.163  22.409   5.207
69751W        W36534  10.617  11.271   0.503
69752W        W36535  20.291  26.044   4.577
69753W        W36536  16.097   1.960  10.606
69754W        W36537  27.113  10.636  13.052
69755W        W36538  20.128  24.242   3.343
69756W        W36539   0.521   4.796  13.989
69757W        W36540  42.759  38.219  10.276
69758W        W36541  34.474   2.868  14.767
69759W        W36542  32.403  37.301  13.400
69760W        W36543  12.282  21.608   2.754
69761W        W36544   9.326  16.606  11.157
69762W        W36545  20.426  25.204   0.958
69763W        W36546   2.916   1.013  13.561
69764W        W36547  39.425  15.138   2.085
69765W        W36548  31.419  26.169  13.023
69766W        W36549  10.364   2.017  14.084
69767W        W36550  20.758   3.712   2.722
69768W        W36551  35.024   1.243  11.172
69769W        W36552  28.721  25.203  10.903
69770W        W36553  44.323  31.393  14.090
69771W        W36554  37.800  44.505   2.222
69772W        W36555  43.016  16.191  13.588
69773W        W36556  10.307  31.804   0.760
69774W        W36557   1.390  40.442  14.034
69775W        W36558   5.884  13.263   0.468
69776W        W36559  14.378   9.313  13.536
69777W        W36560  16.052  21.114   2.240
69778W        W36561  20.036  33.052   2.670
69779W        W36562  28.057  32.912  12.972
69780W        W36563  19.660  23.603  12.180
69781W        W36564  35.565  37.517  13.393
69782W        W36565  20.268  24.724   4.404
69783W        W36566  13.222  33.974  12.499
69784W        W36567  24.608  12.527  13.064
69785W        W36568  23.498  22.000   0.026
69786W        W36569   6.215  24.312   5.023
69787W        W36570  34.375   7.340   1.205
69788W        W36571  39.314  20.181   1.819
69789W        W36572  18.784   8.823   4.671
69790W        W36573  24.044  25.159   0.106
69791W        W36574  25.652   2.305   1.464
69792W        W36575  30.623   4.964  12.214
69793W        W36576  19.231  13.184   0.317
69794W        W36577  31.621   2.013  14.804
69795W        W36578  20.923   2.967   1.967
69796W        W36579  33.042  16.615   2.615
69797W        W36580  37.584   1.500   4.292
69798W        W36581  25.279  27.120   0.387
69799W        W36582  36.779  44.564   3.937
69800W        W36583  39.708  43.534   2.245
69801W        W36584  19.735   6.952   1.560
69802W        W36585  24.579  32.837   2.266
69803W        W36586  15.142  10.856  11.019
69804W        W36587  10.119  13.136   2.673
69805W        W36588  32.076   5.122   0.476
69806W        W36589  21.768   1.031  12.418
69807W        W36590  37.575  42.692  13.043
69808W        W36591  35.121  24.125   3.368
69809W        W36592  28.936  23.446   4.632
69810W        W36593   7.619   6.344   3.790
69811W        W36594  15.649   3.757   3.205
69812W        W36595  44.897  41.039   2.862
69813W        W36596   5.936  38.092  13.537
69814W        W36597  41.239  33.457   2.106
69815W        W36598   2.067   9.351   1.786
69816W        W36599  11.658  37.512   4.004
69817W        W36600  15.487   8.655  13.726
69818W        W36601  22.437  23.787  14.325
69819W        W36602  38.863  41.784  10.463
69820W        W36603  24.895  24.139  10.727
69821W        W36604   8.456  19.817   3.679
69822W        W36605  11.458  26.113  11.053
69823W        W36606  17.233  37.298   3.275
69824W        W36607  33.013  19.563   3.718
69825W        W36608  18.419  32.765   2.420
69826W        W36609  33.849  34.231   4.539
69827W        W36610   5.281  43.828  14.896
69828W        W36611   8.041  41.536   0.814
69829W        W36612  25.446  29.463  11.722
69830W        W36613  40.478  21.092  11.533
69831W        W36614  23.104  14.741   0.805
69832W        W36615   8.266  42.542  14.251
69833W        W36616   4.910  31.394  12.714
69834W        W36617   0.323  41.436  10.798
69835W        W36618  21.051   2.110  14.910
69836W        W36619  19.807  36.879   2.146
69837W        W36620  27.180  37.297   0.288
69838W        W36621  43.478  35.028   4.570
69839W        W36622   4.752  17.731  13.887
69840W        W36623   7.222  41.546   4.346
69841W        W36624  17.700  39.842  11.419
69842W        W36625  39.738  41.422   1.389
69843W        W36626  18.753   6.684  12.321
69844W        W36627  27.619  41.006  14.748
69845W        W36628   3.775   8.602   1.336
69846W        W36629  31.475   6.939  10.071
69847W        W36630  11.192  39.865  10.969
69848W        W36631  16.388   3.058   3.122
69849W        W36632  41.394  30.463  12.619
69850W        W36633  42.814  20.261  11.018
69851W        W36634   0.825  11.633   3.202
69852W        W36635  23.574  42.612   2.802
69853W        W36636  32.334  23.201  11.394
69854W        W36637  26.311   4.425  14.898
69855W        W36638  17.844  21.304  13.254
69856W        W36639  44.377  13.578   3.203
69857W        W36640  13.083  38.966   0.908
69858W        W36641  23.974  25.942   0.762
69859W        W36642   7.451  17.260  13.721
69860W        W36643  18.252  16.385  10.268
69861W        W36644  30.876  35.460   1.180
69862W        W36645  30.166  30.051  14.412
69863W        W36646  39.737  40.985  12.105
69864W        W36647  26.779  15.153  13.130
69865W        W36648  11.688   1.211   4.070
69866W        W36649   0.933  15.162  12.362
69867W        W36650  23.290  36.516   2.805
69868W        W36651   4.539  22.517  11.046
69869W        W36652   7.828   7.250   2.369
69870W        W36653  41.945  40.895  13.319
69871W        W36654  30.041  11.671  10.758
69872W        W36655  16.047  37.482  14.270
69873W        W36656  22.760  17.485  11.944
69874W        W36657  35.047  28.883  10.792
69875W        W36658  35.109   6.702  12.438
69876W        W36659  19.634  30.430  14.360
69877W        W36660   2.441  31.040  12.583
69878W        W36661   3.775  11.204   3.767
69879W        W36662  38.102   0.148   0.838
69880W        W36663  19.127  42.244   0.683
69881W        W36664   0.245  20.630   0.801
69882W        W36665  35.105  32.106   0.914
69883W        W36666   0.536  12.007  11.611
69884W        W36667   5.933   7.641  12.942
69885W        W36668  35.407   6.748  14.019
69886W        W36669  16.393  18.773   1.962
69887W        W36670  13.225  20.980  13.177
69888W        W36671  16.529   9.138   2.229
69889W        W36672  11.220  37.610  13.995
69890W        W36673  44.997  19.125   2.730
69891W        W36674  12.368   1.646  12.135
69892W        W36675  15.085  22.681  13.825
69893W        W36676   1.139   5.953  11.188
69894W        W36677  14.280  31.779   3.329
69895W        W36678  43.870   5.494   4.201
69896W        W36679  22.504  24.511   2.193
69897W        W36680   4.774  36.382  12.476
69898W        W36681  25.999  34.441  10.986
69899W        W36682  28.385  28.584  11.163
69900W        W36683  44.976   9.016   4.002
69901W        W36684  16.778  39.862  10.597
69902W        W36685   0.457  20.924   0.424
69903W        W36686  29.567  29.873   0.232
69904W        W36687  19.637  33.152  12.416
69905W        W36688   2.006  30.901   3.770
69906W        W36689   7.377  41.325  14.808
69907W        W36690   2.166   0.267   3.649
69908W        W36691   8.284  15.582   2.908
69909W        W36692  29.212  28.679  10.925
69910W        W36693  21.039  23.236  11.410
69911W        W36694  22.583  20.795  11.704
69912W        W36695  44.028  30.014  13.763
69913W        W36696  23.622   5.325  12.558
69914W        W36697  40.881  37.570  12.582
69915W        W36698  17.636  42.784   1.834
69916W        W36699   0.861   1.454  12.798
69917W        W36700  40.798  33.958   0.333
69918W        W36701  43.338  43.031   3.264
69919W        W36702  29.627  44.885  10.854
69920W        W36703  20.844   2.215  11.441
69921W        W36704   8.866  39.591  12.572
69922W        W36705   2.047  23.563   4.224
69923W        W36706  30.904   8.359  11.995
69924W        W36707  38.301  40.855  12.607
69925W        W36708  18.118  29.116   1.769
69926W        W36709  36.703   3.734   4.162
69927W        W36710  18.390  28.708   0.197
69928W        W36711  25.276  36.465  13.931
69929W        W36712  40.758  35.749  13.982
69930W        W36713   6.413   8.241   0.514
69931W        W36714  20.619  40.439  13.085
69932W        W36715  21.080  41.951  13.595
69933W        W36716   7.610  12.903   4.122
69934W        W36717  42.163  32.460  11.627
69935W        W36718  43.794  25.907   0.889
69936W        W36719  40.081  26.146   1.438
69937W        W36720  33.043  44.184   0.967
69938W        W36721  39.762  13.708  11.448
69939W        W36722   3.842   5.200  11.955
69940W        W36723   3.217  31.008   1.819
69941W        W36724   6.439  25.927   3.659
69942W        W36725  16.726  13.329  14.919
69943W        W36726  13.181  35.754   4.147
69944W        W36727  36.975  11.927  12.175
69945W        W36728   4.001  31.018   0.625
69946W        W36729  36.338  31.560  14.436
69947W        W36730   5.355   4.472  11.165
69948W        W36731  32.889  15.816   4.925
69949W        W36732   0.531   0.913   2.579
69950W        W36733  28.754   4.333  12.989
69951W        W36734  29.188  37.915   4.258
69952W        W36735  20.092   0.760  14.471
69953W        W36736   8.832  10.383  14.777
69954W        W36737  10.636  19.016   1.949
69955W        W36738  28.158  21.339   1.380
69956W        W36739  38.338  23.755   0.427
69957W        W36740  22.597  29.069   4.843
69958W        W36741  24.067  13.801   0.700
69959W        W36742   6.414  10.486  12.954
69960W        W36743  12.775  16.159  11.498
69961W        W36744  30.669  13.552  13.108
69962W        W36745  41.430   5.241   2.320
69963W        W36746  18.616  14.415   2.093
69964W        W36747  23.773   9.372   0.772
69965W        W36748  42.071  22.006   4.453
69966W        W36749  10.415  41.592  13.559
69967W        W36750  20.573  41.305   0.963
69968W        W36751  24.741  42.820  12.121
69969W        W36752  14.834  31.584  12.543
69970W        W36753  26.033   6.773   3.660
69971W        W36754  39.796   8.818  14.084
69972W        W36755  23.980  18.197  11.943
69973W        W36756  27.210  14.083   2.811
69974W        W36757  16.072   1.746   1.182
69975W        W36758  16.636   6.896   1.891
69976W        W36759  35.057  27.269  12.066
69977W        W36760   6.287  29.616  14.397
69978W        W36761  31.978   0.266   3.018
69979W        W36762   2.221  41.897  14.688
69980W        W36763  31.016  15.686  11.421
69981W        W36764  18.467  24.667   0.442
69982W        W36765  11.005  27.612   4.522
69983W        W36766   4.708  11.270  13.311
69984W        W36767   3.813   2.847   0.493
69985W        W36768  19.836  36.513   1.788
69986W        W36769   1.996  14.427  11.578
69987W        W36770  36.951  37.379  14.569
69988W        W36771  36.115  30.806  14.401
69989W        W36772   3.148   2.216   0.453
69990W        W36773  23.667   6.813   1.531
69991W        W36774  19.115  33.615   0.540
69992W        W36775   3.722   1.728   3.767
69993W        W36776  33.054  11.343  13.261
69994W        W36777  31.866  44.044   2.272
69995W        W36778  23.210   6.706  12.834
69996W        W36779  17.037  35.360  13.413
69997W        W36780  19.385  29.934   2.900
69998W        W36781  36.866   2.118  11.950
69999W        W36782  43.039  31.541  14.631
70000W        W36783   7.759  20.077   3.584
70001W        W36784  22.049  25.279  12.253
70002W        W36785   4.402   8.761   2.929
70003W        W36786  35.485  38.915   3.190
70004W        W36787  19.346  42.029   4.226
70005W        W36788  25.932   2.412  13.581
70006W        W36789   3.320   5.306  12.002
70007W        W36790  16.137  20.618   4.296
70008W        W36791  40.927   1.966   0.240
70009W        W36792  12.086  36.134   1.228
70010W        W36793   9.310  35.612   1.999
70011W        W36794  29.387   1.233   4.176
70012W        W36795  32.396  13.732  11.135
70013W        W36796  15.704   8.388  12.026
70014W        W36797  36.596  14.061   4.057
70015W        W36798  28.196  38.772   3.680
70016W        W36799  40.103   3.174  14.003
70017W        W36800  42.361  11.130   2.131
70018W        W36801  33.493  43.228  10.588
70019W        W36802  37.794  15.306  11.696
70020W        W36803   7.877  34.158  10.610
70021W        W36804  21.327  20.981   2.797
70022W        W36805  31.820   8.615  13.574
70023W        W36806   2.402  25.190   0.956
70024W        W36807  39.888   6.568   1.181
70025W        W36808  36.971  38.583  13.440
70026W        W36809   4.312  39.079  13.005
70027W        W36810  43.950   6.901   0.533
70028W        W36811  40.831  26.742   3.789
70029W        W36812  10.952  41.909   3.185
70030W        W36813  18.672  10.073   2.339
70031W        W36814  10.492  24.942   3.827
70032W        W36815  15.842   2.900  12.353
70033W        W36816  10.651  43.483  12.508
70034W        W36817  33.493   3.223  11.152
70035W        W36818   2.940  33.502  11.917
70036W        W36819  42.132  26.199   1.719
70037W        W36820  24.127  35.969   3.841
70038W        W36821  11.763  36.720   3.622
70039W        W36822  12.426  44.398   0.558
70040W        W36823  35.799  26.479  14.535
70041W        W36824  27.148  23.192   1.941
70042W        W36825  30.374  34.211   2.667
70043W        W36826  20.057   8.724  10.712
70044W        W36827  43.989  39.750   1.946
70045W        W36828  44.484   4.185   3.261
70046W        W36829  14.772  17.819  11.887
70047W        W36830  41.058   6.379   9.805
70048W        W36831  24.078  11.605   0.872
70049W        W36832  28.084  21.029   2.251
70050W        W36833  43.550  40.920  11.589
70051W        W36834  24.633  23.830   3.676
70052W        W36835  20.202  20.595   2.505
70053W        W36836  23.447  16.879  11.988
70054W        W36837  19.049  15.543  12.409
70055W        W36838  26.599  37.925  10.031
70056W        W36839  37.294  44.282   1.360
70057W        W36840  37.501  35.604  12.301
70058W        W36841   6.521   3.292  12.039
70059W        W36842   8.885  14.320  13.117
70060W        W36843  43.607   9.316   4.375
70061W        W36844  29.668  23.647  11.454
70062W        W36845   6.119  26.190   4.038
70063W        W36846   1.769  38.324   0.306
70064W        W36847   0.765   6.750  14.948
70065W        W36848   9.378   6.808   1.630
70066W        W36849  41.946   1.136   1.299
70067W        W36850  26.226  25.449   2.401
70068W        W36851  31.441  24.199   2.300
70069W        W36852  20.696   9.742  12.102
70070W        W36853  41.730  42.720  13.846
70071W        W36854  43.544  39.859  13.566
70072W        W36855  17.054  41.095   2.474
70073W        W36856  36.978  21.247  13.791
70074W        W36857  35.802  33.012  11.230
70075W        W36858  21.195   5.714  12.156
70076W        W36859   1.973  27.588  10.743
70077W        W36860  28.965   0.962   2.828
70078W        W36861   3.536   0.379   0.422
70079W        W36862  22.888  28.898  10.012
70080W        W36863  43.783  29.694   0.367
70081W        W36864   7.691  17.564  11.593
70082W        W36865   7.353   5.431  12.738
70083W        W36866   7.764  18.120   3.267
70084W        W36867   2.997  31.121   0.021
70085W        W36868  31.545   6.268  14.170
70086W        W36869  37.430   4.949  14.801
70087W        W36870   7.350  22.589   4.529
70088W        W36871  21.067  24.647   9.985
70089W        W36872  39.520   2.072  13.098
70090W        W36873   1.885  41.651   3.394
70091W        W36874  32.042   4.736   0.097
70092W        W36875  36.894  37.438   2.798
70093W        W36876   9.299  21.014   4.539
70094W        W36877  20.399  15.096  13.966
70095W        W36878  39.860  32.494   2.103
70096W        W36879  41.106  12.093  14.908
70097W        W36880  44.209  19.773  12.560
70098W        W36881  17.307  44.246   4.172
70099W        W36882  22.134   7.873  13.988
70100W        W36883  39.647  25.671   2.441
70101W        W36884  43.466  43.062   4.121
70102W        W36885  37.047  12.924   0.858
70103W        W36886  44.249  22.419  10.648
70104W        W36887  34.528  17.194   4.100
70105W        W36888  23.499   8.284  12.074
70106W        W36889  25.049  18.693   0.475
70107W        W36890  17.609  20.688   4.486
70108W        W36891  10.405   8.655   2.378
70109W        W36892  19.895   0.218   0.950
70110W        W36893  37.016   5.613   2.862
70111W        W36894  20.162  30.021  11.052
70112W        W36895  30.050  19.558  12.322
70113W        W36896  24.932  33.563  12.302
70114W        W36897  29.956  11.171  14.953
70115W        W36898   6.883  22.546   0.759
70116W        W36899   5.480  38.755   4.141
70117W        W36900   9.167  25.383  10.687
70118W        W36901  26.010  27.122  13.456
70119W        W36902  19.976  44.268  10.321
70120W        W36903  33.819  21.192  14.285
70121W        W36904  44.556  14.806  14.090
70122W        W36905  29.576   8.255  14.015
70123W        W36906  28.704   3.693   1.888
70124W        W36907  27.195  33.619   1.923
70125W        W36908  31.393  40.358  12.614
70126W        W36909  30.315  14.540   1.800
70127W        W36910  22.570  36.112  13.027
70128W        W36911  29.603  13.908   3.534
70129W        W36912   4.951  35.588  11.759
70130W        W36913  11.718  12.219  11.610
70131W        W36914  13.811   3.883  12.108
70132W        W36915   6.792  35.329   1.447
70133W        W36916  33.366  14.863  13.919
70134W        W36917  43.918  16.775  10.606
70135W        W36918   4.739  15.165  14.360
70136W        W36919   6.298  29.289   2.172
70137W        W36920   6.323  12.238  12.898
70138W        W36921  11.203   7.372   0.314
70139W        W36922   8.396  40.408  14.422
70140W        W36923  33.324  32.307   1.227
70141W        W36924  20.833  22.511  12.750
70142W        W36925  13.551  20.237  11.207
70143W        W36926  29.130   6.742   1.230
70144W        W36927  36.565  24.452  14.558
70145W        W36928  33.027  27.177   0.855
70146W        W36929  32.379  26.416  11.113
70147W        W36930   1.032  19.233   0.758
70148W        W36931  29.747  24.586   2.342
70149W        W36932  22.503  19.639   3.790
70150W        W36933  12.100   1.248  12.377
70151W        W36934  16.344  12.316  13.841
70152W        W36935   4.233  16.588   3.839
70153W        W36936  24.959  34.928  11.590
70154W        W36937  13.624  28.662   2.557
70155W        W36938  14.056  29.431  12.471
70156W        W36939  10.264  29.864  14.321
70157W        W36940  19.725  25.557   3.124
70158W        W36941  25.657  12.556  13.768
70159W        W36942   2.618   3.849  11.945
70160W        W36943  11.864   7.131   3.937
70161W        W36944   8.151  23.536   2.423
70162W        W36945   7.865  27.581   0.860
70163W        W36946  22.977  37.455   5.116
70164W        W36947  17.533  43.581   1.871
70165W        W36948   3.870  17.737   1.673
70166W        W36949  32.803  41.949  14.977
70167W        W36950  18.431  21.368   1.920
70168W        W36951  24.507  25.563  11.716
70169W        W36952  35.452  36.022   0.688
70170W        W36953  44.743   3.793  13.496
70171W        W36954  27.335  27.317  11.086
70172W        W36955  32.844  16.118   3.646
70173W        W36956  36.099  39.858  14.788
70174W        W36957   9.296  39.754   0.020
70175W        W36958  39.830   7.896  10.669
70176W        W36959  20.380  30.133  11.512
70177W        W36960   9.273  42.678   0.812
70178W        W36961   4.453  37.379   0.185
70179W        W36962  41.225   7.697   3.666
70180W        W36963  31.221  35.591  14.124
70181W        W36964  44.549  36.833   0.383
70182W        W36965  21.247   8.395   2.163
70183W        W36966   2.482  24.234   3.772
70184W        W36967  27.236  39.875   2.165
70185W        W36968  40.085  11.406   0.855
70186W        W36969   4.736  17.169  11.267
70187W        W36970  12.363  28.145  13.874
70188W        W36971   4.249  18.873   3.266
70189W        W36972  13.520  26.187  13.657
70190W        W36973  41.661  11.851   2.617
70191W        W36974  26.932   1.270  11.231
70192W        W36975   6.197   7.884  14.656
70193W        W36976  14.290   9.587  10.677
70194W        W36977   0.383  40.920  10.600
70195W        W36978  34.688  42.924   2.703
70196W        W36979  29.927  39.971   2.455
70197W        W36980  41.503   0.337  13.775
70198W        W36981  14.320  33.007   0.269
70199W        W36982  26.489   5.733   2.786
70200W        W36983  27.965  43.734  13.837
70201W        W36984  16.232   8.450  11.507
70202W        W36985   0.821   4.887  13.131
70203W        W36986  25.659  19.554   2.127
70204W        W36987   0.645   9.199  12.683
70205W        W36988  15.099  41.810  13.815
70206W        W36989  35.429  12.894   0.437
70207W        W36990  19.554  31.202   0.231
70208W        W36991  44.734   9.750   4.585
70209W        W36992  28.235  26.454   0.056
70210W        W36993   0.186  17.805   0.959
70211W        W36994  37.390  25.892   0.167
70212W        W36995  36.579  32.569   4.394
70213W        W36996   3.973  37.160   4.634
70214W        W36997  27.525  19.568   4.638
70215W        W36998  17.549  35.021   4.669
70216W        W36999  15.282  21.259   1.679
70217W        W37000  30.699  35.842   2.792
70218W        W37001  33.092   0.910   3.920
70219W        W37002  23.035   2.180   2.794
70220W        W37003   2.709  26.669  14.970
70221W        W37004   2.984  29.947  11.631
70222W        W37005   3.467  14.682  12.044
70223W        W37006   7.133   3.503  10.614
70224W        W37007   9.252  44.328   3.634
70225W        W37008  34.673   8.770   4.959
70226W        W37009  33.341  30.616  12.425
70227W        W37010  15.398  12.965  14.799
70228W        W37011  22.309  18.743   3.214
70229W        W37012  31.990  19.757  11.618
70230W        W37013   7.401  27.875   1.375
70231W        W37014  34.037  35.396  13.906
70232W        W37015   2.383   8.245   4.771
70233W        W37016   3.001   5.264   0.431
70234W        W37017  25.010  35.169  10.798
70235W        W37018  33.213  13.208   0.495
70236W        W37019  19.258  28.636   4.322
70237W        W37020  40.042  32.316  11.185
70238W        W37021  14.147  20.036  14.450
70239W        W37022  43.307  37.586   0.791
70240W        W37023  13.872  18.104  12.032
70241W        W37024  43.881  34.074   0.364
70242W        W37025  38.438  31.805  13.334
70243W        W37026  19.429  41.091   1.951
70244W        W37027  28.038  31.136   3.342
70245W        W37028  35.072  43.442  11.493
70246W        W37029   7.780  42.819  10.758
70247W        W37030  17.038  33.674   1.364
70248W        W37031  21.625  29.527   3.314
70249W        W37032  28.200   8.650  10.665
70250W        W37033  25.679  23.589   3.283
70251W        W37034  40.347  25.244  14.892
70252W        W37035  28.568  27.504  11.110
70253W        W37036  28.590  21.989   0.059
70254W        W37037  30.931  24.546   4.804
70255W        W37038  11.002   8.445  11.421
70256W        W37039   4.782   2.934  13.827
70257W        W37040   3.269  16.964   2.106
70258W        W37041  37.840  16.325   2.732
70259W        W37042  25.888  29.038   3.730
70260W        W37043   9.707  39.136   1.760
70261W        W37044  39.064  22.998   2.254
70262W        W37045  15.547  27.576   1.869
70263W        W37046   7.443  31.362   4.074
70264W        W37047  42.249  41.860  12.939
70265W        W37048  17.144  18.215  14.305
70266W        W37049  33.513  33.427   2.757
70267W        W37050  30.071   9.197   3.276
70268W        W37051  13.644  12.824   4.055
70269W        W37052  21.372  33.550   3.565
70270W        W37053  23.426  42.755  12.361
70271W        W37054  27.865  11.665  10.749
70272W        W37055  25.038  34.257  10.329
70273W        W37056   1.686   1.574   3.815
70274W        W37057   4.868  37.568   2.267
70275W        W37058  36.448  15.293   2.925
70276W        W37059  42.031  26.798  10.355
70277W        W37060  14.059  33.535   3.763
70278W        W37061  33.404  20.613  13.329
70279W        W37062  31.932   2.731  11.767
70280W        W37063   1.381  23.060  12.243
70281W        W37064   0.892  36.870   0.393
70282W        W37065  15.339   1.926   1.838
70283W        W37066   3.538  15.817  11.409
70284W        W37067  35.427  19.534   4.667
70285W        W37068  24.605  14.998   0.488
70286W        W37069  31.737  44.923  12.041
70287W        W37070  29.193  40.615  14.428
70288W        W37071  13.316  20.985   4.094
70289W        W37072   4.379   5.515  14.234
70290W        W37073  26.507  37.384  14.528
70291W        W37074   7.282  10.338  13.846
70292W        W37075  18.732  39.056   4.061
70293W        W37076   9.927  38.780  12.895
70294W        W37077  12.396   2.373  13.282
70295W        W37078   7.443  10.751   2.549
70296W        W37079   0.567  36.499  14.841
70297W        W37080   6.819  12.727  11.036
70298W        W37081  11.361   4.319  12.498
70299W        W37082  33.019   3.292  10.971
70300W        W37083  21.168  43.801  12.148
70301W        W37084  22.260  14.333   5.051
70302W        W37085   8.755  12.127   4.170
70303W        W37086  19.247   2.408   4.017
70304W        W37087   4.367  37.476   4.826
70305W        W37088  32.452   8.812  14.359
70306W        W37089   5.806  11.115   2.913
70307W        W37090   5.547   4.888  14.467
70308W        W37091  35.116   5.729  11.588
70309W        W37092  13.756  44.893   4.579
70310W        W37093  26.365  16.878  11.667
70311W        W37094  32.206   6.136   5.056
70312W        W37095  40.423  29.953  14.310
70313W        W37096  38.810  25.880   1.431
70314W        W37097   3.648   9.844  11.212
70315W        W37098  33.412  10.806   1.836
70316W        W37099  20.390  23.424   3.858
70317W        W37100  30.461  31.443   0.262
70318W        W37101  31.071  28.119   0.425
70319W        W37102  25.619   8.222  11.470
70320W        W37103  44.906  19.776   2.261
70321W        W37104  34.973  39.957   2.816
70322W        W37105  29.886  25.240  13.045
70323W        W37106  13.758  12.645  12.581
70324W        W37107  23.690   7.740   1.939
70325W        W37108   7.613  29.482  10.523
70326W        W37109  23.419   7.862  13.485
70327W        W37110   6.469  25.387   0.911
70328W        W37111  33.643  41.023  14.379
70329W        W37112  39.314  11.853  13.075
70330W        W37113   4.779  24.173   2.288
70331W        W37114   6.796  30.883   1.728
70332W        W37115  23.069  27.107   2.385
70333W        W37116  26.652  15.126   3.352
70334W        W37117  23.944  22.898   5.152
70335W        W37118  19.309   9.693  14.404
70336W        W37119  24.304  28.486   1.896
70337W        W37120   0.987   3.629  13.085
70338W        W37121  11.206   1.183  12.143
70339W        W37122  13.082  41.237   2.829
70340W        W37123   3.337   3.743   4.203
70341W        W37124  21.670  41.049   4.034
70342W        W37125  32.527  11.228   1.488
70343W        W37126  28.594  22.609  12.948
70344W        W37127  25.182  18.769   3.284
70345W        W37128  23.320  20.063  11.999
70346W        W37129  25.712  27.612  12.552
70347W        W37130  21.759  39.761   1.447
70348W        W37131  38.787   8.512   4.575
70349W        W37132  35.692  41.047   0.335
70350W        W37133  26.671  15.019  14.857
70351W        W37134  28.687   4.740   2.923
70352W        W37135  26.468  28.421  14.077
70353W        W37136   9.868  18.210  13.013
70354W        W37137  25.990  19.599   0.869
70355W        W37138  42.788  44.684  14.032
70356W        W37139  38.167   7.341  11.046
70357W        W37140  41.796   2.837  14.263
70358W        W37141   2.474  44.009  10.987
70359W        W37142  27.599   4.993   2.361
70360W        W37143  40.516  39.949  12.253
70361W        W37144  23.685  33.035   0.876
70362W        W37145   4.698  37.530   3.995
70363W        W37146  11.361   5.016  11.425
70364W        W37147  26.069  35.919   0.428
70365W        W37148  35.638   9.970   5.050
70366W        W37149   0.052  18.024  13.003
70367W        W37150  36.942   8.413   1.437
70368W        W37151  42.811   0.862  14.821
70369W        W37152   2.945  39.210  11.614
70370W        W37153  37.890   5.662  12.899
70371W        W37154  42.784  27.861   3.190
70372W        W37155  18.165  44.086  13.270
70373W        W37156  12.438  34.334   1.722
70374W        W37157  10.470  39.186  13.818
70375W        W37158  14.656  14.944  10.833
70376W        W37159  10.833  40.427   4.324
70377W        W37160  43.470  25.321  12.027
70378W        W37161   3.891  35.438   4.251
70379W        W37162   5.710  23.777   4.880
70380W        W37163   9.361  25.618   2.351
70381W        W37164  20.207  44.053   3.122
70382W        W37165   7.905   4.221   2.778
70383W        W37166   3.427  35.577  14.317
70384W        W37167  17.558  41.565  14.478
70385W        W37168  31.546  44.239   1.902
70386W        W37169  12.311   1.933  13.547
70387W        W37170  25.620  25.445   3.687
70388W        W37171   1.898  38.471   3.657
70389W        W37172  27.600   9.689  12.334
70390W        W37173  24.359  10.649  11.980
70391W        W37174  43.304  14.629   2.313
70392W        W37175  40.754   5.803  14.292
70393W        W37176  34.243  22.191   3.691
70394W        W37177  10.872   6.801  11.244
70395W        W37178  10.339  28.404   3.085
70396W        W37179  35.655  39.911  13.437
70397W        W37180  30.168  16.852  14.413
70398W        W37181  39.022  17.358  14.517
70399W        W37182  19.987   0.488   4.628
70400W        W37183  38.136  17.850   3.262
70401W        W37184  16.969  23.433   2.390
70402W        W37185  42.568   4.270  14.361
70403W        W37186  19.205  28.639   0.769
70404W        W37187  24.734  41.596   0.065
70405W        W37188  42.002   1.251  14.877
70406W        W37189  23.270   2.066   1.498
70407W        W37190  20.317  25.444  12.750
70408W        W37191  37.987  28.169   2.120
70409W        W37192  38.993  10.013  11.003
70410W        W37193  12.826  43.574   1.678
70411W        W37194   0.029  18.777   3.248
70412W        W37195  32.668  38.213   1.293
70413W        W37196  30.413  23.024  13.864
70414W        W37197   1.898  20.089   4.066
70415W        W37198  17.115  39.281  13.303
70416W        W37199  18.739  18.611  10.426
70417W        W37200  11.692  42.919   1.473
70418W        W37201  33.985  36.625  14.684
70419W        W37202  22.878  22.671  14.891
70420W        W37203   2.489  30.601   2.714
70421W        W37204   1.062  32.975  14.990
70422W        W37205  33.612  38.877   3.986
70423W        W37206  28.062  13.690  10.597
70424W        W37207   8.384  12.689  14.491
70425W        W37208   4.967  14.154  14.319
70426W        W37209   1.952  16.576   2.437
70427W        W37210  38.134  28.965  12.409
70428W        W37211  22.313  29.212  12.480
70429W        W37212  36.519   7.201  13.093
70430W        W37213  27.087  37.605  13.403
70431W        W37214  30.905  44.522   0.613
70432W        W37215  25.391  27.394  12.879
70433W        W37216  14.712  18.779   3.264
70434W        W37217   1.882   2.036  13.074
70435W        W37218   7.308  10.032   4.938
70436W        W37219  15.303  17.082   4.336
70437W        W37220  37.217  37.057   4.082
70438W        W37221   7.324  32.612   2.304
70439W        W37222   8.845  28.649  14.153
70440W        W37223  21.503  34.985  12.730
70441W        W37224  25.409  38.192   1.868
70442W        W37225  15.146  12.761  13.841
70443W        W37226   9.395  43.344   1.289
70444W        W37227   6.221   0.204  14.421
70445W        W37228  25.012  34.119   2.119
70446W        W37229   0.802  37.239   4.135
70447W        W37230  25.438   7.120  13.099
70448W        W37231  12.606  39.809   0.371
70449W        W37232   3.496  26.061  11.715
70450W        W37233  33.647  23.260  10.740
70451W        W37234  43.494  34.928  12.400
70452W        W37235  40.857  43.003  12.589
70453W        W37236  38.335   0.340   3.248
70454W        W37237  33.793   0.264   5.026
70455W        W37238  30.034  14.499   2.251
70456W        W37239  36.397  41.340   1.464
70457W        W37240  28.128  20.350   4.548
70458W        W37241   6.107  13.694   0.765
70459W        W37242  42.324  23.455  14.885
70460W        W37243  19.935  41.178  13.820
70461W        W37244  29.989  44.049   2.823
70462W        W37245  10.687   1.030  10.971
70463W        W37246  22.832   9.119  14.462
70464W        W37247  40.900  20.772  12.886
70465W        W37248   7.299  32.095   1.684
70466W        W37249  41.538  12.817  13.870
70467W        W37250  25.304  26.751  14.999
70468W        W37251  11.769  41.996   0.343
70469W        W37252  32.227  35.315   1.709
70470W        W37253   9.338  35.811  13.886
70471W        W37254  32.807  12.331   2.155
70472W        W37255  12.609   5.639   1.373
70473W        W37256  39.988   1.766   1.214
70474W        W37257  31.497  19.091  10.576
70475W        W37258  38.076  12.782   3.525
70476W        W37259   7.323   9.307  12.455
70477W        W37260  11.284  29.538   4.048
70478W        W37261  25.533  38.076   1.386
70479W        W37262   5.735  33.551  12.098
70480W        W37263  13.078  32.251   1.799
70481W        W37264  17.967  43.397  14.876
70482W        W37265  13.254  41.507  14.416
70483W        W37266  34.944  40.315   3.768
70484W        W37267  33.210  31.080   2.610
70485W        W37268   8.283  15.610   0.274
70486W        W37269  18.449   8.667   0.300
70487W        W37270  25.209  42.561   2.641
70488W        W37271  36.718  13.177  11.670
70489W        W37272  16.421  38.233   5.019
70490W        W37273   5.866  30.957   0.389
70491W        W37274   2.792  34.578   3.160
70492W        W37275  35.783  25.800   3.907
70493W        W37276  28.149  27.660  11.356
70494W        W37277  24.728  23.890   5.383
70495W        W37278  13.647  38.985   1.629
70496W        W37279  41.635  24.512  11.131
70497W        W37280  37.959  43.458  10.612
70498W        W37281  23.234  13.829   1.180
70499W        W37282  32.199  26.649  10.239
70500W        W37283  27.757   1.185   1.455
70501W        W37284  25.019   3.876  13.594
70502W        W37285   2.556  38.386   1.734
70503W        W37286  29.114  12.923  13.119
70504W        W37287  42.056  39.486  14.478
70505W        W37288  12.144   5.802   1.528
70506W        W37289  24.656  10.120   0.929
70507W        W37290  17.749  29.409  11.881
70508W        W37291  36.184   1.872   4.032
70509W        W37292  13.614  15.865  10.735
70510W        W37293   2.920   6.406   1.686
70511W        W37294  22.888  10.320   1.910
70512W        W37295  15.164  22.067  14.462
70513W        W37296   0.759  10.368   0.379
70514W        W37297  39.506  12.137  12.091
70515W        W37298  40.482  11.290  12.291
70516W        W37299  10.118  30.921   4.133
70517W        W37300   7.579  30.352   3.202
70518W        W37301  39.881   6.809   2.115
70519W        W37302  23.595  38.366   4.121
70520W        W37303   5.418  17.234   1.218
70521W        W37304  10.374  10.230   3.197
70522W        W37305  10.392  24.311  10.939
70523W        W37306   8.679  28.765   3.666
70524W        W37307  29.453  20.163  13.348
70525W        W37308  15.175  20.981  14.365
70526W        W37309  11.297  30.700   5.007
70527W        W37310  10.320   0.315   1.353
70528W        W37311  36.664  31.118   1.216
70529W        W37312  12.514  28.715  14.860
70530W        W37313   4.707  31.716  13.065
70531W        W37314  20.028   0.968   1.403
70532W        W37315  41.881  10.736  13.996
70533W        W37316  15.521  18.136   0.040
70534W        W37317  41.399  31.610   1.899
70535W        W37318   1.422  12.017  10.396
70536W        W37319  29.486  22.833  10.783
70537W        W37320  40.583   3.935   1.852
70538W        W37321  36.766  15.607  14.829
70539W        W37322  14.378  22.671   1.272
70540W        W37323  27.193  22.002   2.332
70541W        W37324  24.908  37.771   4.134
70542W        W37325  23.479  15.048   1.778
70543W        W37326  44.258   6.981   3.096
70544W        W37327  21.970  20.203   2.728
70545W        W37328  40.452   3.651  13.305
70546W        W37329  16.620  11.224   3.533
70547W        W37330   3.367  13.153  12.827
70548W        W37331  32.353   4.957   3.163
70549W        W37332  32.748  38.968  13.992
70550W        W37333   8.800  20.117  11.179
70551W        W37334  44.535  27.402   2.541
70552W        W37335  34.100  43.097   2.877
70553W        W37336  30.398  19.282   2.879
70554W        W37337  44.340  25.395   0.325
70555W        W37338   1.248  44.530  13.502
70556W        W37339  28.954   6.197  13.145
70557W        W37340  30.241  40.010   9.918
70558W        W37341  36.461  44.117  13.936
70559W        W37342   3.289  21.981   2.867
70560W        W37343   6.920  41.467   3.227
70561W        W37344  32.564  33.514   4.924
70562W        W37345  18.624  16.685   2.139
70563W        W37346  26.690  17.274   3.543
70564W        W37347   2.517  17.306  12.048
70565W        W37348  40.982  19.382  14.006
70566W        W37349  31.705  42.714   4.840
70567W        W37350   5.478   8.870  13.959
70568W        W37351   6.454  29.639   5.012
70569W        W37352   6.678  44.869   3.914
70570W        W37353  35.609   4.567   3.220
70571W        W37354   6.586  44.426   4.629
70572W        W37355  15.683  42.565   0.547
70573W        W37356   7.039  19.797   4.592
70574W        W37357  19.207   8.931   4.969
70575W        W37358  38.779  18.749  10.129
70576W        W37359  41.592   4.405   3.914
70577W        W37360   3.222  22.698   3.582
70578W        W37361  40.465  40.445  13.620
70579W        W37362  40.596  30.996  12.236
70580W        W37363  31.320  17.130  10.772
70581W        W37364  39.917  24.211  11.843
70582W        W37365  29.624  27.528  11.203
70583W        W37366   5.178  35.018   3.847
70584W        W37367   2.840  30.924  11.446
70585W        W37368  12.917  19.569   3.003
70586W        W37369  27.206  17.766   4.324
70587W        W37370   4.309  30.595  10.535
70588W        W37371   8.615  21.266   1.991
70589W        W37372  17.815  43.624   2.321
70590W        W37373  43.876  31.345  14.375
70591W        W37374  37.097  25.701   1.193
70592W        W37375  42.853  30.776  10.792
70593W        W37376  13.345  29.679  10.367
70594W        W37377  13.114  18.685  11.595
70595W        W37378  18.210   8.566  11.502
70596W        W37379  12.346  24.509  13.663
70597W        W37380  22.292  37.400  14.312
70598W        W37381  10.138  11.372  10.995
70599W        W37382  37.337  29.083   4.718
70600W        W37383  14.248   2.908  10.413
70601W        W37384  36.701  19.415  10.751
70602W        W37385  18.139   4.447  14.343
70603W        W37386  12.328  28.759  13.015
70604W        W37387   7.176   6.736  13.433
70605W        W37388  28.107  15.799  12.893
70606W        W37389  35.111  31.507  13.492
70607W        W37390   9.122  32.890   3.231
70608W        W37391  21.796  31.582   0.455
70609W        W37392  11.871  14.531   0.391
70610W        W37393   1.365  24.453  12.165
70611W        W37394  36.585  43.005   0.797
70612W        W37395  34.897  34.644   2.422
70613W        W37396   0.772   4.950  14.474
70614W        W37397  30.441  20.491  11.069
70615W        W37398   5.515  28.104   0.378
70616W        W37399  31.807  12.190   4.106
70617W        W37400  29.912  17.682  13.786
70618W        W37401   8.943  24.657  14.901
70619W        W37402  20.181  27.498  13.539
70620W        W37403  13.183  27.674  14.036
70621W        W37404  15.448  20.319  13.907
70622W        W37405  17.176   9.329  12.955
70623W        W37406  23.726  36.023   1.617
70624W        W37407  24.518   2.366  13.872
70625W        W37408   1.394  20.724   0.918
70626W        W37409   6.626  29.463   4.387
70627W        W37410  37.231   4.486  14.859
70628W        W37411  42.039  32.521  10.623
70629W        W37412  39.883   7.142  11.569
70630W        W37413  30.563  44.439  14.483
70631W        W37414  12.225  31.129   4.177
70632W        W37415  12.733   8.244  12.029
70633W        W37416  34.474  39.031  11.590
70634W        W37417  28.103  15.726   4.950
70635W        W37418  33.991  44.668   1.796
70636W        W37419  25.471   2.029  11.933
70637W        W37420  28.188  15.064  13.017
70638W        W37421  39.513  10.071  14.405
70639W        W37422  33.522   0.743   1.340
70640W        W37423  13.844  24.095  13.874
70641W        W37424  12.795  23.033   3.389
70642W        W37425  27.896  33.653  11.629
70643W        W37426  12.733  32.294   1.424
70644W        W37427  12.901  40.564   1.630
70645W        W37428  27.165  20.884  13.850
70646W        W37429  21.650   9.909  10.852
70647W        W37430  27.974  36.589   4.528
70648W        W37431  28.431  29.119  13.287
70649W        W37432  21.176   6.525   0.702
70650W        W37433  40.671  34.605   1.459
70651W        W37434  43.209  26.701   2.824
70652W        W37435  13.496   6.147  11.367
70653W        W37436  42.029   4.876  14.049
70654W        W37437   7.901   0.175  14.336
70655W        W37438  12.174   6.728  10.695
70656W        W37439  31.329  41.171   3.314
70657W        W37440   7.367  12.330  13.865
70658W        W37441  13.755  41.235  12.481
70659W        W37442   5.598   1.189  11.932
70660W        W37443   9.439  15.862  10.433
70661W        W37444  36.965  10.264  14.522
70662W        W37445  28.541  33.861  14.786
70663W        W37446  29.757  37.804  14.091
70664W        W37447  13.181   3.457   4.472
70665W        W37448   6.863  35.004   2.356
70666W        W37449  42.303   0.477   2.381
70667W        W37450  44.228  15.792   4.484
70668W        W37451   4.945  10.060   1.770
70669W        W37452  33.003  25.965   0.252
70670W        W37453  16.138  29.542  11.671
70671W        W37454   6.676  44.569  13.988
70672W        W37455  31.800  11.673   2.757
70673W        W37456  18.164  18.924   2.409
70674W        W37457   1.729   4.681   4.204
70675W        W37458  18.597  18.071   2.202
70676W        W37459  23.962  13.155  14.554
70677W        W37460  34.910   8.450   4.017
70678W        W37461  40.526  25.631  10.489
70679W        W37462  42.338  24.704   0.429
70680W        W37463   9.558   1.682  10.310
70681W        W37464  15.212   2.284   4.641
70682W        W37465  43.783  44.171  13.422
70683W        W37466  26.436  33.537   0.766
70684W        W37467   5.731  41.221   0.401
70685W        W37468  34.478  33.630  11.576
70686W        W37469  36.024   6.149   2.506
70687W        W37470   6.469  39.183   5.007
70688W        W37471  36.754  25.896  11.914
70689W        W37472   8.444  19.706  13.950
70690W        W37473  34.377   4.923  10.758
70691W        W37474  39.485  33.563   4.274
70692W        W37475  37.459  27.648   1.304
70693W        W37476  17.493  42.253  12.535
70694W        W37477  18.666   7.282  11.717
70695W        W37478   7.720  37.966   3.358
70696W        W37479   8.691  17.641   3.659
70697W        W37480  27.473  35.441   2.826
70698W        W37481  15.578   0.128  13.396
70699W        W37482  14.168  36.960   3.131
70700W        W37483  34.470  10.088  12.437
70701W        W37484  25.968  24.503  14.689
70702W        W37485  28.551   6.013   4.892
70703W        W37486  31.627   1.925   4.312
70704W        W37487  36.306  37.392   3.330
70705W        W37488   5.891  14.549  11.922
70706W        W37489  26.420  20.995   2.250
70707W        W37490   0.480  44.311  13.898
70708W        W37491  32.841  11.119  11.282
70709W        W37492  16.387  39.959  11.086
70710W        W37493  41.548  39.823   0.829
70711W        W37494   3.884   2.135   4.613
70712W        W37495  34.952  41.069  10.135
70713W        W37496  37.307  30.138  14.035
70714W        W37497   5.665  10.326  13.256
70715W        W37498  23.959  15.138   3.769
70716W        W37499   5.346  28.515  14.672
70717W        W37500  16.591   3.023   3.589
70718W        W37501  12.273  36.556  14.976
70719W        W37502   4.215  17.978   4.581
70720W        W37503  24.971   4.264   1.833
70721W        W37504  11.111   5.139   4.450
70722W        W37505  28.551  12.190  11.559
70723W        W37506  40.735  17.037   5.359
70724W        W37507  33.367  42.025  12.907
70725W        W37508  42.010  24.274  13.525
70726W        W37509   4.234  21.117  12.610
70727W        W37510  25.708   5.788   3.712
70728W        W37511  28.459  12.349  12.059
70729W        W37512   4.704  39.345  13.507
70730W        W37513  16.119  18.533   5.109
70731W        W37514  11.108  19.809  11.231
70732W        W37515  33.439  21.800   2.618
70733W        W37516  26.648  40.910  13.898
70734W        W37517  10.931  11.687  14.732
70735W        W37518  35.518  38.104   0.959
70736W        W37519  23.691  18.901   2.207
70737W        W37520  22.543  41.573   1.813
70738W        W37521  19.692   7.669   0.376
70739W        W37522  37.892   5.572   4.849
70740W        W37523  44.454  32.264  11.050
70741W        W37524  27.482  23.009  11.058
70742W        W37525  19.771   8.377  13.508
70743W        W37526   1.678  26.683   3.737
70744W        W37527  35.013  36.377  11.673
70745W        W37528  41.790  20.024  11.321
70746W        W37529   9.621  18.598   1.348
70747W        W37530  38.545  30.930  12.877
70748W        W37531  44.081  23.041   3.289
70749W        W37532  44.278  32.389  11.618
70750W        W37533  36.508  22.275   0.348
70751W        W37534  24.048  22.695   2.123
70752W        W37535  30.456  24.731   3.665
70753W        W37536  32.015  30.335  12.567
70754W        W37537  26.372   4.971  12.074
70755W        W37538   6.666   2.945  12.421
70756W        W37539  13.162  12.819  10.656
70757W        W37540  37.563  24.182  10.552
70758W        W37541  10.845  18.184  14.779
70759W        W37542  17.786  27.678   1.408
70760W        W37543  12.791  21.640   4.447
70761W        W37544  10.428  10.724   3.417
70762W        W37545  44.088  21.065   1.223
70763W        W37546  24.042   7.382  13.068
70764W        W37547  11.797  20.086   3.871
70765W        W37548  31.474  42.936  10.799
70766W        W37549  21.923  31.744   2.372
70767W        W37550   1.436  14.658   1.284
70768W        W37551  26.701  32.954   1.940
70769W        W37552  39.555   1.570  11.309
70770W        W37553  27.559  32.352  11.993
70771W        W37554  33.493  14.840   3.831
70772W        W37555  33.565  25.186  14.371
70773W        W37556  30.137  12.675   1.694
70774W        W37557   4.033   5.379  13.753
70775W        W37558  26.991  25.631  12.317
70776W        W37559  27.664  31.136   0.754
70777W        W37560  43.417  32.414   2.136
70778W        W37561  13.687  25.177   3.734
70779W        W37562  40.981  22.701  13.200
70780W        W37563  26.181  23.499  13.415
70781W        W37564  10.839   6.787   3.265
70782W        W37565   9.980  24.933   3.831
70783W        W37566  11.919  33.448  14.458
70784W        W37567  25.978   7.828  13.957
70785W        W37568  24.708  17.763   1.385
70786W        W37569  14.385   1.745  12.827
70787W        W37570  10.666  39.813  10.922
70788W        W37571  29.101  13.627   2.792
70789W        W37572  20.965  20.303  13.839
70790W        W37573  21.971  22.137  13.461
70791W        W37574  12.086  11.064  11.123
70792W        W37575  17.119  23.011   3.807
70793W        W37576  40.076  36.399  10.736
70794W        W37577  10.184   9.348   0.974
70795W        W37578   3.487  20.973  10.298
70796W        W37579  22.600  21.526   1.938
70797W        W37580  28.449  25.546   0.321
70798W        W37581   0.442   8.476   1.363
70799W        W37582   7.443  19.472   4.528
70800W        W37583  26.281  41.957   4.933
70801W        W37584  18.074  17.329   1.448
70802W        W37585  12.102  32.471  11.946
70803W        W37586  13.732   6.213   1.816
70804W        W37587  36.318   7.854   1.297
70805W        W37588  21.180  16.094  10.424
70806W        W37589  21.139  29.566   0.375
70807W        W37590   3.188  25.466  11.089
70808W        W37591  24.520   6.124  10.556
70809W        W37592  25.664   5.826  13.014
70810W        W37593   3.839  39.823  13.433
70811W        W37594  31.532   0.959   4.047
70812W        W37595  39.714  37.772  14.874
70813W        W37596  32.031  17.877  11.497
70814W        W37597  22.033  21.122   0.916
70815W        W37598  37.952  17.214  14.496
70816W        W37599  21.667  32.306  13.052
70817W        W37600   8.351  33.410   3.622
70818W        W37601   8.069  43.725  12.653
70819W        W37602  39.320  30.475  14.970
70820W        W37603  25.580   4.370  11.015
70821W        W37604  16.377  37.225   1.404
70822W        W37605  24.672   8.088   1.116
70823W        W37606  39.168  19.084  10.443
70824W        W37607  41.532  23.626  11.371
70825W        W37608  38.866  16.001  13.492
70826W        W37609  26.049  24.601   0.804
70827W        W37610  13.133  27.917  13.580
70828W        W37611  28.647  24.929   0.839
70829W        W37612  39.415  11.431   0.076
70830W        W37613  17.098  26.093  13.443
70831W        W37614   6.779   7.881  10.695
70832W        W37615  42.557  36.325   0.932
70833W        W37616   7.779  43.702  14.308
70834W        W37617  16.377   8.882  12.960
70835W        W37618  28.205  25.221   0.785
70836W        W37619  11.358  40.530   4.487
70837W        W37620  12.229  19.266  12.441
70838W        W37621   5.879  41.353   0.863
70839W        W37622  44.728  19.211   3.160
70840W        W37623  22.354  17.182  12.140
70841W        W37624  12.129   0.921   1.077
70842W        W37625  36.464  14.930  11.642
70843W        W37626   0.863  15.688  12.926
70844W        W37627   8.765  36.566  13.959
70845W        W37628   2.046  22.081   0.031
70846W        W37629  20.599  38.814   1.355
70847W        W37630   1.544   1.437  14.567
70848W        W37631  43.916  37.945   2.512
70849W        W37632   8.903  14.147   2.710
70850W        W37633   9.413  18.209   0.557
70851W        W37634  37.582  30.098   0.818
70852W        W37635  39.412   1.612   1.175
70853W        W37636  39.999  27.209  12.139
70854W        W37637  42.187   7.318  11.466
70855W        W37638  25.521  17.775   3.378
70856W        W37639  14.315  18.225   4.053
70857W        W37640  36.875  32.562   1.479
70858W        W37641   6.294  28.425  12.611
70859W        W37642   4.141  34.479  11.666
70860W        W37643  11.691  21.136  13.862
70861W        W37644  23.124  12.587  11.189
70862W        W37645  15.478  32.286   4.057
70863W        W37646  27.647  12.765  10.446
70864W        W37647  21.935  34.842   3.094
70865W        W37648  32.692  11.851  12.210
70866W        W37649  37.119   0.509  11.043
70867W        W37650  42.351  39.417   1.744
70868W        W37651  24.254  36.398  13.513
70869W        W37652  35.224   5.910   1.418
70870W        W37653   3.939  37.559   2.159
70871W        W37654  16.747  41.460  11.265
70872W        W37655  12.673  11.079   0.923
70873W        W37656   0.698  19.552   3.700
70874W        W37657  40.803  29.129  11.165
70875W        W37658  41.766  22.300  12.419
70876W        W37659  39.472  24.978   2.693
70877W        W37660  41.506   8.777   1.437
70878W        W37661   4.841  32.385   3.839
70879W        W37662  14.600   0.785  11.994
70880W        W37663  44.916  30.446  14.747
70881W        W37664  44.382  28.984   0.444
70882W        W37665  10.249   1.956  14.605
70883W        W37666   7.302  39.791   3.731
70884W        W37667  35.017   0.714   2.066
70885W        W37668  40.938  31.602  13.770
70886W        W37669  20.586   2.545  11.147
70887W        W37670  20.303  27.174  11.569
70888W        W37671  33.626  28.027   4.710
70889W        W37672  37.560  15.653  12.996
70890W        W37673   4.446  22.873  14.923
70891W        W37674  25.192  11.184   1.865
70892W        W37675   1.809  43.506  14.023
70893W        W37676  36.877   6.917  14.774
70894W        W37677  11.087   0.808   4.134
70895W        W37678  22.387   9.206   3.268
70896W        W37679  10.157  36.493  12.434
70897W        W37680   1.091  37.515   2.498
70898W        W37681   1.270  17.539  14.000
70899W        W37682  26.940   1.192   2.143
70900W        W37683  16.282  38.932   2.062
70901W        W37684   3.131  36.796   1.688
70902W        W37685  13.252  38.811   1.925
70903W        W37686  33.845  10.079   1.936
70904W        W37687  22.673   3.912   4.203
70905W        W37688  10.602  40.964  13.890
70906W        W37689   4.529  25.214   3.557
70907W        W37690   4.878  15.965   3.516
70908W        W37691  18.979   2.051  14.900
70909W        W37692  12.573  35.135  10.617
70910W        W37693   2.341  20.374   4.168
70911W        W37694  33.410  25.506  12.127
70912W        W37695  28.954  39.347  13.025
70913W        W37696  37.475  17.042   3.170
70914W        W37697   3.880   8.691   2.883
70915W        W37698  10.667  26.293  10.602
70916W        W37699  43.616  43.524   1.352
70917W        W37700  41.358   5.934  12.113
70918W        W37701  35.420  17.569  10.682
70919W        W37702  34.004  19.101   1.205
70920W        W37703   1.676  43.004  12.802
70921W        W37704  23.892  12.193  10.840
70922W        W37705  11.317   8.176   2.352
70923W        W37706  38.959   1.675   4.834
70924W        W37707  22.060  42.932   4.196
70925W        W37708   8.127   0.434   0.839
70926W        W37709  28.996  25.830   3.133
70927W        W37710  34.992  30.352   4.581
70928W        W37711   3.717  16.910   2.356
70929W        W37712  40.512  21.613   0.592
70930W        W37713  41.337  16.344  12.406
70931W        W37714  40.776   8.952  14.472
70932W        W37715   7.930  44.568  11.478
70933W        W37716  26.001  22.443   0.352
70934W        W37717  42.231  11.539  11.585
70935W        W37718  38.138   3.993  11.123
70936W        W37719   5.546  13.697  14.082
70937W        W37720  20.776   9.617   2.718
70938W        W37721   5.101  20.220   1.261
70939W        W37722  25.780  21.692  13.949
70940W        W37723  15.506  18.647   1.325
70941W        W37724  35.312  38.618   1.886
70942W        W37725  24.430  37.105   3.799
70943W        W37726  42.266   0.864   2.768
70944W        W37727  24.698  40.022   1.627
70945W        W37728  26.564  10.567  12.489
70946W        W37729  42.470  17.100   4.361
70947W        W37730   2.807  42.699   4.154
70948W        W37731  14.273   3.906   2.484
70949W        W37732  43.828   7.715  13.483
70950W        W37733   3.314  33.102   3.597
70951W        W37734  16.849  39.815  11.493
70952W        W37735  41.692  37.728   2.766
70953W        W37736  28.614  44.339   1.277
70954W        W37737  31.037   0.013   0.876
70955W        W37738  23.038  19.974  14.003
70956W        W37739  12.963   6.673  11.148
70957W        W37740  38.097  42.726  14.472
70958W        W37741  14.074   7.935  12.808
70959W        W37742  20.988  12.761  10.193
70960W        W37743  25.116  44.894   0.297
70961W        W37744   6.392  17.134   1.200
70962W        W37745  37.086   5.892  14.843
70963W        W37746   9.772  42.506  14.525
70964W        W37747  37.236   3.299  13.873
70965W        W37748  20.381  17.516  11.611
70966W        W37749  36.976  35.514  12.271
70967W        W37750  17.422  19.598   0.570
70968W        W37751  28.973  30.008  11.043
70969W        W37752  20.041  33.939   3.076
70970W        W37753   0.144  30.632  11.895
70971W        W37754  13.783  44.845  12.147
70972W        W37755  33.965  17.487   3.395
70973W        W37756  26.197  14.730   4.017
70974W        W37757  17.881   0.345  11.718
70975W        W37758  41.496  24.557   3.132
70976W        W37759  31.532  24.896   1.684
70977W        W37760  23.701  18.579  12.152
70978W        W37761   2.557  35.590  14.694
70979W        W37762  30.374  33.936   2.226
70980W        W37763   1.488  21.700  13.923
70981W        W37764   3.756  20.068   0.725
70982W        W37765  15.758  25.230  14.728
70983W        W37766   8.633  27.565   0.401
70984W        W37767  29.613  21.598   4.808
70985W        W37768  32.331  36.289   2.358
70986W        W37769  24.650  27.369   1.405
70987W        W37770   0.313   4.358  11.309
70988W        W37771  13.841  14.280  12.695
70989W        W37772  21.665   2.294   3.203
70990W        W37773  32.036  41.823   2.310
70991W        W37774  11.161  41.892   0.819
70992W        W37775   3.322  20.484   0.086
70993W        W37776  33.887  14.101  13.062
70994W        W37777   0.501  20.092   1.777
70995W        W37778  32.538   2.782   1.460
70996W        W37779  25.371  28.739   0.741
70997W        W37780  33.932  42.871   1.460
70998W        W37781  21.672  24.007   1.272
70999W        W37782  29.746  42.008   9.875
71000W        W37783   6.944  13.213  10.889
71001W        W37784  37.135  23.377  12.564
71002W        W37785   3.401   7.654  12.086
71003W        W37786  17.094  10.983  14.480
71004W        W37787   1.358   8.564   2.811
71005W        W37788  38.520   4.282  12.452
71006W        W37789  26.899  15.332   2.891
71007W        W37790  16.279  14.147   4.591
71008W        W37791  18.082   1.320   3.027
71009W        W37792  22.196  16.350  14.794
71010W        W37793  35.014  29.346  10.580
71011W        W37794  32.304  11.601   2.693
71012W        W37795   9.403  33.578   1.882
71013W        W37796  23.218   2.015  14.710
71014W        W37797  36.845  14.209   0.024
71015W        W37798  34.085  34.125   0.357
71016W        W37799   9.276  24.054   2.152
71017W        W37800  35.049   2.233   1.705
71018W        W37801  16.137  14.259  14.779
71019W        W37802   1.879  15.094   2.315
71020W        W37803  17.049  26.206  12.839
71021W        W37804  20.772  29.931   0.402
71022W        W37805  30.492  31.098  12.873
71023W        W37806  21.120  28.784  12.149
71024W        W37807   0.749  16.328  13.457
71025W        W37808  19.749  24.251   0.437
71026W        W37809  13.971  28.035  11.173
71027W        W37810  40.916  42.413   2.804
71028W        W37811  21.923  22.775  12.429
71029W        W37812  38.582  31.975   1.769
71030W        W37813   3.809  31.025  11.880
71031W        W37814   1.937  16.038   0.548
71032W        W37815  22.980  33.361  12.310
71033W        W37816  15.897  36.441  13.859
71034W        W37817   4.934  27.404   3.619
71035W        W37818   3.227  33.102  12.055
71036W        W37819   7.808  43.877   1.828
71037W        W37820  30.746  32.123   1.712
71038W        W37821  44.306  30.639   0.018
71039W        W37822  43.696  19.741  12.516
71040W        W37823  39.028  22.235  14.817
71041W        W37824  26.538   3.894   4.729
71042W        W37825  44.244  17.538  13.805
71043W        W37826  15.311   1.121  10.758
71044W        W37827  44.760  16.828  12.732
71045W        W37828  35.776  30.388  14.405
71046W        W37829  41.083  23.792   2.717
71047W        W37830  28.455  42.164  10.680
71048W        W37831  22.423  38.593   3.816
71049W        W37832  26.609   5.790  11.453
71050W        W37833  37.132   7.158  10.335
71051W        W37834  24.205  12.132   2.019
71052W        W37835  31.919   1.401   4.790
71053W        W37836   3.061   1.452  11.063
71054W        W37837   5.186  18.517   1.594
71055W        W37838  15.557  32.587   3.625
71056W        W37839  39.932   5.462   2.271
71057W        W37840  17.809  30.501   1.412
71058W        W37841  18.545  25.259  13.331
71059W        W37842  41.855  23.534  12.866
71060W        W37843  17.209  23.762   4.448
71061W        W37844  44.097  20.927   4.491
71062W        W37845  20.502  15.407  13.518
71063W        W37846  21.765  34.100  13.864
71064W        W37847  25.449  26.683   2.263
71065W        W37848   2.304  23.584   2.968
71066W        W37849  26.582  27.724   0.467
71067W        W37850  35.480  23.750  13.611
71068W        W37851  23.697  24.497   1.264
71069W        W37852  11.228  36.976   4.744
71070W        W37853  39.035   2.461  14.168
71071W        W37854  20.097  41.487   4.561
71072W        W37855  13.723  17.491   2.198
71073W        W37856  20.060   9.207  12.479
71074W        W37857  25.201  20.329   2.377
71075W        W37858  44.776  33.855  14.311
71076W        W37859  42.555  34.460   3.888
71077W        W37860   8.571  21.182   4.158
71078W        W37861  23.767  31.018  14.734
71079W        W37862  39.363  11.180   3.611
71080W        W37863  37.924  24.133  11.553
71081W        W37864  39.055  40.833  14.925
71082W        W37865   9.208  33.004   1.100
71083W        W37866  39.048  13.766   5.479
71084W        W37867  36.077  17.488   2.850
71085W        W37868  42.967  24.509  11.565
71086W        W37869  15.704  24.679   2.097
71087W        W37870  37.413   9.319  10.693
71088W        W37871   9.589  30.500  11.946
71089W        W37872  37.376   1.731   2.896
71090W        W37873   9.227   2.168  12.357
71091W        W37874  43.085  34.623  12.533
71092W        W37875  11.285  28.545  10.379
71093W        W37876  10.967  36.907   3.186
71094W        W37877  37.776   8.628  14.878
71095W        W37878  30.072  18.098   3.197
71096W        W37879  12.534  32.859  11.083
71097W        W37880  34.349  21.064  11.510
71098W        W37881  29.175  25.759  14.388
71099W        W37882  24.552   4.017   1.119
71100W        W37883  32.373  15.626   2.281
71101W        W37884   6.649  16.683   1.201
71102W        W37885  39.015  41.472   1.060
71103W        W37886   6.015   1.953   0.799
71104W        W37887  16.081  40.811  11.662
71105W        W37888  29.964  17.245  11.760
71106W        W37889   7.753  10.256   3.658
71107W        W37890  40.508   5.878  14.801
71108W        W37891  25.872   1.438   4.873
71109W        W37892  11.634  18.050   2.200
71110W        W37893  23.294   3.237  11.619
71111W        W37894  23.735  42.442  14.212
71112W        W37895  32.938  40.797   2.249
71113W        W37896  27.224   6.926  14.518
71114W        W37897   5.209  18.712  11.100
71115W        W37898  17.811  25.319   1.343
71116W        W37899  43.710  43.810  12.585
71117W        W37900  21.210   0.068   4.520
71118W        W37901  12.582  28.335   3.669
71119W        W37902  26.637  30.682  10.909
71120W        W37903  33.047  18.217  14.014
71121W        W37904  31.739  33.528   0.364
71122W        W37905  10.358   1.887   2.422
71123W        W37906  31.725   5.463  13.783
71124W        W37907  33.560  31.087  13.090
71125W        W37908   8.134  13.249   2.451
71126W        W37909  40.065   1.249   0.450
71127W        W37910  44.524  35.365   1.678
71128W        W37911   3.481   5.662   3.741
71129W        W37912   5.123   5.242  13.427
71130W        W37913  14.303  42.787   4.544
71131W        W37914  39.818  34.681  10.920
71132W        W37915  41.023  23.920  14.652
71133W        W37916  10.205   6.163  10.727
71134W        W37917  41.276   7.503   4.934
71135W        W37918  27.073   8.720   0.483
71136W        W37919  10.290  23.511  12.088
71137W        W37920  40.093   9.833   1.956
71138W        W37921   2.484   8.523   2.725
71139W        W37922   0.996   7.324   5.085
71140W        W37923  28.556  22.833   4.111
71141W        W37924  25.757  16.735   1.197
71142W        W37925  10.269   7.211  12.126
71143W        W37926  12.786  11.319  11.110
71144W        W37927   3.390  22.426   2.591
71145W        W37928  37.829   3.008   4.477
71146W        W37929  43.890  21.781  11.792
71147W        W37930   5.875  43.595   3.165
71148W        W37931  22.213  25.112   4.951
71149W        W37932  32.546  22.489   2.733
71150W        W37933  34.333  33.629  12.488
71151W        W37934   5.408  17.370   0.718
71152W        W37935   5.459  43.922   1.497
71153W        W37936   6.770  28.675  12.620
71154W        W37937  11.314   2.218  14.875
71155W        W37938  31.540  15.040  12.011
71156W        W37939  12.681  16.090   4.698
71157W        W37940  23.698  10.570   1.335
71158W        W37941  37.649  37.817  11.254
71159W        W37942  44.594  18.190   0.564
71160W        W37943  20.629   0.777   0.527
71161W        W37944  17.621   1.215   3.283
71162W        W37945  27.307  16.678   1.320
71163W        W37946   4.197  38.963   4.648
71164W        W37947   6.041  28.474  10.765
71165W        W37948  20.715  43.179  12.126
71166W        W37949   0.042  12.137  10.769
71167W        W37950  34.360  11.381  12.778
71168W        W37951   5.957   0.539  14.729
71169W        W37952  25.709  10.159   1.203
71170W        W37953   5.677  41.023  11.995
71171W        W37954  20.203  13.095  14.912
71172W        W37955  13.811  24.362   4.922
71173W        W37956   0.358  14.200  13.797
71174W        W37957  25.971   6.241  12.985
71175W        W37958   6.080   5.142  13.142
71176W        W37959   6.297  36.922  11.706
71177W        W37960  32.403  16.842   3.763
71178W        W37961  41.992  30.472   1.969
71179W        W37962   4.438   7.845   2.442
71180W        W37963  21.076  14.728  12.085
71181W        W37964  13.166  11.657  13.434
71182W        W37965  35.406  10.159  13.337
71183W        W37966  33.878  24.539   4.694
71184W        W37967   6.140  35.568  11.794
71185W        W37968  16.254  41.398  11.021
71186W        W37969   0.766   2.048   4.479
71187W        W37970  41.772  20.988   2.776
71188W        W37971  16.660   8.288   3.423
71189W        W37972  28.881  15.088   2.774
71190W        W37973  17.339  36.995  12.643
71191W        W37974  11.734  34.064   0.998
71192W        W37975  10.302   5.936  14.208
71193W        W37976  27.193  27.246  12.264
71194W        W37977   7.374  34.102  11.906
71195W        W37978  26.715   1.141  13.429
71196W        W37979  12.636  38.992  10.943
71197W        W37980   4.166  27.954  14.797
71198W        W37981  39.036  25.642  12.082
71199W        W37982   3.040  38.906  12.032
71200W        W37983  21.273  20.406   1.400
71201W        W37984  34.994   9.605  12.787
71202W        W37985  37.712  14.718   1.463
71203W        W37986  15.756   4.745   3.256
71204W        W37987  29.432  43.912   0.681
71205W        W37988  40.333  19.861   4.160
71206W        W37989  10.821  35.465   1.691
71207W        W37990  38.019  18.083   4.448
71208W        W37991   4.733  10.860   3.254
71209W        W37992  32.088  35.441  13.714
71210W        W37993  29.261  28.348  12.188
71211W        W37994  19.652   1.469  14.836
71212W        W37995  28.608   4.184  13.461
71213W        W37996  15.763  14.087  11.086
71214W        W37997   7.471  40.005  14.464
71215W        W37998  17.648  32.370  12.124
71216W        W37999  15.718  42.583  12.870
71217W        W38000  35.492  39.375  13.813
71218W        W38001  30.926   2.409  13.296
71219W        W38002  33.875  11.730   3.819
71220W        W38003  10.586  10.191  12.542
71221W        W38004  43.084  13.278  11.397
71222W        W38005  34.412  34.618   2.241
71223W        W38006  43.784  22.140   1.976
71224W        W38007   8.255  31.213  12.064
71225W        W38008  11.267  12.776  10.542
71226W        W38009  12.816  27.000  11.974
71227W        W38010  16.097  27.790  12.740
71228W        W38011  21.691   0.023   0.432
71229W        W38012  11.770   8.613  13.340
71230W        W38013  16.573   0.396  14.032
71231W        W38014  24.516  35.601   1.719
71232W        W38015   5.238  26.073  11.657
71233W        W38016  27.213  13.556   2.741
71234W        W38017  37.213  19.745   4.580
71235W        W38018  12.597   7.717  13.315
71236W        W38019  20.311   7.370   2.806
71237W        W38020  23.206  10.829  12.809
71238ION    NA+38021  22.140  42.702  11.385
71239ION    NA+38022  16.769  18.557  14.941
71240ION    NA+38023  38.874  38.373  11.127
71241ION    NA+38024  20.514  44.064  14.020
71242ION    NA+38025   4.002  42.966  14.539
71243ION    NA+38026  10.150  39.898  10.115
71244ION    NA+38027  43.096  24.718   1.160
71245ION    NA+38028  19.349  31.330  14.073
71246ION    NA+38029  28.918  31.155   2.310
71247ION    NA+38030  33.635   0.454   0.886
71248ION    NA+38031  33.359  20.244  14.231
71249ION    NA+38032  17.360  32.834  14.229
71250ION    NA+38033   4.101  35.918  13.855
71251ION    NA+38034  31.191  18.548  11.677
71252ION    NA+38035  28.678  13.131   1.864
71253ION    NA+38036  29.949  12.236   0.899
71254ION    NA+38037  28.262   2.138   3.921
71255ION    NA+38038  13.905  34.272  13.650
71256ION    NA+38039  23.527  33.804   0.320
71257ION    NA+38040  11.096  13.071   2.749
71258ION    NA+38041  43.082   1.676   9.819
71259ION    NA+38042  42.656  23.557   3.847
71260ION    NA+38043   2.338  34.044  14.493
71261ION    NA+38044   9.452  42.132  13.227
71262ION    NA+38045   3.461  13.694  12.214
71263ION    NA+38046   3.185  26.567   2.385
71264ION    NA+38047  33.024   0.528  11.505
71265ION    NA+38048   6.650  12.124  11.558
71266ION    NA+38049  39.219   0.142  13.842
71267ION    NA+38050  26.199   9.406  12.033
71268ION    NA+38051  32.591  31.592   1.314
71269ION    NA+38052  12.623  20.826  13.180
71270ION    NA+38053  36.366  25.020  11.016
71271ION    NA+38054   4.845   5.886  14.443
71272ION    NA+38055   0.799  31.503   2.309
71273ION    NA+38056  39.865  19.458   4.896
71274ION    NA+38057  24.659  28.762  11.924
71275ION    NA+38058  35.064  20.356   4.331
71276ION    NA+38059  33.559  42.222  12.448
71277ION    NA+38060  25.340  20.586  14.047
71278ION    NA+38061   5.775   9.014  11.981
71279ION    NA+38062  25.751  28.301   2.698
71280ION    NA+38063  11.395  25.536  11.962
71281ION    NA+38064  30.922  30.550  14.005
71282ION    NA+38065   1.664  33.015   2.309
71283ION    NA+38066   1.717  23.179   1.398
71284ION    NA+38067  25.981  38.538  11.864
71285ION    NA+38068  29.878  19.721   0.294
71286ION    NA+38069  42.733   0.936  13.297
71287ION    NA+38070  22.724  34.284   4.587
71288ION    NA+38071  39.658   4.056   4.974
71289ION    NA+38072  44.851   1.013  12.140
71290ION    NA+38073  20.225  13.062  13.538
71291ION    NA+38074  39.471  37.945   0.310
71292ION    NA+38075   9.455   8.920   4.558
71293ION    NA+38076  10.102   3.157  11.953
71294ION    NA+38077  40.488  44.135  11.355
71295ION    NA+38078  42.814  29.061  12.817
71296ION    NA+38079  27.902  40.697   2.093
71297ION    NA+38080   8.331   9.391  12.600
71298ION    NA+38081  16.957  42.362  12.130
71299ION    NA+38082  17.577  35.948   4.558
71300ION    NA+38083  26.291  36.460  13.844
71301ION    NA+38084  36.955   4.300  12.141
71302ION    NA+38085  27.399   9.233   2.607
71303ION    NA+38086  16.079  32.456  11.863
71304ION    NA+38087   8.392  12.776   1.416
71305ION    NA+38088  10.120  22.270   0.435
71306ION    NA+38089  40.573  37.543  14.453
71307ION    NA+38090  26.666  21.946  12.165
71308ION    NA+38091  36.183  17.293   0.339
71309ION    NA+38092  38.647  13.413   4.304
71310ION    NA+38093  35.481  17.558   1.941
71311ION    NA+38094  32.004  29.071  12.682
71312ION    NA+38095  20.038  36.843  12.050
71313ION    NA+38096  35.660  26.835  13.373
71314ION    NA+38097  16.177  28.682  12.800
71315ION    NA+38098  22.552  41.988   2.308
71316ION    NA+38099  16.447  24.648  12.484
71317ION    NA+38100   5.862  12.753   3.746
71318ION    NA+38101   2.642   3.344   1.884
71319ION    NA+38102  15.005   1.049   3.595
71320ION    NA+38103  17.008  17.226  11.691
71321ION    NA+38104  11.865  25.254   0.761
71322ION    NA+38105  14.030  36.619   0.256
71323ION    NA+38106  28.841   6.662   2.007
71324ION    NA+38107  15.969  30.638   2.886
71325ION    NA+38108  35.877  27.278  14.243
71326ION    NA+38109   5.073  31.656  11.248
71327ION    NA+38110  10.941   4.729  13.071
71328ION    NA+38111  20.835  31.426   4.593
71329ION    NA+38112  15.043  18.820   2.817
71330ION    NA+38113  27.119  25.202  14.362
71331ION    NA+38114  16.703  21.655  12.288
71332ION    NA+38115   1.349  39.390   1.321
71333ION    NA+38116  28.733   0.337  12.051
71334ION    NA+38117  10.395  16.928  12.516
71335ION    NA+38118  11.860   7.581   3.717
71336ION    NA+38119   3.658   8.115   1.476
71337ION    NA+38120  30.328  17.333   1.220
71338ION    NA+38121  24.504  31.916  13.344
71339ION    NA+38122  27.174  19.723  13.356
71340ION    NA+38123  36.054  43.402   1.662
71341ION    NA+38124   6.685  38.918  11.445
71342ION    NA+38125   8.677  24.499  13.778
71343ION    NA+38126  12.229  29.878   0.006
71344ION    NA+38127  44.786  18.524   3.732
71345ION    NA+38128  20.506  16.320   1.831
71346ION    NA+38129   3.250  13.343   1.612
71347ION    NA+38130  11.135  14.827   0.876
71348ION    NA+38131  32.361   0.902  12.153
71349ION    NA+38132  34.580   5.884  11.663
71350ION    NA+38133  31.458   0.619   1.480
71351ION    NA+38134  41.559  24.316  12.532
71352ION    NA+38135  14.750  10.574   2.625
71353ION    NA+38136  14.433  37.451   1.998
71354ION    NA+38137  29.775  14.639   2.669
71355ION    NA+38138  40.524  23.096  14.378
71356ION    NA+38139   0.040  24.563   0.364
71357ION    NA+38140  23.264  14.534   1.272
71358ION    NA+38141  36.434  30.508   0.991
71359ION    NA+38142  34.977  13.809  10.677
71360ION    NA+38143  13.636  10.201   4.659
71361ION    NA+38144   6.716  33.639  11.479
71362ION    NA+38145  21.306   1.336   0.181
71363ION    NA+38146  15.632  33.821   4.136
71364ION    NA+38147  13.406  12.324   1.593
71365ION    NA+38148  42.303  14.252  11.634
71366ION    NA+38149  38.392   4.323   1.193
71367ION    NA+38150  36.202  18.446   3.210
71368ION    NA+38151   9.715  32.304   2.488
71369ION    NA+38152  10.563   3.191  10.652
71370ION    NA+38153  30.126  24.548  11.693
71371ION    NA+38154  31.674  21.583   0.275
71372ION    NA+38155  41.857  35.063  13.682
71373ION    NA+38156  31.470  19.082   4.283
71374ION    NA+38157  37.988  25.081  13.633
71375ION    NA+38158  18.557  42.255  14.470
71376ION    NA+38159  15.066   4.228   2.594
71377ION    NA+38160  43.775  12.175   3.685
71378ION    NA+38161  41.810  21.060  12.832
71379ION    NA+38162  26.813  15.288   1.487
71380ION    NA+38163  31.482  27.156   3.306
71381ION    NA+38164  10.061  15.295  13.092
71382ION    NA+38165  38.472  42.508  11.383
71383ION    NA+38166  14.304  23.029  12.442
71384ION    NA+38167  33.293   6.283  11.403
71385ION    NA+38168   2.471  14.986  13.935
71386ION    NA+38169  31.036  27.540   2.128
71387ION    NA+38170  16.690   2.173  12.417
71388ION    NA+38171  42.441  11.868  11.933
71389ION    NA+38172  10.972   8.255  10.940
71390ION    NA+38173  30.168   0.724  11.317
71391ION    NA+38174   9.148  15.441  12.376
71392ION    NA+38175   9.234  31.431   2.751
71393ION    NA+38176  29.950  38.888   0.421
71394ION    NA+38177   0.811  18.721  12.942
71395ION    NA+38178  25.744  14.606  15.000
71396ION    NA+38179  16.425  12.845   2.475
71397ION    NA+38180  18.582  20.010  10.318
71398ION    NA+38181   8.140   4.564  14.629
71399ION    NA+38182  12.728  43.861  11.433
71400ION    NA+38183  36.705  30.110  14.200
71401ION    NA+38184  41.228   8.758  14.630
71402ION    NA+38185  10.196  19.516   2.238
71403ION    NA+38186  36.747  28.550   1.802
71404ION    NA+38187   7.966  30.815   0.511
71405ION    NA+38188  18.776  43.383  10.092
71406ION    NA+38189  14.748  15.406   1.223
71407ION    NA+38190  41.728  25.640   3.205
71408ION    NA+38191  22.314  30.795   4.773
71409ION    NA+38192  26.282  37.138   1.700
71410ION    NA+38193  40.748  14.944   2.893
71411ION    NA+38194  39.045  27.608  14.809
71412ION    NA+38195   6.364  25.185   4.124
71413ION    NA+38196   4.899  24.424  12.025
71414ION    NA+38197  34.896  30.590  11.931
71415ION    NA+38198  16.447  39.874   1.348
71416ION    NA+38199  18.390   2.340  12.736
71417ION    NA+38200   8.397  30.267   4.088
71418ION    NA+38201   6.089  44.361   9.885
71419ION    NA+38202  11.016  37.791  11.192
71420ION    NA+38203  11.036   1.611   3.602
71421ION    NA+38204   3.717   3.025  10.825
71422ION    NA+38205  18.803  32.021   2.741
71423ION    NA+38206  31.501  12.162   3.150
71424ION    NA+38207  10.270  25.262  11.966
71425ION    NA+38208  20.420  36.313   0.862
71426ION    NA+38209   0.119  43.672   1.617
71427ION    NA+38210  10.623  30.970  13.090
71428ION    NA+38211  39.811   7.758   1.882
71429ION    NA+38212  33.056  22.741   3.676
71430ION    NA+38213  33.642   4.750  12.141
71431ION    NA+38214  23.691  28.495   0.544
71432ION    NA+38215  33.983  43.303  12.329
71433ION    NA+38216   0.054  30.123   4.649
71434ION    NA+38217  25.772  44.293   9.869
71435ION    NA+38218  31.127  35.849  13.351
71436ION    NA+38219   7.864  29.949  11.975
71437ION    NA+38220  37.266  25.840   2.449
71438ION    NA+38221  33.644  24.544   5.186
71439ION    NA+38222   5.892  21.565   1.902
71440ION    NA+38223  19.232   4.811  11.110
71441ION    NA+38224   6.807  14.892   0.281
71442ION    NA+38225  32.581  29.117   4.150
71443ION    NA+38226  40.711  19.122  14.994
71444ION    NA+38227  12.253  17.248   4.196
71445ION    NA+38228  31.274   4.187  13.837
71446ION    NA+38229  37.224  30.676   4.285
71447ION    NA+38230  17.288  22.973  12.204
71448ION    NA+38231  43.296  15.946  11.445
71449ION    NA+38232  30.737  25.481  13.876
71450ION    NA+38233   0.344  15.611  12.945
71451ION    NA+38234  20.123  16.597  11.564
71452ION    NA+38235  33.422  35.395  12.019
71453ION    NA+38236  41.712  43.251  13.835
71454ION    NA+38237  17.027  14.377  11.635
71455ION    NA+38238   9.849  26.222  14.543
71456ION    NA+38239  39.120  10.626   4.713
71457ION    NA+38240  13.755   3.595  11.675
71458ION    NA+38241   2.014  42.506   2.868
71459ION    NA+38242   2.571  11.866  11.808
71460ION    NA+38243  21.951  16.256   5.378
71461ION    NA+38244  13.990  14.796   1.488
71462ION    NA+38245  11.590   9.066  11.456
71463ION    NA+38246  41.618  10.216   1.120
71464ION    NA+38247  38.604   6.800   3.390
71465ION    NA+38248  21.336  31.136   1.141
71466ION    NA+38249  31.393  33.151   4.348
71467ION    NA+38250  35.373  31.052   0.080
71468ION    NA+38251  17.030  39.548  12.860
71469ION    NA+38252  44.813  14.368   0.751
71470ION    NA+38253  15.769  18.908  11.626
71471ION    NA+38254   9.097   5.330  10.853
71472ION    NA+38255  33.573  17.277   3.690
71473ION    NA+38256  29.681  44.599  11.664
71474ION    NA+38257   9.567   8.556   0.282
71475ION    NA+38258  16.670  39.237   2.828
71476ION    NA+38259  20.671  23.112   0.715
71477ION    NA+38260   8.825  12.896   2.507
71478ION    NA+38261  10.370   4.712  14.980
71479ION    NA+38262  21.945  27.177   2.704
71480ION    NA+38263  15.067  38.684   3.216
71481ION    NA+38264  18.930  23.603  12.538
71482ION    NA+38265  18.815  20.992  12.392
71483ION    NA+38266  18.497  41.025  10.650
71484ION    NA+38267   8.862   3.670   4.149
71485ION    NA+38268   4.015   3.136   2.984
71486ION    NA+38269  32.790   6.286  10.037
71487ION    NA+38270   8.410  26.059   3.128
71488ION    NA+38271   7.675  24.210  12.078
71489ION    NA+38272  23.426  44.008   2.753
71490ION    NA+38273  10.339  14.798   2.460
71491ION    NA+38274  28.481  19.201   4.653
71492ION    NA+38275  40.532  26.477   2.739
71493ION    NA+38276  40.256  29.330   2.971
71494ION    NA+38277  42.148   5.710   5.089
71495ION    NA+38278  34.558  32.877  13.529
71496ION    NA+38279  43.600  30.734   9.797
71497ION    NA+38280  31.351   6.024   3.671
71498ION    NA+38281  31.657   1.640  10.204
71499ION    NA+38282  29.678  25.621   2.143
71500ION    NA+38283   4.602   5.542  11.665
71501ION    NA+38284  16.066  43.487  13.238
71502ION    NA+38285  24.868  16.398   1.758
71503ION    NA+38286   4.643  29.553   0.634
71504ION    NA+38287  17.798  34.485   0.574
71505ION    NA+38288  10.399  38.964  12.878
71506ION    NA+38289   1.711  13.298  10.794
71507ION    NA+38290  43.958  30.478  14.441
71508ION    NA+38291  16.409  36.172  14.451
71509ION    NA+38292  11.603  21.589  14.479
71510ION    NA+38293   9.843  10.521   2.290
71511ION    NA+38294  37.509  22.772  12.969
71512ION    NA+38295  37.147  10.301   5.371
71513ION    NA+38296   6.016  15.681  14.585
71514ION    NA+38297  13.624   4.383   4.603
71515ION    NA+38298  23.484  21.692  13.986
71516ION    NA+38299  37.928  32.524   0.001
71517ION    NA+38300  26.989  34.589  11.047
71518ION    NA+38301  26.746  33.992   4.949
71519ION    NA+38302  23.496  28.181  13.450
71520ION    NA+38303  35.096  10.410   2.806
71521ION    NA+38304  23.349  31.281   4.643
71522ION    NA+38305   5.939   7.382   9.838
71523ION    NA+38306  35.415  33.165   3.780
71524ION    NA+38307  32.209   4.658  13.859
71525ION    NA+38308   7.432  12.588  12.019
71526ION    NA+38309  38.899   9.552  14.878
71527ION    NA+38310  32.332  36.712  14.342
71528ION    NA+38311   6.933  14.623   3.981
71529ION    NA+38312  24.366  18.832  10.917
71530ION    NA+38313  25.570  38.275  13.918
71531ION    NA+38314  25.641  21.309  13.101
71532ION    NA+38315  11.704   6.291   1.678
71533ION    NA+38316  30.174  21.878   3.049
71534ION    NA+38317  39.249  21.845   0.105
71535ION    NA+38318  10.774  27.242  12.216
71536ION    NA+38319  19.647   1.238   3.830
71537ION    NA+38320  41.278  37.644  13.945
71538ION    NA+38321  35.889  41.276   4.590
71539ION    NA+38322  42.435   0.733   3.700
71540ION    NA+38323  38.460  23.451   1.804
71541ION    NA+38324  42.959  38.755  14.873
71542ION    NA+38325  10.530  38.843  14.687
71543ION    NA+38326  10.074  11.410  13.076
71544ION    NA+38327  17.996   9.934   2.776
71545ION    NA+38328   1.820  27.173  13.930
71546ION    NA+38329   2.830  40.916   0.840
71547ION    NA+38330  11.800  30.502  13.116
71548ION    NA+38331  23.940  17.584   0.688
71549ION    NA+38332   2.929  25.703  10.699
71550ION    NA+38333  35.171   3.953  13.962
71551ION    NA+38334   2.635  12.555  11.218
71552ION    NA+38335  17.858  28.822   3.630
71553ION    NA+38336  10.831  36.504   0.942
71554ION    NA+38337  30.976  26.394  14.303
71555ION    NA+38338  26.670  40.220   4.080
71556ION    NA+38339  32.909  43.126   3.736
71557ION    NA+38340  22.569  18.330  13.576
71558ION    NA+38341  33.909  41.461  13.394
71559ION    NA+38342   9.092   3.162   0.480
71560ION    NA+38343  15.705   5.123  10.256
71561ION    NA+38344  28.935   1.833   4.609
71562ION    NA+38345  19.918   4.200   1.766
71563ION    NA+38346  39.911  42.866   2.940
71564ION    NA+38347  14.223  21.027  11.513
71565ION    NA+38348  21.989  20.624  12.083
71566ION    NA+38349   6.882  44.045   3.330
71567ION    NA+38350  32.659  27.174   1.713
71568ION    NA+38351  42.200  39.434   0.006
71569ION    NA+38352   6.773   4.144  12.021
71570ION    NA+38353  15.590  40.450  10.159
71571ION    NA+38354  38.538  32.867  11.550
71572ION    NA+38355  39.835  27.374  12.621
71573ION    NA+38356   4.975  39.037   1.462
71574ION    NA+38357  24.709  37.856  12.963
71575ION    NA+38358  38.595  42.118   4.186
71576ION    NA+38359  41.381   8.328   3.079
71577ION    NA+38360  14.609  25.010  13.565
71578ION    NA+38361   0.272  43.264  13.905
71579ION    NA+38362   8.619  35.068  11.424
71580ION    NA+38363   5.916  27.529  14.749
71581ION    NA+38364  25.710  20.756   4.499
71582ION    NA+38365  21.123  30.949   5.284
71583ION    NA+38366  15.184   0.952   0.197
71584ION    NA+38367  12.608  24.412  12.009
71585ION    NA+38368  21.928  24.804  14.962
71586ION    NA+38369  37.137   1.345   3.276
71587ION    NA+38370  29.191  43.270   1.706
71588ION    NA+38371   8.336  32.846   4.778
71589ION    NA+38372  22.626  34.777  12.507
71590ION    NA+38373  29.952  21.424  12.242
71591ION    NA+38374   0.045  36.340   3.760
71592ION    NA+38375  25.642   5.749   2.311
71593ION    NA+38376  23.333  16.183  13.140
71594ION    NA+38377  14.028  20.932  14.994
71595ION    NA+38378   6.212   5.135   1.945
71596ION    NA+38379  41.102  23.406   2.162
71597ION    NA+38380  32.386  23.792   0.014
71598ION    NA+38381  29.713   4.789  13.824
71599ION    NA+38382  28.184  19.461   3.252
71600ION    NA+38383  14.587  43.343  13.547
71601ION    NA+38384  40.573   8.400   1.794
71602ION    NA+38385  44.626  31.894   3.549
71603ION    NA+38386  38.936  38.975   2.818
71604ION    NA+38387  42.476   7.424  14.292
71605ION    NA+38388  14.518  35.018  10.343
71606ION    NA+38389  35.732  15.653   2.030
71607ION    NA+38390  26.382  16.233  12.077
71608ION    NA+38391  28.668   6.782  11.253
71609ION    NA+38392  35.917   2.975  14.607
71610ION    NA+38393  11.573  14.830  10.636
71611ION    NA+38394  10.525   3.201   5.059
71612ION    NA+38395  38.415   5.894   0.828
71613ION    NA+38396  14.312  32.295  14.530
71614ION    NA+38397  25.246  33.914   4.431
71615ION    NA+38398   7.613  33.307   4.113
71616ION    NA+38399  32.244   0.433  14.414
71617ION    NA+38400  14.188  42.573  10.919
71618ION    NA+38401   2.605  30.433  12.942
71619ION    NA+38402   6.454  22.924   1.545
71620ION    NA+38403  43.540   0.070   2.404
71621ION    NA+38404  26.874   8.237   0.230
71622ION    NA+38405  14.840  33.932  11.031
71623ION    NA+38406  32.572  11.694   1.254
71624ION    NA+38407  42.214  18.531   2.694
71625ION    NA+38408  16.695  11.165  14.875
71626ION    NA+38409  17.868  27.604   2.968
71627ION    NA+38410   8.502  21.486   0.202
71628ION    NA+38411  43.726  21.254  12.483
71629ION    NA+38412  16.504  16.149   2.803
71630ION    NA+38413  40.313   2.817   0.573
71631ION    NA+38414  24.816   5.821  10.864
71632ION    NA+38415  27.056   0.015   3.286
71633ION    NA+38416  12.637  36.536  13.293
71634ION    NA+38417  37.331  43.715   4.988
71635ION    NA+38418  13.285  14.283  12.560
71636ION    NA+38419  23.380  22.066  12.137
71637ION    NA+38420  34.728  31.541   2.786
71638ION    NA+38421   8.387  39.530  13.427
71639ION    NA+38422   0.673  22.553   2.108
71640ION    NA+38423  26.116  33.348  13.038
71641ION    NA+38424  21.126   2.543  12.934
71642ION    NA+38425   2.507  10.166  13.905
71643ION    NA+38426  43.465  36.013  10.684
71644ION    NA+38427  44.466  34.694  14.422
71645ION    NA+38428  30.834  10.111   2.554
71646ION    NA+38429  19.107  27.256  12.996
71647ION    NA+38430   3.933  31.951  14.552
71648ION    NA+38431  28.477   1.672  11.386
71649ION    NA+38432   4.849  44.797  11.505
71650ION    NA+38433  30.877  21.372  11.866
71651ION    NA+38434  15.615  26.667   1.721
71652ION    NA+38435  25.015  32.758   1.410
71653ION    NA+38436  36.622  24.287  13.138
71654ION    NA+38437  37.626  10.315   3.658
71655ION    NA+38438  13.389   8.968  10.364
71656ION    NA+38439  19.069  40.404  11.613
71657ION    NA+38440  42.789   9.426  10.680
71658ION    NA+38441  30.489  16.063  14.343
71659ION    NA+38442   5.381  37.384  13.400
71660ION    NA+38443  12.376  44.140   1.607
71661ION    NA+38444  30.710  13.229   3.220
71662ION    NA+38445  10.694  13.122   1.508
71663ION    NA+38446  28.355   5.245   4.712
71664ION    NA+38447  26.435  37.541  14.021
71665ION    NA+38448   0.436   7.193  10.657
71666ION    NA+38449  24.273  33.675  11.191
71667ION    NA+38450  23.860  10.624  12.048
71668ION    NA+38451  27.644  27.868  10.224
71669ION    NA+38452   5.783  31.727  14.641
71670ION    NA+38453   5.196   4.199  11.564
71671ION    NA+38454  44.175  26.991   1.518
71672ION    NA+38455  42.799  17.066   2.735
71673ION    NA+38456  31.249   2.738   2.790
71674ION    NA+38457  19.607   7.445   1.678
71675ION    NA+38458  37.626  31.532  10.922
71676ION    NA+38459  19.903  16.185  13.239
71677ION    NA+38460  25.494  26.053   2.817
71678ION    NA+38461   2.184  27.039   4.677
71679ION    NA+38462  32.048   1.697   4.094
71680ION    NA+38463  31.550  30.555  12.778
71681ION    NA+38464  21.581   6.669  10.285
71682ION    NA+38465   6.627  41.626  14.996
71683ION    NA+38466  22.649  32.211   2.780
71684ION    NA+38467  29.923   3.271   3.684
71685ION    NA+38468  42.903  21.551   3.209
71686ION    NA+38469  12.288   4.792   0.907
71687ION    NA+38470  21.943  17.715   0.784
71688ION    NA+38471  20.444  33.804  11.719
71689ION    NA+38472  15.339  15.112   0.400
71690ION    NA+38473  18.776   6.394  11.897
71691ION    NA+38474   0.348  26.934   3.475
71692ION    NA+38475  35.495  25.776  10.642
71693ION    NA+38476  13.220  32.541   2.989
71694ION    NA+38477  22.584  13.397   0.035
71695ION    NA+38478  26.256  29.947   1.889
71696ION    NA+38479  15.979  25.915   2.565
71697ION    NA+38480  33.687  25.281  11.700
71698ION    NA+38481  15.825  44.834  13.076
71699ION    NA+38482  25.158  13.352   2.290
71700ION    NA+38483   8.336  21.455  14.204
71701ION    NA+38484  39.929  17.543   0.624
71702ION    NA+38485  17.807   2.493   0.849
71703ION    NA+38486  13.433  35.337  10.318
71704ION    NA+38487   0.061  12.818  14.687
71705ION    NA+38488  18.278  27.987   4.069
71706ION    NA+38489  15.952   4.497  14.966
71707ION    NA+38490  42.453   8.855   1.582
71708ION    NA+38491  31.601  18.680   0.548
71709ION    NA+38492  20.158  19.203  14.405
71710ION    NA+38493  32.115  39.958  13.319
71711ION    NA+38494  28.480  33.374  12.180
71712ION    NA+38495   2.508  15.863  11.613
71713ION    NA+38496  42.506   6.535  14.269
71714ION    NA+38497  21.270  30.148  13.514
71715ION    NA+38498  12.853  27.272   4.450
71716ION    NA+38499  26.974  36.641   3.193
71717ION    NA+38500  15.357  13.801   0.941
71718ION    NA+38501  24.057  28.210   9.987
71719ION    NA+38502  42.750   2.874   4.312
71720ION    NA+38503  41.863  20.579   0.729
71721ION    NA+38504  39.111  36.374   0.973
71722ION    NA+38505  28.604  44.375  12.651
71723ION    NA+38506  20.607  27.634   2.879
71724ION    NA+38507  17.433  36.956  11.512
71725ION    NA+38508   6.586  37.137   0.259
71726ION    NA+38509   2.758   8.245  12.078
71727ION    NA+38510  33.558   2.512   4.763
71728ION    NA+38511   7.290  26.707  11.949
71729ION    NA+38512   0.939  43.764  14.459
71730ION    NA+38513   5.789  18.520  12.304
71731ION    NA+38514   3.693  17.246   1.511
71732ION    NA+38515  19.889  12.002   1.337
71733ION    NA+38516  10.591  38.354   3.804
71734ION    NA+38517  17.890   6.833  12.048
71735ION    NA+38518  14.364  35.305   4.245
71736ION    NA+38519  31.685  35.296  10.644
71737ION    NA+38520   9.962  24.954   1.025
71738ION    NA+38521  29.043  14.954   1.733
71739ION    NA+38522  43.569  20.090   0.419
71740ION    NA+38523  35.516  22.954   2.147
71741ION    NA+38524  22.988  27.066   2.925
71742ION    NA+38525   0.318  28.433   2.790
71743ION    NA+38526  15.094  12.646   0.109
71744ION    NA+38527  15.871  29.761   3.097
71745ION    NA+38528  17.093  25.655   3.784
71746ION    NA+38529  21.909  34.361  12.127
71747ION    NA+38530  20.405   8.689  11.161
71748ION    NA+38531  15.728  38.388  11.991
71749ION    NA+38532   1.476  10.117  12.934
71750ION    NA+38533   9.686   9.225   1.015
71751ION    NA+38534  19.122   9.849   2.183
71752ION    NA+38535  27.133  21.533   2.139
71753ION    NA+38536  24.231  14.503   1.018
71754ION    NA+38537  14.645  34.685   2.192
71755ION    NA+38538  38.388  10.622  14.310
71756ION    NA+38539  40.468  43.201  11.713
71757ION    NA+38540  39.688  26.183  11.444
71758ION    NA+38541   6.072  11.167   4.189
71759ION    NA+38542   9.501  42.583  12.441
71760ION    NA+38543  39.901  40.281  11.064
71761ION    NA+38544  42.560  42.118   4.622
71762ION    NA+38545   2.264  43.749  11.424
71763ION    NA+38546  11.937  28.830  11.620
71764ION    NA+38547  41.026  40.719  14.409
71765ION    NA+38548  16.814  13.230  10.645
71766ION    NA+38549  23.468  14.901   4.511
71767ION    NA+38550  33.039   1.033   0.329
71768ION    NA+38551  44.606  29.685  12.417
71769ION    NA+38552   3.295   0.508   4.377
71770ION    NA+38553  18.742  13.881  11.886
71771ION    NA+38554   0.410   0.417   0.401
71772ION    NA+38555  14.498  17.640   1.729
71773ION    NA+38556  12.500   8.207  14.629
71774ION    NA+38557  21.913  19.135  12.087
71775ION    NA+38558  31.621  30.391   0.436
71776ION    NA+38559   9.198   7.732  14.851
71777ION    NA+38560   5.198   2.882  12.802
71778ION    NA+38561  19.738  19.583  13.473
71779ION    NA+38562  40.737  16.648  11.829
71780ION    NA+38563   2.060  40.045   1.601
71781ION    NA+38564   8.812  12.172   1.818
71782ION    NA+38565  35.618   1.692  12.177
71783ION    NA+38566  25.653  11.071   3.236
71784ION    NA+38567  17.099  19.920  14.159
71785ION    NA+38568  40.842  25.706  11.311
71786ION    NA+38569   5.272  29.025   1.526
71787ION    NA+38570   6.253  30.489   1.469
71788ION    NA+38571   9.513  22.087   3.610
71789ION    NA+38572  40.170  24.468   0.592
71790ION    NA+38573   0.291   4.783  12.771
71791ION    NA+38574  15.100  42.251  12.936
71792ION    NA+38575  12.131  40.848   2.706
71793ION    NA+38576  21.354  14.059   3.460
71794ION    NA+38577  12.753  16.301  10.921
71795ION    NA+38578  15.132  39.338  14.725
71796ION    NA+38579  37.690  28.874   0.837
71797ION    NA+38580  20.943  28.275   4.484
71798ION    NA+38581  34.056  33.491   1.187
71799ION    NA+38582  12.326  35.444  10.273
71800ION    NA+38583  44.813  33.002  12.396
71801ION    NA+38584  12.983  16.405  12.547
71802ION    NA+38585  13.849  40.485  12.041
71803ION    NA+38586  18.607  41.861   0.912
71804ION    NA+38587  10.497  24.633  10.568
71805ION    NA+38588  39.579  21.167  13.421
71806ION    NA+38589   4.250  17.314   3.229
71807ION    NA+38590   3.907  26.765  12.106
71808ION    NA+38591  13.419  39.732  12.538
71809ION    NA+38592  33.986  12.248   2.744
71810ION    NA+38593  10.503  26.611  13.304
71811ION    NA+38594  21.703  42.119   2.820
71812ION    NA+38595   3.661   3.713  13.245
71813ION    NA+38596  19.418  25.873   3.673
71814ION    NA+38597  13.342  35.428   2.811
71815ION    NA+38598  17.332  27.915   3.752
71816ION    NA+38599  17.362  37.181   5.388
71817ION    NA+38600   8.013   1.274  12.473
71818ION    NA+38601   0.858  15.260  11.477
71819ION    NA+38602  27.200   7.345  13.272
71820ION    NA+38603  40.433  38.817  12.740
71821ION    NA+38604  20.994  19.610  11.535
71822ION    NA+38605   4.806  36.419  13.582
71823ION    NA+38606  36.330   2.275   0.280
71824ION    NA+38607  21.062  20.826   2.386
71825ION    NA+38608  19.234  11.492  13.773
71826ION    NA+38609  38.854  27.563   3.278
71827ION    NA+38610   6.010  43.894   0.114
71828ION    NA+38611  24.543  12.742  12.176
71829ION    NA+38612  32.281  38.431   2.105
71830ION    NA+38613  43.950  20.021   2.733
71831ION    NA+38614   6.217   9.751   0.407
71832ION    NA+38615  38.240  14.516  11.539
71833ION    NA+38616  14.581  24.786   0.617
71834ION    NA+38617   7.593   2.493  11.743
71835ION    NA+38618  14.011  10.159   9.454
71836ION    NA+38619  44.075  33.460  11.499
71837ION    NA+38620   1.121   8.402   4.631
71838ION    NA+38621  24.505  29.071   1.224
71839ION    NA+38622   1.506  35.844  13.131
71840ION    NA+38623  33.048  41.301   4.222
71841ION    NA+38624  39.805  38.751   3.858
71842ION    NA+38625  20.800  15.130  13.151
71843ION    NA+38626  30.666  27.078   1.423
71844ION    NA+38627  32.078  44.409   4.603
71845ION    NA+38628   2.083  40.285   0.630
71846ION    NA+38629  16.118  11.881   3.272
71847ION    NA+38630  43.896  10.240   1.053
71848ION    NA+38631  43.452  31.966  13.012
71849ION    NA+38632  36.890   2.696  12.119
71850ION    NA+38633  20.435  43.482   1.860
71851ION    NA+38634  44.780  27.032  11.781
71852ION    NA+38635  35.005  22.143  14.288
71853ION    NA+38636  44.775   0.051  13.930
71854ION    NA+38637   7.289  13.341  14.137
71855ION    NA+38638  41.392  26.157   0.973
71856ION    NA+38639  44.403  41.916   2.840
71857ION    NA+38640  40.471   5.384  10.857
71858ION    NA+38641  13.393  32.001   0.761
71859ION    NA+38642  37.444  30.935  14.013
71860ION    NA+38643  34.912   8.774   2.536
71861ION    NA+38644   0.455  14.109   3.163
71862ION    NA+38645  38.988  11.440   0.464
71863ION    NA+38646  23.739  25.749  12.107
71864ION    NA+38647  42.248  38.106  13.136
71865ION    NA+38648  26.550  27.271   0.778
71866ION    NA+38649  34.061   0.157   4.435
71867ION    NA+38650  22.897  21.742   1.063
71868ION    NA+38651  12.968  15.057  10.375
71869ION    NA+38652  11.769  24.448  12.554
71870ION    NA+38653  42.728  10.098  13.295
71871ION    NA+38654  34.602  21.723  11.996
71872ION    NA+38655  39.991  32.134  10.379
71873ION    NA+38656   9.362  40.740   2.605
71874ION    NA+38657  42.736  26.300  12.595
71875ION    NA+38658  27.536  25.818   3.832
71876ION    NA+38659  17.310   0.704   5.058
71877ION    NA+38660  28.129  28.231   3.329
71878ION    NA+38661   7.862  26.559  12.325
71879ION    NA+38662  15.767  42.552  14.612
71880ION    NA+38663   9.295  27.150  14.855
71881ION    NA+38664  13.790  41.085  11.243
71882ION    NA+38665   6.445  31.339   3.142
71883ION    NA+38666  26.236  33.590   1.702
71884ION    NA+38667  38.737  28.458  13.415
71885ION    NA+38668  43.605  11.228  13.438
71886ION    NA+38669  27.578  15.700   3.120
71887ION    NA+38670  21.665   2.948  12.132
71888ION    NA+38671  36.093  33.026   2.723
71889ION    NA+38672  39.769   7.181   5.251
71890ION    NA+38673   6.663  33.066  14.232
71891ION    NA+38674  42.713  33.016  12.724
71892ION    NA+38675  43.270  12.267   0.972
71893ION    NA+38676   2.927  14.316  14.522
71894ION    NA+38677  39.944  16.990  12.334
71895ION    NA+38678  16.352  10.066   4.125
71896ION    NA+38679  33.453   2.774   1.297
71897ION    NA+38680  28.560  25.449  13.345
71898ION    NA+38681  27.530   3.055   1.941
71899ION    NA+38682  16.978  40.608   2.977
71900ION    NA+38683  23.327  17.560   3.210
71901ION    NA+38684  28.980  38.703   4.479
71902ION    NA+38685  14.479   3.485  13.682
71903ION    NA+38686  19.116  31.427   4.270
71904ION    NA+38687  33.597   2.381  12.501
71905ION    NA+38688  38.018  33.143   3.568
71906ION    NA+38689  23.706  26.745  13.481
71907ION    NA+38690  31.131   4.920  10.795
71908ION    NA+38691  25.484  14.755  12.905
71909ION    NA+38692  16.438  37.808  12.449
71910ION    NA+38693  17.574  25.619   0.801
71911ION    NA+38694  15.647  23.134   4.487
71912ION    NA+38695   6.141  14.116  14.792
71913ION    NA+38696  18.716  19.576  14.379
71914ION    NA+38697   4.806   9.494  13.878
71915ION    NA+38698  17.172   1.959   4.591
71916ION    NA+38699  26.502  29.821   3.582
71917ION    NA+38700  33.095  17.056   0.891
71918ION    NA+38701  21.013  37.629  14.955
71919ION    NA+38702  24.762   7.523  12.672
71920ION    NA+38703  31.965  40.657   0.271
71921ION    NA+38704  35.920   9.933   3.358
71922ION    NA+38705  22.928  41.350   0.882
71923ION    NA+38706  24.893  20.447   4.987
71924ION    NA+38707  37.856  17.467   1.861
71925ION    NA+38708  19.084  23.463  11.103
71926ION    NA+38709  12.480  20.332   0.690
71927ION    NA+38710  29.611  39.802  13.639
71928ION    NA+38711  39.919  28.180  10.344
71929ION    NA+38712  19.595   2.503  14.817
71930ION    NA+38713   9.694  38.215   0.937
71931ION    NA+38714  23.287  25.765   2.879
71932ION    NA+38715  17.968  11.374   3.619
71933ION    NA+38716  21.463  31.652  14.802
71934ION    NA+38717  15.842  28.725   3.338
71935ION    NA+38718  17.347  24.256   4.345
71936ION    NA+38719   5.588   3.890  14.747
71937ION    NA+38720  12.342  32.015  11.945
71938ION    NA+38721   0.452  30.846   0.428
71939ION    NA+38722  38.418  22.544  10.899
71940ION    NA+38723  22.088  21.670   4.635
71941ION    NA+38724  40.809   2.555   2.276
71942ION    NA+38725  17.998  25.527  10.439
71943ION    NA+38726  10.285  14.406  13.451
71944ION    NA+38727  18.327   3.755  12.640
71945ION    NA+38728  26.557  25.842   4.036
71946ION    NA+38729   5.228   2.901  11.367
71947ION    NA+38730  12.420   3.558  12.871
71948ION    NA+38731  17.167  10.136   3.298
71949ION    NA+38732  26.509   3.286   1.452
71950ION    NA+38733  33.401  30.198  12.786
71951ION    NA+38734  11.787   3.859   1.852
71952ION    NA+38735   0.514  43.582   2.478
71953ION    NA+38736  34.401  40.758  11.079
71954ION    NA+38737  33.134  18.686   4.306
71955ION    NA+38738   1.836  17.434   0.306
71956ION    NA+38739  11.869  40.035   4.835
71957ION    NA+38740  14.922   6.665  13.094
71958ION    NA+38741  15.706  41.630   2.280
71959ION    NA+38742  38.174   7.946   2.487
71960ION    NA+38743  25.395  38.672   2.046
71961ION    NA+38744  28.076  40.405   0.252
71962ION    NA+38745  41.232  18.035  11.275
71963ION    NA+38746  24.630  41.796  10.245
71964ION    NA+38747  10.116  15.715   4.063
71965ION    NA+38748  25.407  29.402   1.632
71966ION    NA+38749   1.378  35.753  14.941
71967ION    NA+38750  30.129   5.341   2.760
71968ION    NA+38751   5.642  16.256   5.083
71969ION    NA+38752  30.236  34.630   0.482
71970ION    NA+38753  31.365  26.649  11.597
71971ION    NA+38754  13.188  43.860   0.567
71972ION    NA+38755  41.994  11.034  11.608
71973ION    NA+38756  20.755  28.432   0.231
71974ION    NA+38757  29.262  17.720  14.906
71975ION    NA+38758   2.865  13.529  10.953
71976ION    NA+38759   5.328  24.207   3.299
71977ION    NA+38760  42.090  44.527  12.934
71978ION    NA+38761   4.938  41.968   1.640
71979ION    NA+38762   8.687  22.655   3.691
71980ION    NA+38763  22.985  10.896  13.674
71981ION    NA+38764  29.020   7.700   0.538
71982ION    NA+38765  11.698   2.483   2.121
71983ION    NA+38766  36.197  33.548   4.664
71984ION    NA+38767  27.342  34.547   3.320
71985ION    NA+38768  37.425  26.535  12.630
71986ION    NA+38769   3.139  42.907   0.056
71987ION    NA+38770   5.609   7.161   2.223
71988ION    NA+38771  42.249  41.080  11.986
71989ION    NA+38772  31.977  14.748  12.020
71990ION    NA+38773  11.656  37.471  14.814
71991ION    NA+38774  13.151   9.000   4.716
71992ION    NA+38775  25.113  10.490  13.071
71993ION    NA+38776  11.890   9.730  13.924
71994ION    NA+38777  39.564  22.321   0.952
71995ION    NA+38778  41.821  36.849   0.974
71996ION    NA+38779  10.357  42.820   4.561
71997ION    NA+38780  19.415  42.379  13.811
71998ION    NA+38781  35.654  40.168  12.099
71999ION    NA+38782  20.078   9.795   2.474
72000ION    NA+38783  37.205  39.944   2.152
72001ION    NA+38784  38.942  29.851  10.115
72002ION    NA+38785  32.664  30.452  11.069
72003ION    NA+38786  21.351   5.897  12.594
72004ION    NA+38787  37.460   9.670  13.738
72005ION    NA+38788  41.765  14.803  12.845
72006ION    NA+38789  14.583  15.410  14.996
72007ION    NA+38790   5.674  39.222   4.250
72008ION    NA+38791  32.985  10.248   5.048
72009ION    NA+38792   8.617  15.679   4.103
72010ION    NA+38793  19.502  33.292  14.863
72011ION    NA+38794   5.425  31.390  12.846
72012ION    NA+38795  19.652  24.957  10.601
72013ION    NA+38796  29.340  36.400  11.962
72014ION    NA+38797  34.298  10.873   3.404
72015ION    NA+38798  29.028  26.056  13.988
72016ION    NA+38799  10.955  13.229  11.659
72017ION    NA+38800  25.667   0.010   3.991
72018ION    NA+38801  14.065  20.004  13.938
72019ION    NA+38802  15.804  16.780  13.079
72020ION    NA+38803  35.830  26.661   0.029
72021ION    NA+38804  25.099  16.368  13.954
72022ION    NA+38805  24.139  42.453   0.255
72023ION    NA+38806  15.007   3.328  10.499
72024ION    NA+38807  33.528  36.842  12.100
72025ION    NA+38808  41.260  10.676   1.933
72026ION    NA+38809  34.847   7.415  14.037
72027ION    NA+38810  18.009  44.003  12.441
72028ION    NA+38811   3.879  16.539   2.030
72029ION    NA+38812  33.975  22.532   5.254
72030ION    NA+38813  38.941  13.929  12.882
72031ION    NA+38814  38.489  27.720   4.391
72032ION    NA+38815  12.046  43.090  10.834
72033ION    NA+38816  35.051  19.323  13.375
72034ION    NA+38817  40.300  34.597   2.773
72035ION    NA+38818  38.632  38.643  13.807
72036ION    NA+38819  21.720  39.214   4.735
72037ION    NA+38820  33.309  27.223   0.416
72038ION    NA+38821  12.573   1.974   3.168
72039ION    NA+38822  24.183   5.664   3.701
72040ION    NA+38823  33.220  44.962   9.674
72041ION    NA+38824  21.804  26.049  13.417
72042ION    NA+38825  44.051  10.269  12.508
72043ION    NA+38826   3.765  11.297   1.428
72044ION    NA+38827  11.678  20.670  12.196
72045ION    NA+38828  16.256  17.009   2.187
72046ION    NA+38829  41.917  38.227   2.832
72047ION    NA+38830  38.556  31.311  14.193
72048ION    NA+38831  29.200   3.919  12.106
72049ION    NA+38832   4.384   4.075   3.925
72050ION    NA+38833  17.362  28.937  12.622
72051ION    NA+38834  37.670  38.379   1.390
72052ION    NA+38835  21.124  26.810   3.426
72053ION    NA+38836  44.635  20.481  12.957
72054ION    NA+38837  41.031  13.641  11.916
72055ION    NA+38838  35.128  24.794   0.714
72056ION    NA+38839   4.840  44.250  12.650
72057ION    NA+38840  29.538  32.552  10.868
72058ION    NA+38841  12.227   0.082   1.126
72059ION    NA+38842  41.099  34.646   2.172
72060ION    NA+38843   0.389  12.625   2.119
72061ION    NA+38844  37.380  19.219  14.540
72062ION    NA+38845  39.209  30.425  12.244
72063ION    NA+38846  26.685  44.733  14.834
72064ION    NA+38847  20.045  28.939   1.400
72065ION    NA+38848  13.062  21.517  12.559
72066ION    NA+38849  31.782  11.777   0.291
72067ION    NA+38850  12.026   0.924   1.628
72068ION    NA+38851  43.032   3.001   0.757
72069ION    NA+38852  22.249  18.343   1.500
72070ION    NA+38853  32.478  22.988  14.317
72071ION    NA+38854  33.849  19.408  10.602
72072ION    NA+38855   3.531  17.234   0.676
72073ION    NA+38856  25.699  32.104   4.692
72074ION    NA+38857  14.793  11.702  14.240
72075ION    NA+38858   4.480  23.573  14.171
72076ION    NA+38859  33.892  43.726  14.001
72077ION    NA+38860  30.853  31.793  11.675
72078ION    NA+38861  21.088   4.550  11.526
72079ION    NA+38862  44.380  17.618  10.787
72080ION    NA+38863  24.209  32.734  13.528
72081ION    NA+38864  35.501  35.816   0.211
72082ION    NA+38865  44.142  41.478  11.311
72083ION    NA+38866   6.740  38.546   1.951
72084ION    NA+38867   0.723   7.836   4.165
72085ION    NA+38868  42.944  12.920  13.271
72086ION    NA+38869   5.385  31.249   3.977
72087ION    NA+38870  13.282  11.192   1.821
72088ION    NA+38871  34.359  34.885   4.062
72089ION    NA+38872  26.365  16.270  14.299
72090ION    NA+38873   3.667  29.727   0.392
72091ION    NA+38874   8.836  41.893   2.725
72092ION    NA+38875  40.989   4.457  11.387
72093ION    NA+38876   2.880  11.885  13.675
72094ION    NA+38877   1.524  26.680   1.796
72095ION    NA+38878  25.504  21.239   2.283
72096ION    NA+38879  34.231  42.955   3.604
72097ION    NA+38880  21.688  21.563  12.246
72098ION    NA+38881  39.477  28.624  12.764
72099ION    NA+38882  29.597  37.358  12.090
72100ION    NA+38883  21.253  10.206   0.217
72101ION    NA+38884  32.691   4.186  10.724
72102ION    NA+38885  35.606  18.300   1.276
72103ION    NA+38886  36.531  17.920  14.643
72104ION    NA+38887  39.525  13.038  12.454
72105ION    NA+38888  36.027  44.451  12.795
72106ION    NA+38889  42.665  22.540  10.847
72107ION    NA+38890  36.019   8.444  14.420
72108ION    NA+38891  38.400  16.902   5.052
72109ION    NA+38892  13.304  43.434   3.034
72110ION    NA+38893  22.186   9.844   1.526
72111ION    NA+38894  11.302   4.118   0.214
72112ION    NA+38895   9.550  43.127   4.056
72113ION    NA+38896  21.751  23.609  10.351
72114ION    NA+38897  29.496  27.197   3.102
72115ION    NA+38898   7.380  13.449   3.067
72116ION    NA+38899   2.996   7.903   2.067
72117ION    NA+38900  27.970  15.162  14.372
72118ION    NA+38901  34.300  20.601  12.317
72119ION    NA+38902  13.332   9.916  14.299
72120ION    NA+38903   6.230  20.815  13.875
72121ION    NA+38904  44.011  38.420  14.361
72122ION    NA+38905   8.821  35.944   4.135
72123ION    NA+38906   5.483   3.545   1.833
72124ION    NA+38907   9.902   6.832  12.058
72125ION    NA+38908  42.040  11.154  10.616
72126ION    NA+38909  16.315  30.013  11.912
72127ION    NA+38910  10.590  23.168   3.735
72128ION    NA+38911  14.559  29.018   9.901
72129ION    NA+38912  40.658  14.741  13.909
72130ION    NA+38913  23.243   6.923   0.032
72131ION    NA+38914  17.379  25.005   9.940
72132ION    NA+38915  10.306  41.989  12.456
72133ION    NA+38916  24.080   6.933  14.081
72134ION    NA+38917   7.373  31.092  11.107
72135ION    NA+38918  11.799  34.899  14.670
72136ION    NA+38919  39.241  40.232   1.376
72137ION    NA+38920  29.257  37.531  13.999
72138ION    NA+38921  16.426   6.000  12.277
72139ION    NA+38922   3.915   5.533  14.539
72140ION    NA+38923  36.325   3.904   2.199
72141ION    NA+38924  16.304   4.246   2.753
72142ION    NA+38925  40.523  32.346  14.430
72143ION    NA+38926  29.173  44.458   2.889
72144ION    NA+38927  16.676  39.806  13.954
72145ION    NA+38928  22.747  32.477  14.896
72146ION    NA+38929  44.016  26.213  12.905
72147ION    NA+38930   7.562   7.859   9.968
72148ION    NA+38931  37.296  24.499   3.666
72149ION    NA+38932  34.860   1.303   3.195
72150ION    NA+38933  43.897  21.953  10.396
72151ION    NA+38934  17.844  13.067   3.197
72152ION    NA+38935  35.364  18.024   3.679
72153ION    NA+38936   4.760  35.183  12.974
72154ION    NA+38937  28.937   5.105   2.107
72155ION    NA+38938  44.711  42.691  12.952
72156ION    NA+38939  15.603   2.000   1.202
72157ION    NA+38940  41.893   6.549   5.140
72158ION    NA+38941  36.091  40.217  13.410
72159ION    NA+38942  20.703  23.007  12.014
72160ION    NA+38943   7.821  23.388  12.628
72161ION    NA+38944   3.633   4.504  13.441
72162ION    NA+38945  29.963   0.256   1.425
72163ION    NA+38946   9.848   0.929  14.656
72164ION    NA+38947  15.060  28.673   2.717
72165ION    NA+38948  13.341   5.688  11.180
72166ION    NA+38949  31.063   6.374  13.241
72167ION    NA+38950  26.920  37.242  12.992
72168ION    NA+38951   7.293  22.778   2.640
72169ION    NA+38952  26.587  32.023  10.753
72170ION    NA+38953  10.555  44.567   4.237
72171ION    NA+38954  19.216  23.530   2.247
72172ION    NA+38955  25.228  44.610  13.794
72173ION    NA+38956  36.987  38.835  14.484
72174ION    NA+38957   4.819  19.011   0.271
72175ION    NA+38958  38.773   1.269   0.685
72176ION    NA+38959   7.235  39.557  10.898
72177ION    NA+38960  10.356   4.421   1.968
72178ION    NA+38961  22.722   9.823  14.762
72179ION    NA+38962  31.736  10.784   0.174
72180ION    NA+38963   5.184   8.198   3.294
72181ION    NA+38964  23.583   6.173   1.699
72182ION    NA+38965  25.554  37.266  11.182
72183ION    NA+38966  26.643  44.486   1.100
72184ION    NA+38967  44.529  18.616  14.873
72185ION    NA+38968  26.997  11.835  14.072
72186ION    NA+38969  25.457  17.800  14.303
72187ION    NA+38970   7.370   4.122   0.692
72188ION    NA+38971  15.520  24.049   2.722
72189ION    NA+38972  37.260  20.351   2.360
72190ION    NA+38973  25.377  21.419  14.375
72191ION    NA+38974   1.716  27.727   5.025
72192ION    NA+38975  32.843  15.860   4.167
72193ION    NA+38976  14.849  42.874   1.599
72194ION    NA+38977   9.042  34.120   4.184
72195ION    NA+38978  29.364  18.047  11.499
72196ION    NA+38979  16.558  14.114  13.792
72197ION    NA+38980  18.677  21.895   0.984
72198ION    NA+38981  25.137   4.969  12.849
72199ION    NA+38982  39.718  20.342   4.450
72200ION    NA+38983  25.861  10.351  11.835
72201ION    NA+38984  17.085  29.674   4.058
72202ION    NA+38985  29.745  20.038  11.206
72203ION    NA+38986  20.124  29.531  12.972
72204ION    NA+38987  14.127  18.816   3.220
72205ION    NA+38988  31.376  19.607  10.501
72206ION    NA+38989   8.085  24.698  10.330
72207ION    NA+38990  16.325  32.574  13.472
72208ION    NA+38991  38.815  34.224   1.876
72209ION    NA+38992  24.672  22.138  10.679
72210ION    NA+38993  39.558   3.698   1.935
72211ION    NA+38994  10.259  13.328  14.647
72212ION    NA+38995  15.535  16.907  11.482
72213ION    NA+38996   4.743  12.547   3.738
72214ION    NA+38997   1.098  39.269  14.858
72215ION    NA+38998   7.140  32.497  11.573
72216ION    NA+38999  14.074  32.798   4.215
72217ION    NA+39000  13.016  33.085  12.697
72218ION    NA+39001  14.400  24.505  11.645
72219ION    NA+39002  37.157   9.821  14.964
72220ION    NA+39003  44.730  38.057  12.873
72221ION    NA+39004  32.539  28.816  10.460
72222ION    NA+39005  18.595  26.045   1.273
72223ION    NA+39006   5.798   2.147  11.692
72224ION    NA+39007  24.858  11.155   4.110
72225ION    NA+39008  14.001  25.551  12.928
72226ION    NA+39009  21.111  39.810   2.663
72227ION    NA+39010   2.886  20.613  12.996
72228ION    NA+39011  22.572  42.082  12.106
72229ION    NA+39012  22.307  23.638  11.181
72230ION    NA+39013  34.110  13.404   0.737
72231ION    NA+39014  28.847   1.614   3.457
72232ION    NA+39015   7.536   0.398   3.689
72233ION    NA+39016  40.431  11.683   2.350
72234ION    NA+39017  33.932  13.549   3.219
72235ION    NA+39018  30.953  26.428   4.556
72236ION    NA+39019  42.607  37.655   1.784
72237ION    NA+39020  24.952  27.701   2.736
72238ION    NA+39021  32.337  40.438  11.566
72239ION    NA+39022   9.921  26.809  11.121
72240ION    NA+39023  39.288  17.655   1.445
72241ION    NA+39024  25.044  26.794   2.618
72242ION    NA+39025  28.670  40.623   2.576
72243ION    NA+39026  28.128  19.340  11.606
72244ION    NA+39027  30.565  20.581  11.587
72245ION    NA+39028  27.692  31.882  11.797
72246ION    NA+39029   5.104  30.637   0.008
72247ION    NA+39030  24.031  18.607  12.942
72248ION    NA+39031  24.085   3.965  13.783
72249ION    NA+39032   4.168  18.592   1.647
72250ION    NA+39033  41.348  19.022   4.318
72251ION    NA+39034  28.146  25.734  11.398
72252ION    NA+39035  30.147  24.784  13.314
72253ION    NA+39036  38.244  11.592  10.809
72254ION    NA+39037   9.606   0.830  13.589
72255ION    NA+39038  38.450  15.611   2.430
72256ION    NA+39039  18.854  13.735   0.836
72257ION    NA+39040  14.056  19.729  11.992
72258ION    NA+39041   9.650  41.396   3.461
72259ION    NA+39042  10.837  31.472   4.222
72260ION    NA+39043   6.503   7.758   2.072
72261ION    NA+39044  14.873  26.094  12.117
72262ION    NA+39045  16.606  25.329  14.156
72263ION    NA+39046  38.983  30.881   1.237
72264ION    NA+39047  15.657  40.480   3.919
72265ION    NA+39048   9.407   4.402   4.557
72266ION    NA+39049  21.896  13.416  14.501
72267ION    NA+39050  19.050  41.770  13.064
72268ION    NA+39051  38.693  21.458   0.842
72269ION    NA+39052  30.726  12.505   1.467
72270ION    NA+39053   7.280  25.166  14.867
72271ION    NA+39054   0.385  30.123  12.607
72272ION    NA+39055  18.891  21.076   4.934
72273ION    NA+39056  22.038  20.046  10.764
72274ION    NA+39057  40.065  33.609  11.972
72275ION    NA+39058  22.391   0.791  13.270
72276ION    NA+39059  16.931  22.843  13.129
72277ION    NA+39060  27.803  30.896  11.670
72278ION    NA+39061  10.465  35.144  13.822
72279ION    NA+39062  16.046   2.161   2.972
72280ION    NA+39063  19.778  10.191  12.499
72281ION    NA+39064  32.426  36.819  10.828
72282ION    NA+39065  29.103  38.574   2.753
72283ION    NA+39066  34.452  27.904  13.653
72284ION    NA+39067  10.856  13.628   3.949
72285ION    NA+39068  27.862  44.974  12.955
72286ION    NA+39069  19.562   0.529   2.667
72287ION    NA+39070  22.682  19.473  10.944
72288ION    NA+39071  39.970  21.983   2.264
72289ION    NA+39072  31.339  14.636   1.971
72290ION    NA+39073  41.670  29.193   1.602
72291ION    NA+39074  37.041   6.851  11.660
72292ION    NA+39075  25.422  27.490  13.818
72293ION    NA+39076  34.728  17.631   9.860
72294ION    NA+39077  10.642  33.480  14.929
72295ION    NA+39078  42.249  24.068  11.452
72296ION    NA+39079  44.337  20.798   5.050
72297ION    NA+39080  27.139  20.367  11.492
72298ION    NA+39081  39.550  16.111   5.009
72299ION    NA+39082  38.921   2.030  12.093
72300ION    NA+39083  40.829  19.818  14.266
72301ION    NA+39084  23.579  36.406  12.023
72302ION    NA+39085   9.183  25.446   3.773
72303ION    NA+39086  33.636  33.905  12.867
72304ION    NA+39087  25.284  23.189   0.920
72305ION    NA+39088  21.605  28.636   0.812
72306ION    NA+39089  32.619   8.767   2.716
72307ION    NA+39090  16.191  40.033   3.200
72308ION    NA+39091   9.437  24.892   1.878
72309ION    NA+39092   4.939  23.274   0.163
72310ION    NA+39093  36.802  21.705   1.024
72311ION    NA+39094  32.742  17.076   3.420
72312ION    NA+39095  13.384  38.898   3.901
72313ION    NA+39096  36.207  43.952  13.522
72314ION    NA+39097   9.978  19.027   1.203
72315ION    NA+39098   2.064  42.844  10.877
72316ION    NA+39099  36.506  22.734  10.653
72317ION    NA+39100  44.705   8.918   0.796
72318ION    NA+39101   8.379  21.007  12.491
72319ION    NA+39102  13.757  20.033  10.767
72320ION    NA+39103   7.920  44.340   0.469
72321ION    NA+39104  27.522  30.970   2.458
72322ION    NA+39105   7.276  15.067   2.868
72323ION    NA+39106  25.358  32.033  10.843
72324ION    NA+39107  27.672   6.225   1.068
72325ION    NA+39108   0.274  38.077  12.023
72326ION    NA+39109  43.960  28.675  12.824
72327ION    NA+39110  43.509  25.860  13.698
72328ION    NA+39111  32.439  12.590  13.542
72329ION    NA+39112   0.733  28.200   0.832
72330ION    NA+39113   9.675   1.252  11.969
72331ION    NA+39114   8.675   6.937   3.436
72332ION    NA+39115  35.966  24.351   2.129
72333ION    NA+39116  40.853  30.653   3.805
72334ION    NA+39117  20.981  37.529  13.179
72335ION    NA+39118  16.856  25.664   1.497
72336ION    NA+39119  44.729  25.781   1.729
72337ION    NA+39120  42.595  15.472  11.143
72338ION    NA+39121  36.817  10.258   3.058
72339ION    NA+39122  32.384   2.753   0.498
72340ION    NA+39123  19.417  36.315   0.192
72341ION    NA+39124  32.626  19.993   3.840
72342ION    NA+39125  42.007  11.235  13.923
72343ION    NA+39126  18.629  41.726   1.903
72344ION    NA+39127  36.750  29.179   0.683
72345ION    NA+39128   4.023   9.388   4.836
72346ION    NA+39129   5.147  44.369   3.591
72347ION    NA+39130  18.798  11.927   3.696
72348ION    NA+39131  31.564   2.157   1.975
72349ION    NA+39132   4.730  42.844   3.704
72350ION    NA+39133  12.880  42.858  11.336
72351ION    NA+39134  43.206  33.803  13.090
72352ION    NA+39135  42.940  10.376   4.036
72353ION    NA+39136  35.611  12.686  12.797
72354ION    NA+39137  37.055  42.865  14.888
72355ION    NA+39138  41.679  23.450   3.664
72356ION    NA+39139  14.062  15.386  11.245
72357ION    NA+39140  19.450   4.932  13.428
72358ION    NA+39141  20.830  35.138   0.018
72359ION    NA+39142  15.769  15.376  11.497
72360ION    NA+39143   8.808  24.533  11.001
72361ION    NA+39144   3.485  26.446  13.034
72362ION    NA+39145  31.438   8.330  11.967
72363ION    NA+39146  40.102  11.689   0.116
72364ION    NA+39147  32.037   0.303   4.028
72365ION    NA+39148  11.219  44.884   3.811
72366ION    NA+39149   4.810  27.846   9.908
72367ION    NA+39150  39.010   8.711   0.408
72368ION    NA+39151   1.195   3.458   3.725
72369ION    NA+39152  11.334  44.253   4.053
72370ION    NA+39153  11.983  23.094   1.901
72371ION    NA+39154  32.511  31.816   2.288
72372ION    NA+39155  31.767   4.441  12.503
72373ION    NA+39156  22.996  11.695   1.472
72374ION    NA+39157  30.717   4.474   3.700
72375ION    NA+39158  41.441  32.833  11.173
72376ION    NA+39159  26.416   0.250   2.509
72377ION    NA+39160  28.261  30.437  13.480
72378ION    NA+39161  43.095  41.549  13.485
72379ION    NA+39162  12.767  40.349   3.297
72380ION    NA+39163  12.331  11.137   2.126
72381ION    NA+39164   8.457   2.002  13.820
72382ION    NA+39165  32.071   4.005   5.320
72383ION    NA+39166   7.228   9.673   0.596
72384ION    NA+39167  30.578  32.676   1.006
72385ION    NA+39168  10.898  21.288  12.300
72386ION    NA+39169  43.165  26.748  14.003
72387ION    NA+39170  31.585  35.399  11.973
72388ION    NA+39171  17.125  28.235   0.978
72389ION    NA+39172  30.989  32.799  11.667
72390ION    NA+39173  32.169  35.942  11.234
72391ION    NA+39174   6.406  23.981  11.589
72392ION    NA+39175   6.914   4.896   0.252
72393ION    NA+39176  21.840   1.456   3.038
72394ION    NA+39177  36.754   9.081   1.896
72395ION    NA+39178  14.079   0.515   1.679
72396ION    NA+39179  42.208  33.417  13.904
72397ION    NA+39180  12.947  13.795  13.365
72398ION    NA+39181  24.164  12.290  12.983
72399ION    NA+39182  41.361  36.907  12.620
72400ION    NA+39183  17.116  11.079   3.626
72401ION    NA+39184  36.178  19.428  10.657
72402ION    NA+39185  16.010  41.402   1.354
72403ION    NA+39186  13.874  41.287  13.813
72404ION    NA+39187   8.206  19.577  14.448
72405ION    NA+39188   2.783   8.430  10.763
72406ION    NA+39189  10.263  12.166  14.069
72407ION    NA+39190  40.605  31.987  13.501
72408ION    NA+39191  19.706  37.802   0.391
72409ION    NA+39192   8.016  14.156   2.347
72410ION    NA+39193  21.015  41.146  14.231
72411ION    NA+39194  31.559  19.973   3.133
72412ION    NA+39195  18.796  30.122   1.372
72413ION    NA+39196  29.953  34.726   4.607
72414ION    NA+39197  37.104  17.671   0.245
72415ION    NA+39198   1.774  24.226  12.560
72416ION    NA+39199  30.104  11.745  12.579
72417ION    NA+39200  37.066  22.892   1.628
72418ION    NA+39201   6.444  13.073  12.576
72419ION    NA+39202  13.783  12.790   4.696
72420ION    NA+39203  12.887  11.989  10.753
72421ION    NA+39204  17.803   5.460   3.665
72422ION    NA+39205  38.556   9.078   3.290
72423ION    NA+39206  31.261   5.643   9.482
72424ION    NA+39207  44.429  30.087   0.663
72425ION    NA+39208  18.636   2.895  11.263
72426ION    NA+39209  42.061  39.229  13.947
72427ION    NA+39210   4.101   4.542  11.689
72428ION    NA+39211  44.705   7.209  12.121
72429ION    NA+39212  29.445  17.479   1.156
72430ION    NA+39213  14.412  17.124  12.866
72431ION    NA+39214  38.809   4.782   2.744
72432ION    NA+39215  12.860  34.395  11.132
72433ION    NA+39216  25.672  44.877  11.216
72434ION    NA+39217  21.588  44.021   0.475
72435ION    NA+39218  13.852   4.803   0.910
72436ION    NA+39219  20.328  11.080   1.581
72437ION    NA+39220  44.467  37.343   0.249
72438ION    NA+39221  31.365  31.174  14.847
72439ION    NA+39222  40.051  32.108   4.221
72440ION    NA+39223  23.510  28.657  14.667
72441ION    NA+39224  25.442   5.124   0.659
72442ION    NA+39225  41.451  14.689   1.914
72443ION    NA+39226  17.805  14.417  14.972
72444ION    NA+39227  21.019  17.343  11.886
72445ION    NA+39228  35.602  34.074   2.139
72446ION    NA+39229   9.716  10.256  13.790
72447ION    NA+39230  29.602   1.200   2.865
72448ION    NA+39231  12.577   3.016  12.227
72449ION    NA+39232  33.726  19.852  12.650
72450ION    NA+39233  22.618  25.618   2.150
72451ION    NA+39234  35.911   9.764  11.247
72452ION    NA+39235  28.718   2.730  13.454
72453ION    NA+39236  36.880   4.550   4.352
72454ION    NA+39237  16.323  33.750   2.823
72455ION    NA+39238   7.853   7.350   9.610
72456ION    NA+39239   0.733   9.184  14.585
72457ION    NA+39240  11.400  28.977  10.684
72458ION    NA+39241  17.244  15.670   2.911
72459ION    NA+39242  31.261   6.615  14.467
72460ION    NA+39243  39.466  30.006   2.742
72461ION    NA+39244  20.872   1.204   2.532
72462ION    NA+39245  23.230  32.095  12.131
72463ION    NA+39246   3.988  15.948   3.883
72464ION    NA+39247  29.182  26.212   0.301
72465ION    NA+39248  16.778  36.458   1.039
72466ION    NA+39249  28.107  16.016   1.261
72467ION    NA+39250  35.464   2.677  11.184
72468ION    NA+39251  37.757   6.606   4.391
72469ION    NA+39252  40.937  42.497  12.697
72470ION    NA+39253  43.769  41.359   1.327
72471ION    NA+39254   4.095   5.716   1.680
72472ION    NA+39255  12.385  43.349  13.953
72473ION    NA+39256  19.053  16.328  14.519
72474ION    NA+39257  38.648  44.795   2.007
72475ION    NA+39258  27.374  40.632   0.969
72476ION    NA+39259   6.777  32.931   2.083
72477ION    NA+39260   3.995  32.684   0.540
72478ION    NA+39261  41.404  23.995  14.989
72479ION    NA+39262   6.440   6.465  13.167
72480ION    NA+39263   3.242   0.025  12.823
72481ION    NA+39264   8.908  14.936  13.215
72482ION    NA+39265  36.084  11.188   3.841
72483ION    NA+39266  37.745  28.406   1.723
72484ION    NA+39267  19.004  25.099   4.607
72485ION    NA+39268   8.256  33.107  13.175
72486ION    NA+39269  16.312  23.752  14.791
72487ION    NA+39270  18.443  23.864   1.009
72488ION    NA+39271  11.741  16.996   3.375
72489ION    NA+39272  41.637   3.116   2.295
72490ION    NA+39273  10.849  25.976   2.688
72491ION    NA+39274   6.885  16.269  12.259
72492ION    NA+39275  43.429  36.759   1.645
72493ION    NA+39276  13.247  31.897   5.011
72494ION    NA+39277   2.909  19.441   0.936
72495ION    NA+39278  41.921  13.221  13.920
72496ION    NA+39279  37.727  28.204  12.025
72497ION    NA+39280  23.326  37.685   0.107
72498ION    NA+39281  37.468  20.771   0.464
72499ION    NA+39282   9.454   6.630  11.114
72500ION    NA+39283  12.358  24.481   0.363
72501ION    NA+39284  10.849  10.950  13.216
72502ION    NA+39285  40.828  38.394   0.308
72503ION    NA+39286   2.237  34.241  11.144
72504ION    NA+39287  37.076  21.994  11.456
72505ION    NA+39288  30.978   0.162   2.951
72506ION    NA+39289  11.789  14.113  13.969
72507ION    NA+39290  15.275   5.713  13.939
72508ION    NA+39291   5.737  12.340   2.777
72509ION    NA+39292  29.162  10.131   1.453
72510ION    NA+39293   9.259   0.810   3.662
72511ION    NA+39294   9.362  28.629   0.926
72512ION    NA+39295  21.368  16.337  13.073
72513ION    NA+39296   3.417   5.760  11.120
72514ION    NA+39297  24.099  42.903   4.716
72515ION    NA+39298   9.396  30.748  10.870
72516ION    NA+39299  14.261  25.990  10.748
72517ION    NA+39300  42.796   5.467  12.307
72518ION    NA+39301  25.433   7.583   2.651
72519ION    NA+39302  36.466  20.936   2.167
72520ION    NA+39303   5.757  19.483  12.907
72521ION    NA+39304  12.534  29.452  12.427
72522ION    NA+39305  17.039  31.108   0.476
72523ION    NA+39306  36.385  18.647  14.159
72524ION    NA+39307  18.326  23.676   3.044
72525ION    NA+39308  43.039  25.178   2.400
72526ION    NA+39309  34.633   9.793  10.672
72527ION    NA+39310  36.532  25.336   2.697
72528ION    NA+39311  21.215  42.507  14.074
72529ION    NA+39312  20.677   8.753   0.502
72530ION    NA+39313   8.608  22.249   1.999
72531ION    NA+39314   2.423  18.360  12.927
72532ION    NA+39315  31.537   3.270   3.587
72533ION    NA+39316   1.216  17.288  14.481
72534ION    NA+39317  40.817  18.473  13.847
72535ION    NA+39318  27.262   1.262   4.940
72536ION    NA+39319  17.564  33.719  14.174
72537ION    NA+39320  26.668  39.551   1.291
72538ION    NA+39321   6.405  34.536   0.028
72539ION    NA+39322  14.024  15.710   0.602
72540ION    NA+39323  32.963  38.635   0.108
72541ION    NA+39324  42.471  32.001  11.625
72542ION    NA+39325  35.750  39.590   4.165
72543ION    NA+39326   6.279  30.603  11.766
72544ION    NA+39327  20.024  23.866   0.600
72545ION    NA+39328  13.039  28.587   5.149
72546ION    NA+39329   5.909  22.053   4.121
72547ION    NA+39330   3.440  25.794   3.503
72548ION    NA+39331  21.321  40.412   1.892
72549ION    NA+39332   7.570  10.286  10.755
72550ION    NA+39333  13.105  22.533   2.124
72551ION    NA+39334  31.092  33.677   1.780
72552ION    NA+39335  36.744  33.298  11.213
72553ION    NA+39336  37.118   0.303   4.082
72554ION    NA+39337  36.840   0.405   3.107
72555ION    NA+39338  40.284  34.601  11.138
72556ION    NA+39339  12.400  16.915  11.494
72557ION    NA+39340  36.735   2.021  13.236
72558ION    NA+39341  22.033  44.918  14.761
72559ION    NA+39342  11.585  16.133   1.377
72560ION    NA+39343  32.975  14.034   2.324
72561ION    NA+39344  11.136   3.457   4.310
72562ION    NA+39345  42.476  25.377   1.214
72563ION    NA+39346  25.726  26.630   0.929
72564ION    NA+39347  44.889  34.308  12.939
72565ION    NA+39348  23.959  15.764   1.240
72566ION    NA+39349  34.721  20.928  14.493
72567ION    NA+39350   2.616  27.178   1.093
72568ION    NA+39351  21.970  20.586  13.866
72569ION    NA+39352   6.078  16.858  12.219
72570ION    NA+39353  24.235  33.880  12.729
72571ION    NA+39354   6.577   2.804  10.688
72572ION    NA+39355  11.460  11.594   2.870
72573ION    NA+39356  39.745  41.870   0.731
72574ION    NA+39357  13.823  11.871  11.098
72575ION    NA+39358   1.169  41.946  11.083
72576ION    NA+39359  23.343  40.788  14.800
72577ION    NA+39360  18.254  27.411  14.867
72578ION    NA+39361   5.787  25.160  13.435
72579ION    NA+39362  14.724  40.149  14.756
72580ION    NA+39363   3.968   4.734   1.436
72581ION    NA+39364  21.101  39.713  13.014
72582ION    NA+39365  28.314  12.912  11.181
72583ION    NA+39366   5.908  35.032  13.582
72584ION    NA+39367  38.851   1.162   1.677
72585ION    NA+39368   5.312   9.175   4.235
72586ION    NA+39369  10.207  20.815  11.486
72587ION    NA+39370  38.838   1.079   2.673
72588ION    NA+39371  38.567  38.431  12.611
72589ION    NA+39372  21.370  14.667   4.129
72590ION    NA+39373  36.315  30.533   4.677
72591ION    NA+39374  23.218  19.385   3.929
72592ION    NA+39375   5.315  36.809   2.168
72593ION    NA+39376  33.309  13.402  13.249
72594ION    NA+39377   5.438  39.796   3.212
72595ION    NA+39378  20.653   5.404  13.621
72596ION    NA+39379   6.005   5.165   2.923
72597ION    NA+39380  35.661   7.477  14.282
72598ION    NA+39381   9.884   1.720  14.304
72599ION    NA+39382   4.871   7.403   0.729
72600ION    NA+39383  21.997  21.453  11.308
72601ION    NA+39384  24.105   2.376  12.573
72602ION    NA+39385  36.939  29.931  11.116
72603ION    NA+39386  39.027  44.730  12.105
72604ION    NA+39387  31.588  19.393  11.319
72605ION    NA+39388   3.354   7.999   3.208
72606ION    NA+39389  36.430   1.051  11.578
72607ION    NA+39390  25.287  43.176   2.061
72608ION    NA+39391   9.150  20.685   2.133
72609ION    NA+39392   2.600  22.045   3.624
72610ION    NA+39393   3.507   1.540  13.700
72611ION    NA+39394  15.748   8.059   1.953
72612ION    NA+39395  30.400  29.005  13.783
72613ION    NA+39396  38.109  40.771   2.957
72614ION    NA+39397  42.011  40.901  14.858
72615ION    NA+39398  40.759  11.123  14.812
72616ION    NA+39399  10.104  16.209  11.420
72617ION    NA+39400  37.710  16.103  11.976
72618ION    NA+39401  29.119  14.092   3.675
72619ION    NA+39402  11.125  37.866   0.816
72620ION    NA+39403  35.915  24.315   0.324
72621ION    NA+39404  22.978  41.009   4.147
72622ION    NA+39405  29.961  22.053   0.428
72623ION    NA+39406  23.054  36.901   0.414
72624ION    NA+39407  18.753  27.022   1.535
72625ION    NA+39408  28.386  22.082  13.581
72626ION    NA+39409  42.697  30.402  11.551
72627ION    NA+39410  28.363  33.758  11.388
72628ION    NA+39411  19.644  37.761   1.520
72629ION    NA+39412  33.443  41.467  10.295
72630ION    NA+39413  23.981  16.201   0.061
72631ION    NA+39414   3.551  44.772   2.695
72632ION    NA+39415  27.977   6.770   3.666
72633ION    NA+39416  32.331  22.859   0.452
72634ION    NA+39417  28.078  39.653   1.933
72635ION    NA+39418  36.212  44.893   3.794
72636ION    NA+39419  10.684  15.979  14.881
72637ION    NA+39420  30.971   0.338   4.429
72638ION    NA+39421  20.842   5.036   3.657
72639ION    NA+39422  26.393  13.121   0.353
72640ION    NA+39423  23.843  16.507   1.924
72641ION    NA+39424  11.837   9.787  11.698
72642ION    NA+39425  12.508  26.443   4.010
72643ION    NA+39426  29.420   8.870   4.093
72644ION    NA+39427  18.681  40.934   1.279
72645ION    NA+39428  18.153   4.658   9.950
72646ION    NA+39429  32.034  25.993   2.341
72647ION    NA+39430   8.345  24.003   0.578
72648ION    NA+39431  27.594  30.281  12.312
72649ION    NA+39432  23.098  24.717  13.909
72650ION    NA+39433  42.765  23.957  14.924
72651ION    NA+39434  25.615  28.882  10.259
72652ION    NA+39435  13.596  23.450   0.015
72653ION    NA+39436  38.371  27.104  11.874
72654ION    NA+39437  18.977  29.985   0.014
72655ION    NA+39438   6.400  35.345  12.607
72656ION    NA+39439  32.834   5.717  10.879
72657ION    NA+39440  14.891  13.521  14.998
72658ION    NA+39441  21.655  34.609  13.394
72659ION    NA+39442  43.037   6.397   0.632
72660ION    NA+39443  26.121  42.448   4.784
72661ION    NA+39444  11.663   5.905   0.417
72662ION    NA+39445  20.413  30.422  10.791
72663ION    NA+39446   9.133   8.723   3.218
72664ION    NA+39447  43.730  41.785   0.343
72665ION    NA+39448   1.585  28.527   1.119
72666ION    NA+39449  19.978  38.542  11.237
72667ION    NA+39450   3.415  32.386   1.156
72668ION    NA+39451  19.651  14.281  12.008
72669ION    NA+39452  18.178  12.385   1.256
72670ION    NA+39453   4.482   8.392   0.283
72671ION    NA+39454   8.199  24.939  14.361
72672ION    NA+39455  35.071  36.841   0.731
72673ION    NA+39456  35.820   4.213   1.289
72674ION    NA+39457  26.196  33.887  13.984
72675ION    NA+39458  36.462  43.804   4.392
72676ION    NA+39459  38.317  44.760  11.387
72677ION    NA+39460   2.161  39.023  11.308
72678ION    NA+39461  44.935  37.772   3.775
72679ION    NA+39462  35.023  32.038   1.457
72680ION    NA+39463  24.463  29.680  11.580
72681ION    NA+39464  30.519  17.027  12.286
72682ION    NA+39465   4.689  39.099   2.424
72683ION    NA+39466  38.046   2.693  10.997
72684ION    NA+39467  18.742  18.838   4.133
72685ION    NA+39468  16.207  13.388   4.854
72686ION    NA+39469  43.427  13.678  14.276
72687ION    NA+39470  10.844  18.567   1.764
72688ION    NA+39471  28.030  26.200  14.156
72689ION    NA+39472  21.563   4.210  13.043
72690ION    NA+39473   1.828   6.481  14.679
72691ION    NA+39474   7.743  33.796  14.341
72692ION    NA+39475  15.563  27.738  12.753
72693ION    NA+39476  20.053  26.630   1.810
72694ION    NA+39477  15.558   8.719  13.230
72695ION    NA+39478  38.650  12.078   3.054
72696ION    NA+39479  21.637  18.060  10.749
72697ION    NA+39480   3.770  13.561  10.383
72698ION    NA+39481  15.572  34.828  11.166
72699ION    NA+39482  28.017  21.602  10.146
72700ION    NA+39483  17.260   0.381  10.282
72701ION    NA+39484   1.712  41.151  14.005
72702ION    NA+39485   7.233  14.567  11.977
72703ION    NA+39486  22.515   1.481   4.742
72704ION    NA+39487  26.389  32.286   4.216
72705ION    NA+39488  23.249   0.860   5.097
72706ION    NA+39489  13.744  30.861   4.238
72707ION    NA+39490  35.506  43.361  12.402
72708ION    NA+39491  32.723  37.481   0.873
72709ION    NA+39492   1.136  42.922  10.366
72710ION    NA+39493   8.171  35.219   5.096
72711ION    NA+39494  14.639  23.441  10.336
72712ION    NA+39495  18.109   9.026   0.111
72713ION    NA+39496  16.189  42.714  11.885
72714ION    NA+39497  17.923  26.122  14.454
72715ION    NA+39498  21.383  41.434   1.930
72716ION    NA+39499   7.545   1.921   3.208
72717ION    NA+39500  25.793   4.416  12.599
72718ION    NA+39501  36.498  18.427  14.997
72719ION    NA+39502  11.289  32.414   4.884
72720ION    NA+39503   7.334  38.784  12.856
72721ION    NA+39504  33.577   0.625  13.015
72722ION    NA+39505  42.788  33.484   0.804
72723ION    NA+39506  30.112   8.160  10.660
72724ION    NA+39507  32.917  37.281  12.576
72725ION    NA+39508   6.782   2.870  11.543
72726ION    NA+39509  23.391  34.662   1.855
72727ION    NA+39510   7.734   9.318   2.141
72728ION    NA+39511  12.836   6.515   0.705
72729ION    NA+39512  38.421  28.411   3.610
72730ION    NA+39513  28.064   5.020  14.748
72731ION    NA+39514   1.474  21.949   2.167
72732ION    NA+39515   4.425  13.222   0.571
72733ION    NA+39516  41.645   6.806  12.921
72734ION    NA+39517  26.672  31.538   0.424
72735ION    NA+39518  41.032  42.053  14.222
72736ION    NA+39519  33.913  20.602  14.983
72737ION    NA+39520   0.054  37.741   1.755
72738ION    NA+39521  20.352  43.833  12.169
72739ION    NA+39522  12.268  25.533   4.398
72740ION    NA+39523  43.964  14.835   3.536
72741ION    NA+39524   5.243  41.523   3.386
72742ION    NA+39525  37.076  18.696   1.592
72743ION    NA+39526  37.126  35.960  12.024
72744ION    NA+39527  17.283  33.527   3.052
72745ION    NA+39528  24.564   1.752  14.609
72746ION    NA+39529  22.186  39.254  14.446
72747ION    NA+39530  31.636  41.484   4.627
72748ION    NA+39531  23.731  23.670   4.597
72749ION    NA+39532  21.042  40.660  13.329
72750ION    NA+39533  14.416  17.366   4.284
72751ION    NA+39534  28.492  18.430  11.803
72752ION    NA+39535   8.631  25.099  12.175
72753ION    NA+39536  44.410  23.486  12.085
72754ION    NA+39537  19.888  24.268   2.412
72755ION    NA+39538  11.099  17.839   3.029
72756ION    NA+39539  17.239   5.399   0.901
72757ION    NA+39540  38.097  17.775  13.979
72758ION    NA+39541  22.983  29.895  13.446
72759ION    NA+39542  37.063  39.532  13.276
72760ION    NA+39543  15.771  40.671   2.554
72761ION    NA+39544  18.545  23.401  11.797
72762ION    NA+39545  10.643  39.677   1.299
72763ION    NA+39546  24.256  31.690   2.816
72764ION    NA+39547  32.734  29.688   3.102
72765ION    NA+39548  14.575  34.831   5.303
72766ION    NA+39549   5.834  40.265   3.874
72767ION    NA+39550  34.253  12.289   5.138
72768ION    NA+39551  17.397  25.733  13.697
72769ION    NA+39552  32.545  23.112  13.327
72770ION    NA+39553  27.768   3.009   4.889
72771ION    NA+39554  29.889  15.399  13.138
72772ION    NA+39555   7.514   9.243  10.739
72773ION    NA+39556   4.723   4.999  11.054
72774ION    NA+39557  32.261   1.706   2.352
72775ION    NA+39558  34.726   3.617   2.649
72776ION    NA+39559   2.506  20.735  11.395
72777ION    NA+39560   0.839   3.423  10.364
72778ION    NA+39561  20.138  22.417  12.596
72779ION    NA+39562  10.489   7.842  13.211
72780ION    NA+39563  25.008  22.863  10.319
72781ION    NA+39564  28.253  39.330   0.531
72782ION    NA+39565   8.951   2.726   3.829
72783ION    NA+39566  34.905   5.446   3.889
72784ION    NA+39567  21.001  11.225  13.515
72785ION    NA+39568  11.153  26.958  11.336
72786ION    NA+39569  24.868  15.681  12.245
72787ION    NA+39570  39.603   9.797   0.965
72788ION    NA+39571  12.623  32.856   0.109
72789ION    NA+39572  42.323  20.797   4.056
72790ION    NA+39573  43.792  42.491   1.224
72791ION    NA+39574   2.262  11.905   2.339
72792ION    NA+39575  21.347   0.195   1.895
72793ION    NA+39576  10.646  30.561   3.057
72794ION    NA+39577   5.965  32.375  14.046
72795ION    NA+39578  26.609   9.694  13.727
72796ION    NA+39579   5.438  20.588  12.424
72797ION    NA+39580  32.100  20.969   2.143
72798ION    NA+39581   3.209   2.344  14.471
72799ION    NA+39582  36.319  22.500  11.871
72800ION    NA+39583  39.013  18.175  11.969
72801ION    NA+39584   2.922  37.931   0.439
72802ION    NA+39585   7.293  22.357  11.379
72803ION    NA+39586   9.938   4.769  13.832
72804ION    NA+39587   7.804  17.085   2.252
72805ION    NA+39588  42.619  17.369   1.759
72806ION    NA+39589  18.081  13.855  12.639
72807ION    NA+39590  18.758   6.762   2.424
72808ION    NA+39591  29.632  21.372  13.080
72809ION    NA+39592   0.427  44.474  11.604
72810ION    NA+39593  22.003   8.649  14.331
72811ION    NA+39594   5.761  33.881   0.445
72812ION    NA+39595  29.681  13.602   0.339
72813ION    NA+39596  38.763  35.581  13.518
72814ION    NA+39597  17.871   1.360  10.898
72815ION    NA+39598   5.782  38.575  12.372
72816ION    NA+39599  42.654  37.145  11.980
72817ION    NA+39600   8.141  16.800   9.677
72818ION    NA+39601  23.923  40.911  14.111
72819ION    NA+39602  25.681  25.486  14.809
72820ION    NA+39603  19.184  22.582   3.364
72821ION    NA+39604  24.220  34.203  14.535
72822ION    NA+39605  44.322  36.693   2.090
72823ION    NA+39606   8.724  17.177   3.356
72824ION    NA+39607  41.113  20.198  13.517
72825ION    NA+39608   2.141   9.590  11.165
72826ION    NA+39609  11.821   6.290  10.583
72827ION    NA+39610   6.662   5.354  10.664
72828ION    NA+39611  18.392  23.006  14.140
72829ION    NA+39612   1.007  28.910   0.573
72830ION    NA+39613  10.302  35.561   1.192
72831ION    NA+39614  11.837  36.302  14.880
72832ION    NA+39615  40.282  27.951  11.155
72833ION    NA+39616   1.955  27.697  12.537
72834ION    NA+39617  34.664  36.307  14.065
72835ION    NA+39618  44.821  39.980  13.970
72836ION    NA+39619  11.663   6.804  11.689
72837ION    NA+39620  35.137   2.871  10.093
72838ION    NA+39621   6.151  14.215  10.204
72839ION    NA+39622   6.428  16.207   1.336
72840ION    NA+39623  38.225  37.702   3.161
72841ION    NA+39624  43.398  21.499  11.551
72842ION    NA+39625  34.720   7.098  14.809
72843ION    NA+39626   8.390   6.354   0.965
72844ION    NA+39627  42.760  13.585   0.015
72845ION    NA+39628  28.932   9.247  14.994
72846ION    NA+39629  16.556  10.276   0.346
72847ION    NA+39630  13.392  20.402  12.593
72848ION    NA+39631  22.252   9.098   0.728
72849ION    NA+39632  13.832   7.100  14.872
72850ION    NA+39633  23.062   2.786   4.238
72851ION    NA+39634  25.868  10.824  14.969
72852ION    NA+39635   5.611  21.093  13.331
72853ION    NA+39636   2.338  10.122   2.477
72854ION    NA+39637  31.848   5.228   4.019
72855ION    NA+39638  38.995   7.772  14.424
72856ION    NA+39639   2.128  33.114  13.914
72857ION    NA+39640   4.711  18.381  11.116
72858ION    NA+39641   5.194  27.206  14.137
72859ION    NA+39642   5.939  11.692  12.780
72860ION    NA+39643   0.465   7.820  11.297
72861ION    NA+39644  29.393   6.093   2.446
72862ION    NA+39645   3.856   2.341  11.650
72863ION    NA+39646  27.524  26.995   0.999
72864ION    NA+39647  43.915  21.011   2.539
72865ION    NA+39648  36.972   0.573  14.952
72866ION    NA+39649  38.191  25.558  12.436
72867ION    NA+39650   4.510  20.732   0.205
72868ION    NA+39651   7.692  12.658  14.583
72869ION    NA+39652  15.350  10.193   4.247
72870ION    NA+39653  41.244  43.993   4.339
72871ION    NA+39654  23.488  10.408   0.640
72872ION    NA+39655   1.850  16.438   0.220
72873ION    NA+39656   2.645  25.638   3.895
72874ION    NA+39657  30.901  31.061   3.895
72875ION    NA+39658  23.079  26.271   5.294
72876ION    NA+39659  11.883   7.866   2.222
72877ION    NA+39660   8.922   4.100  10.826
72878ION    NA+39661  27.097  38.047   2.326
72879ION    NA+39662   8.377  35.349  13.662
72880ION    NA+39663  43.574  18.015  10.916
72881ION    NA+39664  42.943  20.551  13.657
72882ION    NA+39665   1.177   5.286   3.493
72883ION    NA+39666   8.458  10.343  11.230
72884ION    NA+39667  25.652   6.084  12.576
72885ION    NA+39668   7.689  16.116  10.856
72886ION    NA+39669   9.490  23.014   1.620
72887ION    NA+39670  40.373  40.963  13.691
72888ION    NA+39671   8.032   6.612   3.997
72889ION    NA+39672  39.006   9.240  12.510
72890ION    NA+39673   9.383  29.616   1.088
72891ION    NA+39674  15.484  42.960  12.600
72892ION    NA+39675  33.153  12.282   3.296
72893ION    NA+39676   9.681  19.551  12.811
72894ION    NA+39677  38.164   9.715   4.589
72895ION    NA+39678  34.507  14.628   0.421
72896ION    NA+39679  39.233  16.795   3.737
72897ION    NA+39680  26.018  26.302   0.010
72898ION    NA+39681  36.114  10.820   1.787
72899ION    NA+39682   7.631  12.304  13.422
72900ION    NA+39683  17.871  28.618   0.270
72901ION    NA+39684   5.365  21.288   3.449
72902ION    NA+39685  20.823  39.471  11.142
72903ION    NA+39686  25.259  31.171  12.805
72904ION    NA+39687   1.896   7.382  14.250
72905ION    NA+39688  16.373   2.497   0.802
72906ION    NA+39689  13.118  20.938   0.520
72907ION    NA+39690  18.427  21.538  13.135
72908ION    NA+39691  18.709  21.199   3.776
72909ION    NA+39692   2.932  26.628   0.443
72910ION    NA+39693   3.434  43.799  13.493
72911ION    NA+39694   9.272   1.056   9.697
72912ION    NA+39695  43.677  35.306   5.004
72913ION    NA+39696  39.178  12.441   2.442
72914ION    NA+39697  40.070  36.826   4.494
72915ION    NA+39698  28.540   4.279   0.513
72916ION    NA+39699  44.271   4.216   1.018
72917ION    NA+39700  27.009  17.766  12.512
72918ION    NA+39701  41.562   2.602   0.140
72919ION    NA+39702  38.614  36.787   3.270
72920ION    NA+39703   0.900   7.803  12.197
72921ION    NA+39704  39.871  40.903   1.345
72922ION    NA+39705  17.404  39.600   2.254
72923ION    NA+39706   1.986  13.111  11.737
72924ION    NA+39707  41.271  35.130  11.695
72925ION    NA+39708   6.541   3.187  13.714
72926ION    NA+39709   4.907  30.872   4.626
72927ION    NA+39710  39.388   5.551  12.414
72928ION    NA+39711  20.775  11.343  14.836
72929ION    NA+39712  23.616  39.224   2.001
72930ION    NA+39713  37.403  37.920  12.141
72931ION    NA+39714   5.377  29.843  14.465
72932ION    NA+39715  10.937  16.916   0.217
72933ION    NA+39716  27.014   6.366  13.192
72934ION    NA+39717  31.293  11.415   3.616
72935ION    NA+39718  26.504  34.597   3.614
72936ION    NA+39719  43.308  23.183  12.975
72937ION    NA+39720  39.516   6.755   4.028
72938ION    NA+39721   7.410   5.621  14.131
72939ION    NA+39722  37.922   4.901  14.218
72940ION    NA+39723   2.434  40.781  13.421
72941ION    NA+39724   7.653  22.115   1.734
72942ION    NA+39725  10.056  14.465  12.651
72943ION    NA+39726  42.230  31.213  14.332
72944ION    NA+39727  32.290  41.273  10.745
72945ION    NA+39728   2.996   3.892  10.624
72946ION    NA+39729  31.996   8.770  10.686
72947ION    NA+39730  43.109  16.745   0.277
72948ION    NA+39731  34.031  19.040  12.096
72949ION    NA+39732   0.870   8.572   0.176
72950ION    NA+39733  14.412   8.893   0.119
72951ION    NA+39734  22.906  14.186   0.389
72952ION    NA+39735  30.474  18.993   4.274
72953ION    NA+39736  10.914  27.172  14.024
72954ION    NA+39737  22.863  43.383   2.427
72955ION    NA+39738  34.501  15.232  11.036
72956ION    NA+39739   2.222   3.263  12.099
72957ION    NA+39740  30.719  36.398   4.036
72958ION    NA+39741   1.159   0.751   1.282
72959ION    NA+39742   7.189  42.271   1.443
72960ION    NA+39743   9.839  43.433  10.831
72961ION    NA+39744  23.895   2.179   1.349
72962ION    NA+39745  14.912  29.614   2.153
72963ION    NA+39746   7.420  36.558   1.796
72964ION    NA+39747  37.034   1.579   0.139
72965ION    NA+39748  44.929  22.484   3.463
72966ION    NA+39749   4.186  39.497   3.253
72967ION    NA+39750   8.114   1.301   4.972
72968ION    NA+39751  42.097  21.499  13.723
72969ION    NA+39752   0.335  16.291   0.788
72970ION    NA+39753   3.932  26.786   2.855
72971ION    NA+39754  30.363  43.858  11.165
72972ION    NA+39755  14.205  24.057  13.449
72973ION    NA+39756  23.217  22.948  13.243
72974ION    NA+39757  39.668  42.907   4.548
72975ION    NA+39758  12.401   9.047  11.773
72976ION    NA+39759   1.203  44.264   4.594
72977ION    NA+39760  20.489  38.308   2.366
72978ION    NA+39761  13.075  35.925   0.210
72979ION    NA+39762   0.704  35.559   2.507
72980ION    NA+39763   4.662  13.683  14.294
72981ION    NA+39764   3.016  17.436   3.392
72982ION    NA+39765  43.813  32.496  11.470
72983ION    NA+39766   9.276   7.493  13.040
72984ION    NA+39767  22.923   1.045   9.834
72985ION    NA+39768   4.311  44.964  12.752
72986ION    NA+39769  29.406  42.572  12.355
72987ION    NA+39770   0.941   8.202  13.738
72988ION    NA+39771  35.319   6.304  14.916
72989ION    NA+39772  24.629  30.217  12.466
72990ION    NA+39773  21.389  12.867   4.735
72991ION    NA+39774   6.883  20.652   0.487
72992ION    NA+39775  16.842  42.711   1.281
72993ION    NA+39776  42.453  38.571   2.175
72994ION    NA+39777   5.404  20.376  13.879
72995ION    NA+39778  22.973  43.233  11.544
72996ION    NA+39779  37.233  14.676   1.230
72997ION    NA+39780  37.810  12.500   3.868
72998ION    NA+39781  33.757  33.231   2.355
72999ION    NA+39782  38.795   5.026  11.517
73000ION    NA+39783  18.160  35.023  10.902
73001ION    NA+39784  44.095   1.895   1.151
73002ION    NA+39785  28.000  31.360  11.152
73003ION    NA+39786  22.735   0.759   3.126
73004ION    NA+39787  32.872  28.379   3.279
73005ION    NA+39788  24.880   1.671   4.491
73006ION    NA+39789  15.121  25.295  11.568
73007ION    NA+39790  18.376   6.782   1.432
73008ION    NA+39791  39.578  29.957  11.423
73009ION    NA+39792  18.671  42.315  11.230
73010ION    NA+39793  29.361   2.273   0.962
73011ION    NA+39794   1.818  10.498  14.900
73012ION    NA+39795  34.540   7.994  11.186
73013ION    NA+39796  18.501  34.130   4.196
73014ION    NA+39797   3.501  32.863  11.653
73015ION    NA+39798  42.255   3.325  13.327
73016ION    NA+39799  44.076  18.999  13.966
73017ION    NA+39800  21.993  37.423  14.755
73018ION    NA+39801  34.496  13.288  14.448
73019ION    NA+39802  33.545   2.436   3.150
73020ION    NA+39803  38.949  41.727  10.980
73021ION    NA+39804  25.673  36.666  10.351
73022ION    NA+39805   4.284  17.030   0.984
73023ION    NA+39806   0.252  11.439  14.901
73024ION    NA+39807  37.175  40.947  14.551
73025ION    NA+39808   6.849  32.843   0.189
73026ION    NA+39809   2.822  29.708  10.812
73027ION    NA+39810   3.802  20.829  11.845
73028ION    NA+39811  24.588  28.041  13.793
73029ION    NA+39812  12.359   1.970   4.144
73030ION    NA+39813  13.032   0.161   4.721
73031ION    NA+39814  37.176  40.265  13.946
73032ION    NA+39815  35.707  36.910   3.939
73033ION    NA+39816  32.146   6.581  14.662
73034ION    NA+39817  15.391  29.400  12.131
73035ION    NA+39818  22.389  22.058  12.000
73036ION    NA+39819  17.388   5.863   2.031
73037ION    NA+39820  24.834   0.355   3.621
73038ION    NA+39821   4.181  36.610   2.442
73039ION    NA+39822  14.642  10.184   3.540
73040ION    NA+39823  43.554  38.447  13.323
73041ION    NA+39824  30.661  30.297   1.700
73042ION    NA+39825  14.832  11.615   0.535
73043ION    NA+39826  34.237  39.694   3.430
73044ION    NA+39827   6.324   5.374   0.980
73045ION    NA+39828  33.204   4.865  11.250
73046ION    NA+39829  34.540  12.551  12.047
73047ION    NA+39830  42.118   5.661  10.865
73048ION    NA+39831   2.552  10.361   1.625
73049ION    NA+39832  20.357  38.302   4.018
73050ION    NA+39833  30.843  11.126   0.469
73051ION    NA+39834   4.742  36.459  10.805
73052ION    NA+39835   4.665   6.759   1.534
73053ION    NA+39836  43.673  23.121   9.554
73054ION    NA+39837  36.300  38.665  10.027
73055ION    NA+39838  12.155  12.870  14.793
73056ION    NA+39839  22.910   9.163   4.575
73057ION    NA+39840  43.154  34.009  11.378
73058ION    NA+39841  41.768  32.887   0.937
73059ION    NA+39842  29.593  16.129  10.681
73060ION    NA+39843  19.121   8.096   2.092
73061ION    CL-39844  42.217   0.013   4.998
73062ION    CL-39845  24.230  12.679   1.911
73063ION    CL-39846  36.097   7.566   2.003
73064ION    CL-39847  15.705  30.379  12.943
73065ION    CL-39848  34.473   5.244   2.700
73066ION    CL-39849  44.834  30.567  11.474
73067ION    CL-39850  25.864  37.280   1.772
73068ION    CL-39851  27.649  11.882  11.462
73069ION    CL-39852  40.920  14.538  13.607
73070ION    CL-39853  42.553  24.359  14.958
73071ION    CL-39854   8.820  26.600   2.233
73072ION    CL-39855   5.790  24.505   0.684
73073ION    CL-39856   4.682  12.716   5.008
73074ION    CL-39857  28.527  15.860   1.249
73075ION    CL-39858  10.664  32.929  11.025
73076ION    CL-39859  17.923   1.180  13.019
73077ION    CL-39860  41.849  23.537   9.902
73078ION    CL-39861  27.052  21.238  13.386
73079ION    CL-39862   7.980  42.379  11.533
73080ION    CL-39863  10.869  38.888   9.896
73081ION    CL-39864  20.568  13.060  10.186
73082ION    CL-39865   6.372  33.147   4.752
73083ION    CL-39866  40.587   9.610   3.195
73084ION    CL-39867  37.376   0.843  11.931
73085ION    CL-39868   7.434  32.325  11.864
73086ION    CL-39869  40.988  15.271   2.707
73087ION    CL-39870  28.765  41.514   1.399
73088ION    CL-39871   0.705   0.283  10.897
73089ION    CL-39872  15.303  44.925   2.868
73090ION    CL-39873  31.030  27.763   2.526
73091ION    CL-39874  31.770  17.003  11.973
73092ION    CL-39875  40.898  19.955  13.837
73093ION    CL-39876  13.345  11.450  14.236
73094ION    CL-39877  22.669  20.217   1.155
73095ION    CL-39878  35.488  20.430   4.212
73096ION    CL-39879   6.803  41.209  14.966
73097ION    CL-39880  21.143  36.165  11.981
73098ION    CL-39881  41.403  20.673   1.910
73099ION    CL-39882  13.257  17.567  14.345
73100ION    CL-39883  36.228   7.931  12.658
73101ION    CL-39884  17.676  40.775   4.849
73102ION    CL-39885  29.511  19.759  11.465
73103ION    CL-39886  38.996  33.082  14.450
73104ION    CL-39887  26.773  16.373  14.130
73105ION    CL-39888  34.353  41.961  14.956
73106ION    CL-39889   2.295  44.328   3.584
73107ION    CL-39890  41.749   2.575  13.781
73108ION    CL-39891   3.997   4.798   4.991
73109ION    CL-39892   3.840  17.207   1.031
73110ION    CL-39893  32.643  17.451  12.165
73111ION    CL-39894   3.854  20.967  12.266
73112ION    CL-39895   5.487  25.106   5.202
73113ION    CL-39896  17.175  36.681   1.030
73114ION    CL-39897   8.646  10.721  11.381
73115ION    CL-39898  43.730   7.379   2.348
73116ION    CL-39899  27.209  25.224  14.821
73117ION    CL-39900  42.437   1.987  12.549
73118ION    CL-39901  33.873  35.647   1.213
73119ION    CL-39902  12.876   4.344  12.278
73120ION    CL-39903   4.864   9.891  14.079
73121ION    CL-39904   9.318  43.514   2.234
73122ION    CL-39905  35.421  44.858   1.772
73123ION    CL-39906  10.408  39.106   0.029
73124ION    CL-39907  14.835  40.349   5.010
73125ION    CL-39908  18.673  37.105  12.987
73126ION    CL-39909  44.385  39.162   1.325
73127ION    CL-39910  16.393  15.346  13.149
73128ION    CL-39911  15.700  40.588  14.444
73129ION    CL-39912  17.543   9.946   3.445
73130ION    CL-39913   9.321  44.491   3.158
73131ION    CL-39914  27.631  30.619  12.008
73132ION    CL-39915  12.698  36.735  13.689
73133ION    CL-39916  28.964  18.037  14.806
73134ION    CL-39917  42.203  38.414   2.525
73135ION    CL-39918  19.830  24.075   0.955
73136ION    CL-39919  20.512   6.093   1.507
73137ION    CL-39920   0.305   5.804  10.470
73138ION    CL-39921  19.395   6.158  13.751
73139ION    CL-39922   9.836   1.124  13.342
73140ION    CL-39923   7.195   2.701  11.679
73141ION    CL-39924  34.360   6.217  11.459
73142ION    CL-39925  33.352  11.144  14.023
73143ION    CL-39926  35.080  38.898  11.299
73144ION    CL-39927  31.346  15.686  11.047
73145ION    CL-39928  23.104  24.897   4.138
73146ION    CL-39929  33.959  15.018  12.047
73147ION    CL-39930  24.269  13.670  10.805
73148ION    CL-39931  18.876  44.062   4.756
73149ION    CL-39932  10.791  30.989  14.828
73150ION    CL-39933  34.130  25.525   0.823
73151ION    CL-39934  30.378   0.297   1.247
73152ION    CL-39935  37.934  14.309  14.516
73153ION    CL-39936   8.764  28.721   2.422
73154ION    CL-39937   5.177  10.024   3.059
73155ION    CL-39938  26.831  44.643   3.395
73156ION    CL-39939  25.543  20.002   2.676
73157ION    CL-39940   9.930   0.117  12.333
73158ION    CL-39941  38.857   5.943   0.868
73159ION    CL-39942  40.361  42.917   2.906
73160ION    CL-39943  14.390  41.516  12.953
73161ION    CL-39944   8.348  36.525   0.300
73162ION    CL-39945  17.992   2.187  12.869
73163ION    CL-39946   7.745   4.165  11.690
73164ION    CL-39947  20.525  38.011   2.025
73165ION    CL-39948   0.990  43.982  10.631
73166ION    CL-39949  13.301  12.380  13.834
73167ION    CL-39950  34.274  43.038  12.541
73168ION    CL-39951  23.642  40.882  14.467
73169ION    CL-39952   1.050  28.475   4.003
73170ION    CL-39953  21.057   1.109  14.869
73171ION    CL-39954  36.700  17.858   0.079
73172ION    CL-39955  35.982  13.728   3.734
73173ION    CL-39956  34.386   9.989  14.305
73174ION    CL-39957  43.401  17.065   0.167
73175ION    CL-39958  42.433  26.670   2.322
73176ION    CL-39959   7.668  26.455  11.894
73177ION    CL-39960  10.414  26.011   2.773
73178ION    CL-39961   5.153  31.145   4.349
73179ION    CL-39962  26.625  40.816  12.930
73180ION    CL-39963  36.309  20.245  12.537
73181ION    CL-39964  33.923  39.079   0.819
73182ION    CL-39965  19.551  44.876  13.977
73183ION    CL-39966  32.100  32.943   0.215
73184ION    CL-39967  13.228  25.010   0.343
73185ION    CL-39968  13.406   0.413   4.639
73186ION    CL-39969   9.619  27.424   2.668
73187ION    CL-39970   4.510  44.555  12.791
73188ION    CL-39971  31.933  28.185   2.342
73189ION    CL-39972   1.516  11.049   1.409
73190ION    CL-39973   9.306  10.363   4.093
73191ION    CL-39974  10.967  28.092   1.167
73192ION    CL-39975  38.518  31.752  14.129
73193ION    CL-39976  41.434   3.283   1.924
73194ION    CL-39977   8.505  43.863  10.547
73195ION    CL-39978   9.933  35.320  10.697
73196ION    CL-39979  36.165  43.837   1.593
73197ION    CL-39980  34.973  29.470  11.104
73198ION    CL-39981  14.469   8.966   0.558
73199ION    CL-39982  33.267  39.023  13.019
73200ION    CL-39983  13.010  38.694   4.037
73201ION    CL-39984  15.441  39.789   5.432
73202ION    CL-39985   7.453  28.186  13.065
73203ION    CL-39986  41.144   1.912  12.205
73204ION    CL-39987  17.195   6.635  13.891
73205ION    CL-39988  14.404  25.554   0.142
73206ION    CL-39989  27.122  13.917  12.741
73207ION    CL-39990  20.833  36.179   0.960
73208ION    CL-39991   5.940  21.867   2.228
73209ION    CL-39992   5.343  12.630  11.739
73210ION    CL-39993  11.090  44.913   2.430
73211ION    CL-39994   8.326  35.010  13.358
73212ION    CL-39995  11.011  44.599   4.131
73213ION    CL-39996  25.471  28.866  10.689
73214ION    CL-39997  21.230  39.399  10.975
73215ION    CL-39998   3.556  26.718   2.604
73216ION    CL-39999  22.442  19.839  10.785
73217ION    CL-40000  41.215  33.219  11.087
73218ION    CL-40001   1.226   1.188  11.111
73219ION    CL-40002  40.843   9.472  11.288
73220ION    CL-40003  23.533   9.231  12.681
73221ION    CL-40004  19.030   5.687   3.267
73222ION    CL-40005  13.273  15.252   3.869
73223ION    CL-40006  11.630  33.613   1.949
73224ION    CL-40007   9.902  13.553  14.495
73225ION    CL-40008  39.366   8.255   3.553
73226ION    CL-40009  15.042  42.909   1.195
73227ION    CL-40010  15.816  27.403  12.907
73228ION    CL-40011  12.584  16.604  11.218
73229ION    CL-40012  25.360  20.966  14.316
73230ION    CL-40013  38.545  21.224   3.155
73231ION    CL-40014  12.224  33.642   1.145
73232ION    CL-40015  12.769  32.964  13.069
73233ION    CL-40016   5.034  42.687  13.830
73234ION    CL-40017   6.771  23.924   0.077
73235ION    CL-40018  15.104  14.399   2.171
73236ION    CL-40019   1.091  28.497   0.775
73237ION    CL-40020  10.832   7.989  11.275
73238ION    CL-40021  21.147  18.185   2.882
73239ION    CL-40022  31.638  16.789   0.389
73240ION    CL-40023  29.698   7.992  10.682
73241ION    CL-40024  35.362  17.284  11.956
73242ION    CL-40025  36.416  18.370  14.540
73243ION    CL-40026  10.253  18.116  11.107
73244ION    CL-40027   8.504  24.832  14.039
73245ION    CL-40028   7.495  13.002  14.360
73246ION    CL-40029  33.374  29.894  13.114
73247ION    CL-40030  33.458  32.411  13.090
73248ION    CL-40031  14.882   4.643  11.172
73249ION    CL-40032   9.837  23.932   4.147
73250ION    CL-40033   3.679  40.612  13.745
73251ION    CL-40034  11.690  14.855   2.404
73252ION    CL-40035  44.827   1.104  14.016
73253ION    CL-40036  20.513  38.660   2.652
73254ION    CL-40037  12.265  40.538  13.025
73255ION    CL-40038  36.052  37.513   1.444
73256ION    CL-40039  37.137  31.820  11.970
73257ION    CL-40040   2.220  24.375   4.196
73258ION    CL-40041  29.651   0.313   1.751
73259ION    CL-40042   9.555   6.860   2.620
73260ION    CL-40043  39.447  24.570   4.314
73261ION    CL-40044  35.829  28.965  12.119
73262ION    CL-40045  29.956  33.697  12.220
73263ION    CL-40046  21.584  17.505  14.009
73264ION    CL-40047  28.417  21.552   4.195
73265ION    CL-40048  30.590  10.864   0.729
73266ION    CL-40049  39.232  27.448   3.490
73267ION    CL-40050  29.046  18.700   0.790
73268ION    CL-40051  40.065  34.040   5.074
73269ION    CL-40052  27.327  23.627  14.215
73270ION    CL-40053  34.544  15.012   2.532
73271ION    CL-40054  14.526  20.529  12.415
73272ION    CL-40055  35.496  20.009  14.829
73273ION    CL-40056   1.931  20.145   3.560
73274ION    CL-40057   3.343   8.003   1.789
73275ION    CL-40058  30.444  42.783  12.563
73276ION    CL-40059  24.190   3.912   0.465
73277ION    CL-40060  11.772  11.460   3.166
73278ION    CL-40061  38.577  11.800   3.404
73279ION    CL-40062  32.777  19.047  10.742
73280ION    CL-40063  30.393  29.290   4.270
73281ION    CL-40064  15.627  34.353  14.984
73282ION    CL-40065  22.301  34.516  12.319
73283ION    CL-40066  19.226  28.605   3.789
73284ION    CL-40067  23.264   0.913  10.109
73285ION    CL-40068  28.011  25.322  11.283
73286ION    CL-40069  22.020   5.750  13.649
73287ION    CL-40070  32.714  40.793   2.827
73288ION    CL-40071   8.686  21.258  14.004
73289ION    CL-40072  16.361  36.276   1.002
73290ION    CL-40073  39.621  27.007  12.480
73291ION    CL-40074  42.862  10.681   0.881
73292ION    CL-40075  36.084  19.943  11.169
73293ION    CL-40076  36.594  33.036  11.543
73294ION    CL-40077  22.697   9.980  11.924
73295ION    CL-40078  16.476   9.892  14.410
73296ION    CL-40079  39.422  13.590   3.611
73297ION    CL-40080  26.736  21.605  12.445
73298ION    CL-40081  26.703  41.074  11.654
73299ION    CL-40082  16.047   5.895  12.067
73300ION    CL-40083  40.958  36.981   3.263
73301ION    CL-40084  39.869   3.454   2.143
73302ION    CL-40085  17.084  40.566   2.543
73303ION    CL-40086  36.342  20.223  14.287
73304ION    CL-40087   6.504  30.811   1.262
73305ION    CL-40088  24.657   4.759   1.811
73306ION    CL-40089  10.584  30.228   2.761
73307ION    CL-40090  30.478  26.248   3.196
73308ION    CL-40091   7.002  23.088   2.506
73309ION    CL-40092  10.281  33.608   1.330
73310ION    CL-40093  17.023   8.840  13.694
73311ION    CL-40094  15.471  27.053  14.017
73312ION    CL-40095  43.931  37.552  11.536
73313ION    CL-40096  20.639  11.351   3.253
73314ION    CL-40097  27.620  18.572   3.241
73315ION    CL-40098  12.444  34.471  13.976
73316ION    CL-40099  18.140   8.234   1.338
73317ION    CL-40100  19.078  39.989   4.213
73318ION    CL-40101  34.820   3.231   2.859
73319ION    CL-40102  22.730  36.700   0.680
73320ION    CL-40103  40.574  25.650  13.962
73321ION    CL-40104  12.921   2.801   4.154
73322ION    CL-40105  18.761  31.670   4.147
73323ION    CL-40106  32.667  42.842  13.008
73324ION    CL-40107  31.516   5.437  14.757
73325ION    CL-40108  39.879  36.428   1.800
73326ION    CL-40109  25.725  18.739  12.047
73327ION    CL-40110  44.342  28.896   9.862
73328ION    CL-40111   5.652   0.540   4.143
73329ION    CL-40112  14.977   7.842  10.779
73330ION    CL-40113   9.706  32.178   4.050
73331ION    CL-40114  39.035  38.059  11.400
73332ION    CL-40115  36.619   7.544  13.493
73333ION    CL-40116  13.165  31.658   0.931
73334ION    CL-40117   4.191  10.123   4.434
73335ION    CL-40118  21.977   0.680  13.142
73336ION    CL-40119   9.637  44.920   2.311
73337ION    CL-40120  31.318  11.819   3.410
73338ION    CL-40121   2.458  21.781  14.458
73339ION    CL-40122  23.340   2.739  11.485
73340ION    CL-40123  16.369  31.628  10.115
73341ION    CL-40124  36.865  41.832  13.011
73342ION    CL-40125  10.210  20.797   3.070
73343ION    CL-40126   0.819  31.847  13.080
73344ION    CL-40127  40.103  28.094  10.761
73345ION    CL-40128   4.246  28.081  11.929
73346ION    CL-40129  42.029   8.934  12.084
73347ION    CL-40130  28.323  19.278   2.869
73348ION    CL-40131  17.328  38.000  10.660
73349ION    CL-40132  20.038  19.828  11.958
73350ION    CL-40133  39.910  35.118  14.707
73351ION    CL-40134  25.267   0.216   3.732
73352ION    CL-40135   4.445  17.729  13.454
73353ION    CL-40136  29.413  39.959   1.404
73354ION    CL-40137   1.052  20.892   4.853
73355ION    CL-40138   0.053  38.185   1.812
73356ION    CL-40139  11.627  34.649   2.833
73357ION    CL-40140   8.199  28.059   1.758
73358ION    CL-40141  18.055  15.086   1.826
73359ION    CL-40142  13.061  33.242  12.263
73360ION    CL-40143  40.312  36.141  12.794
73361ION    CL-40144   6.172  44.230  14.864
73362ION    CL-40145  30.263  26.990   1.234
73363ION    CL-40146  41.618  30.312  10.255
73364ION    CL-40147  39.508  42.770   2.758
73365ION    CL-40148  37.091  34.901   1.733
73366ION    CL-40149  12.672   5.166   2.567
73367ION    CL-40150  22.145   8.291  12.337
73368ION    CL-40151  20.843   9.256  12.194
73369ION    CL-40152  37.682   1.236   5.020
73370ION    CL-40153  18.624  40.988   3.842
73371ION    CL-40154   1.941  12.747  11.995
73372ION    CL-40155  21.995  16.090   2.794
73373ION    CL-40156  38.264  41.352   1.341
73374ION    CL-40157  12.133  31.412   3.736
73375ION    CL-40158   7.902  15.973   0.409
73376ION    CL-40159  42.742  13.209  11.896
73377ION    CL-40160  13.185  22.316  10.649
73378ION    CL-40161  17.709  20.799  11.848
73379ION    CL-40162  35.714  25.484  14.124
73380ION    CL-40163  27.278  14.083  13.982
73381ION    CL-40164   0.726  44.914  13.114
73382ION    CL-40165  40.344   8.179  10.712
73383ION    CL-40166   3.983   9.178   3.074
73384ION    CL-40167  16.010  16.711   0.980
73385ION    CL-40168  22.378  35.963  11.607
73386ION    CL-40169  13.580  13.372   1.720
73387ION    CL-40170  40.380  40.835  13.265
73388ION    CL-40171  36.105  32.551  13.519
73389ION    CL-40172   1.140  24.307   4.938
73390ION    CL-40173  16.801  29.711   2.288
73391ION    CL-40174  31.702   1.207  10.381
73392ION    CL-40175  21.025  27.849   4.644
73393ION    CL-40176  23.456  26.498   5.172
73394ION    CL-40177   5.783  34.424   2.132
73395ION    CL-40178   1.386  13.536   2.822
73396ION    CL-40179  37.495  28.132  12.400
73397ION    CL-40180   1.848  37.973  10.749
73398ION    CL-40181  12.737   1.014  12.707
73399ION    CL-40182  41.632  44.823   3.392
73400ION    CL-40183   2.953  17.888   3.375
73401ION    CL-40184  14.476  17.599   3.907
73402ION    CL-40185  37.196   4.546  11.856
73403ION    CL-40186  12.663  34.011   3.274
73404ION    CL-40187  26.185  35.533  11.583
73405ION    CL-40188   3.476  18.678   3.014
73406ION    CL-40189   8.451   6.764   3.790
73407ION    CL-40190   1.389   3.868   3.673
73408ION    CL-40191   3.998   9.909   1.817
73409ION    CL-40192  20.415  35.302  14.976
73410ION    CL-40193  22.071  12.579   3.832
73411ION    CL-40194  12.171   0.349   3.436
73412ION    CL-40195  10.495  11.262  13.179
73413ION    CL-40196   4.221  21.325   4.743
73414ION    CL-40197   7.672  29.414   3.244
73415ION    CL-40198  44.839   7.240   2.704
73416ION    CL-40199  34.807  27.458   1.161
73417ION    CL-40200  10.712  24.961  13.058
73418ION    CL-40201  15.258  10.956  12.601
73419ION    CL-40202  26.587  26.415  13.204
73420ION    CL-40203  35.022  21.574  12.026
73421ION    CL-40204  42.011  24.805   4.276
73422ION    CL-40205  41.290  27.663   1.301
73423ION    CL-40206  30.963  42.097   3.104
73424ION    CL-40207   8.140  19.470  14.878
73425ION    CL-40208   3.721  16.924   1.844
73426ION    CL-40209  14.387  36.894   0.270
73427ION    CL-40210  26.602  25.425   2.058
73428ION    CL-40211  40.814   8.344   2.166
73429ION    CL-40212  26.281  29.557  13.451
73430ION    CL-40213  36.303  24.224   1.861
73431ION    CL-40214  32.259  36.295  14.207
73432ION    CL-40215  41.413  43.192   2.835
73433ION    CL-40216  43.145  33.389  13.267
73434ION    CL-40217   1.909  36.634   2.160
73435ION    CL-40218  10.198  26.451  14.701
73436ION    CL-40219  17.006  33.103   0.507
73437ION    CL-40220   5.740  22.898  13.690
73438ION    CL-40221  40.989  13.266   1.717
73439ION    CL-40222  40.107  26.425   4.132
73440ION    CL-40223  41.928  15.319   4.219
73441ION    CL-40224  41.060   4.628  14.832
73442ION    CL-40225  43.268  34.944   0.816
73443ION    CL-40226   2.061   0.809   3.572
73444ION    CL-40227  26.769  15.394   0.232
73445ION    CL-40228   6.600   2.940  11.122
73446ION    CL-40229  13.145  35.861  11.125
73447ION    CL-40230  12.702   8.794  11.995
73448ION    CL-40231  19.264  34.917   1.293
73449ION    CL-40232  10.184   6.301   3.677
73450ION    CL-40233  26.677  31.479  14.018
73451ION    CL-40234  40.912  36.120   2.105
73452ION    CL-40235   5.123  41.560   1.563
73453ION    CL-40236  39.340  25.475   2.797
73454ION    CL-40237  39.555  12.966  10.172
73455ION    CL-40238  42.627  25.875  12.688
73456ION    CL-40239  24.652  10.443  14.765
73457ION    CL-40240  15.311  10.941   1.250
73458ION    CL-40241   2.146  19.796  14.529
73459ION    CL-40242  25.800  39.348   4.110
73460ION    CL-40243  30.873  39.420   4.732
73461ION    CL-40244  38.332  27.224  13.926
73462ION    CL-40245  33.376  40.553  13.995
73463ION    CL-40246  26.628   0.990  13.947
73464ION    CL-40247  44.827   7.248   0.362
73465ION    CL-40248  22.101   1.534   4.905
73466ION    CL-40249  30.037  12.803   4.483
73467ION    CL-40250  30.886  37.770   1.719
73468ION    CL-40251  10.105   5.046  10.220
73469ION    CL-40252  25.982  32.111   4.321
73470ION    CL-40253  43.940  31.351   4.475
73471ION    CL-40254  14.080  33.035   3.836
73472ION    CL-40255  32.583  39.554  12.520
73473ION    CL-40256  41.080  38.034   0.240
73474ION    CL-40257  44.953  28.175   2.795
73475ION    CL-40258   2.304   6.677  12.456
73476ION    CL-40259  39.661  42.439   1.559
73477ION    CL-40260  42.928  15.775  11.208
73478ION    CL-40261  42.682  30.886   5.017
73479ION    CL-40262   8.627  12.589   1.764
73480ION    CL-40263   5.733  39.018  12.387
73481ION    CL-40264  27.442  35.493  11.174
73482ION    CL-40265  42.605  16.899   3.102
73483ION    CL-40266  28.553   1.897   3.663
73484ION    CL-40267  38.569  44.885   3.339
73485ION    CL-40268  35.251  30.941  14.638
73486ION    CL-40269  42.308  23.538  12.558
73487ION    CL-40270   0.510  43.143   2.660
73488ION    CL-40271  22.388   8.819  11.157
73489ION    CL-40272  39.300  42.926   0.145
73490ION    CL-40273  32.207  40.303   0.145
73491ION    CL-40274  11.088   1.209   3.402
73492ION    CL-40275  14.145  42.631  10.468
73493ION    CL-40276  16.888  31.117  13.689
73494ION    CL-40277   7.429  22.298  11.800
73495ION    CL-40278  10.067  15.636   0.825
73496ION    CL-40279  35.600  11.327   0.886
73497ION    CL-40280  44.418  25.259  11.931
73498ION    CL-40281  35.692  30.136   2.156
73499ION    CL-40282  38.108  14.197   2.250
73500ION    CL-40283  36.351   0.535   5.160
73501ION    CL-40284   9.277  19.341  12.787
73502ION    CL-40285  32.139   5.011   4.280
73503ION    CL-40286  23.296   8.893  14.100
73504ION    CL-40287  12.498  32.898   0.536
73505ION    CL-40288   4.060  36.184   2.519
73506ION    CL-40289  16.799  15.801   2.814
73507ION    CL-40290  13.229  23.327  10.682
73508ION    CL-40291  42.126  42.134   4.758
73509ION    CL-40292  36.986  21.117   4.902
73510ION    CL-40293   0.003  29.877  12.544
73511ION    CL-40294   6.846  15.823   3.596
73512ION    CL-40295  32.106   6.331  11.469
73513ION    CL-40296  30.566  24.950  14.996
73514ION    CL-40297   1.794  14.317   3.773
73515ION    CL-40298   2.330  23.996  14.941
73516ION    CL-40299  44.080   9.941  12.208
73517ION    CL-40300   7.615  37.036   2.993
73518ION    CL-40301  37.128   7.773  12.251
73519ION    CL-40302  38.573  37.367  13.373
73520ION    CL-40303  16.579   3.847  11.569
73521ION    CL-40304  13.750  16.667   3.226
73522ION    CL-40305  33.721   0.069   4.158
73523ION    CL-40306  39.524  38.819   4.198
73524ION    CL-40307  35.362  21.036   2.189
73525ION    CL-40308   6.348  31.776  11.543
73526ION    CL-40309   7.843   8.638   1.605
73527ION    CL-40310   7.336   9.489   1.740
73528ION    CL-40311  42.861  23.518  14.855
73529ION    CL-40312   3.750  32.488   0.868
73530ION    CL-40313   1.563  31.367   4.499
73531ION    CL-40314  19.379  30.518  11.714
73532ION    CL-40315  33.010   6.049  11.132
73533ION    CL-40316  20.389  38.559  11.431
73534ION    CL-40317  37.999  11.327   4.812
73535ION    CL-40318   6.962  32.140  12.747
73536ION    CL-40319   7.271  32.005   0.672
73537ION    CL-40320  27.325  23.209   0.124
73538ION    CL-40321  26.538  11.575   1.905
73539ION    CL-40322  12.748  43.093  14.014
73540ION    CL-40323  35.699   7.166   1.177
73541ION    CL-40324   0.346  35.350   2.672
73542ION    CL-40325   7.631   5.419  13.797
73543ION    CL-40326  43.783  10.294  14.481
73544ION    CL-40327  14.976  14.300  14.059
73545ION    CL-40328  33.291  35.886  14.348
73546ION    CL-40329  44.535   1.902   1.228
73547ION    CL-40330  22.148  13.383   3.235
73548ION    CL-40331  40.552  36.604  13.648
73549ION    CL-40332  23.156  19.193   1.426
73550ION    CL-40333   5.303  36.544   1.810
73551ION    CL-40334   9.702  27.316  14.774
73552ION    CL-40335  41.027  29.476  10.845
73553ION    CL-40336  43.643  16.074  11.710
73554ION    CL-40337  17.586  36.716   0.119
73555ION    CL-40338  23.806  29.710  13.446
73556ION    CL-40339  34.367  40.025   3.703
73557ION    CL-40340  20.238  32.672   2.990
73558ION    CL-40341  29.522  27.597   3.315
73559ION    CL-40342  27.796  31.516  11.541
73560ION    CL-40343  24.631  35.942  12.902
73561ION    CL-40344  19.543  35.644   5.069
73562ION    CL-40345   1.420   9.538  11.071
73563ION    CL-40346  17.303  12.357   4.180
73564ION    CL-40347  14.190  15.526   0.223
73565ION    CL-40348  22.064  21.734  12.045
73566ION    CL-40349  32.117  43.926  11.668
73567ION    CL-40350  36.601  44.915   0.831
73568ION    CL-40351  36.693  23.886  13.323
73569ION    CL-40352  20.118   5.817  10.179
73570ION    CL-40353  22.163  29.472  10.507
73571ION    CL-40354  38.885   3.496  11.997
73572ION    CL-40355   6.616  12.165  14.759
73573ION    CL-40356  33.832  21.714  14.229
73574ION    CL-40357  43.974  30.451   9.931
73575ION    CL-40358  36.068  29.117   2.395
73576ION    CL-40359  38.107  10.906  11.966
73577ION    CL-40360  16.035   1.714   3.009
73578ION    CL-40361  23.757  16.166  13.301
73579ION    CL-40362  14.110  42.810  14.785
73580ION    CL-40363  22.790  19.087  11.151
73581ION    CL-40364  13.724  27.597   1.720
73582ION    CL-40365   4.760  13.650   1.656
73583ION    CL-40366  13.154  36.677   1.273
73584ION    CL-40367  37.820   5.054   3.676
73585ION    CL-40368  29.786  20.440  13.634
73586ION    CL-40369  23.801  23.150   2.033
73587ION    CL-40370  15.535  15.123  13.611
73588ION    CL-40371   4.010   6.331   3.581
73589ION    CL-40372  11.374  15.644   3.660
73590ION    CL-40373  17.534  11.247   3.573
73591ION    CL-40374  18.663   2.616  10.916
73592ION    CL-40375  42.090  41.400   2.753
73593ION    CL-40376  12.785   9.050   4.466
73594ION    CL-40377  37.047   4.147   4.260
73595ION    CL-40378  16.617  24.593  11.017
73596ION    CL-40379  32.114  29.406  12.410
73597ION    CL-40380  36.034  43.075   1.976
73598ION    CL-40381  37.251  32.193  12.891
73599ION    CL-40382  17.085  22.041   2.360
73600ION    CL-40383  18.100  15.855  12.082
73601ION    CL-40384  27.667  33.639  10.382
73602ION    CL-40385  18.324   1.657   4.281
73603ION    CL-40386  32.292  13.155   0.947
73604ION    CL-40387   7.861  44.992  12.666
73605ION    CL-40388  17.526  24.388   0.132
73606ION    CL-40389   9.175  13.603   0.331
73607ION    CL-40390  22.800  23.150   2.363
73608ION    CL-40391  22.895  16.300  13.103
73609ION    CL-40392   7.247   4.279   2.132
73610ION    CL-40393  11.152  15.198   0.624
73611ION    CL-40394  14.392   3.466  14.119
73612ION    CL-40395  25.973   0.290   4.198
73613ION    CL-40396  21.729   0.189  14.575
73614ION    CL-40397  24.448  38.952   0.307
73615ION    CL-40398  42.282   5.277   0.778
73616ION    CL-40399   2.655  12.213  11.514
73617ION    CL-40400   0.864  41.698   0.940
73618ION    CL-40401  16.553   2.378  13.920
73619ION    CL-40402  25.852  34.895   2.107
73620ION    CL-40403  22.811  13.762   0.240
73621ION    CL-40404   6.819   2.947  13.456
73622ION    CL-40405  39.786  35.620  11.379
73623ION    CL-40406  10.289  12.582  13.909
73624ION    CL-40407  20.840  16.646   4.706
73625ION    CL-40408  34.934   3.016   0.507
73626ION    CL-40409   8.630  35.246  11.015
73627ION    CL-40410   7.095  14.195  11.774
73628ION    CL-40411  16.154   6.930   0.551
73629ION    CL-40412   8.210  19.744  12.047
73630ION    CL-40413  10.252  20.759   1.621
73631ION    CL-40414  21.297  18.863   5.140
73632ION    CL-40415   3.897  27.145  11.877
73633ION    CL-40416   7.353  32.635  13.636
73634ION    CL-40417  13.299   3.643  14.729
73635ION    CL-40418  14.022  37.371   1.843
73636ION    CL-40419  29.186  29.227   4.965
73637ION    CL-40420  26.080  14.341   0.129
73638ION    CL-40421   6.217  30.648  10.291
73639ION    CL-40422  27.949  44.440   2.202
73640ION    CL-40423  26.593  32.818  14.789
73641ION    CL-40424  24.771  32.072  12.091
73642ION    CL-40425  18.103  32.093  14.318
73643ION    CL-40426  29.115   6.823  11.176
73644ION    CL-40427  23.227  37.973  12.818
73645ION    CL-40428  43.418  22.722   3.179
73646ION    CL-40429  18.540  11.116   2.366
73647ION    CL-40430  23.653  37.433   1.357
73648ION    CL-40431   2.214  16.705  13.875
73649ION    CL-40432  10.607  12.890   1.880
73650ION    CL-40433  43.120  25.707  13.542
73651ION    CL-40434  33.392   7.257   0.777
73652ION    CL-40435  23.254   6.794   3.403
73653ION    CL-40436  32.930  39.092   0.104
73654ION    CL-40437  29.085  38.162   2.925
73655ION    CL-40438  20.571   5.136   4.010
73656ION    CL-40439   5.780  16.532  12.156
73657ION    CL-40440  11.211  18.233  10.574
73658ION    CL-40441  15.267  42.557  12.644
73659ION    CL-40442  44.894  26.521  14.757
73660ION    CL-40443   3.357  11.478   1.445
73661ION    CL-40444  19.360   7.172   3.234
73662ION    CL-40445  12.568  32.115   1.906
73663ION    CL-40446  21.629  22.309  13.095
73664ION    CL-40447  42.230  39.071  13.562
73665ION    CL-40448  35.758   9.580  11.624
73666ION    CL-40449   7.645   6.865   3.928
73667ION    CL-40450  15.469  11.004  10.650
73668ION    CL-40451  13.260  37.789   2.648
73669ION    CL-40452   5.948  32.195   1.588
73670ION    CL-40453  30.739  15.156   0.437
73671ION    CL-40454   2.088  28.388  14.388
73672ION    CL-40455  43.915  32.116   4.963
73673ION    CL-40456  26.903  11.771  12.154
73674ION    CL-40457  27.217  31.048   2.140
73675ION    CL-40458  14.859  13.975  14.997
73676ION    CL-40459  38.771   1.980  12.511
73677ION    CL-40460  14.996  15.217   0.117
73678ION    CL-40461  15.968   8.444   2.009
73679ION    CL-40462  17.317   5.216  13.518
73680ION    CL-40463  12.222  11.392   0.160
73681ION    CL-40464  26.266  26.281   9.673
73682ION    CL-40465  23.198  43.648   2.589
73683ION    CL-40466  33.608   8.644   0.728
73684ION    CL-40467  33.438   7.890   3.874
73685ION    CL-40468  28.379  33.637  11.827
73686ION    CL-40469  16.933  27.791   3.918
73687ION    CL-40470  39.518  40.614   1.328
73688ION    CL-40471  16.098  35.927   4.950
73689ION    CL-40472   7.407  42.265   1.053
73690ION    CL-40473  27.376   2.917   4.648
73691ION    CL-40474  21.610  35.482   3.687
73692ION    CL-40475  13.397  32.494  13.689
73693ION    CL-40476   6.242  25.983  10.645
73694ION    CL-40477  14.023  17.149  12.647
73695ION    CL-40478   1.019   3.055   3.837
73696ION    CL-40479  27.013  22.660  14.348
73697ION    CL-40480  31.569   2.386  12.560
73698ION    CL-40481  21.447  16.156   9.821
73699ION    CL-40482  31.045  36.093   4.009
73700ION    CL-40483  39.409  10.443   4.425
73701ION    CL-40484   4.432  18.656   2.000
73702ION    CL-40485  12.464   2.601  12.075
73703ION    CL-40486  15.256   8.408  13.118
73704ION    CL-40487  15.119  19.253   2.882
73705ION    CL-40488  12.692  17.872   2.124
73706ION    CL-40489   5.251  43.467   1.346
73707ION    CL-40490   5.942  11.467  12.383
73708ION    CL-40491  35.131  13.188   3.670
73709ION    CL-40492   6.349  23.319   1.730
73710ION    CL-40493   6.775  24.030   2.753
73711ION    CL-40494  36.439  34.278  11.214
73712ION    CL-40495  21.282   3.178  12.128
73713ION    CL-40496  13.484   3.565  11.310
73714ION    CL-40497  39.282  34.768  11.524
73715ION    CL-40498  15.820  43.485  10.372
73716ION    CL-40499  35.398  15.460   2.264
73717ION    CL-40500  43.985  23.595   1.874
73718ION    CL-40501  28.671  31.541   1.466
73719ION    CL-40502  30.732  40.048   2.796
73720ION    CL-40503  30.163   4.399   0.216
73721ION    CL-40504  24.421  42.993   1.087
73722ION    CL-40505  23.470   6.270  12.892
73723ION    CL-40506  27.294   6.066  13.368
73724ION    CL-40507  13.911  41.308   2.253
73725ION    CL-40508   3.762   5.764   4.890
73726ION    CL-40509  12.788  13.937  14.904
73727ION    CL-40510  43.077  33.969  10.942
73728ION    CL-40511  22.959  29.918  12.957
73729ION    CL-40512  11.047  21.162   0.249
73730ION    CL-40513  36.686  25.420  14.351
73731ION    CL-40514   5.882  31.993  14.284
73732ION    CL-40515  14.188  37.083   4.388
73733ION    CL-40516  23.139  29.999   3.648
73734ION    CL-40517  14.338  21.249   0.054
73735ION    CL-40518  36.989  36.263  11.725
73736ION    CL-40519  11.696  28.781  14.241
73737ION    CL-40520  30.653  30.740   1.763
73738ION    CL-40521  22.160  23.726  13.873
73739ION    CL-40522  33.134  42.685   2.732
73740ION    CL-40523  40.327  31.592  11.625
73741ION    CL-40524  11.080  18.403  11.590
73742ION    CL-40525  23.104  23.009  12.817
73743ION    CL-40526  37.620  26.083   2.297
73744ION    CL-40527  38.732  32.256  13.292
73745ION    CL-40528   5.831  44.758  13.481
73746ION    CL-40529  31.924   1.916   2.123
73747ION    CL-40530  25.383   8.018   2.748
73748ION    CL-40531  38.338  35.187   1.272
73749ION    CL-40532  42.020  21.888  13.511
73750ION    CL-40533  34.068  44.160   1.805
73751ION    CL-40534  28.064  39.649   4.545
73752ION    CL-40535  31.828  39.622  13.243
73753ION    CL-40536  25.200  11.683  13.481
73754ION    CL-40537   5.721  12.055  12.946
73755ION    CL-40538  11.554  23.034   2.011
73756ION    CL-40539  22.990  24.288   1.462
73757ION    CL-40540  20.064  23.918   0.148
73758ION    CL-40541  42.830  35.337  13.571
73759ION    CL-40542  18.512  29.656   3.212
73760ION    CL-40543  20.804  19.635  12.579
73761ION    CL-40544   2.718  41.341   0.918
73762ION    CL-40545  35.056  14.462  14.158
73763ION    CL-40546   5.280  20.029  14.145
73764ION    CL-40547  29.354  11.896   2.878
73765ION    CL-40548  38.553  14.340  11.266
73766ION    CL-40549   7.862  15.535   1.307
73767ION    CL-40550  21.954  25.621  10.780
73768ION    CL-40551  33.170  17.104   3.568
73769ION    CL-40552   4.618  10.878   4.932
73770ION    CL-40553  23.345   0.773  11.640
73771ION    CL-40554  24.986  27.255   2.658
73772ION    CL-40555  40.418  28.925   3.071
73773ION    CL-40556   0.375   4.519   1.793
73774ION    CL-40557  40.299  24.351   1.006
73775ION    CL-40558  22.722  36.062   1.904
73776ION    CL-40559  14.808  26.751   3.268
73777ION    CL-40560  20.846  23.203  13.389
73778ION    CL-40561   5.054  26.802  14.271
73779ION    CL-40562   3.986  18.137  10.205
73780ION    CL-40563  18.820   8.746  12.746
73781ION    CL-40564  31.679  39.555   2.258
73782ION    CL-40565  26.228  23.602   0.980
73783ION    CL-40566   3.715  24.223   3.076
73784ION    CL-40567  14.401  33.834  11.014
73785ION    CL-40568   0.656  19.922  13.597
73786ION    CL-40569  44.286  26.724   1.176
73787ION    CL-40570  12.698  12.107  10.351
73788ION    CL-40571  20.259  14.429   5.245
73789ION    CL-40572   3.704  30.162   3.271
73790ION    CL-40573   3.779   4.661  13.043
73791ION    CL-40574  40.588  17.087  14.433
73792ION    CL-40575  10.028  26.374  11.072
73793ION    CL-40576  34.655   7.136  14.360
73794ION    CL-40577  33.618  14.030  14.471
73795ION    CL-40578  34.909   3.224   1.500
73796ION    CL-40579  38.368   0.959  11.803
73797ION    CL-40580  11.447   7.415   3.782
73798ION    CL-40581  17.261  23.075  11.769
73799ION    CL-40582   3.117  44.673   2.642
73800ION    CL-40583   5.508   9.166  11.656
73801ION    CL-40584  33.046  38.192   0.029
73802ION    CL-40585  15.427  42.297  14.745
73803ION    CL-40586  23.051  37.379   0.297
73804ION    CL-40587   9.573  32.322  10.344
73805ION    CL-40588   2.377  34.013  14.936
73806ION    CL-40589  38.590  15.274   2.689
73807ION    CL-40590  13.180  36.059   4.573
73808ION    CL-40591  15.078  18.533   4.580
73809ION    CL-40592  13.834   3.314   3.670
73810ION    CL-40593  38.409  44.192   0.961
73811ION    CL-40594  37.846  33.163   2.476
73812ION    CL-40595  28.284  40.678   2.338
73813ION    CL-40596   7.397   4.194   1.131
73814ION    CL-40597  15.077  12.647  11.716
73815ION    CL-40598  29.576   3.962  11.857
73816ION    CL-40599   5.246  37.895   1.340
73817ION    CL-40600   5.391  20.842   3.491
73818ION    CL-40601  14.973  39.769  14.745
73819ION    CL-40602  36.687  35.624   0.047
73820ION    CL-40603  25.288  15.788  12.122
73821ION    CL-40604  25.215   5.701  11.020
73822ION    CL-40605  31.990  43.839  13.795
73823ION    CL-40606  16.302   5.591   3.238
73824ION    CL-40607  24.740   5.156  12.718
73825ION    CL-40608  16.837  40.317  11.491
73826ION    CL-40609  16.528  22.968  12.981
73827ION    CL-40610  22.678  31.737  10.003
73828ION    CL-40611  30.526  18.608   4.060
73829ION    CL-40612  42.073  38.068  12.729
73830ION    CL-40613  26.786  36.839  12.856
73831ION    CL-40614   3.702  29.605  11.802
73832ION    CL-40615  27.215  33.635  14.981
73833ION    CL-40616  39.400  28.455   3.821
73834ION    CL-40617  21.554   1.556   0.494
73835ION    CL-40618  34.915  33.085  12.059
73836ION    CL-40619  29.154   7.714   0.109
73837ION    CL-40620  12.144  29.652   4.264
73838ION    CL-40621  40.607   9.091  10.394
73839ION    CL-40622  33.070  31.041  12.217
73840ION    CL-40623  15.911  30.211   3.039
73841ION    CL-40624  11.039   1.928   0.293
73842ION    CL-40625  36.815   9.225   2.315
73843ION    CL-40626   6.422  13.279   2.084
73844ION    CL-40627  35.281  41.426   0.273
73845ION    CL-40628  17.209  39.984   9.850
73846ION    CL-40629   3.681  16.271   3.907
73847ION    CL-40630  33.514  19.025   1.055
73848ION    CL-40631   0.966   8.558  13.468
73849ION    CL-40632  16.761  38.001   1.366
73850ION    CL-40633   5.332  31.508   1.971
73851ION    CL-40634  25.471  30.964  12.469
73852ION    CL-40635  30.487   8.456   0.967
73853ION    CL-40636   5.912  14.376  10.570
73854ION    CL-40637  31.243  22.812   1.256
73855ION    CL-40638  17.727  16.868  12.696
73856ION    CL-40639  40.209  31.745  10.473
73857ION    CL-40640   7.356  13.791   5.029
73858ION    CL-40641  23.478  40.126   5.548
73859ION    CL-40642  13.344   2.266  14.244
73860ION    CL-40643  12.146   7.926  14.699
73861ION    CL-40644  12.743  22.325   1.958
73862ION    CL-40645  42.665   2.271  14.158
73863ION    CL-40646  28.241  17.042  12.095
73864ION    CL-40647   0.762  37.102   3.312
73865ION    CL-40648  22.992  30.306  13.681
73866ION    CL-40649  25.833  25.895  14.925
73867ION    CL-40650  16.303  32.551  12.245
73868ION    CL-40651  43.425  25.674  11.643
73869ION    CL-40652   7.102  33.854  11.548
73870ION    CL-40653  42.797   0.767  12.888
73871ION    CL-40654  24.748  33.441   3.218
73872ION    CL-40655  24.545   6.172  12.830
73873ION    CL-40656  28.697  32.213   0.677
73874ION    CL-40657  16.575  36.576  14.350
73875ION    CL-40658  29.029   8.865   0.218
73876ION    CL-40659   6.986  28.103   2.331
73877ION    CL-40660   5.513  29.410   1.488
73878ION    CL-40661   9.576  32.446   2.085
73879ION    CL-40662  11.625   4.929   3.769
73880ION    CL-40663   1.552  25.947  14.144
73881ION    CL-40664  35.667  21.559   0.276
73882ION    CL-40665  18.506  20.160  10.739
73883ION    CL-40666  19.015  26.978   1.176
73884ION    CL-40667  23.909  12.316   2.972
73885ION    CL-40668  26.737  21.769   0.226
73886ION    CL-40669  21.274  33.560  14.357
73887ION    CL-40670   8.728   0.322   2.423
73888ION    CL-40671  30.743  41.046   2.526
73889ION    CL-40672  33.037   7.260  13.821
73890ION    CL-40673  36.179  19.597  10.236
73891ION    CL-40674   2.815   3.462   2.278
73892ION    CL-40675  14.822   6.939   0.681
73893ION    CL-40676   4.127  37.312  14.334
73894ION    CL-40677  36.311  34.851   2.438
73895ION    CL-40678  36.043  42.793   3.805
73896ION    CL-40679  37.554  38.180   1.775
73897ION    CL-40680  24.367  17.531   0.565
73898ION    CL-40681  23.520  26.974  13.818
73899ION    CL-40682  14.332  39.527   4.582
73900ION    CL-40683   6.489  30.539  12.164
73901ION    CL-40684  36.558  42.524   2.681
73902ION    CL-40685  11.418  35.425  12.172
73903ION    CL-40686  17.296   1.853  13.504
73904ION    CL-40687  13.296   3.497   2.322
73905ION    CL-40688  33.999  23.464  14.912
73906ION    CL-40689  21.732  16.165   0.070
73907ION    CL-40690  36.974  13.081   2.259
73908ION    CL-40691   2.453  10.223   2.047
73909ION    CL-40692  27.367  40.083  13.425
73910ION    CL-40693  26.361  33.749   5.088
73911ION    CL-40694  18.342   4.103  12.922
73912ION    CL-40695  24.866  43.313   2.158
73913ION    CL-40696  27.750  14.848   3.717
73914ION    CL-40697   4.395  43.831   0.768
73915ION    CL-40698  32.283  30.217  11.098
73916ION    CL-40699   0.941  19.428  11.116
73917ION    CL-40700  41.188  18.223  13.812
73918ION    CL-40701  43.005   3.930   1.730
73919ION    CL-40702  22.631  38.357   1.318
73920ION    CL-40703  12.104  36.780   0.786
73921ION    CL-40704   8.206  28.099   4.896
73922ION    CL-40705  33.986  23.923  12.381
73923ION    CL-40706  17.267  30.702   3.205
73924ION    CL-40707   7.503  19.589   1.820
73925ION    CL-40708  22.140   3.785  13.828
73926ION    CL-40709  29.071  38.185  10.119
73927ION    CL-40710  16.566  42.595  12.128
73928ION    CL-40711  34.165   1.358  10.851
73929ION    CL-40712   6.297  38.544   1.759
73930ION    CL-40713  28.499  38.529  13.166
73931ION    CL-40714  21.777  14.177  13.033
73932ION    CL-40715  33.303   1.428  13.885
73933ION    CL-40716  15.888  14.021  12.668
73934ION    CL-40717  31.675   3.888  11.291
73935ION    CL-40718   8.985  14.435   0.902
73936ION    CL-40719   3.217  31.197   4.821
73937ION    CL-40720  30.929  36.756   2.948
73938ION    CL-40721  35.626  11.920  14.940
73939ION    CL-40722  21.573  36.003  10.939
73940ION    CL-40723  11.603   7.388  13.147
73941ION    CL-40724   8.903  43.849  11.671
73942ION    CL-40725  36.430  13.881  11.560
73943ION    CL-40726  40.439  11.414  14.967
73944ION    CL-40727  16.146  12.503   2.400
73945ION    CL-40728  35.271   7.611  14.080
73946ION    CL-40729  35.564  14.815  14.994
73947ION    CL-40730  36.247  22.941  11.845
73948ION    CL-40731  11.091  28.038  13.082
73949ION    CL-40732  37.088  37.826   3.640
73950ION    CL-40733   9.165   5.822  14.981
73951ION    CL-40734  27.986  30.909  11.243
73952ION    CL-40735  32.458  36.662   1.979
73953ION    CL-40736  31.870   0.531   1.629
73954ION    CL-40737  42.480   9.846  13.570
73955ION    CL-40738  42.639   5.849  12.475
73956ION    CL-40739  34.069  40.032  13.494
73957ION    CL-40740  21.854  38.078  12.375
73958ION    CL-40741  40.447  20.553  11.477
73959ION    CL-40742  35.830   9.651   0.238
73960ION    CL-40743   2.803  22.151   3.243
73961ION    CL-40744  24.717  23.387  13.428
73962ION    CL-40745  30.960  25.482   1.455
73963ION    CL-40746  19.558  38.537  11.065
73964ION    CL-40747  29.298   5.379  14.909
73965ION    CL-40748  25.895  15.280   3.678
73966ION    CL-40749  19.032  21.823   1.244
73967ION    CL-40750  17.607  21.622   0.866
73968ION    CL-40751  16.821   8.052   0.339
73969ION    CL-40752  19.757  40.696   4.012
73970ION    CL-40753  44.199  14.349  12.462
73971ION    CL-40754   3.837   1.397   3.039
73972ION    CL-40755   0.708   8.128   4.522
73973ION    CL-40756  30.732  20.947  11.793
73974ION    CL-40757  10.413  39.837  10.484
73975ION    CL-40758  38.653   5.217   4.211
73976ION    CL-40759  18.493  27.542  14.513
73977ION    CL-40760  27.634  18.476   0.410
73978ION    CL-40761  43.524  30.449   2.466
73979ION    CL-40762  28.906  35.641  11.021
73980ION    CL-40763  32.983  10.312  12.158
73981ION    CL-40764  19.049   8.359   2.453
73982ION    CL-40765  29.837  20.312   2.168
73983ION    CL-40766   8.577  18.659   3.701
73984ION    CL-40767   0.313  12.644  12.396
73985ION    CL-40768  35.264   5.513   4.145
73986ION    CL-40769  36.111  38.893   2.061
73987ION    CL-40770  34.155   1.862  14.179
73988ION    CL-40771  34.751   1.548  11.638
73989ION    CL-40772  18.784  16.096   1.806
73990ION    CL-40773  38.511  36.981  14.294
73991ION    CL-40774  39.360  36.999   2.436
73992ION    CL-40775   9.415  42.327  12.811
73993ION    CL-40776  17.688  15.645   3.016
73994ION    CL-40777  14.913  16.879   0.406
73995ION    CL-40778   1.966  14.122  13.360
73996ION    CL-40779  41.903   2.195   1.317
73997ION    CL-40780  35.052  19.012  11.969
73998ION    CL-40781  23.465  33.553  14.954
73999ION    CL-40782  35.800  31.262   0.182
74000ION    CL-40783  35.812  26.461  13.178
74001ION    CL-40784  42.872  15.173   0.098
74002ION    CL-40785  32.677  18.255  12.758
74003ION    CL-40786   8.703   3.903  10.483
74004ION    CL-40787   6.772  29.870   1.465
74005ION    CL-40788  12.653  31.899  13.994
74006ION    CL-40789   7.811  13.442   4.744
74007ION    CL-40790  20.778  26.664   3.186
74008ION    CL-40791  40.033   9.016  11.658
74009ION    CL-40792   2.035  32.973   2.560
74010ION    CL-40793  31.620  11.696  11.271
74011ION    CL-40794   5.350  34.007  13.524
74012ION    CL-40795  12.845  31.272  10.987
74013ION    CL-40796  36.950  40.813   4.098
74014ION    CL-40797  29.217   3.556   4.115
74015ION    CL-40798  17.982   1.275  11.321
74016ION    CL-40799  18.812  17.845   2.662
74017ION    CL-40800  19.500  16.370  14.533
74018ION    CL-40801   6.559   7.604   1.655
74019ION    CL-40802  29.832  23.286  11.843
74020ION    CL-40803  35.059  30.923   0.415
74021ION    CL-40804  15.457  39.820  11.290
74022ION    CL-40805  40.594  42.349   1.910
74023ION    CL-40806  21.589  26.921  10.268
74024ION    CL-40807  33.594  37.128   1.452
74025ION    CL-40808  21.693  16.046  12.989
74026ION    CL-40809   5.026  41.163   3.205
74027ION    CL-40810  40.158   5.252  11.151
74028ION    CL-40811  11.272  36.889  13.797
74029ION    CL-40812  34.585  29.062  12.468
74030ION    CL-40813  16.043  18.271   3.243
74031ION    CL-40814  14.040   8.588   3.303
74032ION    CL-40815  34.357  28.030  14.073
74033ION    CL-40816  22.251  38.036  13.942
74034ION    CL-40817   3.067  25.680   3.732
74035ION    CL-40818   8.047   9.655   2.241
74036ION    CL-40819   0.836  43.904   2.595
74037ION    CL-40820   0.098  16.381   4.645
74038ION    CL-40821  36.843  23.067   1.284
74039ION    CL-40822  37.114  24.504   4.074
74040ION    CL-40823  28.105   9.782  12.699
74041ION    CL-40824  36.229  24.458   0.037
74042ION    CL-40825  29.655  40.721  11.002
74043ION    CL-40826   6.947  19.282  14.794
74044ION    CL-40827  43.000   3.034   1.201
74045ION    CL-40828   4.364   4.178  14.162
74046ION    CL-40829  30.789  28.416   4.699
74047ION    CL-40830  33.181   7.777   1.606
74048ION    CL-40831  22.169  41.415  10.389
74049ION    CL-40832  27.328  10.119  12.167
74050ION    CL-40833  25.210  20.471  13.625
74051ION    CL-40834  13.625  43.525   2.738
74052ION    CL-40835  32.562  15.054   0.035
74053ION    CL-40836  26.790  10.976  13.289
74054ION    CL-40837  33.378  22.405   1.169
74055ION    CL-40838   2.580   4.764  12.608
74056ION    CL-40839  29.752  33.391   0.335
74057ION    CL-40840  36.677  21.645   0.599
74058ION    CL-40841  40.304  22.041  13.900
74059ION    CL-40842  20.708  20.786   2.668
74060ION    CL-40843   3.141  22.304   4.989
74061ION    CL-40844  37.260  38.874   2.627
74062ION    CL-40845  10.721  21.526   1.183
74063ION    CL-40846  26.195  34.650   3.945
74064ION    CL-40847   9.783  37.728   4.085
74065ION    CL-40848  13.674  24.989   1.508
74066ION    CL-40849  28.115  33.468   3.098
74067ION    CL-40850  10.249   0.069  13.342
74068ION    CL-40851  11.104  33.016   3.620
74069ION    CL-40852  40.349   2.661   0.992
74070ION    CL-40853  26.445  10.082  13.573
74071ION    CL-40854  11.574   7.708   0.519
74072ION    CL-40855   3.253  13.279  13.792
74073ION    CL-40856  24.402  39.579   4.086
74074ION    CL-40857   4.840  28.442  12.647
74075ION    CL-40858  11.811  38.479  12.868
74076ION    CL-40859  11.138  10.598  13.263
74077ION    CL-40860  21.726  13.753  14.243
74078ION    CL-40861  44.999  32.843  14.401
74079ION    CL-40862   2.473  11.661  12.200
74080ION    CL-40863  20.927  41.043  14.658
74081ION    CL-40864  34.696   1.072   2.849
74082ION    CL-40865  29.821  14.983   2.386
74083ION    CL-40866   6.115  39.132  14.414
74084ION    CL-40867   5.900  37.616   3.194
74085ION    CL-40868  41.520  10.597  13.050
74086ION    CL-40869   1.301   9.961  13.315
74087ION    CL-40870  31.700   4.795   5.231
74088ION    CL-40871  25.976  42.596  10.068
74089ION    CL-40872  13.139  38.622  14.452
74090ION    CL-40873  27.491   6.690  10.606
74091ION    CL-40874  33.339  43.104   3.617
74092ION    CL-40875   0.449   9.103  10.671
74093ION    CL-40876  34.394   9.148   5.184
74094ION    CL-40877  22.680  29.516   9.862
74095ION    CL-40878  15.294  31.370  14.369
74096ION    CL-40879  24.840  26.855  13.026
74097ION    CL-40880  38.997  14.758   5.134
74098ION    CL-40881  16.637  31.652   4.158
74099ION    CL-40882  42.767  32.021   3.240
74100ION    CL-40883  23.176   8.148   3.063
74101ION    CL-40884  31.814  25.178  11.493
74102ION    CL-40885  28.760   3.828  12.148
74103ION    CL-40886  22.804  22.149   0.900
74104ION    CL-40887  34.559  37.352  14.644
74105ION    CL-40888  31.359  24.765  10.408
74106ION    CL-40889  20.911   5.794  12.638
74107ION    CL-40890  43.391  19.042   2.824
74108ION    CL-40891  11.872  25.217   3.142
74109ION    CL-40892  38.540  41.336  14.400
74110ION    CL-40893   7.711  31.162   0.361
74111ION    CL-40894  17.277  32.234   3.656
74112ION    CL-40895  15.282   5.291  14.083
74113ION    CL-40896   2.330   9.352  11.490
74114ION    CL-40897  43.762  36.300  11.972
74115ION    CL-40898  16.723  25.000  12.473
74116ION    CL-40899   4.489  23.736   2.628
74117ION    CL-40900  33.288  13.436  13.702
74118ION    CL-40901  16.246   6.934  13.797
74119ION    CL-40902  38.832  12.365   2.733
74120ION    CL-40903  17.072  37.601   0.458
74121ION    CL-40904  27.192  21.641  14.304
74122ION    CL-40905  30.965  36.266  13.369
74123ION    CL-40906  41.575   8.583   2.769
74124ION    CL-40907  13.755  38.277  11.662
74125ION    CL-40908  28.344  44.565   0.868
74126ION    CL-40909  15.152  20.006  14.204
74127ION    CL-40910   1.810  28.808   1.397
74128ION    CL-40911  27.125   2.364   3.853
74129ION    CL-40912  30.934   6.908  14.354
74130ION    CL-40913  12.630   3.398  12.491
74131ION    CL-40914  42.803  12.516  13.134
74132ION    CL-40915   0.236  43.667   2.069
74133ION    CL-40916  26.573  22.075  13.649
74134ION    CL-40917  21.333  44.750   1.846
74135ION    CL-40918  17.581  34.828   2.663
74136ION    CL-40919   6.759  38.742   2.381
74137ION    CL-40920  29.048  34.086  14.440
74138ION    CL-40921  21.838  12.962   4.726
74139ION    CL-40922   5.623  41.695   3.564
74140ION    CL-40923  41.647  32.430  11.250
74141ION    CL-40924  10.137   6.712   0.704
74142ION    CL-40925  32.073   5.056  14.018
74143ION    CL-40926  12.823  13.582   0.845
74144ION    CL-40927  33.352   4.539  12.407
74145ION    CL-40928  43.711  19.146   4.157
74146ION    CL-40929  25.148  36.394   0.696
74147ION    CL-40930  21.340  14.341   3.817
74148ION    CL-40931  25.782  36.932  12.954
74149ION    CL-40932  13.767  22.799  11.338
74150ION    CL-40933  11.936   9.329  11.637
74151ION    CL-40934  10.108  24.441  10.439
74152ION    CL-40935  39.904  15.708   1.752
74153ION    CL-40936  24.936  41.415   0.945
74154ION    CL-40937  25.638  42.943   1.882
74155ION    CL-40938  38.318  31.388   2.277
74156ION    CL-40939   3.190  33.358   5.166
74157ION    CL-40940   8.277  13.293  13.675
74158ION    CL-40941  40.933  35.826   0.300
74159ION    CL-40942  15.812  25.933   2.979
74160ION    CL-40943  22.071   6.174   0.377
74161ION    CL-40944   5.341  29.398  14.472
74162ION    CL-40945   3.687   1.138  13.613
74163ION    CL-40946  39.332  20.166   0.747
74164ION    CL-40947  20.677  11.889  11.659
74165ION    CL-40948   2.634  24.306   2.145
74166ION    CL-40949  32.583  41.577   2.220
74167ION    CL-40950  27.832  11.277   2.106
74168ION    CL-40951  21.961  26.551  11.148
74169ION    CL-40952   4.263  41.008  14.479
74170ION    CL-40953  11.589  32.695   4.661
74171ION    CL-40954  12.009  22.094  10.896
74172ION    CL-40955  24.614  32.404   0.252
74173ION    CL-40956   2.919   1.005   3.098
74174ION    CL-40957  25.739  44.547   4.023
74175ION    CL-40958  28.361   5.120  14.427
74176ION    CL-40959  28.249  21.728  13.350
74177ION    CL-40960  25.225  26.363   2.596
74178ION    CL-40961  10.136  16.410   1.554
74179ION    CL-40962  30.942  16.082   4.530
74180ION    CL-40963  39.260  30.864  12.168
74181ION    CL-40964  18.288  16.996   2.821
74182ION    CL-40965   7.177  33.213   4.108
74183ION    CL-40966  20.969  41.504   2.091
74184ION    CL-40967   4.007  18.794  13.519
74185ION    CL-40968  24.015  11.674   2.212
74186ION    CL-40969  42.894  12.645   4.958
74187ION    CL-40970  10.947  33.718  12.595
74188ION    CL-40971  23.189   0.471   0.563
74189ION    CL-40972   7.556  25.482  11.622
74190ION    CL-40973  32.482  32.262   2.299
74191ION    CL-40974   1.964   3.090  13.429
74192ION    CL-40975  44.454  36.663  13.005
74193ION    CL-40976   5.678   3.235   2.117
74194ION    CL-40977  26.907  25.505  14.082
74195ION    CL-40978  38.347  32.971   3.319
74196ION    CL-40979  43.086  25.748  14.853
74197ION    CL-40980  44.022  21.368   0.747
74198ION    CL-40981   2.182  20.973  11.201
74199ION    CL-40982  18.258   6.579  14.019
74200ION    CL-40983  15.610   8.984   3.021
74201ION    CL-40984  40.532  27.645  14.925
74202ION    CL-40985  37.312  41.324  14.762
74203ION    CL-40986  42.934  22.735   1.405
74204ION    CL-40987  36.038  26.938   2.258
74205ION    CL-40988  22.882   7.049   2.151
74206ION    CL-40989  24.150  29.179   1.473
74207ION    CL-40990  22.495   8.882   3.673
74208ION    CL-40991  39.034   0.542  13.758
74209ION    CL-40992   4.750  42.382   1.657
74210ION    CL-40993  24.330  33.715  12.321
74211ION    CL-40994  17.925   8.934  12.342
74212ION    CL-40995  14.357  32.735  14.466
74213ION    CL-40996  25.122  32.643   1.828
74214ION    CL-40997  13.484   2.739   0.114
74215ION    CL-40998  14.079  25.786   1.059
74216ION    CL-40999   8.194  35.302   2.709
74217ION    CL-41000  37.142  26.950  11.366
74218ION    CL-41001  18.120  44.739  14.344
74219ION    CL-41002  39.115  39.802   1.275
74220ION    CL-41003  31.587  13.989  14.436
74221ION    CL-41004   2.675  35.452   3.821
74222ION    CL-41005   3.723  10.644  13.574
74223ION    CL-41006  22.947  34.710   1.840
74224ION    CL-41007  11.294   4.450  13.000
74225ION    CL-41008  13.569  13.153  14.409
74226ION    CL-41009   2.556  13.531   0.906
74227ION    CL-41010  33.885   8.284  13.559
74228ION    CL-41011   6.629  20.881  14.085
74229ION    CL-41012   6.661   6.802  13.367
74230ION    CL-41013  30.971   0.204   2.505
74231ION    CL-41014  19.358  23.731  12.593
74232ION    CL-41015  34.555  17.652   0.337
74233ION    CL-41016  17.692   6.112   1.815
74234ION    CL-41017  37.405   8.947  11.110
74235ION    CL-41018  27.218   7.681  12.983
74236ION    CL-41019  20.305  34.131  11.992
74237ION    CL-41020  15.563  25.296  11.632
74238ION    CL-41021   7.516  38.459   4.054
74239ION    CL-41022  10.560  19.484   2.499
74240ION    CL-41023   4.314  24.710   3.712
74241ION    CL-41024   4.442  19.819   3.246
74242ION    CL-41025  29.396  17.214   2.642
74243ION    CL-41026  36.170  15.774   2.014
74244ION    CL-41027  27.851  13.113   5.113
74245ION    CL-41028  11.368  42.366   3.875
74246ION    CL-41029  18.009   0.751  13.918
74247ION    CL-41030  18.668  13.280   4.919
74248ION    CL-41031  33.661  32.819   2.212
74249ION    CL-41032   6.526  14.519   3.822
74250ION    CL-41033   8.723  30.574   4.110
74251ION    CL-41034   4.214  22.546   2.862
74252ION    CL-41035  24.770   7.128  12.458
74253ION    CL-41036  31.307  43.415   2.438
74254ION    CL-41037  28.189  34.114  12.946
74255ION    CL-41038  11.788  37.816   3.570
74256ION    CL-41039  20.031   2.763   0.833
74257ION    CL-41040  37.114  20.202   2.758
74258ION    CL-41041   3.061  32.922  11.599
74259ION    CL-41042  10.101   7.791   0.839
74260ION    CL-41043   6.384  35.958  11.466
74261ION    CL-41044  38.848  35.315  10.807
74262ION    CL-41045  32.911   7.344  12.833
74263ION    CL-41046  37.987  24.133   0.151
74264ION    CL-41047  19.035  23.748   4.133
74265ION    CL-41048  33.271  37.044  12.416
74266ION    CL-41049   3.089  12.017  13.305
74267ION    CL-41050   1.443  42.481   0.712
74268ION    CL-41051  33.897  30.922  11.230
74269ION    CL-41052  14.100   3.494  11.959
74270ION    CL-41053  23.096  20.525  14.348
74271ION    CL-41054   1.004   0.591  13.841
74272ION    CL-41055  10.156  14.650  13.074
74273ION    CL-41056  35.677  43.875   2.465
74274ION    CL-41057   0.189  36.105   4.111
74275ION    CL-41058  42.403  12.037  11.524
74276ION    CL-41059   0.438  19.008  14.121
74277ION    CL-41060  31.438  33.507   4.080
74278ION    CL-41061  30.569  20.775  13.059
74279ION    CL-41062  41.597  22.359   5.009
74280ION    CL-41063  33.358  21.226  10.613
74281ION    CL-41064   6.095  30.817  11.410
74282ION    CL-41065  30.008  23.780   1.437
74283ION    CL-41066  34.624  14.212   0.314
74284ION    CL-41067  12.026   3.712  13.031
74285ION    CL-41068  31.636  18.367   2.648
74286ION    CL-41069   1.402   5.079   1.902
74287ION    CL-41070   7.386  35.927   3.703
74288ION    CL-41071   8.398  41.958   2.795
74289ION    CL-41072  41.300   9.102  14.343
74290ION    CL-41073  28.376  43.795  11.048
74291ION    CL-41074   2.417  38.693  11.146
74292ION    CL-41075  31.309   1.987  10.115
74293ION    CL-41076  11.192   0.782   5.063
74294ION    CL-41077  18.178  39.525  11.397
74295ION    CL-41078   3.592   5.665  14.819
74296ION    CL-41079  44.515   8.840   1.193
74297ION    CL-41080  41.616  26.248   1.353
74298ION    CL-41081  11.871  21.206   3.704
74299ION    CL-41082  41.891   2.521  14.845
74300ION    CL-41083   0.740  28.977  13.573
74301ION    CL-41084  33.159  13.863   1.953
74302ION    CL-41085  18.311  16.818  11.885
74303ION    CL-41086  35.359  24.229  12.613
74304ION    CL-41087  39.437  35.827  12.427
74305ION    CL-41088   1.347  26.237   0.079
74306ION    CL-41089   3.402   0.199  10.674
74307ION    CL-41090  24.893  22.526  10.601
74308ION    CL-41091  26.893  34.509   3.371
74309ION    CL-41092  27.983   1.008   0.874
74310ION    CL-41093   4.910  23.472   0.565
74311ION    CL-41094   5.008  38.507  14.263
74312ION    CL-41095  44.861  22.314   3.878
74313ION    CL-41096  16.112  14.105  13.783
74314ION    CL-41097  31.933   4.103  12.259
74315ION    CL-41098   2.557   2.054   3.305
74316ION    CL-41099   4.458  36.150  13.704
74317ION    CL-41100   4.422  40.875  12.587
74318ION    CL-41101   4.826  34.658  11.091
74319ION    CL-41102  24.441  32.353  13.452
74320ION    CL-41103   7.314  26.029   0.736
74321ION    CL-41104  12.823   1.583  13.561
74322ION    CL-41105   8.379  30.926   3.239
74323ION    CL-41106  23.939   7.685  14.983
74324ION    CL-41107  34.062  21.508   1.311
74325ION    CL-41108  44.663  30.044   1.044
74326ION    CL-41109  16.547  30.967  12.760
74327ION    CL-41110  38.590  18.578   3.016
74328ION    CL-41111  28.222  43.299  14.013
74329ION    CL-41112  41.014  17.773  11.565
74330ION    CL-41113  44.953  14.125  14.431
74331ION    CL-41114  22.032  23.570   4.105
74332ION    CL-41115   4.923  28.745   1.627
74333ION    CL-41116  35.101  38.007  11.752
74334ION    CL-41117  31.746  12.544   3.125
74335ION    CL-41118  15.339  10.265   4.693
74336ION    CL-41119  28.415  20.866   1.390
74337ION    CL-41120  43.120   8.509   3.349
74338ION    CL-41121  26.236  17.604   2.690
74339ION    CL-41122  24.699  39.560  11.968
74340ION    CL-41123  18.383  40.539  13.909
74341ION    CL-41124  38.848  11.797   5.019
74342ION    CL-41125  18.525   9.351   0.982
74343ION    CL-41126  31.453   3.012   3.943
74344ION    CL-41127  21.466  20.922   2.204
74345ION    CL-41128  38.100  31.675   1.344
74346ION    CL-41129  25.703  15.032  11.227
74347ION    CL-41130   7.342   3.179  12.596
74348ION    CL-41131  37.751  10.320   0.250
74349ION    CL-41132  15.728  15.679   2.155
74350ION    CL-41133   6.540  42.071   0.042
74351ION    CL-41134  36.577   2.586  12.417
74352ION    CL-41135  36.879   1.620  13.368
74353ION    CL-41136   6.702  10.342   1.870
74354ION    CL-41137  19.177  18.422   9.778
74355ION    CL-41138  19.564  13.803   3.224
74356ION    CL-41139  19.788  25.508  11.999
74357ION    CL-41140  19.481  42.406   3.432
74358ION    CL-41141  30.472   3.738  10.349
74359ION    CL-41142  34.704   9.767   4.753
74360ION    CL-41143  37.092  22.673  12.846
74361ION    CL-41144   6.612  41.404  11.308
74362ION    CL-41145   0.032  20.337  11.871
74363ION    CL-41146   7.618  25.761   2.168
74364ION    CL-41147  13.845  31.385   2.920
74365ION    CL-41148   4.618  30.373   2.299
74366ION    CL-41149   9.878  36.501   2.737
74367ION    CL-41150  10.611   7.504  12.943
74368ION    CL-41151  21.821   9.419  12.062
74369ION    CL-41152  10.073  19.776  12.861
74370ION    CL-41153  41.996  16.151   1.236
74371ION    CL-41154  30.321  22.514   1.547
74372ION    CL-41155   3.137  14.238  14.136
74373ION    CL-41156  37.362  25.639  11.179
74374ION    CL-41157   2.939  36.148  11.932
74375ION    CL-41158  35.848  29.749  11.499
74376ION    CL-41159  27.434  43.404   0.542
74377ION    CL-41160  32.926  13.661   0.363
74378ION    CL-41161  17.447  33.281  14.224
74379ION    CL-41162  10.376  28.705  12.842
74380ION    CL-41163  12.090  12.763   1.865
74381ION    CL-41164   2.771  26.915   0.757
74382ION    CL-41165  37.424  44.350   0.880
74383ION    CL-41166  28.427  20.087  12.301
74384ION    CL-41167  42.628  14.875   1.349
74385ION    CL-41168  15.991  22.183   0.463
74386ION    CL-41169  10.984  37.342  11.225
74387ION    CL-41170  28.448   9.157  11.999
74388ION    CL-41171   1.601  42.798   1.710
74389ION    CL-41172  33.394  13.335  12.808
74390ION    CL-41173  19.027   9.828   3.520
74391ION    CL-41174  33.347  23.616   2.309
74392ION    CL-41175  34.364  32.063  11.671
74393ION    CL-41176  22.923  11.332   1.218
74394ION    CL-41177   9.227  22.113  10.992
74395ION    CL-41178   4.942  11.430  11.842
74396ION    CL-41179  13.325  19.322   2.813
74397ION    CL-41180  10.094  16.860  12.841
74398ION    CL-41181   7.813  44.169   2.273
74399ION    CL-41182  43.334   5.080   3.629
74400ION    CL-41183  37.911  32.485  13.824
74401ION    CL-41184  30.996  37.567   3.628
74402ION    CL-41185  18.089  44.785   1.298
74403ION    CL-41186  11.394  27.317  11.227
74404ION    CL-41187   5.978  39.889  11.455
74405ION    CL-41188  12.650  11.231   3.587
74406ION    CL-41189  29.176   9.858   1.806
74407ION    CL-41190  10.757  14.698  14.502
74408ION    CL-41191  41.792   2.915   2.678
74409ION    CL-41192  42.416  34.767  10.188
74410ION    CL-41193  24.401  29.865  12.626
74411ION    CL-41194  29.503  10.202   4.341
74412ION    CL-41195  41.663  44.480  13.055
74413ION    CL-41196  10.357  31.870  11.616
74414ION    CL-41197  11.091  18.042   4.183
74415ION    CL-41198  26.361  30.225   3.426
74416ION    CL-41199   0.984  26.862   5.024
74417ION    CL-41200  10.241   1.073   1.831
74418ION    CL-41201   6.311  40.026   0.842
74419ION    CL-41202  40.553  22.476  13.034
74420ION    CL-41203  24.399  14.094   0.948
74421ION    CL-41204  17.731  25.221  10.217
74422ION    CL-41205  35.895   7.055  13.007
74423ION    CL-41206  36.975   5.800  10.459
74424ION    CL-41207  35.324  25.137   0.928
74425ION    CL-41208  31.033  36.569   0.432
74426ION    CL-41209  43.088  21.070   0.494
74427ION    CL-41210  18.639  43.755  11.456
74428ION    CL-41211  43.883  30.896   3.285
74429ION    CL-41212  10.913  23.899   4.990
74430ION    CL-41213   4.467  27.854   4.088
74431ION    CL-41214  10.746  34.535   1.708
74432ION    CL-41215  38.050  41.452  13.405
74433ION    CL-41216  36.833  35.719   2.246
74434ION    CL-41217  38.455  20.282   1.271
74435ION    CL-41218  14.349  13.094  13.616
74436ION    CL-41219   0.514   7.475  11.004
74437ION    CL-41220   8.157   9.805  14.721
74438ION    CL-41221  38.435   0.367  12.825
74439ION    CL-41222   1.191  14.817  13.551
74440ION    CL-41223  14.484  36.582   3.575
74441ION    CL-41224   2.910  32.140  12.768
74442ION    CL-41225   1.359  33.987   3.352
74443ION    CL-41226  41.453  14.055  14.302
74444ION    CL-41227   1.880   5.010  13.279
74445ION    CL-41228  10.466  19.244   4.701
74446ION    CL-41229  14.446   5.442  11.674
74447ION    CL-41230   5.936  16.555   4.857
74448ION    CL-41231  10.626  31.113   1.862
74449ION    CL-41232   7.218  10.374   3.679
74450ION    CL-41233  30.923  27.261   1.769
74451ION    CL-41234  22.864  29.514  13.716
74452ION    CL-41235  30.594  16.900  11.865
74453ION    CL-41236   7.124  38.347   1.745
74454ION    CL-41237  16.428   3.410   0.332
74455ION    CL-41238   1.627   4.597  12.354
74456ION    CL-41239  28.875  44.710   1.935
74457ION    CL-41240  44.338  43.442  13.011
74458ION    CL-41241  18.729  23.385  11.372
74459ION    CL-41242  32.972  18.781   2.740
74460ION    CL-41243  13.555   8.429   4.613
74461ION    CL-41244   1.052   2.029   1.383
74462ION    CL-41245  13.080   6.859   0.857
74463ION    CL-41246  42.055  18.628   1.376
74464ION    CL-41247  32.666  38.566  11.921
74465ION    CL-41248  14.810  43.521  14.856
74466ION    CL-41249  20.131  42.926   2.709
74467ION    CL-41250  13.491  32.301   2.730
74468ION    CL-41251  22.817  44.058   4.629
74469ION    CL-41252  15.823  32.488  11.485
74470ION    CL-41253  24.510  31.430   3.070
74471ION    CL-41254  39.320   1.245   4.917
74472ION    CL-41255  40.947  37.713  14.254
74473ION    CL-41256  18.819  12.889  10.985
74474ION    CL-41257  23.604  36.634   0.323
74475ION    CL-41258   0.975  20.159  12.152
74476ION    CL-41259   5.727  20.785  13.666
74477ION    CL-41260  37.825   3.335   4.058
74478ION    CL-41261   3.657   5.056   4.087
74479ION    CL-41262   6.685  21.671   0.315
74480ION    CL-41263  38.250  36.785   0.239
74481ION    CL-41264  16.588  32.367  13.763
74482ION    CL-41265  44.208  31.834   3.403
74483ION    CL-41266  20.783  28.497   4.856
74484ION    CL-41267  43.469  41.319   3.805
74485ION    CL-41268  22.208  44.028  11.097
74486ION    CL-41269  14.297  17.814   1.369
74487ION    CL-41270  33.420   0.705  11.623
74488ION    CL-41271  14.185   6.254   2.129
74489ION    CL-41272   0.275  34.418   0.354
74490ION    CL-41273  31.173  24.157  14.946
74491ION    CL-41274  26.221  38.524   3.731
74492ION    CL-41275  30.414   9.167  13.549
74493ION    CL-41276  29.231  26.827   3.084
74494ION    CL-41277   2.483  32.115  11.723
74495ION    CL-41278  24.991  16.438   4.171
74496ION    CL-41279  16.435  34.970  14.683
74497ION    CL-41280  37.876  27.208  14.816
74498ION    CL-41281  12.575  27.345   4.812
74499ION    CL-41282  11.503  44.350   3.642
74500ION    CL-41283  33.986  43.500  13.625
74501ION    CL-41284   4.705   4.375   3.996
74502ION    CL-41285  21.207   0.454   4.169
74503ION    CL-41286   8.096  40.119  11.624
74504ION    CL-41287   2.682  21.065   3.323
74505ION    CL-41288  34.641   8.168   1.777
74506ION    CL-41289   5.651  40.072   3.507
74507ION    CL-41290  25.976  16.175  14.513
74508ION    CL-41291  34.559  15.806   0.969
74509ION    CL-41292   7.471  26.847  12.343
74510ION    CL-41293   7.760   8.034   2.469
74511ION    CL-41294  12.965  29.330  12.431
74512ION    CL-41295  17.126  35.406   3.792
74513ION    CL-41296  11.849  42.723   1.918
74514ION    CL-41297   9.978   1.345  14.539
74515ION    CL-41298  31.292  35.156   4.583
74516ION    CL-41299  18.868  32.729  12.860
74517ION    CL-41300  10.677  40.671  13.442
74518ION    CL-41301  42.474  44.071   2.428
74519ION    CL-41302  37.773  42.695   1.256
74520ION    CL-41303  29.894  17.427   1.122
74521ION    CL-41304  21.771  17.055   2.581
74522ION    CL-41305   0.199  37.555   4.061
74523ION    CL-41306  35.062  23.479  13.765
74524ION    CL-41307   3.690  23.292   2.166
74525ION    CL-41308  10.249  24.660   1.201
74526ION    CL-41309  10.085  37.359   3.206
74527ION    CL-41310  42.814  25.075   1.149
74528ION    CL-41311  23.682  34.634   3.339
74529ION    CL-41312  39.345  37.340  12.556
74530ION    CL-41313  22.152  32.769  13.555
74531ION    CL-41314  38.200  38.947   4.737
74532ION    CL-41315  38.567  24.996   4.830
74533ION    CL-41316  26.137  20.997  11.926
74534ION    CL-41317  38.035  12.215  14.768
74535ION    CL-41318  13.137  37.335   0.473
74536ION    CL-41319  16.834  20.242  13.994
74537ION    CL-41320  24.770  44.826   5.206
74538ION    CL-41321  35.746  35.467   0.347
74539ION    CL-41322  29.825  15.816  12.986
74540ION    CL-41323  37.113  40.605  14.239
74541ION    CL-41324  42.206  32.167   2.331
74542ION    CL-41325   4.025  28.545   4.661
74543ION    CL-41326   4.221   2.860   3.268
74544ION    CL-41327  22.035  21.513   4.219
74545ION    CL-41328  27.504  22.524   0.838
74546ION    CL-41329   2.273  26.017   0.904
74547ION    CL-41330  19.568  22.630   0.997
74548ION    CL-41331  31.908  21.796   1.326
74549ION    CL-41332   3.897  23.902   5.166
74550ION    CL-41333   7.652   9.028   2.505
74551ION    CL-41334  13.794  30.434  14.295
74552ION    CL-41335  42.365  17.585  14.271
74553ION    CL-41336  42.392   5.316   4.148
74554ION    CL-41337  13.612  35.400  13.346
74555ION    CL-41338  24.098  39.558  10.238
74556ION    CL-41339  17.259  36.838  13.614
74557ION    CL-41340   9.869  20.318  13.886
74558ION    CL-41341  40.498  11.266   3.626
74559ION    CL-41342  30.367  43.390   2.096
74560ION    CL-41343  28.721  12.714   4.076
74561ION    CL-41344  25.525  33.619   4.655
74562ION    CL-41345   8.735  14.268  14.035
74563ION    CL-41346   8.019   6.178   4.175
74564ION    CL-41347  24.004   5.047   1.109
74565ION    CL-41348   6.746  26.644   3.247
74566ION    CL-41349   2.907  31.615  13.619
74567ION    CL-41350   9.323  35.948  11.182
74568ION    CL-41351  32.998  12.340  10.642
74569ION    CL-41352  25.865  25.918   3.039
74570ION    CL-41353  15.846  42.596  11.616
74571ION    CL-41354  11.676  33.944  13.556
74572ION    CL-41355   7.133  42.273  13.031
74573ION    CL-41356  33.922  32.170  10.781
74574ION    CL-41357  43.949  17.778  10.798
74575ION    CL-41358  20.404  35.267  11.500
74576ION    CL-41359  31.139  26.844  11.928
74577ION    CL-41360  22.181  13.242  14.839
74578ION    CL-41361  38.623   4.780   3.147
74579ION    CL-41362  32.484  24.262  13.568
74580ION    CL-41363  33.974   0.847  12.958
74581ION    CL-41364   3.921  31.560  14.766
74582ION    CL-41365   5.681  11.183   2.383
74583ION    CL-41366  11.480   3.734   0.066
74584ION    CL-41367   3.422  33.891  11.595
74585ION    CL-41368  11.562  34.812  14.301
74586ION    CL-41369  14.619  37.706   3.736
74587ION    CL-41370  29.623  42.772   2.351
74588ION    CL-41371   1.826  28.157   4.887
74589ION    CL-41372  36.742  30.290   1.230
74590ION    CL-41373   9.183  31.056   0.804
74591ION    CL-41374  14.772  44.976   4.160
74592ION    CL-41375  13.287   6.506   1.769
74593ION    CL-41376  10.262  19.422   5.330
74594ION    CL-41377  14.068   5.193  10.101
74595ION    CL-41378  42.557   6.980  14.356
74596ION    CL-41379  16.884  16.895  13.877
74597ION    CL-41380  35.316  22.022  13.989
74598ION    CL-41381   0.576   1.954  14.335
74599ION    CL-41382  34.572  44.323   3.087
74600ION    CL-41383  23.049  11.066  13.265
74601ION    CL-41384  32.047  27.613  14.070
74602ION    CL-41385  26.855  29.611   3.774
74603ION    CL-41386  34.491   2.702  12.027
74604ION    CL-41387  40.104   8.684   9.624
74605ION    CL-41388  37.742  25.365   4.939
74606ION    CL-41389  39.534  29.035  12.597
74607ION    CL-41390   2.413   0.797  11.909
74608ION    CL-41391  36.820  14.161  10.655
74609ION    CL-41392  42.528  26.481  11.528
74610ION    CL-41393  39.840  16.177  13.910
74611ION    CL-41394  33.582  13.267   3.231
74612ION    CL-41395  22.497  35.360   1.228
74613ION    CL-41396  29.066  24.369   3.230
74614ION    CL-41397  40.575  37.970   3.263
74615ION    CL-41398  15.580   4.723  14.850
74616ION    CL-41399  21.075  11.654  14.729
74617ION    CL-41400  25.794   2.253  11.006
74618ION    CL-41401  37.069  18.209  12.651
74619ION    CL-41402  23.986   8.800  14.818
74620ION    CL-41403   6.067  42.679  13.420
74621ION    CL-41404   0.123  43.574   1.173
74622ION    CL-41405  20.981   2.854   0.533
74623ION    CL-41406  40.961  24.603   2.060
74624ION    CL-41407  20.825  37.448  14.593
74625ION    CL-41408  30.650  31.723  11.286
74626ION    CL-41409   6.239  34.658   3.357
74627ION    CL-41410  40.310   8.088  13.456
74628ION    CL-41411   7.164  17.899   4.944
74629ION    CL-41412  18.332  24.054   0.620
74630ION    CL-41413  38.309  44.519   2.101
74631ION    CL-41414  19.667  11.968   4.612
74632ION    CL-41415  16.932  24.142   4.232
74633ION    CL-41416  31.700   6.526  14.599
74634ION    CL-41417  28.530  18.489  12.247
74635ION    CL-41418   7.217   6.355   3.070
74636ION    CL-41419  10.535   3.045  11.975
74637ION    CL-41420  28.222   6.859  11.284
74638ION    CL-41421  41.301   3.949   3.204
74639ION    CL-41422  14.774  35.383  10.348
74640ION    CL-41423  15.780  38.964  12.963
74641ION    CL-41424  16.713  26.878   0.914
74642ION    CL-41425  36.906  25.560   2.571
74643ION    CL-41426  22.663  36.662  10.879
74644ION    CL-41427   8.526  13.091   2.777
74645ION    CL-41428  23.723   5.191   4.519
74646ION    CL-41429  33.143   0.494  13.089
74647ION    CL-41430  18.213  30.461   4.172
74648ION    CL-41431   7.773  12.662   2.278
74649ION    CL-41432   0.953  18.685   1.381
74650ION    CL-41433  11.624  43.068   3.211
74651ION    CL-41434  34.832  21.052   5.468
74652ION    CL-41435  10.815  10.650   4.541
74653ION    CL-41436  17.251   2.838  10.371
74654ION    CL-41437   6.655  20.146   3.717
74655ION    CL-41438  15.573  22.615  13.631
74656ION    CL-41439  17.416  20.676   2.261
74657ION    CL-41440   5.211   7.178  11.171
74658ION    CL-41441  29.884  37.443   4.140
74659ION    CL-41442   0.668   8.900  14.932
74660ION    CL-41443  40.390   9.722  12.945
74661ION    CL-41444  30.735  10.142   2.118
74662ION    CL-41445   5.287  23.774  13.527
74663ION    CL-41446  33.162  34.361   2.890
74664ION    CL-41447  43.353   5.915   2.305
74665ION    CL-41448  19.086  32.884  13.873
74666ION    CL-41449  13.420   2.708   1.719
74667ION    CL-41450  28.439  11.494   2.871
74668ION    CL-41451  37.775  39.601   3.187
74669ION    CL-41452  20.988  10.286   3.319
74670ION    CL-41453   5.143   3.879  14.713
74671ION    CL-41454   5.143  26.026   0.427
74672ION    CL-41455  37.837   7.888   2.774
74673ION    CL-41456  17.072   8.781   9.852
74674ION    CL-41457   9.597  22.659   1.370
74675ION    CL-41458  29.593   3.839  10.815
74676ION    CL-41459  23.197   1.802   0.702
74677ION    CL-41460  42.407  41.884   0.959
74678ION    CL-41461  18.929  28.627  13.407
74679ION    CL-41462   5.372   3.828   1.489
74680ION    CL-41463  31.566  42.859   3.339
74681ION    CL-41464  15.774  13.424   4.718
74682ION    CL-41465  27.548  15.152   4.908
74683ION    CL-41466  14.933  13.055  14.989
74684ION    CL-41467  14.407   2.752  12.555
74685ION    CL-41468   5.246  10.384   1.489
74686ION    CL-41469   5.233  44.077  12.499
74687ION    CL-41470  38.409  11.067   2.214
74688ION    CL-41471   3.780   0.228  11.623
74689ION    CL-41472  11.885  43.427  11.082
74690ION    CL-41473   3.966  34.470   2.133
74691ION    CL-41474  37.671   9.774  10.611
74692ION    CL-41475  13.756  33.010  12.911
74693ION    CL-41476  25.475   4.643  12.832
74694ION    CL-41477  31.173   6.739  13.007
74695ION    CL-41478  21.741   6.034  12.410
74696ION    CL-41479  30.215   1.112  11.530
74697ION    CL-41480  16.122  35.423   0.518
74698ION    CL-41481  17.733   2.709   0.464
74699ION    CL-41482  18.099  35.464   0.418
74700ION    CL-41483  24.371  18.673  10.489
74701ION    CL-41484  31.157   4.802  11.221
74702ION    CL-41485  16.203  17.789   0.893
74703ION    CL-41486  37.918   6.286   4.106
74704ION    CL-41487  24.395   0.462   3.547
74705ION    CL-41488  11.202  31.062  11.980
74706ION    CL-41489  19.294   0.223   2.479
74707ION    CL-41490  36.047   0.527  13.923
74708ION    CL-41491  37.549  35.552  13.747
74709ION    CL-41492   5.133  41.413  11.164
74710ION    CL-41493  32.807  37.710   1.247
74711ION    CL-41494  18.250  41.506   2.002
74712ION    CL-41495  12.474  42.017  12.491
74713ION    CL-41496  35.219  34.110  12.937
74714ION    CL-41497   8.422  35.729  13.915
74715ION    CL-41498  15.296   7.736  12.131
74716ION    CL-41499   2.999   9.297  12.860
74717ION    CL-41500  18.969   5.688  12.979
74718ION    CL-41501  12.864   8.481  14.565
74719ION    CL-41502  32.627  24.555  11.621
74720ION    CL-41503  29.117   6.402   2.256
74721ION    CL-41504   3.469   2.413   4.979
74722ION    CL-41505   1.174  38.376   4.630
74723ION    CL-41506   0.375  38.090  11.589
74724ION    CL-41507  32.361  13.591  12.557
74725ION    CL-41508  21.555  17.091   3.557
74726ION    CL-41509  11.501   2.614   2.503
74727ION    CL-41510  16.576   4.459  13.319
74728ION    CL-41511  37.906  37.289  10.635
74729ION    CL-41512  35.453  23.718   3.988
74730ION    CL-41513  18.588  23.532  12.238
74731ION    CL-41514  39.824  36.035  10.470
74732ION    CL-41515   7.501  42.959  12.403
74733ION    CL-41516  11.135  38.218  11.105
74734ION    CL-41517  26.917  18.552  14.662
74735ION    CL-41518   3.843  36.542   3.441
74736ION    CL-41519  16.613  21.227   4.403
74737ION    CL-41520   5.007  33.094   1.460
74738ION    CL-41521  27.219   2.889  10.745
74739ION    CL-41522  22.815   6.907   0.163
74740ION    CL-41523  17.168  39.295  12.520
74741ION    CL-41524  27.701   8.898   2.537
74742ION    CL-41525   9.669   4.959  13.529
74743ION    CL-41526  37.969  17.879   2.002
74744ION    CL-41527  33.441  28.368   1.187
74745ION    CL-41528  27.128   9.596   2.664
74746ION    CL-41529  30.261  11.150   2.738
74747ION    CL-41530  19.784  26.987   1.815
74748ION    CL-41531  31.044  28.410  14.727
74749ION    CL-41532   3.522  18.817  12.091
74750ION    CL-41533  13.477  17.614   3.944
74751ION    CL-41534  41.113   8.349  14.793
74752ION    CL-41535  41.405  44.510  11.877
74753ION    CL-41536  13.109  19.164  12.851
74754ION    CL-41537  28.260  10.374  11.907
74755ION    CL-41538  28.416  38.782  12.202
74756ION    CL-41539  41.937  14.675  13.234
74757ION    CL-41540  32.793  27.739  10.084
74758ION    CL-41541   7.596   0.026   3.443
74759ION    CL-41542  19.514   0.992   1.292
74760ION    CL-41543  44.083  10.937   2.404
74761ION    CL-41544   7.897  26.691   1.813
74762ION    CL-41545  19.611  20.093   3.669
74763ION    CL-41546   4.223  44.298   1.661
74764ION    CL-41547  31.363  19.480  10.935
74765ION    CL-41548  37.931   3.619  14.350
74766ION    CL-41549  26.173  21.041   1.366
74767ION    CL-41550  26.854  19.033   0.693
74768ION    CL-41551  43.953   0.521   0.683
74769ION    CL-41552  22.143   8.412  13.979
74770ION    CL-41553  19.307   7.744   1.849
74771ION    CL-41554  34.296  36.095  13.925
74772ION    CL-41555  20.090  40.314  14.829
74773ION    CL-41556   8.163  26.476  12.718
74774ION    CL-41557  36.859  19.603   4.954
74775ION    CL-41558  27.924   6.095   1.416
74776ION    CL-41559  20.399  19.357   2.614
74777ION    CL-41560  10.580   5.005  13.064
74778ION    CL-41561  19.169  36.486   4.826
74779ION    CL-41562  22.543   7.821   1.200
74780ION    CL-41563  42.123  43.068  13.826
74781ION    CL-41564  39.597  26.024  14.836
74782ION    CL-41565   1.123  35.677  12.970
74783ION    CL-41566   8.011  28.165   0.087
74784ION    CL-41567   5.904  30.305   1.704
74785ION    CL-41568  32.198  33.464  11.854
74786ION    CL-41569  28.488  28.138   3.078
74787ION    CL-41570  29.797  21.331  12.660
74788ION    CL-41571   6.138   1.315   5.079
74789ION    CL-41572   3.572   4.055  13.530
74790ION    CL-41573  21.446  17.335  11.748
74791ION    CL-41574  16.264  41.769   1.377
74792ION    CL-41575  36.984  11.079   2.419
74793ION    CL-41576  33.025  15.582   4.477
74794ION    CL-41577  19.530  28.958   0.022
74795ION    CL-41578   4.502   5.167  11.416
74796ION    CL-41579   7.917  33.541  14.666
74797ION    CL-41580   5.426  41.844  13.432
74798ION    CL-41581  41.660   1.453  11.176
74799ION    CL-41582  13.418  16.330  12.478
74800ION    CL-41583  28.079   1.095  13.413
74801ION    CL-41584  26.936  12.370   1.448
74802ION    CL-41585  44.493  17.361   3.249
74803ION    CL-41586  21.748   9.277   2.676
74804ION    CL-41587  39.582  29.335   4.814
74805ION    CL-41588  28.025  21.459  10.581
74806ION    CL-41589  42.073  20.189   0.792
74807ION    CL-41590  21.092   4.927   3.294
74808ION    CL-41591  16.604  37.680  14.578
74809ION    CL-41592  36.217  11.046  13.077
74810ION    CL-41593  43.768  38.261  10.426
74811ION    CL-41594  40.894  34.846   0.495
74812ION    CL-41595  23.757  21.711   2.855
74813ION    CL-41596  21.223   9.817  14.999
74814ION    CL-41597  33.808  43.103   4.731
74815ION    CL-41598  20.351   9.082  10.953
74816ION    CL-41599  12.291  41.284   4.998
74817ION    CL-41600  23.128   5.786  13.697
74818ION    CL-41601  14.892   3.569  10.861
74819ION    CL-41602  19.957  29.090   1.811
74820ION    CL-41603  12.129  14.288  14.200
74821ION    CL-41604   8.396  31.984  13.982
74822ION    CL-41605  28.898   9.581  14.690
74823ION    CL-41606  44.591  26.841  12.140
74824ION    CL-41607  23.601  28.583   0.107
74825ION    CL-41608  13.849  19.648   0.486
74826ION    CL-41609   9.942   1.116  12.298
74827ION    CL-41610   7.254   6.657  11.697
74828ION    CL-41611  12.788  20.667   0.685
74829ION    CL-41612  42.269  41.208   0.057
74830ION    CL-41613  44.910  40.614   3.632
74831ION    CL-41614  22.952  36.062   2.877
74832ION    CL-41615  28.338  16.333  11.111
74833ION    CL-41616  44.662  29.006   3.945
74834ION    CL-41617  15.918  41.265  11.465
74835ION    CL-41618  36.051  21.615  12.382
74836ION    CL-41619  28.990  44.261   3.244
74837ION    CL-41620   0.296  44.785   3.850
74838ION    CL-41621  17.646  30.169  12.550
74839ION    CL-41622  36.171  44.238  13.170
74840ION    CL-41623  24.031  14.506  12.018
74841ION    CL-41624  36.292  35.626  14.128
74842ION    CL-41625   9.474  29.674   1.521
74843ION    CL-41626  25.496  31.425   2.901
74844ION    CL-41627  19.536  31.594  14.381
74845ION    CL-41628  35.750  26.685   3.737
74846ION    CL-41629  38.446  30.312  14.522
74847ION    CL-41630  40.247  17.629  10.600
74848ION    CL-41631   5.349  16.380   0.947
74849ION    CL-41632  26.896  24.529  14.204
74850ION    CL-41633  44.230  31.975   2.143
74851ION    CL-41634  13.262  18.279   0.695
74852ION    CL-41635  28.711  24.260  12.514
74853ION    CL-41636  24.936   9.326  13.812
74854ION    CL-41637  27.903  18.623  13.030
74855ION    CL-41638  43.995  43.310   0.393
74856ION    CL-41639  41.501  19.511   1.409
74857ION    CL-41640   6.619  14.701  13.776
74858ION    CL-41641   1.266   0.521   1.650
74859ION    CL-41642  14.145  37.212  10.710
74860ION    CL-41643  32.790  40.496   1.094
74861ION    CL-41644  40.239  31.015  14.711
74862ION    CL-41645   2.765   9.807  13.978
74863ION    CL-41646  44.389  33.618  14.567
74864ION    CL-41647  33.427  26.793   0.417
74865ION    CL-41648   3.087  16.983   3.418
74866ION    CL-41649  16.316   7.929   3.848
74867ION    CL-41650  35.877  26.217  14.990
74868ION    CL-41651   1.910   3.048  12.340
74869ION    CL-41652  42.453  31.399   0.468
74870ION    CL-41653  41.957  31.108  12.840
74871ION    CL-41654   6.368  24.038   3.924
74872ION    CL-41655   8.616  19.588  10.546
74873ION    CL-41656  13.895  20.461   4.878
74874ION    CL-41657  31.480  43.485  10.744
74875ION    CL-41658   1.426  14.241   4.974
74876ION    CL-41659   8.234  30.533   0.750
74877ION    CL-41660  39.356  43.893   2.741
74878ION    CL-41661  17.760  14.049   0.227
74879ION    CL-41662  37.782   6.672   4.879
74880ION    CL-41663  17.749  19.532   4.035
74881ION    CL-41664  37.932   5.087  14.626
74882ION    CL-41665  27.138   9.730   0.188
74883ION    CL-41666  35.355   2.982   4.174
  45.00000  45.00000  15.00000
